32
Lattice="9.86 0 0 4.93 8.53901048131456 0 0 0 30 " PBC="1 1 1" Properties=species:S:1:pos:R:3:force:R:3 Energy="-256.97576268"
C     5.115250863200000e+00   6.674619326696922e+00  -3.173219999999972e-01 -7.38995600e-02  -2.28136600e-02  -3.43434240e-01
C     6.334948392699999e+00   7.404447100790740e+00  -4.891089000000015e-01  2.30980450e-01  -5.70569790e-01   7.44761770e-01
C     7.560646915400000e+00   6.668376456134994e+00  -5.103551999999993e-01  9.36635270e-01   1.55738470e+00   1.67706410e-01
C     8.814916119199999e+00   7.397330433286394e+00  -4.185234000000015e-01 -9.38849910e-01  -1.48730058e+00  -2.63425960e-01
C     1.004706318050000e+01   6.678313558800885e+00  -2.802411000000014e-01 -1.53856786e+00  -9.18664270e-01  -2.35439120e-01
C     1.124559617070000e+01   7.383985923878564e+00  -2.159417999999995e-01  1.20524496e+00  -2.96584490e-01   3.47648760e-01
C     1.247301472110000e+01   6.677991638105788e+00  -7.581180000000032e-02  1.99820337e+00  -1.10544600e-02  -9.26212710e-01
C     1.376922166010000e+01   7.378295868855112e+00  -1.804728000000004e-01 -2.22065100e+00   1.35158598e+00   4.86280200e-02
C     1.422867315800000e+00   2.845785775857024e-01  -3.996171000000004e-01 -4.10140780e-01  -1.03758450e-01   2.16713510e-01
C     2.645924295200000e+00   9.958750765259295e-01  -4.240637999999990e-01  6.21281200e-02  -4.77937470e-01   1.34079870e-01
C     3.842085708900000e+00   2.480629508997640e-01  -4.563516000000014e-01  2.09421863e+00   1.36223755e+00   3.28886280e-01
C     5.134405047100000e+00   9.521340807322344e-01  -4.216629000000012e-01 -2.33918806e+00   1.74100890e-01  -1.81488780e-01
C     6.330271942600000e+00   2.467263395893296e-01  -3.445889999999991e-01  1.03748338e+00   1.01586380e+00   2.44506760e-01
C     7.554873688200000e+00   1.005216583210840e+00  -3.278115000000028e-01  1.01618793e+00  -2.41211800e-02  -1.57496270e-01
C     8.816487556700000e+00   3.205967215210760e-01  -2.457242999999991e-01 -6.15971890e-01  -2.32615830e+00   1.99563590e-01
C     1.005357225950000e+01   9.876266485725640e-01  -2.570958000000019e-01 -5.27919260e-01   8.51087070e-01  -7.15315200e-01
C     2.680709635700000e+00   2.415108742293447e+00  -3.148689000000005e-01 -2.28351513e+00  -1.11404654e+00  -7.71096700e-02
C     3.855352092400000e+00   3.096994754387934e+00  -3.879333000000003e-01  2.88164847e+00   1.27706416e+00  -8.22812300e-02
C     5.098760358300000e+00   2.365141697788470e+00  -4.582028999999999e-01  5.43701510e-01   1.44621040e+00  -4.79027280e-01
C     6.322616737199999e+00   3.125905794510699e+00  -5.798316000000021e-01  6.65607860e-01   6.30807600e-02   7.72114270e-01
C     7.588612931999999e+00   2.443709047824845e+00  -4.674929999999975e-01 -1.76802008e+00  -1.30273718e+00  -1.71856920e-01
C     8.809189036799999e+00   3.139476673086353e+00  -4.299090000000021e-01  3.88191780e-01  -6.94861740e-01   4.21823460e-01
C     1.001886392560000e+01   2.414042305274600e+00  -2.935820999999983e-01  2.08086929e+00   8.75153100e-02   1.11191780e-01
C     1.130855532730000e+01   3.107246775760327e+00  -2.259543000000015e-01 -2.07595174e+00   4.52418760e-01  -1.79133700e-01
C     3.903895929000000e+00   4.543056027111202e+00  -3.475166999999999e-01 -2.48340770e+00  -8.06923930e-01   1.01820660e+00
C     5.098113246500000e+00   5.237201496551825e+00  -3.858665999999999e-01  1.62954598e+00   1.26486161e+00  -5.89113010e-01
C     6.350626236400000e+00   4.569654703195983e+00  -5.689635000000024e-01 -6.97631300e-01  -1.18070266e+00   4.29314570e-01
C     7.586265512500000e+00   5.279419389046203e+00  -5.265435000000025e-01 -1.82007980e-01  -1.47579412e+00  -8.81133900e-02
C     8.828064478500000e+00   4.541122880528635e+00  -4.325663999999989e-01 -1.88561771e+00   5.18174490e-01  -1.39922030e-01
C     1.000914004290000e+01   5.222408685576482e+00  -2.661113999999998e-01  2.06960340e+00   1.86183026e+00   2.87532080e-01
C     1.125588813730000e+01   4.532974273607780e+00  -1.481423999999976e-01  7.74643960e-01  -4.03845310e-01  -4.51586690e-01
C     1.249704147050000e+01   5.252205904206861e+00  -1.308423000000012e-01  4.26445610e-01  -6.55416200e-02  -3.91721530e-01
