32
Lattice="9.86 0 0 4.93 8.53901048131456 0 0 0 30 " PBC="1 1 1" Properties=species:S:1:pos:R:3:force:R:3 Energy="-257.31876542"
C     9.805501561500000e+00   1.335703613620376e-01   3.863784300000000e+00  1.71112765e+00  -9.48545850e-01   1.84508220e-01
C     1.218772316400000e+00   8.309024187335872e-01   3.896617800000000e+00 -9.38111560e-01   1.43424171e+00  -2.14511920e-01
C     2.453076647100000e+00   1.368209918715640e-01   3.841885800000000e+00 -7.70965750e-01  -5.61469860e-01   1.62899030e-01
C     3.686076056100000e+00   8.330372567436920e-01   3.821588700000000e+00 -4.51475900e-01   9.59798350e-01   8.55474000e-03
C     4.917958376400000e+00   1.683932146104208e-01   3.780151800000000e+00 -2.06461530e-01  -1.89893972e+00   4.91412340e-01
C     6.140259340299998e+00   8.732607779503607e-01   3.805934100000000e+00 -7.10088280e-01  -5.20236920e-01   2.51864180e-01
C     7.345535535200000e+00   1.100319812431840e-01   3.796699800000000e+00  1.62139530e-01   1.68083444e+00   4.91588490e-01
C     8.572359379699998e+00   8.202678496916904e-01   3.878608200000000e+00  7.74704240e-01  -4.08224100e-01  -3.93348560e-01
C     1.108613113020000e+01   2.302415919994591e+00   3.897508500000000e+00 -1.53410119e+00  -2.08974433e+00  -1.45734560e-01
C     2.432915165600000e+00   2.983908198315845e+00   3.839940300000000e+00  7.23290730e-01  -4.87405390e-01  -8.18839700e-02
C     3.672565489700000e+00   2.256492694682626e+00   3.843980100000000e+00 -1.02266452e+00   5.93851450e-01  -6.02677400e-02
C     4.853396131700000e+00   3.002739705077913e+00   3.856165200000000e+00  1.88791596e+00   3.92275290e-01   9.43021100e-02
C     6.091422464499999e+00   2.290577521255223e+00   3.898058400000000e+00  1.24112589e+00  -3.86087110e-01  -9.80327460e-01
C     7.366704659400000e+00   2.938918201459240e+00   3.824811000000000e+00 -4.81993460e-01   1.22217593e+00   5.88262910e-01
C     8.600271412800000e+00   2.213900025018282e+00   3.875002200000000e+00 -9.12066200e-02   2.30777678e+00  -9.16004500e-02
C     9.833465655400000e+00   3.000356552643050e+00   3.886661700000000e+00 -6.68373800e-02  -2.02595815e+00   1.85574260e-01
C     1.226959927290000e+01   4.380969981811623e+00   3.764491500000001e+00  1.65202671e+00   1.45427760e+00   4.60599070e-01
C     3.658222837900000e+00   5.123219027500173e+00   3.793009500000000e+00 -1.27877270e-01   3.61527600e-02  -3.27564500e-02
C     4.907062632700001e+00   4.450813451791107e+00   3.833089200000000e+00 -8.35356440e-01  -1.29673955e+00  -2.15829430e-01
C     6.146981346000000e+00   5.140774293755901e+00   3.806933100000000e+00  4.47029920e-01  -1.42886935e+00   4.47732940e-01
C     7.375791931199999e+00   4.380988340684155e+00   3.808249200000000e+00 -1.36356200e-01  -1.56455110e-01   4.81928400e-02
C     8.612565550999999e+00   5.082156719294055e+00   3.819659100000000e+00 -1.13477569e+00   1.43557493e+00   2.13384200e-01
C     9.835624058699999e+00   4.399562140109937e+00   3.890156100000000e+00  1.30626030e-01   2.49127210e-01  -8.06279310e-01
C     1.106731657400000e+01   5.110343822108325e+00   3.789709800000000e+00 -4.97291970e-01  -8.22583900e-02   4.11284730e-01
C     1.354263797270000e+01   6.546673782318270e+00   3.808756500000000e+00 -1.08352293e+00  -4.43696020e-01  -8.74959600e-02
C     4.912116572900000e+00   7.224734744668241e+00   3.821494800000000e+00 -1.50627200e-01   1.58624399e+00   4.76835000e-01
C     6.161342978299999e+00   6.545319666036351e+00   3.871172700000000e+00 -2.08910387e+00  -4.85835060e-01  -6.98852200e-01
C     7.335272557000000e+00   7.245170389939082e+00   3.838039200000000e+00  2.49987244e+00   8.74465190e-01  -5.69694800e-02
C     8.565295872900000e+00   6.528006480727733e+00   3.806163300000000e+00  1.44350048e+00   4.99540800e-02   2.71030130e-01
C     9.821761293100000e+00   7.258119372381477e+00   3.829739100000000e+00 -2.92364600e-02  -2.89439850e-01  -6.16583980e-01
C     1.106432790940000e+01   6.528444617355460e+00   3.798767100000000e+00 -4.39073010e-01   6.70079340e-01   1.25735440e-01
C     1.229025602220000e+01   7.262544373002318e+00   3.816710700000000e+00  1.23767640e-01  -1.43692425e+00  -4.31319150e-01
