32
Lattice="9.86 0 0 4.93 8.53901048131456 0 0 0 30 " PBC="1 1 1" Properties=species:S:1:pos:R:3:force:R:3 Energy="-257.22525711"
C     4.953948214500000e+00   7.265724898235804e+00  -1.941753000000013e-01  2.14748496e+00  -6.02691630e-01  -1.70046040e-01
C     6.217200223400000e+00   7.986090765596944e+00  -2.237537999999972e-01 -6.91202480e-01  -2.29407120e-01   8.45424640e-01
C     7.456102617199999e+00   7.288796023701192e+00  -2.382072000000015e-01 -2.67625580e-01  -3.90762570e-01  -3.49336110e-01
C     8.695258265099998e+00   8.003349728189015e+00  -2.000717999999999e-01 -1.93501980e-01  -1.54122909e+00  -1.06154450e-01
C     9.933087250000000e+00   7.262557010737829e+00  -2.385017999999981e-01  1.26049000e-02   3.71603090e-01   4.90092020e-01
C     1.116916968380000e+01   7.958982822927136e+00  -2.313735000000001e-01 -1.14586330e-01   1.10203479e+00   1.45423360e-01
C     1.241785556400000e+01   7.288989517678669e+00  -1.558986000000004e-01 -1.91365454e+00  -6.34243540e-01   1.32318600e-02
C     1.362174539360000e+01   7.983577564032470e+00  -1.440444000000021e-01  3.12321060e-01   4.34887900e-02  -1.81436330e-01
C     1.272353528400000e+00   8.560817404963824e-01  -5.069280000000020e-02  1.23001040e-01   5.13535250e-01  -5.27427810e-01
C     2.516005632100000e+00   1.567946681364263e+00  -3.394169999999974e-02 -4.73337060e-01   4.59880700e-01   6.30131600e-01
C     3.742791318400000e+00   8.597627371341009e-01  -9.065459999999703e-02  5.61264360e-01   3.32739630e-01  -3.03533050e-01
C     4.992122387700000e+00   1.539824645809850e+00  -1.232103000000002e-01  5.35606400e-01   9.34280500e-01  -6.09508170e-01
C     6.234897838799998e+00   8.536459023668576e-01  -2.566284000000003e-01 -2.41876080e-01  -4.19233900e-01   7.55673600e-01
C     7.471551413100000e+00   1.577632822512147e+00  -2.095923000000006e-01 -8.56425420e-01  -5.93683370e-01  -3.19481920e-01
C     8.702805552799999e+00   8.471147548111249e-01  -1.302353999999966e-01 -1.29084099e+00   1.25326447e+00  -1.91425490e-01
C     9.881263780199999e+00   1.577762188520918e+00  -4.729740000000149e-02  2.16556984e+00   6.48664500e-02   2.79454930e-01
C     2.527450429900000e+00   3.003347170283460e+00   7.497630000000000e-02  6.62683420e-01  -8.16168520e-01  -5.53864450e-01
C     3.776692019700000e+00   3.692208443868745e+00  -4.455480000000023e-02 -9.51687010e-01   4.12498800e-01  -4.19061280e-01
C     5.015717367699999e+00   2.969847436708953e+00  -1.557455999999995e-01 -1.61731277e+00   4.53548330e-01   3.55174240e-01
C     6.194959070700000e+00   3.717170703985138e+00  -2.642772000000022e-01  1.57543395e+00  -5.20060590e-01  -3.55921850e-01
C     7.427442949600000e+00   2.987149606694053e+00  -2.858726999999988e-01  1.76938499e+00   8.80108150e-01   6.50047430e-01
C     8.707315221000000e+00   3.708788896688075e+00  -2.000694000000003e-01 -1.49113688e+00   6.84455830e-01   1.96691000e-03
C     9.927476219799999e+00   3.008604895206310e+00   6.640500000000001e-03 -9.45328610e-01  -5.23912810e-01  -6.84983090e-01
C     1.115923139540000e+01   3.709530936698787e+00   6.998430000000000e-02 -1.50802160e-01  -5.03323180e-01  -5.06799600e-02
C     3.718897333900000e+00   5.129168668442218e+00  -1.799144999999989e-01  1.23906822e+00  -9.56294000e-02   1.16041780e+00
C     4.977901260399999e+00   5.827548803960083e+00  -2.253702000000004e-01 -6.77700290e-01   8.39281560e-01  -3.50942320e-01
C     6.223885254099999e+00   5.142809908464228e+00  -3.073674000000004e-01 -1.31468372e+00  -4.72369820e-01   2.87991490e-01
C     7.428000236799999e+00   5.855558978477208e+00  -3.140342999999994e-01  1.35981132e+00   5.37142380e-01   5.49530200e-02
C     8.673456424699999e+00   5.159443217758430e+00  -2.724899999999977e-01  5.31805810e-01  -1.23245976e+00   6.86445990e-01
C     9.928826645399999e+00   5.842837219103684e+00  -1.454267999999992e-01 -1.25054728e+00  -1.86838040e-01  -4.08810980e-01
C     1.112535726680000e+01   5.100804893501117e+00  -3.697799999997642e-03  1.33876108e+00   2.63127191e+00  -3.58462900e-01
C     1.236806029620000e+01   5.891585746813166e+00  -6.567330000000027e-02  1.07447820e-01  -2.75198728e+00  -4.15352690e-01
