32
Lattice="9.86 0 0 4.93 8.53901048131456 0 0 0 30 " PBC="1 1 1" Properties=species:S:1:pos:R:3:force:R:3 Energy="-256.96684996"
C     5.097084552700000e+00   6.648918015223484e+00  -2.714727000000003e-01 -3.06709000e-03   1.16483537e+00  -7.17728040e-01
C     6.316074972300000e+00   7.380016650247041e+00  -4.495541999999979e-01  2.53825680e-01   3.09824950e-01   8.45948260e-01
C     7.566856743399999e+00   6.693080325794263e+00  -5.029070999999981e-01 -7.80034560e-01  -1.75389880e+00  -1.96009620e-01
C     8.783047909000000e+00   7.361613460250649e+00  -4.455777000000012e-01  1.38660927e+00   1.57816764e+00   3.40172060e-01
C     1.002179476130000e+01   6.682337994440108e+00  -2.697918000000001e-01  1.22284645e+00   8.48241930e-01  -4.51609200e-02
C     1.129810589650000e+01   7.405399712799889e+00  -1.702821000000014e-01 -7.77550750e-01  -4.35892110e-01  -1.39389640e-01
C     1.252141248180000e+01   6.654746999947446e+00  -8.353439999999779e-02 -1.69667808e+00  -2.92304490e-01  -5.79699720e-01
C     1.369303117230000e+01   7.389198818996395e+00  -1.880433000000004e-01  2.77350044e+00  -5.59122090e-01   2.45990000e-03
C     1.425202459600000e+00   2.703771784762048e-01  -3.580998000000015e-01 -4.97595200e-01   2.56810490e-01  -9.29666840e-01
C     2.668206317600000e+00   9.745304535894928e-01  -4.607337000000022e-01 -6.00333360e-01   5.17128150e-01   9.45669090e-01
C     3.906651453900000e+00   2.645044740185848e-01  -4.538820000000001e-01 -1.47584657e+00  -1.01825558e+00  -6.66929600e-02
C     5.105502231900000e+00   9.487304311549064e-01  -4.147968000000013e-01  2.25010654e+00   1.63669897e+00  -4.00002700e-02
C     6.396864410599999e+00   2.998739947178976e-01  -2.902569000000028e-01 -1.61493738e+00  -1.20599162e+00   3.85209800e-02
C     7.610783832200000e+00   1.025083615773817e+00  -3.083361000000018e-01 -8.06570630e-01  -1.33163158e+00  -3.38550800e-01
C     8.813540451999998e+00   2.645534025486352e-01  -2.810109000000018e-01  5.05473640e-01   1.44205627e+00   1.15745780e-01
C     1.005577518070000e+01   1.021045773888140e+00  -3.412152000000006e-01  2.31068500e-02  -2.09048499e+00   6.13442560e-01
C     2.633234278000000e+00   2.398004848131693e+00  -3.214226999999994e-01  1.04227010e+00   4.80866310e-01  -4.85730270e-01
C     3.923752588600000e+00   3.124204994403293e+00  -3.736920000000019e-01 -2.68039703e+00  -1.66872559e+00  -1.96637080e-01
C     5.123401582900000e+00   2.394235643515716e+00  -4.849050000000013e-01 -1.29154320e-01  -2.83114540e-01   3.69198680e-01
C     6.341276935100000e+00   3.126010909729708e+00  -5.340230999999989e-01 -4.64882400e-02  -7.24864220e-01  -9.85260000e-04
C     7.556867823900000e+00   2.416407013446826e+00  -4.720526999999990e-01  1.84544023e+00   5.49670030e-01   1.47765670e-01
C     8.816166958800000e+00   3.109334819993002e+00  -4.360850999999997e-01 -7.61660730e-01   1.00508711e+00   3.82755950e-01
C     1.005596986640000e+01   2.432164817996514e+00  -2.822706000000004e-01 -2.10616492e+00  -1.23430044e+00  -8.18830100e-01
C     1.123507318430000e+01   3.123784448137153e+00  -2.500709999999984e-01  2.95505467e+00  -8.99285300e-02   8.39256700e-02
C     3.862235555600000e+00   4.514125347264333e+00  -3.159801000000009e-01  2.30411129e+00   9.52250870e-01   4.91243440e-01
C     5.139676597499999e+00   5.241349577062800e+00  -3.575195999999998e-01 -1.76210039e+00  -2.12973900e-01  -2.91706950e-01
C     6.353107456100000e+00   4.536528209769556e+00  -5.497428000000006e-01 -9.59232600e-02   3.05297360e-01   4.05033120e-01
C     7.589966759299999e+00   5.238620338533181e+00  -5.559989999999999e-01 -7.32622660e-01   1.17683388e+00   3.79399480e-01
C     8.798375229700000e+00   4.541324230395754e+00  -4.461192000000018e-01  1.62097786e+00   9.52641500e-02   2.69317500e-01
C     1.004981895190000e+01   5.287665511466739e+00  -2.471391000000018e-01 -8.60989360e-01  -1.94395985e+00  -4.82963220e-01
C     1.126587503550000e+01   4.526404529724678e+00  -1.784232000000010e-01 -1.06523630e-01   1.09940240e+00   1.52235000e-02
C     1.251710691560000e+01   5.201537550771162e+00  -1.421105999999988e-01 -6.48684810e-01   1.42701245e+00  -1.16069950e-01
