32
Lattice="9.86 0 0 4.93 8.53901048131456 0 0 0 30 " PBC="1 1 1" Properties=species:S:1:pos:R:3:force:R:3 Energy="-257.21311733"
C     5.008698526700000e+00   7.630603476474379e+00  -2.528880000000022e-01 -1.82750204e+00   3.16033610e-01   2.00556130e-01
C     6.203510106400000e+00   8.349035599522217e+00  -2.595080999999979e-01  9.21640540e-01   1.12014133e+00   1.39979188e+00
C     7.444375675500000e+00   7.656749755783929e+00  -2.033960999999991e-01 -5.82965800e-02  -5.86993010e-01  -9.14678800e-01
C     8.675231964199998e+00   8.339965974930990e+00  -1.995900000000006e-01  5.32760600e-02   1.52390250e+00  -2.03208670e-01
C     9.895103522699999e+00   7.635059644483471e+00  -2.669739000000000e-01  1.35868950e-01  -7.43498260e-01   6.85961720e-01
C     1.113325527470000e+01   8.328264712699932e+00  -2.051388000000003e-01 -6.29441800e-02   4.69325160e-01  -9.26552900e-02
C     1.235142741290000e+01   7.634244168982631e+00  -1.270749000000002e-01  1.65727454e+00   5.61220300e-01  -5.81168470e-01
C     1.362709774670000e+01   8.369321982889868e+00  -2.002115999999994e-01 -9.26898050e-01  -1.24716530e+00   4.59425290e-01
C     1.277211747600000e+00   1.254891955459542e+00  -5.605410000000077e-02  3.89685000e-02  -1.13065119e+00  -1.10997942e+00
C     2.487726461900000e+00   1.962814605969017e+00  -1.278456000000006e-01  1.81929625e+00  -3.13674810e-01   5.15655030e-01
C     3.747191294099999e+00   1.253345284491300e+00  -1.846928999999982e-01 -1.13944136e+00  -1.29430608e+00  -2.06978540e-01
C     4.963316447000000e+00   1.932618530159117e+00  -2.765906999999999e-01  1.21580419e+00  -3.56697820e-01   1.29009850e-01
C     6.226146645099999e+00   1.199886126260422e+00  -2.619273000000000e-01 -9.41973040e-01   1.36196042e+00   3.52886850e-01
C     7.436050877500000e+00   1.941500723470308e+00  -1.783722000000019e-01  4.97255070e-01   7.54398760e-01  -4.01204310e-01
C     8.679702537499999e+00   1.242088477755726e+00  -1.382957999999981e-01  1.91699110e-01   2.28567570e-01   8.10878000e-02
C     9.927873627100000e+00   1.968400485064614e+00  -4.875330000000133e-02 -1.53028402e+00  -9.39724500e-01  -3.79761630e-01
C     2.544578088000000e+00   3.382176869234363e+00  -9.092430000000107e-02 -1.32214360e+00  -4.52366740e-01  -3.59215210e-01
C     3.762746627300000e+00   4.071940289276860e+00  -1.841706000000016e-01 -5.05459500e-02   5.44124860e-01  -4.99844660e-01
C     4.967340066500000e+00   3.336847617491388e+00  -2.985287999999997e-01  1.32470929e+00   1.44105505e+00   2.51313030e-01
C     6.223524033000000e+00   4.080999581665406e+00  -3.285620999999992e-01 -1.51026292e+00   2.86740060e-01   1.31479420e-01
C     7.449209441900000e+00   3.415915609712205e+00  -2.398968000000004e-01 -5.64212950e-01  -2.33669110e+00  -5.52152900e-02
C     8.651477695899999e+00   4.117410178522441e+00  -2.233499999999999e-01  1.81022692e+00  -1.25599472e+00   1.84508900e-01
C     9.896136899999998e+00   3.356967148594259e+00  -1.006160999999999e-01  8.27395130e-01   2.28487530e+00  -2.15676590e-01
C     1.117218482250000e+01   4.082400406334650e+00  -1.121252999999989e-01 -1.73572499e+00  -7.70750000e-04   4.72596070e-01
C     3.727415042800000e+00   5.501353138657376e+00  -2.422640999999999e-01  4.09700000e-04   1.66091350e-01   1.13456034e+00
C     4.968506356600000e+00   6.202957689922593e+00  -2.378838000000023e-01 -8.37788900e-02   5.24928760e-01  -8.16692950e-01
C     6.193833896799999e+00   5.511709762908149e+00  -3.273803999999991e-01  1.44560445e+00  -2.25510000e-01   1.88175060e-01
C     7.470445909900000e+00   6.239879944287590e+00  -3.192836999999997e-01 -2.11259228e+00  -3.66682590e-01   2.32908410e-01
C     8.680786003600000e+00   5.523968707913657e+00  -3.062151000000028e-01 -7.96245890e-01  -5.72703180e-01   3.34667460e-01
C     9.888399856600000e+00   6.195994809996992e+00  -2.303870999999980e-01  1.05237241e+00   1.54394517e+00   7.15189200e-02
C     1.111766434690000e+01   5.509665779969551e+00  -1.041026999999985e-01  4.33714230e-01  -6.21992420e-01  -5.21902110e-01
C     1.233789224580000e+01   6.225654550558644e+00  -1.100214000000008e-01  1.23733141e+00  -6.81887730e-01  -4.67920250e-01
