32
Lattice="9.86 0 0 4.93 8.53901048131456 0 0 0 30 " PBC="1 1 1" Properties=species:S:1:pos:R:3:force:R:3 Energy="-257.28837952"
C     5.016246307399999e+00   6.798923922397006e+00  -5.046420000000040e-02 -4.83301160e-01   6.21630500e-02  -1.38353390e-01
C     6.251835149600000e+00   7.502504742247715e+00  -1.416437999999971e-01 -4.85978460e-01   1.06693489e+00   3.35457400e-01
C     7.487954657000000e+00   6.801374447624556e+00  -2.102499000000009e-01 -1.56298771e+00   4.08458090e-01   1.95061900e-02
C     8.679688043300001e+00   7.540157935909799e+00  -1.455857999999992e-01  5.19043490e-01  -5.55449190e-01  -1.23716920e-01
C     9.872945736300000e+00   6.806636612832857e+00  -2.326529999999849e-02  2.71077677e+00   1.28789398e+00   1.82784150e-01
C     1.114627432010000e+01   7.520432992481209e+00   4.340850000000000e-02  2.74737340e-01   7.78428600e-02  -1.21393020e-01
C     1.239563511730000e+01   6.812702896658059e+00   1.332981000000000e-01 -8.25705720e-01  -9.71662820e-01  -5.84181840e-01
C     1.361959123010000e+01   7.515487880732032e+00   7.447079999999999e-02  8.17649710e-01   1.97748830e-01  -1.90894480e-01
C     1.320817942700000e+00   4.121321813833224e-01  -2.772720000000106e-02  3.57736470e-01  -6.51791700e-01   4.66168330e-01
C     2.566529751100000e+00   1.133137022898681e+00  -1.110960000000105e-02 -1.25011688e+00  -5.89121960e-01  -6.14975300e-01
C     3.786786687699999e+00   4.189816632497496e-01  -1.632938999999993e-01 -7.05396480e-01  -6.47203100e-02   6.53696520e-01
C     5.003302296600000e+00   1.110460912058097e+00  -1.600403999999997e-01  1.36996746e+00   2.91590170e-01   1.63860450e-01
C     6.266176125199999e+00   4.077929124277008e-01  -7.833270000000070e-02 -1.27072372e+00  -1.44251400e-01   4.04269700e-02
C     7.484876956599999e+00   1.134248716673072e+00  -5.393580000000142e-02 -9.30623200e-02   4.44274960e-01   2.75019500e-02
C     8.694029166800000e+00   4.084782534088256e-01   4.166309999999999e-02  1.07302208e+00   8.19234200e-02   3.10097660e-01
C     9.957537585000001e+00   1.122935040127701e+00   1.061640000000000e-01 -9.71465290e-01  -4.75513370e-01  -8.71937060e-01
C     2.502505320100000e+00   2.540763184770210e+00   5.687100000000000e-02  1.52497735e+00   3.28604400e-01  -1.90206000e-01
C     3.755246076000000e+00   3.250225248089019e+00  -8.326830000000029e-02  1.14357030e-01  -1.71766360e-01   3.24014620e-01
C     5.013945772200000e+00   2.533367291623168e+00  -1.715291999999984e-01 -1.46421789e+00   8.54746600e-02  -3.50160700e-01
C     6.224988045800000e+00   3.244613068841144e+00  -2.870315999999988e-01  1.08207572e+00   2.58767900e-01   5.98889180e-01
C     7.485655797999999e+00   2.586816203041471e+00  -1.447922999999989e-01 -7.27748130e-01  -1.83494166e+00  -1.97943770e-01
C     8.705210357500000e+00   3.274851156582606e+00  -5.062500000000014e-02  1.93335880e-01   1.78761470e-01   1.00934700e-02
C     9.934163025300000e+00   2.548998718817751e+00   8.853840000000000e-02 -1.37085584e+00  -7.41183520e-01   1.65292060e-01
C     1.112288492110000e+01   3.238829853213355e+00   1.501527000000000e-01  1.87111756e+00   1.00074340e+00  -3.54495360e-01
C     3.759627169800000e+00   4.679330949262570e+00  -4.219529999999949e-02  7.62686380e-01  -9.54858540e-01  -2.87700600e-02
C     5.004653116600000e+00   5.373027693702469e+00  -1.403424000000015e-01  7.30299100e-02   3.36174290e-01  -2.79620860e-01
C     6.242033471499999e+00   4.657922369137638e+00  -3.159053999999983e-01 -1.10664523e+00   7.29284300e-01   6.82677730e-01
C     7.454072443200000e+00   5.386073423133603e+00  -2.574956999999998e-01  1.37406171e+00  -2.66825540e-01   2.25987090e-01
C     8.704106185400001e+00   4.697578473097910e+00  -1.052717999999970e-01  2.02887510e-01  -2.49384850e-01   1.49359420e-01
C     9.944590517599998e+00   5.413606608525315e+00   5.451210000000000e-02 -1.16737526e+00  -1.32398878e+00  -3.84966500e-01
C     1.116805841250000e+01   4.664162507216211e+00   1.433310000000000e-01 -7.04420120e-01   4.04323760e-01  -1.87564500e-01
C     1.239696488620000e+01   5.352595890986344e+00   9.538800000000000e-02 -1.31462150e-01   1.75449558e+00   2.63366570e-01
