32
Lattice="9.86 0 0 4.93 8.53901048131456 0 0 0 30 " PBC="1 1 1" Properties=species:S:1:pos:R:3:force:R:3 Energy="-256.73033718"
C     4.943597531600000e+00   8.475653583941543e+00  -1.907153999999984e-01 -1.35241000e-01  -1.96729743e+00  -5.71614680e-01
C     1.238213327700000e+00   6.440318955158089e-01  -2.214603000000004e-01  7.27217620e-01  -6.12027710e-01   5.28876170e-01
C     7.376430908500000e+00   8.412385920542604e+00  -1.501908000000007e-01  2.07452606e+00   2.40530253e+00  -1.06621429e+00
C     3.723218676099999e+00   6.137513688922617e-01  -3.098516999999994e-01 -9.96840290e-01  -1.98843400e-01   5.94124040e-01
C     9.905184140199999e+00   8.472173937170943e+00  -3.463031999999977e-01 -1.43802087e+00  -1.08197863e+00  -1.46323840e-01
C     6.183482523700000e+00   6.261394237362263e-01  -3.325269000000013e-01  8.70625020e-01   7.01743930e-01  -6.15403400e-02
C     1.233509777390000e+01   8.424543422103609e+00  -3.959730000000015e-01  6.90785200e-01   1.16840310e+00   3.17219290e-01
C     8.635383267199998e+00   5.965378338359441e-01  -2.552453999999997e-01  2.52319530e-01   7.56349550e-01   1.97638620e-01
C     1.302229969300000e+00   2.064622153878284e+00  -3.612888000000005e-01 -2.17210241e+00  -4.22056490e-01  -5.49116600e-01
C     2.505555264600000e+00   2.728036920062854e+00  -5.625690000000034e-01  3.62497470e-01   2.01551310e+00   4.16720800e-01
C     3.730540712100000e+00   2.036780027087405e+00  -4.132080000000009e-01  2.94364850e-01  -4.12577380e-01  -2.74070800e-01
C     4.969639566400000e+00   2.758246060558789e+00  -3.820212000000005e-01 -4.93304820e-01  -3.64075920e-01   9.44640000e-04
C     6.211636323999999e+00   2.078874701660557e+00  -2.569163999999979e-01 -1.17271855e+00  -1.91044463e+00  -9.72613500e-02
C     7.421007919199999e+00   2.756043508195578e+00  -1.706018999999976e-01  1.29100519e+00  -1.25764630e-01  -3.72378440e-01
C     8.666347167500000e+00   2.011322675143381e+00  -1.860432000000003e-01 -7.79330900e-02   1.95753557e+00  -7.78399110e-01
C     9.897060387600000e+00   2.789258551160682e+00  -3.823149000000008e-01 -1.10928380e-01  -2.21311795e+00   9.33378840e-01
C     2.478717675700000e+00   4.194448447952163e+00  -7.097106000000011e-01 -7.50332200e-02  -1.73231888e+00   2.66732740e-01
C     3.694014588600000e+00   4.876519415013647e+00  -6.182322000000013e-01  1.45347290e+00   1.38629060e-01   1.02668120e-01
C     4.914959408100000e+00   4.158044938473826e+00  -4.392759000000019e-01  1.78667395e+00   1.61367443e+00   4.46283910e-01
C     6.179652653200000e+00   4.916919010616413e+00  -2.522435999999999e-01 -6.92737620e-01  -1.59451128e+00  -4.86591480e-01
C     7.416378008300001e+00   4.170160769663689e+00  -2.108868000000008e-01 -1.80215330e-01   9.42113060e-01  -3.24190500e-02
C     8.649873375300000e+00   4.878948507324892e+00  -3.187947000000015e-01 -1.01410730e-01   1.20850382e+00   2.38494500e-02
C     9.875388354100000e+00   4.189018661968140e+00  -4.602183000000011e-01  4.30172670e-01   2.35154250e-01  -5.32799810e-01
C     1.111635903080000e+01   4.900955501304263e+00  -7.035032999999977e-01 -1.13483623e+00  -6.01712420e-01   7.85661320e-01
C     3.774252557100000e+00   6.291055941896325e+00  -5.558477999999987e-01 -1.41570422e+00   1.13588410e+00   5.61522980e-01
C     4.963333406199999e+00   7.001446537214729e+00  -2.674763999999996e-01  1.45478960e-01   1.85226489e+00  -3.74494970e-01
C     6.197951777900000e+00   6.337646832437721e+00  -2.067576000000031e-01 -1.57565700e-01  -1.57452846e+00   6.84294500e-02
C     7.434662885300000e+00   7.015741780049402e+00  -1.587585000000011e-01 -8.19456830e-01   4.08937810e-01  -7.25420300e-02
C     8.654201274400000e+00   6.336966017132151e+00  -3.096467999999994e-01 -1.07743570e-01  -1.69556884e+00   8.60222700e-02
C     9.863600033899999e+00   7.030966664955033e+00  -4.342830000000006e-01  1.55461733e+00   2.67948300e-01  -1.64676130e-01
C     1.108766485320000e+01   6.298096099866771e+00  -6.412037999999995e-01  1.85322010e+00   2.00522786e+00   3.74978030e-01
C     1.240859140380000e+01   7.047972189716058e+00  -5.806011000000026e-01 -2.50518400e+00  -2.30636133e+00  -1.24607740e-01
