32
Lattice="9.86 0 0 4.93 8.53901048131456 0 0 0 30 " PBC="1 1 1" Properties=species:S:1:pos:R:3:force:R:3 Energy="-257.26966498"
C     9.790971569699998e+00   1.172204191306148e+00   3.704510700000000e+00  1.98630880e-01  -4.82199350e-01   3.58856300e-02
C     1.164842849200000e+00   1.858748745958104e+00   3.652801800000000e+00  5.07096350e-01   1.30306582e+00   3.91877200e-02
C     2.411986378900000e+00   1.145496386667433e+00   3.632923500000000e+00 -1.02891086e+00   1.31405471e+00  -2.08863170e-01
C     3.628214766000000e+00   1.862306610064701e+00   3.570201900000000e+00  7.11121830e-01   3.30367510e-01   5.42449000e-02
C     4.869739673300000e+00   1.174174141023884e+00   3.534415800000000e+00  1.19165501e+00  -4.61577540e-01   4.26489540e-01
C     6.150201178300000e+00   1.858987240520810e+00   3.621577500000000e+00 -2.55688448e+00   1.97721000e+00  -5.34444690e-01
C     7.352127093099999e+00   1.162242069339551e+00   3.616947900000000e+00  1.90965450e-01  -1.11565539e+00   3.41024710e-01
C     8.566174941200000e+00   1.871767492116122e+00   3.725474700000000e+00  8.68020140e-01   1.28724527e+00  -1.51564840e-01
C     1.102978566720000e+01   3.305793541908457e+00   3.593489100000000e+00  1.06044831e+00  -8.91778950e-01   2.50805180e-01
C     2.436330423100000e+00   3.991272769612929e+00   3.483026700000000e+00 -2.24985680e+00   9.96937660e-01   2.81339320e-01
C     3.627544384600000e+00   3.282149192669547e+00   3.551791800000000e+00  1.19161390e+00   4.34395940e-01  -2.79635780e-01
C     4.860217082500000e+00   4.043886395026077e+00   3.577159200000000e+00  7.81405730e-01  -3.35600502e+00  -8.95219400e-02
C     6.110805942699999e+00   3.338016949586519e+00   3.629630700000000e+00  5.64791540e-01  -2.21887035e+00   2.21148000e-01
C     7.364589788000000e+00   4.002995037809768e+00   3.695706300000000e+00 -4.03299340e-01   8.90075240e-01   1.38303110e-01
C     8.630954450999999e+00   3.327218602323616e+00   3.766857300000000e+00 -2.71944536e+00  -1.66072353e+00  -3.57524830e-01
C     9.821229148899999e+00   4.032514653209442e+00   3.715117500000000e+00  1.04736886e+00   4.29447170e-01  -7.00146570e-01
C     1.226801698940000e+01   5.439731711088875e+00   3.429773400000000e+00  5.06156350e-01  -9.96794690e-01   6.15208160e-01
C     3.657773665600000e+00   6.101274128445496e+00   3.485706000000000e+00 -6.25205850e-01   1.36248851e+00  -4.13632000e-02
C     4.886187977400000e+00   5.401421782130774e+00   3.552498900000000e+00 -1.14843390e-01   2.46108726e+00   1.79879440e-01
C     6.113997230299999e+00   6.144329954038276e+00   3.650563800000000e+00 -6.78245800e-01  -2.03474450e-01  -3.59146860e-01
C     7.322147270099999e+00   5.430384141706524e+00   3.684552600000000e+00  1.84012220e+00   3.59117720e-01   2.16716690e-01
C     8.582596968399999e+00   6.157642356766701e+00   3.691143300000000e+00 -4.90480900e-01  -1.39655000e-03  -4.23922360e-01
C     9.829564299899999e+00   5.459076070820372e+00   3.616607100000000e+00 -1.15600721e+00  -2.27325570e-01   5.01006830e-01
C     1.103976719170000e+01   6.173933678691179e+00   3.522188100000000e+00  5.38811470e-01  -2.16749952e+00  -2.57522910e-01
C     1.349439210530000e+01   7.532006767285800e+00   3.548799300000000e+00  7.77488940e-01   8.54629670e-01   4.22963990e-01
C     4.864494202600000e+00   8.299854997882449e+00   3.674432700000000e+00 -3.26968600e-01  -1.79262818e+00  -5.88635580e-01
C     6.098038278000001e+00   7.567839614693758e+00   3.647520300000000e+00 -2.81147620e-01   5.06334160e-01   3.36277060e-01
C     7.318136074200000e+00   8.298361866509914e+00   3.656646600000000e+00  8.42893320e-01  -1.60189128e+00  -9.02245200e-02
C     8.567273838199998e+00   7.588982204642238e+00   3.632827800000000e+00  8.25662600e-02  -4.80728720e-01  -1.50777760e-01
C     9.809326748500000e+00   8.286114790728975e+00   3.530879700000000e+00 -3.56420950e-01  -2.24365900e-02   4.67473640e-01
C     1.104242618720000e+01   7.546298765296491e+00   3.533784000000000e+00 -5.29716910e-01   2.17348753e+00  -1.91827040e-01
C     1.226659517740000e+01   8.243762921160167e+00   3.557949900000000e+00  6.16277530e-01   1.00104153e+00  -1.02831850e-01
