32
Lattice="9.86 0 0 4.93 8.53901048131456 0 0 0 30 " PBC="1 1 1" Properties=species:S:1:pos:R:3:force:R:3 Energy="-256.80682681"
C     9.824211700299999e+00   1.037906391641319e+00   3.648559200000000e+00 -6.12612190e-01  -1.86539223e+00   4.58998890e-01
C     1.187896712400000e+00   1.706851191792947e+00   3.710183100000000e+00 -1.64564810e-01   1.34328894e+00  -6.26684370e-01
C     2.398217234000000e+00   1.041118511213581e+00   3.760355400000000e+00  1.51496951e+00  -2.59468448e+00   5.84666250e-01
C     3.644811906800000e+00   1.709850775394361e+00   3.650067000000000e+00 -2.22165510e-01   1.04427036e+00  -3.75530700e-02
C     4.856004841200000e+00   9.790812338347040e-01   3.650737500000000e+00  8.78815450e-01   1.00528686e+00   3.59271640e-01
C     6.089103984099999e+00   1.704957666219007e+00   3.705672600000000e+00  1.54171423e+00  -7.23985760e-01  -3.33392070e-01
C     7.367439870300000e+00   9.908999928499672e-01   3.673890600000000e+00 -7.22062430e-01   9.07082510e-01  -5.11142980e-01
C     8.607079693499999e+00   1.739240939395159e+00   3.613063500000000e+00 -1.97301027e+00  -4.98231330e-01   8.53292070e-01
C     1.105253273650000e+01   3.119509990271074e+00   3.532576500000000e+00 -8.14634310e-01   9.78156010e-01  -3.80000770e-01
C     2.395490845400000e+00   3.860695331424131e+00   3.380318700000000e+00  1.83976893e+00  -1.04610440e+00   9.18584850e-01
C     3.689011575299999e+00   3.150892561587171e+00   3.539351400000000e+00 -1.64555749e+00  -8.20240790e-01  -3.53592000e-02
C     4.927081587900000e+00   3.812657847117319e+00   3.659842200000000e+00 -1.72851651e+00   1.84653230e+00  -4.60115610e-01
C     6.133040390600000e+00   3.120059304815253e+00   3.723816900000000e+00 -1.72839280e-01   6.23667000e-02   1.45576410e-01
C     7.341821667599999e+00   3.874609136660662e+00   3.726054000000000e+00 -5.33125230e-01  -1.50591890e-01   2.43104420e-01
C     8.524396395700000e+00   3.151292699618263e+00   3.690226500000000e+00  3.18460614e+00   9.07824100e-02  -1.07072770e+00
C     9.804594638699999e+00   3.841250723709599e+00   3.511159200000000e+00 -6.61195810e-01  -7.06017300e-02   3.42312390e-01
C     1.226885272300000e+01   5.265838178267868e+00   3.318532200000000e+00  5.24730600e-01   1.44915852e+00   2.44691550e-01
C     3.685644237400000e+00   6.002116918609011e+00   3.411150300000000e+00 -1.58877272e+00  -1.96590090e+00   7.83692440e-01
C     4.876834485600000e+00   5.265746981635941e+00   3.664052400000000e+00 -1.72114720e-01  -4.16297150e-01  -7.08132060e-01
C     6.059363216800000e+00   5.991281768210939e+00   3.804520500000000e+00  2.66307428e+00   4.77846800e-02   4.16882980e-01
C     7.347004675199999e+00   5.299365065895700e+00   3.771840900000000e+00 -1.22917334e+00  -2.14112340e-01  -2.12558760e-01
C     8.569263586199998e+00   6.004980219603165e+00   3.646395000000000e+00  2.89005720e-01  -1.14445306e+00   3.43242530e-01
C     9.786550493600000e+00   5.261945926510874e+00   3.426947100000000e+00  7.97844750e-01   7.06682210e-01   6.37595440e-01
C     1.103841829440000e+01   5.999720530707904e+00   3.373868100000000e+00 -6.11085880e-01  -6.61596420e-01  -7.43973600e-02
C     1.352143128190000e+01   7.397508642435112e+00   3.515303100000000e+00 -4.05677280e-01   1.07002122e+00   9.78359400e-02
C     4.866524179400000e+00   8.120921741076144e+00   3.689609400000000e+00  1.19440543e+00   8.31690060e-01   2.98233900e-01
C     6.110655774900000e+00   7.409402459352493e+00   3.895967400000000e+00 -5.72572330e-01   6.02253870e-01  -7.96001800e-01
C     7.367720732400000e+00   8.119172610169420e+00   3.942811200000000e+00 -7.38030540e-01   6.90303260e-01  -1.01899463e+00
C     8.601705599099999e+00   7.399997422429612e+00   3.803116500000000e+00 -9.24713110e-01   7.34681330e-01  -6.25086470e-01
C     9.813214152099999e+00   8.109735722737449e+00   3.618131400000000e+00 -8.70412470e-01   3.05070830e-01   5.13571740e-01
C     1.101254111880000e+01   7.425782416205753e+00   3.486950400000000e+00  2.15167054e+00  -6.91262290e-01  -5.00493700e-02
C     1.227836895410000e+01   8.130563223199216e+00   3.547180200000000e+00 -2.17769370e-01  -8.51957300e-01  -3.01357240e-01
