32
Lattice="9.86 0 0 4.93 8.53901048131456 0 0 0 30 " PBC="1 1 1" Properties=species:S:1:pos:R:3:force:R:3 Energy="-256.96853414"
C     9.820545850900000e+00   3.747053568890632e-01   3.278985000000000e+00  3.02920020e-01   1.07942413e+00  -6.76374200e-02
C     1.194022829000000e+00   1.119858093091338e+00   3.315534000000000e+00  5.03275980e-01  -5.81960170e-01  -5.26246400e-02
C     2.440649596100000e+00   3.778396860758520e-01   3.280825500000000e+00 -8.38785000e-02   1.83264067e+00  -1.06360220e-01
C     3.694018927000000e+00   1.105260313115358e+00   3.302110500000000e+00 -2.02381630e+00   1.20987680e+00   4.12734460e-01
C     4.921091194200000e+00   4.322512001455648e-01   3.358029900000000e+00 -7.24778910e-01  -4.54139390e-01  -7.23358070e-01
C     6.146189095000000e+00   1.134122168537758e+00   3.332609400000000e+00 -1.27579363e+00   6.69207730e-01   1.78818630e-01
C     7.328027774100000e+00   4.373753749445080e-01   3.364320900000000e+00  2.16109326e+00  -2.08634869e+00  -4.07075170e-01
C     8.584920526699999e+00   1.087749791274546e+00   3.324731400000000e+00  5.63148190e-01   1.17098263e+00  -7.93127500e-02
C     1.107071097760000e+01   2.544612826864909e+00   3.403718100000000e+00 -1.42580222e+00  -5.26711490e-01  -4.70435830e-01
C     2.423442565000000e+00   3.247047882289411e+00   3.458650500000000e+00 -4.33414000e-03  -5.00673700e-02   6.60464300e-02
C     3.616997191900000e+00   2.551937675444758e+00   3.369877500000000e+00  3.00399974e+00  -1.19767858e+00  -4.30681000e-01
C     4.902029595700000e+00   3.265472590592212e+00   3.284167200000000e+00 -1.43572241e+00  -7.31495660e-01   4.53127850e-01
C     6.135693470100000e+00   2.558960670004138e+00   3.284073000000000e+00 -9.78550810e-01  -1.26850495e+00   2.37821060e-01
C     7.345638128499999e+00   3.208829064573132e+00   3.324521100000000e+00  2.19743860e+00   1.94214762e+00  -7.21931010e-01
C     8.623387689799999e+00   2.528677837847761e+00   3.311383800000000e+00 -1.58343524e+00  -8.97599270e-01   9.75712600e-02
C     9.822806058699999e+00   3.254162671211452e+00   3.316887900000000e+00  5.12944440e-01   1.75034450e-01   5.93628210e-01
C     1.229528151630000e+01   4.649099863509702e+00   3.549205800000000e+00 -9.49813920e-01   1.42837274e+00  -5.40349340e-01
C     3.628647915800000e+00   5.396899180620148e+00   3.476188800000000e+00  1.98947487e+00  -8.72589290e-01  -6.59610310e-01
C     4.886567340899999e+00   4.653971710548960e+00   3.305165100000000e+00  9.49806720e-01   2.63424689e+00   7.79015130e-01
C     6.197569111300000e+00   5.412606434227793e+00   3.298594800000000e+00 -3.02139429e+00  -2.29396606e+00  -5.25560050e-01
C     7.381390932199999e+00   4.647719361685399e+00   3.251179500000000e+00 -2.23799890e-01   3.14949570e-01   7.30756990e-01
C     8.601924441800000e+00   5.377319571149926e+00   3.310989000000000e+00 -1.04901805e+00   5.45235610e-01  -4.72109120e-01
C     9.791548724800000e+00   4.689916589774416e+00   3.353754300000000e+00  2.50676287e+00  -1.21854139e+00   4.35008780e-01
C     1.105492837140000e+01   5.366689186223165e+00   3.488971200000000e+00 -4.85801110e-01   8.19957030e-01  -1.64922290e-01
C     1.352248048450000e+01   6.822861245085486e+00   3.394470000000000e+00  2.91902860e-01  -6.52034650e-01  -4.17564930e-01
C     4.908442884799999e+00   7.509926679376722e+00   3.240025500000000e+00 -4.83946460e-01  -4.62087870e-01   8.37432370e-01
C     6.144224687199999e+00   6.811763349334943e+00   3.264199500000000e+00 -6.44078630e-01  -7.72327500e-02  -3.35839150e-01
C     7.339882205600000e+00   7.522979581576659e+00   3.217875900000000e+00  1.40856443e+00  -5.20295380e-01   5.47206660e-01
C     8.575024636300000e+00   6.798293316473059e+00   3.282635700000000e+00  3.08780130e-01   1.17264475e+00  -6.07679800e-02
C     9.785919946600000e+00   7.564584543898782e+00   3.326748600000000e+00  1.97086788e+00  -2.35736381e+00   7.08628610e-01
C     1.106092803350000e+01   6.805376767226638e+00   3.454614300000000e+00 -7.14581780e-01   3.70882050e-01  -7.45981250e-01
C     1.230474055940000e+01   7.518637665527788e+00   3.365078700000000e+00 -1.56243371e+00   8.83014070e-01   9.04324110e-01
