32
Lattice="9.86 0 0 4.93 8.53901048131456 0 0 0 30 " PBC="1 1 1" Properties=species:S:1:pos:R:3:force:R:3 Energy="-257.10044152"
C     5.016235609300000e+00   6.734743267997545e+00  -2.434724999999993e-01  6.69631650e-01  -3.70048300e-02  -5.20294690e-01
C     6.252552316700000e+00   7.440247414568769e+00  -2.301219000000003e-01  3.14906450e-01   3.16871480e-01   8.65690830e-01
C     7.506395420600000e+00   6.744617694326512e+00  -8.154030000000034e-02 -4.72400410e-01  -8.97012400e-02  -9.56935940e-01
C     8.739589416699999e+00   7.452436852028969e+00  -2.178266999999998e-01 -2.34564290e-01  -1.94239650e-01   5.05023550e-01
C     9.962080530700000e+00   6.728479049909416e+00  -3.204647999999999e-01  1.10791869e+00   1.77305318e+00  -1.20989130e-01
C     1.123425820600000e+01   7.469147097807595e+00  -3.993462000000001e-01 -1.58090918e+00  -1.91239020e-01   2.23977600e-02
C     1.245549532520000e+01   6.747788570478155e+00  -4.814591999999998e-01 -1.87848715e+00  -1.32942878e+00   1.58177270e-01
C     1.364713444990000e+01   7.439492224481918e+00  -4.464339000000024e-01  1.44114139e+00   3.38210530e-01   7.30412030e-01
C     1.302884771900000e+00   3.337896634928856e-01  -2.747667000000007e-01  2.06678882e+00  -2.90345900e-01  -5.34134350e-01
C     2.569878700099999e+00   1.059010385262430e+00  -2.570420999999996e-01 -7.77462980e-01  -2.67074390e-01   1.53654720e-01
C     3.803805146300000e+00   3.376716684373032e-01  -2.026964999999983e-01 -4.64210700e-01   1.86797890e-01  -2.48750800e-02
C     5.016279387699999e+00   1.053334675776583e+00  -1.653365999999998e-01  1.49797738e+00   2.64845950e-01  -3.47880970e-01
C     6.279366241600000e+00   3.637705562386896e-01  -2.973153000000011e-01 -3.77202580e-01  -1.11892538e+00   2.43810590e-01
C     7.530903140800000e+00   1.047942717608987e+00  -2.921943000000020e-01 -2.01723836e+00  -4.59261660e-01  -1.43915200e-02
C     8.714131537600000e+00   3.132351551961632e-01  -4.002446999999982e-01  1.56171236e+00   9.49448000e-01  -2.51357000e-03
C     9.971595184200000e+00   1.039493025178608e+00  -3.910893000000009e-01 -1.05178028e+00  -2.03617300e-02   2.75990730e-01
C     2.560696328600000e+00   2.485677771993416e+00  -3.237152999999999e-01  7.96183140e-01  -3.73547600e-02  -3.77191280e-01
C     3.833791822000000e+00   3.210804052307051e+00  -2.299578000000011e-01 -1.76821740e+00  -9.76614040e-01  -2.58954020e-01
C     5.053107276500000e+00   2.485135630218041e+00  -1.089303000000008e-01 -1.24951904e+00  -3.78324440e-01  -2.69772020e-01
C     6.269972274499999e+00   3.183028615188022e+00  -8.072220000000030e-02  5.25865840e-01  -3.84852230e-01  -9.11811500e-02
C     7.478664515700000e+00   2.443734408685970e+00  -1.548765000000003e-01  1.49099709e+00   7.25565080e-01  -4.15445230e-01
C     8.719101372000001e+00   3.127080933132957e+00  -2.664374999999986e-01  5.55652080e-01   2.11724898e+00   1.25794820e-01
C     9.989289792299999e+00   2.471141387502788e+00  -4.088691000000004e-01 -2.36836648e+00  -1.20025411e+00  -2.00134000e-03
C     1.116728287420000e+01   3.179122444843946e+00  -5.048868000000013e-01  2.30383687e+00   9.40169070e-01   8.71912050e-01
C     3.787442476300000e+00   4.620593743263898e+00  -3.245460000000016e-01  1.33915715e+00  -5.32089520e-01   5.56919240e-01
C     5.032049915400000e+00   5.320900450326261e+00  -1.487936999999988e-01 -1.73571100e-02  -3.11208470e-01  -7.15714320e-01
C     6.290724172799999e+00   4.593364632035380e+00  -8.428950000000057e-02 -1.50193913e+00   8.28373530e-01   3.94235140e-01
C     7.503128457499999e+00   5.311710852637789e+00  -5.856569999999905e-02  8.52142750e-01  -3.07617500e-02  -4.13838950e-01
C     8.730805537100000e+00   4.579799986937375e+00  -2.005572000000022e-01  5.68400820e-01   2.61415010e-01  -2.97225050e-01
C     9.975207247300000e+00   5.339680210684819e+00  -3.703907999999991e-01 -9.18705100e-01  -1.99291264e+00   1.06887850e-01
C     1.120466109890000e+01   4.618727798693809e+00  -5.164596000000010e-01 -1.36792071e+00  -8.85596410e-01   3.66493360e-01
C     1.241784629560000e+01   5.288316269455420e+00  -4.764674999999983e-01  9.53968440e-01   2.02555226e+00  -1.40613200e-02
