32
Lattice="9.86 0 0 4.93 8.53901048131456 0 0 0 30 " PBC="1 1 1" Properties=species:S:1:pos:R:3:force:R:3 Energy="-257.24193033"
C     4.936097719799999e+00   8.500813607540653e+00  -2.920404000000012e-01  6.41954300e-01   5.84692370e-01  -6.89472900e-02
C     1.247623120100000e+00   6.925635323590984e-01  -2.892420000000016e-01 -3.60236200e-02   4.64141200e-02  -1.04836180e-01
C     7.425881569300000e+00   8.516522739730606e+00  -3.147236999999983e-01 -1.44677214e+00   6.34721770e-01  -4.80127000e-03
C     3.700681230399999e+00   7.033012526475936e-01  -2.599613999999981e-01  8.18941570e-01  -8.47225710e-01   9.04143070e-01
C     9.864534515399999e+00   8.509672147792816e+00  -1.425993000000005e-01  2.06692630e-01   1.62587210e-01  -2.04592630e-01
C     6.177513131800001e+00   6.666308137016528e-01  -1.330385999999990e-01  5.38471000e-02   4.40459950e-01  -7.39066530e-01
C     1.234938476600000e+01   8.482110954446728e+00  -1.770938999999991e-01 -4.92216330e-01   1.21578185e+00   5.33337400e-01
C     8.645604931999999e+00   6.806008056271424e-01  -3.002648999999984e-01 -2.56379710e-01  -4.44290950e-01   5.94111940e-01
C     1.242557643700000e+00   2.124882121615854e+00  -1.670780999999977e-01 -1.36968390e-01  -1.45188940e-01   5.34202480e-01
C     2.472171178000000e+00   2.827576506788633e+00   4.401540000000000e-02 -4.15530420e-01  -4.33130460e-01  -8.74717610e-01
C     3.703630455000000e+00   2.106339233408010e+00  -9.078930000000085e-02 -7.44370890e-01   6.43889660e-01  -1.74625050e-01
C     4.911429084399999e+00   2.822650351642721e+00  -1.469942999999994e-01  1.82442787e+00  -2.33800930e-01   1.25684230e-01
C     6.163689609000000e+00   2.098459605317275e+00  -2.358375000000024e-01 -9.76349400e-02   1.76563460e-01   3.57679400e-02
C     7.398753011800000e+00   2.821968084705370e+00  -3.275547000000003e-01  6.53561600e-02  -2.17613900e-01   7.22427640e-01
C     8.648789071100000e+00   2.098422119061268e+00  -2.758980000000015e-01 -7.41800860e-01   9.88683650e-01  -4.28979520e-01
C     9.858297868199999e+00   2.851666080033971e+00  -1.735821000000008e-01  6.08947600e-01  -1.09010992e+00   1.16123460e-01
C     2.458020894800000e+00   4.249765097132755e+00   1.552311000000000e-01  1.53674649e+00  -4.91943370e-01  -3.06188780e-01
C     3.706690407400000e+00   4.943808183837723e+00   5.543190000000000e-02  2.52994020e-01   3.75350100e-01   4.01417200e-01
C     4.953920064199999e+00   4.245229345545988e+00  -1.067133000000027e-01 -1.13867571e+00   1.10105510e-01   8.77575200e-02
C     6.165209626599999e+00   4.975315766267246e+00  -2.308523999999998e-01  5.38787670e-01  -7.09929050e-01  -5.25405170e-01
C     7.402604081300000e+00   4.253648041368326e+00  -2.899799999999999e-01  4.00160340e-01  -1.33343040e-01   1.37654440e-01
C     8.656401188299998e+00   4.971320107093340e+00  -1.915620000000011e-01 -1.48687029e+00  -1.42549520e-01   1.00583140e-01
C     9.870381199600001e+00   4.261133935685827e+00  -4.430069999999731e-02  4.68840280e-01   2.37963490e-01  -7.58459200e-02
C     1.112378923100000e+01   4.972801540021515e+00   1.389297000000000e-01 -2.06650449e+00  -1.01574178e+00  -5.11646730e-01
C     3.702433796100000e+00   6.370931895288760e+00   7.213290000000000e-02  7.52695570e-01   2.67382530e-01  -1.40508401e+00
C     4.939841561800000e+00   7.084100059936099e+00  -2.272826999999999e-01 -1.06816541e+00  -2.11200860e-01   4.55332950e-01
C     6.160026964100000e+00   6.388693037087161e+00  -3.549498000000000e-01 -2.32390090e-01  -1.92791320e-01   9.88070030e-01
C     7.381746237300000e+00   7.102252715365007e+00  -3.391184999999979e-01  6.03590000e-01  -1.18053610e-01   9.20885100e-02
C     8.590325729400000e+00   6.393077050457697e+00  -1.818984000000015e-01  1.98344104e+00  -1.61134410e-01  -1.97435200e-01
C     9.865095105700000e+00   7.088490221394181e+00  -7.733969999999957e-02 -1.37432281e+00  -6.10025600e-02  -7.86487900e-02
C     1.107395619940000e+01   6.364224246386406e+00   7.282799999999999e-02  1.29442540e+00   1.57388657e+00   1.08759210e-01
C     1.233366664420000e+01   7.092990536087456e+00   4.755719999999999e-02 -3.17221930e-01  -8.09431920e-01  -2.36640510e-01
