32
Lattice="9.86 0 0 4.93 8.53901048131456 0 0 0 30 " PBC="1 1 1" Properties=species:S:1:pos:R:3:force:R:3 Energy="-257.61282051"
C     9.834026787999999e+00   2.775256964896416e-01   3.580478100000000e+00  7.00448600e-01   1.15226561e+00   3.49201770e-01
C     1.227920325800000e+00   1.014990334606248e+00   3.622280700000000e+00 -1.18195778e+00  -5.67154810e-01  -7.54798000e-03
C     2.453358396600000e+00   2.919918049240192e-01   3.615587100000000e+00 -1.06139480e-01   1.27509816e+00  -1.77415810e-01
C     3.667086731400000e+00   1.066122441701117e+00   3.565274700000000e+00  2.93235070e-01  -3.07791891e+00   2.62219670e-01
C     4.897367196099999e+00   3.176972151224872e-01   3.542210400000000e+00 -1.75129550e-01  -7.45831760e-01   1.73338200e-01
C     6.128596883000000e+00   1.010757547111312e+00   3.584065200000000e+00 -1.87622460e-01   1.62748270e-01  -1.29881120e-01
C     7.361247691699999e+00   3.431053823661463e-01   3.607875300000000e+00 -7.35625600e-02  -1.56822451e+00  -2.69856100e-01
C     8.599769390899999e+00   1.011582671693994e+00   3.586431900000000e+00  4.82054550e-01  -1.82109830e-01   4.49130670e-01
C     1.106129137450000e+01   2.443778982320676e+00   3.649043100000000e+00  5.38097800e-02  -3.08763380e-01  -2.67095890e-01
C     2.432647269400000e+00   3.158543600367355e+00   3.601168500000000e+00  1.29638720e-01  -1.34637750e-01   1.88001510e-01
C     3.666128240800000e+00   2.443953946645411e+00   3.592450500000000e+00  1.14635860e-01   1.27933758e+00  -1.91362100e-01
C     4.910954078900000e+00   3.136196412210461e+00   3.579334800000000e+00 -3.28631270e-01   1.07449327e+00  -9.87092000e-03
C     6.136853449800000e+00   2.410430645401979e+00   3.579147000000000e+00 -2.76638100e-01   1.64510826e+00   2.30531520e-01
C     7.362168418500000e+00   3.143554477541078e+00   3.620861400000000e+00  5.09324600e-02  -5.13532600e-02  -1.50349200e-01
C     8.590999068800000e+00   2.423812811846025e+00   3.648965400000000e+00  1.71315800e-01   6.22710890e-01  -3.41104990e-01
C     9.814343467200001e+00   3.142321700598080e+00   3.646359900000000e+00  6.02814060e-01  -1.55426000e-02  -2.25997740e-01
C     1.229599641560000e+01   4.573497941032820e+00   3.578210700000000e+00  1.03245633e+00  -3.55427590e-01   8.04414100e-02
C     3.679583098200000e+00   5.308323512570478e+00   3.548173800000000e+00 -8.98422820e-01  -7.79760900e-02   3.11615780e-01
C     4.897760560800000e+00   4.589677487310116e+00   3.581768100000000e+00  7.31161440e-01  -8.18706520e-01  -3.49403550e-01
C     6.150640046900000e+00   5.292622919391007e+00   3.557564100000000e+00 -7.22236410e-01  -7.03187400e-01   3.30046830e-01
C     7.369532606000000e+00   4.576999106109830e+00   3.588411000000000e+00  3.12438100e-01  -6.08736150e-01  -1.37378870e-01
C     8.603481680900000e+00   5.284473800129524e+00   3.553924200000000e+00  1.65537370e-01  -1.15211130e-01   4.99679850e-01
C     9.842058793300000e+00   4.564983608293108e+00   3.573878100000000e+00 -1.20484819e+00  -6.03306630e-01   3.29000080e-01
C     1.106764540500000e+01   5.231268677460426e+00   3.591293400000000e+00  2.76640840e-01   2.45186330e+00  -4.72147720e-01
C     1.352645401520000e+01   6.745406528114654e+00   3.564377100000000e+00 -3.24006360e-01  -1.08416746e+00   1.44898960e-01
C     4.915195505800000e+00   7.397502579737671e+00   3.591513000000000e+00 -2.51916170e-01   9.37277570e-01  -3.07784900e-01
C     6.144230948300000e+00   6.692477898604898e+00   3.578902800000000e+00  4.37078150e-01   8.43777260e-01   1.40810360e-01
C     7.381328123999999e+00   7.420853699356698e+00   3.614468100000000e+00 -4.26958990e-01  -3.57199540e-01  -1.20385200e-01
C     8.603105719100000e+00   6.708073547345570e+00   3.606415800000000e+00  7.96542300e-02  -4.11656440e-01  -6.50613880e-01
C     9.830287382999998e+00   7.402218846005985e+00   3.537515700000000e+00  6.58301290e-01   7.80118980e-01   2.92697030e-01
C     1.108053725640000e+01   6.677821626407131e+00   3.539296500000000e+00 -8.94200050e-01   8.72896310e-01   4.12769560e-01
C     1.227775166880000e+01   7.460296584225285e+00   3.591931200000000e+00  7.60117520e-01  -1.31058370e+00  -3.86187220e-01
