32
Lattice="9.86 0 0 4.93 8.53901048131456 0 0 0 30 " PBC="1 1 1" Properties=species:S:1:pos:R:3:force:R:3 Energy="-256.76652928"
C     5.106693418499999e+00   6.730804734803749e+00  -4.583448000000026e-01 -4.33944030e-01  -1.34221149e+00   7.33304820e-01
C     6.343130960200000e+00   7.421000057996324e+00  -4.373781000000001e-01 -2.69659270e-01  -1.35195347e+00  -2.44279210e-01
C     7.557916188400000e+00   6.669120545508221e+00  -4.669692000000012e-01  1.04521836e+00   1.06614174e+00   1.10670250e-01
C     8.824716712699999e+00   7.399977953485718e+00  -4.122920999999984e-01 -9.37087960e-01  -1.20754655e+00   2.64137700e-01
C     1.006348042560000e+01   6.670925521543484e+00  -3.316979999999994e-01 -1.28821757e+00  -5.71907000e-03   3.21786800e-02
C     1.127409886710000e+01   7.407869706971333e+00  -2.866403999999996e-01 -4.68295600e-01  -1.04220803e+00  -3.08150990e-01
C     1.251197468700000e+01   6.697122693355494e+00  -2.576289000000003e-01 -6.69295700e-02  -5.05433460e-01   6.73420160e-01
C     1.374377645110000e+01   7.387507753360935e+00  -2.192031000000014e-01 -5.14418940e-01   1.74291382e+00  -6.33328480e-01
C     1.373516684700000e+00   2.677851618450008e-01  -3.507293999999987e-01  3.81586360e-01   1.39353380e+00   3.31133780e-01
C     2.619930574400000e+00   9.598242281804176e-01  -3.407543999999980e-01 -3.55044630e-01   1.93511126e+00  -5.55870100e-02
C     3.833436812700000e+00   2.725026235747816e-01  -3.699534000000000e-01  2.29748492e+00   8.72950770e-01  -7.02559850e-01
C     5.109232072700000e+00   1.048406812828575e+00  -4.658930999999988e-01 -2.15053725e+00  -1.81698426e+00   3.27124430e-01
C     6.292693954300000e+00   2.727248086274712e-01  -4.035326999999995e-01  2.85725860e-01   3.84956790e-01   1.01876910e-01
C     7.525582881999999e+00   9.350537542394048e-01  -3.740133000000014e-01  6.30069860e-01   1.56593099e+00   5.25940800e-01
C     8.752087311799999e+00   3.043981332504112e-01  -1.591023000000007e-01  1.59587948e+00  -2.14845563e+00  -1.33821370e+00
C     9.999004801000000e+00   9.926546741135024e-01  -2.648466000000020e-01  5.93415000e-02   2.82077890e-01   3.87893110e-01
C     2.648140576700000e+00   2.424890008018078e+00  -3.040002000000008e-01 -1.16383698e+00  -1.59524550e-01   2.04512510e-01
C     3.844218180400000e+00   3.189846246545359e+00  -3.623195999999993e-01  1.50704565e+00  -1.83531009e+00  -5.90832100e-02
C     5.100122418700000e+00   2.465051877569081e+00  -5.108099999999993e-01 -5.78928220e-01  -6.01247150e-01   6.86182580e-01
C     6.351097544400000e+00   3.114286079829725e+00  -4.912376999999992e-01  7.04552000e-03   6.58057680e-01  -5.06573020e-01
C     7.583095867600000e+00   2.342093456871168e+00  -4.595325000000017e-01 -1.96575940e+00   1.51435000e+00   4.56490870e-01
C     8.779622495700000e+00   3.065247481934238e+00  -3.296789999999987e-01 -1.71408340e-01   1.80836175e+00  -2.84223360e-01
C     9.999423998899999e+00   2.426307996098386e+00  -2.530274999999982e-01  2.10463979e+00  -1.18678706e+00  -2.85080200e-02
C     1.125432207350000e+01   3.144885026154071e+00  -2.286207000000005e-01  4.94692890e-01  -6.51762930e-01  -8.37148300e-02
C     3.894758519100000e+00   4.598207361048901e+00  -2.740437000000000e-01 -1.52964569e+00  -1.07934692e+00  -8.60262870e-01
C     5.055078586300000e+00   5.297839742453658e+00  -5.253405000000022e-01  2.99984110e+00   1.65419700e-01   8.55037940e-01
C     6.312852280600000e+00   4.556359122318203e+00  -5.200967999999975e-01 -3.21308660e-01  -3.26539550e-01  -1.92210200e-01
C     7.531368187700000e+00   5.253230927024880e+00  -4.790321999999989e-01  1.75313962e+00  -4.64896190e-01   1.66904050e-01
C     8.797197304799999e+00   4.499380867088307e+00  -3.636072000000006e-01 -1.05413540e+00   1.13481937e+00  -7.01232900e-02
C     1.002636842090000e+01   5.232079798065921e+00  -2.798228999999992e-01  3.86666300e-01   6.40899440e-01  -3.38080400e-02
C     1.129534687130000e+01   4.570238515342500e+00  -1.955549999999988e-01 -1.03205327e+00  -1.09188189e+00  -1.83523540e-01
C     1.252945843900000e+01   5.261721350535249e+00  -1.939293000000006e-01 -1.24716643e+00   1.65228327e+00  -2.72658970e-01
