32
Lattice="9.86 0 0 4.93 8.53901048131456 0 0 0 30 " PBC="1 1 1" Properties=species:S:1:pos:R:3:force:R:3 Energy="-257.38045986"
C     4.994544299499999e+00   7.819982504800866e+00  -1.302725999999979e-01 -1.10678688e+00   1.09107291e+00   9.96226600e-02
C     1.279914817300000e+00   3.872159465334160e-02  -1.229165999999999e-01 -9.42741200e-02  -1.22270851e+00   1.96780320e-01
C     7.426396754299999e+00   7.851209495346017e+00  -1.140726000000001e-01  9.88406400e-01   1.34732557e+00   4.02218700e-02
C     3.741693851100000e+00   4.310876745775601e-02  -9.406740000000013e-02 -5.98001280e-01  -8.05127540e-01   5.55911850e-01
C     9.895982098000001e+00   7.825756669077546e+00  -4.873830000000012e-02 -6.48206950e-01   1.84737135e+00  -4.17632310e-01
C     6.180737253199999e+00   6.241504320251200e-03  -7.695359999999951e-02  1.36265811e+00   3.67025090e-01  -9.74108800e-02
C     1.235622987380000e+01   7.861644080762472e+00  -1.056831000000003e-01  5.11905190e-01  -1.40626533e+00   6.93712810e-01
C     1.361442089260000e+01   8.531397952157080e+00  -1.089774000000006e-01 -4.17189290e-01   1.92532040e+00  -1.90382650e-01
C     1.293606561200000e+00   1.443408885287970e+00  -5.163269999999898e-02 -8.81262540e-01   1.14356494e+00  -6.61961070e-01
C     2.498091047400000e+00   2.176849087765352e+00  -3.077160000000134e-02  1.16269073e+00   2.77596500e-02   3.61211450e-01
C     3.725942057399999e+00   1.469003032179883e+00  -1.023029999999991e-02  8.15541790e-01  -1.05951675e+00  -5.59065620e-01
C     4.992479023900000e+00   2.126999625434684e+00  -2.621249999999975e-02 -6.89917920e-01   1.34558942e+00  -1.34816150e-01
C     6.227238689400000e+00   1.430203305580650e+00  -8.821890000000110e-02 -9.79059330e-01   1.67593720e-01   9.94524500e-02
C     7.434266661200000e+00   2.179137713354202e+00  -1.278927000000003e-01  7.80136060e-01  -6.76672430e-01   2.03558480e-01
C     8.677313607400000e+00   1.471774111860853e+00  -1.089537000000007e-01  6.58154020e-01  -1.14038806e+00  -4.57995090e-01
C     9.931558309100000e+00   2.184685423072953e+00  -1.245620999999986e-01 -1.48495378e+00  -2.68067360e-01   8.12215620e-01
C     2.536080986500000e+00   3.606824316376080e+00   6.656100000000000e-03 -1.64703900e+00  -1.29556337e+00  -6.10159600e-02
C     3.736236341100000e+00   4.311490102898378e+00   7.993500000000001e-03  1.05699968e+00  -1.05701640e+00   1.23686870e-01
C     4.967732888900000e+00   3.558829612511774e+00  -2.819129999999959e-02  5.80130320e-01   1.12360802e+00   4.52988810e-01
C     6.201962628700000e+00   4.309687517786050e+00   1.200900000000000e-03  2.36109330e-01  -3.63045310e-01  -8.99868210e-01
C     7.438667475000000e+00   3.600520391889221e+00  -1.089923999999982e-01 -3.56094190e-01   1.36756030e-01   5.37824820e-01
C     8.666884537500000e+00   4.324027419645533e+00  -8.300159999999934e-02 -2.26339510e-01  -1.04982000e-01   1.64722240e-01
C     9.892025871600000e+00   3.626615949476520e+00  -4.681829999999820e-02  6.33214830e-01  -2.05080122e+00  -4.48591490e-01
C     1.114121397090000e+01   4.265579088371401e+00  -1.936199999999388e-03 -3.82179700e-02   2.23057765e+00  -1.32258360e-01
C     3.729171207400000e+00   5.719503850455595e+00   2.294130000000000e-02  3.18893860e-01  -1.96763830e-01  -5.15244340e-01
C     4.949978627800000e+00   6.406501399613515e+00  -9.722550000000041e-02  1.99143200e+00   7.09662920e-01   5.48467750e-01
C     6.235120379000000e+00   5.745324281125229e+00  -5.278170000000060e-02 -2.17096372e+00  -1.44253524e+00  -5.99417000e-03
C     7.442128433600000e+00   6.448220443115652e+00  -8.165280000000052e-02 -2.89181200e-02  -3.94006700e-02  -1.15294000e-03
C     8.666876649499999e+00   5.745710500569239e+00  -5.086439999999826e-02 -6.41070370e-01  -8.85534240e-01  -3.15191240e-01
C     9.872954659600001e+00   6.432965330112922e+00  -6.748590000000121e-02  1.82235910e+00  -8.39945850e-01   3.21175210e-01
C     1.112229184210000e+01   5.698434098266509e+00  -3.109440000000063e-02  2.77259540e-01   4.10288790e-01   3.30852550e-01
C     1.236799526950000e+01   6.413070033425255e+00   8.014500000000001e-03 -1.18759598e+00   9.80817650e-01  -6.43825270e-01
