32
Lattice="9.86 0 0 4.93 8.53901048131456 0 0 0 30 " PBC="1 1 1" Properties=species:S:1:pos:R:3:force:R:3 Energy="-257.30987883"
C     9.853522078599999e+00   6.588370880563472e-01   3.459265500000000e+00 -1.85640452e+00  -1.09800106e+00   4.50799960e-01
C     1.187170622000000e+00   1.367663934385549e+00   3.489940200000000e+00  6.90594670e-01   6.05780140e-01  -2.70131880e-01
C     2.414457492100000e+00   6.793681994643544e-01   3.470307900000000e+00  4.36197060e-01  -1.14809651e+00   1.43949690e-01
C     3.653732643200000e+00   1.371645674972373e+00   3.431563200000000e+00  4.80973200e-02  -7.01389850e-01  -2.19736800e-02
C     4.871318407200000e+00   6.294263450402928e-01   3.390967200000000e+00  1.06937197e+00  -6.21404600e-02   2.98763230e-01
C     6.104290208199999e+00   1.348779912709029e+00   3.441784800000000e+00  7.36931580e-01   2.29294200e-01  -2.46848830e-01
C     7.380377619999999e+00   6.548100907139791e-01   3.449630100000000e+00 -1.35836488e+00  -7.67407710e-01  -5.26385200e-02
C     8.612459753200000e+00   1.349614515593344e+00   3.476064000000000e+00 -4.50233340e-01   1.44804133e+00   4.95949440e-01
C     1.103932541440000e+01   2.787149415572121e+00   3.442844100000000e+00  1.11091700e-02   4.65295210e-01  -2.47646850e-01
C     2.411222968400000e+00   3.496719155813083e+00   3.317913600000000e+00  7.12980640e-01  -6.71912020e-01   8.24901060e-01
C     3.658280765400000e+00   2.776967670255980e+00   3.414414600000000e+00 -5.49012200e-02   6.81302820e-01  -5.61331520e-01
C     4.899066665699999e+00   3.488831586442603e+00   3.411834000000000e+00 -1.26131947e+00   3.18136540e-01   9.61800200e-02
C     6.103452699800000e+00   2.779053408955824e+00   3.443618700000000e+00  1.22716677e+00  -1.77298570e-01   1.49576200e-01
C     7.364144165299999e+00   3.499288117115991e+00   3.486871500000000e+00 -1.20780167e+00   2.26449100e-02   4.40328960e-01
C     8.577669827799999e+00   2.812206629485053e+00   3.579155700000000e+00  7.73637720e-01  -1.72861669e+00  -1.13269779e+00
C     9.809517391600000e+00   3.510028740668050e+00   3.484294500000000e+00  2.54640210e-01   3.20463950e-01   4.49137000e-02
C     1.230380326780000e+01   4.902593112734117e+00   3.292697700000000e+00 -1.81410100e-02   9.39680420e-01   2.98330090e-01
C     3.689398235200000e+00   5.653486540291991e+00   3.335200800000000e+00 -2.14368086e+00  -1.83915906e+00   2.05153960e-01
C     4.873392753999999e+00   4.921056502754392e+00   3.424176600000000e+00  4.84636600e-01  -6.28515920e-01  -5.96135070e-01
C     6.079281846500000e+00   5.622206864052179e+00   3.428296500000000e+00  2.07852937e+00  -4.41759880e-01   8.44209800e-01
C     7.350072515600000e+00   4.917766592796657e+00   3.498824400000000e+00 -6.59329270e-01   6.37132290e-01  -5.48430760e-01
C     8.560097335800000e+00   5.669667111250543e+00   3.457444500000000e+00  1.18522043e+00  -1.99093183e+00   3.58297970e-01
C     9.830662112300001e+00   4.938533039333493e+00   3.412297800000000e+00 -1.05479282e+00  -3.51061840e-01   2.29344940e-01
C     1.107206884750000e+01   5.609640856229810e+00   3.352609500000000e+00 -3.37593050e-01   4.45690870e-01  -3.77362710e-01
C     1.348982307990000e+01   7.041766976190347e+00   3.394763700000000e+00  6.81308760e-01   1.36240921e+00   1.76880380e-01
C     4.860979852100000e+00   7.762108678151828e+00   3.471770400000000e+00  1.06817130e+00  -7.99048200e-02  -2.11348810e-01
C     6.094013524599999e+00   7.018323549868031e+00   3.502342200000000e+00  8.03513110e-01   2.36467545e+00  -3.63490440e-01
C     7.366958652999999e+00   7.790144213530079e+00   3.509265600000000e+00 -1.23788839e+00  -9.39227950e-01  -2.63102600e-02
C     8.597225954599999e+00   7.060916304922480e+00   3.497218200000000e+00 -5.08582740e-01   7.79092760e-01  -7.73551710e-01
C     9.855056442500000e+00   7.723951939041738e+00   3.371054100000000e+00 -2.61308614e+00   1.98365410e+00   5.17915390e-01
C     1.103899673130000e+01   7.039224400429822e+00   3.335825700000000e+00  1.75917227e+00  -6.56153910e-01   3.52564340e-01
C     1.225952471930000e+01   7.753336723465933e+00   3.410641500000000e+00  7.40840430e-01   6.78283860e-01  -4.98160300e-01
