32
Lattice="9.86 0 0 4.93 8.53901048131456 0 0 0 30 " PBC="1 1 1" Properties=species:S:1:pos:R:3:force:R:3 Energy="-256.57982132"
C     9.810224501499999e+00   8.065485631138936e-01   3.415249800000000e+00  9.84746700e-02  -1.33862094e+00   2.89336400e-02
C     1.171282316600000e+00   1.502936376706565e+00   3.465310200000000e+00  3.35400780e-01   1.31035563e+00   3.99718370e-01
C     2.406614552300000e+00   8.198830818794616e-01   3.384734700000000e+00 -2.32155600e-01  -1.58750916e+00  -3.04865390e-01
C     3.668474970100000e+00   1.434354203965082e+00   3.450217500000000e+00 -2.39060710e-01   2.57564444e+00   3.49374410e-01
C     4.890050040800000e+00   7.423136006077792e-01   3.438221700000000e+00  1.40799470e+00   1.58159687e+00   2.40902450e-01
C     6.147145416400000e+00   1.495034547188582e+00   3.492709200000000e+00 -1.80804424e+00   8.72993570e-01  -3.93270710e-01
C     7.355744727100000e+00   7.801700227192873e-01   3.559059000000000e+00  5.00540320e-01   6.09613670e-01  -4.83745830e-01
C     8.598020571999999e+00   1.508459750245448e+00   3.470361300000000e+00 -8.39560750e-01  -7.30737630e-01   4.14660020e-01
C     1.101841689000000e+01   2.921536191726152e+00   3.712472700000000e+00  1.06766893e+00  -5.41402210e-01  -4.50042200e-02
C     2.443044787300000e+00   3.572657515302876e+00   3.842254800000000e+00 -1.04049439e+00   1.67657466e+00  -4.13362640e-01
C     3.683273301799999e+00   2.884709147328008e+00   3.634602300000000e+00 -1.32284974e+00  -3.54648440e-01   7.33376700e-02
C     4.863980348700000e+00   3.656319495161934e+00   3.553196100000000e+00  1.26403316e+00  -2.40845770e+00  -6.32309990e-01
C     6.109302687100000e+00   2.969238605261729e+00   3.388839300000000e+00  1.96200740e-01  -2.79402962e+00   9.22554340e-01
C     7.354235801999999e+00   3.621753666128998e+00   3.397559100000000e+00  1.31902250e-01   2.15629480e-01  -2.79298140e-01
C     8.593489162499999e+00   2.907611029605683e+00   3.505024500000000e+00 -8.68364430e-01   8.41423810e-01   1.10121000e-03
C     9.784311484800000e+00   3.640757917073077e+00   3.702123300000000e+00  1.06615581e+00   2.55516700e-02  -6.17522920e-01
C     1.228203214130000e+01   5.051320730038784e+00   3.950142300000000e+00  4.54191580e-01  -3.63829380e-01  -6.81131450e-01
C     3.668483055299999e+00   5.747498057023122e+00   3.757426500000000e+00 -3.23035880e-01   2.19579970e-01  -2.97145930e-01
C     4.899027373600000e+00   5.022110056038275e+00   3.525126300000000e+00 -8.29352620e-01   2.52167216e+00   4.81516020e-01
C     6.134398556299999e+00   5.722441013890401e+00   3.334859400000000e+00 -8.04734020e-01   1.46347381e+00  -5.17259930e-01
C     7.352330357000000e+00   5.031089850239253e+00   3.287209200000000e+00  1.22318916e+00   4.78648330e-01   1.05096348e+00
C     8.595217817700000e+00   5.766527754218432e+00   3.443294400000000e+00 -1.04328961e+00   6.92447850e-01  -6.32410440e-01
C     9.797197568100000e+00   5.064884094285215e+00   3.678539100000000e+00  8.48105350e-01   8.77510480e-01   7.31298960e-01
C     1.104130924640000e+01   5.832613461855980e+00   3.905494500000000e+00 -2.72880340e-01  -4.29341073e+00  -4.95458290e-01
C     1.350688245750000e+01   7.178115504612052e+00   3.635073900000000e+00  3.88736590e-01   4.74836180e-01  -2.17274880e-01
C     4.869026400900000e+00   7.910275367858064e+00   3.391578000000000e+00  4.55223280e-01  -9.94850630e-01   1.89099700e-02
C     6.124385183999999e+00   7.176419059399991e+00   3.232161600000000e+00 -1.76210408e+00  -6.65156100e-02   1.02073098e+00
C     7.307452320499999e+00   7.927922599256660e+00   3.251006400000000e+00  1.83308879e+00  -4.03328260e-01   1.39405280e-01
C     8.569473850700000e+00   7.217365578624001e+00   3.351512100000000e+00  6.94687500e-02  -1.00860301e+00   3.79575860e-01
C     9.821203463600000e+00   7.894519271110472e+00   3.493749600000000e+00 -6.87555720e-01  -8.75338560e-01   4.32316120e-01
C     1.102963175260000e+01   7.191726772707277e+00   3.792083700000000e+00  6.12565170e-01   1.98120333e+00  -1.09603882e+00
C     1.227560677370000e+01   7.908659445514828e+00   3.678055800000000e+00  1.20542120e-01  -6.57474000e-01   4.20800820e-01
