32
Lattice="9.86 0 0 4.93 8.53901048131456 0 0 0 30 " PBC="1 1 1" Properties=species:S:1:pos:R:3:force:R:3 Energy="-256.98044454"
C     4.972478260400000e+00   8.293871200898483e+00  -1.593611999999993e-01 -1.09391183e+00  -2.23373316e+00   5.61171400e-02
C     1.265926928300000e+00   4.297163948845768e-01  -1.911197999999992e-01  2.06308980e-01   6.61117560e-01   1.70688380e-01
C     7.424693192800000e+00   8.242971696449089e+00  -1.448357999999992e-01  3.57291080e-01   1.00599083e+00   1.62960310e-01
C     3.746862315200000e+00   4.267877704602512e-01  -1.632716999999992e-01 -1.41615906e+00   2.61032340e-01  -1.15078544e+00
C     9.877232765700001e+00   8.260126995453934e+00  -2.845896000000003e-01  8.24424110e-01  -6.90102200e-02   4.43028790e-01
C     6.189366035000000e+00   4.278542928692032e-01  -2.671739999999971e-01 -3.85507040e-01   1.25114816e+00   3.66495140e-01
C     1.235005726730000e+01   8.251882580835494e+00  -2.588195999999989e-01 -1.76292940e-01   3.27181460e-01  -1.76437700e-01
C     8.649790600599998e+00   4.383668394513408e-01  -1.253516999999995e-01  1.47548360e-01  -9.54843580e-01  -8.46270870e-01
C     1.256939735500000e+00   1.866954649639279e+00  -3.198833999999984e-01 -7.30879730e-01  -9.68929640e-01  -1.00542690e-01
C     2.474780528400000e+00   2.523207235393645e+00  -5.040507000000005e-01  4.71622530e-01   2.16123704e+00   6.13951580e-01
C     3.722406261400000e+00   1.848174718500510e+00  -3.470462999999988e-01 -9.73869870e-01  -6.39305800e-02   1.69510900e-01
C     4.892253356399999e+00   2.612638170732990e+00  -2.937189000000018e-01  2.58207414e+00  -8.39874000e-01   1.42148210e-01
C     6.157787166500000e+00   1.892915973981833e+00  -1.803239999999988e-01 -1.73362200e-01  -1.18015947e+00  -4.14711160e-01
C     7.409631697700000e+00   2.562684703254676e+00  -1.475915999999984e-01 -5.42959510e-01   7.20221200e-01   2.45826500e-02
C     8.624170770999999e+00   1.827955024804709e+00  -1.646885999999981e-01  1.31774721e+00   2.43552478e+00   1.15163420e-01
C     9.888777248099998e+00   2.597239858524511e+00  -2.765664000000001e-01 -3.33896460e-01  -1.67569282e+00  -3.41828310e-01
C     2.466091058300000e+00   3.986501341336914e+00  -5.913566999999986e-01  7.99244600e-01  -4.56309660e-01   4.36650520e-01
C     3.719634221000000e+00   4.697255186161137e+00  -4.849236000000019e-01 -8.39459460e-01   4.00043660e-01  -3.85316040e-01
C     4.936653873099999e+00   4.029983178162541e+00  -3.291767999999990e-01  1.21518728e+00  -4.68257380e-01   4.02130200e-01
C     6.210640118900000e+00   4.744473608582708e+00  -1.427753999999979e-01 -1.42914255e+00  -1.86204379e+00  -2.59240140e-01
C     7.432612892700000e+00   4.009662724143076e+00  -1.236642000000003e-01 -3.03356000e-02  -7.68651010e-01  -2.16673000e-01
C     8.665718888299999e+00   4.691600397250967e+00  -2.120004000000009e-01  4.93279410e-01   1.12595971e+00  -4.21786560e-01
C     9.926206646199999e+00   4.002321822223525e+00  -4.162724999999980e-01 -2.64391603e+00  -7.23667800e-02   9.91644780e-01
C     1.110450090180000e+01   4.731966092982128e+00  -5.355449999999990e-01  1.27199870e+00  -5.73560500e-01  -9.28714600e-02
C     3.732749154900000e+00   6.112232667545005e+00  -4.716440999999989e-01 -1.12058810e+00   1.02303611e+00   9.74843280e-01
C     4.941985569500000e+00   6.813155634993708e+00  -2.066291999999983e-01  3.01106500e-02   1.84660112e+00  -1.64695000e-01
C     6.177036006400000e+00   6.135617516255428e+00  -6.912360000000106e-02  1.14071360e-01   1.50063450e-01  -6.58457140e-01
C     7.410204810200000e+00   6.834621768049275e+00  -7.743809999999840e-02  5.07870530e-01   3.03772920e-01  -1.92013050e-01
C     8.648199541699999e+00   6.141514813063229e+00  -2.058243000000033e-01 -3.64167060e-01  -1.35146411e+00   1.49226940e-01
C     9.861221062399999e+00   6.842947815607904e+00  -3.376029000000003e-01  4.97597950e-01   2.92747950e-01   1.97771870e-01
C     1.109784071830000e+01   6.152359527153039e+00  -4.587969000000029e-01 -1.25803110e-01  -4.37226580e-01  -3.49201250e-01
C     1.232295971950000e+01   6.842262730797094e+00  -4.549719000000003e-01  1.54387366e+00   1.03750000e-02   3.53915710e-01
