32
Lattice="9.86 0 0 4.93 8.53901048131456 0 0 0 30 " PBC="1 1 1" Properties=species:S:1:pos:R:3:force:R:3 Energy="-257.04997201"
C     9.813850270000000e+00   1.650312354042352e-01   3.881124300000000e+00  1.13635337e+00  -1.42897920e+00  -4.20042720e-01
C     1.212102420800000e+00   8.297725368668736e-01   3.877185600000000e+00 -9.45920590e-01   1.47728128e+00   3.43953220e-01
C     2.445905025400000e+00   1.671270501364464e-01   3.864534900000000e+00 -1.63820745e+00  -2.60661930e+00  -3.64489720e-01
C     3.632153688099999e+00   8.592151303920184e-01   3.846440400000000e+00  1.53775869e+00   1.10502600e+00   4.07375300e-02
C     4.843157803500000e+00   1.404461433807432e-01   3.823942200000000e+00  2.93857124e+00  -1.51823100e-01  -6.54399640e-01
C     6.141949837299999e+00   8.158106570013400e-01   3.824644800000000e+00 -4.30101440e-01   1.23774410e+00  -9.15352700e-02
C     7.400564491000000e+00   1.527442824443536e-01   3.879250800000000e+00 -1.29902923e+00  -4.19886160e-01  -6.98775020e-01
C     8.615890934599999e+00   9.118032241638320e-01   3.885568500000000e+00 -7.95719430e-01  -2.47458943e+00   2.54625320e-01
C     1.105571539660000e+01   2.264338252121546e+00   3.933092700000000e+00 -1.71974570e-01   3.15211360e-01   1.62739100e-02
C     2.418229780200000e+00   2.992131606968504e+00   3.950870400000000e+00  7.94188280e-01   4.28262290e-01  -2.21730690e-01
C     3.668028262800000e+00   2.294177482683486e+00   3.851525399999999e+00 -4.71199500e-02  -6.23726410e-01   1.15492660e-01
C     4.940650969200000e+00   2.952850450958408e+00   3.771441000000000e+00 -1.01247001e+00   4.81834600e-02   4.01353700e-02
C     6.185451269900000e+00   2.257494491392140e+00   3.752763900000000e+00 -1.43307353e+00  -4.73701730e-01   1.10441167e+00
C     7.364396729199999e+00   3.014148250029717e+00   3.907968900000000e+00  2.24922730e-01   3.99371090e-01  -8.82419220e-01
C     8.590842344100000e+00   2.288368479244047e+00   3.917608500000000e+00  1.84086290e-01   1.79905675e+00   1.36958000e-01
C     9.816057529599998e+00   2.994730198637777e+00   3.925579800000000e+00  7.44179310e-01  -3.22494860e-01  -2.78201920e-01
C     1.228976440260000e+01   4.430786654342048e+00   3.968969700000000e+00  1.21540830e-01  -3.49026570e-01  -8.64452650e-01
C     3.684728046200000e+00   5.119930910734641e+00   3.841010700000000e+00 -7.33711160e-01  -8.72600440e-01   9.31291600e-02
C     4.923006548500000e+00   4.358024977531024e+00   3.766443300000000e+00 -1.78788698e+00   1.47821465e+00   4.99852970e-01
C     6.089073171599999e+00   5.116308662489024e+00   3.801464100000000e+00  1.90877345e+00   3.59574760e-01  -5.29288570e-01
C     7.332143288799999e+00   4.470342254148972e+00   3.861434400000000e+00  1.69510302e+00  -2.12405208e+00  -2.55533900e-02
C     8.622279869499998e+00   5.135759930631731e+00   3.824315400000000e+00 -2.13010257e+00   2.73872690e-01  -1.52844520e-01
C     9.810822411900000e+00   4.408721424311205e+00   3.821835000000000e+00  1.18456066e+00   1.02337720e-01   8.87152630e-01
C     1.104528159390000e+01   5.145829131789746e+00   3.881372100000001e+00  6.28912910e-01  -1.77871863e+00  -2.71989750e-01
C     1.351442619560000e+01   6.549551001899506e+00   3.811748400000000e+00  8.67233490e-01  -5.70011370e-01   2.21525300e-02
C     4.890100376099999e+00   7.244763335309500e+00   3.816195599999999e+00  3.36182200e-01   1.31384664e+00  -2.82661970e-01
C     6.141227888100000e+00   6.527277249232740e+00   3.734214600000000e+00 -1.46911685e+00   1.21718766e+00   9.57450120e-01
C     7.356972297100000e+00   7.247535098111308e+00   3.796362900000000e+00  1.33834314e+00   6.00825350e-01  -2.76805000e-02
C     8.632326667200001e+00   6.555991294383731e+00   3.782788500000000e+00 -1.43715857e+00  -2.67106650e-01  -1.90114540e-01
C     9.846606373199998e+00   7.257737080882288e+00   3.725725500000000e+00 -5.90393610e-01   4.16512730e-01   8.17879640e-01
C     1.107196112700000e+01   6.524147445721506e+00   3.773777700000000e+00 -1.97796750e-01   2.29996364e+00   1.13211700e-02
C     1.229475257660000e+01   7.268052547102547e+00   3.790050300000000e+00  4.79073090e-01  -4.09136240e-01   6.14654180e-01
