32
Lattice="9.86 0 0 4.93 8.53901048131456 0 0 0 30 " PBC="1 1 1" Properties=species:S:1:pos:R:3:force:R:3 Energy="-257.62451069"
C     9.830645498199999e+00   4.251542577554272e-01   3.288839700000000e+00 -1.26660540e-01  -6.11318300e-02   4.41118600e-02
C     1.188753743600000e+00   1.143807114224174e+00   3.262132500000000e+00  2.67878300e-01   3.94728750e-01  -3.87164600e-02
C     2.417690339600000e+00   4.349078570861024e-01   3.307239300000000e+00  1.07906020e-01   5.00822950e-01   2.62391650e-01
C     3.661201691800000e+00   1.133068454644526e+00   3.361650000000000e+00 -4.53265640e-01   4.36280080e-01  -5.33310200e-01
C     4.870870171600000e+00   4.045108583596080e-01   3.354957600000000e+00  1.46972940e+00   1.10041042e+00   3.16958120e-01
C     6.121830408699999e+00   1.115140887531871e+00   3.344016900000000e+00  4.24283830e-01   1.25828703e+00  -4.43958920e-01
C     7.386954683699999e+00   4.269955245852296e-01   3.310440000000000e+00 -1.41851512e+00   9.46725100e-02   2.55986160e-01
C     8.605714970899999e+00   1.143865264885543e+00   3.261665400000000e+00 -1.52556530e-01   3.60169370e-01   1.98688360e-01
C     1.105493502690000e+01   2.569101257289767e+00   3.227540100000000e+00 -1.70272580e-01   3.58405000e-02   4.41979590e-01
C     2.437814254500000e+00   3.273567401747043e+00   3.297701700000000e+00 -2.29868590e-01  -1.19057990e-01  -8.66800300e-02
C     3.667528311500000e+00   2.563851815207082e+00   3.319908600000000e+00  2.45378820e-01  -4.11868360e-01   2.15106750e-01
C     4.914000621700000e+00   3.281480331978649e+00   3.334843500000000e+00 -1.19519774e+00  -1.33177299e+00   1.27642560e-01
C     6.128669107500000e+00   2.578116061433713e+00   3.299294400000000e+00  7.17326220e-01  -1.46999497e+00   2.27455940e-01
C     7.364863156499999e+00   3.292083392071874e+00   3.276411300000000e+00 -1.93154960e-01   1.57116950e-01   4.87570880e-01
C     8.603364445499999e+00   2.585554393462841e+00   3.259255500000000e+00 -9.42474120e-01  -9.23818370e-01  -1.79093030e-01
C     9.808463406900000e+00   3.286200696971993e+00   3.247316100000000e+00  1.48143136e+00   2.56432630e-01   1.69659400e-02
C     1.230399386160000e+01   4.695440987994557e+00   3.341103000000000e+00 -4.48178040e-01   6.10587700e-02  -1.59350690e-01
C     3.669026390600000e+00   5.406547237781290e+00   3.345151500000000e+00 -4.05861210e-01  -1.96493230e-01   2.50574320e-01
C     4.883554815100000e+00   4.660152246334385e+00   3.385273500000000e+00  6.81516390e-01   2.54534244e+00  -6.76717360e-01
C     6.114031247300000e+00   5.409224986077713e+00   3.331983300000000e+00  1.30231710e-01  -8.41478460e-01   4.90968360e-01
C     7.354418902199999e+00   4.728850549618396e+00   3.360945600000000e+00  6.04032390e-01  -1.02945847e+00  -9.52847190e-01
C     8.609501013699999e+00   5.422901919163529e+00   3.306471300000000e+00 -9.35971470e-01   3.38634490e-01   4.64238180e-01
C     9.830996810000000e+00   4.710650673461533e+00   3.289976100000000e+00  1.27411280e-01  -1.33619570e-01   9.75847000e-02
C     1.106983545890000e+01   5.411639989021666e+00   3.346336800000000e+00  3.79402800e-02   4.47002700e-02  -4.25620640e-01
C     1.348884615110000e+01   6.834335625808090e+00   3.332026500000000e+00  2.22750800e+00  -4.14565260e-01   4.61595950e-01
C     4.897335249699999e+00   7.541525885388695e+00   3.360804600000000e+00 -7.99543970e-01  -3.97554880e-01  -7.05907310e-01
C     6.122736887800000e+00   6.805463438183010e+00   3.314757300000000e+00 -2.90902230e-01   1.92665941e+00   4.02214710e-01
C     7.340296670699999e+00   7.575794129906402e+00   3.335740200000000e+00  8.78519760e-01  -2.10999743e+00  -1.18862000e-01
C     8.600314599599999e+00   6.844886341767074e+00   3.352975800000000e+00 -3.92769650e-01   2.93915870e-01  -7.43990200e-02
C     9.842670852800000e+00   7.545012107197365e+00   3.377342100000000e+00 -7.95062700e-01  -6.68262530e-01  -4.24938070e-01
C     1.107942174530000e+01   6.840606675104603e+00   3.331676700000000e+00 -1.27063137e+00  -7.47786270e-01   5.83794100e-01
C     1.228115977780000e+01   7.534896283042128e+00   3.361551900000000e+00  8.19792670e-01   1.05178816e+00  -5.25427220e-01
