32
Lattice="9.86 0 0 4.93 8.53901048131456 0 0 0 30 " PBC="1 1 1" Properties=species:S:1:pos:R:3:force:R:3 Energy="-256.51345411"
C     4.963227953500000e+00   6.774885497824444e+00  -1.210469999999830e-02  2.76774556e+00  -2.29561420e-01  -7.33430730e-01
C     6.214313018199999e+00   7.477615063720402e+00  -1.334628000000002e-01  7.96322050e-01   1.03503712e+00  -5.16253900e-02
C     7.494125390099999e+00   6.793872158406933e+00  -3.232982999999976e-01 -2.07468583e+00   1.52174580e-01   8.97769790e-01
C     8.697095626799999e+00   7.513059129981205e+00  -2.399168999999972e-01  1.74967094e+00  -1.45684670e-01   4.92079320e-01
C     9.961822593099999e+00   6.845763554313684e+00  -5.420760000000158e-02 -5.48136240e-01  -1.94995493e+00   1.21649950e-01
C     1.121018614990000e+01   7.546481243950449e+00   8.714040000000001e-02 -1.88161399e+00  -9.51999190e-01  -8.07659460e-01
C     1.241902200200000e+01   6.809302748075027e+00   4.053990000000000e-02 -1.45878840e+00  -5.40031580e-01   3.26540230e-01
C     1.362144012800000e+01   7.489258687630720e+00   3.654780000000001e-02  1.13567602e+00  -4.68819950e-01  -1.37375300e-02
C     1.307089618200000e+00   3.949618537200336e-01  -4.860899999999901e-02 -4.25961000e-02  -1.39764061e+00  -1.65865155e+00
C     2.533332018500000e+00   1.091556482146530e+00  -2.287764000000010e-01 -6.11710300e-02   8.06022830e-01   1.44594128e+00
C     3.775729535800000e+00   3.809443848962752e-01  -2.099961000000015e-01 -3.61750850e-01   1.51620654e+00  -1.48734300e-01
C     4.990043357400000e+00   1.138545546746608e+00  -1.569602999999979e-01  1.63764215e+00  -1.95263015e+00   2.41341400e-01
C     6.264235184199999e+00   4.148379376341200e-01  -9.420000000019968e-04 -2.19673276e+00  -6.46735660e-01  -6.44168490e-01
C     7.481300981100000e+00   1.028216322548615e+00  -1.121982000000017e-01  9.22432760e-01   3.54380711e+00  -3.72397430e-01
C     8.725403933299999e+00   3.293287136379240e-01  -4.451249999999973e-02 -1.05028692e+00   2.04348106e+00  -1.59488480e-01
C     9.919145949499999e+00   1.084173482905313e+00  -1.119021000000018e-01  1.01620415e+00  -5.54157460e-01   9.79196850e-01
C     2.535924853400000e+00   2.543806402715178e+00  -7.829579999999936e-02  1.11317863e+00  -1.41161973e+00  -4.37203140e-01
C     3.779929107000000e+00   3.216712022877954e+00  -6.819510000000051e-02  2.44268090e-01   1.89902735e+00  -1.05500449e+00
C     5.038121309000000e+00   2.537069294226667e+00  -2.282393999999996e-01 -2.88217719e+00  -2.61960020e-01   7.66382430e-01
C     6.218799219600000e+00   3.239989365446434e+00  -2.898789000000015e-01  2.41718432e+00   6.05416800e-02  -3.11257000e-02
C     7.450984537700000e+00   2.506543271051820e+00  -2.869649999999986e-01  8.77765360e-01  -1.32244048e+00   1.08315771e+00
C     8.698689150699998e+00   3.184344647483199e+00  -1.297838999999996e-01 -5.57132450e-01   1.50124138e+00  -3.92229620e-01
C     9.927292774500000e+00   2.484431332633650e+00  -6.824040000000053e-02  8.74479610e-01   1.49997029e+00  -1.49405120e-01
C     1.119984103790000e+01   3.261169270870711e+00  -2.283270000000215e-02 -2.62105154e+00  -2.01113896e+00   2.61309300e-02
C     3.783799650000000e+00   4.682567063454280e+00  -8.106510000000000e-02 -5.40331690e-01  -1.52324557e+00   3.17900920e-01
C     5.037728831700000e+00   5.358310111409455e+00  -1.158216000000003e-01 -1.44983608e+00   4.44691030e-01  -9.00946100e-02
C     6.256037333700000e+00   4.659496621109731e+00  -2.693049000000016e-01 -4.96160220e-01   2.17607780e-01   1.74785200e-02
C     7.471879849700001e+00   5.382030628621847e+00  -3.195282000000006e-01  1.06691709e+00  -1.12579788e+00   9.52365060e-01
C     8.691889546799999e+00   4.641225614995570e+00  -9.936480000000003e-02  2.03954110e-01   1.00101350e-01  -9.63756820e-01
C     9.929419428599999e+00   5.360118759219224e+00  -6.167099999998982e-03 -8.80071990e-01   1.53275530e+00  -2.46985350e-01
C     1.113097125500000e+01   4.647102845128744e+00   2.355180000000000e-02  2.34524857e+00   1.56564981e+00  -1.14673800e-01
C     1.239568185370000e+01   5.401189094095194e+00  -2.120010000000150e-02 -6.61661200e-02  -1.42489694e+00   4.02437630e-01
