32
Lattice="9.86 0 0 4.93 8.53901048131456 0 0 0 30 " PBC="1 1 1" Properties=species:S:1:pos:R:3:force:R:3 Energy="-257.49178735"
C     9.839141662999999e+00   1.723377251115520e-02   3.533195700000000e+00  8.09942330e-01   5.31906010e-01   4.12955000e-01
C     1.222923573600000e+00   7.505713360825680e-01   3.608992800000000e+00 -3.51378500e-02  -1.04151641e+00  -2.29940990e-01
C     2.469457114400000e+00   1.844921526287840e-02   3.503781300000000e+00 -4.52106030e-01  -2.25667800e-02   1.59515210e-01
C     3.702735265599999e+00   7.212897029049712e-01   3.509693400000000e+00  1.94128260e-01   3.49460370e-01  -1.71014350e-01
C     4.963519069999999e+00   4.178581856408960e-02   3.412557300000000e+00 -1.75771706e+00  -4.80897010e-01   7.02494630e-01
C     6.170560747200000e+00   7.756034453046879e-01   3.486041400000000e+00 -3.20665820e-01  -1.88598233e+00  -1.33051730e-01
C     7.371315195399999e+00   1.042613179608000e-02   3.512223000000000e+00  7.36804510e-01   9.86529140e-01   3.28206850e-01
C     8.603736019599999e+00   7.283557340771712e-01   3.584382900000000e+00  4.92486640e-01  -7.77026100e-01  -1.21641140e-01
C     1.107478113630000e+01   2.169141349955580e+00   3.721249200000000e+00  1.04075334e+00  -4.86528910e-01  -3.94551870e-01
C     2.469602352200000e+00   2.855403434140857e+00   3.683620200000000e+00 -1.03162938e+00   6.86538400e-01  -3.66646500e-02
C     3.682639796800000e+00   2.147489749592387e+00   3.589907700000000e+00  3.76001220e-01   2.19987430e-01  -2.08872590e-01
C     4.894091506900000e+00   2.886728196356004e+00   3.504121800000000e+00  1.47494696e+00  -8.96218000e-03   3.68360290e-01
C     6.150760585400000e+00   2.168503229702410e+00   3.514289400000000e+00 -2.82676560e-01   8.42215480e-01  -4.55957820e-01
C     7.400789742699999e+00   2.847964333600787e+00   3.500514000000000e+00 -2.46621250e-01  -2.16129500e-01   7.46674730e-01
C     8.623481902100000e+00   2.131136776012244e+00   3.640886700000000e+00  2.97295820e-01   1.15246460e+00  -5.57585430e-01
C     9.865637257800000e+00   2.881426751699496e+00   3.687387900000000e+00 -1.29606904e+00  -8.72806500e-01   9.48783300e-02
C     1.230333245280000e+01   4.291718621862672e+00   3.643540200000000e+00  4.80907650e-01  -5.27477380e-01   7.07500000e-04
C     3.665524167900000e+00   4.997696427345222e+00   3.550484700000000e+00  1.46101014e+00   7.27101860e-01  -2.54402900e-02
C     4.944490058800000e+00   4.327313487048552e+00   3.500147100000000e+00 -1.28700563e+00  -1.48208502e+00  -3.76894700e-01
C     6.191738400300000e+00   4.989621255914495e+00   3.381189000000000e+00 -8.37935640e-01   8.86110780e-01   9.47050320e-01
C     7.407529299199999e+00   4.249064898273395e+00   3.469847100000000e+00 -2.97627590e-01   1.16811853e+00  -6.04262780e-01
C     8.623538843600000e+00   4.974119792459417e+00   3.466321500000000e+00 -7.83917700e-02   6.63566530e-01   5.03062470e-01
C     9.843203292799998e+00   4.291247097703966e+00   3.629104500000000e+00  5.16039830e-01  -1.18183300e-02  -3.64598450e-01
C     1.107586987750000e+01   5.004864585082762e+00   3.615134400000000e+00 -1.58831350e-01  -1.55552340e-01  -7.00194400e-02
C     1.356156463710000e+01   6.422913633926389e+00   3.517269900000000e+00 -4.67868730e-01   1.03737000e-01   9.53681200e-02
C     4.939792360399999e+00   7.138451886322557e+00   3.468005700000000e+00 -6.95957920e-01  -7.78598800e-02   1.60661760e-01
C     6.166872022600000e+00   6.443821998817404e+00   3.430912800000000e+00  6.00964400e-02  -1.70144176e+00  -4.06795440e-01
C     7.391992699999999e+00   7.115395362565090e+00   3.422649600000000e+00 -1.00193280e-01   1.48919803e+00   1.58772820e-01
C     8.603219306300000e+00   6.404844063069452e+00   3.428757900000000e+00  9.87994380e-01   2.79039480e-01  -6.68197500e-02
C     9.834952198300000e+00   7.149390102577123e+00   3.446731200000000e+00  8.93008080e-01  -6.25063050e-01  -1.58942090e-01
C     1.106951604420000e+01   6.413705421195072e+00   3.510427200000000e+00  5.02447400e-01   9.05326720e-01   3.30978650e-01
C     1.232817245500000e+01   7.139583988331996e+00   3.552008700000000e+00 -9.77428120e-01  -6.17586880e-01  -6.26633170e-01
