32
Lattice="9.86 0 0 4.93 8.53901048131456 0 0 0 30 " PBC="1 1 1" Properties=species:S:1:pos:R:3:force:R:3 Energy="-256.51877272"
C     9.816673237300000e+00   1.051032729331385e+00   3.775706100000000e+00 -2.23616270e-01  -7.03916290e-01  -3.90174260e-01
C     1.180893105100000e+00   1.776716948589783e+00   3.677307900000000e+00  9.08196130e-01  -1.27652070e-01   3.65301250e-01
C     2.427419891800000e+00   1.063547246920558e+00   3.815757600000000e+00  1.65610200e-02  -9.44147520e-01  -7.67485630e-01
C     3.682553472500000e+00   1.742487812740074e+00   3.689223300000000e+00 -1.63091623e+00   1.32256950e+00  -7.26923900e-02
C     4.926937188200000e+00   1.063481154979443e+00   3.690989400000000e+00 -2.05179713e+00  -1.40168393e+00  -3.65379900e-02
C     6.094257904700000e+00   1.807677351227748e+00   3.694340700000000e+00  1.14687899e+00  -1.94445278e+00  -3.93155830e-01
C     7.318510754200000e+00   1.044265990476509e+00   3.607489500000000e+00  8.88559640e-01   4.23515570e-01   6.07060850e-01
C     8.570691807199999e+00   1.719641263250310e+00   3.743281800000000e+00 -1.08237510e-01   1.61266914e+00  -7.61914370e-01
C     1.105767891700000e+01   3.197262206367029e+00   3.453067500000000e+00 -1.36735396e+00  -6.72999860e-01   5.76796200e-01
C     2.393498878900000e+00   3.918756930913625e+00   3.368960400000000e+00  1.33810741e+00  -2.31075707e+00  -4.63849700e-02
C     3.607058114700000e+00   3.183528830421940e+00   3.506215200000000e+00  1.68830829e+00  -3.29517020e-01   3.79642730e-01
C     4.849683693799999e+00   3.900908605818224e+00   3.573650100000000e+00 -4.93475350e-01   1.64606696e+00   2.68658340e-01
C     6.053408269799999e+00   3.195828164947017e+00   3.751537200000000e+00  1.65906206e+00   5.64687850e-01  -2.89970500e-01
C     7.344606673900000e+00   3.845599300186644e+00   3.805735200000000e+00 -7.73711530e-01   1.66876401e+00  -3.81099620e-01
C     8.564027285300000e+00   3.174387990483310e+00   3.691499100000000e+00  1.52146634e+00  -1.11996005e+00   3.27396820e-01
C     9.831073077099999e+00   3.907347959011297e+00   3.525952200000000e+00 -1.89907203e+00  -7.23031770e-01   1.19451790e-01
C     1.228780817860000e+01   5.281947875439435e+00   3.235605600000000e+00 -3.74966810e-01   3.26872082e+00   5.69682150e-01
C     3.620753901200000e+00   6.087522735188295e+00   3.441835200000000e+00  1.39710080e+00  -3.17190250e+00  -5.64619630e-01
C     4.877674015300000e+00   5.383915529795203e+00   3.570459000000000e+00 -1.56609900e-01  -1.61432341e+00   7.14627440e-01
C     6.123359793300000e+00   6.052679388314759e+00   3.839889300000000e+00  1.50421890e-01  -1.69326273e+00  -8.15632080e-01
C     7.389421606400000e+00   5.272403140305101e+00   3.849738000000000e+00 -2.47148353e+00   1.01261421e+00   3.26462100e-02
C     8.572001264499999e+00   6.021878835952981e+00   3.771079800000000e+00  1.10187254e+00  -1.05044194e+00  -8.36302270e-01
C     9.795327964199998e+00   5.323807300273862e+00   3.480321600000000e+00  8.63618570e-01  -1.77214910e-01   5.34762000e-02
C     1.104989301730000e+01   5.997872774230137e+00   3.251118900000000e+00 -1.08137423e+00   9.34648330e-01   1.03033997e+00
C     1.352169755120000e+01   7.458253028237212e+00   3.528570900000000e+00 -5.96953770e-01   1.62513332e+00   2.18016710e-01
C     4.883036031200001e+00   8.147322141337579e+00   3.773163900000000e+00  1.78320220e-01   1.07337264e+00  -3.38160270e-01
C     6.119853675900000e+00   7.465674538415694e+00   3.855012600000000e+00 -2.19916450e-01  -6.60869370e-01   1.92525550e-01
C     7.348264980400000e+00   8.145149133950628e+00   3.882238500000000e+00  1.73053940e-01   1.71970793e+00  -5.80606500e-02
C     8.558085797200000e+00   7.419597440134879e+00   3.774575700000000e+00  1.11107776e+00   1.77140317e+00   9.00106400e-02
C     9.811489194400000e+00   8.152592589386044e+00   3.641708400000000e+00  1.46955780e-01  -2.67117440e-01  -2.88186770e-01
C     1.102668859190000e+01   7.432671262910494e+00   3.399468900000000e+00  1.06965230e+00   3.68188100e-01   7.04937300e-02
C     1.229510078250000e+01   8.173473971003942e+00   3.442982400000000e+00 -1.90972899e+00  -9.88109100e-02   4.24250680e-01
