32
Lattice="9.86 0 0 4.93 8.53901048131456 0 0 0 30 " PBC="1 1 1" Properties=species:S:1:pos:R:3:force:R:3 Energy="-257.31138889"
C     9.802373920200001e+00   9.191522381433391e-01   3.523214100000000e+00  3.45110360e-01  -1.08313669e+00   1.55426800e-02
C     1.192315323500000e+00   1.601299031617886e+00   3.551667300000000e+00  9.75602600e-02   3.02726120e-01  -2.99860360e-01
C     2.425022630000000e+00   9.061584258959231e-01   3.525716100000000e+00  5.85678460e-01  -9.10398220e-01   4.45054140e-01
C     3.673634067199999e+00   1.602562207438192e+00   3.647821500000000e+00 -1.15516639e+00   5.66039220e-01  -6.64528400e-02
C     4.901063463600000e+00   9.022928158516272e-01   3.669579900000000e+00 -9.20701070e-01  -1.26363260e-01  -6.88275370e-01
C     6.095822193700000e+00   1.638917129946897e+00   3.590186100000000e+00  1.13235104e+00  -1.54011530e+00  -1.41360200e-01
C     7.344661594100000e+00   8.835566044465160e-01   3.570075900000000e+00 -6.68320750e-01   9.36678020e-01  -2.42892950e-01
C     8.554631543399999e+00   1.597631782787040e+00   3.475811100000000e+00  6.62006640e-01   4.17111550e-01   6.50598790e-01
C     1.107849623640000e+01   3.020779816348694e+00   3.604930500000000e+00 -1.77090772e+00  -3.08040500e-02   9.40879000e-03
C     2.402202202300000e+00   3.758276988095230e+00   3.697116300000000e+00  1.30422097e+00  -7.36233590e-01   2.32430250e-01
C     3.647036322800000e+00   3.026998948461488e+00   3.711656100000000e+00  2.93796570e-01   4.66135740e-01  -2.25287820e-01
C     4.885312113600000e+00   3.737522837733485e+00   3.671530800000000e+00 -1.13933361e+00   1.81916965e+00  -7.14365770e-01
C     6.078911850000000e+00   3.045570442354440e+00   3.499902600000000e+00  1.53434696e+00  -3.63720580e-01   1.07373027e+00
C     7.347011133499999e+00   3.721671616409146e+00   3.520504500000000e+00 -1.00332375e+00   1.50344194e+00  -7.92293330e-01
C     8.545862108700000e+00   3.023738668870119e+00   3.503756700000000e+00  1.94239091e+00  -5.33088170e-01   4.53906800e-02
C     9.827253756799999e+00   3.710005364121056e+00   3.576609900000000e+00 -7.19754790e-01   7.52520030e-01  -2.30894790e-01
C     1.225231991870000e+01   5.161237434640487e+00   3.778099800000000e+00  9.46536690e-01   1.30294579e+00  -2.13755820e-01
C     3.661110240300000e+00   5.902986094314910e+00   3.749206500000000e+00 -7.75023830e-01  -1.34280282e+00  -1.99690790e-01
C     4.887776374100000e+00   5.211971794627198e+00   3.615723000000000e+00 -1.94170190e-01  -2.04471880e+00   6.54540140e-01
C     6.118451534599999e+00   5.895464506933601e+00   3.526872900000000e+00  7.35851900e-01  -7.20017110e-01  -4.32162230e-01
C     7.374478579200000e+00   5.160853435339201e+00   3.471026700000000e+00 -1.96841444e+00  -6.81504430e-01   8.96630440e-01
C     8.571245840600000e+00   5.850323198811291e+00   3.595162200000000e+00  1.19208469e+00   2.28617370e-01  -7.06340080e-01
C     9.821702182399999e+00   5.148627280133938e+00   3.599032200000000e+00 -5.73273050e-01  -5.15062670e-01   8.02334170e-01
C     1.101914145210000e+01   5.878042961581992e+00   3.753080100000000e+00  8.17050080e-01   6.61507450e-01  -6.15468110e-01
C     1.353857313840000e+01   7.297884946456104e+00   3.712660500000000e+00 -8.23942120e-01   1.09633634e+00  -4.74778700e-01
C     4.896196567600000e+00   8.017330906218234e+00   3.590643900000000e+00 -6.37698800e-02   4.29589430e-01  -3.85595470e-01
C     6.122335684399999e+00   7.300738171417891e+00   3.478432500000000e+00  2.82184100e-01   8.38986870e-01   6.05207460e-01
C     7.367417586699999e+00   8.011353684272338e+00   3.482718600000000e+00 -4.24259030e-01  -1.80412780e-01   3.03660300e-01
C     8.576109581400001e+00   7.261501930602920e+00   3.591880200000000e+00  3.60694540e-01   1.72670060e+00  -4.00234240e-01
C     9.807171401800000e+00   8.017467018045284e+00   3.610776600000000e+00 -7.96899200e-02  -3.00436250e-01   6.67756560e-01
C     1.103264013720000e+01   7.336738639601571e+00   3.694092000000000e+00  7.82813270e-01  -1.68879010e+00  -2.54045800e-02
C     1.229565856270000e+01   8.015739490835076e+00   3.653538900000000e+00 -7.34626900e-01  -2.50901320e-01   4.52828760e-01
