32
Lattice="9.86 0 0 4.93 8.53901048131456 0 0 0 30 " PBC="1 1 1" Properties=species:S:1:pos:R:3:force:R:3 Energy="-257.00305451"
C     9.837298237399999e+00   1.755638315829798e+00   3.722607600000000e+00 -3.06261168e+00   1.29016710e-01  -3.66432120e-01
C     1.099354188480000e+01   2.509854101585230e+00   3.695941800000000e+00  1.87207943e+00  -3.54288890e-01   3.95531050e-01
C     2.369515316300000e+00   1.795704292293111e+00   3.764297700000000e+00  4.91140050e-01  -7.80607960e-01  -5.51994700e-01
C     3.612913771500000e+00   2.463276104949660e+00   3.697821900000000e+00 -4.26415100e-01   1.54455906e+00  -2.42843900e-01
C     4.827462754100000e+00   1.724985915299847e+00   3.646192800000000e+00  7.15404690e-01   1.77263479e+00  -1.13028767e+00
C     6.044319666900000e+00   2.501083598531118e+00   3.531933600000000e+00  7.75219550e-01  -1.95927350e-01   7.46587300e-02
C     7.313527017199999e+00   1.820992998780155e+00   3.552535800000000e+00 -3.78150020e-01  -2.21841009e+00  -2.30454160e-01
C     8.578763991999999e+00   2.456403823925251e+00   3.608234400000000e+00 -8.02704740e-01   1.67110305e+00   3.68143110e-01
C     1.099922928070000e+01   3.917275071034926e+00   3.619139100000000e+00 -4.31491180e-01   2.29455550e-01  -6.30265400e-02
C     1.224319394640000e+01   4.630438112275977e+00   3.575571600000000e+00 -6.56770220e-01  -6.07079910e-01   3.68771000e-03
C     3.579116156500000e+00   3.926455361201974e+00   3.575841900000000e+00  2.66212568e+00  -1.37875066e+00   1.80537030e-01
C     4.857383417099999e+00   4.659612751652258e+00   3.491525700000000e+00 -2.72162480e+00  -9.58481530e-01   1.60429610e-01
C     6.059816628899999e+00   3.947246997819725e+00   3.468425400000000e+00 -6.34633730e-01  -1.92684501e+00   9.68617290e-01
C     7.271538700199999e+00   4.604075796001282e+00   3.610706700000000e+00  1.89818927e+00   1.17096859e+00  -6.39829420e-01
C     8.513942034899999e+00   3.914620634237113e+00   3.620542800000000e+00  8.26170570e-01  -1.66291994e+00  -1.01511700e-01
C     9.749620800300001e+00   4.602277395004089e+00   3.586058100000000e+00  5.14493190e-01   1.18722689e+00  -1.67105800e-02
C     1.227090823720000e+01   6.031524075240664e+00   3.530154300000000e+00 -1.52799681e+00   1.30864109e+00  -3.25960800e-01
C     1.344211231470000e+01   6.805214867587937e+00   3.558258300000000e+00  1.38276746e+00  -1.96717014e+00   1.71634820e-01
C     4.810169448000000e+00   6.055940863367595e+00   3.542930400000000e+00  1.31191472e+00   1.26297908e+00   4.01070350e-01
C     6.082004093900000e+00   6.743436151446395e+00   3.653860500000000e+00 -2.24001390e-01  -1.38585670e-01  -4.87623660e-01
C     7.327815241800000e+00   6.032743445937208e+00   3.632084700000000e+00 -7.77967270e-01   4.13286940e-01   1.85560790e-01
C     8.562972856900000e+00   6.772437021959409e+00   3.620842500000000e+00 -4.71751080e-01  -2.13958516e+00  -5.41190580e-01
C     9.786028258700000e+00   6.038174512772802e+00   3.507798600000000e+00 -2.15441870e-01  -2.13073510e-01   5.89526970e-01
C     1.102734014070000e+01   6.729796960786900e+00   3.469801500000000e+00 -3.70537300e-01   6.39428290e-01  -8.18730500e-02
C     1.344797462700000e+01   8.203640160277162e+00   3.644421300000000e+00  1.02820478e+00  -7.29815700e-02  -2.81947810e-01
C     9.773800724799999e+00   3.390014485393536e-01   3.764400600000000e+00  6.69282360e-01   2.71101700e-02  -6.65820940e-01
C     6.076009706900000e+00   8.157270515497304e+00   3.704383500000000e+00  6.36615800e-01   8.79002940e-01   5.03001380e-01
C     2.396798478600000e+00   3.680892461790544e-01   3.713104800000000e+00 -9.89113910e-01  -1.03541157e+00   1.34223800e-01
C     8.555325194399998e+00   8.156301252417718e+00   3.613557300000000e+00 -9.08245710e-01   1.63422426e+00  -4.85618800e-02
C     4.835742097499999e+00   3.222415057197336e-01   3.488262000000000e+00  7.05303250e-01   2.28719050e-01   8.41097530e-01
C     1.100639917690000e+01   8.171106274178047e+00   3.422645100000000e+00  5.90555010e-01  -6.15278800e-01   3.25665830e-01
C     7.316495666000000e+00   3.423205619129296e-01   3.499223400000000e+00 -1.48000900e+00   2.16704128e+00   4.72683510e-01
