32
Lattice="9.86 0 0 4.93 8.53901048131456 0 0 0 30 " PBC="1 1 1" Properties=species:S:1:pos:R:3:force:R:3 Energy="-256.81623122"
C     4.959404639900000e+00   8.149105172115908e+00  -6.891209999999859e-02  2.58689560e-01   2.01120534e+00   1.66511340e-01
C     1.256274530600000e+00   3.690712323842544e-01  -8.515200000001499e-03  3.83724810e-01  -1.56886971e+00  -1.20244088e+00
C     7.434521049200000e+00   8.223123449709169e+00  -1.581027000000006e-01 -6.83354060e-01  -2.52026078e+00   8.06256100e-01
C     3.731915886300000e+00   3.340185089737496e-01  -7.515360000000015e-02  1.47825277e+00   1.48230595e+00   6.02169540e-01
C     9.947729497899999e+00   8.178100236101795e+00   4.370100000000000e-03 -3.05127550e+00  -5.80554300e-01  -5.68783550e-01
C     6.207302952599999e+00   3.635331717473456e-01  -2.447340000000153e-02  1.21439923e+00  -1.83744406e+00   1.01524490e-01
C     1.238045510500000e+01   8.167304108981618e+00  -4.817579999999921e-02 -3.74906750e-01  -4.58184400e-02   5.60770520e-01
C     8.671069811699999e+00   3.309955284836200e-01  -5.471040000000116e-02 -1.58159710e-01   1.04604708e+00  -9.81202500e-02
C     1.253361738700000e+00   1.760578901903422e+00   5.163540000000000e-02 -6.47039550e-01   7.68303340e-01   6.69061720e-01
C     2.468926153400000e+00   2.464227777667656e+00   1.965780000000000e-01  1.88705149e+00  -5.29306000e-03  -7.35281430e-01
C     3.731205769100000e+00   1.778187195414229e+00   6.965880000000001e-02 -2.11627230e-01  -1.16647207e+00  -9.72469000e-03
C     4.988853304700000e+00   2.448107065172569e+00   4.567110000000001e-02 -1.15938040e+00   1.63748395e+00   1.36341720e-01
C     6.206455830700000e+00   1.753163454422380e+00  -2.003039999999956e-02 -8.16303250e-01   3.13197040e-01  -5.48119190e-01
C     7.395456123600000e+00   2.467636209090853e+00  -1.311414000000006e-01  2.24271355e+00  -9.31946900e-01   5.51204610e-01
C     8.661085378499999e+00   1.785110966671833e+00  -6.060150000000064e-02 -9.26687010e-01  -1.78458670e+00  -1.89422650e-01
C     9.867810648299999e+00   2.464672574723559e+00   3.506070000000000e-02  8.17767880e-01   1.25454367e+00   7.87312900e-02
C     2.539862395100000e+00   3.875492326514609e+00   2.753637000000000e-01 -1.81003977e+00   1.02251282e+00  -5.22318300e-02
C     3.746945089900000e+00   4.611805393677883e+00   1.902348000000000e-01  7.47009330e-01  -4.95644640e-01   1.21325380e-01
C     5.004073299300000e+00   3.905492944374621e+00   4.248030000000001e-02 -1.78946259e+00  -1.42080565e+00   6.96975700e-02
C     6.200721254699999e+00   4.565923241006327e+00  -1.420487999999978e-01  9.36997120e-01   2.52893004e+00   2.22591490e-01
C     7.440829772999999e+00   3.842137841508366e+00  -1.570542000000010e-01 -5.53890670e-01   2.40541887e+00   2.05415300e-01
C     8.671442716900000e+00   4.584357598390970e+00  -3.497490000000170e-02 -1.46410799e+00   5.23228520e-01  -1.95042580e-01
C     9.870859902599999e+00   3.907260434153877e+00   1.017957000000000e-01  2.15608390e+00  -9.31341500e-01   3.32911650e-01
C     1.114074049370000e+01   4.604953520888521e+00   2.717547000000000e-01 -6.04851300e-01   3.70863310e-01  -7.13000100e-01
C     3.717293259800000e+00   6.037198418484834e+00   1.772382000000000e-01  1.61068000e+00  -4.53509650e-01  -1.42358639e+00
C     4.930657316900000e+00   6.767216270951937e+00  -9.152220000000000e-02  1.00942185e+00  -2.10226483e+00   8.16148960e-01
C     6.174721617900000e+00   6.051012915029482e+00  -1.702563000000019e-01  2.34840830e-01  -1.35981505e+00   1.21228840e-01
C     7.418688452800000e+00   6.740086212244986e+00  -1.753527000000012e-01 -6.03511590e-01   1.18816531e+00   1.55207850e-01
C     8.623411600299999e+00   6.010259975173054e+00  -3.131010000000245e-02  1.03597464e+00   7.86024610e-01  -3.69110760e-01
C     9.865586823899999e+00   6.743868737717311e+00   4.304220000000000e-02  9.48859900e-01  -3.99911000e-02   1.98490960e-01
C     1.110788874850000e+01   6.047826497878765e+00   1.791741000000000e-01  1.00358937e+00  -9.01720420e-01  -7.20889800e-02
C     1.239685391190000e+01   6.741856263727384e+00   1.069710000000000e-01 -3.11145884e+00   8.08109040e-01   2.61363930e-01
