32
Lattice="9.86 0 0 4.93 8.53901048131456 0 0 0 30 " PBC="1 1 1" Properties=species:S:1:pos:R:3:force:R:3 Energy="-258.08823121"
C     0.000000000000000e+00   0.000000000000000e+00   3.399999900000000e+00 -0.00000000e+00   0.00000000e+00  -0.00000000e+00
C     1.232499950700000e+00   7.115841782032983e-01   3.399999900000000e+00 -0.00000000e+00  -0.00000000e+00   0.00000000e+00
C     2.465000000000000e+00   0.000000000000000e+00   3.399999900000000e+00  0.00000000e+00   0.00000000e+00   0.00000000e+00
C     3.697499950699999e+00   7.115841782032983e-01   3.399999900000000e+00  0.00000000e+00  -0.00000000e+00   0.00000000e+00
C     4.930000000000000e+00   0.000000000000000e+00   3.399999900000000e+00  0.00000000e+00  -0.00000000e+00   0.00000000e+00
C     6.162499950699999e+00   7.115841782032983e-01   3.399999900000000e+00  0.00000000e+00  -0.00000000e+00   0.00000000e+00
C     7.395000000000000e+00   0.000000000000000e+00   3.399999900000000e+00 -0.00000000e+00   0.00000000e+00  -0.00000000e+00
C     8.627499950699999e+00   7.115841782032983e-01   3.399999900000000e+00  0.00000000e+00   0.00000000e+00  -0.00000000e+00
C     1.232500000000000e+00   2.134752620000000e+00   3.399999900000000e+00  0.00000000e+00   0.00000000e+00   0.00000000e+00
C     2.464999950700000e+00   2.846336798203298e+00   3.399999900000000e+00  0.00000000e+00  -0.00000000e+00   0.00000000e+00
C     3.697500000000000e+00   2.134752620000000e+00   3.399999900000000e+00 -0.00000000e+00  -0.00000000e+00  -0.00000000e+00
C     4.929999950699999e+00   2.846336798203298e+00   3.399999900000000e+00  0.00000000e+00  -0.00000000e+00   0.00000000e+00
C     6.162500000000000e+00   2.134752620000000e+00   3.399999900000000e+00 -0.00000000e+00   0.00000000e+00  -0.00000000e+00
C     7.394999950699999e+00   2.846336798203298e+00   3.399999900000000e+00  0.00000000e+00   0.00000000e+00  -0.00000000e+00
C     8.627500000000000e+00   2.134752620000000e+00   3.399999900000000e+00 -0.00000000e+00   0.00000000e+00  -0.00000000e+00
C     9.859999950699999e+00   2.846336798203298e+00   3.399999900000000e+00 -0.00000000e+00  -0.00000000e+00  -0.00000000e+00
C     2.465000000000000e+00   4.269505240000000e+00   3.399999900000000e+00 -0.00000000e+00   0.00000000e+00   0.00000000e+00
C     3.697499950700000e+00   4.981089418203299e+00   3.399999900000000e+00  0.00000000e+00  -0.00000000e+00  -0.00000000e+00
C     4.930000000000000e+00   4.269505240000000e+00   3.399999900000000e+00 -0.00000000e+00   0.00000000e+00   0.00000000e+00
C     6.162499950699999e+00   4.981089418203299e+00   3.399999900000000e+00  0.00000000e+00   0.00000000e+00  -0.00000000e+00
C     7.395000000000000e+00   4.269505240000000e+00   3.399999900000000e+00 -0.00000000e+00   0.00000000e+00  -0.00000000e+00
C     8.627499950699999e+00   4.981089418203299e+00   3.399999900000000e+00  0.00000000e+00  -0.00000000e+00  -0.00000000e+00
C     9.859999999999999e+00   4.269505240000000e+00   3.399999900000000e+00  0.00000000e+00  -0.00000000e+00   0.00000000e+00
C     1.109249995070000e+01   4.981089418203299e+00   3.399999900000000e+00  0.00000000e+00  -0.00000000e+00   0.00000000e+00
C     3.697500000000000e+00   6.404257860000000e+00   3.399999900000000e+00 -0.00000000e+00  -0.00000000e+00   0.00000000e+00
C     4.929999950699999e+00   7.115842038203298e+00   3.399999900000000e+00  0.00000000e+00  -0.00000000e+00  -0.00000000e+00
C     6.162500000000000e+00   6.404257860000000e+00   3.399999900000000e+00 -0.00000000e+00   0.00000000e+00  -0.00000000e+00
C     7.394999950699999e+00   7.115842038203298e+00   3.399999900000000e+00 -0.00000000e+00  -0.00000000e+00  -0.00000000e+00
C     8.627500000000000e+00   6.404257860000000e+00   3.399999900000000e+00  0.00000000e+00   0.00000000e+00  -0.00000000e+00
C     9.859999950699999e+00   7.115842038203298e+00   3.399999900000000e+00  0.00000000e+00  -0.00000000e+00   0.00000000e+00
C     1.109250000000000e+01   6.404257860000000e+00   3.399999900000000e+00 -0.00000000e+00   0.00000000e+00  -0.00000000e+00
C     1.232499995070000e+01   7.115842038203298e+00   3.399999900000000e+00  0.00000000e+00  -0.00000000e+00  -0.00000000e+00
