32
Lattice="9.86 0 0 4.93 8.53901048131456 0 0 0 30 " PBC="1 1 1" Properties=species:S:1:pos:R:3:force:R:3 Energy="-256.85394132"
C     9.669221177099999e+00   1.826036906880586e+00   3.765243600000000e+00 -6.32922130e-01  -6.04388390e-01   1.60214000e-01
C     1.086623829090000e+01   2.548585943051148e+00   3.882380400000000e+00  1.23231615e+00   1.16923226e+00   1.99971000e-01
C     2.267211555200000e+00   1.867546488455648e+00   4.017305700000001e+00 -1.16932671e+00  -1.81761184e+00  -7.26812000e-01
C     3.473124656800000e+00   2.562089961174744e+00   3.934833600000000e+00  7.80049080e-01   1.97192570e+00  -6.04935890e-01
C     4.718635764900000e+00   1.917071809948495e+00   3.737769600000000e+00  9.63199650e-01  -9.08357030e-01   7.82851830e-01
C     5.968437698499999e+00   2.620385700331599e+00   3.642615900000000e+00  2.96699250e-01  -6.56455010e-01  -2.00651000e-03
C     7.208168874599999e+00   1.864815883684354e+00   3.643933200000000e+00 -6.54722890e-01   1.09118458e+00  -1.34870680e-01
C     8.456493730900000e+00   2.561731066564270e+00   3.618335100000000e+00 -1.32581870e-01   5.08352970e-01   4.00865890e-01
C     1.087736515300000e+01   4.007143459881162e+00   3.814059900000000e+00  6.73620820e-01  -8.05144870e-01   5.10447990e-01
C     1.212434614060000e+01   4.694538926927449e+00   3.846563400000000e+00 -5.07220590e-01  -2.03907410e-01  -1.86467870e-01
C     3.470298189200000e+00   4.018501197720609e+00   3.867013800000000e+00  2.03506023e+00  -1.77739080e+00  -1.64258380e-01
C     4.736245823499999e+00   4.711082832781925e+00   3.725700600000000e+00 -2.46997560e-01   5.21285460e-01  -2.05138000e-03
C     5.989845582599999e+00   4.041647039527698e+00   3.601363200000000e+00 -2.28979070e-01  -1.05409721e+00   2.26577210e-01
C     7.241969151799999e+00   4.712374187336816e+00   3.536426100000000e+00 -3.04946060e-01   1.63670338e+00   2.73287130e-01
C     8.479619572099999e+00   4.006655626212440e+00   3.597612300000000e+00 -4.77897740e-01   7.35867000e-03   2.41568210e-01
C     9.698744531399999e+00   4.772830210755006e+00   3.749355900000000e+00 -1.36559212e+00  -1.97531222e+00  -1.09773917e+00
C     1.216243142590000e+01   6.081482495345057e+00   3.751227900000000e+00 -1.41859721e+00   2.57380501e+00   1.17643830e-01
C     1.334201477790000e+01   6.859239308312591e+00   3.824716800000000e+00  1.31246505e+00  -2.21696730e+00  -5.59905700e-01
C     4.771320801500000e+00   6.133082540214230e+00   3.754361700000000e+00 -2.58164134e+00   2.15695630e-01   5.52886320e-01
C     5.965058183500000e+00   6.840978975961530e+00   3.788334900000000e+00  1.66293030e+00  -9.76256800e-02  -7.93051380e-01
C     7.220119687599999e+00   6.185494559589945e+00   3.580435800000000e+00 -3.02032150e-01  -2.13773774e+00   4.56903170e-01
C     8.444576688400000e+00   6.883663183818221e+00   3.562380900000000e+00  2.28451040e-01  -4.85443560e-01   5.80271130e-01
C     9.676700233599998e+00   6.172406135106411e+00   3.639375900000000e+00  5.07932820e-01  -8.67656000e-02  -2.58496210e-01
C     1.092993729260000e+01   6.838286369786871e+00   3.642091200000000e+00 -4.18115900e-01   4.96403900e-02   7.34607220e-01
C     1.330015552830000e+01   8.251821270740248e+00   3.788089500000000e+00  2.29745200e+00   6.43395650e-01   1.09220450e-01
C     9.650773265000000e+00   3.796215213927136e-01   3.832112400000000e+00 -1.82023670e-01   1.62697670e+00   1.11728370e-01
C     5.978189731500000e+00   8.247941144378135e+00   3.898647900000000e+00 -1.29681262e+00  -2.70546350e-01  -2.10755800e-01
C     2.269932422200000e+00   3.883106476769520e-01   3.935337300000000e+00  4.92997590e-01   2.60212517e+00  -4.78452000e-01
C     8.436097187000000e+00   8.275935350945662e+00   3.704139600000000e+00  7.06638180e-01   1.33630526e+00   7.63028800e-01
C     4.758329413399999e+00   4.933705338978416e-01   3.748808400000000e+00 -1.24188231e+00  -1.55947081e+00  -6.18737490e-01
C     1.089325878280000e+01   8.260691338656557e+00   3.699735600000000e+00  3.56563830e-01   1.13618711e+00  -2.33422070e-01
C     7.183301116500000e+00   4.559137374767976e-01   3.722441700000000e+00 -3.84084060e-01  -4.32952130e-01  -1.50110020e-01
