32
Lattice="9.86 0 0 4.93 8.53901048131456 0 0 0 30 " PBC="1 1 1" Properties=species:S:1:pos:R:3:force:R:3 Energy="-257.63974958"
C     4.979703717700000e+00   6.888858403184357e+00   4.553760000000000e-02  6.88189780e-01  -4.67181710e-01  -1.72492280e-01
C     6.222599263599999e+00   7.601672198896776e+00   1.048692000000000e-01 -3.86555920e-01  -4.81717450e-01  -2.10858400e-02
C     7.447080470700000e+00   6.895191104136535e+00   1.476414000000000e-01  9.48460630e-01  -1.89519700e-02  -5.54438960e-01
C     8.691986076199999e+00   7.617436066143903e+00   4.019370000000000e-02 -1.81984460e-01  -1.29114764e+00   9.58096700e-01
C     9.944680145000000e+00   6.930767952010303e+00   4.281720000000000e-02 -9.27188950e-01  -1.67410197e+00  -4.53804830e-01
C     1.117332838530000e+01   7.613052565113996e+00  -3.853499999999954e-02 -3.13597580e-01   2.32312670e-01  -6.06170800e-02
C     1.238725145510000e+01   6.874094454064437e+00  -1.228683000000004e-01  7.90545600e-02   6.55509120e-01   5.19941570e-01
C     1.362352167260000e+01   7.573066855349195e+00  -7.134810000000158e-02 -2.12419020e-01   1.22722690e+00   2.13015800e-01
C     1.295783501300000e+00   4.674957097314504e-01   8.369220000000001e-02  2.03158030e-01   8.06661080e-01  -5.29646800e-02
C     2.534526754700000e+00   1.183086989382699e+00   1.416849000000000e-01 -7.32230810e-01   8.49915910e-01  -3.58051660e-01
C     3.746582882799999e+00   4.618568033807728e-01   1.053189000000000e-01  1.05062650e+00   1.84505593e+00   7.29569100e-02
C     5.001647985800000e+00   1.196004206706109e+00   1.299156000000000e-01 -7.46729800e-01  -1.24901300e-01  -3.30466850e-01
C     6.226359325300000e+00   5.017519996344856e-01   2.568840000000000e-02  6.55507430e-01  -5.47763660e-01   2.19006900e-01
C     7.476622213900000e+00   1.193486479466081e+00   4.635840000000000e-02 -4.48338900e-01  -5.22526640e-01  -2.28963380e-01
C     8.711998770299999e+00   4.805084785821320e-01  -2.348309999999998e-02 -1.09061528e+00  -8.91610840e-01   1.54802300e-02
C     9.919552033599999e+00   1.178207201063693e+00   1.612770000000000e-02  9.14582930e-01   5.66392580e-01   5.98014190e-01
C     2.529103458900000e+00   2.637104228950391e+00   1.019526000000000e-01 -2.10912120e-01  -9.93546770e-01  -2.18826990e-01
C     3.754861683900000e+00   3.340417777773076e+00   9.565800000000001e-02  3.52776640e-01  -3.04972900e-02   1.04820180e-01
C     4.989533348899999e+00   2.619168891338199e+00   1.508886000000000e-01  9.62432500e-02   3.23029630e-01  -5.66426800e-02
C     6.224387078800000e+00   3.338878962694475e+00   1.546989000000000e-01  3.13632560e-01  -5.80569760e-01  -2.62620320e-01
C     7.460565105300001e+00   2.589286624163439e+00   1.188834000000000e-01 -1.22195920e-01   1.50133027e+00   2.37691800e-02
C     8.696890292299999e+00   3.302391343962912e+00   1.024395000000000e-01 -1.61994740e-01   7.15359410e-01   5.77079300e-02
C     9.923438845600000e+00   2.608303598233133e+00   9.423180000000000e-02  4.05151840e-01  -8.45947700e-02  -7.10989560e-01
C     1.115334596140000e+01   3.343904511922374e+00   2.184060000000000e-02 -6.35877500e-02  -6.33029090e-01   3.49686880e-01
C     3.765533063299999e+00   4.766603478922885e+00   3.010740000000000e-02 -9.15758620e-01  -6.19208150e-01  -1.41528780e-01
C     4.978803056000000e+00   5.462794382933888e+00   7.536150000000000e-02  1.02260601e+00   4.71466320e-01  -9.01608500e-02
C     6.231577040100000e+00   4.765934362061673e+00   1.183281000000000e-01 -2.64419080e-01  -3.22222780e-01   4.52395550e-01
C     7.463510731000000e+00   5.480226089707969e+00   1.565943000000000e-01  3.36362860e-01  -8.94301090e-01  -3.32746950e-01
C     8.712113442100000e+00   4.735094188691266e+00   1.011894000000000e-01 -1.05557087e+00   8.06664840e-01   2.40869740e-01
C     9.920897726400000e+00   5.473365848688338e+00   4.458630000000000e-02  4.64817070e-01   4.94446470e-01  -4.02583400e-01
C     1.115312179430000e+01   4.760862360616763e+00  -6.163139999999956e-02 -4.01091040e-01  -8.57191500e-02   6.81368520e-01
C     1.237637774850000e+01   5.466509450223421e+00  -7.174380000000014e-02  7.04020760e-01  -2.31779110e-01  -5.81451800e-02
