32
Lattice="9.86 0 0 4.93 8.53901048131456 0 0 0 30 " PBC="1 1 1" Properties=species:S:1:pos:R:3:force:R:3 Energy="-257.42599861"
C     4.982809962799999e+00   7.932579519402138e+00  -5.988420000000261e-02 -1.67692997e+00  -1.60194498e+00   1.81757500e-01
C     1.256738295700000e+00   7.726617561943280e-02  -5.400480000000130e-02  1.45148902e+00  -5.73362460e-01  -8.08648900e-02
C     7.421006538799999e+00   7.871922316897038e+00   4.989300000000000e-03  8.46553300e-01   1.11728578e+00  -4.66021500e-02
C     3.752620801700000e+00   5.365564086202320e-02  -3.710999999988474e-04 -6.94327240e-01  -5.93603500e-02  -5.68984440e-01
C     9.915784281100001e+00   7.894987635835300e+00  -2.958209999999895e-02 -4.24985810e-01   2.53328900e-01   4.63581290e-01
C     6.208850381000000e+00   7.501264536365600e-02  -1.945650000000043e-02  1.62120000e-03   9.45170200e-02   2.02948700e-02
C     1.236072652680000e+01   7.886474669337264e+00  -1.248989999999850e-02  4.44370610e-01   2.80178960e-01  -7.81349130e-01
C     8.646359074099999e+00   6.890545967825520e-02  -1.253886000000008e-01  7.29622580e-01  -4.59939500e-02   5.43528120e-01
C     1.270200400200000e+00   1.484298278531869e+00  -1.098914999999998e-01  2.98385030e-01  -1.61923700e-02   3.72491090e-01
C     2.501970119300000e+00   2.170858886523527e+00  -6.185070000000081e-02  7.16131130e-01   1.35147006e+00  -4.41583390e-01
C     3.768324232100000e+00   1.479480995769577e+00  -8.340480000000028e-02 -1.92433558e+00  -1.35145760e-01   7.33669520e-01
C     4.947788820400000e+00   2.226261608929758e+00  -3.484560000000059e-02  1.74678254e+00  -1.16688639e+00   2.67855530e-01
C     6.216762390100000e+00   1.510541304830158e+00   8.100000000000000e-05 -1.87731033e+00  -1.11305155e+00  -2.52507880e-01
C     7.425379498099999e+00   2.174693926910305e+00  -1.113900000000001e-03  7.90773000e-01   1.46271853e+00  -3.25856830e-01
C     8.641476697900000e+00   1.480248140471100e+00  -1.442243999999988e-01  1.10528151e+00  -3.84374000e-03   9.00646350e-01
C     9.906808821699999e+00   2.183754329370214e+00  -9.127140000000011e-02 -1.01473203e+00  -1.35846640e-01  -7.87241270e-01
C     2.495170614000000e+00   3.627422544406461e+00  -6.134640000000147e-02  3.88394390e-01  -7.81801040e-01  -5.45247800e-02
C     3.734084396100000e+00   4.341975224213027e+00   1.601670000000000e-02  4.34279500e-02  -1.14921930e-01  -4.23180220e-01
C     4.954671100400000e+00   3.623278733400726e+00   2.264970000000000e-02  6.98171540e-01   6.61763180e-01  -3.89875460e-01
C     6.223087136399999e+00   4.316588148325253e+00  -1.111739999999983e-02 -1.28093689e+00   7.05148250e-01   9.75406040e-01
C     7.442560646699999e+00   3.608699483077489e+00   4.999559999999999e-02 -7.50800670e-01  -7.40000560e-01  -6.18104890e-01
C     8.657997078599999e+00   4.279875526667541e+00  -2.113800000000055e-03  1.13399680e+00   2.13738205e+00  -3.31706840e-01
C     9.888638961599998e+00   3.589980520473548e+00  -1.209063000000015e-01  8.66042610e-01   8.19747410e-01   5.77789560e-01
C     1.113119487980000e+01   4.335884774988166e+00  -1.273197000000010e-01 -4.76229940e-01   1.93650390e-01   5.26114370e-01
C     3.766237067300000e+00   5.764234517563922e+00  -1.837049999999962e-02 -6.13720050e-01  -1.10298070e-01   3.16654120e-01
C     4.965366340999999e+00   6.494586586901213e+00   5.125140000000000e-02  1.34898031e+00  -2.31789700e-01  -7.89526990e-01
C     6.202372755400000e+00   5.751212270411608e+00   3.353790000000000e-02  1.90855400e-02   2.83709100e-02  -1.12298900e-02
C     7.440594562699999e+00   6.457247628824793e+00   2.446470000000000e-02  3.59745640e-01  -4.42440050e-01   4.98193000e-03
C     8.694128062599999e+00   5.734757426436438e+00  -1.555499999998489e-03 -7.23503950e-01   1.11862920e-01   1.89052390e-01
C     9.918588711600000e+00   6.485772107943128e+00  -4.189799999998911e-03 -9.06650100e-02  -1.13978410e+00  -3.95848780e-01
C     1.115546344570000e+01   5.780463248541581e+00  -5.522459999999896e-02 -1.08430140e-01  -1.15348489e+00  -2.10787700e-01
C     1.240487295130000e+01   6.464953915002783e+00  -5.796149999999756e-02 -1.33194711e+00   3.48724170e-01   4.35952880e-01
