32
Lattice="9.86 0 0 4.93 8.53901048131456 0 0 0 30 " PBC="1 1 1" Properties=species:S:1:pos:R:3:force:R:3 Energy="-254.02168226"
C     4.959042284900001e+00   8.252801207582932e+00   2.049573000000000e-01  2.38253092e+00   2.87096870e-01  -1.09259700e-01
C     1.333964921600000e+00   4.392840999571024e-01   1.091679000000000e-01 -2.51839244e+00  -1.02831083e+00   6.68752760e-01
C     7.480129021500000e+00   8.294307800504326e+00   1.766859000000000e-01 -1.64835481e+00  -3.02659762e+00   5.40808520e-01
C     3.748027323500000e+00   4.414045924296008e-01   2.108322000000000e-01  1.03720925e+00  -1.84735550e-01  -2.38271714e+00
C     9.885289421000000e+00   8.273152828990650e+00  -3.345750000000081e-02  1.74902547e+00   7.25913140e-01   1.33060851e+00
C     6.209784221599999e+00   4.459324027366208e-01   5.952060000000000e-02  2.63593200e-01  -2.21722700e-01   2.10628110e-01
C     1.243128601790000e+01   8.236021539649103e+00   5.358450000000000e-02 -3.12327960e+00   4.27995610e-01  -8.94487300e-01
C     8.676858568400000e+00   4.002500629102976e-01   2.810979000000000e-01  9.63174250e-01   1.45261614e+00  -1.21324567e+00
C     1.279233885700000e+00   1.809711343524084e+00  -1.071171000000000e-01 -2.89180600e-01   1.07104730e+00   4.81973630e-01
C     2.522830231100000e+00   2.451006742351367e+00  -3.957239999999977e-01 -1.61210769e+00   2.38512858e+00   1.08411202e+00
C     3.744288165000000e+00   1.809665830598226e+00  -1.310502000000007e-01  3.42936930e-01   2.20668292e+00  -9.12959300e-02
C     4.929759909000000e+00   2.642399696299563e+00  -1.213140000000017e-01  2.17616813e+00  -2.96846299e+00   1.40418370e+00
C     6.161572174000000e+00   1.889581746559707e+00   1.811427000000000e-01  1.04489881e+00  -2.76515180e-01  -1.47237081e+00
C     7.451069333700000e+00   2.567733307810871e+00   1.645392000000000e-01 -5.71745400e-02  -5.88896070e-01   8.14807990e-01
C     8.735484649400000e+00   1.849491775476946e+00   2.072373000000000e-01 -4.16087145e+00  -6.13237930e-01   7.07858850e-01
C     9.881123077999998e+00   2.565686933949339e+00   8.492640000000000e-02  4.04602360e+00   7.72916000e-02  -2.69258534e+00
C     2.493134573299999e+00   3.905141649483474e+00  -5.155077000000006e-01  1.19896470e+00   2.03813506e+00   4.86615540e-01
C     3.765072453400000e+00   4.633287921633571e+00  -4.617155999999980e-01 -1.12816216e+00   3.00231740e+00   4.30316810e-01
C     5.027781077700000e+00   4.053384336382981e+00  -1.752317999999988e-01 -2.65399015e+00  -2.60136845e+00  -7.44464940e-01
C     6.233059244600000e+00   4.685683973059690e+00   5.922930000000000e-02  1.24471762e+00   6.90489200e-01   5.82967180e-01
C     7.475251871099999e+00   3.978495506671286e+00   1.839195000000000e-01  8.25237030e-01  -1.50442910e-01  -1.25693957e+00
C     8.766498884999999e+00   4.667725750899411e+00  -6.903299999997614e-03 -4.07921755e+00   1.62411196e+00   4.70075690e-01
C     9.934198324099999e+00   3.968516477463938e+00  -2.744598000000025e-01 -2.17017860e-01   2.21477130e-01   2.19216718e+00
C     1.112223780930000e+01   4.757638713380353e+00  -3.728924999999990e-01  1.19888609e+00  -3.24056233e+00  -5.21033540e-01
C     3.717215070000000e+00   6.142076594562709e+00  -3.946052999999985e-01  2.97823744e+00  -1.78986645e+00   1.61025043e+00
C     4.966677080100000e+00   6.873035104424289e+00   5.607690000000000e-02 -3.77844070e-01  -3.48831764e+00  -1.08879190e+00
C     6.223705506300000e+00   6.075690313756263e+00   1.923855000000000e-01 -2.54498945e+00   2.07305628e+00  -9.25232380e-01
C     7.406231525999999e+00   6.785790070377718e+00   2.259807000000000e-01  1.83981957e+00   2.53999112e+00  -1.76943340e-01
C     8.619067333600000e+00   6.115196643472717e+00   5.005110000000000e-02  3.61785752e+00  -3.37352890e-01  -6.01368240e-01
C     9.904486298699998e+00   6.885050687631116e+00  -1.324173000000002e-01 -2.73107264e+00  -1.56773415e+00   1.00822382e+00
C     1.109066623720000e+01   6.163262391904218e+00  -2.275493999999973e-01  2.47574571e+00  -3.97384510e-01  -1.95858543e+00
C     1.239757684710000e+01   6.835535015220111e+00  -3.605069999999984e-01 -2.24337122e+00   1.65815789e+00   2.10497048e+00
