32
Lattice="9.86 0 0 4.93 8.53901048131456 0 0 0 30 " PBC="1 1 1" Properties=species:S:1:pos:R:3:force:R:3 Energy="-254.9160245"
C     1.051108045000000e+00   7.130625370877008e-01   3.553083000000000e+00 -7.04058500e-02   2.79046067e+00  -2.35350460e-01
C     2.256395332400000e+00   1.452383897643079e+00   3.559112700000000e+00  2.07481913e+00  -2.70508155e+00   7.67124940e-01
C     3.487681960799999e+00   6.906952822561792e-01   3.749290800000000e+00  1.59769365e+00   2.25606305e+00  -1.04673456e+00
C     4.782937015400000e+00   1.469151952522654e+00   3.673531800000000e+00 -6.64047020e-01  -2.49213478e+00   1.08490763e+00
C     6.068563434900000e+00   7.304968909550311e-01   3.726878100000000e+00 -2.20751576e+00   2.58472250e+00  -4.50336380e-01
C     7.278660676800000e+00   1.523439565550302e+00   3.672465300000000e+00 -4.56406730e-01  -2.39367244e+00  -1.86494800e-02
C     8.460742257000000e+00   7.053309754386896e-01   3.569959500000000e+00  2.03879512e+00   1.92728657e+00   1.17020036e+00
C     9.723341583199998e+00   1.485741029742570e+00   3.609164400000000e+00 -1.36235186e+00  -1.15030011e+00  -1.49358559e+00
C     2.311250949400000e+00   2.829885455222426e+00   3.526546200000000e+00 -7.02791040e-01   2.31857775e+00   2.04148310e-01
C     3.500823418100000e+00   3.541615308944513e+00   3.706587300000000e+00  2.49730359e+00   1.78935327e+00  -8.23306640e-01
C     4.741407977200000e+00   2.871815412283418e+00   3.706512300000000e+00  2.15613217e+00  -7.45007300e-02  -1.01205751e+00
C     6.055903392099999e+00   3.610008001043444e+00   3.553189800000000e+00 -2.97571565e+00  -9.52577570e-01   2.58689284e+00
C     7.274688279999999e+00   2.977682918115506e+00   3.716490000000000e+00  1.08628654e+00  -3.77709718e+00  -1.80652350e+00
C     8.533279565499999e+00   3.604007296818728e+00   3.578581500000000e+00 -6.67899040e-01   1.92021902e+00   1.57486907e+00
C     9.764790459599999e+00   2.946096947569776e+00   3.491693700000000e+00 -5.26151760e-01  -2.43679751e+00   3.47468930e-01
C     1.099357121830000e+01   3.624271905709656e+00   3.429133200000000e+00 -7.15584570e-01   1.52294641e+00   1.50260207e+00
C     3.639183029999999e+00   5.009936842697987e+00   3.654794400000000e+00 -5.28339460e+00  -2.24340769e+00   4.70605410e-01
C     4.801353030400000e+00   5.657050040145505e+00   3.783037500000000e+00  2.74069101e+00   2.99996596e+00  -1.15508271e+00
C     6.024324622200000e+00   4.976633677144730e+00   3.751409700000000e+00  7.52865270e-01   2.00370080e-01  -7.06308550e-01
C     7.264992892700000e+00   5.661825823316864e+00   3.765021900000000e+00 -1.28292850e+00   1.71438002e+00   4.47929400e-01
C     8.503524451899999e+00   5.021320795299609e+00   3.802943700000000e+00  5.57450460e-01  -9.99289080e-01  -1.92891975e+00
C     9.696472294399999e+00   5.758166440546520e+00   3.677076600000000e+00  2.11546791e+00  -3.14739100e-01   8.19099060e-01
C     1.098368277220000e+01   5.110244598806547e+00   3.646425600000000e+00  3.65999440e-01  -3.34602333e+00  -1.61258506e+00
C     1.225539288630000e+01   5.754732819042407e+00   3.618756300000000e+00 -1.67384136e+00   5.05733160e-01   5.00356680e-01
C     4.820739368000000e+00   7.104404289835653e+00   3.612538800000000e+00 -1.59769513e+00  -4.89117670e-01   5.85038650e-01
C     5.986976766300000e+00   7.885512749806692e+00   3.524810100000000e+00  1.45203639e+00  -4.26064099e+00   1.44589750e+00
C     7.211241398499999e+00   7.072791079846493e+00   3.726121800000000e+00  1.06708627e+00   2.46715148e+00  -4.18019920e-01
C     8.467199571000000e+00   7.815359911477518e+00   3.791448300000000e+00 -1.14263166e+00   2.40874120e-01  -4.15875200e-01
C     9.725997768599999e+00   7.154943960383419e+00   3.738351900000000e+00 -1.24323450e+00   2.19520990e-01   3.23407900e-01
C     1.094140570510000e+01   7.856454667923462e+00   3.726534900000000e+00  7.71028590e-01   1.28417919e+00  -1.46374960e-01
C     1.217275238090000e+01   7.201512905667880e+00   3.672253200000000e+00  8.60790240e-01  -3.96916276e+00   2.00731100e-02
C     1.342663048780000e+01   7.758608793926390e+00   3.642082800000000e+00  4.38149230e-01   4.86273825e+00  -5.80911580e-01
