32
Lattice="9.86 0 0 4.93 8.53901048131456 0 0 0 30 " PBC="1 1 1" Properties=species:S:1:pos:R:3:force:R:3 Energy="-251.65545585"
C     1.165650679000000e+00   8.576527476444928e-01   3.430161900000000e+00  2.72760824e+00  -2.87647133e+00   1.80794215e+00
C     2.464461791900000e+00   1.528829132794964e+00   3.482504700000000e+00 -5.78061520e-01  -5.81922932e+00   8.48888930e-01
C     3.715296116800000e+00   7.845357626073968e-01   3.780329400000000e+00 -1.87837106e+00   1.02726772e+00  -5.45878670e-01
C     4.892606245800000e+00   1.543692561386976e+00   3.719442000000000e+00  1.58341017e+00  -2.13955842e+00   6.62557400e-02
C     6.112169679300000e+00   8.096017717011224e-01   3.678495900000000e+00  1.46342191e+00   1.50844594e+00   1.55752361e+00
C     7.397689019200000e+00   1.582148336644075e+00   3.793564800000000e+00 -2.03879301e+00  -2.09245336e+00  -8.70831380e-01
C     8.635003805100000e+00   7.769139272430536e-01   3.817473300000000e+00 -4.24680569e+00  -1.51837138e+00  -4.80903400e-02
C     9.757044838000001e+00   1.465425869909601e+00   3.518819700000000e+00  3.58108915e+00   1.56470280e-01   7.87367670e-01
C     2.444762251400000e+00   2.831857112742258e+00   3.509661900000000e+00  1.95368986e+00   6.65805473e+00  -1.48846310e-01
C     3.719380966899999e+00   3.616938091168802e+00   3.561131700000000e+00 -3.79677190e+00   2.41652391e+00   3.27194240e-01
C     4.895372813900000e+00   2.913747674877239e+00   3.686985000000000e+00  1.46783458e+00   5.16583595e+00  -6.29900930e-01
C     6.115031840099999e+00   3.850236153657494e+00   3.683802900000000e+00  9.94530600e-01  -1.02993961e+01   3.10153430e-01
C     7.346789579299999e+00   3.050070927827924e+00   3.697412100000000e+00 -1.03479521e+00  -3.72459007e+00  -3.97841300e-02
C     8.601144762299999e+00   3.574738130596433e+00   3.649345500000000e+00  1.15023112e+00   2.40693556e+00   1.55027702e+00
C     9.868865125999999e+00   2.832758149128107e+00   3.669207600000000e+00 -2.37004136e+00   3.45781915e+00  -1.45148511e+00
C     1.108164473160000e+01   3.548771085116857e+00   3.563547900000000e+00  4.80418440e-01   1.71848186e+00  -3.46581040e-01
C     3.622747494600000e+00   5.204375576294295e+00   3.584546700000000e+00  1.38825723e+00  -4.78359718e+00   2.05714290e-01
C     4.928182851300000e+00   5.763489232729229e+00   3.667244100000000e+00 -1.58589259e+00   3.24353110e+00   9.32403080e-01
C     6.194058310400000e+00   5.137273811799730e+00   3.788074500000000e+00 -3.20206911e+00   2.52897431e+00  -1.55057579e+00
C     7.404343878300001e+00   5.792075961233963e+00   3.730199100000000e+00 -2.26988800e-01   1.47194492e+00   2.12281076e+00
C     8.519990306800000e+00   4.983899862722581e+00   3.843214800000000e+00  5.72717590e+00   1.66757224e+00  -2.06523790e+00
C     9.852836118399999e+00   5.691677264663790e+00   3.706077900000000e+00 -1.47916938e+00   1.08597563e+00   1.63271280e+00
C     1.110909876770000e+01   5.039852155843304e+00   3.544425600000000e+00 -3.86689775e+00  -2.00340144e+00   7.17656160e-01
C     1.218121378920000e+01   5.885239212664011e+00   3.608048100000000e+00  4.95267090e+00  -3.05554455e+00  -7.08204780e-01
C     4.906722758500000e+00   7.192935469640721e+00   3.788409900000000e+00  1.96302212e+00  -1.62924450e-01  -8.24821200e-02
C     6.196014830199999e+00   8.007390814898674e+00   3.751154100000000e+00 -2.35443659e+00  -2.41898397e+00  -5.84456390e-01
C     7.393138382700000e+00   7.213920771016159e+00   3.895137300000000e+00  1.36903017e+00   1.86887851e+00  -4.48574780e-01
C     8.667581245099999e+00   7.939726585783793e+00   4.029595200000000e+00 -1.21201046e+00  -2.28085364e+00  -1.63584403e+00
C     9.894433486400001e+00   7.144753505276587e+00   3.936522300000000e+00 -2.40981899e+00   1.34820710e-01  -1.15605689e+00
C     1.102461523110000e+01   7.930307203323305e+00   3.728775600000000e+00  1.45229384e+00   1.05240333e+00   2.19504500e-01
C     1.225663933820000e+01   7.256480821660471e+00   3.665571900000000e+00 -6.13711950e-01  -1.00465136e+00   1.02254061e+00
C     1.351739445000000e+01   7.765105785440203e+00   3.910212900000000e+00  6.39951120e-01   6.61009075e+00  -1.79611442e+00
