32
Lattice="9.86 0 0 4.93 8.53901048131456 0 0 0 30 " PBC="1 1 1" Properties=species:S:1:pos:R:3:force:R:3 Energy="-254.59076682"
C     5.133876058099999e+00   8.471403633035543e+00  -2.784984000000001e-01 -5.05108451e+00  -4.82078005e+00  -7.58479800e-02
C     1.353356287800000e+00   5.665317510092239e-01  -2.833478999999990e-01  3.41030955e+00   3.89289449e+00   6.01381740e-01
C     7.547546771500000e+00   8.411007382690713e+00  -2.812790999999990e-01 -3.10024956e+00  -1.00441335e+00  -2.42897900e-02
C     3.789371881100000e+00   5.517198980405112e-01  -3.351812999999986e-01  2.14294897e+00   1.44506436e+00   1.34509553e+00
C     9.918661182599999e+00   8.387829007253696e+00  -2.084372999999999e-01  2.69318116e+00  -2.49217373e+00  -7.81166280e-01
C     6.274859087700000e+00   5.098293912079368e-01  -3.016758000000017e-01 -1.42100796e+00   3.16862030e-01   1.03901149e+00
C     1.242847187530000e+01   8.383254061608826e+00  -3.011231999999993e-01  1.53538890e+00  -5.68797570e-01   3.49874670e-01
C     8.747113829200000e+00   5.990464243347583e-01  -3.196148999999977e-01  7.07581260e-01  -3.15120125e+00   1.96930590e-01
C     1.330745138600000e+00   2.058526581247136e+00  -1.998785999999981e-01  2.24279653e+00  -2.69241983e+00  -2.34307819e+00
C     2.599555278800000e+00   2.741039100540541e+00  -3.121986000000021e-01 -1.43958237e+00  -2.17758202e+00   1.64849011e+00
C     3.819321976199999e+00   1.977732171887472e+00  -2.139777000000009e-01 -2.43249297e+00   3.26137340e-01  -1.12939931e+00
C     4.968123591399999e+00   2.700433373224787e+00  -1.739157000000020e-01  5.35451209e+00  -2.52377379e+00  -2.85123900e-02
C     6.301567214799999e+00   1.893518571951406e+00  -1.825919999999996e-01 -1.86068274e+00   3.77336246e+00  -7.69364940e-01
C     7.491083037799999e+00   2.668283144866539e+00  -2.589033000000001e-01  4.60835200e-02   1.72389393e+00  -3.88972960e-01
C     8.760783930399999e+00   1.954300102449094e+00  -3.341984999999994e-01 -1.80752179e+00   2.63918164e+00  -3.91925590e-01
C     9.978805013400001e+00   2.681448591224603e+00  -4.181451000000003e-01 -1.05257375e+00   1.13208702e+00   2.03435191e+00
C     2.574353316000000e+00   4.119923465477020e+00  -2.018741999999989e-01  7.95792460e-01   5.37915020e-01  -6.22392130e-01
C     3.823189659800000e+00   4.789900717385784e+00  -1.882554000000027e-01 -3.04782330e-01   1.11519993e+00  -1.23635460e-01
C     5.058451445799999e+00   4.075591143207584e+00  -2.051285999999983e-01 -2.10676594e+00   1.98795233e+00   4.07768660e-01
C     6.208100232200000e+00   4.875167860434872e+00  -2.094792000000005e-01  1.53303183e+00  -1.15457283e+00  -4.21693460e-01
C     7.419157345099999e+00   4.222652799567602e+00  -3.128270999999998e-01  2.74173869e+00  -3.84018061e+00   8.97703330e-01
C     8.697785876099999e+00   4.905624888405041e+00  -2.612757000000023e-01 -9.01454000e-02  -3.63405647e+00  -1.83143630e-01
C     9.921561649499999e+00   4.078099135975665e+00  -2.425158000000032e-01  1.14761293e+00   3.32768304e+00  -1.03521967e+00
C     1.122681592730000e+01   4.831291435934964e+00  -2.268986999999996e-01 -2.64596876e+00  -1.47400703e+00   6.45679550e-01
C     3.810166128100000e+00   6.198746676904381e+00  -2.173751999999993e-01  1.22417161e+00   2.61829594e+00   1.96221740e-01
C     5.154801295200000e+00   6.946554703805517e+00  -2.392022999999988e-01 -7.69309973e+00   4.10270590e+00  -1.50262980e-01
C     6.267281529800000e+00   6.286529327050773e+00  -2.182907999999983e-01  4.08914624e+00  -1.44909833e+00   8.03152400e-02
C     7.529031712799999e+00   7.008591468843765e+00  -2.267766000000009e-01 -5.18070300e-01  -5.31977980e-01  -2.55607900e-01
C     8.737598238999999e+00   6.288640512001847e+00  -2.209340999999974e-01 -1.37576710e-01  -6.63106190e-01   2.22068830e-01
C     9.987074102399999e+00   6.885008077968821e+00  -1.640763000000014e-01 -1.71873999e+00   4.98968642e+00  -2.79804390e-01
C     1.118949750350000e+01   6.234985383480454e+00  -1.532787000000013e-01  1.78274811e+00  -2.69918610e-01  -2.36746550e-01
C     1.241415426790000e+01   6.972918130151574e+00  -1.907981999999997e-01  1.93330097e+00  -1.48086222e+00  -4.23829790e-01
