32
Lattice="9.86 0 0 4.93 8.53901048131456 0 0 0 30 " PBC="1 1 1" Properties=species:S:1:pos:R:3:force:R:3 Energy="-251.70717567"
C     1.152569959300000e+00   9.562674741451832e-01   3.778035000000000e+00  4.68449734e+00  -2.18528745e+00   5.41735940e-01
C     2.455597257500000e+00   1.644388073961433e+00   3.976828199999999e+00 -3.43179322e+00   4.36227000e-02  -5.14672560e-01
C     3.641030843300000e+00   1.004953325517742e+00   3.650572800000000e+00 -2.89138890e-01  -3.90052980e+00  -6.31469710e-01
C     4.913191707299999e+00   1.549546309241330e+00   3.718995900000000e+00  1.44335986e+00   1.12248767e+00  -6.95669350e-01
C     6.127066610999999e+00   8.427535405985696e-01   3.459857700000000e+00  1.43206710e+00   1.34604696e+00   1.25742192e+00
C     7.349775138000000e+00   1.667744231596643e+00   3.562249500000000e+00  9.62381240e-01  -2.13329527e+00  -7.52582200e-02
C     8.649173463200000e+00   8.884302446779760e-01   3.603978900000000e+00 -2.95188976e+00   4.02732508e+00   2.14647195e+00
C     9.880671785800001e+00   1.698036029714024e+00   4.037701500000000e+00 -3.02857364e+00  -8.33136717e+00  -3.11815886e+00
C     2.404657293000000e+00   3.048294728257980e+00   4.288968300000000e+00  2.82935750e-01   5.20494940e-01  -6.67622320e-01
C     3.690559595300000e+00   3.653885535614715e+00   4.230420000000000e+00  1.12385572e+00   3.13193108e+00  -1.77056904e+00
C     4.986460134800000e+00   2.957161797349760e+00   3.869852100000000e+00 -4.07481411e+00   1.89135826e+00   4.31649900e-01
C     6.048583771799999e+00   3.775427163693785e+00   3.494818200000000e+00  3.51012492e+00  -9.46184400e-02   1.65097379e+00
C     7.338252791300000e+00   3.120101914477548e+00   3.625737300000000e+00 -4.38171070e-01  -2.62026097e+00  -1.85431310e+00
C     8.610355925000000e+00   3.737886258019514e+00   3.625990200000000e+00 -7.00184470e-01   8.86591890e-01   1.68595890e+00
C     9.794691846299999e+00   2.982103990791525e+00   4.019376600000000e+00  7.76456080e-01   9.62041353e+00  -1.75377270e-01
C     1.101533519630000e+01   3.851537328074436e+00   4.209362100000000e+00  4.05603650e-01  -3.53886548e+00   6.31597050e-01
C     3.694951387200000e+00   5.163072553382745e+00   4.020879000000000e+00  1.06526566e+00  -1.18482620e+00   5.58798990e-01
C     4.990499727500000e+00   5.877288454615979e+00   3.783760200000000e+00 -4.61131449e+00   2.38518717e+00  -9.35285990e-01
C     6.159837356300000e+00   5.223773731791815e+00   3.464050800000000e+00 -4.48764554e+00  -4.53498575e+00   8.47116930e-01
C     7.334820081599999e+00   5.791574977489101e+00   3.287314200000000e+00  4.02463560e+00   4.99088218e+00   3.28202850e-01
C     8.559689476899999e+00   5.186319240903601e+00   3.544670700000000e+00  3.73786489e+00  -2.18618489e+00   6.98317000e-03
C     9.850994812700000e+00   5.899591154528271e+00   3.713696400000000e+00 -3.25984148e+00   1.76615764e+00  -1.22076476e+00
C     1.103447202660000e+01   5.264986497362592e+00   4.172251800000000e+00  2.48259920e-01  -8.94174630e-01  -2.06533705e+00
C     1.230601491510000e+01   5.910498032614375e+00   3.970394700000000e+00  1.11337494e+00  -1.33176251e+00   1.77596120e-01
C     4.869157884000000e+00   7.357269836399683e+00   3.626461800000000e+00  2.79462500e-02  -2.87665451e+00   7.84160300e-01
C     6.103179676400000e+00   7.983971895536436e+00   3.463075500000000e+00  3.62662930e-01   2.89912637e+00   1.20429707e+00
C     7.359879961800000e+00   7.245739771157888e+00   3.328350900000000e+00 -1.09664200e+00   2.70266113e+00  -4.84730270e-01
C     8.521489470500001e+00   8.107180167680994e+00   3.267502200000000e+00  1.77916223e+00  -2.14435271e+00   1.51548320e+00
C     9.810868704600001e+00   7.330574840276689e+00   3.340617900000000e+00 -2.07142640e-01  -8.90637320e-01   1.92417851e+00
C     1.108497805250000e+01   7.947037003435931e+00   3.523148100000000e+00 -1.70887109e+00   2.09838848e+00  -1.67522668e+00
C     1.230263204770000e+01   7.268510323454380e+00   3.603270000000000e+00 -9.88581640e-01   2.24529500e-01   1.39650348e+00
C     1.344186699790000e+01   8.051481227001211e+00   3.702238500000000e+00  4.29414991e+00  -8.09401490e-01  -1.20467488e+00
