32
Lattice="9.86 0 0 4.93 8.53901048131456 0 0 0 30 " PBC="1 1 1" Properties=species:S:1:pos:R:3:force:R:3 Energy="-255.57819647"
C     5.031611096100000e+00   8.329533438877050e+00  -1.220505000000003e-01 -8.77777900e-02   1.64861341e+00  -2.67989480e-01
C     1.343076596900000e+00   5.380421110536472e-01  -1.120836000000018e-01 -3.21998190e-01  -1.23967112e+00  -2.79278360e-01
C     7.518734668299999e+00   8.320746797093131e+00   4.692000000000000e-02 -3.85963130e-01   3.84417388e+00  -8.42516580e-01
C     3.832994345199999e+00   5.598805449661424e-01  -7.045889999999844e-02 -1.99267595e+00  -7.13937240e-01   5.02136160e-01
C     9.939851160699998e+00   8.363739177838044e+00   2.817000000000000e-02  2.66503739e+00   5.31116630e-01  -1.25478271e+00
C     6.306392600200000e+00   5.502560554739248e-01  -2.396039999999999e-02 -4.00264777e+00   1.48730490e+00  -2.01503130e-01
C     1.240657212510000e+01   8.408418867053806e+00  -1.424007000000032e-01  1.04456693e+00  -9.04964300e-01  -1.91369400e-01
C     8.709031846999999e+00   5.892586689621632e-01  -1.409024999999993e-01  1.73445600e+00  -3.67984100e+00  -1.42146010e-01
C     1.292855968700000e+00   1.945359502306220e+00  -4.060844999999986e-01  2.14423471e+00  -6.63003400e-01   2.96849910e-01
C     2.547110875500000e+00   2.654838558255884e+00  -5.133198000000014e-01  3.37880000e-03   4.09939100e-01   1.38332370e-01
C     3.786928326600000e+00   1.987278614823903e+00  -2.961857999999999e-01 -6.51694130e-01  -1.10190585e+00   3.65234000e-02
C     4.975662892499999e+00   2.718506445076021e+00  -2.715566999999979e-01  3.44821221e+00  -1.64753405e+00   6.08286970e-01
C     6.268040503299999e+00   1.992914447130807e+00  -8.850659999999877e-02 -6.93177650e-01  -6.44663350e-01  -2.53333900e-02
C     7.530435579599999e+00   2.647154900455665e+00  -9.810329999999823e-02 -1.60340653e+00   2.84973751e+00  -7.17546300e-02
C     8.750834007200000e+00   1.964304407127462e+00  -1.735629000000003e-01 -3.32329830e-01   6.03355760e-01  -3.61199760e-01
C     9.956753567099998e+00   2.650817025880223e+00  -4.349004000000001e-01  4.17211300e-02   1.48376905e+00   8.96560950e-01
C     2.608657143400000e+00   4.087468565224845e+00  -6.633518999999986e-01 -1.60288787e+00  -8.14788070e-01   5.94242030e-01
C     3.841738784800000e+00   4.747724324482339e+00  -5.043545999999992e-01 -2.26807363e+00   4.44973470e+00   3.49243000e-02
C     5.045062699699999e+00   4.110955882061028e+00  -3.266157000000014e-01  1.08323276e+00   9.74997700e-02   6.04328510e-01
C     6.270963845399999e+00   4.826222423143721e+00  -4.671390000000031e-02  1.31784956e+00  -1.38477368e+00  -4.01673590e-01
C     7.527284471499999e+00   4.121466037720231e+00  -5.709810000000104e-02  7.83913100e-02  -1.86016790e+00  -1.63623290e-01
C     8.799082388900000e+00   4.792667100610990e+00  -1.312164000000031e-01 -1.71043340e+00   3.89270070e-01  -8.69587300e-02
C     1.000380124730000e+01   4.105808566543684e+00  -4.156760999999989e-01 -6.06566380e-01  -1.34962356e+00  -2.64578730e-01
C     1.120125836360000e+01   4.817993207963936e+00  -6.065883000000021e-01  1.04358818e+00  -2.28574100e-01   3.09053620e-01
C     3.748367838600000e+00   6.249719873014217e+00  -3.675438000000000e-01  1.26513645e+00  -9.29461020e-01  -2.43057310e-01
C     5.060455934499999e+00   6.903531326452561e+00  -1.842489000000000e-01 -1.82375075e+00   6.45214960e-01   9.46144730e-01
C     6.323987375800000e+00   6.217232012181590e+00   6.811290000000000e-02 -3.56275949e+00   2.62552470e-01  -1.15748937e+00
C     7.490952146300000e+00   6.947111874239337e+00   1.499964000000000e-01  2.74405720e+00  -1.74559400e+00  -4.19533080e-01
C     8.756493302100001e+00   6.198592974715742e+00  -1.844699999999833e-02 -5.15126220e-01   1.39212870e+00   6.82151600e-02
C     9.950951400799999e+00   6.944120061137459e+00  -1.724552999999993e-01 -4.55223400e-01  -3.72951340e-01   5.29634740e-01
C     1.116140508170000e+01   6.234474067532911e+00  -4.630581000000014e-01 -8.41070860e-01   6.77537110e-01   6.24400260e-01
C     1.231311485460000e+01   7.002125388547889e+00  -3.704985000000001e-01  4.84370033e+00  -1.49049405e+00   1.85154450e-01
