32
Lattice="9.86 0 0 4.93 8.53901048131456 0 0 0 30 " PBC="1 1 1" Properties=species:S:1:pos:R:3:force:R:3 Energy="-251.9983597"
C     1.147297718700000e+00   1.113302438575527e+00   3.326940300000000e+00  6.25143390e-01  -4.65332092e+00  -1.19786689e+00
C     2.424763903600000e+00   1.714981183670955e+00   3.623584800000000e+00 -2.22153091e+00   1.67883254e+00   4.06561600e-02
C     3.632569681500000e+00   1.026509886694292e+00   3.385461300000000e+00 -6.45357920e-01  -2.69094110e+00  -6.75199970e-01
C     4.854071393800000e+00   1.664788196948677e+00   3.282032700000000e+00  1.75412361e+00   2.44144160e-01   3.05505280e-01
C     6.142525020399999e+00   1.033546458280336e+00   3.064643700000000e+00 -2.65097964e+00  -4.13326862e+00   4.83599140e-01
C     7.351042986100000e+00   1.684721748403293e+00   3.144039000000000e+00 -1.32508804e+00   2.03045689e+00  -1.86458770e-01
C     8.533656217499999e+00   9.799137019663992e-01   3.342841500000000e+00  5.98347590e-01  -7.72257220e-01  -2.13781437e+00
C     9.723066784999999e+00   1.698470153006827e+00   3.272376300000000e+00  3.27482543e+00   1.92089699e+00   3.10156040e+00
C     2.379962824400000e+00   3.126101167070481e+00   4.018153200000000e+00  4.63823790e-01  -1.02085276e+00  -9.57016490e-01
C     3.672716249100000e+00   3.813674843265487e+00   3.921166500000000e+00 -2.01418114e+00  -2.44316670e-01  -1.61965700e-01
C     4.855568339000000e+00   3.023241783850288e+00   3.514408500000000e+00 -2.65262700e-02   4.18496781e+00   5.05338870e-01
C     6.052982317800000e+00   3.771106765951325e+00   3.304144500000000e+00  1.72737617e+00   2.88763705e+00  -1.81266437e+00
C     7.301010092299999e+00   3.127156674155914e+00   3.038696400000000e+00  1.37459436e+00  -4.53679830e-01   2.79374629e+00
C     8.578945563900000e+00   3.840391528475102e+00   3.371500800000000e+00 -2.14895083e+00  -6.85977000e-03  -1.84873694e+00
C     9.758794741499999e+00   3.094224101657489e+00   3.675377400000000e+00 -1.01419212e+00   5.28945840e-01  -1.08003163e+00
C     1.093261162040000e+01   3.803403523729409e+00   4.047726600000001e+00  2.60661624e+00   9.74582220e-01  -1.99866804e+00
C     3.565728593600000e+00   5.237060517488800e+00   3.923292900000000e+00  3.50554864e+00   2.17168038e+00  -3.31468458e+00
C     4.851825039300000e+00   5.996002389374598e+00   3.312846000000000e+00 -2.14329200e-02  -2.94207575e+00   1.85900810e+00
C     6.117706956699999e+00   5.340593201685341e+00   3.126098700000000e+00 -1.27119060e+00  -2.85411067e+00   6.50432220e-01
C     7.353262915800000e+00   6.073109227058474e+00   2.891404500000000e+00  2.78309850e-01  -4.62759858e+00   1.04176037e+00
C     8.603289361600000e+00   5.237117045738177e+00   3.126552600000000e+00 -1.31033940e+00   9.84729210e-01   1.44580477e+00
C     9.802929334000000e+00   5.932088664442740e+00   3.441292200000000e+00 -1.04876257e+00   3.25613070e-01  -1.11457870e+00
C     1.101368897070000e+01   5.263526582740827e+00   3.771622799999999e+00 -1.56728263e+00  -7.72268770e-01   8.16637120e-01
C     1.220296672400000e+01   6.029660009252879e+00   3.751617000000000e+00  1.46545357e+00  -4.10223954e+00   1.28785586e+00
C     4.948588663599999e+00   7.358368123927621e+00   3.190821900000000e+00 -3.76962387e+00   3.42979105e+00  -9.86248100e-02
C     6.121194438700000e+00   8.100636211609542e+00   2.992944000000000e+00 -5.73144510e-01   3.48410315e+00   1.15448457e+00
C     7.354797476900000e+00   7.462261837487257e+00   2.889232500000000e+00 -1.09087727e+00  -3.04613890e-01   7.37640340e-01
C     8.523393929499999e+00   8.138048178225565e+00   3.143591100000000e+00  2.37930512e+00   3.19877090e-01  -9.90698800e-02
C     9.728534549399999e+00   7.333523702155851e+00   3.238313400000000e+00  2.51074268e+00   2.70108038e+00  -5.44578300e-01
C     1.102371836550000e+01   8.047562333531522e+00   3.113744400000000e+00 -1.02486712e+00   1.67638097e+00   1.97693115e+00
C     1.222471142570000e+01   7.369354500201293e+00   3.470771400000000e+00  1.52625092e+00   3.03055818e+00  -2.05691951e+00
C     1.351238818290000e+01   8.135330723530410e+00   3.290842200000000e+00 -3.66133610e-01  -2.99587293e+00   1.08391831e+00
