32
Lattice="9.86 0 0 4.93 8.53901048131456 0 0 0 30 " PBC="1 1 1" Properties=species:S:1:pos:R:3:force:R:3 Energy="-254.98340564"
C     1.047171094900000e+00   6.932466531974985e-01   3.613036200000000e+00  8.97384430e-01   3.44864317e+00   2.42376670e-01
C     2.328256590000000e+00   1.430823750082126e+00   3.547890000000000e+00 -2.29983797e+00   4.73293130e-01  -8.32161970e-01
C     3.515871454300000e+00   6.972569140793256e-01   3.653840700000000e+00  1.89936390e-01   2.44264820e+00   3.29458300e-02
C     4.714869885800000e+00   1.432008281615912e+00   3.698051700000000e+00  1.59706067e+00  -7.62085300e-01  -1.03317176e+00
C     5.944419231500000e+00   7.105031394765304e-01   3.695603700000000e+00  2.81925476e+00   2.27052757e+00   8.93173540e-01
C     7.283271459300000e+00   1.376405575584239e+00   3.807737400000000e+00 -1.99721861e+00   6.54432210e-01  -1.87817400e-01
C     8.513638198999999e+00   7.291650614904657e-01   3.955482000000000e+00 -3.05936500e-01  -2.78834580e-01  -2.32646088e+00
C     9.680060669500000e+00   1.490007546328902e+00   3.634764300000000e+00  1.29435016e+00  -2.11279331e+00   1.39546121e+00
C     2.329431704800000e+00   2.900260222433975e+00   3.298134300000000e+00  8.06018730e-01  -2.99524285e+00   8.31334100e-01
C     3.589931491900000e+00   3.567521471279365e+00   3.268714500000000e+00 -7.11178310e-01   3.67878270e-01   1.13998988e+00
C     4.799288149200000e+00   2.816130987921451e+00   3.523235400000000e+00 -1.06984362e+00   1.01510920e+00   3.93047930e-01
C     6.051379229699999e+00   3.464218913415260e+00   3.739568100000000e+00 -4.14237930e-01   1.16063862e+00  -1.49197509e+00
C     7.304699260600000e+00   2.784746708803259e+00   3.705272100000000e+00 -1.00860688e+00   1.01561359e+00   1.51443762e+00
C     8.465089826800000e+00   3.594488264105939e+00   3.767677800000000e+00  1.49789862e+00   1.16548800e-02  -1.94744277e+00
C     9.707115375599999e+00   2.888330029331947e+00   3.578531100000000e+00 -1.06534300e-02   6.47397710e-01   2.19928760e-01
C     1.095971197830000e+01   3.576681267821262e+00   3.370839600000000e+00 -7.47622200e-01  -7.62917890e-01  -6.17441350e-01
C     3.534616891900000e+00   5.027077113044387e+00   3.382349100000000e+00 -5.14195140e-01  -3.20514724e+00  -8.44342170e-01
C     4.730632081800000e+00   5.591944867081373e+00   3.645750900000000e+00  4.14292536e+00   4.08104615e+00   9.51382920e-01
C     6.018204815999999e+00   4.876614710370603e+00   3.736941900000000e+00 -6.69290400e-02   2.09813411e+00   6.16369350e-01
C     7.273208294000000e+00   5.686900542201278e+00   3.869707800000000e+00 -2.97005017e+00   1.77615927e+00  -1.06170628e+00
C     8.464591748900000e+00   5.063080996832258e+00   3.641114400000000e+00  2.24780847e+00  -2.88704321e+00   1.60382187e+00
C     9.750785512799999e+00   5.717581036075709e+00   3.598942500000000e+00 -7.31542590e-01   7.36319910e-01  -1.07802336e+00
C     1.095741109800000e+01   4.955874147206383e+00   3.256782600000000e+00 -9.05480970e-01   3.33982618e+00   1.74521557e+00
C     1.217360857400000e+01   5.717823885533760e+00   3.297041700000000e+00  2.66377240e-01   1.76766875e+00   6.98853190e-01
C     4.781837526800000e+00   7.103965213916771e+00   3.812893800000000e+00  5.10556070e-01  -2.08001300e+00  -6.12642630e-01
C     5.979191951200000e+00   7.863321483981164e+00   3.812670900000000e+00  1.82161599e+00  -2.21533192e+00   1.13103400e-02
C     7.266283122999999e+00   7.157296286990450e+00   3.848239800000000e+00 -1.46510801e+00  -1.19969431e+00  -1.43060900e-01
C     8.487850157799999e+00   7.868612596434991e+00   3.752289300000000e+00 -3.66624280e-01  -2.30398750e+00   3.80936710e-01
C     9.736601952099999e+00   7.179585068315660e+00   3.706190700000000e+00  4.01644300e-02  -2.43815742e+00  -8.63635820e-01
C     1.094873725600000e+01   7.892750329699435e+00   3.610194300000000e+00  9.51092520e-01  -2.23679689e+00   2.96807400e-01
C     1.224156951140000e+01   7.183963275159071e+00   3.540752100000000e+00 -2.52945382e+00  -1.74477113e+00  -1.11171870e-01
C     1.346277956490000e+01   7.840221155099933e+00   3.785628900000000e+00 -9.67924360e-01  -8.41743900e-02   1.83661330e-01
