32
Lattice="9.86 0 0 4.93 8.53901048131456 0 0 0 30 " PBC="1 1 1" Properties=species:S:1:pos:R:3:force:R:3 Energy="-253.97439276"
C     1.187184721800000e+00   7.394409067020976e-01   3.504222600000000e+00 -1.08665140e-01   6.53437590e-01  -5.66464610e-01
C     2.430208398400000e+00   1.417690922744096e+00   3.496731300000000e+00  8.06004660e-01   1.21199202e+00  -8.87771900e-02
C     3.607149319700000e+00   6.395162959937751e-01   3.447794700000000e+00  3.86204515e+00   3.61731960e+00   1.00107370e-01
C     4.972847270900000e+00   1.402505061116359e+00   3.467780700000000e+00 -3.74288190e+00  -2.20582740e-01  -1.45849670e-01
C     6.215740006700000e+00   7.364531923252504e-01   3.475355700000000e+00 -4.01931972e+00  -2.43352911e+00  -9.59972780e-01
C     7.390870829200001e+00   1.373970847526077e+00   3.408534000000000e+00  3.29899603e+00   1.93049059e+00   2.57605010e-01
C     8.626811426900000e+00   7.194040332206728e-01   3.442161000000000e+00  1.86678635e+00   1.75646200e-01   1.92138770e-01
C     9.846135410299999e+00   1.484889775787818e+00   3.552844500000000e+00 -7.86909040e-01   9.46904870e-01  -1.02225782e+00
C     2.517887610300000e+00   2.894853235607934e+00   3.507683700000000e+00 -4.43505598e+00  -1.96804411e+00   3.38117160e-01
C     3.655070349400000e+00   3.622173102323776e+00   3.602891100000000e+00  4.31295797e+00  -7.90939565e+00  -1.00669032e+00
C     4.930891935599999e+00   2.810204402307702e+00   3.422558400000000e+00 -2.64261280e-01  -3.45728330e-01   7.10611940e-01
C     6.211445237200000e+00   3.397898553769720e+00   3.314535300000000e+00 -2.95295302e+00   5.27070340e+00   7.51254360e-01
C     7.435479983499999e+00   2.778858292566356e+00   3.369235500000000e+00  6.23241100e-02   1.47538321e+00   3.53428800e-01
C     8.591077012100000e+00   3.634375433689801e+00   3.486076500000000e+00  1.33580721e+00  -8.57896770e-01  -3.94728980e-01
C     9.842722913600001e+00   2.987282644477331e+00   3.485704500000000e+00  5.82999250e-01  -3.70083421e+00   5.41193080e-01
C     1.111029409550000e+01   3.635391746717131e+00   3.473544300000000e+00 -3.12377260e-01  -1.31747916e+00   5.35507570e-01
C     3.699303344700000e+00   4.900375958662985e+00   3.652561200000000e+00  1.62351950e-01   8.48185557e+00  -1.09203263e+00
C     4.920752601799999e+00   5.680485012847445e+00   3.500388000000000e+00  5.83370980e-01  -1.65057021e+00  -5.19017560e-01
C     6.085536488200001e+00   4.911611844822883e+00   3.351279600000000e+00  4.23185348e+00   1.18456594e+00   6.27159630e-01
C     7.386758124600000e+00   5.790974001931518e+00   3.406751100000000e+00 -1.30089669e+00  -4.76479240e+00  -3.69482260e-01
C     8.666582722899999e+00   5.060115740052974e+00   3.494148600000000e+00 -5.55112434e+00  -1.35867260e+00  -7.10070880e-01
C     9.831412458299999e+00   5.716939158657927e+00   3.422859000000000e+00  2.78902502e+00   1.03894280e+00  -2.09929900e-01
C     1.106542877840000e+01   5.029587325955192e+00   3.478577100000000e+00  2.89733995e+00   1.17397070e-01  -1.25457440e-01
C     1.238205178410000e+01   5.646580786346500e+00   3.499366500000000e+00 -2.84371609e+00   3.71135871e+00  -2.10156520e-01
C     4.988527924700000e+00   7.106930897646580e+00   3.379578900000000e+00 -3.51452215e+00  -6.81019690e-01   6.29276800e-01
C     6.113333455099999e+00   7.855604694820283e+00   3.357732600000000e+00  2.53099409e+00   7.81474480e-01   5.36435070e-01
C     7.354595346900000e+00   7.157797612295731e+00   3.359353500000000e+00 -3.90486300e-01  -6.83534800e-02  -1.26765300e-02
C     8.587778250500000e+00   7.816202114081161e+00   3.355439400000000e+00  6.41736350e-01  -5.94180280e-01   3.72327100e-02
C     9.828980390700000e+00   7.101933356373055e+00   3.300063300000000e+00  9.14431150e-01   2.43393606e+00   9.85407770e-01
C     1.107490842890000e+01   7.856531006677153e+00   3.375896100000000e+00  1.41546677e+00  -1.45699094e+00  -1.97234440e-01
C     1.237472141640000e+01   7.188724115062089e+00   3.353421900000000e+00 -1.26490095e+00  -3.60750283e+00   9.04837310e-01
C     1.361686459500000e+01   7.847769213413730e+00   3.388594800000000e+00 -8.06420620e-01  -9.58356200e-02   1.30486160e-01
