32
Lattice="9.86 0 0 4.93 8.53901048131456 0 0 0 30 " PBC="1 1 1" Properties=species:S:1:pos:R:3:force:R:3 Energy="-253.78598096"
C     4.904777577700000e+00   8.416786414203367e+00  -5.022510000000224e-02  1.46042300e+00  -5.46090340e-01  -5.29945860e-01
C     1.227651690100000e+00   5.632299718269225e-01  -7.255679999999742e-02  1.14880002e+00   1.88915542e+00  -1.27722880e-01
C     7.434477763799999e+00   8.434656940726017e+00   5.859540000000001e-02 -2.44606377e+00  -2.15290007e+00  -1.54638429e+00
C     3.676758947700000e+00   5.734643174476216e-01  -2.233088999999993e-01  2.61385724e+00   1.75338862e+00   1.04594761e+00
C     9.896396218000000e+00   8.508264064964663e+00  -2.586470999999975e-01  3.69476640e-01  -4.20322834e+00  -9.97213730e-01
C     6.203531650500000e+00   6.250114204518185e-01  -2.295906000000016e-01 -1.07635800e-02   8.38382810e-01  -1.41241565e+00
C     1.237767093680000e+01   8.434034446862023e+00  -4.340204999999990e-01 -1.23440013e+00   2.70557965e+00   2.18040784e+00
C     8.626932754200000e+00   6.208038230377985e-01  -1.014605999999993e-01  1.00878272e+00  -1.62167587e+00  -4.31470560e-01
C     1.264370527300000e+00   1.999185667207529e+00  -4.227762000000013e-01 -6.53981350e-01  -1.23715262e+00   1.26808755e+00
C     2.523963440900000e+00   2.663309598212463e+00  -6.104897999999999e-01 -1.38107287e+00   2.42365687e+00  -6.24884530e-01
C     3.768730414800000e+00   2.006562262190887e+00  -3.676488000000013e-01 -2.55210690e+00  -7.37605540e-01  -8.98268830e-01
C     4.970005618900000e+00   2.714211835145210e+00  -3.874095000000004e-01  9.59298570e-01   4.40710420e-01  -2.04401450e-01
C     6.216401859199999e+00   2.076341689591770e+00  -2.463587999999994e-01  4.11107150e-01  -2.73558253e+00   1.42846693e+00
C     7.456120266600000e+00   2.732460810612333e+00  -4.300950000000014e-02 -1.44684978e+00  -5.97504010e-01  -5.78370130e-01
C     8.683316868400000e+00   2.018631811943947e+00   2.954820000000000e-02 -1.64106257e+00   2.62576530e-01  -1.40823658e+00
C     9.833656051999998e+00   2.714492512419688e+00  -3.222984000000011e-01  3.81347018e+00  -9.05630660e-01   2.05834240e-01
C     2.460598989000000e+00   4.145338293148852e+00  -9.868790999999995e-01  2.16638659e+00  -1.62455405e+00   1.56596271e+00
C     3.743436803300000e+00   4.842667105696420e+00  -9.031251000000005e-01  5.74409840e-01   7.81759260e-01   2.03446383e+00
C     4.991437117699999e+00   4.112761541217129e+00  -5.030301000000001e-01 -1.83732828e+00   2.00193255e+00   3.29119900e-01
C     6.179121199199999e+00   4.819642944788672e+00  -5.528759999999977e-02 -1.96863850e+00   9.31189940e-01  -2.88543505e+00
C     7.372191552200000e+00   4.112731740070553e+00  -1.091819999999970e-01  3.69373850e+00   1.50081639e+00   5.03521790e-01
C     8.657375652100001e+00   4.815488630800047e+00  -2.968404000000007e-01 -7.40115620e-01   1.54163494e+00   6.36978240e-01
C     9.881845668099999e+00   4.091681286045153e+00  -4.705097999999985e-01 -2.47442510e-01   2.95637450e+00  -1.26656952e+00
C     1.110877964880000e+01   4.876524538419935e+00  -8.943477000000009e-01 -1.12863546e+00  -2.88433492e+00   7.83958600e-01
C     3.754561644099999e+00   6.308646132704916e+00  -6.431127000000032e-01  5.02667210e-01  -4.75805550e-01   2.49963780e-01
C     4.990116814399999e+00   6.980522716714747e+00  -2.228927999999968e-01 -3.12619765e+00   4.89251690e-01  -6.78627470e-01
C     6.171979009599999e+00   6.266169593583099e+00  -1.249532999999978e-01  1.30754252e+00  -1.07578477e+00   1.20443039e+00
C     7.401098409999999e+00   6.951436114536514e+00   1.660770000000000e-02  1.64011042e+00   1.86725183e+00  -5.61079300e-01
C     8.649038085399999e+00   6.291731633795608e+00  -2.496533999999997e-01  1.34524796e+00  -1.19708769e+00  -4.05127200e-01
C     9.942333859400000e+00   7.002265257539552e+00  -4.993638000000011e-01 -2.55036792e+00   7.52503460e-01   8.42924050e-01
C     1.110483821240000e+01   6.260795140386987e+00  -8.847039000000017e-01  1.07797302e+00   3.93728750e+00   2.15484564e+00
C     1.240480974870000e+01   7.095015391642579e+00  -6.446787000000000e-01 -1.12826467e+00  -5.07851541e+00  -1.87876007e+00
