32
Lattice="9.86 0 0 4.93 8.53901048131456 0 0 0 30 " PBC="1 1 1" Properties=species:S:1:pos:R:3:force:R:3 Energy="-252.73251381"
C     4.957763985200000e+00   8.293782224409281e+00  -2.777231999999970e-01  8.83712810e-01  -1.48916787e+00   1.49328861e+00
C     1.308046925600000e+00   4.099331300144080e-01  -1.095752999999995e-01 -6.66316070e-01  -3.74768410e-01  -2.36234303e+00
C     7.459066434600000e+00   8.160515595650018e+00  -2.585495999999985e-01 -1.72806450e-01   5.37722826e+00   1.13621062e+00
C     3.754018013000000e+00   4.566925806226784e-01  -1.704779999999992e-01  1.40639990e-01  -3.13724242e+00   3.53303480e-01
C     9.922830532899999e+00   8.295038398240994e+00  -2.836950000000016e-02  7.79551890e-01  -6.70486000e-03  -5.50580640e-01
C     6.255777424100000e+00   4.600069975404904e-01  -1.095566999999988e-01 -3.00906596e+00   1.32613166e+00   5.00818660e-01
C     1.234850683160000e+01   8.291463712283752e+00   1.171110000000000e-02  1.19430441e+00  -2.96042172e+00   5.32334000e-02
C     8.618200195899998e+00   4.475052030769320e-01  -2.251028999999996e-01  1.87463790e+00  -3.20654448e+00   3.05273850e-01
C     1.336656948100000e+00   1.849842643417569e+00  -3.366510000000034e-02 -4.47200000e-05  -7.25849440e-01   2.55868996e+00
C     2.590144401800000e+00   2.464693836859654e+00   4.638198000000000e-01 -3.34448503e+00   2.47300244e+00  -2.03466958e+00
C     3.803184212800000e+00   1.833135813243135e+00   1.064442000000000e-01 -2.31133359e+00   2.67585330e-01   9.43718890e-01
C     4.942788715800000e+00   2.592184849710456e+00   1.360383000000000e-01  4.12256214e+00   6.15396970e-01  -7.28289790e-01
C     6.221529847999999e+00   1.925478721936369e+00  -1.999628999999992e-01 -1.88374748e+00  -2.38307450e+00   1.19646166e+00
C     7.460830437899999e+00   2.523839890680108e+00  -2.348870999999981e-01 -1.35220606e+00   3.03364063e+00  -3.69132200e-02
C     8.619510836400000e+00   1.787317703150179e+00  -2.558643000000025e-01  4.17026002e+00   4.03853724e+00   5.68900960e-01
C     9.947649878399998e+00   2.541970857022397e+00  -1.262909999999806e-02 -7.18507110e-01  -7.00471700e-02   1.75551530e-01
C     2.430827359900000e+00   3.917415281587007e+00   6.964100999999999e-01  3.70859210e+00   2.89808520e-01  -8.25133950e-01
C     3.731074828300000e+00   4.700926362936804e+00   5.276304000000001e-01  9.27635700e-02  -2.19895190e-01   3.44413700e-01
C     4.972814782200000e+00   4.023982900888350e+00   3.439629000000000e-01  5.71945380e-01  -9.11227380e-01  -1.94537416e+00
C     6.218925871300000e+00   4.716953914827554e+00  -7.734510000000228e-02  5.82198760e-01  -1.50314505e+00   1.07410632e+00
C     7.469305798100000e+00   3.963933590539323e+00  -2.162198999999987e-01  3.68888450e-01  -8.96091900e-02   5.80605990e-01
C     8.776627422099999e+00   4.596066631121565e+00  -9.140220000000099e-02 -4.04187968e+00   5.15341359e+00  -3.14903020e-01
C     9.931174015600000e+00   3.998950620886021e+00   2.934930000000000e-01 -2.72902630e-01  -4.21354485e+00  -1.34860683e+00
C     1.108067421180000e+01   4.676968546623173e+00   6.318150000000000e-01  2.68684815e+00   3.09263410e-01  -6.01441350e-01
C     3.834457273400000e+00   6.120451208961690e+00   3.339849000000000e-01 -1.92881260e+00   8.87434410e-01  -6.48184370e-01
C     5.020916052700000e+00   6.843090673253234e+00  -1.102731000000006e-01 -7.01601730e-01  -1.23432630e-01   9.94255110e-01
C     6.295670836200000e+00   6.131548677761708e+00  -1.460153999999996e-01 -6.86848944e+00  -2.44294346e+00   1.89655040e-01
C     7.401404316500001e+00   6.796844246394603e+00  -2.603672999999986e-01  8.10433450e+00   3.00733760e-01  -5.13730690e-01
C     8.730963642199999e+00   6.100052708386437e+00  -1.696034999999974e-01  5.81670440e-01  -3.53257580e-01   1.45719248e+00
C     9.966625941399998e+00   6.891088536551419e+00   1.291956000000000e-01 -1.11180121e+00  -3.05432602e+00  -6.37704110e-01
C     1.122942917240000e+01   6.097543947107413e+00   4.484109000000000e-01 -3.93453735e+00   1.20752232e+00  -3.60945830e-01
C     1.239442790820000e+01   6.815961639227541e+00   3.578865000000000e-01  2.45562662e+00   1.98550367e+00  -1.01685969e+00
