32
Lattice="9.86 0 0 4.93 8.53901048131456 0 0 0 30 " PBC="1 1 1" Properties=species:S:1:pos:R:3:force:R:3 Energy="-255.81067533"
C     1.195042747400000e+00   9.328288296687360e-01   3.396430800000000e+00  9.62552200e-02   3.94248248e+00   7.36519770e-01
C     2.429992267199999e+00   1.742421635408854e+00   3.418549500000000e+00 -2.63043810e-01  -2.30024800e+00  -1.48364240e-01
C     3.685982287500000e+00   1.017586449962482e+00   3.328870500000000e+00 -1.04167438e+00   3.56861400e-01   2.30384780e-01
C     4.905507020500000e+00   1.764585405620638e+00   3.341022900000000e+00 -1.75775158e+00   1.04237070e-01   3.56466500e-02
C     6.104149160900000e+00   1.034584204223970e+00   3.265735800000000e+00  2.05941520e-01  -4.76583210e-01   6.11652710e-01
C     7.322787184100000e+00   1.735486165706894e+00   3.357600300000000e+00  6.80624760e-01  -1.27896306e+00  -3.14901860e-01
C     8.542648291000001e+00   1.054471474241786e+00   3.398308800000000e+00  6.58736810e-01  -1.98591704e+00   3.31048070e-01
C     9.805883932299999e+00   1.713714421466247e+00   3.422769900000000e+00  2.40608800e-01  -9.74433220e-01   4.40028130e-01
C     2.406513635200000e+00   3.144078858174654e+00   3.496023300000000e+00 -1.33572198e+00   6.57752860e-01  -1.94336150e-01
C     3.619195281700000e+00   3.861438652286415e+00   3.409678200000000e+00  3.86303490e-01   1.02468990e+00   4.64305310e-01
C     4.823978723100000e+00   3.229890363141843e+00   3.417552600000000e+00  3.85376805e+00  -3.55410273e+00  -7.67710720e-01
C     6.140120758000000e+00   3.872412220044368e+00   3.344049600000000e+00 -2.17009395e+00  -4.54263000e-02   9.80329800e-02
C     7.376793805799998e+00   3.105892232527885e+00   3.341668800000000e+00 -4.22768328e+00   1.88948417e+00  -3.30171500e-02
C     8.504186156499999e+00   3.827917571185708e+00   3.372197400000000e+00  4.94934233e+00   1.20799231e+00   6.76658840e-01
C     9.781094462599999e+00   3.125691636127861e+00   3.518751600000000e+00 -9.61584700e-02   4.18158410e-01  -8.60123440e-01
C     1.099882674620000e+01   3.855576023861162e+00   3.549163800000000e+00  1.59461020e-01  -8.08588670e-01  -6.22827920e-01
C     3.699960563000000e+00   5.286113546311999e+00   3.387916500000000e+00 -3.99576708e+00  -1.66372585e+00   4.32829460e-01
C     4.828479270800000e+00   6.019235072918267e+00   3.329603100000000e+00  3.79564262e+00   1.46177349e+00  -3.35724300e-02
C     6.090811538899999e+00   5.275874333455326e+00   3.305595300000000e+00  1.67132366e+00   1.40919203e+00  -4.52229830e-01
C     7.402679806100000e+00   5.981372331939004e+00   3.212753100000000e+00 -3.35047695e+00   5.13630000e-01   9.59903570e-01
C     8.576419678399999e+00   5.266905383797657e+00   3.331789800000000e+00  1.91952010e-01  -7.19117710e-01  -5.70981290e-01
C     9.808540709299999e+00   5.985332041878789e+00   3.322759200000000e+00 -1.14924281e+00   7.75041670e-01   5.65050720e-01
C     1.097333317390000e+01   5.267380408950659e+00   3.419784300000000e+00  3.53505253e+00  -1.07099616e+00   5.86541400e-01
C     1.228722767110000e+01   5.883579485197014e+00   3.439897200000000e+00 -1.44805667e+00   4.30185407e+00  -1.26848307e+00
C     4.853283875600000e+00   7.505299731158029e+00   3.357596400000000e+00  1.29099480e-01  -4.25013533e+00   7.79402350e-01
C     6.124821587600000e+00   8.085503121066571e+00   3.426204900000000e+00  1.80576270e-01   8.58384380e-01  -1.24237031e+00
C     7.371161182200000e+00   7.410415271385526e+00   3.273397800000000e+00 -8.83468210e-01  -1.38413475e+00   2.40739060e-01
C     8.572906018099999e+00   8.101676775426634e+00   3.284425800000000e+00  8.08431370e-01   2.26558996e+00   2.66225440e-01
C     9.801581373399999e+00   7.423523164812955e+00   3.337425600000000e+00  4.00351860e-01  -8.17966290e-01  -1.00478584e+00
C     1.102118237350000e+01   8.142952644284858e+00   3.270363900000000e+00  1.35798268e+00  -1.21603217e+00   1.80712670e-01
C     1.228770647270000e+01   7.358833585388886e+00   3.285751500000000e+00 -1.53415387e+00   4.89782330e-01   1.51537477e+00
C     1.347455432760000e+01   8.139546347614282e+00   3.456172500000000e+00 -4.81614300e-02   8.69463930e-01  -1.63735244e+00
