32
Lattice="9.86 0 0 4.93 8.53901048131456 0 0 0 30 " PBC="1 1 1" Properties=species:S:1:pos:R:3:force:R:3 Energy="-256.58399474"
C     1.186945518200000e+00   7.593098178473807e-01   3.651998700000000e+00  2.60190411e+00   8.45071780e-01  -3.21338490e-01
C     2.484435193900000e+00   1.484676983646657e+00   3.628789500000000e+00 -2.75937423e+00  -3.17304810e-01   1.13290510e-01
C     3.694967754800000e+00   7.653720029475520e-01   3.683731800000000e+00 -7.30572080e-01   2.19557344e+00  -2.17885450e-01
C     4.886914511500000e+00   1.554368117679177e+00   3.662735400000000e+00  4.53617830e-01  -3.86246629e+00   3.07057670e-01
C     6.082982156600000e+00   7.861120639420048e-01   3.736051200000000e+00  2.43348008e+00   2.68886340e-01  -8.21175410e-01
C     7.357324890699998e+00   1.464635242929258e+00   3.626472900000000e+00  5.07257580e-01   7.71408810e-01   9.69857500e-01
C     8.633106790399999e+00   8.221045054558336e-01   3.659514000000000e+00 -2.15893427e+00  -1.31885512e+00  -6.24879200e-02
C     9.849231992600000e+00   1.524938332669752e+00   3.662179800000000e+00  9.52789700e-02  -1.34028696e+00  -6.84983880e-01
C     2.443712260000000e+00   2.907677036156692e+00   3.607682100000000e+00  1.59884730e-01   7.95687150e-01   2.66786910e-01
C     3.680975330200000e+00   3.643407059684392e+00   3.651697800000000e+00 -5.27845860e-01  -1.00208050e-01  -5.06045260e-01
C     4.900043988899999e+00   2.914466830339865e+00   3.612052200000000e+00  6.76154360e-01   2.26505542e+00   5.21874800e-01
C     6.167790087199999e+00   3.603419727507600e+00   3.665234400000000e+00 -7.65596130e-01   2.22429900e-01  -4.35991720e-01
C     7.408092847500000e+00   2.886156424214263e+00   3.680003400000000e+00 -1.59669407e+00   8.88208170e-01  -2.76065800e-01
C     8.594632971799999e+00   3.647040750204051e+00   3.688624500000000e+00  1.04065080e+00   5.27393720e-01  -1.04514494e+00
C     9.843443728899999e+00   2.919757259672854e+00   3.563800500000000e+00 -7.01021190e-01   1.72778218e+00   1.29330392e+00
C     1.104978613490000e+01   3.644981226266380e+00   3.622431900000000e+00  1.36113242e+00  -1.21901860e+00  -1.12613160e-01
C     3.671245038500000e+00   5.077372055551796e+00   3.663881100000000e+00  1.09105448e+00  -1.63456748e+00   2.20927900e-02
C     4.924400703200000e+00   5.771432134887619e+00   3.707973300000000e+00 -1.50552155e+00   6.58186760e-01  -5.76457840e-01
C     6.133860890499999e+00   5.023978647701614e+00   3.632374200000000e+00  2.91962750e-01   9.13200790e-01   1.25463096e+00
C     7.344023504199999e+00   5.785589472703040e+00   3.758796600000000e+00  6.99472840e-01  -1.75976142e+00  -1.23787343e+00
C     8.581658690799998e+00   5.123367008551791e+00   3.651368100000000e+00  1.82244219e+00  -2.53062567e+00   1.37333931e+00
C     9.885535773099999e+00   5.786657275963564e+00   3.743139600000000e+00 -2.66342233e+00   1.85502930e-01  -7.20025600e-01
C     1.108500743530000e+01   5.052694315264596e+00   3.719644200000000e+00 -9.15721900e-01  -5.09453940e-01  -6.07850530e-01
C     1.229636167930000e+01   5.718767531581905e+00   3.654219600000000e+00  1.25423678e+00   3.24515936e+00   9.39459490e-01
C     4.870142454300000e+00   7.236045347169839e+00   3.704922900000000e+00  2.26335745e+00  -2.72129692e+00  -4.74278670e-01
C     6.155514387200000e+00   7.863559210032927e+00   3.629043000000000e+00 -1.94594294e+00   1.91599775e+00   9.08226780e-01
C     7.364492666999999e+00   7.157007497656016e+00   3.718359000000000e+00  5.54064450e-01   2.63101998e+00  -7.95379000e-02
C     8.599020030899998e+00   7.930158624540953e+00   3.726683100000000e+00  7.25973820e-01  -2.87353570e+00  -1.99488860e-01
C     9.860403323300000e+00   7.210543080030691e+00   3.709960200000000e+00 -8.09920280e-01  -6.77934550e-01   6.93035990e-01
C     1.107996162960000e+01   7.892013242314802e+00   3.750416400000000e+00  3.01376280e-01   8.95069320e-01  -1.00602470e-01
C     1.234590946110000e+01   7.185592603748759e+00   3.739766100000000e+00 -2.92141526e+00  -7.13090330e-01  -5.46713870e-01
C     1.351250877070000e+01   7.924663088176234e+00   3.681293100000000e+00  1.66868020e+00   6.26772020e-01   3.63604570e-01
