32
Lattice="9.86 0 0 4.93 8.53901048131456 0 0 0 30 " PBC="1 1 1" Properties=species:S:1:pos:R:3:force:R:3 Energy="-254.43448207"
C     4.967053929300000e+00   8.379464448757803e+00  -1.293797999999988e-01 -3.94900010e-01   1.45990888e+00   9.30351000e-02
C     1.284953868900000e+00   5.797234121294617e-01  -7.275839999999789e-02 -1.53673246e+00  -1.72651222e+00  -8.69034950e-01
C     7.423263788600000e+00   8.432161671083550e+00  -4.894739999999942e-02  1.83699166e+00  -1.00918909e+00  -1.99420370e-01
C     3.742439365700000e+00   6.210956010259000e-01  -1.927947000000003e-01 -1.03225509e+00  -2.19014478e+00  -1.86736260e-01
C     9.885377963800000e+00   8.373363069599527e+00  -3.073629000000011e-01  3.70081300e-01   3.38406781e+00   1.32148410e-01
C     6.196595732100000e+00   6.083613746970760e-01  -2.689164000000019e-01 -5.75937400e-01  -2.08987930e+00  -6.22097580e-01
C     1.236906305820000e+01   8.521194176193900e+00  -3.601947000000010e-01  1.65105810e-01  -4.21491610e+00   6.43914400e-02
C     8.685459988700000e+00   6.119936989750584e-01  -1.133730000000028e-01 -9.61351000e-01   8.67768000e-02  -5.85530870e-01
C     1.203470089400000e+00   1.912503183171381e+00  -4.406324999999995e-01  3.06250833e+00   3.32056132e+00   1.03201254e+00
C     2.451749244600000e+00   2.736843372351088e+00  -5.944181999999998e-01  8.44181340e-01  -3.16611035e+00   7.43668000e-03
C     3.681245198400000e+00   2.004260486525898e+00  -4.010424000000015e-01  1.93384655e+00   1.37491286e+00  -1.81055400e-01
C     4.975207114000000e+00   2.708140854864244e+00  -3.921512999999983e-01 -1.60779503e+00   3.25127170e-01  -1.72822530e-01
C     6.196123290199999e+00   1.973120764667853e+00  -2.421708000000002e-01 -8.08162760e-01   3.35419083e+00   4.85271760e-01
C     7.413939433099999e+00   2.718601740432978e+00  -1.288443000000008e-01  6.05514210e-01   8.48231620e-01   6.43169500e-02
C     8.646405416099999e+00   2.060129097343918e+00  -3.806099999999901e-02  1.35733260e+00  -2.16889601e+00  -9.05429390e-01
C     9.924097937299999e+00   2.662530498896268e+00  -2.842485000000003e-01 -3.07589130e+00   2.75820152e+00  -5.93088150e-01
C     2.549321931200000e+00   4.091686836401965e+00  -8.909406000000004e-01 -2.08496490e+00   2.18193523e+00   9.50427280e-01
C     3.806972178300000e+00   4.882220314580408e+00  -8.342013000000001e-01 -2.31150311e+00  -7.41594350e-01   1.49393565e+00
C     4.970062856200000e+00   4.160758379834056e+00  -4.667856000000015e-01 -1.27440600e-01  -1.69946763e+00  -8.77589900e-02
C     6.161015034699999e+00   4.810469400439903e+00  -1.250502000000004e-01  2.08088660e+00   1.60217186e+00  -9.48079510e-01
C     7.457619479599999e+00   4.162372423594985e+00  -1.442241000000024e-01 -2.71947379e+00  -1.58443200e+00   1.94725790e-01
C     8.639135588799999e+00   4.865839845386520e+00  -3.159627000000000e-01  2.05392771e+00  -1.34566488e+00   8.06380500e-02
C     9.873060161600000e+00   4.121168965545632e+00  -5.202347999999972e-01  1.04136473e+00  -9.49793940e-01   4.13971890e-01
C     1.109410432060000e+01   4.788286332064435e+00  -7.812812999999998e-01  1.74694556e+00   2.66716486e+00  -6.78710320e-01
C     3.686270298100000e+00   6.312455556060253e+00  -6.185988000000009e-01  1.37225503e+00  -1.22678527e+00  -4.91509780e-01
C     4.899775205299999e+00   6.994633346142842e+00  -3.258279000000002e-01  2.32560754e+00  -1.34208513e+00   1.12815912e+00
C     6.187927362400000e+00   6.218627115713812e+00  -1.005396000000012e-01 -5.88054910e-01   2.61291304e+00  -4.59164980e-01
C     7.460777391099999e+00   6.993735725361185e+00  -1.183770000000095e-02 -7.17106010e-01  -1.38997757e+00  -8.51000830e-01
C     8.717890366799999e+00   6.245886028088907e+00  -2.541261000000006e-01 -2.07588662e+00   2.67367462e+00   3.38437700e-02
C     9.900451586699999e+00   7.010052408146788e+00  -4.976825999999974e-01  2.82758590e-01  -1.77488609e+00   2.58104900e-01
C     1.114919835240000e+01   6.345001396774040e+00  -7.885115999999996e-01 -3.87775256e+00  -4.21193120e+00   7.92214510e-01
C     1.230669594530000e+01   6.988183831527298e+00  -6.458154000000000e-01  3.41589999e+00   4.18242749e+00   6.06806070e-01
