72
Lattice="7.395 0 0 3.6975 6.40425786098592 0 0 0 13.6 " PBC="1 1 1" Properties=species:S:1:pos:R:3:force:R:3 Energy="-566.44941919"
C     3.767832033225000e+00   6.332001372396500e+00   1.335192212800000e+01 -9.33249810e-01   2.61560862e+00   7.18436630e-01
C     1.199610207525000e+00   8.174975598691903e-01   1.339770734400000e+01  2.38557337e+00  -4.78229229e+00   3.84305330e-01
C     1.336666401375000e+00   6.849958983637771e-01   3.442402895999999e+00 -2.28520220e+00   4.30343153e+00  -2.70539950e-01
C     2.438499623100000e+00   1.631942338101676e+00   3.436178312000000e+00  2.14156108e+00  -5.95277487e+00  -3.46488200e-01
C     6.089005655249999e+00   6.400377648247784e+00   1.347733140000000e+01  3.42924603e+00   1.52134050e-01  -6.04634310e-01
C     3.694082474700000e+00   7.102874013767533e-01   1.323544928000000e+01  3.11732100e-02  -2.85416130e-01   2.66307660e+00
C     3.652708115250000e+00   7.647215438242381e-01   3.456346160000000e+00  1.94389000e-02  -7.76838900e-01   6.66026750e-01
C     4.926071837625000e+00   1.437863417059470e+00   3.513449296000000e+00 -1.81521805e+00  -1.82511870e-01   1.77855710e-01
C     8.676775793699999e+00   6.399580318144213e+00   1.342745911200000e+01 -1.49475950e+00  -1.02509593e+00  -4.35345210e-01
C     6.321416528700000e+00   7.467312149845549e-01   1.350344639200000e+01 -5.56641605e+00  -4.35049192e+00  -1.43914280e-01
C     6.115766533350000e+00   8.142746171011452e-01   3.519976072000000e+00  4.91030100e+00  -5.10606399e+00   4.30115630e-01
C     7.427450258324999e+00   1.404823850759729e+00   3.402747472000000e+00 -1.61684256e+00   1.73723616e+00   3.22007420e-01
C     8.579465284499999e+00   2.237737740149512e+00   1.343094656000000e+01  7.85159359e+00  -6.08891199e+00  -2.04506952e+00
C     2.436168090525000e+00   2.925431111923921e+00   1.318281116000000e+01  1.15996430e-01  -4.20011788e+00   1.35994505e+00
C     2.501744732025000e+00   3.036382445730434e+00   3.396504256000000e+00 -1.66727478e+00  -3.12057240e+00   1.36079200e-01
C     3.767639467425000e+00   3.569199792441683e+00   3.558522416000000e+00  6.44254040e-01   2.54238638e+00   2.76346670e-01
C     3.661064428275000e+00   2.213972243699416e+00   1.326445427200000e+01  2.08200753e+00  -3.25802034e+00   6.19679310e-01
C     4.924488346275000e+00   2.863518973743628e+00   1.359909927200000e+01 -2.83846760e-01  -2.61437964e+00  -1.13253190e-01
C     5.021012323274999e+00   2.789734622342468e+00   3.673163616000000e+00 -4.26510040e+00   4.66988398e+00  -1.51610806e+00
C     6.135556514699999e+00   3.651498924880607e+00   3.561983616000000e+00  6.95334600e-01  -8.74267912e+00  -3.21707440e-01
C     6.252797843025000e+00   2.122850157334507e+00   1.590740320000000e-01 -8.66790147e+00  -4.96912569e+00  -1.10030561e+00
C     7.398334072725000e+00   2.634855843448429e+00   1.359990384800000e+01 -1.31138172e+00   1.11452426e+01   7.83633100e-01
C     7.289602984350000e+00   2.878267018956529e+00   3.341843816000000e+00  5.74773722e+00   2.11014910e-01   7.27969740e-01
C     8.617080173849999e+00   3.655972555166132e+00   3.349148648000000e+00 -2.80504470e-01  -1.99100915e+00   3.26517710e-01
C     2.510778833775000e+00   4.246059657577538e+00   1.324295226400000e+01 -4.23248390e+00   1.92464076e+00   4.72982890e-01
C     3.717956603625000e+00   4.855770622880978e+00   1.329275179200000e+01 -7.07987290e-01   6.16004181e+00   6.07150240e-01
C     3.780224167500000e+00   5.041162552391566e+00   3.567017519999999e+00 -5.08776590e-01  -4.82981110e-01   3.43147210e-01
C     5.083118824050000e+00   5.685680531078948e+00   3.490806112000000e+00 -7.63789913e+00   3.70436599e+00   2.20838290e-01
C     4.846166865974999e+00   4.247439134720582e+00   5.565487200000000e-02  3.53455124e+00  -1.50167487e+00  -2.09467490e-01
C     6.090074602500000e+00   4.927731874197132e+00   1.357212000000000e-01  1.46371784e+00   8.54928880e-01  -1.50285160e+00
C     6.144077292524999e+00   4.952870443532412e+00   3.485698495999999e+00  4.99858170e+00   1.75856897e+00   2.63425200e-01
C     7.361096735100000e+00   5.600357500206269e+00   3.535464568000000e+00  2.55730223e+00   5.98219262e+00  -7.34550140e-01
C     7.277598126225000e+00   4.042695267106696e+00   5.476992000000000e-03  3.03816716e+00   7.35275582e+00  -3.19618250e-01
C     8.591663595825000e+00   4.857588919772589e+00   1.340817145600000e+01 -6.24349030e-01   2.88602716e+00   4.16410220e-01
C     8.681579400824999e+00   5.006110063803849e+00   3.552194336000000e+00 -2.23148875e+00   1.75734680e+00   6.47002500e-02
C     9.894648249525000e+00   5.763280347185361e+00   3.674703680000000e+00  7.07907970e-01  -3.75380730e-01  -1.69605635e+00
C     5.569048785000000e-02   4.974827505648000e-04   7.207357264000001e+00 -2.36077497e+00   8.21545770e-01  -1.31278587e+00
C     1.240493649900000e+00   6.941627609368453e-01   6.942610687999999e+00  1.29284174e+00   2.39717146e+00  -8.34105660e-01
C     1.175158750950000e+00   6.447168949365144e-01   1.021522533600000e+01  7.54361600e-01   1.05261995e+00  -3.05164120e-01
C     2.464091610525000e+00   1.408216570403643e+00   1.017382204000000e+01 -1.04663524e+00  -2.41936091e+00   4.17419620e-01
C     6.179141350575000e+00   6.385689034547823e+00   6.635055664000000e+00 -1.34005400e-01   3.96789665e+00   4.25554120e-01
C     3.828223078874999e+00   6.683712134701603e-01   6.420823432000000e+00 -1.77572019e+00   3.71292550e-01   2.63403121e+00
C     3.720404903250000e+00   6.711981169321429e-01   1.038582536800000e+01 -2.29361004e+00  -1.54958697e+00   7.09472070e-01
C     4.913772547574999e+00   1.384390553716771e+00   1.040497022400000e+01 -2.00315027e+00  -1.41318060e-01  -1.44359977e+00
C     8.718781279425000e+00   6.397439694954508e+00   6.917281096000000e+00 -7.31850520e-01   1.38945505e+00  -1.54219215e+00
C     6.214441604925000e+00   7.654158294188407e-01   7.102597279999999e+00  9.98279800e-02   1.92278710e-01  -6.80251400e-01
C     6.102557399474999e+00   7.398855116302651e-01   1.030592686400000e+01  2.53888442e+00  -4.65108540e-01   2.82303660e-01
C     7.351302834075000e+00   1.347442084589601e+00   1.015237307200000e+01  2.00743765e+00   3.38490620e+00  -1.35058060e-01
C     8.612813961374998e+00   2.213717098066274e+00   6.873982095999999e+00 -5.26668350e-01  -1.92917506e+00  -6.93447540e-01
C     2.486966785875000e+00   2.815083699633606e+00   6.675042248000000e+00  2.17719430e-01  -3.31820760e-01  -4.00817290e-01
C     2.443054499400000e+00   2.815951284445900e+00   1.003702793600000e+01  4.82499030e-01  -3.52370230e-01   8.81757640e-01
C     3.730225315349999e+00   3.410976774135731e+00   1.000728868000000e+01 -4.29138943e+00   4.48054739e+00   1.80980660e-01
C     3.801034917675000e+00   2.133589841595412e+00   6.405034104000000e+00 -5.38643440e+00  -2.93459949e+00   1.50661926e+00
C     4.898464232025000e+00   2.821402268523439e+00   6.646017808000000e+00  3.69806709e+00   3.91712263e+00   1.62303496e+00
C     4.881961623974999e+00   2.704059997713275e+00   1.007732324000000e+01  3.25003600e+00   3.73469520e+00   4.02639220e-01
C     6.138019197599999e+00   3.505934882873623e+00   1.008833815200000e+01  5.86521310e-01   5.63369760e-01   1.05503871e+00
C     6.165611569499999e+00   2.190899559864616e+00   6.890906888000000e+00  1.88619670e-01   2.87825100e-01  -4.13144020e-01
C     7.343890160025000e+00   3.032128865744979e+00   6.846589384000000e+00  2.46809499e+00  -3.89385797e+00   5.26245660e-01
C     7.442521896900000e+00   2.839829175621438e+00   1.008756172800000e+01 -2.87644254e+00  -4.97745920e-01   7.74464900e-01
C     8.621615342475000e+00   3.615371673738825e+00   1.019126526400000e+01  1.44554986e+00  -3.88452714e+00  -5.59748770e-01
C     2.432086309350000e+00   4.202936010894021e+00   6.878731896000001e+00  1.43181253e+00   1.10048174e+00   3.56676130e-01
C     3.581584299375000e+00   5.003101727716693e+00   7.037228200000000e+00  4.70344485e+00  -1.53579145e+00  -5.68639540e-01
C     3.605165549325000e+00   4.931945427570962e+00   1.004947764800000e+01  1.23813407e+00   4.26863490e-01   1.18938992e+00
C     4.827775057275000e+00   5.638409230834981e+00   1.020729816800000e+01  2.05356967e+00  -2.07276640e-01   1.46654280e-01
C     4.853935979025000e+00   4.301519377878723e+00   6.882137608000000e+00  3.70363820e-01  -5.17860680e-01  -8.82200420e-01
C     6.103731244800000e+00   5.045152148868032e+00   6.754155080000000e+00  1.01926267e+00  -2.16436511e+00   3.66849120e-01
C     6.125236644299999e+00   4.965017463458052e+00   1.032955210400000e+01  2.56318970e-01  -2.89612556e+00  -6.09715780e-01
C     7.439103890925000e+00   5.549832452713949e+00   1.059618595200000e+01 -5.52976242e+00   5.34847951e+00  -2.04440571e+00
C     7.432051205475000e+00   4.433154287125364e+00   6.753665752000000e+00 -3.51944575e+00  -3.43546834e+00   3.01879670e-01
C     8.681741240399999e+00   4.962515832252778e+00   6.911979679999999e+00 -1.17533885e+00   2.30899229e+00  -1.91590730e-01
C     8.637100657349999e+00   4.965643927961917e+00   1.047574040800000e+01  9.30092400e-01   1.22208380e-01  -1.11265881e+00
C     9.777926198099999e+00   5.800676537979523e+00   1.030511684800000e+01  2.49170090e+00  -6.77600460e+00  -6.38241110e-01
