52
Lattice="8.88768389401873 1.33226762955019e-15 0 4.44384194700937 7.69696003302603 0 0 0 30 " PBC="1 1 1" Properties=species:S:1:pos:R:3:force:R:3 Energy="-410.65920114"
C     1.284153818366163e+01   7.164866335250888e+00  -3.737297999999996e-01  3.56233448e+00  -1.38855848e+00   6.76993800e-01
C     9.027163872495997e+00   6.785325079813172e+00  -3.084440999999991e-01  3.96354255e+00   2.78050063e+00  -2.18283733e+00
C     1.041909759725020e+01   6.376795610480070e+00  -7.232031000000028e-01  1.13160450e-01   4.99547483e+00   2.81770340e+00
C     1.075291415951442e+01   5.058368163930112e+00  -7.082945999999986e-01  2.48295027e+00  -9.89653140e-01   1.02959914e+00
C     6.724920500982504e+00   6.329608627320153e+00  -1.899365999999993e-01  1.78183370e+00  -5.14535137e+00  -4.80011370e-01
C     8.072214500171892e+00   5.806078878178821e+00  -2.471606999999985e-01 -1.38910769e+00   1.49591737e+00  -2.71178550e-01
C     8.350273733132125e+00   4.432421125237593e+00  -4.578179999999996e-01  4.15808351e+00   3.95549937e+00  -4.04103850e-01
C     9.736969590285598e+00   4.059304137488917e+00  -6.539310000000000e-01  1.09098310e+00   4.65820840e-01   1.63692804e+00
C     1.016946024093820e+01   2.785648521980662e+00  -2.885021999999999e-01 -2.97974653e+00  -2.29958843e+00  -5.42280680e-01
C     4.313697771572012e+00   5.770378684228474e+00  -4.684029000000010e-01  4.20743470e-01  -1.96781644e+00   4.73526230e-01
C     5.733759416037392e+00   5.334800711897147e+00  -4.417976999999986e-01 -3.64237272e+00   1.07331641e+00   1.43956181e+00
C     5.969901843200812e+00   3.930227349299421e+00  -3.737600999999984e-01  9.92919310e-01   1.01169184e+00  -8.93762700e-01
C     7.350417205016754e+00   3.618031338370593e+00  -4.162028999999983e-01 -3.05230756e+00  -8.58063908e+00   9.94680500e-02
C     7.729469633985639e+00   2.018873053494446e+00  -4.145958000000007e-01 -3.93173243e+00   6.49977756e+00  -7.45648710e-01
C     9.025671316052003e+00   1.782414898352016e+00  -2.674059000000000e-01  7.08904741e+00  -2.83327713e+00   1.46504246e+00
C     3.324859838276450e+00   4.710214495737932e+00  -4.376297999999998e-01 -2.24613783e+00   1.32457639e+00  -1.75568456e+00
C     3.618293209014573e+00   3.325582802033933e+00  -3.680376000000010e-01  8.24501300e-02   1.35475542e+00   4.44473860e-01
C     4.934464005778255e+00   2.939417234915998e+00  -4.318953000000008e-01  2.56770324e+00  -9.36054400e-02  -6.53758570e-01
C     5.297982629871449e+00   1.571799979236715e+00  -6.404955000000001e-01 -1.68330317e+00  -1.53874190e-01   2.15602434e+00
C     6.609482859870372e+00   1.179901254470833e+00  -5.806791000000011e-01  4.01689928e+00  -1.77837764e+00   7.53190890e-01
C     1.152500303628933e+01   7.539421423011571e+00  -4.710122999999982e-01 -4.58662653e+00  -2.77389280e+00  -2.01042781e+00
C     2.642148221519305e+00   2.346682809661731e+00  -1.572789000000014e-01 -2.26195356e+00   1.71237470e+00  -4.87592490e-01
C     3.011917153784125e+00   1.036892891657438e+00   2.313240000000000e-02  1.36148620e-01  -3.87558383e+00  -1.08211351e+00
C     4.317545246558862e+00   5.839655096008888e-01  -3.037911000000015e-01 -7.15863600e-02  -1.59596605e+00   1.33982530e-01
C     6.660927575394635e-01   3.563676330273937e-01  -1.043517000000023e-01 -3.45449815e+00   1.53618917e+00  -1.26341597e+00
C     6.487116299054172e+00   7.627069939596393e+00   9.837000000000001e-04 -3.12192483e+00   5.26254893e+00   1.58078320e-01
C     4.315734873367432e-01   6.092747305411351e-01   3.898236300000000e+00  7.96673260e-01  -1.75536246e+00  -1.38512332e+00
C     2.854937103275619e+00   3.813874482705120e-02   3.759012000000000e+00 -9.98869110e-01  -1.48312050e-01  -1.81089312e+00
C     4.213767272273338e+00   3.728675292741044e-01   3.621099000000000e+00  6.04319740e-01   3.37916251e+00   7.33215690e-01
C     9.712002666241290e+00   7.187541887377670e+00   3.565357800000000e+00  2.60212548e+00  -1.55533248e+00   4.85357880e-01
C     1.111930479677090e+01   7.620281836606736e+00   3.761798400000000e+00 -1.29626135e+00  -4.43750697e+00   4.39679050e-01
C     1.210014585732834e+01   6.518507728254814e+00   3.963802499999999e+00 -2.92291606e+00   5.01087290e-01  -2.23599679e+00
C     4.557220355289110e+00   6.836683584400549e+00   3.841806600000000e+00  1.05715020e-01   4.08759567e+00   1.89887829e+00
C     5.611591713375906e+00   5.974884526167966e+00   3.961347299999999e+00  8.98794660e-01  -3.08691920e+00  -6.54988310e-01
C     6.969989763227787e+00   6.378723237149984e+00   3.642997200000000e+00 -9.42899970e-01  -8.15994610e-01   1.96275513e+00
C     8.019546440715160e+00   5.449019827231932e+00   3.617519100000000e+00  1.25183665e+00  -3.25530185e+00  -3.63810210e-01
C     9.416429094989271e+00   5.809325071071473e+00   3.489964500000000e+00 -8.75755180e-01  -2.11971527e+00   4.86181910e-01
C     1.041089146429683e+01   4.679660643202845e+00   3.541540800000000e+00 -3.15024870e+00   3.10791127e+00  -6.74521090e-01
C     1.166252918883541e+01   5.146943471472146e+00   3.789721800000000e+00  4.36217124e+00  -3.14893030e-01   1.80322297e+00
C     3.835340759867110e+00   4.165205071149680e+00   4.045259400000000e+00  7.66811740e-01  -9.15345800e-02  -2.49703170e+00
C     5.261698751197189e+00   4.542558850546871e+00   4.154850000000001e+00 -1.00104840e+00   1.94701956e+00  -2.03432077e+00
C     6.251407987284591e+00   3.604107383737122e+00   3.887604000000000e+00  3.37443894e+00  -9.27672610e-01   1.24830667e+00
C     7.758102330995664e+00   3.981201390733300e+00   3.768945600000000e+00 -5.34285482e+00   3.38906986e+00   3.88499430e-01
C     8.716992367788619e+00   3.032023132547343e+00   3.872753100000000e+00 -2.51760010e-01  -2.98332278e+00  -1.90510540e+00
C     1.001037501018285e+01   3.322834217607220e+00   3.502201800000000e+00  3.58983896e+00   5.72798460e-01   2.27870565e+00
C     2.191241311369633e+00   2.339938502374644e+00   3.695196000000000e+00 -1.32315822e+00   1.52508698e+00  -1.99880344e+00
C     3.556731644138273e+00   2.819787156680122e+00   3.600284100000000e+00  9.35538510e-01  -2.29584534e+00   3.22730141e+00
C     4.634392644466600e+00   1.756053426006069e+00   3.744439200000000e+00 -2.73857131e+00   1.96720181e+00  -5.43518160e-01
C     5.961611277226933e+00   2.196829848172058e+00   3.926073900000000e+00 -3.07492000e-01   3.57241800e-01  -9.75344500e-01
C     6.996622415674048e+00   1.229712054335378e+00   3.924114000000000e+00  1.27327533e+00   2.06376243e+00  -3.96641510e-01
C     8.385603207974681e+00   1.619947696947577e+00   3.888454500000000e+00 -2.32792240e+00   4.84535820e-01   1.10759480e+00
C     1.771089741622314e+00   9.841040609876860e-01   3.739860600000000e+00  2.94421832e+00   3.39608830e-01   9.03366210e-01
