52
Lattice="8.88768389401873 1.33226762955019e-15 0 4.44384194700937 7.69696003302603 0 0 0 30 " PBC="1 1 1" Properties=species:S:1:pos:R:3:force:R:3 Energy="-408.5558669"
C     1.302911461882722e+01   7.555142540842446e+00  -3.464783999999987e-01  5.79195845e+00  -5.05803285e+00   4.37106910e-01
C     9.376223524772545e+00   7.200665896955222e+00  -3.685724999999991e-01  1.58778245e+00   3.50847892e+00  -9.25921400e-02
C     1.074644508216763e+01   6.792068848313058e+00  -6.568593000000007e-01 -1.95636434e+00   6.46470684e+00   6.43247040e-01
C     1.099526863454067e+01   5.513245955658262e+00  -6.949131000000008e-01  4.62784905e+00  -5.31483585e+00   1.23648090e+00
C     7.089259281726876e+00   6.781259160677325e+00  -7.987050000000195e-02 -2.98789764e+00  -6.53977354e+00  -7.97476220e-01
C     8.416602919127222e+00   6.246211372668700e+00  -2.034854999999993e-01 -1.16532845e+00   2.04881160e+00  -5.82862400e-02
C     8.765064562461788e+00   4.919816571882887e+00  -3.408255000000011e-01  2.53697430e-01  -1.20713085e+00  -7.18404890e-01
C     1.008648798036015e+01   4.465435618924672e+00  -5.419854000000015e-01 -7.87398830e-01   2.04556742e+00   6.65864010e-01
C     1.042309109817487e+01   3.178520142494336e+00  -2.641302000000003e-01 -1.28528105e+00  -5.20645642e+00   1.67189987e+00
C     4.494844145130798e+00   6.058947259983611e+00  -4.405749000000014e-01  3.12928108e+00   1.53613122e+00   1.35996966e+00
C     6.008403868685281e+00   5.736760287057441e+00  -2.916120000000006e-01 -1.75708560e+00  -2.16403410e+00  -6.10020140e-01
C     6.371965553534647e+00   4.257882935357306e+00  -4.537046999999994e-01 -8.56597460e-01   1.56999233e+00   1.66686730e+00
C     7.827693517979724e+00   3.961939902197426e+00  -3.984020999999984e-01 -6.70319183e+00  -5.45860959e+00   2.10284000e-02
C     8.032848501899553e+00   2.403313731869658e+00  -3.717930000000003e-01 -2.83571184e+00   5.12081726e+00  -8.00417030e-01
C     9.315145802424478e+00   2.103268295983388e+00  -1.425801000000000e-01  3.90474462e+00   1.64450024e+00  -2.77702830e-01
C     3.484130022309109e+00   5.059032026732699e+00  -4.656380999999996e-01  1.73840840e+00  -2.11063540e-01  -1.23710582e+00
C     3.847498888886774e+00   3.626788785553527e+00  -3.623550000000009e-01  1.16824486e+00   1.06958500e-01   1.67000816e+00
C     5.213993884790861e+00   3.103758646087742e+00  -3.149675999999992e-01  2.18080657e+00   8.99249979e+00  -1.89900232e+00
C     5.632732711050184e+00   1.849921163264731e+00  -5.107733999999979e-01 -2.14945860e+00  -7.63195980e-01   1.37959711e+00
C     6.953031081524792e+00   1.459370407108904e+00  -5.513522999999978e-01  1.81389173e+00   3.50585137e+00   3.63618800e-01
C     7.333287303045280e+00   1.790529187554843e-01  -5.765715000000000e-01 -4.31914488e+00  -3.26613035e+00  -5.40611130e-01
C     2.856724951466094e+00   2.653816068161226e+00  -4.355999999994253e-04 -4.57028790e-01   3.97984591e+00  -2.42647423e+00
C     3.260968098578476e+00   1.342084899867767e+00   1.299036000000000e-01 -1.50089984e+00  -1.32271372e+00  -7.62766670e-01
C     4.574287059794331e+00   9.872872927472931e-01  -2.197835999999995e-01  9.83067700e-01  -5.34069624e+00  -4.05176780e-01
C     7.504715398909413e-01   7.692428829630339e-01  -5.392679999999928e-02  2.86038593e+00  -2.27569749e+00   8.38319100e-02
C     2.211327342341852e+00   3.326894748871047e-01   1.049859000000000e-01 -1.28194795e+00   3.60848969e+00  -1.43123690e-01
C     2.210403424972941e-01   3.118795889019952e-01   3.886754400000000e+00 -1.92443440e-01  -2.83274052e+00  -3.27385320e-01
C     7.043642400256400e+00   7.435374917930834e+00   3.546586500000000e+00 -4.24351250e+00  -2.83780913e+00   8.60563340e-01
C     3.908542921285679e+00   6.169074979244850e-02   3.598199700000000e+00  2.47224016e+00   3.48176170e+00  -1.35115814e+00
C     9.422663894822463e+00   6.898476011034995e+00   3.552537900000000e+00  2.35081694e+00  -6.22750819e+00   2.35093530e-01
C     1.083001779602364e+01   7.197151311066325e+00   3.818706600000001e+00 -5.75531990e-01  -1.11477794e+00  -1.08283255e+00
C     1.188408812814523e+01   6.163174643625053e+00   3.849870300000000e+00 -3.87305264e+00  -6.37977690e-01   7.51132140e-01
C     4.335613645145052e+00   6.538853179671713e+00   3.933556800000000e+00 -1.69546035e+00   3.46996525e+00   3.88930600e-02
C     5.281771719254195e+00   5.583469324431168e+00   3.944754300000000e+00  2.61908203e+00  -2.34513608e+00   3.45044410e-01
C     6.637660198274224e+00   6.033101022142072e+00   3.673389000000000e+00  1.94485574e+00  -1.99634225e+00  -1.26794241e+00
C     7.683769165366559e+00   5.010373846632647e+00   3.348359100000000e+00  8.74616850e-01  -1.18823454e+00   3.28371774e+00
C     9.167634026529806e+00   5.374352156768104e+00   3.359428200000000e+00 -2.68848917e+00   8.05964860e-01   7.94838250e-01
C     1.016986489815473e+01   4.277341389100348e+00   3.505488600000000e+00 -2.22833150e+00   4.38615314e+00  -3.33066210e-01
C     1.144739866722496e+01   4.715935954006634e+00   3.864511200000000e+00  3.49564420e-01   3.97495469e+00  -1.27214252e+00
C     3.570469382209735e+00   3.811571475294544e+00   3.884476800000000e+00  4.48970200e-01  -1.35610636e+00   3.33384480e-01
C     4.870924354645444e+00   4.139987521003391e+00   4.139402700000000e+00  4.87013968e+00   3.28584928e+00  -2.29806446e+00
C     5.941768768150393e+00   3.214390054413343e+00   3.927889200000001e+00  1.00941314e+00  -1.62827530e+00   9.56830370e-01
C     7.359500373441450e+00   3.506481066956610e+00   3.745041900000000e+00 -7.66714200e-02   4.99695615e+00  -1.91217641e+00
C     8.455587675631408e+00   2.617507737398910e+00   3.675198000000000e+00 -2.39295675e+00  -1.93213394e+00   8.42716610e-01
C     9.806581307094227e+00   2.923651551686549e+00   3.450808800000000e+00 -9.19181230e-01   2.88230455e+00   9.96586570e-01
C     1.960713899593721e+00   2.047952322426986e+00   3.559463100000000e+00 -1.02786728e+00  -1.36596442e+00  -6.40583810e-01
C     3.287068693924708e+00   2.498491953543029e+00   3.569133600000000e+00  4.84888120e-01  -3.00876829e+00   4.49113980e-01
C     4.298956256344092e+00   1.487496484511330e+00   3.568434300000000e+00 -1.37317355e+00  -1.21198644e+00   1.72123750e+00
C     5.602827387828071e+00   1.802783055801004e+00   3.927117600000000e+00  2.26786976e+00   1.18899922e+00  -1.60536814e+00
C     6.703743546391130e+00   8.552917403448216e-01   3.874223400000000e+00  8.03702400e-02   7.41884240e-01   1.39631277e+00
C     8.090921160943882e+00   1.242668347153877e+00   3.979622100000000e+00 -8.59620430e-01   1.30171450e+00  -1.65819073e+00
C     1.539989118680779e+00   7.026835750428095e-01   3.633749100000000e+00  2.39652051e+00  -8.24853870e-01   2.96731100e-01
