64
Lattice="9.86 0 0 4.93 8.53901048131456 0 0 0 30 " PBC="1 1 1" Properties=species:S:1:pos:R:3:force:R:3 Energy="-509.10449569"
C     4.983434248700000e+00   8.466479185691727e+00  -1.450500000000012e-01 -2.86272290e+00   5.64420830e+00  -4.90347900e-02
C     1.244312723700000e+00   6.622442386279720e-01  -1.909128000000031e-01  1.22639105e+00   4.29777480e-01   3.99819900e-01
C     9.814452962500001e+00   2.877193964204560e-02   3.513088200000000e+00 -1.15007780e-01   6.10865480e-01  -5.88034860e-01
C     1.197530031000000e+00   7.059145314148928e-01   3.502783500000000e+00  8.10913220e-01   1.24339973e+00  -7.10592000e-02
C     7.429269662499999e+00   8.515465097892553e+00  -1.052174999999984e-01 -5.20058120e-01  -1.75822909e+00  -7.57787300e-01
C     3.704952040100000e+00   6.377169557054295e-01  -1.008402000000004e-01  1.79347532e+00   3.52072275e+00   6.68689240e-01
C     7.304539430000000e+00   8.466907929407929e+00   3.456182700000000e+00  3.84048961e+00   3.60891267e+00   8.91893700e-02
C     3.740302654400000e+00   6.912031825995295e-01   3.474855600000000e+00 -3.71553727e+00  -2.17034090e-01  -1.01487610e-01
C     9.918993809700000e+00   8.494700615328128e+00  -6.502019999999931e-02 -2.61984153e+00   2.02840233e+00  -1.54426450e-01
C     6.184305094200000e+00   8.062081127660561e-01  -9.744299999999839e-02 -1.04272803e+00  -9.26795748e+00   2.61490280e-01
C     4.983395844000000e+00   2.514687352297120e-02   3.484757100000000e+00 -4.01553351e+00  -2.47049657e+00  -9.69541500e-01
C     6.158523856400000e+00   6.623298849030864e-01   3.417583200000000e+00  3.29575852e+00   1.93371672e+00   2.71191180e-01
C     7.373607300300000e+00   3.653304626731760e-02  -8.752499999999941e-02  2.11072715e+00  -9.75258600e-01   6.74782460e-01
C     8.626332625299998e+00   7.245325629149607e-01  -7.967130000000111e-02  5.01258080e-01  -1.14983013e+00  -3.49160290e-01
C     7.395059751600000e+00   8.208721554633600e-03   3.451101000000000e+00  1.81055124e+00   1.33770370e-01   2.00678280e-01
C     8.613710247699998e+00   7.732349799678504e-01   3.560583000000000e+00 -7.82034540e-01   9.76735790e-01  -9.87901100e-01
C     1.222810578000000e+00   2.099840534092101e+00  -1.723910999999987e-01  2.59564970e-01  -3.15766520e-01   1.31601604e+00
C     2.396328551000000e+00   2.888484756201845e+00   2.348490000000000e-02  2.56340898e+00  -6.82452669e+00  -7.11500430e-01
C     1.285595114000000e+00   2.183860640050689e+00   3.513278100000000e+00 -4.45175671e+00  -1.99756463e+00   3.42770070e-01
C     2.422426048300000e+00   2.910232505823042e+00   3.610676400000000e+00  4.33274098e+00  -7.79953419e+00  -1.00411795e+00
C     3.672050945600000e+00   2.168377023127515e+00   2.439210000000000e-02 -4.78031390e-01  -2.40144238e+00  -1.03721247e+00
C     4.871989725300000e+00   2.863944750153687e+00  -6.389999999999674e-03  1.27139317e+00   4.64777870e-01  -2.70105410e-01
C     3.698609250000000e+00   2.098747028410032e+00   3.432058800000000e+00 -2.74560570e-01  -3.54749440e-01   7.38934880e-01
C     4.979115174300000e+00   2.686795121856445e+00   3.325088700000000e+00 -2.96094462e+00   5.25509032e+00   8.20890330e-01
C     6.145722223999999e+00   2.084699502269384e+00  -1.625712000000021e-01 -2.81798563e+00   7.88461514e+00   5.14451600e-01
C     7.310910222500000e+00   2.823528588870589e+00  -2.011055999999982e-01  4.43054902e+00   1.50144145e+00   7.80163640e-01
C     6.202475595200000e+00   2.068158243508157e+00   3.379126500000000e+00  8.13956300e-02   1.43267789e+00   3.53359530e-01
C     7.359278255300000e+00   2.922066891227484e+00   3.493265400000000e+00  1.30860066e+00  -8.26915620e-01  -3.65573200e-01
C     8.583443991699999e+00   2.138859627870566e+00  -5.295990000000117e-02  1.15401941e+00  -6.06354520e-01  -1.34055223e+00
C     9.895235350899998e+00   2.790806076029972e+00  -6.521369999999749e-02 -3.20883480e+00   2.00303987e+00   8.61540400e-02
C     8.610483611999999e+00   2.275746370122826e+00   3.495375900000000e+00  5.85162650e-01  -3.70643215e+00   5.08725090e-01
C     9.877152801099999e+00   2.923924638347513e+00   3.480230100000000e+00 -2.66740460e-01  -1.29321418e+00   5.67170500e-01
C     2.494464292900000e+00   4.175440439843473e+00   1.606788000000000e-01 -9.60087060e-01   7.93508147e+00   4.21053540e-01
C     3.709944651100000e+00   5.010992520563629e+00   4.143720000000000e-02 -1.97263591e+00  -1.37046241e+00   1.14072863e+00
C     2.466375322100000e+00   4.189562596935716e+00   3.662838900000000e+00  1.60373200e-01   8.38521906e+00  -1.05509220e+00
C     3.688281393000000e+00   4.968220531679205e+00   3.508752300000000e+00  5.61138990e-01  -1.60704892e+00  -4.30617850e-01
C     4.893697945000000e+00   4.353167732199687e+00   5.016840000000000e-02  3.24928524e+00  -4.04821829e+00  -7.37343990e-01
C     6.180627659299999e+00   4.975929464950443e+00  -2.249039999999880e-02  5.24403070e-01   1.61258530e+00  -1.69502781e+00
C     4.853267655900000e+00   4.200419777980827e+00   3.362538000000000e+00  4.21287649e+00   1.15826842e+00   6.69194850e-01
C     6.153794606000000e+00   5.078713790268518e+00   3.417058800000000e+00 -1.27203291e+00  -4.73290900e+00  -3.39069080e-01
C     7.464466608700000e+00   4.262289861534505e+00  -2.038022999999995e-01 -3.31345995e+00  -1.36187740e-01   6.38452060e-01
C     8.708149377000000e+00   4.995879240524973e+00  -1.877921999999970e-01 -1.89913314e+00  -5.45778722e+00   9.35140640e-01
C     7.434100865300000e+00   4.347996934403522e+00   3.502185600000000e+00 -5.54698234e+00  -1.37348824e+00  -7.15642020e-01
C     8.598607833599999e+00   5.004596374763586e+00   3.428546100000000e+00  2.82289414e+00   1.08058585e+00  -1.91114140e-01
C     9.883203735199999e+00   4.248687132449760e+00   5.228370000000000e-02  2.05183551e+00  -4.38019360e-01  -3.73759410e-01
C     1.113529141400000e+01   4.940862737562751e+00   2.687709000000000e-01 -1.47292198e+00   1.22481222e+00  -1.56634947e+00
C     9.833628542600000e+00   4.318257183313674e+00   3.485978700000000e+00  2.83475025e+00   1.03119840e-01  -6.51556700e-02
C     1.114884738570000e+01   4.935149883381317e+00   3.510957000000000e+00 -2.79383550e+00   3.70791068e+00  -1.33596160e-01
C     1.355214468890000e+01   6.396338354730323e+00   3.479040000000000e-02 -1.41904640e-01   1.81511111e+00  -5.74260140e-01
C     4.913563379999999e+00   7.143217508071444e+00  -1.620618000000000e-01  4.97063960e-01  -4.34313182e+00   7.54084190e-01
C     3.756187607400000e+00   6.395580346770014e+00   3.391255500000000e+00 -3.53298123e+00  -7.10136000e-01   6.48638000e-01
C     4.880476769600000e+00   7.143968257872847e+00   3.366173400000000e+00  2.55287609e+00   7.82074210e-01   5.65573940e-01
C     6.147092172399999e+00   6.437806949055082e+00  -1.728345000000004e-01  1.64407864e+00  -2.35162137e+00   7.14966350e-01
C     7.455052280699999e+00   7.056222837812149e+00  -1.428797999999993e-01 -4.17355632e+00   1.97109703e+00  -3.53355410e-01
C     6.122497536300000e+00   6.445578900223664e+00   3.367710000000000e+00 -4.23144860e-01  -5.03893100e-02   1.07703900e-02
C     7.355361222399999e+00   7.104455694678743e+00   3.363635700000000e+00  6.35760000e-01  -5.91265910e-01   6.15854900e-02
C     8.594387901499999e+00   6.309747494276627e+00  -1.146336000000012e-01  3.29706894e+00   5.07706532e+00   3.35527240e-01
C     9.829207860899999e+00   7.090350530217354e+00  -4.662599999999628e-03  1.53614835e+00  -4.26799030e-01   2.83935800e-01
C     8.597055918899999e+00   6.390672038156005e+00   3.308509800000000e+00  8.87486540e-01   2.39255385e+00   9.95145680e-01
C     9.842411485500000e+00   7.144143905318420e+00   3.384139200000000e+00  1.42955142e+00  -1.39555674e+00  -9.57258200e-02
C     1.107344042280000e+01   6.434996248365485e+00   1.858689000000000e-01  1.36537216e+00  -2.64803055e+00  -4.34517040e-01
C     1.234205661680000e+01   7.117495446802542e+00   8.610990000000000e-02 -2.01408596e+00   1.38839989e+00  -4.52197280e-01
C     1.114241639790000e+01   6.477120809475315e+00   3.366079500000000e+00 -1.29329042e+00  -3.61680571e+00   9.96236510e-01
C     1.238354858140000e+01   7.135456059885754e+00   3.399091200000000e+00 -7.39637970e-01  -4.89173300e-02   2.37193560e-01
