64
Lattice="9.86 0 0 4.93 8.53901048131456 0 0 0 30 " PBC="1 1 1" Properties=species:S:1:pos:R:3:force:R:3 Energy="-514.01877676"
C     9.852117077899999e+00   2.867557690877880e-01  -1.501229999999971e-01  2.71209531e+00  -1.16322145e+00   6.75307800e-02
C     1.286379230500000e+00   1.021528398760470e+00  -1.058252999999993e-01 -3.08213301e+00  -9.51157890e-01   4.95257420e-01
C     1.232957947700000e+00   4.724177661523320e-01   3.413806200000000e+00  5.88636980e-01   2.22389990e-01  -6.28547910e-01
C     2.481234095600000e+00   1.144049109781178e+00   3.421383900000000e+00 -6.57551700e-01   9.30398630e-01   6.16503690e-01
C     2.488189093100000e+00   3.045015406673240e-01  -1.282992000000007e-01 -6.70951300e-02  -1.25820271e+00  -2.07498140e-01
C     3.725565405400000e+00   9.699385153137680e-01  -9.482429999999908e-02 -7.71482260e-01  -1.01563957e+00  -1.40986300e-02
C     3.726230018699999e+00   4.863454045858408e-01   3.436590000000000e+00 -2.24599093e+00  -1.97420767e+00   6.00896100e-02
C     4.879826354700000e+00   1.187239851739541e+00   3.443779200000000e+00  3.66037174e+00   1.17128388e+00   6.00638790e-01
C     4.925210406400000e+00   2.565485925642640e-01  -1.080437999999972e-01  1.21261122e+00  -1.11574526e+00  -9.74561000e-02
C     6.185502985599999e+00   9.154278633323825e-01  -1.575167999999998e-01 -1.02584033e+00   2.30840600e+00   5.90822930e-01
C     6.096108478800000e+00   4.148722644562496e-01   3.514013100000000e+00  2.32189624e+00   2.22248857e+00  -8.67740430e-01
C     7.385889113499999e+00   1.114112790670079e+00   3.441785100000000e+00 -3.02069950e-01   1.43264684e+00  -6.93257000e-02
C     7.422519900900000e+00   2.235600895471944e-01  -1.277316000000006e-01 -1.08078524e+00   1.21494833e+00  -1.24743400e-02
C     8.644242230700000e+00   9.498483584069479e-01  -1.583462999999981e-01 -4.91433580e-01   8.87473120e-01   1.24445880e-01
C     8.652034785900000e+00   4.177971317159640e-01   3.353736900000000e+00 -1.75527817e+00   2.26943177e+00   4.28544300e-01
C     9.869024167800001e+00   1.190394418381168e+00   3.372987000000000e+00 -1.06871961e+00  -2.42490395e+00   3.72695860e-01
C     1.107618529890000e+01   2.421090148354478e+00   7.096260000000000e-02  8.45772200e-02  -2.09548300e-01  -7.71638490e-01
C     2.470442177700000e+00   3.061868766267511e+00   9.898020000000000e-02 -7.35915530e-01   2.76630094e+00   1.40566030e-01
C     2.440607050200000e+00   2.545237711651835e+00   3.550997700000000e+00  2.07930120e+00   1.07724712e+00  -7.78503110e-01
C     3.731930774899999e+00   3.311772300876239e+00   3.558566400000000e+00 -2.50425764e+00   7.01207720e-01  -3.59500820e-01
C     3.656044665300000e+00   2.327436159992143e+00  -1.752839999999978e-02  2.14292852e+00   3.47258309e+00   3.99060910e-01
C     4.906078456800000e+00   3.084049956060674e+00  -2.128409999999903e-02  2.91752410e-01   4.47849480e-01  -6.26987260e-01
C     4.966716914499999e+00   2.650029899894177e+00   3.490720800000000e+00 -1.94709291e+00  -2.28402360e+00  -1.52828800e-01
C     6.176956140400000e+00   3.326317907498185e+00   3.466329300000000e+00  1.09501283e+00  -1.80310651e+00   1.12481060e-01
C     6.123453068900000e+00   2.390232384622482e+00  -1.275329999999997e-01  2.21204351e+00  -1.45401944e+00   1.96081840e-01
C     7.420061852200000e+00   3.100511289683808e+00  -1.239131999999969e-01 -2.57517095e+00  -1.17334334e+00  -6.89427130e-01
C     7.401489605499999e+00   2.589941224706836e+00   3.450472500000000e+00 -5.66970990e-01  -1.45599888e+00   2.01790110e-01
C     8.602667639300000e+00   3.319718533248718e+00   3.513489300000000e+00 -9.96879000e-03  -7.38800880e-01  -4.91070090e-01
C     8.643744793699998e+00   2.374681992637354e+00  -1.430790000000002e-01 -4.54967810e-01   1.36266287e+00   4.74262950e-01
C     9.832169361200000e+00   3.148989813881912e+00  -6.862800000000391e-03  1.97941453e+00  -1.35467328e+00   3.32792900e-02
C     9.821162741799998e+00   2.558879805574893e+00   3.495192900000000e+00  1.48131320e-01   1.77768036e+00  -4.43234940e-01
C     1.105963666930000e+01   3.228784048944054e+00   3.499503600000000e+00  1.14666563e+00   7.48824480e-01   8.24253790e-01
C     1.235660696950000e+01   4.543887641341849e+00   1.435020000000000e-01 -7.52871800e-02  -6.23475340e-01  -7.22855220e-01
C     3.732419978800000e+00   5.252263200967183e+00   1.849800000000000e-02 -5.15269200e-01  -3.02713020e-01  -2.61589090e-01
C     3.676025265100000e+00   4.775685399689205e+00   3.534373500000000e+00 -4.94301170e-01  -2.62224034e+00   6.58842650e-01
C     4.908196828499999e+00   5.413557509215055e+00   3.480255000000000e+00  1.14513393e+00   1.99331349e+00   3.64679630e-01
C     4.975969439900000e+00   4.528964866627001e+00  -6.383849999999924e-02 -1.59101068e+00   2.65342580e-01   3.97711220e-01
C     6.181148168700000e+00   5.282910648871055e+00  -1.588256999999977e-01 -1.29297410e-01  -1.80647762e+00   4.36181000e-03
C     6.196133495300000e+00   4.697183885423629e+00   3.479745300000000e+00 -4.41398446e+00   1.17199140e+00  -2.32423130e-01
C     7.331179325899999e+00   5.403456713718263e+00   3.445728600000000e+00  3.58391068e+00   4.07421865e+00  -7.63402100e-02
C     7.359678571300000e+00   4.494264718959215e+00  -2.163173999999977e-01  3.26025502e+00   1.67299527e+00   6.33764860e-01
C     8.668058124000000e+00   5.200063205221684e+00  -1.881789000000005e-01 -1.57624926e+00   1.45914805e+00  -2.57548000e-02
C     8.563171634499998e+00   4.751359637413990e+00   3.491188800000000e+00  2.55152114e+00  -1.77288781e+00   2.94771870e-01
C     9.872035806200000e+00   5.366840326708661e+00   3.550923300000000e+00 -1.63028489e+00   2.41251812e+00  -1.67667400e-01
C     9.930882159599999e+00   4.571454555824957e+00  -1.404120000000120e-02 -3.18799235e+00  -1.39511810e+00  -3.84231100e-01
C     1.110878911440000e+01   5.301521336822110e+00   5.671110000000000e-02  1.81941496e+00  -2.96444022e+00   3.28854010e-01
C     1.108590883650000e+01   4.636602509331593e+00   3.581061600000000e+00 -7.48510990e-01   1.76822991e+00   1.52781280e-01
C     1.226640630910000e+01   5.445830186983586e+00   3.650166000000000e+00  1.80174661e+00  -1.60111679e+00  -5.77494350e-01
C     1.354349510250000e+01   6.680056370839852e+00  -1.184453999999988e-01  4.10236080e-01  -6.00723800e-01   1.12615236e+00
C     4.932578192799999e+00   7.377762436870426e+00  -1.378479000000006e-01 -3.52475230e-01   1.15017735e+00  -1.77896840e-01
C     4.887083857000000e+00   6.864535800343021e+00   3.488829000000000e+00  2.62027456e+00  -2.14850290e-01  -1.23657140e+00
C     6.192182494700000e+00   7.619279894676851e+00   3.379053900000000e+00 -1.89418490e+00  -2.41929580e+00   5.50353930e-01
C     6.183910842100000e+00   6.697262476957052e+00  -1.439255999999993e-01 -3.70767250e-01   2.41546190e-01  -4.97038050e-01
C     7.400785798699999e+00   7.428034921780273e+00  -2.091159000000005e-01  4.94208050e-01  -1.63889304e+00   1.11683560e-01
C     7.420349123299999e+00   6.883845662472178e+00   3.395933100000000e+00 -1.16980710e+00  -7.13533870e-01   4.81279350e-01
C     8.661518528300000e+00   7.583708938720314e+00   3.480595500000000e+00 -2.16764300e-01  -6.11455450e-01  -5.31158840e-01
C     8.641579488400000e+00   6.643607689996077e+00  -2.378490000000006e-01 -1.47748198e+00   2.68852350e-01   8.64320400e-01
C     9.826430003099999e+00   7.364075854702767e+00  -8.051309999999745e-02  1.19960425e+00   3.11403500e-01  -5.95440130e-01
C     9.883821760000000e+00   6.855372246636514e+00   3.537389700000000e+00 -3.83399060e-01  -1.91557519e+00  -1.24083120e-01
C     1.110242187150000e+01   7.561431514279042e+00   3.519650400000000e+00 -9.38047160e-01  -6.58585920e-01   9.15064430e-01
C     1.107487465840000e+01   6.662982192434568e+00  -1.443270000000041e-02 -3.72095870e-01   2.04360054e+00   1.42162900e-01
C     1.228533257910000e+01   7.378475017294981e+00  -2.379419999999755e-02  2.08652303e+00  -8.27537530e-01  -7.86065280e-01
C     1.232138675370000e+01   6.839339485949370e+00   3.639470400000000e+00 -8.43038840e-01   1.39703981e+00  -1.45161446e+00
C     1.352726061250000e+01   7.577144318243500e+00   3.411663600000000e+00  1.07596681e+00  -2.16311124e+00   1.28787017e+00
