64
Lattice="9.86 0 0 4.93 8.53901048131456 0 0 0 30 " PBC="1 1 1" Properties=species:S:1:pos:R:3:force:R:3 Energy="-509.26139421"
C     4.946988681400000e+00   8.488633392211772e+00  -4.452008999999997e-01 -2.32585753e+00   3.16912971e+00   5.78155540e-01
C     1.192312858500000e+00   7.337401779155448e-01  -4.652741999999996e-01  2.07920204e+00  -2.52038302e+00   5.45579600e-01
C     4.829349120000000e-02   3.924717074838560e-02   3.574434600000000e+00 -3.26261505e+00  -2.49924664e+00   4.61882900e-02
C     1.200010560500000e+00   7.301650650077783e-01   3.678820800000000e+00  1.67909089e+00   2.09383490e+00   3.28730780e-01
C     2.457266949900000e+00   3.538574481922480e-02  -4.665683999999999e-01 -1.29121363e+00  -3.47881500e+00   2.28873170e-01
C     3.647248855100000e+00   6.380940384082263e-01  -2.200805999999993e-01  3.79259418e+00   2.77154273e+00  -7.26075510e-01
C     2.374464148900000e+00   4.096684206895280e-02   3.557720700000000e+00  4.83773883e+00   3.51699960e-01  -4.91555690e-01
C     3.750792264700000e+00   7.002401027806184e-01   3.542820300000000e+00 -3.67303769e+00   9.55566280e-01   1.22343630e-01
C     9.866976048600000e+00   8.509332295175712e+00  -1.838586000000006e-01 -4.02780160e-01   1.43299063e+00   5.92519800e-02
C     6.150593606300000e+00   7.506381965346264e-01  -3.000906000000008e-01  3.12742500e-01  -4.93907251e+00   1.91758515e+00
C     9.852689598800000e+00   8.504469670267770e+00   3.387669300000000e+00  1.27694910e+00   2.12899341e+00   5.26736030e-01
C     6.110312499000000e+00   7.474300049071857e-01   3.537303600000000e+00  2.05683300e+00   7.96117460e-01  -8.60675970e-01
C     1.228351671220000e+01   8.517614281440263e+00  -7.679100000000005e-02  1.86268579e+00   8.85091650e-01  -1.84380628e+00
C     8.584390995400000e+00   7.117917615480671e-01  -3.559385999999982e-01  1.17490112e+00  -1.95186464e+00  -5.27076000e-02
C     7.408536695400000e+00   3.577145192260640e-02   3.606806700000000e+00 -8.44663720e-01   3.15368000e-02  -1.20577737e+00
C     8.695265955900000e+00   7.102973493239624e-01   3.630629400000000e+00 -3.20073717e+00   1.96208009e+00   8.50951130e-01
C     1.236675660700000e+00   2.069394606835556e+00  -1.134209999999989e-01  1.14908255e+00   1.82721407e+00  -1.07183008e+00
C     2.475163194999999e+00   2.811667988703975e+00   7.517100000000000e-03  1.05048516e+00  -1.27264050e-01   1.27826009e+00
C     1.108604948940000e+01   2.140353698534252e+00   3.862395000000000e+00 -2.16431665e+00   1.03275900e+00  -4.23111970e-01
C     2.409961973000000e+00   2.864267097799307e+00   3.835423200000000e+00  4.08600149e+00  -1.40956415e+00  -4.62559500e-01
C     3.790881989400000e+00   2.104553213976013e+00  -1.271228999999998e-01 -4.41070073e+00  -8.86435860e-01   6.44083860e-01
C     4.961501418199999e+00   2.807134798820352e+00  -8.800229999999942e-02  1.87530279e+00   8.88917170e-01  -7.72649450e-01
C     3.746776779699999e+00   2.121100876995100e+00   3.658834500000000e+00 -2.31270160e+00   6.89666770e-01  -3.32005120e-01
C     4.917730018799999e+00   2.916919661100245e+00   3.456539100000000e+00 -2.52755769e+00  -1.78340986e+00   7.42062530e-01
C     6.241954492900000e+00   2.088455215248803e+00  -3.230462999999979e-01 -3.34077164e+00   3.50757930e+00   4.65728800e-01
C     7.409190216200000e+00   2.828223080662179e+00  -3.715788000000018e-01  1.84716461e+00  -5.25568260e-01  -1.13347654e+00
C     6.103031973599999e+00   2.246033175355569e+00   3.435809100000000e+00  2.75703134e+00  -4.31177390e+00   1.09296154e+00
C     7.383597353700000e+00   2.848596732716935e+00   3.581300100000000e+00  8.43602100e-02   1.60509757e+00  -4.29624130e-01
C     8.650857896300000e+00   2.128445621469367e+00  -5.010155999999988e-01 -3.36355470e-01  -1.22556542e+00   1.91614100e+00
C     9.900441726699999e+00   2.771854425390451e+00  -2.034791999999968e-01 -2.44253388e+00   1.77017874e+00  -3.07281200e-02
C     8.622245014400001e+00   2.181596948372441e+00   3.770822100000000e+00 -8.20557830e-01  -2.49794636e+00  -1.08576407e+00
C     9.812966518200000e+00   2.880920217597823e+00   3.818397300000000e+00  2.27286908e+00   1.17946268e+00  -4.07369470e-01
C     2.439639981400000e+00   4.204736162388361e+00   4.021653000000000e-01  1.22649053e+00   1.29685447e+00  -1.42458567e+00
C     3.786576226000000e+00   4.995775747717955e+00   3.420894000000000e-01 -2.83966042e+00  -1.35237975e+00  -1.95650517e+00
C     2.515280182600000e+00   4.262703064251632e+00   3.807828900000001e+00 -1.79521105e+00   2.53236078e+00  -5.85023500e-01
C     3.739047279200000e+00   5.043536824255529e+00   3.588053700000000e+00 -3.77264468e+00  -1.64886666e+00   7.32471520e-01
C     4.948004754399999e+00   4.272690974029879e+00  -3.674610000000200e-02 -1.02615009e+00  -2.63749384e+00   1.80002020e-01
C     6.124338348999999e+00   4.861876890622752e+00  -4.423983000000007e-01  1.71529220e+00   4.24439696e+00   1.55238680e+00
C     4.844205625700000e+00   4.283075179284502e+00   3.470231400000000e+00  4.64514022e+00   2.05014436e+00  -3.84422580e-01
C     6.135686716000000e+00   4.979904972059617e+00   3.379701900000000e+00  3.03672290e-01  -1.02574991e+00  -2.15666080e-01
C     7.394032388899999e+00   4.222501659082107e+00  -4.407882000000001e-01 -8.47590610e-01   2.02128500e-01   4.66601230e-01
C     8.603909407700000e+00   4.932026313347734e+00  -2.178099000000024e-01 -8.92055900e-02  -5.45933120e-01  -6.77743900e-01
C     7.412099211999999e+00   4.277532080631410e+00   3.455706300000000e+00 -1.19963462e+00   9.05318130e-01   1.96728940e-01
C     8.604432382100001e+00   5.067632118637889e+00   3.491227800000000e+00  1.16513995e+00  -1.67192272e+00  -4.36956100e-02
C     9.762045090499999e+00   4.172154628610769e+00   1.268400000000000e-02  4.37092132e+00   1.75750239e+00   7.34191930e-01
C     1.105471421220000e+01   4.964183629084680e+00   3.496605000000000e-01 -8.47858310e-01  -1.39923891e+00  -6.02409580e-01
C     9.859372854700000e+00   4.322809756751085e+00   3.623880900000000e+00  4.05109590e-01   1.70020910e-01   1.34011754e+00
C     1.113683997630000e+01   5.019990929807454e+00   3.744788400000000e+00 -1.35249781e+00   3.47521300e-02  -1.06861292e+00
C     3.687569402400000e+00   6.382083757585536e+00   1.515480000000000e-02  2.65827091e+00   6.56487250e-01   1.12337501e+00
C     4.956215028500000e+00   7.135696774591185e+00  -2.647025999999997e-01 -5.36228330e-01  -3.97081139e+00  -4.08338000e-03
C     1.352607741250000e+01   6.437985499764219e+00   3.533544600000000e+00 -3.46505200e-01   5.12786180e-01  -1.20380960e-01
C     4.873097644200000e+00   7.139950141101377e+00   3.495130500000000e+00  2.81460047e+00  -4.18673480e-01  -9.35205090e-01
C     6.168104670499999e+00   6.334862944241030e+00  -3.541382999999989e-01  9.24801600e-01   8.14800230e-01  -1.53010121e+00
C     7.461974592299999e+00   7.066227484050935e+00  -5.100824999999993e-01 -2.12095459e+00   3.69882340e-01   1.03219820e+00
C     6.133963582400000e+00   6.365352591231233e+00   3.314748000000000e+00 -1.76392800e-02   3.59184251e+00   1.26553694e+00
C     7.373908276800000e+00   7.219030258717076e+00   3.364218600000000e+00 -3.55568920e-01  -4.00808244e+00   1.58416310e-01
C     8.667824244799998e+00   6.327931573264101e+00  -2.970335999999989e-01  1.04830385e+00   2.97742897e+00   1.15012347e+00
C     9.961867406800000e+00   7.137119459127257e+00   2.923680000000000e-02 -4.74828141e+00  -1.80275741e+00  -1.50852574e+00
C     8.656811660100001e+00   6.480967462916347e+00   3.410632800000000e+00 -2.50041084e+00  -5.42606180e-01  -6.78532200e-01
C     9.897600222599999e+00   7.110244460663345e+00   3.338346300000000e+00 -2.20820451e+00   1.47441173e+00   9.10355370e-01
C     1.108346355650000e+01   6.428301749539269e+00   3.318285000000000e-01  2.44335333e+00  -2.37808902e+00  -7.49612210e-01
C     1.236114809110000e+01   7.093578788519423e+00   1.502889000000000e-01 -1.95881047e+00   1.10405576e+00   3.39412200e-02
C     1.108556871580000e+01   6.497088516971853e+00   3.530399400000000e+00  2.32622610e-01  -5.67567454e+00   2.64641870e-01
C     1.226589511740000e+01   7.120100528119779e+00   3.480376500000000e+00  3.75596520e+00   3.43455916e+00   1.30983986e+00
