64
Lattice="9.86 0 0 4.93 8.53901048131456 0 0 0 30 " PBC="1 1 1" Properties=species:S:1:pos:R:3:force:R:3 Energy="-513.49093772"
C     4.955389499999999e+00   8.285632080466540e+00  -9.623159999999942e-02 -1.16843550e-01   2.69477650e-01  -5.07378490e-01
C     1.262835029500000e+00   4.531418038947800e-01  -1.318421999999977e-01  3.04926750e-01   1.79957910e-01   1.19770330e-01
C     1.243881891000000e+00   9.467984800338063e-01   3.625375800000000e+00 -3.98802961e+00  -7.97722020e-01  -6.48286110e-01
C     2.385833912100000e+00   1.661675129897983e+00   3.590431200000000e+00  2.17645707e+00   9.78003770e-01   2.65039830e-01
C     7.423029169900000e+00   8.276320716488625e+00  -6.816720000000132e-02  2.81039200e-01   4.42154230e-01  -7.59584170e-01
C     3.719504907100000e+00   4.600105839248920e-01  -1.939586999999996e-01  3.12965840e-01  -1.09584180e-01   7.17783480e-01
C     3.599429925700000e+00   9.502770167330440e-01   3.664818300000000e+00  2.40073904e+00   6.83102670e-01  -3.58168040e-01
C     4.898271653900000e+00   1.627564344733527e+00   3.661971000000000e+00 -6.36517640e-01  -3.13370860e-01  -3.51594700e-02
C     9.890986282499998e+00   8.282609868487354e+00  -2.135262000000004e-01 -1.30107560e-01   3.34276397e+00  -2.51524970e-01
C     6.173038959599999e+00   5.054491350020112e-01  -2.697468000000001e-01  1.30214397e+00  -4.83773210e-01   8.59177900e-02
C     6.145663458400000e+00   9.132282142327345e-01   3.708689700000000e+00 -1.22848686e+00   1.32880899e+00  -9.00516880e-01
C     7.331150436100000e+00   1.667083226795387e+00   3.623418300000000e+00  1.89163433e+00   7.90204880e-01   8.86219200e-01
C     1.232158878510000e+01   8.316272184821401e+00  -2.857610999999984e-01  1.33318590e+00  -1.62868533e+00   6.56272330e-01
C     8.639032256000000e+00   4.640308354489808e-01  -1.508105999999998e-01 -5.20615400e-02  -8.19326230e-01  -4.87634200e-02
C     8.613954479899999e+00   9.789923427356072e-01   3.660555900000000e+00 -1.42136493e+00  -1.58929939e+00  -9.48659290e-01
C     9.849584142499999e+00   1.631440030810190e+00   3.635496000000000e+00  4.94046300e-02   2.57288582e+00  -7.76944060e-01
C     1.306851844300000e+00   1.877244498828099e+00  -3.015401999999980e-01 -9.92836960e-01  -9.09535200e-02   5.69152810e-01
C     2.525756728400000e+00   2.600703708125723e+00  -3.522356999999978e-01 -2.75387050e-01   2.32059370e-01   2.79721460e-01
C     2.364869530800000e+00   3.078635027954887e+00   3.569340000000000e+00  3.04232892e+00   5.00617100e-01  -9.67946400e-02
C     3.643175886300000e+00   3.768638394191871e+00   3.629474700000000e+00  2.57548910e-01  -7.30882490e-01  -3.97061730e-01
C     3.772196599200000e+00   1.905602808802493e+00  -2.164734000000017e-01 -2.55500895e+00  -1.56979852e+00  -5.01664590e-01
C     4.927381972799999e+00   2.612446042997191e+00  -1.802703000000001e-01  3.83556702e+00   1.72303695e+00  -9.80222520e-01
C     4.916114753600000e+00   3.029195352737153e+00   3.591370800000000e+00 -1.56423897e+00   1.60249945e+00   2.26419660e-01
C     6.115531249100000e+00   3.803136508871700e+00   3.567768900000000e+00  6.46674300e-02  -1.24752509e+00   4.26977830e-01
C     6.259398459800000e+00   1.928373446489090e+00  -2.494520999999992e-01 -3.95942559e+00  -1.88466670e-01   1.21472372e+00
C     7.438466133800000e+00   2.640393028836763e+00  -1.177194000000021e-01  1.36302405e+00  -7.36783600e-01  -8.42539920e-01
C     7.337079944299999e+00   3.112780908452415e+00   3.660725400000000e+00  1.76232724e+00  -9.37808430e-01  -2.65129420e-01
C     8.655762654699998e+00   3.805803583405023e+00   3.699754800000000e+00 -2.52814245e+00  -1.13318217e+00  -1.34928404e+00
C     8.663332571100000e+00   1.853444568818243e+00  -9.295709999999957e-02  8.71110790e-01   2.76509941e+00  -1.02134328e+00
C     9.929551897700000e+00   2.586660195320001e+00  -2.637092999999986e-01 -1.10368880e+00   3.86575020e-01   1.17625749e+00
C     9.847590499799999e+00   3.120980834826255e+00   3.507720000000000e+00  4.51832600e-02  -2.58120669e+00   1.33054119e+00
C     1.106750021650000e+01   3.827939772612956e+00   3.487184700000000e+00 -1.21319366e+00   7.25917650e-01   6.18487200e-01
C     2.467699421500000e+00   4.016144345438025e+00  -4.419059999999995e-01  1.64665923e+00   1.21383179e+00   4.62667090e-01
C     3.758617407200000e+00   4.781811200417451e+00  -4.187855999999996e-01 -3.06847450e+00  -2.56890823e+00  -4.83917700e-02
C     3.665636029599999e+00   5.186364070708620e+00   3.664237500000000e+00  9.90342000e-03   1.08470785e+00  -4.40467190e-01
C     4.921096518600000e+00   5.918277668892388e+00   3.653243400000000e+00 -1.74341069e+00   2.74161760e-01  -2.43033600e-01
C     4.923605297000000e+00   4.074894189172206e+00  -2.688990000000011e-01  1.93560340e+00  -2.24936489e+00   8.53280040e-01
C     6.175449877500000e+00   4.747386777398065e+00  -1.021581000000005e-01  9.22741640e-01  -1.35113380e-01  -1.84161517e+00
C     6.125973186300000e+00   5.205617063027981e+00   3.581840100000000e+00  2.06013290e-01   1.33185720e-01   1.17109930e+00
C     7.357444443199999e+00   5.862828408879041e+00   3.770127899999999e+00  3.91930690e-01   2.38951013e+00  -1.74740330e+00
C     7.433276766500000e+00   4.062040331306557e+00  -2.159538000000012e-01 -2.42840560e-01  -1.10358538e+00   1.32558031e+00
C     8.696182097799998e+00   4.710523783765800e+00  -2.375387999999994e-01 -2.63029807e+00   2.74259432e+00   3.33720340e-01
C     8.636700957599999e+00   5.195855693197769e+00   3.655594500000000e+00 -2.09130229e+00   1.56416714e+00   1.13409411e+00
C     9.782750203099999e+00   5.982492991674399e+00   3.672187800000000e+00  2.72313016e+00  -4.49494360e-01  -6.21297690e-01
C     9.887905870599999e+00   4.053355389137455e+00  -2.058753000000024e-01  2.08336928e+00  -2.62342822e+00  -1.23298488e+00
C     1.111111513770000e+01   4.766270628294375e+00  -3.531644999999983e-01  5.41155390e-01  -1.15205965e+00  -4.59399180e-01
C     1.105671367230000e+01   5.261112262917711e+00   3.602251800000000e+00 -3.49226650e-01   1.55256000e-01  -1.66499940e-01
C     1.229622541410000e+01   5.949999153534436e+00   3.639277200000000e+00 -2.82159000e-02   2.03731000e-03   3.78926650e-01
C     3.730153115499999e+00   6.148126398097683e+00  -4.003884000000006e-01  2.34868906e+00   1.88023499e+00   1.29323196e+00
C     4.971051419799999e+00   6.877189589193123e+00  -1.785599999999974e-01  7.51744100e-02  -7.23389630e-01  -5.35007570e-01
C     4.858410829100000e+00   7.348636640634089e+00   3.652495200000000e+00  6.16049800e-01   7.13450000e-03  -1.02617118e+00
C     6.095337821199999e+00   8.085188885480907e+00   3.572305200000000e+00  8.43339590e-01  -2.10911254e+00   1.29910304e+00
C     6.226171936000000e+00   6.153608698996159e+00  -1.683056999999977e-01 -2.38091593e+00   2.63403250e-01   8.90283280e-01
C     7.428928457200000e+00   6.842053268870020e+00  -7.985580000000070e-02  1.29693348e+00   9.54619500e-01  -6.51608900e-01
C     7.314661558099999e+00   7.330644091651681e+00   3.692000100000000e+00  1.49541389e+00  -2.43374560e-01  -2.24733550e-01
C     8.586204939599998e+00   8.090944349324637e+00   3.661113900000000e+00 -1.92547580e+00  -9.65668220e-01   3.70642230e-01
C     8.653984255799999e+00   6.153577616998011e+00  -2.303600999999986e-01  2.47342438e+00   6.45316810e-01   6.70728100e-01
C     9.959925479799999e+00   6.935569779163626e+00  -2.475789000000006e-01 -2.38587880e+00  -4.43313439e+00  -6.36232830e-01
C     9.825243302799999e+00   7.416284987189478e+00   3.661183500000000e+00 -9.33527940e-01  -2.07546173e+00   2.96661550e-01
C     1.107081421180000e+01   8.049213351207829e+00   3.672928200000000e+00 -1.30998450e+00   1.71197164e+00   3.31773080e-01
C     1.116997307660000e+01   6.177178417283474e+00  -4.256610000000016e-01 -1.39174740e+00  -8.06004600e-02   1.44514070e+00
C     1.239649076810000e+01   6.821033213721927e+00  -3.166974000000025e-01 -1.59340011e+00   3.75702461e+00  -1.13510329e+00
C     1.227487240090000e+01   7.411814900593304e+00   3.690039600000000e+00  6.28219010e-01  -4.14266428e+00  -9.16581800e-01
C     1.347764879000000e+01   8.045140072428659e+00   3.551168700000000e+00  2.34536193e+00   2.71099348e+00   1.80111702e+00
