64
Lattice="9.86 0 0 4.93 8.53901048131456 0 0 0 30 " PBC="1 1 1" Properties=species:S:1:pos:R:3:force:R:3 Energy="-515.35941723"
C     4.978356398000000e+00   8.185349087488373e+00  -1.915724999999995e-01 -6.41800570e-01   2.08524180e-01   9.79209600e-02
C     1.281283040200000e+00   3.690126547723616e-01  -2.114648999999993e-01 -2.62441650e-01  -4.09759210e-01   1.07559430e+00
C     9.827899882600001e+00   3.770910710270704e-01   3.444158100000000e+00 -3.40747110e-01  -1.12875109e+00  -4.20096700e-01
C     1.195427928300000e+00   1.071800115159374e+00   3.468675600000000e+00  8.19627100e-02   6.58203990e-01   2.03874160e-01
C     7.426120082699999e+00   8.176519494481738e+00  -2.011356000000006e-01  8.10500300e-02  -1.44733500e-01  -1.96685760e-01
C     3.714540890100000e+00   3.386789301135240e-01  -8.299829999999986e-02  2.25966400e-01   7.55409730e-01  -3.35592780e-01
C     2.424206813600000e+00   3.717864669366848e-01   3.299001600000000e+00 -1.18239520e-01  -1.04210438e+00  -1.00968980e-01
C     3.672225566200000e+00   1.036198333375005e+00   3.352032000000000e+00  2.48549690e-01   2.67110540e-01   4.44273710e-01
C     9.863617338200001e+00   8.144342539020688e+00  -8.681909999999959e-02  6.29359420e-01   2.34477944e+00   5.30632170e-01
C     6.151112784600000e+00   3.397369989021008e-01  -6.933629999999980e-02  1.55439588e+00   8.02731940e-01  -1.32545980e-01
C     4.916567130400000e+00   3.497727271390352e-01   3.336391200000000e+00  1.42327700e-02  -1.09899613e+00  -3.10564690e-01
C     6.142637276499999e+00   1.072621226407130e+00   3.360184200000000e+00 -1.10984959e+00   4.16569130e-01   1.64756770e-01
C     1.234649731430000e+01   8.179222774419497e+00  -7.091100000000239e-03 -1.71027210e-01  -1.23242810e-01  -4.33684380e-01
C     8.651156210600000e+00   3.398818205198416e-01  -1.717809000000017e-01  1.71572090e-01   8.71256870e-01   2.90677010e-01
C     7.352708142899999e+00   3.718198544676616e-01   3.466984200000000e+00  8.36400900e-01  -7.22386160e-01  -7.13397970e-01
C     8.593896429799999e+00   1.068125351999306e+00   3.437502600000000e+00  2.29284300e-02   7.79891850e-01   8.57269740e-01
C     1.281753263600000e+00   1.761548335763216e+00   8.139630000000000e-02 -6.80391100e-02   7.85848560e-01  -1.19706497e+00
C     2.503619204300000e+00   2.501801900092695e+00   1.581759000000000e-01  6.61905000e-02  -1.89975770e-01   4.14036350e-01
C     1.103458699420000e+01   2.497179648329766e+00   3.694029900000000e+00  9.12376470e-01  -9.85936950e-01  -6.56837190e-01
C     2.432757109800000e+00   3.159117934212240e+00   3.670080300000000e+00  2.39893510e-01   8.70998050e-01   3.08725670e-01
C     3.736442168599999e+00   1.792310462577835e+00   1.576860000000000e-02 -1.17464603e+00  -1.11028671e+00   2.01697330e-01
C     4.929847958800000e+00   2.505000015687770e+00  -2.820149999999799e-02  1.93222251e+00   3.02200560e-01  -2.30740820e-01
C     3.683526506600000e+00   2.431520293485483e+00   3.540417900000000e+00 -9.62335910e-01   1.64631447e+00  -3.35483250e-01
C     4.884049491300000e+00   3.185924193641790e+00   3.449054400000000e+00  6.17819150e-01   8.23695440e-01  -5.47251660e-01
C     6.185434113499999e+00   1.788778642453202e+00  -1.472574000000009e-01 -4.15524130e-01  -2.18013440e-01   2.50202760e-01
C     7.429945023199999e+00   2.520098523238296e+00  -1.933578000000011e-01 -8.79040800e-02  -1.08118099e+00  -1.64715590e-01
C     6.114553137100000e+00   2.500581675495103e+00   3.304350600000000e+00  8.52570310e-01  -6.01620580e-01   8.86197470e-01
C     7.381270640199999e+00   3.188131442460765e+00   3.367695600000000e+00 -1.38910794e+00   4.50248280e-01  -5.78351980e-01
C     8.677055028900000e+00   1.788211993717750e+00  -2.185305000000000e-01 -4.79434050e-01  -2.41493230e-01   9.45293590e-01
C     9.913396731399999e+00   2.485285831412384e+00  -1.098000000002486e-03 -7.23089390e-01   1.05909930e-01  -2.14691890e-01
C     8.587362109199999e+00   2.502379393371458e+00   3.512611200000000e+00  7.73349070e-01  -8.94871730e-01  -1.28499220e-01
C     9.815615456500000e+00   3.215640974793447e+00   3.686503800000000e+00 -3.65730180e-01   1.10896370e-01  -5.39125060e-01
C     2.500374524800000e+00   3.929269904446286e+00   3.407565000000000e-01 -4.99801840e-01  -4.91353440e-01  -8.94391710e-01
C     3.732960602600000e+00   4.648345271153584e+00   2.601153000000000e-01 -3.30716700e-02  -3.37410240e-01  -1.23396266e+00
C     1.228835442260000e+01   4.594538233635750e+00   3.723534900000000e+00  1.24715644e+00   9.98882510e-01  -4.87051110e-01
C     3.697521692000000e+00   5.349918569640445e+00   3.531171600000000e+00 -1.52875575e+00  -1.72481767e+00   5.98676860e-01
C     4.944557944900000e+00   3.941914898115594e+00   4.890000000000000e-03 -3.22487520e-01  -8.30783400e-01   2.87807410e-01
C     6.162000788200000e+00   4.623935485015246e+00  -1.897172999999981e-01  1.23795711e+00   8.51614330e-01   1.66475930e-01
C     4.918837050300001e+00   4.646312218148402e+00   3.397287900000000e+00 -8.87158700e-01  -1.55612521e+00   1.71302500e-01
C     6.136360400499999e+00   5.326023258883527e+00   3.208040400000000e+00  2.88397550e-01  -1.37817440e-01  -1.06315860e-01
C     7.414748594000001e+00   3.941979196864509e+00  -2.005707000000001e-01  2.60278480e-01  -6.22168680e-01   1.25279870e-01
C     8.667183147599999e+00   4.633802653185306e+00  -9.168120000000002e-02 -4.12328690e-01   3.28677080e-01  -3.07249020e-01
C     7.377608291100000e+00   4.591251995452522e+00   3.221045400000000e+00 -3.67821220e-01   1.26869978e+00   8.60831330e-01
C     8.572477009499998e+00   5.350338432785747e+00   3.358588500000000e+00  1.15997986e+00  -1.19077347e+00   2.37846420e-01
C     9.884406852400000e+00   3.921934382103337e+00   6.935910000000001e-02  2.15256500e-01  -7.20972030e-01   4.45708600e-02
C     1.110347324330000e+01   4.627421194483287e+00   2.421063000000000e-01  8.24498680e-01   3.99123850e-01   2.28344940e-01
C     9.820285300399998e+00   4.638061911612729e+00   3.631208100000000e+00 -6.37931540e-01   4.62143240e-01  -8.07535300e-02
C     1.105780192050000e+01   5.352931047147684e+00   3.731630700000000e+00  1.14413330e-01  -2.12891691e+00  -4.61608990e-01
C     3.723078959900000e+00   6.052706030027457e+00   7.413119999999999e-02  1.75749450e+00   3.46894600e-01   7.52985090e-01
C     4.984091861400000e+00   6.776766044102454e+00  -9.253979999999729e-02 -1.46775210e-01  -9.19391400e-01  -7.20980620e-01
C     1.354264812850000e+01   6.743302772102697e+00   3.506215200000000e+00 -1.27935840e+00   1.99833076e+00  -3.62511460e-01
C     4.880886797700000e+00   7.480629761370365e+00   3.354207300000000e+00  1.15599219e+00  -3.96777710e-01  -2.25024070e-01
C     6.235174855500000e+00   6.054181912598820e+00  -2.427182999999999e-01 -2.32505288e+00  -5.71816570e-01   5.52251240e-01
C     7.448588853500000e+00   6.737058364518883e+00  -2.864018999999978e-01  5.63065010e-01   1.33125072e+00   4.84199210e-01
C     6.114132657400000e+00   6.745877710712941e+00   3.149656200000000e+00  2.49309000e-01   1.06046882e+00   7.48153130e-01
C     7.357907518099999e+00   7.477130645655871e+00   3.133572900000000e+00 -5.97557910e-01   2.30761380e-01   6.91642830e-01
C     8.689889544400000e+00   6.063659104160258e+00  -1.426443000000006e-01 -2.31852640e-01  -9.60291390e-01   1.97763470e-01
C     9.911815483199998e+00   6.771659886615623e+00   1.773330000000000e-02 -4.17477000e-01  -1.61426306e+00  -3.04853450e-01
C     8.579167857600000e+00   6.760065105845252e+00   3.277488900000000e+00  5.67402520e-01   3.09201970e-01  -4.68508260e-01
C     9.847538636199999e+00   7.437516212066741e+00   3.336405000000000e+00 -1.17956411e+00   1.11645228e+00   8.26689720e-01
C     1.113529875970000e+01   6.059645000723714e+00   2.006094000000000e-01 -4.80448650e-01  -6.26497920e-01  -2.74742240e-01
C     1.237370785770000e+01   6.743601295909078e+00   1.532649000000000e-01 -7.57546540e-01   1.48342982e+00  -4.62417760e-01
C     1.104099086700000e+01   6.732472488940599e+00   3.578597400000000e+00  1.53563081e+00   2.02118716e+00  -6.36088590e-01
C     1.228666081970000e+01   7.493266301419299e+00   3.510288300000000e+00  1.52201500e-02  -1.54381246e+00   6.39483010e-01
