52
Lattice="8.88768389401873 1.33226762955019e-15 0 4.44384194700937 7.69696003302603 0 0 0 30 " PBC="1 1 1" Properties=species:S:1:pos:R:3:force:R:3 Energy="-411.44649193"
C     1.296226728171921e+01   7.061952668747367e+00  -3.318408000000019e-01 -4.89084968e+00   1.54886451e+00  -7.10886880e-01
C     9.141657238285905e+00   6.782177946796106e+00  -3.168068999999996e-01 -3.67371265e+00   1.58472763e+00  -1.33500740e+00
C     1.043413449194672e+01   6.494885450044342e+00  -7.408658999999993e-01  6.60833700e-02  -4.66315351e+00   1.40956840e+00
C     1.085153229988220e+01   5.025378762332730e+00  -7.353236999999986e-01 -4.90422978e+00   1.45448160e+00   5.88016340e-01
C     6.690802237767558e+00   6.166559689676646e+00  -3.959700000000055e-02 -4.68518550e-01   4.63270075e+00  -5.75520720e-01
C     8.021737699390568e+00   5.775877238534705e+00  -2.983493999999993e-01  2.30090591e+00   7.16409620e-01   4.42608250e-01
C     8.351211161573779e+00   4.406800793172935e+00  -4.828311000000021e-01  9.50522100e-02  -4.78145100e-02  -3.76695080e-01
C     9.733920581398888e+00   3.980169536271679e+00  -6.312971999999988e-01  8.83946250e-01   2.67210789e+00   1.42461606e+00
C     1.005812995732225e+01   2.659361343014840e+00  -1.951953000000017e-01  3.67357546e+00   2.43262525e+00  -1.50521891e+00
C     4.323967801332826e+00   5.704156734066364e+00  -5.119679999999995e-01 -2.34916684e+00   2.26057370e+00   1.33658391e+00
C     5.591195500516070e+00   5.334602207297973e+00  -3.390453000000022e-01  4.46165276e+00  -1.74014625e+00   7.44048550e-01
C     5.939144457793886e+00   3.990417653703622e+00  -4.275914999999983e-01  3.86158380e-01  -3.03671001e+00  -1.32673860e-01
C     7.217386530185467e+00   3.434159275970726e+00  -4.520754000000018e-01  3.66396011e+00   6.93974323e+00   4.75287100e-02
C     7.641546710318003e+00   2.204293744252349e+00  -4.531227000000015e-01  1.68379970e+00  -8.75691856e+00   1.14777030e-01
C     9.101486992416232e+00   1.713596224784586e+00  -2.275880999999984e-01 -4.39533386e+00   1.08446682e+00   4.78485200e-01
C     3.271986073644287e+00   4.766025075945863e+00  -4.993151999999981e-01  1.26386554e+00  -3.10026835e+00  -1.11791136e+00
C     3.640651022196268e+00   3.366270241235719e+00  -3.900851999999979e-01 -2.10131370e+00  -1.25055191e+00   1.40923386e+00
C     5.012222885404904e+00   2.957898867461633e+00  -3.982244999999978e-01 -3.76897538e+00  -1.99994200e-01  -1.10519470e+00
C     5.213388099259272e+00   1.567989291295462e+00  -5.931689999999996e-01  3.83404482e+00  -1.91698803e+00   1.70646123e+00
C     6.658116666023682e+00   1.120565158690763e+00  -5.933928000000002e-01 -1.28024866e+00   1.21302397e+00   5.15739000e-01
C     1.140926201735867e+01   7.425153585919795e+00  -5.563634999999998e-01  5.23450754e+00   2.76063146e+00   3.97045000e-03
C     2.594214631507592e+00   2.354176723886140e+00  -1.110068999999996e-01  1.29703147e+00  -7.16597210e-01  -1.75654400e-01
C     3.006111363077796e+00   9.106236466084856e-01   9.336570000000000e-02 -1.73240170e+00   2.49215365e+00  -1.15584476e+00
C     4.294196456604032e+00   5.134154048747097e-01  -2.603240999999983e-01  1.42127606e+00  -3.86860180e-01  -1.17230050e-01
C     5.574816164819812e-01   4.005675799388693e-01   6.052500000000000e-03  9.06250970e-01  -3.02487067e+00  -1.03608238e+00
C     6.415042115406347e+00   7.681745218199898e+00   1.353267000000000e-01 -1.61557053e+00  -2.98977195e+00  -3.80175980e-01
C     4.294971910299383e-01   5.556383876024799e-01   3.884342100000000e+00  1.62002083e+00   3.36578153e+00  -6.01505560e-01
C     2.885835047418317e+00   1.119753745164400e-03   3.644442600000000e+00  2.03080620e-01   1.68294640e+00  -3.64530680e-01
C     4.285197409994770e+00   4.516540739587862e-01   3.568639800000000e+00 -3.13596500e-02   4.53069000e-03  -1.10868180e-01
C     9.821421253430401e+00   7.220651130642718e+00   3.433277400000000e+00 -3.74339312e+00  -1.13859728e+00   1.19352209e+00
C     1.111197032448050e+01   7.563308630586275e+00   3.760343100000000e+00  5.06806200e-02   1.90322300e+00  -2.20763800e-01
C     1.203503041908973e+01   6.561285276952745e+00   3.914547000000000e+00  3.01322790e+00  -2.00304465e+00  -4.17101510e-01
C     4.549336313161160e+00   6.927155884711579e+00   3.977322000000000e+00  2.48206220e-01  -1.93276299e+00  -4.83675000e-02
C     5.642286396184659e+00   5.932661620409795e+00   3.949343400000000e+00 -1.26868601e+00   1.19148383e+00   5.91204840e-01
C     7.006207741625808e+00   6.332510150342662e+00   3.674692800000000e+00 -3.68490580e-01   7.17359310e-01   3.72785410e-01
C     8.083083470744842e+00   5.423958448404652e+00   3.565090800000000e+00 -2.71760786e+00   9.61479320e-01   4.15496300e-01
C     9.406214746532388e+00   5.820685322258152e+00   3.411592800000000e+00  6.32841700e-02   1.40186195e+00  -1.30558710e-01
C     1.033118493773212e+01   4.829882212108354e+00   3.466659600000000e+00  4.73097493e+00  -3.14819398e+00   5.59442740e-01
C     1.173262995119002e+01   5.150337292058174e+00   3.749044500000000e+00 -9.78967300e-01   1.34161750e+00   3.68201550e-01
C     3.853669608173328e+00   4.183628745586290e+00   3.984071700000000e+00  1.76841939e+00  -6.56718120e-01  -8.75944290e-01
C     5.273841727100717e+00   4.596650006853699e+00   4.198994100000000e+00  1.28184590e-01  -1.18008259e+00  -3.25436496e+00
C     6.389155578053043e+00   3.641190182617658e+00   3.896414700000000e+00 -4.72541519e+00   2.58424480e-01   2.62152179e+00
C     7.658609953678523e+00   4.131927880216779e+00   3.809217900000000e+00  4.42150223e+00  -4.20200372e+00  -7.76479170e-01
C     8.714145642664530e+00   3.071859518878611e+00   3.796262700000000e+00 -3.26442280e-01  -1.57481027e+00  -1.09990943e+00
C     1.009825393997386e+01   3.381605279551489e+00   3.504640200000000e+00 -2.64262283e+00   1.46410257e+00   1.58196854e+00
C     2.192233887933468e+00   2.381502394415045e+00   3.650746500000000e+00  9.77695460e-01  -1.07279747e+00  -7.68486950e-01
C     3.618184601155340e+00   2.768172035445346e+00   3.683747700000000e+00 -2.97061128e+00   2.13950212e+00   1.40517022e+00
C     4.619963978546947e+00   1.837869109310557e+00   3.745990800000000e+00  1.76769334e+00  -8.21741130e-01   4.31465600e-01
C     6.020465875491510e+00   2.254773486913101e+00   3.981113700000000e+00 -9.02892610e-01  -7.19536600e-02  -1.85487086e+00
C     7.024600266892135e+00   1.278693891604692e+00   3.896970900000000e+00 -1.85139984e+00  -1.49425230e+00   1.11910840e-01
C     8.339498881064008e+00   1.631753909998394e+00   3.879044700000000e+00  2.37876232e+00   1.55041954e+00   2.29104440e-01
C     1.808200532318126e+00   9.573192558400884e-01   3.724080900000000e+00  1.17593755e+00   1.37271611e+00   1.54857900e-01
