64
Lattice="9.86 0 0 4.93 8.53901048131456 0 0 0 30 " PBC="1 1 1" Properties=species:S:1:pos:R:3:force:R:3 Energy="-512.95539966"
C     4.933640558500000e+00   8.283919240354358e+00  -1.967391000000021e-01  5.78470990e-01   9.17452200e-02  -2.67600250e-01
C     1.236845203400000e+00   4.639172666095968e-01  -1.582292999999986e-01  3.86058340e-01   1.03942401e+00  -5.48206510e-01
C     9.845228142399998e+00   2.313585116482640e-01   3.666117300000000e+00  8.93246630e-01  -9.03848100e-02   3.37992130e-01
C     1.250283397400000e+00   9.524224431161441e-01   3.637073700000000e+00 -1.50768080e+00   1.47223980e-01   6.45571850e-01
C     7.406074899900000e+00   8.289093539144819e+00  -1.203999000000024e-01 -8.99710840e-01   2.74726440e-01  -9.25173920e-01
C     3.686063336700000e+00   4.497335432517928e-01  -3.550469999999990e-01  4.17543240e-01   1.97583950e-01   1.75460381e+00
C     2.467677137900000e+00   2.182522406328264e-01   3.874153800000000e+00 -4.47327810e-01   3.14004302e+00  -1.24476804e+00
C     3.686550913700000e+00   1.001743511478310e+00   3.800178300000000e+00  2.51257380e-01  -3.91451134e+00   6.43662220e-01
C     9.828219100100000e+00   8.251553316591385e+00  -2.766306000000007e-01  2.48431656e+00   2.21641097e+00  -4.78729500e-01
C     6.173240843099999e+00   4.184361912602872e-01  -2.191775999999983e-01  1.43650490e-01   9.37577510e-01  -1.48174007e+00
C     4.924581683500000e+00   2.835174347533528e-01   3.829056000000000e+00 -6.34359350e-01  -2.21202119e+00  -4.32905120e-01
C     6.137463044300000e+00   9.729668753805000e-01   3.747913200000000e+00 -4.45961480e-01   1.24528105e+00   9.46784710e-01
C     1.235507837370000e+01   8.256434727322382e+00  -3.900296999999995e-01 -1.36991843e+00   2.65193550e-01   1.27699174e+00
C     8.624644149600000e+00   4.627716729636000e-01  -2.968250999999995e-01  1.04448262e+00  -1.27367559e+00   6.88535200e-01
C     7.369707374500000e+00   2.833239407758760e-01   3.761046600000000e+00 -1.48683634e+00  -1.81815199e+00  -4.14619360e-01
C     8.581785490400000e+00   9.112364046481696e-01   3.715132200000000e+00  2.66408703e+00   1.95681643e+00  -5.61775370e-01
C     1.264945020200000e+00   1.911652697727573e+00  -3.716883000000024e-01  2.06483480e-01  -5.62582830e-01   3.31575810e-01
C     2.517162900300000e+00   2.643782930607218e+00  -4.645718999999993e-01 -1.65465864e+00  -2.00189701e+00  -5.26545550e-01
C     1.105734816330000e+01   2.408616191065084e+00   3.529331400000000e+00  9.99230090e-01  -1.30454650e+00  -3.48350000e-04
C     2.445744948300000e+00   3.110812837316985e+00   3.538150800000000e+00 -2.93416140e-01  -9.34237070e-01   1.85181900e-01
C     3.751673157099999e+00   1.892534963334215e+00  -3.923409000000007e-01 -2.81931070e+00  -9.95174840e-01  -3.67362030e-01
C     4.916282028500000e+00   2.580778354121167e+00  -3.942875999999984e-01  4.35182345e+00   5.24566490e-01   1.76152450e-01
C     3.688024293500000e+00   2.347895629102223e+00   3.726903300000000e+00 -1.71120124e+00   4.48951387e+00  -7.83572190e-01
C     4.861145154999999e+00   3.131838698992203e+00   3.767011200000000e+00  2.18716023e+00   7.35292700e-02  -4.06199800e-02
C     6.219803164800000e+00   1.863510098201752e+00  -2.686320000000002e-01 -1.44993537e+00   1.70402060e-01   8.95218360e-01
C     7.450867499499999e+00   2.599581255198127e+00  -1.139541000000008e-01 -1.23931571e+00  -1.56360330e-01  -9.85042610e-01
C     6.090052072400000e+00   2.401305346462422e+00   3.841524900000000e+00  1.93298453e+00   3.68120910e-01  -8.45408120e-01
C     7.411798481999999e+00   3.070414010225162e+00   3.801420900000000e+00 -2.46918935e+00  -9.41375500e-02  -4.56565200e-01
C     8.677168616099999e+00   1.854955632112783e+00  -1.607030999999992e-01 -6.98604180e-01   2.22796478e+00  -1.06537963e+00
C     9.880828806299998e+00   2.623306212695969e+00  -3.956030999999989e-01  5.52518550e-01  -1.06561930e+00   1.30784704e+00
C     8.612192300700000e+00   2.346330086920820e+00   3.668768700000000e+00 -2.34375920e-01   4.62406890e-01   3.21178040e-01
C     9.813026861399999e+00   3.109217835549426e+00   3.551673300000000e+00  1.06026231e+00  -1.64491394e+00   1.53003800e-01
C     2.434734483500000e+00   4.015662062126115e+00  -7.179396000000011e-01  3.27843694e+00   9.37754830e-01   6.80497550e-01
C     3.763677904300000e+00   4.722971184732601e+00  -6.258321000000002e-01 -3.21630225e+00  -2.42878380e-01   1.25081960e-01
C     1.227132063170000e+01   4.524786558018928e+00   3.476932200000000e+00  2.94550330e+00  -2.01490510e-01   7.92153230e-01
C     3.692309696000000e+00   5.256071428861053e+00   3.725017800000000e+00 -1.78478661e+00   9.92776950e-01  -7.90350420e-01
C     4.947553265000000e+00   4.012794235456406e+00  -4.574109000000028e-01  2.31307930e-01  -4.18216040e-01   9.43811720e-01
C     6.139915374199999e+00   4.735265395851390e+00  -1.560587999999967e-01  1.09130097e+00  -8.36090120e-01  -1.57309586e+00
C     4.929421020800000e+00   4.601576086073367e+00   3.736541100000000e+00 -6.09120060e-01  -2.46075093e+00   1.01121987e+00
C     6.180180853400000e+00   5.258451763422458e+00   3.937440600000000e+00 -1.54664250e-01  -1.80940590e+00  -1.05482751e+00
C     7.382166421200000e+00   4.050378519303917e+00  -1.605051000000017e-01  1.78797686e+00  -1.23347882e+00   4.15984670e-01
C     8.652409663099998e+00   4.756531203721097e+00  -2.711274000000010e-01 -1.25858686e+00   1.68218430e-01   1.36867970e-01
C     7.406240695799999e+00   4.488402944435009e+00   3.793769700000000e+00 -5.02872000e-01   5.74983060e-01   1.58143441e+00
C     8.614773845899999e+00   5.196961068104405e+00   3.867852000000000e+00  8.77815540e-01   1.18670206e+00  -1.14284488e+00
C     9.885068458399999e+00   4.043937372918643e+00  -4.181760000000025e-01 -7.30159360e-01   1.03789600e-02  -8.52480090e-01
C     1.109590603840000e+01   4.751346060387327e+00  -7.078014000000010e-01 -7.73916610e-01  -1.29778405e+00   6.20954990e-01
C     9.879358877500000e+00   4.508450064729010e+00   3.624265800000000e+00 -3.50371155e+00   4.27655200e-02  -6.57679300e-02
C     1.104844813290000e+01   5.192658260723533e+00   3.447817200000000e+00  1.73084544e+00   2.97723884e+00   1.79783492e+00
C     3.687566641600000e+00   6.113271950510525e+00  -4.460231999999991e-01  2.84480352e+00   1.49781027e+00   8.47280400e-02
C     4.990828016200000e+00   6.866853458567502e+00  -2.313332999999993e-01 -2.77632879e+00  -8.24048830e-01  -7.88832670e-01
C     1.353911504400000e+01   6.699367086870057e+00   3.817224000000000e+00 -6.26739410e-01  -1.36477513e+00  -1.33343529e+00
C     4.943360497200000e+00   7.340113939664105e+00   3.769127700000000e+00 -7.87391580e-01   1.24933420e+00   1.10336688e+00
C     6.205684088500000e+00   6.138688400594349e+00  -2.254778999999978e-01 -1.89020360e+00   5.52116900e-01   1.30342054e+00
C     7.393812313700000e+00   6.854981928467473e+00  -1.045718999999998e-01  1.19519040e+00   1.14710944e+00  -5.94743790e-01
C     6.166367535699999e+00   6.644197479449931e+00   3.984766200000000e+00 -2.78142100e-02   1.16651235e+00  -9.65361740e-01
C     7.385978297199999e+00   7.383213570380648e+00   3.965313900000000e+00 -7.88450600e-02  -1.55745373e+00   1.13074980e-01
C     8.611278574500000e+00   6.189406194900728e+00  -2.665922999999992e-01  2.84162699e+00  -1.12956239e+00  -1.29678030e-01
C     9.929397095699999e+00   6.882786142051820e+00  -3.957951000000008e-01 -3.80982508e+00  -1.98860709e+00  -2.33120290e-01
C     8.584816454399999e+00   6.647489011819657e+00   3.908823600000000e+00  1.90530546e+00  -8.44161210e-01  -1.18944340e-01
C     9.851083651299998e+00   7.331955000540570e+00   3.798803100000000e+00 -9.06657750e-01   1.93218940e+00   5.29062230e-01
C     1.109254905350000e+01   6.146366849598174e+00  -6.924138000000006e-01  8.68291070e-01   1.27290404e+00   1.73826389e+00
C     1.233423645360000e+01   6.828203335431878e+00  -4.776161999999999e-01  3.06720800e-01   4.28423560e-01  -1.01264562e+00
C     1.108613872240000e+01   6.652272907050971e+00   3.719380500000000e+00 -1.26090531e+00  -1.15897531e+00  -1.41614816e+00
C     1.226915493200000e+01   7.400363148248470e+00   3.701003100000000e+00  1.96072810e+00  -5.44342960e-01   8.75063080e-01
