52
Lattice="8.88768389401873 1.33226762955019e-15 0 4.44384194700937 7.69696003302603 0 0 0 30 " PBC="1 1 1" Properties=species:S:1:pos:R:3:force:R:3 Energy="-414.5437489"
C     4.264382636513439e+00   7.279428119246210e+00  -3.548529000000009e-01 -2.29730855e+00   2.21799411e+00  -6.21715020e-01
C     9.313775191568059e+00   7.205852724380239e+00  -3.841505999999981e-01 -1.10912978e+00   8.53830900e-01  -7.98462290e-01
C     1.064291236366175e+01   6.800638951488860e+00  -7.180919999999986e-01  2.74261009e+00   7.16174470e-01   1.60637126e+00
C     1.108856331884927e+01   5.419318797868169e+00  -7.019786999999980e-01 -2.72920203e+00  -3.39086740e-01   8.25873430e-01
C     6.865882322747384e+00   6.547737780634343e+00  -1.256394000000007e-01  2.90288249e+00  -4.29486140e-01  -8.99928400e-01
C     8.259284959512167e+00   6.224894333987214e+00  -3.359094000000020e-01  5.80458400e-01  -2.25630120e-01   2.31482450e-01
C     8.620714266876465e+00   4.857224585040526e+00  -4.901345999999975e-01 -4.14919600e-02  -9.45693510e-01   4.24236900e-01
C     9.990249917260211e+00   4.437660522899614e+00  -5.450172000000002e-01  1.35271328e+00  -6.87989780e-01   5.81507680e-01
C     1.033891979897832e+01   3.034288270914571e+00  -2.400854999999993e-01  9.32421600e-02   1.37208715e+00  -1.14127870e+00
C     4.617982605378577e+00   5.901319291289234e+00  -4.834749000000009e-01 -1.78643933e+00   2.30041172e+00   2.66968090e-01
C     5.936508860553779e+00   5.497564092323540e+00  -3.910818000000020e-01 -7.89043550e-01   6.53306307e+00   1.40993377e+00
C     6.266324498643729e+00   4.246979575718009e+00  -4.090293000000003e-01  5.36280050e-01  -5.39722154e+00  -9.16798550e-01
C     7.585759341741090e+00   3.840274131972816e+00  -4.274190000000004e-01  3.10822618e+00  -5.82926920e-01  -5.90152700e-01
C     7.989921299810996e+00   2.451355462440907e+00  -4.985394000000021e-01 -1.83394075e+00   1.70203580e-01   5.64035590e-01
C     9.305497466047559e+00   2.009064817328217e+00  -2.880218999999968e-01  1.13633559e+00   1.07060869e+00   7.47328370e-01
C     3.555355787660751e+00   5.016607383652143e+00  -5.668796999999977e-01 -6.47244300e-01  -1.79832254e+00   4.87528160e-01
C     3.912633035725835e+00   3.623811062626720e+00  -3.020114999999990e-01 -3.14555396e+00   1.79325376e+00  -1.29274194e+00
C     5.225709185428396e+00   3.285301146564930e+00  -4.686441000000023e-01  1.56341252e+00  -2.45822597e+00   7.97442080e-01
C     5.530399696575619e+00   1.891473586834688e+00  -4.960107000000029e-01  1.19409705e+00  -7.13605830e-01   3.88153470e-01
C     6.968464277958513e+00   1.442826099402821e+00  -5.691428999999992e-01 -1.36944343e+00   1.56195295e+00   4.48581510e-01
C     7.333300412326759e+00   9.860575494432999e-02  -5.658468000000028e-01 -1.45317378e+00  -3.10309623e+00  -3.78752870e-01
C     2.848650579558280e+00   2.699093589476902e+00  -1.589478000000000e-01 -1.62058998e+00  -2.29908408e+00   4.15541810e-01
C     3.106041503589612e+00   1.259694869405841e+00  -2.766749999999973e-02  1.86491461e+00   7.49086610e-01  -5.96982120e-01
C     4.475121837993275e+00   9.411176937641405e-01  -2.752202999999973e-01  1.69547830e+00  -2.14169255e+00  -2.45648370e-01
C     7.120914545147035e-01   6.333520530285800e-01  -7.464089999999857e-02  3.06378551e+00  -1.01735193e+00  -6.78543000e-01
C     2.148658416731906e+00   1.973182667242761e-01   4.524810000000000e-02 -2.99608310e+00   2.82212375e+00  -4.90995230e-01
C     2.815729354752105e-01   3.619847974876874e-01   3.888057300000000e+00 -1.86461929e+00  -2.40064510e-01   1.08407210e-01
C     7.102016752445344e+00   7.375344710295258e+00   3.707956200000000e+00 -3.07056990e-01   1.36219594e+00  -1.15995032e+00
C     4.030744086479122e+00   4.061285565909440e-02   3.579745200000000e+00 -2.19020077e+00   4.73074286e+00   1.01918897e+00
C     9.429341744922327e+00   6.794218070462234e+00   3.571742700000000e+00  2.02360641e+00  -2.43495518e+00   8.57828900e-02
C     1.080083259738646e+01   7.146545030382678e+00   3.768545100000000e+00  5.42631260e-01   2.91149154e+00   8.57760230e-01
C     1.190476599137932e+01   6.298200027373733e+00   3.933300000000000e+00 -1.51438343e+00  -2.76431403e+00  -1.23997395e+00
C     4.350535444353150e+00   6.684570795446068e+00   3.977408700000000e+00  2.58214605e+00  -3.86730050e-01   2.38149300e-01
C     5.426375091657019e+00   5.674899588387531e+00   3.989734500000000e+00 -1.58240323e+00  -7.12720750e-01  -3.38861960e-01
C     6.763388263048771e+00   5.985907650505329e+00   3.657940200000000e+00 -1.63592506e+00   2.80554057e+00   1.58165271e+00
C     7.735256362479035e+00   5.022282506221463e+00   3.603199200000000e+00  8.91035800e-02  -1.80534890e+00  -5.29593010e-01
C     9.063518631464982e+00   5.378130286568430e+00   3.506753400000000e+00  1.79601940e+00   4.18133356e+00   1.64710850e-01
C     1.016782601922760e+01   4.578534441727091e+00   3.557865600000000e+00  7.65684610e-01  -5.07777799e+00   4.75103540e-01
C     1.157171465692794e+01   4.891755841671116e+00   3.754602900000000e+00  9.35690000e-04   6.10379760e-01   1.21336955e+00
C     3.700332219810515e+00   3.900626072537646e+00   4.004323800000000e+00 -5.72497390e-01  -8.87156340e-01  -1.88439694e+00
C     5.109169297749323e+00   4.276377344856591e+00   4.138381499999999e+00 -2.35353020e+00   6.36321220e-01  -1.22189835e+00
C     6.086279886375733e+00   3.277023219991865e+00   3.984741300000000e+00 -1.42254618e+00  -8.81567020e-01  -3.76291970e-01
C     7.378793935478670e+00   3.652923274548189e+00   3.699167100000000e+00  1.33220883e+00   5.86703060e-01   1.10357250e+00
C     8.406170286846692e+00   2.705717054491518e+00   3.780338400000000e+00  1.07389832e+00  -6.39062820e-01  -9.34797200e-01
C     9.781471867152918e+00   3.148864063377147e+00   3.618119700000000e+00  1.17016793e+00  -9.24423870e-01  -2.88885800e-02
C     1.938501577884676e+00   2.141764949451835e+00   3.583127700000000e+00  3.64163190e-01  -3.65522950e-01   1.01624349e+00
C     3.341030666609766e+00   2.500258790717915e+00   3.667722600000000e+00 -2.13981280e-01   1.47605913e+00   1.46155607e+00
C     4.361950693316629e+00   1.530689899959682e+00   3.751225500000000e+00 -7.77155250e-01  -2.57895436e+00  -7.36561030e-01
C     5.712796522625531e+00   1.881741319663955e+00   3.899147400000000e+00 -1.33465140e-01   3.22330460e-01   5.76397180e-01
C     6.691788367283942e+00   8.562258434140623e-01   3.968963100000000e+00  6.71646460e-01   3.77137190e-01  -1.50583638e+00
C     8.063351343368554e+00   1.309708330227975e+00   3.897886200000000e+00  1.32853432e+00  -2.82017400e-01   2.13531150e-01
C     1.629357713149421e+00   7.319443382928575e-01   3.763196400000000e+00  8.77756070e-01   2.67143000e-02  -7.04417790e-01
