64
Lattice="9.86 0 0 4.93 8.53901048131456 0 0 0 30 " PBC="1 1 1" Properties=species:S:1:pos:R:3:force:R:3 Energy="-514.81346718"
C     9.876995928500000e+00   1.415828564558408e-01   7.953060000000001e-02 -3.03435330e+00   4.94794430e-01  -2.82983500e-01
C     1.204529792900000e+00   8.603827546850537e-01   5.922150000000000e-02  8.22406360e-01   6.31050240e-01   7.55834000e-03
C     1.282222057300000e+00   5.881831805922072e-01   3.353786400000000e+00 -1.05611060e+00  -2.24360822e+00   9.13217710e-01
C     2.494380285700000e+00   1.250974513621633e+00   3.369732000000000e+00  4.72697330e-01   1.32614254e+00  -5.09452340e-01
C     2.443640084800000e+00   1.414393156896720e-01   1.108629000000000e-01  1.39247550e-01   1.48900508e+00  -3.08569650e-01
C     3.673516536000000e+00   8.577113252563856e-01   4.733250000000000e-02 -8.48328180e-01   2.00290870e-01  -4.28791710e-01
C     3.703810745100000e+00   5.897077355233065e-01   3.384176100000000e+00  1.94321478e+00  -3.11961400e+00   5.79573560e-01
C     4.955945061700000e+00   1.252081169379841e+00   3.373470000000000e+00 -2.69915950e-01   1.61707577e+00  -1.59300510e-01
C     4.880179589199999e+00   1.534562651381760e-01   1.866810000000000e-02  7.56452380e-01  -3.11213740e-01   8.38350560e-01
C     6.133031023600000e+00   8.885265647161904e-01   6.792239999999999e-02 -1.56849176e+00  -1.83726905e+00  -3.14489770e-01
C     6.170415460100000e+00   5.367913167985368e-01   3.365451600000000e+00  9.62834080e-01   8.08055510e-01   9.69183580e-01
C     7.399641940100000e+00   1.259476123235730e+00   3.528715800000000e+00  1.94379640e+00  -8.62405600e-01  -4.07006570e-01
C     7.311648539300000e+00   1.181258531068616e-01   5.724210000000000e-02  2.56694384e+00   1.35938493e+00  -6.23044180e-01
C     8.600128886500000e+00   8.482551396607287e-01   7.969499999999999e-03 -5.38992260e-01   4.92900770e-01   4.56913820e-01
C     8.695351787200000e+00   5.582581329749424e-01   3.559575600000000e+00 -1.09342433e+00   5.98465370e-01  -1.14889777e+00
C     9.930867566799998e+00   1.292359767204106e+00   3.382815900000000e+00 -2.20078889e+00  -4.17475620e-01   1.13963007e+00
C     1.103622464160000e+01   2.306176841770402e+00  -3.564719999999966e-02  1.57169374e+00  -1.30780236e+00  -3.10611000e-02
C     2.420489889400000e+00   3.000717240445725e+00  -1.182026999999977e-01 -1.13910960e-01  -5.58514840e-01   3.44894900e-02
C     2.518375187300000e+00   2.659514520394732e+00   3.267463800000000e+00 -1.20761232e+00   1.46370808e+00  -2.51276420e-01
C     3.719588766400000e+00   3.414521445471136e+00   3.223908000000000e+00  1.72846124e+00  -9.72540310e-01   9.10584040e-01
C     3.638308497300000e+00   2.267385910351962e+00  -8.780099999999891e-02  5.89223010e-01   1.23037362e+00   7.49410740e-01
C     4.855532152800000e+00   3.025551244624709e+00  -4.432200000000108e-03  6.13526940e-01  -1.30199134e+00  -1.25456000e-02
C     5.000669183599999e+00   2.705289337704554e+00   3.370403400000000e+00 -1.14648879e+00  -1.20633928e+00  -2.00343480e-01
C     6.252172854599999e+00   3.348454438266538e+00   3.491682000000000e+00 -1.92949638e+00   2.48175745e+00  -4.37897020e-01
C     6.092882040300000e+00   2.285610208078797e+00   9.140580000000001e-02  7.98845400e-02   1.07032705e+00  -3.43983910e-01
C     7.321369710499999e+00   2.978975297351654e+00   9.837810000000000e-02  1.26778480e+00   1.93378557e+00  -5.31208230e-01
C     7.465605241500000e+00   2.666379543260233e+00   3.528296100000000e+00 -5.24624990e-01   3.57036030e-01  -8.03499000e-02
C     8.672867832000000e+00   3.425934857658913e+00   3.443896500000000e+00 -9.07058040e-01   1.26711960e-01   2.89610350e-01
C     8.568680860200001e+00   2.317445090780019e+00  -2.503529999999898e-02  7.67497420e-01  -2.08268619e+00   1.04191169e+00
C     9.852667117999999e+00   3.018728746031399e+00  -1.444440000000213e-02 -2.48884714e+00  -1.69368990e-01  -9.41149120e-01
C     9.843703983599999e+00   2.703312898338853e+00   3.402564900000000e+00  3.72221106e+00  -2.05269800e-02  -1.01590364e+00
C     1.113059889210000e+01   3.383304104007828e+00   3.237756600000000e+00 -6.29362490e-01   5.63151400e-01   2.08314750e-01
C     1.230556076350000e+01   4.416717524504885e+00  -1.545812999999967e-01 -4.94674310e-01   2.54069090e-01   1.38324280e-01
C     3.651587304400000e+00   5.134506318503162e+00  -6.137010000000132e-02  1.26113722e+00   9.17782260e-01  -6.32513220e-01
C     3.730303332600000e+00   4.817534492320950e+00   3.253445100000000e+00  4.23203010e-01   1.84166230e+00  -1.49723000e-02
C     5.000858249099999e+00   5.566737281193888e+00   3.338602200000000e+00 -1.63249830e+00  -3.06820412e+00   6.02441800e-01
C     4.887693500799999e+00   4.438580892327982e+00  -1.364310000000302e-02  6.00654920e-01   8.20225700e-02  -2.84375670e-01
C     6.154548945300000e+00   5.151107094167434e+00  -1.857120000000023e-02 -7.68934090e-01   2.96919870e-01   1.06907894e+00
C     6.206241868699999e+00   4.811651882611174e+00   3.486532200000000e+00 -2.01188090e-01  -2.99876710e-01  -5.21018200e-01
C     7.397006707199999e+00   5.542353026696887e+00   3.506170500000000e+00  2.30975641e+00  -8.56947100e-02   1.89561790e-01
C     7.393904208900000e+00   4.456659599926134e+00   1.028166000000000e-01 -3.65660624e+00  -3.24069819e+00  -5.15916380e-01
C     8.568816484499999e+00   5.108371054517130e+00   8.799630000000000e-02  3.52038224e+00   6.48992560e-01  -7.57840480e-01
C     8.679839591499999e+00   4.856861332037115e+00   3.410708100000000e+00 -1.50648703e+00  -4.56650480e-01   2.04594960e-01
C     9.893889263700000e+00   5.564995493836179e+00   3.291892200000000e+00  5.34125400e-01  -1.66147522e+00   4.39565580e-01
C     9.837081317399999e+00   4.422203070227342e+00  -1.231134000000011e-01  2.27067460e-01   6.25453370e-01   1.23447953e+00
C     1.108875684820000e+01   5.136897070657351e+00  -1.574694000000001e-01 -1.90384428e+00   3.77207590e-01   4.85261130e-01
C     1.111676871380000e+01   4.821186797883456e+00   3.164658900000000e+00  8.06567450e-01   1.13262820e-01   8.04030070e-01
C     1.236102370720000e+01   5.564570507284588e+00   3.239560200000000e+00 -4.64620120e-01  -1.15700060e+00  -3.68661440e-01
C     1.354092795290000e+01   6.574992215113722e+00  -8.449889999999982e-02 -2.38180419e+00  -1.31909899e+00   7.04305140e-01
C     4.876254717599999e+00   7.260649225016388e+00   8.492400000000000e-02  1.85234603e+00   6.14355180e-01  -8.75867040e-01
C     4.960574233100000e+00   6.946787733401516e+00   3.421707300000000e+00  2.02468760e-01   1.82581379e+00   1.22666760e-01
C     6.181601383599999e+00   7.672423194910073e+00   3.483915300000000e+00  1.15624082e+00   9.07336360e-01  -3.20957150e-01
C     6.133327809600000e+00   6.581160710894370e+00   4.108410000000000e-02  1.95349970e-01  -6.70680670e-01   3.86628920e-01
C     7.387260245099999e+00   7.295686236647608e+00   1.272906000000000e-01 -1.05976861e+00  -2.38189471e+00   3.61567700e-02
C     7.439696859000000e+00   6.963142927124384e+00   3.551955600000000e+00 -6.84178300e-01   2.77452970e-01  -5.82697810e-01
C     8.693442201000000e+00   7.654116581122211e+00   3.499250100000000e+00 -9.92761240e-01   1.43202699e+00  -2.79344090e-01
C     8.588647162999999e+00   6.500325314284401e+00   1.442592000000000e-01 -2.03024040e-01   2.74853806e+00  -4.35447910e-01
C     9.792967874599999e+00   7.257560664925771e+00   8.544990000000000e-02  7.31877920e-01   1.32719150e-01  -4.55261940e-01
C     9.933594941399999e+00   6.948914203181350e+00   3.435135300000000e+00 -1.68010759e+00   9.47368850e-01  -7.98131530e-01
C     1.113042737740000e+01   7.665076913413920e+00   3.335030100000000e+00 -7.42819040e-01   7.82148850e-01   3.48841250e-01
C     1.103893860660000e+01   6.581883281961187e+00  -3.160500000000255e-02 -5.64223440e-01  -2.40255925e+00  -3.78011250e-01
C     1.224491717860000e+01   7.233822386571581e+00  -5.874930000000234e-02  2.15210664e+00   1.95376249e+00   4.34654330e-01
C     1.232128810440000e+01   6.984871634752212e+00   3.316393500000000e+00  3.18163442e+00  -4.46128390e-01   3.99505410e-01
C     1.359621050790000e+01   7.700680573780595e+00   3.458158800000000e+00 -6.88873860e-01  -1.47102506e+00  -4.92389160e-01
