52
Lattice="8.88768389401873 1.33226762955019e-15 0 4.44384194700937 7.69696003302603 0 0 0 30 " PBC="1 1 1" Properties=species:S:1:pos:R:3:force:R:3 Energy="-417.26926327"
C     1.261258913565513e+01   6.853473963918793e+00  -1.473279000000005e-01  1.32138600e-01  -1.07220112e+00  -4.37616960e-01
C     8.771508356623844e+00   6.689667799347535e+00   1.729140000000000e-02  3.10728956e+00   1.61135240e-01  -4.14363900e-02
C     1.022605745857441e+01   6.234638146597991e+00  -1.466819999999913e-02 -9.93490080e-01   3.49268616e+00  -3.26393080e-01
C     1.058310304919132e+01   4.891748067741486e+00  -3.273030000000077e-02  7.77727460e-01  -1.58518870e+00  -1.62462460e-01
C     6.443107775869337e+00   6.080606428538431e+00  -5.474219999999974e-02 -4.23401990e-01  -2.08253981e+00   3.49544150e-01
C     7.772725904982622e+00   5.684459443653592e+00   5.233740000000000e-02  1.61587905e+00   1.06844275e+00  -1.02231280e+00
C     8.147311561941619e+00   4.330909306064337e+00  -9.934919999999892e-02  2.36513744e+00   1.36476870e-01   1.46395843e+00
C     9.548766751308015e+00   3.897750026452837e+00   4.493250000000000e-02 -1.00304672e+00   1.05849391e+00  -1.04958416e+00
C     9.859780582929226e+00   2.529732990669595e+00   1.604370000000000e-02 -7.33380580e-01  -1.37182389e+00  -6.52079140e-01
C     4.101136457240283e+00   5.428984948152244e+00  -2.534394000000013e-01 -6.76677200e-01   9.22174770e-01   8.18639520e-01
C     5.476120835573858e+00   5.049145589452565e+00  -1.799055000000003e-01 -1.68246775e+00   1.62946355e+00   2.98906890e-01
C     5.797287735094752e+00   3.705522606062003e+00  -1.074078000000007e-01 -6.30253540e-01  -6.17210140e-01  -1.49551869e+00
C     7.172608245668297e+00   3.379948508905032e+00  -1.633488000000014e-01 -1.18488998e+00  -3.93662179e+00   5.48577240e-01
C     7.488321617841171e+00   1.921337791751088e+00  -1.373499000000002e-01 -6.51464060e-01   2.52926207e+00   3.39216360e-01
C     8.803615866758639e+00   1.500438999771375e+00  -3.367409999999893e-02  2.69925457e+00   6.13823460e-01  -3.72371690e-01
C     3.098597537124106e+00   4.420685955127854e+00  -1.971212999999992e-01 -2.49282061e+00   2.96703263e+00   4.30388120e-01
C     3.365604935182053e+00   3.070011016957806e+00  -2.054007000000020e-01  7.89220800e-02  -2.16934100e-01  -1.91829720e-01
C     4.722885758247089e+00   2.729625659615105e+00  -2.387823000000004e-01  1.58766878e+00   4.84671420e-01   7.13870120e-01
C     5.070186492305064e+00   1.392638918192809e+00  -1.829330999999996e-01  1.10584330e-01  -1.43045172e+00   3.30139360e-01
C     6.434244974199872e+00   1.009299905706690e+00  -9.705870000000161e-02  4.06546420e-01  -2.10719491e+00  -5.79088400e-01
C     1.127059437350470e+01   7.312294523422310e+00  -9.822330000000079e-02 -2.12251049e+00  -2.02828607e+00   2.49379180e-01
C     2.322710286546521e+00   2.093293651541310e+00  -1.346303999999989e-01 -4.07832770e-01   1.31283513e+00   8.24843760e-01
C     2.657050999955077e+00   7.547348830024868e-01  -4.311119999999846e-02 -1.63227110e-01  -1.59077437e+00  -1.86487080e-01
C     4.032828115284125e+00   4.224689718258331e-01  -9.675719999999899e-02  1.15798990e-01  -2.64202811e+00   4.22918590e-01
C     3.181901929402279e-01   1.129381102769924e-01  -1.062255000000007e-01 -2.10848461e+00   1.06271203e+00   7.42686140e-01
C     6.067065738561776e+00   7.391164964971320e+00   2.377470000000000e-02  2.26926945e+00   3.26178875e+00  -8.80578850e-01
C     7.179470607494783e-01   8.523578900901865e-01   3.379683300000000e+00  7.16804180e-01  -1.12044725e+00   1.40895768e+00
C     3.097270647631204e+00   2.234656866117894e-01   3.277708500000000e+00  4.02917950e-01   1.25196842e+00   1.12263982e+00
C     4.456201602979052e+00   5.810024108981398e-01   3.353835900000000e+00  1.11437418e+00   1.53981768e+00   3.81852580e-01
C     9.944801281089660e+00   7.314483000067641e+00   3.448896600000000e+00  1.35507460e-01   1.93058677e+00   6.88913360e-01
C     6.859049378290596e+00   7.410625419923969e-02   3.605043600000000e+00  7.25287950e-01  -2.50658321e+00  -3.58492650e-01
C     1.234933429456762e+01   6.785448308143252e+00   3.660707700000000e+00 -1.55436580e-01  -4.87699630e-01  -8.17593040e-01
C     4.854730774343496e+00   7.122912284306567e+00   3.547661700000000e+00 -9.25599730e-01   2.27423498e+00  -7.29373910e-01
C     5.894669955773883e+00   6.186497664029557e+00   3.458271000000000e+00 -9.70787540e-01  -1.84527071e+00   7.28142810e-01
C     7.238770744046109e+00   6.570065199258966e+00   3.414239100000000e+00 -5.50005480e-01  -8.66003250e-01   3.07084970e-01
C     8.222575180669150e+00   5.567691864852873e+00   3.611297400000000e+00  1.13223653e+00   1.44480670e-01  -1.38942509e+00
C     9.596638439961959e+00   5.984634881194768e+00   3.545304600000000e+00  2.43019800e-02  -2.30520962e+00  -4.42257990e-01
C     1.062887439908906e+01   4.978481800626743e+00   3.454666800000000e+00 -3.97252890e-01   1.33948686e+00   1.80076374e+00
C     1.197969134348816e+01   5.426269691562460e+00   3.570632100000000e+00  1.47666288e+00  -1.76477381e+00  -5.07819360e-01
C     4.174412921710273e+00   4.425962067289218e+00   3.519567600000000e+00 -7.27392480e-01   5.88589000e-02  -3.45853900e-02
C     5.562883205423308e+00   4.777782490270089e+00   3.547009500000000e+00 -1.10838295e+00   6.39036820e-01  -1.61328540e-01
C     6.539066453096247e+00   3.753199885575832e+00   3.569630400000000e+00  4.60230970e-01   5.26869000e-01  -1.42211600e-02
C     7.914879652909537e+00   4.171617254611474e+00   3.567630300000000e+00 -1.51361043e+00   7.31303260e-01   4.68780220e-01
C     8.913753868607007e+00   3.206532766705919e+00   3.525225600000000e+00  6.97509620e-01  -2.56530720e-01   1.87825260e-01
C     1.026216953855393e+01   3.625407027288941e+00   3.552753300000000e+00  1.88485305e+00  -1.42531732e+00  -2.09415842e+00
C     2.438723624390104e+00   2.636332500422682e+00   3.314609100000000e+00 -1.80053410e-01   4.39405740e-01   2.03420868e+00
C     3.826203020268077e+00   3.052550924947353e+00   3.405404700000000e+00 -9.37423000e-02  -1.99501401e+00   1.32226950e-01
C     4.845820156873695e+00   1.957690380033577e+00   3.477714900000000e+00 -1.27564386e+00   1.83786080e+00  -5.73527350e-01
C     6.201307356940147e+00   2.367385784872024e+00   3.590411700000000e+00  1.48403760e-01   8.73761800e-02  -3.68026730e-01
C     7.255544066538310e+00   1.385978430800449e+00   3.592886100000000e+00 -1.42214103e+00   2.45053772e+00  -3.83506250e-01
C     8.590153874976096e+00   1.828061027083529e+00   3.470763300000000e+00  1.96152380e-01  -6.30193940e-01   3.96785410e-01
C     2.090198076843702e+00   1.246215491183703e+00   3.408252900000000e+00  1.61479380e-01  -3.29560700e-02  -1.91988467e+00
