64
Lattice="9.86 0 0 4.93 8.53901048131456 0 0 0 30 " PBC="1 1 1" Properties=species:S:1:pos:R:3:force:R:3 Energy="-512.88538797"
C     4.960506692100000e+00   8.478090190582012e+00  -1.832192999999975e-01  2.32409700e-02  -1.22670691e+00   2.37143570e-01
C     1.259943633800000e+00   6.423520159840784e-01  -1.202612999999992e-01  9.73442500e-02   1.21310375e+00  -1.12388754e+00
C     9.807005704500000e+00   9.725224198850160e-02   3.558933000000000e+00  2.30064776e+00  -1.59078032e+00   1.06548831e+00
C     1.230692366200000e+00   7.857342981183696e-01   3.598499700000000e+00 -9.72465960e-01  -2.89156933e+00   3.50729730e-01
C     7.434345294700000e+00   8.513589077290098e+00  -2.401499999999999e-01 -1.04420152e+00  -1.11028542e+00   1.31030525e+00
C     3.731442507700000e+00   6.811706137964728e-01  -2.260770000000001e-01 -3.84539370e-01  -8.31456730e-01  -1.35231639e+00
C     2.468638783700000e+00   5.669774873562800e-02   3.752427900000000e+00 -9.67162380e-01   7.49783210e-01  -1.72750330e-01
C     3.667109015000000e+00   7.982849357218735e-01   3.718289100000000e+00  1.06416717e+00  -1.22315071e+00  -1.10872500e-01
C     9.865690600400001e+00   8.476406553885671e+00  -3.193814999999987e-01  4.62547770e-01  -1.46062231e+00   1.65454520e-01
C     6.161013309199999e+00   5.640667094638576e-01  -3.220464000000014e-01  2.47964390e+00   3.33721271e+00   1.00044117e+00
C     4.895037475300001e+00   7.655265590372401e-02   3.681327300000000e+00  9.36636880e-01   9.56129650e-01   1.18581323e+00
C     6.157896168800000e+00   8.192099516833231e-01   3.771473100000000e+00 -1.13713197e+00  -1.26295389e+00  -7.04245760e-01
C     1.238042799000000e+01   8.413147173326896e+00  -3.251867999999973e-01 -1.55532960e+00   3.53651585e+00  -2.79772000e-01
C     8.671720473100001e+00   6.557107001493049e-01  -2.274803999999975e-01 -4.74815350e-01  -9.96386830e-01  -3.66884110e-01
C     7.392227170799999e+00   4.588129877050720e-02   3.774316200000000e+00 -2.52349293e+00  -6.86850260e-01   2.10589800e-02
C     8.566761611199999e+00   7.571088025060559e-01   3.621103200000000e+00  1.83660408e+00  -4.09765640e-01   5.63154140e-01
C     1.262407154800000e+00   2.075373878143966e+00  -2.518884000000021e-01 -1.53067744e+00  -1.08725860e-01  -1.39680980e-01
C     2.469946466200000e+00   2.748183007488318e+00  -4.396728000000003e-01  5.08359970e-01   2.67326710e+00  -1.02967260e-01
C     1.107334842900000e+01   2.139041423403685e+00   3.617020200000000e+00  1.20567434e+00   3.59446451e+00  -2.12548700e-01
C     2.464769670400000e+00   2.898632174695858e+00   3.639153300000000e+00 -2.04012724e+00   1.53579977e+00   2.62893580e-01
C     3.723625795499999e+00   2.080346400116785e+00  -4.286724000000000e-01 -6.31591480e-01  -4.65896100e-01   1.34730288e+00
C     4.946706488200000e+00   2.760225744748472e+00  -3.210188999999986e-01  1.25874075e+00   3.99577420e-01   8.95796800e-02
C     3.670914728500000e+00   2.187672368938857e+00   3.700781400000000e+00  7.84772250e-01   3.20187994e+00  -3.22785600e-01
C     4.892034760200000e+00   3.025506841770213e+00   3.707448000000000e+00  6.99881490e-01  -5.37484875e+00   2.74779650e-01
C     6.179367945699999e+00   2.048457636259434e+00  -1.529379000000013e-01  2.04161920e-01  -9.33858780e-01  -1.23918779e+00
C     7.410146340399999e+00   2.806005770854686e+00  -1.300269000000007e-01  1.53488820e-01  -2.12801172e+00  -8.99635340e-01
C     6.130208992999999e+00   2.272917908291430e+00   3.723270600000000e+00 -6.35139180e-01  -2.49084067e+00  -8.92852400e-02
C     7.377142849799998e+00   2.864518144707419e+00   3.690277200000000e+00  7.76729900e-01   1.75344972e+00   9.27810530e-01
C     8.678470136100000e+00   2.074736270231425e+00  -2.790408000000006e-01 -2.70885986e+00   3.36734620e-01   1.69739511e+00
C     9.842463792800000e+00   2.818636162816074e+00  -2.631941999999974e-01  2.92587972e+00  -1.76292694e+00  -8.67752540e-01
C     8.634323317200000e+00   2.141251660876328e+00   3.711936000000000e+00 -1.67766415e+00   2.24537742e+00  -1.02870691e+00
C     9.848863130000000e+00   2.860669100343454e+00   3.635103600000000e+00  3.99574510e-01   9.63825350e-01  -1.52920420e-01
C     2.474223241200000e+00   4.244551006553458e+00  -5.383586999999999e-01  1.34266590e+00  -2.60707531e+00   4.22182410e-01
C     3.736679153700000e+00   4.914566598619278e+00  -4.217376000000002e-01 -5.99588020e-01  -2.94549450e-01  -8.43923630e-01
C     1.227183137970000e+01   4.407664294813780e+00   3.664370700000000e+00  9.13553230e-01  -2.99291749e+00   8.56050400e-02
C     3.693176685800000e+00   5.031112905567548e+00   3.710374200000000e+00 -1.16214815e+00   2.11938636e+00   5.11083510e-01
C     5.000446002499999e+00   4.173490642190470e+00  -3.621374999999993e-01 -1.69358755e+00   1.15955144e+00  -2.85898300e-01
C     6.219282606100000e+00   4.899360841097122e+00  -3.677984999999993e-01 -1.81601867e+00   8.13697590e-01   1.98088551e+00
C     4.942668719600000e+00   4.371762964541773e+00   3.775495800000000e+00 -1.89829039e+00   7.70622270e-01  -1.09302885e+00
C     6.162197495199999e+00   5.043986830107825e+00   3.715800300000000e+00  4.83741500e-02   9.42716770e-01   1.31880914e+00
C     7.402171325899999e+00   4.211708349835386e+00  -1.775151000000008e-01  2.14754338e+00  -2.26118160e-01  -5.17109830e-01
C     8.663731408100000e+00   4.916874863932231e+00  -2.394216000000000e-01 -1.12651975e+00   1.52041831e+00  -6.86280870e-01
C     7.337896253699999e+00   4.288256821623976e+00   3.782156700000000e+00  3.04169348e+00   7.24995270e-01  -1.32399725e+00
C     8.621960454800000e+00   4.992716391043181e+00   3.685443000000000e+00 -1.13137332e+00   1.02005146e+00   1.15102525e+00
C     9.859418309300001e+00   4.196215852341313e+00  -4.464050999999998e-01  6.41156740e-01   1.83032298e+00   1.01307516e+00
C     1.112039344700000e+01   4.942336570771600e+00  -5.700630000000011e-01 -1.35847617e+00  -3.14560710e+00   4.90007670e-01
C     9.865405597100001e+00   4.326269080676743e+00   3.609225000000000e+00 -2.13546969e+00  -1.67954501e+00   4.27695890e-01
C     1.100365361060000e+01   5.108495638680034e+00   3.671847000000000e+00  2.96909665e+00  -1.69733709e+00  -3.94739100e-01
C     3.665524710200000e+00   6.342486658187680e+00  -4.415841000000000e-01  2.98946933e+00  -6.39099750e-01   5.46189790e-01
C     4.943955301699999e+00   7.014049348172266e+00  -2.308847999999983e-01 -1.61944266e+00   1.65590872e+00  -3.83372200e-01
C     1.353340225860000e+01   6.464592458689165e+00   3.765655500000000e+00  1.50408678e+00  -5.44580330e-01  -3.88340500e-02
C     4.942509332700000e+00   7.220808507649537e+00   3.729216900000000e+00 -1.65873890e+00  -1.13866489e+00  -3.45821830e-01
C     6.152716267099999e+00   6.323277727162396e+00  -1.774953000000004e-01  1.20638820e+00   4.11490300e-02  -1.09637750e+00
C     7.377313082700000e+00   7.076425624267199e+00  -1.881957000000014e-01  1.02120900e+00   2.18153350e-01  -4.67555000e-02
C     6.158631872699999e+00   6.467100109896826e+00   3.800369700000000e+00  8.22467480e-01   1.28123105e+00  -1.80030870e-01
C     7.414560563799999e+00   7.198917985773114e+00   3.891813600000000e+00 -7.02947140e-01  -1.94542281e+00  -9.77316960e-01
C     8.626962679300000e+00   6.403406435265039e+00  -2.571389999999987e-01  5.24560870e-01  -2.98376045e+00  -5.94396400e-02
C     9.899182160999999e+00   7.032429312060152e+00  -3.571692000000013e-01 -2.25224996e+00   1.01824912e+00  -6.65123200e-02
C     8.646522207800000e+00   6.436401427930074e+00   3.848253600000000e+00 -1.64666749e+00   1.84243410e-01  -8.89972800e-01
C     9.820101214199997e+00   7.198027537760259e+00   3.738378300000000e+00  6.57888930e-01   4.16598740e-01  -1.94568000e-03
C     1.107829740950000e+01   6.287351548369892e+00  -5.119034999999990e-01  1.45557440e+00   4.25586699e+00  -8.45682900e-02
C     1.233545564260000e+01   7.070816604453202e+00  -5.250996000000008e-01 -6.52629850e-01  -3.14992543e+00   6.99173220e-01
C     1.104332295420000e+01   6.503331558313990e+00   3.711557700000000e+00 -3.71256390e-01  -9.62199260e-01   5.44427020e-01
C     1.229120770940000e+01   7.090766123857416e+00   3.841845000000000e+00  6.76218790e-01   4.47792550e+00  -1.22317484e+00
