52
Lattice="8.88768389401873 1.33226762955019e-15 0 4.44384194700937 7.69696003302603 0 0 0 30 " PBC="1 1 1" Properties=species:S:1:pos:R:3:force:R:3 Energy="-418.92365581"
C     1.296540427871541e+01   7.201095079446495e+00  -2.354520000000093e-02 -1.32607194e+00   1.43457243e+00   3.50858650e-01
C     9.159200193294371e+00   7.031850704735641e+00   1.452603000000000e-01 -5.51408320e-01  -7.54454080e-01  -5.40880240e-01
C     1.050072373046783e+01   6.608244507065375e+00   1.431702000000000e-01  2.25780689e+00   1.35920746e+00   1.42127470e-01
C     1.090881799985114e+01   5.241946356396034e+00   1.735998000000000e-01 -1.61684131e+00  -2.71400000e-01  -2.54229190e-01
C     6.760214782497560e+00   6.443063742402360e+00   2.240760000000000e-02  9.73118780e-01  -2.08848474e+00  -4.16546930e-01
C     8.124483902483620e+00   6.033647583273802e+00   1.063911000000000e-01  5.16302300e-01   2.50221450e-01   4.88796980e-01
C     8.486809577195505e+00   4.648829700106677e+00   2.021745000000000e-01 -9.08216140e-01   1.15514750e-01  -4.23243900e-01
C     9.834662878409329e+00   4.244201511934381e+00   2.241306000000000e-01  1.53063125e+00   4.04832650e-01  -5.32802730e-01
C     1.018972544897485e+01   2.867671715327559e+00   9.105479999999999e-02  8.58066340e-01   1.12057581e+00  -4.55446650e-01
C     4.421222971043013e+00   5.833349130595511e+00  -8.076599999998990e-03 -1.09929551e+00  -8.08778180e-01  -1.02316530e-01
C     5.760682876878583e+00   5.385929924045230e+00  -1.224630000000104e-02  2.44854330e-01   4.08127227e+00   1.11037020e-01
C     6.114022569967794e+00   4.079852249863406e+00   2.856090000000000e-02 -6.09530560e-01  -2.77358510e+00  -5.26300600e-02
C     7.444363001129828e+00   3.651393272833426e+00   1.197408000000000e-01  1.70463934e+00   8.33839940e-01   5.74787300e-02
C     7.829386087417035e+00   2.295239407605223e+00   9.390419999999999e-02 -1.08408511e+00  -4.83748580e-01  -4.03970360e-01
C     9.182934083211064e+00   1.897579893104888e+00   1.286760000000000e-02 -1.98163980e-01  -5.93152990e-01   3.17786950e-01
C     3.377694008413098e+00   4.864091197022489e+00   4.469310000000000e-02  2.81540680e-01  -1.14755325e+00   6.24626000e-03
C     3.728629893997097e+00   3.431932930282048e+00  -2.771849999999887e-02 -1.09683713e+00   3.23405508e+00   9.71258500e-02
C     5.075589583072825e+00   3.086762141979896e+00  -2.380229999999983e-02  5.99839030e-01  -9.17225920e-01   1.35675770e-01
C     5.380219035839751e+00   1.705289588550609e+00   2.887290000000000e-02  2.47089288e+00  -2.12389340e-01  -8.73782200e-02
C     6.807832456447670e+00   1.297490098906753e+00   5.228280000000000e-02 -1.70060091e+00   9.89000310e-01   2.27584240e-01
C     1.156501565585976e+01   7.642768043516779e+00   8.169839999999999e-02  3.21729090e-01  -2.65472983e+00  -4.02428380e-01
C     2.680256788177597e+00   2.520896033889552e+00  -6.332069999999845e-02 -3.86499710e-01  -2.71293391e+00   3.58790740e-01
C     3.026872103994187e+00   1.091870737759722e+00  -9.419400000000167e-02 -7.33790300e-02   1.44693475e+00   3.66946870e-01
C     4.379500802218508e+00   7.149219723993103e-01   2.962320000000000e-02  1.73838470e-01  -1.36775530e-01  -1.71194200e-01
C     6.202794579379789e-01   5.224354723338668e-01  -7.029299999999949e-02  1.51737370e+00  -9.03913110e-01  -4.09940500e-02
C     2.036830645029829e+00   1.012398855753969e-01  -8.968439999999944e-02 -2.76783897e+00   1.16048659e+00   2.08579120e-01
C     4.099385983005553e-01   4.729831968675195e-01   3.278043300000000e+00 -1.26755391e+00   8.65385570e-01  -1.11924850e-01
C     7.220032974063418e+00   7.566572680426197e+00   3.284085300000000e+00  1.07578992e+00   8.63532130e-01  -1.21918310e-01
C     4.164678949836139e+00   2.324610468292501e-01   3.351098100000000e+00 -1.10020661e+00   2.85169753e+00   2.06012000e-01
C     9.622822312813042e+00   6.997574602330046e+00   3.473852400000000e+00  1.90673670e-01  -1.73754025e+00   1.48295730e-01
C     1.099219091970005e+01   7.381531064949771e+00   3.474141300000000e+00  4.50870000e-02   3.87534460e-01  -1.56844900e-02
C     1.203295127867155e+01   6.426790983446135e+00   3.442275300000000e+00 -1.02468557e+00  -1.39020663e+00  -5.25853090e-01
C     4.483282824222061e+00   6.809358452658846e+00   3.293649900000000e+00  1.65350514e+00  -7.74329160e-01   2.96079160e-01
C     5.538200774779691e+00   5.811477756852663e+00   3.266745000000000e+00 -2.31216250e-01   3.11750430e-01   2.43495500e-02
C     6.919227178875099e+00   6.200923845304985e+00   3.300987000000000e+00 -1.68432752e+00  -1.13073940e-01   4.11412170e-01
C     7.922758896429801e+00   5.222781772586937e+00   3.462321300000000e+00 -9.75964730e-01  -8.88507500e-01  -5.99505150e-01
C     9.251533051573606e+00   5.585116165999187e+00   3.526389000000000e+00  2.09310018e+00   1.94982235e+00  -7.99561300e-02
C     1.030494800594889e+01   4.649254957148334e+00   3.499900200000000e+00 -2.74936400e-01  -1.77146247e+00  -6.32855980e-01
C     1.166545781391398e+01   5.026189637071891e+00   3.391157400000000e+00  9.92618250e-01   4.62331200e-01   4.00161960e-01
C     3.821593868048235e+00   4.046246475706823e+00   3.279148800000000e+00 -3.36853470e-01  -5.94371610e-01   9.87693900e-02
C     5.206365142188818e+00   4.435236673216568e+00   3.259204800000000e+00 -1.00173017e+00  -3.25359680e-01   1.18778160e-01
C     6.217595327073415e+00   3.430611131336096e+00   3.286603200000000e+00  5.55605000e-03   2.90527480e-01   4.91031520e-01
C     7.575000533764367e+00   3.844335202023845e+00   3.391675200000000e+00 -1.67350450e-01  -6.00397140e-01   7.56665100e-02
C     8.589937504972756e+00   2.845542570393308e+00   3.386283300000000e+00  6.01919400e-02   2.50080260e-01  -2.43357550e-01
C     9.952135750698670e+00   3.243755881167802e+00   3.371115900000000e+00  5.84511870e-01   3.72927100e-01   5.26831190e-01
C     2.084880176278658e+00   2.250080958261212e+00   3.296363400000000e+00  6.64417500e-01   6.09704570e-01  -4.19404470e-01
C     3.473078230255084e+00   2.634137635300527e+00   3.251404200000000e+00 -5.82155220e-01   1.35787700e+00   6.17920410e-01
C     4.488405681881646e+00   1.676086167652785e+00   3.335236500000000e+00  6.21999680e-01  -1.96788752e+00  -3.45674330e-01
C     5.866759070597587e+00   2.048396898838319e+00   3.353182800000000e+00 -1.04574780e-01   3.13449300e-01  -5.03899600e-02
C     6.897193096265862e+00   1.059869317951792e+00   3.414014100000000e+00 -6.07152050e-01   3.32358570e-01  -2.72903350e-01
C     8.247003999258697e+00   1.464035534583087e+00   3.323684400000000e+00  8.19468530e-01  -2.88118480e-01   4.40763440e-01
C     1.754167102606598e+00   8.816703769116361e-01   3.219886500000000e+00  5.65293150e-01  -8.34021700e-01   5.92183340e-01
