64
Lattice="9.86 0 0 4.93 8.53901048131456 0 0 0 30 " PBC="1 1 1" Properties=species:S:1:pos:R:3:force:R:3 Energy="-507.05342218"
C     5.015280076700000e+00   7.982661242817862e+00   9.289950000000000e-02  2.29561375e+00   8.56863940e-01  -2.81915750e-01
C     1.400844660700000e+00   2.470164097753352e-01   4.260540000000000e-02 -4.29295004e+00  -1.47204080e+00   2.61878450e-01
C     9.707976350799999e+00   5.427085948908623e-01   3.649997700000000e+00  1.15878872e+00  -1.25328545e+00  -1.08316530e+00
C     1.124872726300000e+00   1.201770856653567e+00   3.391228200000000e+00  1.93491340e-01  -4.04583635e+00   2.42032683e+00
C     7.490145351799999e+00   8.113152778561231e+00   1.702620000000000e-02  1.98057445e+00  -4.42273951e+00   5.34036410e-01
C     3.778332674400000e+00   2.329894626499440e-01  -5.512859999999975e-02  5.50372290e-01   1.23813583e+00   3.32000870e-01
C     2.357484588000000e+00   5.170135168950752e-01   3.744024600000000e+00  1.87057540e-01  -1.67429691e+00  -8.53853490e-01
C     3.595617211600000e+00   1.205012179641670e+00   3.726367800000000e+00  2.02923770e-01   7.34447660e-01  -3.96109610e-01
C     9.951914426999998e+00   7.986650583124012e+00  -6.657119999999850e-02 -2.88701240e+00   3.31981072e+00  -1.50931878e+00
C     6.148354646800001e+00   2.108522487607536e-01  -1.752134999999981e-01  5.81084779e+00   1.55503778e+00   1.44922583e+00
C     4.888089182600000e+00   5.316901973278896e-01   3.811855200000000e+00 -2.68287553e+00   1.27199593e+00  -1.11968301e+00
C     6.099718964299999e+00   1.234144977866601e+00   3.629715900000000e+00 -8.48535290e-01  -2.32582763e+00   3.81108000e-01
C     1.243805939420000e+01   8.111699609757745e+00  -1.389654000000000e-01 -9.59825460e-01  -2.50155205e+00   5.64469910e-01
C     8.798471956300000e+00   1.524917839044600e-01   2.335695000000000e-01 -4.25277141e+00   4.22271548e+00  -1.84615392e+00
C     7.235531508500000e+00   4.337848918178775e-01   3.578059500000000e+00  4.44133021e+00   2.18135283e+00  -3.41281140e-01
C     8.497586266899999e+00   1.228499838038273e+00   3.571761600000000e+00 -7.07168770e-01  -1.88742393e+00  -7.89021940e-01
C     1.374800013000000e+00   1.614118733441614e+00  -1.610301000000014e-01 -3.04957126e+00   1.82805094e+00  -1.81447839e+00
C     2.513327310999999e+00   2.327270076238307e+00  -5.320137000000003e-01  2.36770778e+00   4.96248560e-01   1.55107655e+00
C     1.101003672810000e+01   2.517106197795790e+00   3.167420700000000e+00  3.32708050e-01   5.23994299e+00  -5.03372500e-02
C     2.352745625500000e+00   3.317471065690382e+00   3.235903200000000e+00  1.08841986e+00   7.73370750e-01  -4.93630260e-01
C     3.714250562400000e+00   1.684875877542458e+00  -1.869414000000020e-01  3.94367539e+00  -1.95764912e+00  -1.78636772e+00
C     5.066132237900000e+00   2.338940085691009e+00  -3.083799000000020e-01 -4.62605900e+00   1.87023271e+00  -8.64865200e-02
C     3.611549443299999e+00   2.625180354716119e+00   3.456441600000000e+00 -8.32164130e-01  -8.85088750e-01  -1.96974240e-01
C     4.881377086200000e+00   3.250747493969976e+00   3.460110900000000e+00 -3.41135080e-01   3.55751937e+00   1.16979275e+00
C     6.206640755000000e+00   1.669918776005480e+00  -9.537990000000107e-02  3.17863862e+00  -1.55174039e+00   9.45480410e-01
C     7.497388902200001e+00   2.454113832094725e+00   1.192611000000000e-01  8.72909000e-02  -6.61417755e+00  -5.24848330e-01
C     6.144848628000000e+00   2.618996659496818e+00   3.620785200000000e+00 -1.42156444e+00   3.72702720e-01   7.28690700e-02
C     7.341976075200000e+00   3.339894251040547e+00   3.720563700000000e+00  2.61264240e-01  -6.23452300e-01  -1.85375298e+00
C     8.767549024299999e+00   1.700133466858226e+00   2.160444000000000e-01 -3.06933200e-01  -1.27710277e+00  -2.04618637e+00
C     9.960494796199999e+00   2.353904103826475e+00  -2.705684999999995e-01  1.44345100e-01  -6.82680720e-01   3.64031932e+00
C     8.548652784500000e+00   2.607604509445135e+00   3.368866800000000e+00 -4.38477700e-01   1.52581647e+00   1.82158302e+00
C     9.797370463199998e+00   3.266179022929222e+00   3.210195300000000e+00 -1.31716493e+00   1.87566765e+00   5.03156690e-01
C     2.633850675900000e+00   3.723359437220624e+00  -7.706189999999999e-01 -2.72786317e+00   3.00005003e+00   1.01021242e+00
C     3.853756941599999e+00   4.509873944726550e+00  -6.548628000000001e-01 -9.49433930e-01  -2.65869291e+00   4.70134960e-01
C     1.221754473400000e+01   4.817333825574670e+00   3.165951000000000e+00 -2.61822856e+00  -2.38137968e+00   5.04520720e-01
C     3.536802459500000e+00   5.401537827283198e+00   3.528305700000000e+00  4.46832260e+00   1.77268810e+00   3.02740130e-01
C     5.080843505800001e+00   3.762791819106320e+00  -4.470285000000018e-01 -1.05311440e-01   1.58762377e+00   1.84563805e+00
C     6.258806613300000e+00   4.471423890606473e+00   5.354460000000000e-02 -5.75135870e-01   2.59109760e-01  -2.20473110e+00
C     4.828059382699999e+00   4.720218549314269e+00   3.601743000000000e+00  1.04105551e+00  -1.25171546e+00   1.29355693e+00
C     6.110970604699999e+00   5.391058241281512e+00   4.032085500000000e+00 -5.30311914e+00   3.90438815e+00  -2.36146637e+00
C     7.508892958599999e+00   3.783261705809186e+00   3.257070000000000e-02  7.86711590e-01   3.43512041e+00   7.53051980e-01
C     8.755520761000000e+00   4.527145972004655e+00  -5.516850000000062e-02  1.79771770e-01  -1.17396993e+00  -5.80846730e-01
C     7.281248483099999e+00   4.737860486526367e+00   3.847374000000000e+00  3.53940480e+00  -6.69951910e-01   3.32282910e-01
C     8.574017486599999e+00   5.406978799370949e+00   3.769788900000000e+00 -1.44636630e+00   2.49898715e+00  -7.39623040e-01
C     1.000568785970000e+01   3.787700710407214e+00  -2.129286000000015e-01 -8.37383300e-01   8.43990260e-01  -1.96934503e+00
C     1.119512948620000e+01   4.512959430773394e+00  -6.083558999999994e-01  7.24604090e-01  -6.01296870e-01   2.16267200e-01
C     9.732710555200001e+00   4.744780586009464e+00   3.361707600000000e+00  2.34516413e+00  -1.92573010e-01  -5.67754490e-01
C     1.095540399640000e+01   5.593620562497969e+00   3.185295000000000e+00 -4.45412730e-01  -2.92756529e+00   1.23051832e+00
C     3.724372937000000e+00   5.902170191863545e+00  -3.989402999999996e-01  1.47691457e+00  -2.45033430e-01  -3.22809980e-01
C     4.909998990000000e+00   6.590261417483744e+00  -1.538319000000001e-01  4.83658282e+00  -7.61728700e-02   2.12080368e+00
C     1.351668290310000e+01   6.824819752529178e+00   3.717344100000000e+00 -2.93732731e+00   1.68545031e+00  -2.11535830e+00
C     4.792404833899999e+00   7.648085392630082e+00   3.797443800000000e+00  1.93580348e+00  -1.09986928e+00   7.77607630e-01
C     6.258252678500000e+00   5.877823679792865e+00   1.367541000000000e-01 -1.36184289e+00   1.10345349e+00  -1.69914760e+00
C     7.527697358999999e+00   6.604523785128069e+00   1.078227000000000e-01 -3.30335688e+00   2.19437691e+00  -5.70575380e-01
C     6.046223928700000e+00   6.962416855063269e+00   3.972255600000000e+00  1.88581100e-02  -3.84016417e+00  -3.79962300e-02
C     7.296424600700000e+00   7.558038965415339e+00   3.887734500000000e+00 -6.96724500e-02   3.40664956e+00   7.49605300e-02
C     8.708224312999999e+00   5.951744783446863e+00  -1.880385000000011e-01 -1.18780505e+00  -2.46896576e+00   1.26173964e+00
C     9.854378271700000e+00   6.655411249572686e+00  -3.762299999999996e-01  4.29283700e+00  -1.23848565e+00   3.19551580e-01
C     8.539146462700000e+00   6.904789635036894e+00   3.801235500000000e+00  7.01845190e-01  -1.54107495e+00   2.42063950e-01
C     9.749443221699998e+00   7.691768408542618e+00   3.695311200000000e+00  3.73760930e-01  -2.14856154e+00   1.51017190e-01
C     1.111892238430000e+01   5.966798631972578e+00  -5.769842999999995e-01  1.20712616e+00  -8.90488790e-01   5.93730680e-01
C     1.240753204540000e+01   6.643709133440579e+00  -3.956000999999993e-01 -2.44902058e+00   1.91015610e+00  -2.37381160e-01
C     1.095564788350000e+01   6.980947361705918e+00   3.468267600000000e+00  2.04377520e+00  -1.60248049e+00  -1.30875828e+00
C     1.230797991450000e+01   7.589179541174432e+00   3.401541600000000e+00 -2.90952415e+00  -3.75427980e-01   2.65421722e+00
