76
Lattice="10.7446858958278 0 0 5.37234294791388 9.3051709414712 0 0 0 30 " PBC="1 1 1" Properties=species:S:1:pos:R:3:force:R:3 Energy="-608.15105117"
C     1.658229523884180e-01   8.847952060692160e-02  -1.791182999999990e-01  2.87625594e+00  -7.79302260e-01  -8.91059700e-02
C     1.268980380231027e+01   8.512804555188060e+00  -1.984403999999991e-01 -5.80403813e+00  -7.82702140e-01   3.44665690e-01
C     1.398644450681550e+01   8.336374885148993e+00  -1.880714999999995e-01  5.57683891e+00   2.99216877e+00   6.66352110e-01
C     1.450533993309167e+01   7.074229780449531e+00  -7.287000000001598e-03  3.50993744e+00  -9.47303640e-01  -6.18958180e-01
C     8.410914818784706e+00   9.082957781798527e+00  -1.799739000000002e-01  2.23951500e-01  -4.81949510e-01   1.01288579e+00
C     9.840028474900780e+00   8.947425454661273e+00  -7.865819999999957e-02 -1.47531460e+00   3.11244600e-02  -1.80304340e-01
C     1.033546744600581e+01   7.608158255745705e+00   2.547060000000000e-02  2.08024473e+00   1.26303580e-01  -1.19636738e+00
C     1.175978220305836e+01   7.387439321893777e+00  -1.378707000000006e-01 -2.90522900e-02  -5.42392370e-01   1.21176170e+00
C     1.225950975437009e+01   6.039598989836058e+00  -2.129490000000089e-02  8.99739210e-01   1.30549577e+00  -7.52472830e-01
C     1.371995851404034e+01   5.925871376710797e+00  -3.019770000000221e-02 -1.55858972e+00  -1.78499012e+00   8.24550660e-01
C     6.135276571269054e+00   8.021781292579131e+00  -1.144169999999995e-01 -1.99740283e+00   1.40953394e+00   5.01405120e-01
C     7.544495313249257e+00   7.938400447337074e+00  -6.118350000000206e-02  6.62940130e-01  -1.90622621e+00  -8.65962900e-02
C     8.097156344753612e+00   6.554435952862925e+00   7.444919999999999e-02  3.95962720e-01   3.95937613e+00  -1.09261090e+00
C     9.542744612866439e+00   6.445032731828610e+00   3.079050000000000e-02 -2.64486608e+00  -1.40703390e+00   7.85600850e-01
C     1.000999823136544e+01   5.065980344041979e+00   3.535590000000000e-02  6.00378020e-01   3.15176598e+00  -1.34545484e+00
C     1.138167998336656e+01   4.885044272768379e+00  -3.682710000000000e-02  1.82017405e+00   3.48719953e+00   2.90632780e-01
C     1.199428771272077e+01   3.690922107829632e+00  -1.576278000000002e-01  3.04773231e+00  -1.61637625e+00   6.37402400e-01
C     5.229604955267733e+00   6.875217298004468e+00   3.537480000000000e-02 -7.36283470e-01   1.61380070e+00  -7.02906160e-01
C     5.751919018256704e+00   5.571252707963038e+00   3.856739999999999e-02  2.12539420e+00   2.54790619e+00   4.63829240e-01
C     7.186642313710880e+00   5.509048012435976e+00  -2.138999999999669e-03  1.86712920e-01  -2.08359953e+00   4.54978380e-01
C     7.760855304810601e+00   4.218503805182761e+00  -6.399809999999917e-02  1.32770813e+00  -2.31633551e+00  -7.03072670e-01
C     9.162736930577132e+00   4.011229261460072e+00  -1.960061999999994e-01  4.74520970e-01  -1.33788566e+00   1.76468240e+00
C     9.817653848429478e+00   2.695885005669279e+00  -1.421427000000008e-01 -2.20040143e+00   4.76947100e-01  -3.38705900e-01
C     1.122335854088609e+01   2.562331050925578e+00  -1.796112000000001e-01 -3.32435030e-01  -3.10704961e+00  -2.52974930e-01
C     3.554581218704705e+00   4.591781109647698e+00   7.338540000000000e-02  1.36259044e+00   2.72538238e+00  -2.91678970e-01
C     5.004983428441308e+00   4.419547513392315e+00   1.115037000000000e-01 -2.67598414e+00   1.99255018e+00  -3.48160400e-01
C     5.620417762315226e+00   3.217849822687895e+00   2.483430000000000e-02 -4.16904990e-01  -2.93977050e+00  -1.89223240e-01
C     7.014259945474230e+00   3.010833683562211e+00  -7.774769999999975e-02 -1.80400744e+00   1.72570150e-01   9.23025400e-02
C     7.484689478231556e+00   1.656533050475979e+00  -1.601748000000001e-01  3.97057531e+00   1.67541600e+00   1.08748039e+00
C     8.951503873339833e+00   1.560656012023467e+00  -7.526220000000095e-02 -5.00311500e-01   1.89092140e-01  -1.33866026e+00
C     9.541663966082048e+00   3.035375606657914e-01  -1.493319000000000e-01 -1.92960083e+00  -3.48928646e+00  -7.05947000e-03
C     2.707419628601545e+00   3.537312718158950e+00  -4.137449999999987e-02 -1.38809122e+00  -2.00718885e+00  -2.11961320e-01
C     3.296914517839689e+00   2.244389085644667e+00  -4.930710000000005e-02  9.30237090e-01  -8.90715560e-01  -4.66515700e-01
C     4.769330493771642e+00   2.084674015009994e+00  -3.531509999999827e-02 -1.95415931e+00   6.25033670e-01   5.06227800e-02
C     5.321514891009473e+00   8.220606741088301e-01  -1.062726000000005e-01  3.31641980e-01  -4.65847238e+00   3.38049970e-01
C     6.747837131452156e+00   4.770757418869624e-01  -1.006046999999981e-01 -2.54125728e+00   3.50618708e+00  -8.49017330e-01
C     1.114152959179630e+00   1.216719307307990e+00  -2.235738000000005e-01 -5.12859260e+00   8.46521900e-01   4.69407190e-01
C     2.457567698961889e+00   1.076177169188350e+00  -1.737728999999995e-01  2.67884546e+00   2.63269690e-01   1.29712800e-02
C     1.601009290081454e+01   9.205180364630042e+00   3.254823300000000e+00 -1.14488128e+00   7.99209280e-01   4.87726640e-01
C     1.173557528530054e+01   8.721521121251319e+00   3.316887900000000e+00 -1.42438551e+00   5.80247180e-01  -7.19548760e-01
C     1.312536371336319e+01   8.873412497211351e+00   3.181779600000000e+00  5.03478600e-02   1.05333829e+00   3.61061290e-01
C     1.400534021888610e+01   7.766336577399636e+00   3.231423600000000e+00 -7.34539140e-01  -1.28255130e-01   1.08948898e+00
C     7.382387604627913e+00   8.256935152006864e+00   3.492198900000000e+00  4.06322227e+00  -8.45438020e-01   1.22412690e-01
C     8.849990928298396e+00   8.401435895947799e+00   3.468573300000000e+00 -4.58829810e-01   2.81791213e+00  -4.85721540e-01
C     9.733368879036673e+00   7.329175831518351e+00   3.465040800000000e+00 -8.41423350e-01  -8.51474970e-01   9.89357000e-02
C     1.113975822287883e+01   7.446834134952088e+00   3.455227800000000e+00 -9.59315690e-01   1.30624938e+00   2.66621750e-01
C     1.191462011092320e+01   6.338533654644669e+00   3.683272200000000e+00  3.01217720e+00  -2.14892015e+00  -1.25355405e+00
C     1.335844463884554e+01   6.549706599732671e+00   3.570435900000000e+00  1.85381577e+00  -2.41155382e+00  -2.12779010e-01
C     4.693447385241771e+00   7.896602922198525e+00   3.279477600000000e+00 -1.08458663e+00  -1.18986920e-01  -4.02806700e-02
C     5.485482612206968e+00   6.729132348710999e+00   3.448588800000000e+00  1.71090230e-01   2.92513840e-01  -1.40487710e-01
C     6.855106004730223e+00   6.934610808338848e+00   3.501726600000000e+00  1.66149321e+00   1.02323180e-01  -1.41545510e-01
C     7.777041529437798e+00   5.832777142679602e+00   3.521514000000000e+00 -2.26856035e+00  -1.32576197e+00   9.35699300e-02
C     9.151336281602937e+00   6.035321868013487e+00   3.503739900000000e+00  5.00073090e-01  -1.49486463e+00   2.92423120e-01
C     9.930516458910514e+00   4.841930065941821e+00   3.541836600000000e+00  3.11744437e+00   1.13270500e-01   1.24132680e-01
C     1.141191601300003e+01   4.966297676778425e+00   3.627161700000000e+00 -2.05834903e+00   1.89551429e+00   5.61386610e-01
C     1.224913533034620e+01   3.850912797627548e+00   3.692724900000000e+00  1.11795783e+00  -2.23577720e-01  -1.40795669e+00
C     3.542221123003069e+00   5.390855499138574e+00   3.660072300000000e+00 -1.36124055e+00  -1.72414428e+00  -2.94299010e-01
C     4.982716517446155e+00   5.406618365659225e+00   3.538324200000000e+00 -2.49000921e+00   2.59526361e+00   4.82186630e-01
C     5.799959690831052e+00   4.277628489128683e+00   3.610368000000000e+00  3.72814060e-01   1.11553688e+00  -3.72317250e-01
C     7.214124587795034e+00   4.455237310429267e+00   3.558402600000000e+00  1.27746080e-01   8.57798140e-01   7.20103290e-01
C     8.027460563599256e+00   3.282668899042260e+00   3.634390800000000e+00 -3.09852110e-01   1.78917481e+00  -1.32392990e+00
C     9.426979701553524e+00   3.527585557716820e+00   3.515900400000000e+00 -8.34904160e-01  -1.54053097e+00   1.81848220e-01
C     1.023931373539757e+01   2.357438724015240e+00   3.384821400000000e+00  2.43318150e+00  -2.58717400e-02  -2.50522060e-01
C     1.169947367791083e+01   2.533553227914569e+00   3.405598800000000e+00 -7.80852920e-01   1.15348113e+00   1.56371689e+00
C     2.965608306307582e+00   4.061973615405722e+00   3.705882900000000e+00 -1.98123730e+00   3.75423510e-01   1.21257480e-01
C     3.763697787713422e+00   2.907244705538046e+00   3.622234200000000e+00  9.50958900e-01   2.46555560e-01  -1.93486130e-01
C     5.163415809803699e+00   3.040504151621495e+00   3.586707000000000e+00  1.07531550e+00  -1.63803896e+00  -1.69519340e-01
C     5.991485812212303e+00   1.879125673548386e+00   3.431533200000000e+00  1.11277584e+00   1.42925290e-01  -1.10112400e-01
C     7.416059999705916e+00   2.011753763783556e+00   3.472737000000000e+00  4.98565500e-01  -1.06884580e-01  -4.21097410e-01
C     8.257510681806366e+00   8.832837671534318e-01   3.236446200000000e+00  2.19720072e+00   1.86394500e-02   1.86621650e-01
C     9.739611434097714e+00   1.019777318448788e+00   3.229658400000000e+00 -1.72883581e+00   1.24977867e+00   5.02483760e-01
C     1.829782456092780e+00   1.440127156406450e+00   3.471747000000000e+00  4.05765820e-01  -1.06827080e+00  -1.69091480e-01
C     3.257813585104429e+00   1.598410068181748e+00   3.512463600000000e+00 -1.68954561e+00   4.09137500e-01  -3.42231300e-02
C     4.080371187582326e+00   4.800496745193864e-01   3.386527200000000e+00 -9.16707220e-01  -3.36102210e+00   2.04584320e-01
C     5.479465480656109e+00   5.723280311625629e-01   3.254144700000000e+00  3.63639530e-01  -4.42820000e-04   1.30786060e+00
C     1.290438173399167e+00   1.243991553660908e-01   3.463477800000000e+00 -2.06799376e+00   1.03593780e-01  -1.01367755e+00
