64
Lattice="9.86 0 0 4.93 8.53901048131456 0 0 0 30 " PBC="1 1 1" Properties=species:S:1:pos:R:3:force:R:3 Energy="-514.86464807"
C     4.931975697500000e+00   8.329968757631320e+00  -4.567644000000008e-01  9.15779480e-01  -4.46492740e-01   7.40181800e-02
C     1.251587678200000e+00   5.078574775177904e-01  -4.464591000000020e-01 -6.92750530e-01  -8.11282180e-01  -4.29608940e-01
C     9.825018396200001e+00   1.643120799416096e-01   3.854964900000000e+00  1.66010887e+00   2.05509709e+00   1.87285530e-01
C     1.225194233000000e+00   9.473186765522480e-01   3.883005900000000e+00 -6.69183090e-01  -2.13341429e+00  -8.31146120e-01
C     7.383939791500000e+00   8.301176922094857e+00  -4.783245000000029e-01  1.79646253e+00   1.15070663e+00   1.93953340e-01
C     3.717364744800000e+00   4.901448372989168e-01  -4.591655999999986e-01 -9.16861550e-01   2.17157750e-01   3.52375770e-01
C     2.469561975500000e+00   2.326037555465624e-01   3.729204900000000e+00 -1.31399261e+00  -1.18857231e+00   4.92379440e-01
C     3.681762552600000e+00   9.274524978903184e-01   3.790195800000000e+00  3.24683500e-01   8.94968600e-01  -2.59396740e-01
C     9.899195817099999e+00   8.347442476336964e+00  -4.318047000000007e-01 -1.53087715e+00  -1.21690475e+00  -3.29695540e-01
C     6.177889044300000e+00   5.113302076899016e-01  -4.707483000000003e-01  3.05594830e-01  -3.76926610e-01   5.56232730e-01
C     4.931032736399999e+00   2.274607949245632e-01   3.790713600000000e+00 -1.18781465e+00   2.12837460e-01   5.51677840e-01
C     6.155890201099999e+00   9.442971476938999e-01   3.837897900000000e+00  2.06511180e-01  -2.37779623e+00  -7.22624700e-01
C     1.233608899970000e+01   8.332183264609204e+00  -4.098936000000002e-01  6.04528940e-01   3.68939550e-01  -4.46426180e-01
C     8.653598088900001e+00   4.804461438056280e-01  -4.255647000000025e-01 -7.48367650e-01   1.99708866e+00  -6.63197900e-02
C     7.365729850500000e+00   2.198037788370424e-01   3.750935699999999e+00  1.06083450e+00  -2.71156300e-02   1.35691127e+00
C     8.620022471800000e+00   9.330539179849888e-01   3.855773400000000e+00 -7.01835530e-01  -2.02364527e+00  -7.51841280e-01
C     1.258246579900000e+00   1.920242686100138e+00  -4.587707999999999e-01 -6.15210220e-01   1.07705320e-01   1.13974067e+00
C     2.468035055900000e+00   2.621625223092876e+00  -3.268434000000013e-01  4.23357840e-01   7.22461120e-01  -7.04073790e-01
C     1.108316253070000e+01   2.350946617546728e+00   3.901170000000000e+00 -5.81263080e-01   6.04883200e-01   1.80076570e-01
C     2.448870173900000e+00   3.059801130269884e+00   3.911500199999999e+00 -4.58597760e-01   4.70715670e-01  -1.44453250e-01
C     3.671420990200000e+00   1.907063491935202e+00  -3.680669999999999e-01  2.75820800e+00   3.78198710e-01  -4.43092190e-01
C     4.995395956999999e+00   2.638186548528731e+00  -4.221044999999997e-01 -4.08405864e+00  -5.55127800e-01   6.46654680e-01
C     3.642372296300000e+00   2.378080518808394e+00   3.843055800000000e+00  2.52964334e+00  -1.87850149e+00   1.04525500e-02
C     4.919897394700000e+00   3.039111107876844e+00   3.823874700000000e+00 -1.61227280e-01   7.83289590e-01   3.48616820e-01
C     6.160325722100000e+00   1.920950399288721e+00  -4.704560999999998e-01  2.40600890e+00   2.59004820e-01  -1.69461280e-01
C     7.417467735500000e+00   2.648066952165034e+00  -4.980741000000002e-01  2.22743000e-01  -8.85388320e-01   4.68659850e-01
C     6.186906310099999e+00   2.312431923117316e+00   3.821690400000000e+00 -2.85372345e+00   2.33845033e+00  -4.44789240e-01
C     7.351275928600000e+00   3.047394887333597e+00   3.736118100000000e+00  2.56054046e+00   5.90363230e-01   9.66039040e-01
C     8.663606235400000e+00   1.952221365737843e+00  -4.309551000000020e-01 -8.92850630e-01  -1.87266752e+00  -2.71054560e-01
C     9.884047208900000e+00   2.636581299948596e+00  -4.043928000000001e-01 -3.51418900e-02   3.95786480e-01  -2.84610570e-01
C     8.604298927000000e+00   2.318910214198177e+00   3.826431300000000e+00  8.73533670e-01   2.43926627e+00  -1.79347230e-01
C     9.859325970399999e+00   3.076527258608003e+00   3.877830600000000e+00 -1.75607042e+00  -9.70675270e-01   2.22246130e-01
C     2.494013838800000e+00   4.062128539284815e+00  -3.364631999999972e-01 -1.87560452e+00  -9.86734220e-01   2.01911080e-01
C     3.674984542099999e+00   4.747564218035839e+00  -4.072527000000008e-01  2.89722366e+00   9.09066120e-01   8.37467220e-01
C     1.232607168340000e+01   4.477013270696367e+00   3.932237700000000e+00 -2.27682397e+00  -4.72606660e-01   2.52184030e-01
C     3.626351620400000e+00   5.190546648821935e+00   3.885977100000000e+00  3.75111217e+00   7.84531900e-01  -6.20348470e-01
C     4.942226399999999e+00   4.041000807214571e+00  -3.576927000000012e-01  4.46592320e-01   8.85560480e-01  -1.19959711e+00
C     6.181388604800000e+00   4.761749649195739e+00  -4.832720999999971e-01 -2.10208620e-01   2.60953920e-01   7.63657230e-01
C     4.917961876700000e+00   4.474379925254439e+00   3.839644800000000e+00 -6.16926090e-01  -1.88401260e-01  -4.44176460e-01
C     6.160988215500000e+00   5.178501264468531e+00   3.722739000000000e+00 -8.87368280e-01   1.12919503e+00   7.55328800e-01
C     7.435437043200000e+00   4.048173917578191e+00  -4.940957999999966e-01 -1.05292656e+00   1.30381697e+00  -1.76192220e-01
C     8.652872442200000e+00   4.799646631607027e+00  -4.817324999999997e-01  9.22859400e-02  -1.90422471e+00   5.26470430e-01
C     7.381046571700001e+00   4.494480926704569e+00   3.773994900000000e+00  3.34331640e-01  -1.20252403e+00  -7.82143270e-01
C     8.636160185900000e+00   5.199533871962029e+00   3.792340500000000e+00 -2.44705938e+00   5.21154640e-01  -7.13183800e-02
C     9.861050878799999e+00   4.059848794266865e+00  -3.779766000000002e-01  1.25630794e+00   5.85103560e-01  -1.21574230e-01
C     1.112039867280000e+01   4.777394653416986e+00  -3.117287999999974e-01 -1.02111243e+00  -4.96331080e-01  -2.88312550e-01
C     9.802966802000000e+00   4.500588795510808e+00   3.914799900000000e+00  3.14388709e+00  -1.29091686e+00  -5.34577900e-02
C     1.108170773700000e+01   5.172431138088615e+00   3.978008100000000e+00 -7.68743110e-01   1.18395841e+00  -6.16842380e-01
C     3.734217999100000e+00   6.181615201738777e+00  -3.971292000000020e-01 -1.63035371e+00   2.04675820e-01  -5.24880490e-01
C     4.939225903400000e+00   6.896364108006173e+00  -4.780253999999999e-01  7.84764360e-01   3.52039980e-01   6.29114690e-01
C     1.354004494060000e+01   6.632033573631066e+00   3.789125400000000e+00 -1.14335810e-01  -1.85383476e+00   9.78519540e-01
C     4.926529575799999e+00   7.283242763625629e+00   3.817727700000000e+00 -7.57256590e-01   1.85729184e+00  -4.20877500e-01
C     6.176096989300000e+00   6.199308714574175e+00  -4.489203000000010e-01  8.13429740e-01  -7.30187550e-01  -6.60468790e-01
C     7.436202524299999e+00   6.900412538264845e+00  -4.849128000000000e-01 -1.81919253e+00  -4.11758290e-01   1.18255770e-01
C     6.153766652900000e+00   6.634568549672264e+00   3.741842400000000e+00 -2.80694270e-01  -2.50908444e+00  -4.02999370e-01
C     7.358194937099999e+00   7.303619489724158e+00   3.652370400000000e+00  1.19873961e+00   2.29829364e+00   6.38266470e-01
C     8.663635815399999e+00   6.196477947209950e+00  -4.626125999999999e-01 -1.65517816e+00   1.23501130e-01  -4.32696500e-02
C     9.838833735200000e+00   6.896859882954641e+00  -4.127633999999993e-01  2.95953789e+00   1.35629008e+00   2.83116160e-01
C     8.597372523499999e+00   6.618748666516386e+00   3.722365800000000e+00  2.00292170e-01   1.57270910e-01   4.83928640e-01
C     9.797774279500000e+00   7.357621729021564e+00   3.869991000000000e+00  2.47837886e+00  -1.35003076e+00  -9.02669230e-01
C     1.108177917270000e+01   6.186297311965170e+00  -3.257468999999986e-01  1.41710633e+00   1.04275100e+00  -6.64205830e-01
C     1.236047583630000e+01   6.930283192385353e+00  -4.068201000000009e-01 -1.27638731e+00  -1.79468000e+00   6.63974310e-01
C     1.108440474280000e+01   6.598078369237555e+00   3.903902400000000e+00 -7.15072760e-01   9.61945740e-01   2.68028170e-01
C     1.233531030620000e+01   7.337478801029977e+00   3.854103600000000e+00 -1.85258809e+00   2.67825500e-02  -6.74425860e-01
