52
Lattice="8.88768389401873 1.33226762955019e-15 0 4.44384194700937 7.69696003302603 0 0 0 30 " PBC="1 1 1" Properties=species:S:1:pos:R:3:force:R:3 Energy="-417.57556481"
C     1.252469345260348e+01   6.830853906873827e+00   3.886140000000000e-02 -2.15453679e+00  -2.75809751e+00   2.67692530e-01
C     8.804412250936084e+00   6.522676863624664e+00   1.019790000000000e-02 -2.99130665e+00   2.34691662e+00  -6.06744810e-01
C     1.009984199315591e+01   6.190352840399783e+00  -8.521320000000188e-02  2.48929564e+00  -3.06411047e+00   1.34794304e+00
C     1.048470483448491e+01   4.807002536601578e+00   3.870450000000000e-02 -3.49322363e+00   2.54046690e-01  -6.82025890e-01
C     6.384370050616285e+00   5.973973667918014e+00  -3.332969999999946e-02 -7.47315320e-01   1.87857078e+00   1.86524900e-02
C     7.765810575847489e+00   5.601330889876786e+00  -1.909110000000069e-02 -1.51156492e+00  -3.33753213e+00   7.06234100e-02
C     8.084088844717471e+00   4.147788928780999e+00   1.857300000000000e-03 -1.89660737e+00   1.90086714e+00  -2.00493520e-01
C     9.423292296495781e+00   3.794868148394240e+00   2.653530000000000e-02  1.39679292e+00   1.19455828e+00  -8.95394600e-02
C     9.769013333615028e+00   2.451542652508837e+00   2.352240000000000e-02  1.36190545e+00  -1.64492612e+00  -2.31467270e-01
C     3.913122703833892e+00   5.415873869467541e+00   1.387776000000000e-01  1.95232415e+00   2.33559560e+00  -1.02768542e+00
C     5.272298114452480e+00   5.042731173872363e+00   4.649700000000000e-02  2.26484417e+00  -1.25432162e+00   5.45559500e-01
C     5.649987172848933e+00   3.653381397609175e+00   1.352229000000000e-01 -1.42098330e-01  -1.97408884e+00  -5.88027570e-01
C     7.005888716152256e+00   3.160870397388743e+00   2.269020000000000e-02  8.78243140e-01   2.88524665e+00   3.83697630e-01
C     7.390883095232383e+00   1.823012975847853e+00   3.548610000000000e-02 -1.16786500e-01  -1.86068151e+00   1.12028720e-01
C     8.787380201296759e+00   1.440427649687872e+00  -1.436789999999988e-02 -1.98250252e+00   1.36147848e+00   2.78119950e-01
C     2.904736309899768e+00   4.475002555393961e+00   1.163496000000000e-01  1.85003669e+00  -3.52092566e+00   1.09071640e-01
C     3.279567933455045e+00   3.036205429718843e+00   1.128552000000000e-01  1.27884200e-01   6.14737370e-01   2.59642220e-01
C     4.653624526428255e+00   2.596194624167039e+00   1.803783000000000e-01 -4.99132600e-01   1.36118032e+00  -6.54500230e-01
C     4.994637668475917e+00   1.194042494285951e+00   1.053720000000000e-01  1.83147492e+00   1.50722712e+00   2.59308300e-01
C     6.384481854306300e+00   7.811107486636905e-01   9.637560000000001e-02 -1.40983238e+00   2.88965943e+00  -4.37448720e-01
C     1.109609429890542e+01   7.131053743778299e+00   2.934540000000000e-02  3.45886278e+00   1.26887414e+00  -2.94521080e-01
C     2.259966215643159e+00   2.071640948432916e+00   3.532440000000000e-02  8.79623040e-01  -1.28843025e+00   6.51445600e-02
C     2.673280666119572e+00   6.442449448022366e-01  -3.894299999998907e-03 -1.45044853e+00   1.77143943e+00  -3.17594200e-02
C     4.022393974264213e+00   2.176494787651199e-01   3.784050000000000e-02 -1.16984893e+00  -4.10593300e-02  -1.74081000e-02
C     1.922091401948332e-01   8.482634922022279e-02   3.276300000000000e-03  3.06728763e+00  -2.28664700e-02  -4.78931710e-01
C     6.080122501667990e+00   7.419911648260964e+00  -7.036289999999923e-02 -1.93686476e+00  -2.81394306e+00   6.87549270e-01
C     8.023210435207067e-01   9.097125574497344e-01   3.402552000000000e+00  5.10334500e-02  -2.25885940e-01  -8.45342360e-01
C     3.195988596780664e+00   3.314693527831491e-01   3.484623900000000e+00  8.81003120e-01   5.36093500e-01  -7.75591240e-01
C     4.592886449031826e+00   7.496549663522871e-01   3.442230600000000e+00 -5.56050600e-01   3.63898960e-01   3.78181730e-01
C     1.007223018206982e+01   7.482161659169193e+00   3.398115300000000e+00 -5.31040750e-01  -1.48356842e+00  -7.86306200e-02
C     7.001707192239354e+00   1.468697737212459e-01   3.333700800000000e+00 -1.54020859e+00   7.97668490e-01   2.46300910e-01
C     1.240944392266760e+01   6.833070015605665e+00   3.331152000000000e+00  1.58353526e+00  -8.34553440e-01  -2.93351280e-01
C     4.892485877756330e+00   7.209145560850673e+00   3.327181800000000e+00  4.71796530e-01   9.96593000e-01   6.24259490e-01
C     5.926299178602488e+00   6.234820102733101e+00   3.345318600000000e+00 -2.07628470e-01   6.54884310e-01  -1.31988900e-02
C     7.293259356503318e+00   6.669199273539755e+00   3.380229600000000e+00  1.19877141e+00  -1.49902784e+00   2.69354710e-01
C     8.380447287431284e+00   5.676046589371201e+00   3.358816800000000e+00 -2.52311306e+00   2.49901270e-01  -5.63049520e-01
C     9.730439099205014e+00   6.042214222817591e+00   3.371782800000000e+00 -2.65342100e-01   1.86942496e+00   8.36290300e-02
C     1.071297668537632e+01   5.055150295850369e+00   3.344169300000000e+00  2.12575079e+00  -1.11984243e+00   1.13351340e-01
C     3.220881402881481e+00   5.423819980093712e+00   3.315656400000000e+00 -2.38991504e+00   1.50096353e+00   6.64950790e-01
C     4.190880333499180e+00   4.439167972521490e+00   3.394015800000000e+00  1.86733341e+00   9.92372640e-01  -1.00189663e+00
C     5.556309830040211e+00   4.870711198405091e+00   3.334670700000000e+00  1.22618665e+00  -5.04707450e-01  -2.91325820e-01
C     6.624160382769579e+00   3.916147223346942e+00   3.223860900000000e+00 -9.02267320e-01  -2.09508030e-01   1.25432115e+00
C     7.987049023773345e+00   4.304012587117903e+00   3.219627000000000e+00  1.49838719e+00  -1.31534720e-01   1.04755863e+00
C     9.030966954614259e+00   3.311398151364247e+00   3.347788800000000e+00 -7.73642800e-02  -1.29461734e+00  -8.03745210e-01
C     1.043645426446012e+01   3.633571038853562e+00   3.391958100000000e+00 -2.64360607e+00   2.52789036e+00  -6.14453000e-02
C     2.541170356830434e+00   2.672354581241483e+00   3.447537600000000e+00  2.25651590e-01  -3.08605690e-01  -8.77273260e-01
C     3.901899823916378e+00   3.070094682913332e+00   3.329120700000000e+00 -2.17033366e+00   1.54140862e+00   1.45573168e+00
C     4.909933597806416e+00   2.185632464659614e+00   3.442060200000000e+00  1.26166605e+00  -4.21545832e+00  -3.15658320e-01
C     6.257960475985286e+00   2.548658891748162e+00   3.400963500000000e+00  2.11593359e+00  -3.79618150e-01  -1.20466309e+00
C     7.311217229544950e+00   1.547566562399861e+00   3.312819000000000e+00 -5.07643940e-01  -4.06477670e-01   3.58176190e-01
C     8.678989430632699e+00   1.902371712541165e+00   3.283061700000000e+00  3.12224900e-02   1.38318579e+00   9.70005190e-01
C     2.172727287516418e+00   1.316061939823939e+00   3.427774500000000e+00 -1.25806640e-01  -8.22730680e-01   6.21564980e-01
