76
Lattice="10.7446858958278 0 0 5.37234294791388 9.3051709414712 0 0 0 30 " PBC="1 1 1" Properties=species:S:1:pos:R:3:force:R:3 Energy="-612.87521921"
C     1.258078080533560e-01   9.814908204093199e-02  -2.133656999999971e-01  1.58038211e+00  -1.25180722e+00   3.97180070e-01
C     1.257977698305539e+01   8.600589072577472e+00  -8.826210000000145e-02  1.15737541e+00  -1.11316672e+00  -2.06673500e-02
C     1.398769545687141e+01   8.396820065903013e+00  -1.084436999999987e-01  6.70699110e-01   4.88088250e-01   2.13764700e-01
C     1.456730845848733e+01   7.098421829117889e+00  -7.454790000000244e-02  1.81424438e+00   6.33568770e-01  -1.05949480e-01
C     8.358754096402002e+00   9.036556802492541e+00  -1.919945999999975e-01 -2.04847321e+00   1.52828442e+00  -2.69029620e-01
C     9.718460627350424e+00   8.869693220386633e+00  -1.548161999999991e-01  3.22478556e+00  -1.23086230e-01   3.52447970e-01
C     1.033691647434628e+01   7.563077307989268e+00  -1.017720000000004e-01  1.97505750e-01   1.48855475e+00  -3.34416470e-01
C     1.177709602874733e+01   7.447248028955499e+00  -1.109358000000000e-01 -1.69867267e+00  -8.33391840e-01  -6.26664200e-02
C     1.232800583762028e+01   6.142671996131600e+00  -1.857572999999988e-01  1.22186496e+00  -7.87459460e-01   3.39661080e-01
C     1.378168877602616e+01   5.955193273066669e+00  -1.070634000000013e-01 -2.77653111e+00  -2.60457500e-02  -5.79936460e-01
C     6.113633604184113e+00   8.085731917329666e+00  -1.175808000000025e-01 -2.33039232e+00   1.04011331e+00  -4.43203890e-01
C     7.474283518554554e+00   7.937650264455892e+00  -1.647393000000008e-01  2.33481132e+00  -1.59935999e+00   2.31485240e-01
C     8.062911795151434e+00   6.615517793412659e+00  -1.397619000000034e-01 -1.08708070e-01   4.60001000e-03   5.97699450e-01
C     9.491143366278548e+00   6.453096592965214e+00  -1.243680000000005e-01 -5.73561320e-01  -5.06109380e-01  -4.13493610e-01
C     1.005510361692220e+01   5.155566528628794e+00  -2.163107999999987e-01  6.43793630e-01  -4.25922830e-01   3.92042960e-01
C     1.149108097839120e+01   4.975332160295781e+00  -2.691209999999984e-01 -1.10706840e+00   1.57322481e+00   1.89531240e-01
C     1.202612572129849e+01   3.691379736136461e+00  -3.307910999999990e-01  1.29053804e+00  -1.43248852e+00   2.94739010e-01
C     5.280576509538454e+00   6.948150204263386e+00  -7.776660000000035e-02 -1.49338388e+00   1.98178590e-01   3.45537530e-01
C     5.828757275639656e+00   5.653633247329046e+00  -2.213670000000079e-02 -7.00338920e-01  -1.26310107e+00  -4.37040560e-01
C     7.222950756304160e+00   5.456858472391636e+00  -4.349159999999941e-02  9.42698580e-01   7.49230570e-01  -5.14592620e-01
C     7.806251710184961e+00   4.152012589610478e+00  -9.779340000000047e-02 -1.02226470e-01   1.04023136e+00   2.75394430e-01
C     9.218684832399010e+00   4.018512046547973e+00  -1.631301000000001e-01  1.28474310e-01  -1.09944009e+00  -4.33324270e-01
C     9.788759077936911e+00   2.690264403266391e+00  -2.379405000000006e-01 -1.44143574e+00  -1.42903000e-02   5.44511000e-02
C     1.117317392741068e+01   2.521050800239585e+00  -3.294156000000008e-01  9.63614120e-01   7.68735140e-01   2.06529840e-01
C     3.562747179988705e+00   4.648602391579133e+00  -1.798836000000001e-01  2.52458900e-01   9.91124800e-02   3.45368540e-01
C     4.962409383435732e+00   4.493041893665752e+00  -9.816209999999970e-02  5.17032000e-01   1.20358110e-01   2.09149860e-01
C     5.501098670076880e+00   3.186210008250870e+00  -9.305609999999831e-02  1.28662493e+00  -5.65099720e-01  -2.57678770e-01
C     6.957004737718901e+00   3.043908355358184e+00  -8.567670000000049e-02 -1.31218201e+00  -1.49596506e+00   1.57910380e-01
C     7.509324249381922e+00   1.719730421638921e+00  -8.472629999999981e-02 -1.56898980e-01   1.65423300e-02  -3.62914770e-01
C     8.918969340498640e+00   1.526142295541622e+00  -1.844816999999992e-01  9.05753000e-02   1.49259600e+00   3.81964230e-01
C     9.484039356025475e+00   2.352915759576434e-01  -1.534680000000002e-01 -9.25186040e-01  -3.26826950e-01  -2.45527000e-01
C     2.725673829200485e+00   3.518358922419554e+00  -2.637029999999996e-01 -1.33345476e+00  -8.08590470e-01  -3.35051420e-01
C     3.259467138541010e+00   2.175948436760454e+00  -2.718327000000009e-01 -9.44183400e-02   1.20902714e+00   3.08779310e-01
C     4.661825398574065e+00   2.004158231900362e+00  -1.728740999999978e-01  7.26701280e-01   1.00535686e+00   1.38206350e-01
C     5.233925339744693e+00   7.094028764865407e-01  -1.286646000000005e-01 -4.62753960e-01  -2.90440000e-04  -6.47630800e-02
C     6.652706959622757e+00   5.729192817240906e-01  -8.169479999999751e-02 -5.10215560e-01   8.96112700e-01   8.58670000e-04
C     9.910970263555530e-01   1.215237272732376e+00  -2.888292000000021e-01  3.05972900e-02   3.54700000e-01  -5.17314000e-02
C     2.404705294866485e+00   1.060121748093346e+00  -2.686409999999988e-01  1.80994830e-01  -1.06122204e+00   5.48098200e-02
C     1.593180975179519e+01   9.227010760913830e+00   3.631398300000000e+00  4.59423960e-01  -6.48481070e-01  -4.62038100e-02
C     1.169260734010986e+01   8.720282882154335e+00   3.461720400000000e+00  1.66064208e+00   9.87191540e-01   6.09892920e-01
C     1.314289055245013e+01   8.900266103923679e+00   3.510372300000000e+00 -1.37729450e+00   1.34183580e-01   5.84713300e-02
C     1.395285275060518e+01   7.723058971771372e+00   3.538180500000000e+00  8.40630870e-01   2.02442426e+00   1.62277360e-01
C     7.474712016628246e+00   8.278426467861596e+00   3.550914000000000e+00  5.09184900e-02  -2.06662272e+00  -2.84769320e-01
C     8.880035057841688e+00   8.403253102780671e+00   3.502419900000000e+00  1.39870373e+00   3.30683390e-01   4.44460880e-01
C     9.741606668545913e+00   7.234506790357269e+00   3.525223800000000e+00 -7.33160720e-01   6.55087890e-01   2.61359500e-02
C     1.116558124884288e+01   7.410852527754457e+00   3.551070900000000e+00 -1.74585360e+00   1.47877815e+00  -6.33263640e-01
C     1.199534858928311e+01   6.319716179659545e+00   3.565558200000000e+00  1.05399259e+00  -2.21444933e+00   4.33484730e-01
C     1.341393712715555e+01   6.452692469391290e+00   3.566729100000000e+00 -5.29369010e-01  -1.95977309e+00  -1.72849190e-01
C     4.604161946477964e+00   7.928005454776581e+00   3.573873600000000e+00  1.96953729e+00  -6.76294380e-01  -2.70402680e-01
C     5.518548630936205e+00   6.789867943850054e+00   3.501139200000000e+00 -1.48242852e+00   4.34374340e-01   5.67880170e-01
C     6.922547980570195e+00   6.945385544925401e+00   3.494511300000000e+00  3.11404570e-01   1.31451690e-01   9.80656700e-02
C     7.771310421425597e+00   5.777608273003692e+00   3.491596200000000e+00 -9.80843610e-01   8.07899090e-01  -8.40877200e-02
C     9.167754537722145e+00   5.923926595984337e+00   3.543821700000000e+00  9.97415220e-01   8.64034170e-01  -8.89443200e-02
C     1.005031986786580e+01   4.803464815568596e+00   3.603975300000000e+00 -1.39159957e+00   7.45398400e-01   2.98798670e-01
C     1.142686557800356e+01   5.007287233924253e+00   3.656476800000000e+00  1.47673683e+00  -7.31193180e-01  -2.63503680e-01
C     1.228442786288763e+01   3.849097917087410e+00   3.700377900000000e+00  2.35511050e-01  -6.94722710e-01  -8.39838200e-02
C     3.522472282872010e+00   5.273975294098841e+00   3.565913400000000e+00 -5.79377440e-01   1.35489589e+00   5.96243000e-02
C     4.926216661109595e+00   5.494150992071292e+00   3.542794500000000e+00  3.24464870e-01  -9.63444890e-01  -8.33943180e-01
C     5.758509754864335e+00   4.335390430790443e+00   3.431264700000000e+00  7.79761300e-01   6.02057710e-01   5.41283490e-01
C     7.179227191077572e+00   4.497131888500720e+00   3.450624600000000e+00  4.00796010e-01  -9.27278970e-01   6.39138100e-02
C     8.056859152413676e+00   3.345426600878286e+00   3.506847300000000e+00 -3.72700170e-01   1.40865092e+00   8.80398000e-02
C     9.463120043535898e+00   3.525716428030103e+00   3.639106500000000e+00  6.68796600e-02  -8.74681800e-01  -6.21362100e-01
C     1.029906149538798e+01   2.381493707515653e+00   3.656143200000000e+00  8.68502110e-01  -5.26564490e-01   8.15155220e-01
C     1.173329923848634e+01   2.516312793300356e+00   3.767392800000001e+00 -1.29719633e+00   1.20584486e+00  -1.00329061e+00
C     2.957986617087846e+00   3.963738088326757e+00   3.593236500000000e+00  4.11893040e-01   8.82636140e-01   2.73925880e-01
C     3.846383034546007e+00   2.829231175945889e+00   3.557547300000000e+00 -2.52632510e+00   9.82745540e-01   8.34688900e-02
C     5.216682751323238e+00   3.033831134385293e+00   3.460864500000000e+00  1.46472251e+00  -1.10809038e+00  -1.03433810e-01
C     6.097512546076900e+00   1.882505683840631e+00   3.444692400000000e+00 -9.64591260e-01   3.21559720e-01   1.91419120e-01
C     7.507926312022904e+00   2.059793197588657e+00   3.483120600000000e+00 -6.54359170e-01  -7.95647220e-01   1.57610760e-01
C     8.345944443042310e+00   9.209063412463304e-01   3.572036100000000e+00 -6.37136890e-01  -1.33877117e+00  -4.74735310e-01
C     9.745083434009437e+00   1.066674914727841e+00   3.641346600000000e+00 -1.81030240e-01   7.43378940e-01  -1.22016830e-01
C     1.802790676919960e+00   1.372608743014101e+00   3.675577200000000e+00  9.37338810e-01   3.24595910e-01   1.96094210e-01
C     3.227683766691086e+00   1.565093089734497e+00   3.607425900000000e+00  5.92954840e-01  -1.58636436e+00  -1.60538020e-01
C     4.100301451734806e+00   4.207842033371418e-01   3.537895800000000e+00 -1.58601794e+00  -4.80861500e-01  -1.08585670e-01
C     5.492214748881042e+00   5.796620877423428e-01   3.489214200000000e+00  1.06406227e+00   1.83376600e-02  -3.18694570e-01
C     1.238218516414302e+00   6.338412594370740e-02   3.634596300000000e+00 -2.86090710e-01   1.16168595e+00  -8.56971300e-02
