64
Lattice="9.86 0 0 4.93 8.53901048131456 0 0 0 30 " PBC="1 1 1" Properties=species:S:1:pos:R:3:force:R:3 Energy="-515.37268818"
C     9.865847374399999e+00   4.621628415163760e-01   1.321260000000000e-01  3.86061460e-01  -1.31519180e-01   4.78530910e-01
C     1.268242105600000e+00   1.170599625846851e+00   7.711050000000000e-02 -1.52353269e+00  -4.86135000e-03  -7.44705510e-01
C     1.210398366300000e+00   2.708510081677400e-01   3.624903600000000e+00  1.39175104e+00  -4.53398950e-01  -2.57894250e-01
C     2.469156088600000e+00   9.667107693523279e-01   3.498253500000000e+00 -4.89334900e-01   1.10112443e+00  -2.34621440e-01
C     2.471574993100000e+00   4.334202760703816e-01   7.278150000000000e-02 -6.33738650e-01   8.97339070e-01   4.80575190e-01
C     3.666194450699999e+00   1.181455184479970e+00   3.582600000000000e-02  6.57941700e-01  -5.63529870e-01  -7.01348410e-01
C     3.714491787300000e+00   2.677252179914312e-01   3.465634200000000e+00 -1.41372697e+00  -2.77107710e-01   5.55530140e-01
C     4.931525785700000e+00   9.643766308376200e-01   3.403468800000000e+00  5.25345610e-01   6.83005220e-01   5.88246000e-03
C     4.872393689500000e+00   4.492251305678136e-01   6.412680000000001e-02  2.37893104e+00  -2.78116380e-01  -1.05190840e-01
C     6.143467439200000e+00   1.134306611164126e+00   7.159920000000000e-02 -5.69847580e-01   6.17793470e-01   6.93545660e-01
C     6.164549351700000e+00   2.810655432841256e-01   3.429913200000000e+00  1.68986350e-01  -1.68252883e+00  -2.35396910e-01
C     7.391069902600000e+00   9.820719368652191e-01   3.515699100000000e+00 -9.02274360e-01   9.30584870e-01  -7.91262380e-01
C     7.384282574399999e+00   4.627375169216800e-01   1.318677000000000e-01 -2.77522330e-01  -1.81644837e+00  -5.11096320e-01
C     8.610809928700000e+00   1.158116531816244e+00   1.905381000000000e-01  9.80336190e-01  -8.18430500e-02  -6.41659720e-01
C     8.597679169499999e+00   2.564199096763304e-01   3.481843500000000e+00  8.97229800e-01   1.03243936e+00   7.75531300e-01
C     9.856055704199999e+00   9.541155581141184e-01   3.556184700000000e+00 -5.87719970e-01   9.06628110e-01  -4.05634100e-01
C     1.112476517380000e+01   2.585416659223798e+00  -1.619150999999981e-01 -2.55931740e-01  -1.60807960e-01   7.26873260e-01
C     2.503223325300000e+00   3.299277337621065e+00  -2.904540000000004e-01 -1.57071309e+00   1.14959974e+00  -6.56367800e-02
C     2.447588127400000e+00   2.411882447963789e+00   3.294327000000000e+00  2.18005010e-01  -1.54807598e+00   2.21625210e-01
C     3.685210446700000e+00   3.088298369944788e+00   3.274261800000000e+00  6.84577280e-01   8.19022830e-01  -7.27458100e-01
C     3.687083649500000e+00   2.591424280047002e+00  -1.649585999999985e-01  2.04359487e+00   5.95263000e-03   6.67590450e-01
C     4.968168898100000e+00   3.301710955607865e+00  -4.302270000000163e-02 -1.59252572e+00  -7.35207890e-01  -1.12339430e-01
C     4.948408669299999e+00   2.383448140796122e+00   3.335964900000000e+00 -1.88430494e+00   4.01758570e-01   2.17045640e-01
C     6.132322779799999e+00   3.125696076413310e+00   3.363807300000000e+00  1.48018332e+00   4.13083670e-01   8.55196680e-01
C     6.158981064600000e+00   2.551772445591970e+00   1.466025000000000e-01  6.42257170e-01   8.17593230e-01  -6.00832540e-01
C     7.413164042700000e+00   3.263686058819586e+00   1.883349000000000e-01 -7.51773170e-01   1.41716020e+00  -4.35313660e-01
C     7.367876323199999e+00   2.426065744371069e+00   3.463699800000000e+00  9.28638980e-01  -1.17840702e+00   5.42699400e-02
C     8.643398904899998e+00   3.080949697525700e+00   3.420269700000000e+00 -8.33201610e-01   5.63073280e-01   1.40051130e-01
C     8.633012528800000e+00   2.570934668229928e+00   1.420956000000000e-01  1.08198932e+00   4.80558170e-01  -1.97522590e-01
C     9.886711183699999e+00   3.287478645280430e+00  -6.002309999999866e-02 -7.25976760e-01  -2.23942400e-02  -2.44941460e-01
C     9.878498247400000e+00   2.378844504076040e+00   3.408568500000000e+00 -1.06095885e+00  -3.93719160e-01  -2.41276660e-01
C     1.106550223540000e+01   3.103933895864401e+00   3.179319900000000e+00  8.40894950e-01  -5.64411000e-03   8.48676210e-01
C     1.232567772710000e+01   4.752486445236930e+00  -3.578097000000007e-01 -2.50782190e-01  -1.02809043e+00   7.37108400e-01
C     3.685687522800000e+00   5.454500271274455e+00  -2.075279999999999e-01  1.32517615e+00  -5.36907970e-01   4.15029590e-01
C     3.688773604200000e+00   4.523513476946464e+00   3.144526800000000e+00  1.17883091e+00  -1.02669320e-01   1.11278876e+00
C     4.933603682099999e+00   5.259035917129394e+00   3.346137300000000e+00 -7.27388620e-01  -3.82168440e-01   1.54405410e-01
C     4.941793496699999e+00   4.713087109321791e+00  -4.615829999999832e-02 -3.18292330e-01   8.06393960e-01   1.30158980e-01
C     6.168906633599999e+00   5.429402411671639e+00   1.754019000000000e-01 -9.61445000e-03  -5.85282370e-01  -1.90261020e-01
C     6.166113739300000e+00   4.565171295743458e+00   3.469638600000000e+00 -7.28655130e-01  -1.15077190e+00  -1.25265243e+00
C     7.399001976799999e+00   5.241104080511500e+00   3.426332100000000e+00  6.86314770e-01   6.39912000e-02   1.03035100e+00
C     7.409083333800000e+00   4.722638077933776e+00   1.506126000000000e-01  5.15248740e-01  -5.31468650e-01   1.41946580e-01
C     8.659325368499999e+00   5.458481072570125e+00   6.032670000000000e-02 -1.09919220e+00  -1.13653110e+00  -7.51886700e-02
C     8.644818301200001e+00   4.497667600025600e+00   3.392245200000000e+00 -8.08085950e-01   9.24263830e-01  -9.35095450e-01
C     9.836468469100000e+00   5.234413851190524e+00   3.169890300000000e+00  4.04644170e-01   4.57106070e-01   7.70941680e-01
C     9.869250553399999e+00   4.720526551422282e+00  -1.553357999999996e-01 -1.32355891e+00  -4.98183570e-01   8.13883100e-01
C     1.105431059310000e+01   5.435522064312340e+00  -2.364348000000014e-01  2.75008726e+00  -3.87397950e-01  -4.22052130e-01
C     1.107178295680000e+01   4.523684257156064e+00   3.081674400000000e+00  2.52393450e-01   3.58627410e-01   2.19515160e-01
C     1.233159998820000e+01   5.235359888161604e+00   3.112395000000000e+00 -9.35098780e-01  -7.81578740e-01  -2.27918940e-01
C     1.357330937610000e+01   6.871490055868038e+00  -4.613070000000263e-02  2.04679740e-01  -2.84109080e-01   8.06323700e-02
C     4.948931840900000e+00   7.573148232119070e+00   1.510551000000000e-01 -1.36046240e-01  -2.29016210e-01   5.16489100e-02
C     4.929757296100000e+00   6.664772054421281e+00   3.483351600000000e+00 -9.77775760e-01   1.32609448e+00   7.85053500e-02
C     6.150133785200000e+00   7.392583426580353e+00   3.660795900000000e+00  4.29295010e-01  -1.21394163e+00  -8.55484050e-01
C     6.177702887499999e+00   6.835859326838142e+00   2.933118000000000e-01 -4.23129570e-01   1.11286948e+00  -1.45049212e+00
C     7.395222638800000e+00   7.573551871144459e+00   1.933761000000000e-01  7.73970580e-01  -8.50632280e-01   2.83696490e-01
C     7.406873609200000e+00   6.668530158323634e+00   3.549918600000000e+00 -1.42725254e+00  -3.18087100e-02   2.31154200e-01
C     8.608803517300000e+00   7.379643324708855e+00   3.524744700000000e+00  1.18389391e+00   2.46275910e-01  -1.07108911e+00
C     8.655122543499999e+00   6.882136152574082e+00   1.179102000000000e-01 -6.42549020e-01  -1.09914982e+00  -1.97377380e-01
C     9.883561751800000e+00   7.556393754266157e+00   4.507709999999999e-02 -1.77767390e-01   7.89509470e-01  -1.82870870e-01
C     9.821251925500000e+00   6.677550171263972e+00   3.263525400000000e+00  8.83275280e-01  -5.48576330e-01   5.19125150e-01
C     1.108275048130000e+01   7.369919270354441e+00   3.282133500000000e+00 -4.12263170e-01   2.85476550e-01   1.11459920e-01
C     1.113322426500000e+01   6.826761267342015e+00  -9.434549999999930e-02 -2.03967774e+00   1.46387973e+00   9.24283000e-02
C     1.233348625550000e+01   7.549897531263287e+00  -3.789000000000087e-02  5.83238710e-01   1.31657077e+00   3.37145190e-01
C     1.230883413560000e+01   6.630826499109612e+00   3.221508600000000e+00  3.24142260e-01   2.26729904e+00   5.24185200e-01
C     1.352318153050000e+01   7.411803116758841e+00   3.416988900000000e+00  6.92469330e-01  -2.95324335e+00  -3.96969750e-01
