52
Lattice="8.88768389401873 1.33226762955019e-15 0 4.44384194700937 7.69696003302603 0 0 0 30 " PBC="1 1 1" Properties=species:S:1:pos:R:3:force:R:3 Energy="-417.80149233"
C     1.238804464607257e+01   6.606305950712220e+00  -2.189319000000012e-01 -1.59463037e+00  -1.78922266e+00   3.94962390e-01
C     8.528779887974206e+00   6.411363350701203e+00  -1.905660000000005e-01  2.65220566e+00   1.24528820e+00  -5.94504590e-01
C     9.970480598650415e+00   6.055444219534757e+00  -3.224412000000001e-01 -1.30190002e+00  -2.30573998e+00   1.73673888e+00
C     1.034116029624499e+01   4.627318390154033e+00  -2.122557000000000e-01 -9.40104150e-01   1.13688942e+00   1.83009950e-01
C     6.202921007059609e+00   5.803912183930376e+00  -3.088382999999979e-01 -1.21680490e+00   3.42377900e-01   4.82297020e-01
C     7.528106759351251e+00   5.424913410235574e+00  -2.356539000000026e-01  1.43032467e+00  -1.76206940e-01  -7.04775600e-02
C     7.881039085412541e+00   4.062149087855206e+00  -2.095647000000014e-01  2.26460979e+00  -7.34728600e-02  -5.26539800e-02
C     9.283240440296181e+00   3.654018551960458e+00  -2.029776000000005e-01 -7.20122100e-01   2.17098620e+00  -6.90248200e-02
C     9.593315332574626e+00   2.319557721911207e+00  -1.837589999999985e-01  1.23087710e+00  -3.71570240e+00   5.86363000e-03
C     3.853038672141189e+00   5.179941878512762e+00  -1.102361999999992e-01 -1.13433695e+00   2.14864967e+00  -6.74692020e-01
C     5.199453501742488e+00   4.813906555809288e+00  -2.277930000000019e-01 -2.60250630e-01  -6.18497320e-01   8.10861510e-01
C     5.537672355999809e+00   3.449739385493851e+00  -8.335139999999797e-02  2.75925650e-01  -5.11467600e-01   1.06993300e-02
C     6.923116560624536e+00   3.066590026102872e+00  -1.340108999999998e-01 -1.76141030e+00  -3.32705570e-01  -4.02120890e-01
C     7.247515866319509e+00   1.694804712628143e+00  -2.084246999999984e-01 -2.09304770e-01  -1.40268975e+00   5.90968750e-01
C     8.600259837766725e+00   1.260653371838376e+00  -2.568209999999986e-01  2.53278900e-02   1.59978436e+00   3.73680110e-01
C     2.815825342119211e+00   4.206502417464243e+00  -3.308129999999920e-02 -6.95518210e-01   1.43975065e+00  -1.04507787e+00
C     3.141724444486403e+00   2.859011788628206e+00  -5.033369999999948e-02 -3.50848590e-01  -2.16292078e+00   9.13365740e-01
C     4.514237602292395e+00   2.445353526948714e+00   3.486660000000000e-02 -2.24046380e-01   2.54505259e+00  -1.22553455e+00
C     4.873253370255054e+00   1.132378991732009e+00  -1.189511999999979e-01 -2.26934130e+00  -3.25703901e+00   1.06659152e+00
C     6.194802859968051e+00   7.067190142169382e-01  -1.417521000000015e-01  1.82609091e+00  -2.11176030e-01  -6.07091850e-01
C     1.099055109733839e+01   7.003549444522933e+00  -1.990811999999984e-01  6.52761240e-01   9.61111610e-01  -4.37918050e-01
C     2.082408377814052e+00   1.850548619446377e+00  -8.940929999999980e-02 -1.01924640e-01   2.95588000e+00  -3.29236240e-01
C     2.424000774703321e+00   5.162480401049503e-01  -1.314944999999987e-01 -7.55022080e-01  -2.45336448e+00  -2.19257540e-01
C     3.775630541682630e+00   1.174455270401607e-01  -8.785139999999814e-02  1.50530533e+00  -1.82064590e-01  -7.45309090e-01
C     4.501149824520900e+00   7.575872686321644e+00  -2.628354000000002e-01 -1.97622820e-01   5.11520970e-01  -5.16444900e-02
C     5.832806921616873e+00   7.153653711757586e+00  -2.737407000000012e-01  1.87683214e+00   2.15132486e+00   4.07355220e-01
C     9.800248171254329e-01   1.140264758191545e+00   3.551251500000000e+00 -1.77609080e-01  -1.94711828e+00  -2.92357700e-02
C     3.335080983079796e+00   4.936814769321939e-01   3.645405600000000e+00  1.03723590e-01   1.67606247e+00  -2.14465630e-01
C     4.687462604175928e+00   8.617247055986950e-01   3.730803300000000e+00  1.80841107e+00   4.20143560e-01  -9.43254000e-01
C     1.019234998509420e+01   7.588413420268124e+00   3.626930400000000e+00  2.37833870e-01   6.16840720e-01   8.24778590e-01
C     7.153019210702589e+00   3.431967489632583e-01   3.629430600000000e+00 -1.58488607e+00  -3.34426754e+00  -6.78653300e-01
C     1.260912458327502e+01   7.031230098848422e+00   3.560853600000000e+00  6.98330830e-01  -5.84271700e-02   4.00687890e-01
C     5.129751042640444e+00   7.425995710316677e+00   3.542616900000000e+00 -1.63757089e+00  -4.12323000e-03  -7.21980500e-02
C     6.151858508341470e+00   6.438014382683479e+00   3.498417600000000e+00 -1.72299811e+00  -9.16790320e-01   1.00867461e+00
C     7.480197433639570e+00   6.853286312033260e+00   3.523829100000000e+00  5.26529280e-01  -2.82019245e+00  -3.15957830e-01
C     8.484602766021400e+00   5.781485551490965e+00   3.464460900000000e+00 -4.37939400e-01   2.62332649e+00   8.14488730e-01
C     9.834987013517827e+00   6.210048206572549e+00   3.606275100000000e+00  7.18150190e-01  -7.98847370e-01  -1.04242713e+00
C     1.085037930076383e+01   5.198834220845598e+00   3.538210800000000e+00  1.50621366e+00   1.86175433e+00   6.54482590e-01
C     3.361672314492847e+00   5.653789059143650e+00   3.594328500000000e+00 -1.76366350e-01  -1.17743349e+00   7.21361600e-02
C     4.418065487259991e+00   4.654419694298064e+00   3.672923400000000e+00 -6.19242280e-01   3.23233170e-01  -8.21797160e-01
C     5.794002892429766e+00   5.033001215789640e+00   3.657619800000000e+00  2.09551740e-01  -1.98892570e-01  -2.27355004e+00
C     6.796556742516758e+00   3.981407284414102e+00   3.388221900000000e+00 -1.72537518e+00   2.29536407e+00   2.59673887e+00
C     8.126503316535384e+00   4.427594592511582e+00   3.433563000000000e+00  1.12143093e+00  -7.00936830e-01  -4.13465320e-01
C     9.161085135403473e+00   3.447055378561790e+00   3.503177400000000e+00 -3.03587750e-01   7.02966200e-02  -1.72266100e-02
C     1.051308667471066e+01   3.834506876791937e+00   3.556405200000000e+00  5.86243300e-01   5.31577900e-01  -1.51588170e-01
C     2.674886449862155e+00   2.885223709040771e+00   3.603940800000000e+00  4.73401090e-01   7.35122000e-03  -4.22221510e-01
C     4.050790526224767e+00   3.275235985872899e+00   3.570457800000000e+00  6.09142520e-01  -8.12814000e-01   1.25720523e+00
C     5.074337085662375e+00   2.227392321302379e+00   3.659930100000000e+00 -5.22553430e-01   1.67795623e+00   8.88330400e-02
C     6.452451751215300e+00   2.640143034424734e+00   3.630147000000000e+00 -4.44143300e-01  -7.88611700e-01  -1.52509272e+00
C     7.494257124041792e+00   1.659554252052349e+00   3.538922400000000e+00 -1.06162357e+00   1.83785184e+00   8.74743070e-01
C     8.828202222584022e+00   2.074816637171694e+00   3.536158500000000e+00  4.11091610e-01   6.33214270e-01  -3.06578670e-01
C     2.316557475937771e+00   1.528395513144339e+00   3.595008000000000e+00  1.40030072e+00  -1.05349401e+00   2.07706220e-01
