64
Lattice="9.86 0 0 4.93 8.53901048131456 0 0 0 30 " PBC="1 1 1" Properties=species:S:1:pos:R:3:force:R:3 Energy="-514.20986114"
C     9.829645151899999e+00   1.083022338902504e-01  -1.266579000000014e-01  3.23367820e-01   1.56836310e-01  -2.68966270e-01
C     1.220656069400000e+00   8.696753328399136e-01  -1.664318999999992e-01 -1.48741045e+00  -2.93507697e+00   8.24325910e-01
C     1.267436938000000e+00   6.525218066855487e-01   3.376107900000000e+00 -3.21551820e-01  -5.50059440e-01  -2.24670600e-02
C     2.514133168800000e+00   1.289914877723472e+00   3.487148100000000e+00  6.67543570e-01   1.03097351e+00  -2.95621300e-02
C     2.427271893200000e+00   1.522334788374400e-01  -2.045223000000007e-01  4.72299560e-01  -9.72880610e-01  -9.44308600e-02
C     3.680648126099999e+00   8.461536891816008e-01  -8.400569999999874e-02 -1.07260326e+00  -2.09076925e+00  -4.65308710e-01
C     3.764576791200000e+00   5.960611862709504e-01   3.450123000000000e+00 -1.97736200e-01   6.37069330e-01   5.51809000e-02
C     4.962800128100000e+00   1.356597803753993e+00   3.519411000000000e+00  9.04850890e-01  -5.18042190e-01  -2.25104810e-01
C     4.888726828799999e+00   5.851835116006880e-02  -1.961151000000001e-01  1.01404520e-01   2.65166506e+00   6.78432650e-01
C     6.106447576199999e+00   7.650067040792176e-01  -1.245021000000008e-01  1.67459773e+00   1.03499712e+00  -5.59841320e-01
C     6.195459810800000e+00   6.092857225815360e-01   3.456592500000000e+00  2.36767700e-02   8.52168200e-01  -2.91990960e-01
C     7.439375570899999e+00   1.319339880887028e+00   3.264075000000000e+00 -1.03442585e+00   1.21484910e-01   1.08473890e+00
C     7.396433791900000e+00   1.156474907051464e-01  -1.271259000000029e-01 -1.80487573e+00  -1.09154743e+00   1.37036040e-01
C     8.607766442499999e+00   8.127287573388985e-01  -1.480322999999970e-01 -1.43994600e-02   1.00341681e+00   5.94228730e-01
C     8.642823278099998e+00   5.617477703878040e-01   3.323368800000000e+00  8.91992050e-01   4.12591560e-01  -3.46868840e-01
C     9.879391415500001e+00   1.317645911988006e+00   3.315230400000000e+00  9.73776100e-02  -4.00150800e-02   8.83718700e-01
C     1.103807925830000e+01   2.206144297969612e+00   9.328170000000000e-02 -1.16477870e-01   3.30717739e+00  -5.62014220e-01
C     2.418019959400000e+00   2.939045945056021e+00   1.434198000000000e-01 -4.76276590e-01   8.68397270e-01   6.60172410e-01
C     2.523566871700000e+00   2.701798675610434e+00   3.648284400000000e+00  8.35998980e-01   4.46820160e-01  -1.57926930e-01
C     3.752178383500000e+00   3.464629298258929e+00   3.615387600000000e+00 -1.30535622e+00   1.17911772e+00   7.31310880e-01
C     3.633715413500000e+00   2.234763303933961e+00   9.515970000000000e-02  2.05329489e+00   3.83698570e-01  -1.09133299e+00
C     4.915492094599999e+00   2.910061640223337e+00  -6.275430000000171e-02 -1.67079097e+00   1.59893746e+00   6.97315300e-01
C     4.972164811000000e+00   2.794336017572299e+00   3.554671800000000e+00  3.97211860e-01  -7.39097370e-01  -6.40304090e-01
C     6.189335518300000e+00   3.541429841636887e+00   3.401786700000000e+00  5.41451290e-01  -4.31731806e+00  -3.72061350e-01
C     6.115996049500000e+00   2.201128483213660e+00  -1.655844000000002e-01 -1.05591630e-01  -2.46203250e-01   3.04245200e-01
C     7.327126816599999e+00   2.955259135034606e+00  -1.735523999999984e-01  1.01788079e+00  -2.61416842e+00   3.57386430e-01
C     7.421084284899999e+00   2.789574067597917e+00   3.270623100000000e+00 -2.44424290e-01  -1.86508184e+00   6.60907230e-01
C     8.645998740400000e+00   3.451481356872349e+00   3.410856300000000e+00  1.55784497e+00  -1.50654509e+00  -6.76900660e-01
C     8.575844495300000e+00   2.245560882685921e+00  -7.382400000000189e-02 -1.29690340e-01  -2.51492350e-01  -5.00725070e-01
C     9.784696172700000e+00   2.942720537435879e+00   5.751240000000000e-02  1.07865565e+00   8.81949600e-01  -3.38267800e-02
C     9.941802602599999e+00   2.727506647512047e+00   3.484312200000000e+00 -3.07810798e+00  -3.02618920e-01  -1.98174880e-01
C     1.114975948500000e+01   3.379891488469496e+00   3.719784300000000e+00  1.01166350e-01   1.96735964e+00  -7.72060680e-01
C     1.229595806020000e+01   4.382747376843035e+00   2.325732000000000e-01  3.21858890e-01  -1.48296280e-01  -7.81218880e-01
C     3.695207747200000e+00   5.116790775020725e+00   1.301028000000000e-01 -1.20877725e+00  -2.32678452e+00  -2.73601140e-01
C     3.745275693300000e+00   4.945277832931436e+00   3.670747500000000e+00 -1.36846156e+00  -2.75324915e+00  -5.96573390e-01
C     4.970755323999999e+00   5.559202885296861e+00   3.485040900000000e+00  4.04323000e-01   2.90576716e+00  -1.43210350e-01
C     4.932906580099999e+00   4.362469532485865e+00  -4.159650000000070e-02 -1.04795768e+00  -3.64439700e-02   2.29315120e-01
C     6.149883193300000e+00   5.067165205544843e+00  -1.874255999999974e-01 -2.39964950e-01   4.45348430e-01  -5.04404300e-02
C     6.181500072100000e+00   4.887800045588460e+00   3.330854400000000e+00  1.24338047e+00   1.64103114e+00   6.48057070e-01
C     7.438602152500000e+00   5.578552880775274e+00   3.323123100000000e+00 -1.21239955e+00   1.99168872e+00  -3.91340720e-01
C     7.367442384599999e+00   4.316620596565077e+00  -1.870452000000000e-01  3.75422950e-01   3.40571665e+00  -2.07021040e-01
C     8.626995611700000e+00   5.079288038723298e+00  -1.567694999999993e-01 -2.85270732e+00   9.54156030e-01  -1.32595250e-01
C     8.626382664799999e+00   4.824906049288124e+00   3.374654100000000e+00  1.53353242e+00   2.84438240e+00   1.24761782e+00
C     9.868922166099999e+00   5.539619774832343e+00   3.617944200000000e+00  8.98552470e-01   3.41975210e-01  -4.05586050e-01
C     9.812121318999999e+00   4.412703250288133e+00   3.423600000000000e-02  9.15289410e-01  -2.51884722e+00   1.51205460e-01
C     1.104222888860000e+01   5.095118254081855e+00   1.286997000000000e-01  1.11235913e+00  -2.03563930e-01   1.46135780e-01
C     1.111592563450000e+01   4.827386888002879e+00   3.735796800000000e+00  3.22534000e-01   1.12784315e+00  -8.92796800e-02
C     1.234635804180000e+01   5.639851619137736e+00   3.694324200000000e+00 -3.13369170e-01  -2.98793725e+00   2.01113790e-01
C     1.346887477040000e+01   6.517800740792141e+00   3.361410000000000e-02  3.28567442e+00  -4.23285170e-01   1.23038690e-01
C     4.844496347800000e+00   7.225581899897962e+00  -6.371850000000023e-02  1.68145674e+00  -4.94370300e-02  -9.97452450e-01
C     5.002258319799999e+00   6.998990888580891e+00   3.421255800000000e+00 -6.38948200e-01   8.23206000e-02   8.00884100e-02
C     6.199307873000000e+00   7.805522459063930e+00   3.361333200000000e+00  5.38659940e-01  -3.32504780e+00  -3.21071010e-01
C     6.098840684800000e+00   6.511596978898210e+00  -2.499906000000003e-01 -8.93900120e-01  -3.22293580e-01   8.37386310e-01
C     7.291057753399999e+00   7.245158776884828e+00  -3.139611000000002e-01  2.33271954e+00   2.38173590e-01   4.13116130e-01
C     7.437524799599998e+00   7.061662102097803e+00   3.322633200000000e+00  9.55340900e-01  -1.42533161e+00   1.21361570e-01
C     8.732964482700000e+00   7.719543589491334e+00   3.358848900000000e+00 -1.90116604e+00  -1.49258380e-01   1.02725433e+00
C     8.558633668100001e+00   6.523809898637231e+00  -2.500926000000021e-01  4.30250000e-01  -4.34751550e-01   6.82990000e-04
C     9.830628884099999e+00   7.221871102113668e+00  -2.059356000000001e-01 -1.30083276e+00  -2.12449875e+00   5.83218530e-01
C     9.929004273299999e+00   6.997337138421229e+00   3.601639200000000e+00 -1.13593076e+00  -1.20759530e+00  -9.98015750e-01
C     1.112550082840000e+01   7.726310157566000e+00   3.575387400000000e+00  6.85179550e-01   5.96170960e-01  -2.44712340e-01
C     1.104629480750000e+01   6.494522458932508e+00   1.853790000000000e-02  6.55236760e-01   1.51492575e+00  -7.66745000e-01
C     1.231681191090000e+01   7.230044301384705e+00  -2.384789999999981e-02 -3.31047905e+00   2.77980980e-01   2.21348640e-01
C     1.235619003940000e+01   7.017544962892464e+00   3.556823400000000e+00 -6.82952480e-01  -2.80481890e-01   3.49736900e-01
C     1.359669147870000e+01   7.628129554358113e+00   3.438185400000000e+00  7.65873240e-01   3.80109102e+00  -3.38934100e-01
