52
Lattice="8.88768389401873 1.33226762955019e-15 0 4.44384194700937 7.69696003302603 0 0 0 30 " PBC="1 1 1" Properties=species:S:1:pos:R:3:force:R:3 Energy="-416.23403706"
C     4.458033448098524e+00   7.651281497066761e+00  -5.821889999999996e-02 -1.92646894e+00  -1.02308578e+00   4.30322190e-01
C     9.530597928049032e+00   7.418070920269789e+00  -5.072370000000248e-02 -7.31790140e-01   3.04128528e+00   4.88985040e-01
C     1.089007280920293e+01   7.085938782258457e+00   9.186420000000001e-02  1.34089527e+00  -1.51083023e+00  -1.59033190e-01
C     1.134367828590128e+01   5.690538348746085e+00   1.239465000000000e-01 -4.36478632e+00   3.84521370e-01  -1.15802762e+00
C     7.112677440045552e+00   6.838084585065210e+00  -1.696067999999968e-01  1.29318915e+00   1.55013583e+00   4.48539570e-01
C     8.471897289078377e+00   6.456916423185953e+00  -9.953670000000159e-02  1.23596424e+00   4.17831610e-01  -1.44250210e-01
C     8.836783994354965e+00   5.092698452934319e+00  -6.836280000000272e-02  2.14629270e-01  -3.21264820e-01   7.18726490e-01
C     1.019962930739374e+01   4.701593977473933e+00   2.805600000000000e-02  2.16102924e+00   5.13461650e-01  -6.80484300e-02
C     1.055115311329680e+01   3.315206145369489e+00  -6.938069999999996e-02  8.32888930e-01   8.59071350e-01  -5.24291110e-01
C     4.797675087165371e+00   6.185507142243296e+00   1.334910000000000e-02 -7.60145400e-02   6.52455551e+00  -8.15471630e-01
C     6.117087799980981e+00   5.857518508724914e+00  -5.264100000000127e-02  1.10470265e+00   1.55775969e+00  -8.80604800e-02
C     6.466914902647117e+00   4.557492030579475e+00   1.549110000000000e-02 -2.89101680e-01  -4.36793733e+00  -8.45496040e-01
C     7.795908760811338e+00   4.111113914842853e+00  -2.262809999999860e-02  1.70530179e+00   3.19268500e-02  -6.83334300e-02
C     8.184920772931477e+00   2.736246045845709e+00  -1.987469999999902e-02 -8.28262900e-02  -7.55121630e-01  -3.76612300e-02
C     9.572167444255617e+00   2.303992775399340e+00  -1.232370000000031e-01 -1.98221029e+00   1.98208312e+00   1.30429290e-01
C     3.793278196828726e+00   5.326124467642530e+00  -1.730730000000236e-02 -2.56799310e+00  -4.59328003e+00   1.37548949e+00
C     4.098863519953477e+00   3.876081852454782e+00   9.635999999999999e-04 -1.88051359e+00   2.69424235e+00  -1.72413793e+00
C     5.428327136716103e+00   3.531917287737351e+00  -9.455879999999794e-02  1.34378211e+00   1.25161574e+00   1.62612789e+00
C     5.726249987688347e+00   2.197079614525031e+00   3.313050000000000e-02  3.73619632e+00  -2.15911783e+00  -6.55512550e-01
C     7.178000669049556e+00   1.740002801316309e+00   5.468880000000000e-02 -2.11356329e+00   1.34443317e+00  -1.62890920e-01
C     7.483317850806219e+00   3.744317054914010e-01   7.095090000000001e-02  1.47049696e+00  -7.99629600e-01  -4.46065620e-01
C     3.040591400703152e+00   2.978928116807597e+00  -1.978673999999998e-01  2.59052900e-02  -2.74805225e+00   9.85867680e-01
C     3.393322198470424e+00   1.521010818782757e+00  -2.553062999999973e-01 -2.27403920e-01   2.95502515e+00   7.46173690e-01
C     4.739527145467080e+00   1.232591871930603e+00  -6.596790000000041e-02  5.35621050e-01  -4.44310017e+00  -3.88057720e-01
C     9.844190656757815e-01   9.577775328402746e-01  -2.138948999999997e-01  2.25144626e+00  -1.84883494e+00   7.24806920e-01
C     2.414125224766331e+00   5.430063677100447e-01  -2.135336999999993e-01 -3.01940849e+00  -5.72624700e-01  -5.69518140e-01
C     9.664067524933701e-03   1.342773162033650e-02   3.358694400000000e+00  9.92284830e-01   1.84621990e+00   7.02567310e-01
C     6.835468979893125e+00   7.084038633735851e+00   3.524337300000000e+00  4.94178580e-01   3.24346938e+00   1.07017600e-02
C     8.209292671616353e+00   7.423507821926180e+00   3.511768800000000e+00 -1.78438600e-02   4.65198602e+00   5.96324470e-01
C     9.252459593229746e+00   6.525078623032424e+00   3.520953900000000e+00  7.66538180e-01  -1.96505370e-01  -2.48195290e-01
C     1.062271216920240e+01   6.979768454996643e+00   3.405388200000000e+00 -3.11723940e-01  -2.00614885e+00   6.54312330e-01
C     1.163704344475622e+01   5.984871870594092e+00   3.401485800000000e+00  4.22817880e-01  -1.31325021e+00  -5.18225400e-01
C     4.150854117075221e+00   6.341378048902026e+00   3.342090300000000e+00 -7.34839710e-01  -8.08585940e-01   2.80257480e-01
C     5.210503737215454e+00   5.335532923704800e+00   3.378570900000000e+00 -1.28450178e+00   2.05579123e+00  -7.66818920e-01
C     6.549515837666690e+00   5.763201807787701e+00   3.456403800000000e+00 -5.88239480e-01  -2.51026889e+00   1.08191213e+00
C     7.563035134410801e+00   4.753657908448059e+00   3.645246600000000e+00 -1.65673607e+00   2.00100994e+00  -1.84030440e+00
C     8.897683382052625e+00   5.151430414321634e+00   3.599955600000000e+00  1.86722350e-01   6.90104470e-01   1.53712900e-02
C     9.862388319332227e+00   4.181249692210617e+00   3.531148800000000e+00  3.63333966e+00  -7.00308440e-01   1.54771810e-01
C     1.126112903282738e+01   4.583125601415386e+00   3.408273900000000e+00  7.25836180e-01   3.74164450e-01   2.53496820e-01
C     3.458475988462260e+00   3.629120040807413e+00   3.366381900000000e+00  6.42509670e-01  -1.04186750e-01   7.07258100e-02
C     4.879773377026009e+00   4.009887960765110e+00   3.248887500000000e+00 -1.95135788e+00  -2.36236715e+00   1.76453404e+00
C     5.891811407911560e+00   2.964887014442470e+00   3.397822500000000e+00 -3.43713832e+00   1.71629688e+00  -1.54390210e+00
C     7.175803812450679e+00   3.441111939965825e+00   3.419666700000000e+00  2.62609939e+00  -2.39578784e+00   1.35885591e+00
C     8.195387664739584e+00   2.437774946163975e+00   3.469357800000000e+00  1.04517509e+00  -1.12433563e+00  -2.55398340e-01
C     9.576514410767606e+00   2.798738126146881e+00   3.579328500000000e+00 -5.63582560e-01   2.43997390e-01  -9.15639870e-01
C     1.729275989096776e+00   1.840754853565005e+00   3.518771100000000e+00  1.13942051e+00  -8.38368150e-01   8.21630750e-01
C     3.173183512176924e+00   2.245379116287685e+00   3.536768700000000e+00 -2.98031972e+00  -1.03170418e+00  -6.33323740e-01
C     4.117846144534941e+00   1.197949471197179e+00   3.534191400000000e+00  1.22468892e+00  -6.36689820e-01  -1.24168313e+00
C     5.504577997319037e+00   1.611259676344114e+00   3.330636600000000e+00 -2.75295650e-01  -1.20778868e+00   1.73732413e+00
C     6.540185188269206e+00   6.179282687636636e-01   3.403923300000000e+00 -7.82246580e-01   1.71535709e+00  -1.05864563e+00
C     7.891622270799511e+00   1.046906867565269e+00   3.342647100000000e+00 -1.95493820e-01  -6.60228230e-01   7.05456790e-01
C     1.370400955847926e+00   4.434942187525820e-01   3.527505900000000e+00  9.28037500e-01  -6.38422460e-01  -9.50118370e-01
