64
Lattice="9.86 0 0 4.93 8.53901048131456 0 0 0 30 " PBC="1 1 1" Properties=species:S:1:pos:R:3:force:R:3 Energy="-511.63382638"
C     4.996003332999999e+00   8.475626429888218e+00  -3.939075000000010e-01 -4.11502785e+00  -4.49917334e+00   3.90610000e-02
C     1.218120570400000e+00   6.282783604713617e-01  -4.127183999999993e-01  2.82320221e+00  -1.05056034e+00   8.67685970e-01
C     1.284792115600000e+00   8.024244772223680e-01   3.788613600000000e+00 -3.32486207e+00   4.89972667e+00  -2.54951630e-01
C     2.443516686900000e+00   1.628788155715521e+00   3.814281600000000e+00  8.79448710e-01  -5.34183332e+00  -3.55211130e-01
C     7.349845341200000e+00   8.428438150173642e+00  -3.818345999999977e-01  4.28121736e+00  -9.79676620e-01  -8.95573360e-01
C     3.766107457600000e+00   5.333515472068784e-01  -5.106698999999999e-01 -2.68278256e+00   2.66922058e+00   1.51372087e+00
C     3.681583051300000e+00   8.685648345269896e-01   3.772732200000000e+00  3.97119380e-01   2.20612531e+00  -1.32994560e-01
C     4.915781140500000e+00   1.587517410263585e+00   3.691048800000000e+00  9.71674900e-02  -2.04446910e+00   7.07725030e-01
C     9.907209186999999e+00   8.375597216301514e+00  -3.861000000000026e-01 -9.82022370e-01   5.49787940e-01   3.74467390e-01
C     6.183585905799999e+00   5.389394756649905e-01  -2.894712000000013e-01  1.14418107e+00   1.80534247e+00  -9.78764560e-01
C     6.133970681599999e+00   7.804911749034400e-01   3.766274100000000e+00 -1.10745890e+00   3.95449960e+00  -2.32502030e-01
C     7.305019661299999e+00   1.579934085836506e+00   3.797152200000000e+00  1.64223179e+00  -4.05209770e-01   5.43656500e-02
C     1.232803372480000e+01   8.390007650387563e+00  -3.371595000000021e-01  2.14384833e+00  -2.17606848e+00   1.89680870e-01
C     8.642895354699998e+00   5.610299811668552e-01  -4.043967000000031e-01 -1.71293590e-01   5.24734700e-02   6.07310600e-02
C     8.557684396599999e+00   8.847789637967280e-01   3.773224200000000e+00  7.65500360e-01  -1.90249291e+00  -7.39790350e-01
C     9.840045627800000e+00   1.504009559543691e+00   3.704138700000000e+00  9.67547000e-03   2.00577414e+00   9.41266050e-01
C     1.286753762600000e+00   1.998500753176928e+00  -2.594411999999977e-01 -2.02325435e+00   9.11573720e-01  -1.90821417e+00
C     2.488502887600000e+00   2.672863982428640e+00  -3.028970999999991e-01  3.09684621e+00   2.46000399e+00   1.24468870e-01
C     2.413547562000000e+00   2.962172317919214e+00   3.726926100000000e+00  2.00508939e+00   3.30750104e+00  -6.02825730e-01
C     3.692485204000000e+00   3.680054614082247e+00   3.605365500000000e+00 -1.39216717e+00   1.93088169e+00   7.31626840e-01
C     3.781005178100000e+00   2.040079329956668e+00  -4.217925000000022e-01 -8.89837430e-01  -3.73945605e+00   3.53356350e-01
C     5.026849307700000e+00   2.693757831001838e+00  -3.411416999999979e-01 -1.99728262e+00   8.78603430e-01  -4.79336390e-01
C     4.882940980800000e+00   2.992609108434546e+00   3.714873600000000e+00  2.17400213e+00   1.02155921e+00   5.14961190e-01
C     6.119955135300000e+00   3.794832491960110e+00   3.933114000000000e+00 -1.03682477e+00  -2.59492583e+00  -1.79977329e+00
C     6.254161764500000e+00   2.003514262400051e+00  -3.594317999999994e-01 -2.67576210e+00  -2.26170603e+00   5.94054220e-01
C     7.417347591400000e+00   2.718914865947280e+00  -3.458733000000009e-01  1.86750903e+00  -3.23849366e+00  -1.17858906e+00
C     7.325845115200000e+00   3.015846659214189e+00   3.839772900000000e+00 -3.08854330e-01   8.64703200e-02   2.70667000e-01
C     8.565016144700000e+00   3.692184876199820e+00   3.764256600000000e+00  1.22813417e+00  -3.07460890e-01  -5.89991740e-01
C     8.626096971299999e+00   1.952561986865891e+00  -4.777361999999989e-01  1.58418005e+00   1.73262142e+00   1.03942808e+00
C     9.900588788600000e+00   2.673511410203234e+00  -4.453152000000031e-01 -1.46481055e+00  -2.55270810e-01   1.02130795e+00
C     9.825684932200000e+00   2.982275881072488e+00   3.739039800000000e+00 -4.22138090e-01  -1.82902475e+00  -1.08229290e-01
C     1.106670234530000e+01   3.644169849490571e+00   3.740534100000000e+00 -1.31248513e+00   3.47664906e+00  -6.72172030e-01
C     2.531662474000000e+00   4.115860604290635e+00  -2.606810999999993e-01 -1.98832357e+00   1.01764837e+00  -1.53553760e-01
C     3.804257818900000e+00   4.882856300080959e+00  -2.196294000000023e-01 -3.60820040e+00  -4.69805237e+00  -1.04863377e+00
C     3.749566617400000e+00   5.170400902956890e+00   3.623186100000000e+00 -4.99472808e+00  -3.59185049e+00   1.94056300e-02
C     4.876433085000000e+00   5.886157497851030e+00   3.727566000000000e+00  2.62410588e+00   9.57280280e-01   6.45529440e-01
C     4.937671227899999e+00   4.117149397142382e+00  -3.534888000000009e-01  3.66930993e+00   1.76350330e-01   3.86554600e-01
C     6.203255817000000e+00   4.814310332743911e+00  -4.421517000000001e-01 -1.55094105e+00   9.50946800e-02   2.22472550e-01
C     6.102186330700000e+00   5.189474063715542e+00   3.866911200000000e+00  1.89731770e+00  -4.13208300e-01  -5.74568300e-02
C     7.406509775200000e+00   5.839134362599138e+00   3.846668100000000e+00 -2.87789976e+00   1.37090889e+00  -6.55979430e-01
C     7.401928572699999e+00   4.063657278331051e+00  -4.389101999999987e-01 -3.27354600e-01   3.67942479e+00   5.92678420e-01
C     8.588752615699999e+00   4.785024686231390e+00  -3.410736000000014e-01  1.96477759e+00   2.17632619e+00  -6.90306200e-01
C     8.584764393600000e+00   5.106718841379355e+00   3.640308000000000e+00  6.67024140e-01   1.02307910e+00   2.14803793e+00
C     9.799546663799999e+00   5.871573209511610e+00   3.754042500000000e+00  1.67050093e+00  -2.15002562e+00  -8.97279350e-01
C     9.811103175400000e+00   4.076374341248809e+00  -3.732329999999990e-01  2.18739108e+00   1.22932600e+00  -5.11773100e-02
C     1.107017691070000e+01   4.821157167517090e+00  -3.524175000000014e-01  1.65190147e+00  -2.96978620e-01   9.17604730e-01
C     1.107260611890000e+01   5.141823481973578e+00   3.684356100000000e+00 -1.16962920e+00  -1.83276909e+00   4.09450940e-01
C     1.230460089250000e+01   5.813165609317466e+00   3.675729600000000e+00  8.16518110e-01   1.02547542e+00   8.65124600e-01
C     3.773042784400000e+00   6.220167040863776e+00  -3.597861000000009e-01 -6.49157540e-01   3.12527942e+00   6.75269520e-01
C     4.946518408699999e+00   6.957454152952503e+00  -3.485109000000008e-01  2.86788913e+00   2.27155546e+00  -1.00919453e+00
C     4.847777213500000e+00   7.295802025629718e+00   3.781235400000000e+00  2.20966823e+00  -7.56460100e-02  -7.35287820e-01
C     6.130799360499999e+00   8.008363322802243e+00   3.791225400000000e+00 -6.14075500e-01  -3.71882419e+00   4.46066100e-01
C     6.182936822000000e+00   6.238786353215416e+00  -4.452755999999987e-01  1.20808953e+00   7.59815130e-01   9.24504680e-01
C     7.455609617199999e+00   6.990941334181605e+00  -3.681938999999979e-01 -2.52075465e+00  -1.70742200e-02  -3.76329220e-01
C     7.323693318100000e+00   7.281843817538690e+00   3.851368799999999e+00  3.83821789e+00  -4.99984120e-01  -2.32265090e-01
C     8.648546909499998e+00   8.027432641006177e+00   3.828124800000000e+00 -3.32676331e+00  -2.16366085e+00  -1.35036510e-01
C     8.674904316399999e+00   6.276629027520051e+00  -3.334868999999969e-01 -1.07393282e+00  -1.61181466e+00   1.92689640e-01
C     9.896531398599999e+00   6.984069138547301e+00  -2.738474999999987e-01  2.85870950e-01  -1.14745141e+00  -7.33581670e-01
C     9.841795136900000e+00   7.275244870239746e+00   3.808336500000000e+00 -1.49326477e+00  -4.99061430e-01  -3.55979740e-01
C     1.104835949150000e+01   7.942341572353189e+00   3.768789900000000e+00  1.72761821e+00  -3.98215500e-01   1.02394309e+00
C     1.111217508770000e+01   6.267359163133068e+00  -3.075005999999973e-01  1.60288238e+00  -1.45652966e+00   1.30202170e-01
C     1.242390639950000e+01   6.919976606735993e+00  -3.302915999999989e-01 -3.69604178e+00   1.83718853e+00   3.90988700e-02
C     1.228569168030000e+01   7.237695254774785e+00   3.880127400000000e+00 -3.84415350e-01  -9.42964650e-01  -2.29994952e+00
C     1.349501160910000e+01   7.929110204834218e+00   3.719040900000000e+00 -7.89687420e-01   3.44048262e+00   1.33776689e+00
