76
Lattice="10.7446858958278 0 0 5.37234294791388 9.3051709414712 0 0 0 30 " PBC="1 1 1" Properties=species:S:1:pos:R:3:force:R:3 Energy="-608.16730163"
C     1.075701972494461e+01   4.422878020175160e-02  -5.130005999999980e-01  4.68054556e+00  -5.04666900e-01   5.37504060e-01
C     1.248268289753719e+01   8.534585168807318e+00  -7.100648999999990e-01  1.52359505e+00  -2.18364546e+00   6.73311260e-01
C     1.391934458805116e+01   8.306885681819621e+00  -7.709580000000003e-01 -6.19367210e-01   3.17705973e+00   7.99073280e-01
C     1.446689748843179e+01   7.053753565692642e+00  -5.326746000000000e-01  1.42957046e+00  -1.48712820e+00   1.18330920e-01
C     8.250100555452002e+00   8.973534275491563e+00  -3.001448999999994e-01 -8.00270000e-01   1.21071493e+00   4.21652890e-01
C     9.610661342652904e+00   8.758530670682692e+00  -3.591380999999991e-01  3.65567405e+00   3.35542985e+00  -6.57562320e-01
C     1.027761719754533e+01   7.515878131120050e+00  -3.230316000000002e-01  3.13184010e-01   7.01092160e-01  -7.54123040e-01
C     1.172191250388038e+01   7.330268630793545e+00  -4.643469000000024e-01 -2.94215677e+00   2.14853305e+00   6.71621430e-01
C     1.221586661311746e+01   6.067456345337683e+00  -1.143098999999985e-01  3.51335028e+00   1.40579081e+00  -1.53056547e+00
C     1.366573094387791e+01   5.938328395151594e+00  -2.039226000000021e-01 -1.12242379e+00  -2.11281412e+00   1.07997896e+00
C     6.035408852532624e+00   8.061643807420706e+00  -5.216426999999975e-01 -2.77548397e+00  -1.93549718e+00  -6.21619800e-02
C     7.405376988302981e+00   7.828299989844225e+00  -3.919566000000003e-01  4.14835960e-01   1.41848584e+00   5.32772760e-01
C     7.997020008869684e+00   6.546528511649822e+00  -2.544029999999999e-01 -2.33375200e-01   5.33753740e-01  -2.93180570e-01
C     9.409377864559003e+00   6.439995749747078e+00  -2.248266000000001e-01  9.10268300e-02  -2.29422837e+00   6.35465120e-01
C     9.959001427082857e+00   5.142992637240990e+00  -6.256290000000320e-02  1.83328761e+00  -1.52781523e+00  -2.45216010e-01
C     1.144074669144121e+01   4.955401879917941e+00   1.699830000000000e-02 -3.09257679e+00  -2.39380790e+00   1.33192692e+00
C     1.201031878408357e+01   3.613816855972929e+00   2.533761000000000e-01 -2.82053941e+00  -5.18014420e-01  -2.23757756e+00
C     5.156048715916365e+00   6.879231269592855e+00  -4.979838000000001e-01  1.20716063e+00   1.03118692e+00   9.47490320e-01
C     5.773979362665429e+00   5.617898227161326e+00  -1.998341999999980e-01 -2.21397690e+00  -1.26082797e+00  -7.51102900e-01
C     7.166024550831088e+00   5.411009289722392e+00  -1.927710000000005e-01  2.97433780e-01  -3.14763800e-01  -5.91045250e-01
C     7.743603637129562e+00   4.085406176021958e+00  -2.876024999999984e-01 -1.91621904e+00   1.85309398e+00   6.65460600e-01
C     9.121733275139270e+00   3.980369220347819e+00  -1.454489999999993e-01  7.54728130e-01  -8.53248560e-01  -2.78040800e-02
C     9.637462135033850e+00   2.647891353305203e+00  -1.739348999999990e-01  3.14096469e+00  -4.15936790e-01  -1.85636940e-01
C     1.109358229054243e+01   2.453106396121602e+00  -4.037100000000038e-02 -2.38694500e-02   1.27311785e+00   6.62475040e-01
C     3.466941919544207e+00   4.605929156803422e+00   7.597139999999999e-02  9.85720140e-01   8.67197340e-01  -1.04585521e+00
C     4.886275010426088e+00   4.443188323734189e+00  -8.850119999999961e-02 -1.27959970e-01   3.83062270e-01  -2.88875580e-01
C     5.393931172910280e+00   3.126269446916928e+00  -2.881992000000011e-01  3.43101636e+00   6.14123600e-01   7.43949850e-01
C     6.874742992681064e+00   2.977858018785039e+00  -4.131819000000014e-01 -7.67480470e-01  -1.53113710e-01   1.62149090e-01
C     7.476426492433879e+00   1.705031043105003e+00  -5.475639000000001e-01 -2.82747887e+00  -2.25706186e+00   1.97890140e-01
C     8.861383196417590e+00   1.481068419715100e+00  -4.526682000000015e-01 -5.37258490e-01   1.47083766e+00  -2.65790430e-01
C     9.418266674586926e+00   1.931107708280764e-01  -6.428843999999998e-01 -2.48727229e+00  -9.96727250e-01  -9.43937400e-02
C     2.655138565736761e+00   3.405961669583585e+00   1.902894000000000e-01 -2.59691100e-02   2.30284894e+00   2.25030100e-02
C     3.194899742243294e+00   2.128347090403209e+00   2.718780000000000e-02  1.87359708e+00  -2.18414830e-01  -1.82321500e-02
C     4.657586082752220e+00   1.947347557863799e+00  -1.892820000000022e-01 -3.52969826e+00   1.06755872e+00  -4.23116640e-01
C     5.139285716550057e+00   6.879014179954827e-01  -5.031677999999999e-01 -3.34786400e-02  -2.49426003e+00   1.44840444e+00
C     6.545854335476457e+00   5.165895919734160e-01  -5.964756000000015e-01  1.06602858e+00   1.32017012e+00  -7.99137900e-01
C     9.124182580013604e-01   1.145386611295625e+00  -2.146727999999989e-01 -7.74985780e-01   1.63783809e+00   4.00433220e-01
C     2.334893954615274e+00   1.050331405540534e+00  -9.150630000000248e-02 -5.28961720e-01  -3.85227767e+00  -1.17506990e+00
C     1.598688083352420e+01   9.297293368385615e+00   3.429926400000000e+00  2.91112783e+00  -2.72109618e+00  -1.58892936e+00
C     1.175094545103363e+01   8.776404508282791e+00   3.726519900000000e+00  3.58037955e+00   1.74652320e-01  -4.99674960e-01
C     1.322391601392831e+01   8.986084159538340e+00   3.577531800000000e+00 -1.54137023e+00  -1.42991645e+00   5.43383320e-01
C     1.404670924736799e+01   7.791182035171402e+00   3.675535200000000e+00  1.05009701e+00   1.22514087e+00  -1.14598233e+00
C     7.525713226232052e+00   8.335188289750725e+00   3.588649200000000e+00 -3.50937200e-01  -2.88477039e+00  -2.79476100e-02
C     8.919282655539483e+00   8.448542579417873e+00   3.648664800000000e+00  2.25619464e+00   2.05453969e+00   4.71976300e-01
C     9.816229103079138e+00   7.352544465610229e+00   3.785193900000000e+00 -1.12302670e-01  -2.25887880e+00   5.71385700e-02
C     1.128404909334080e+01   7.454619864529294e+00   3.762879600000000e+00 -3.39820280e+00   2.20826556e+00  -4.21591090e-01
C     1.210361113111320e+01   6.367210795706108e+00   3.628887300000000e+00  8.74945400e-01  -1.88165497e+00   7.15841700e-01
C     1.353129042538506e+01   6.489593892736338e+00   3.699436800000000e+00 -1.59160165e+00  -6.76313290e-01   5.24254700e-01
C     4.718286412871096e+00   7.939849634659270e+00   3.554274000000000e+00  2.07585910e-01   1.82764881e+00   1.64401471e+00
C     5.595134227030218e+00   6.855974204500548e+00   3.907628100000000e+00 -1.82928402e+00  -4.09236190e-01  -1.49922900e+00
C     6.972680643489275e+00   6.981436568698243e+00   3.844222500000000e+00  1.32320044e+00   1.72811258e+00  -3.35933750e-01
C     7.836735942062717e+00   5.846547399895161e+00   3.929512500000000e+00  1.52036400e-01   1.00502338e+00  -9.87795900e-02
C     9.229690506719521e+00   6.005990480383256e+00   3.874085700000000e+00  1.39590125e+00   1.15111485e+00  -9.09301380e-01
C     1.008617354162837e+01   4.868340002103729e+00   3.698008500000000e+00  4.06554470e-01   1.13798413e+00   7.48844070e-01
C     1.149491564934205e+01   5.087421132818507e+00   3.613377900000000e+00  1.66632870e-01  -2.02877369e+00   7.64525100e-02
C     1.228752963881325e+01   3.894238790144700e+00   3.615699300000000e+00  3.67437705e+00  -6.93149110e-01  -2.76994900e-02
C     3.589351022277104e+00   5.314180983644684e+00   3.881199300000000e+00  5.43340670e-01   1.51754345e+00  -9.05820940e-01
C     5.006443846148835e+00   5.558150748124389e+00   3.965212500000000e+00  6.04687960e-01  -2.39919806e+00   1.61591400e-02
C     5.882636932872641e+00   4.380398705161838e+00   3.920017500000000e+00 -3.73818110e-01   4.09447260e-01   1.73083130e-01
C     7.323572429650191e+00   4.551501723148011e+00   3.898932900000000e+00 -2.13212197e+00  -1.37479201e+00   1.41482850e-01
C     8.135815778345242e+00   3.388738542587320e+00   3.781599300000000e+00  1.39182139e+00   9.10932670e-01  -4.75337270e-01
C     9.584693424599495e+00   3.553949712437704e+00   3.712636800000000e+00 -1.43135182e+00  -8.07364760e-01  -8.81324390e-01
C     1.039956803942460e+01   2.406198191947678e+00   3.454419600000000e+00  9.12956640e-01   3.01903740e-01  -1.16007480e-01
C     1.184670590613792e+01   2.520243018350283e+00   3.463744200000000e+00 -4.24185790e+00   4.67558934e+00   3.17881010e-01
C     3.030731847547482e+00   4.011369304282720e+00   3.759691500000000e+00 -1.37338429e+00   1.68754620e+00   6.96447930e-01
C     3.922730797017624e+00   2.918431288990404e+00   3.875580300000000e+00 -2.66988982e+00  -4.03034410e-01  -1.29858448e+00
C     5.296394352609568e+00   3.050461894199517e+00   3.847932300000000e+00  2.57960979e+00   1.21535974e+00  -5.69984400e-02
C     6.174688508937689e+00   1.926405433197944e+00   3.661935000000000e+00 -1.56858341e+00  -5.07304430e-01   9.36943240e-01
C     7.569264554143663e+00   2.115933620162411e+00   3.597514200000000e+00 -9.88432900e-02  -5.65117050e-01   3.48183690e-01
C     8.409874357125579e+00   9.741561124675745e-01   3.481836000000000e+00  4.47547680e-01  -4.44768380e-01  -3.80272300e-01
C     9.841859852889007e+00   1.119202790787559e+00   3.312326700000000e+00 -2.50474455e+00   9.14952260e-01   1.41348391e+00
C     1.898955132214095e+00   1.452094350648965e+00   3.431637900000000e+00  2.65956045e+00  -2.38714405e+00  -2.67681650e-01
C     3.312941882285854e+00   1.667655986559108e+00   3.658828800000000e+00  2.87881370e-01  -2.72062387e+00  -1.23926360e-01
C     4.143851060496673e+00   4.948168877494570e-01   3.680813400000000e+00 -4.78807020e-01  -9.38901540e-01  -2.12785420e-01
C     5.568765478469310e+00   5.919784119985269e-01   3.726691500000000e+00 -5.91111470e-01   2.14653804e+00  -4.94601750e-01
C     1.335258180098420e+00   1.190809710187526e-01   3.276627000000000e+00 -1.19807567e+00   1.18415489e+00   2.33007393e+00
