76
Lattice="10.7446858958278 0 0 5.37234294791388 9.3051709414712 0 0 0 30 " PBC="1 1 1" Properties=species:S:1:pos:R:3:force:R:3 Energy="-612.846889"
C     8.043547077541299e-02   3.432491456347200e-02  -8.864369999999866e-02 -7.44762020e-01  -1.63269170e-01   1.60363140e-01
C     1.249080249550153e+01   8.528434171660850e+00  -1.764903000000011e-01  1.53696243e+00  -1.38395037e+00   2.11722750e-01
C     1.391172612223719e+01   8.360873446148117e+00  -1.766609999999993e-01  2.29524310e-01  -9.63656140e-01   4.56025680e-01
C     1.450841726485686e+01   7.031311447471259e+00  -1.358139000000023e-01 -7.41650410e-01   3.72277040e-01  -3.24998490e-01
C     8.281576468114897e+00   8.981441251446117e+00  -8.223870000000133e-02 -1.24435094e+00   2.34656423e+00   2.70213260e-01
C     9.684794571637102e+00   8.849103017285730e+00  -1.045823999999982e-01  4.69430590e-01  -1.06515991e+00  -4.60616000e-03
C     1.029051227115793e+01   7.540451133486692e+00  -1.036484999999985e-01 -9.16803800e-01  -5.66826400e-02  -2.37761300e-01
C     1.169587125334571e+01   7.355662070081967e+00  -1.773224999999989e-01 -8.75960690e-01  -8.56940600e-02   6.10468810e-01
C     1.223824097097161e+01   6.033739523695140e+00  -8.288370000000000e-02  1.51928737e+00   8.36052230e-01  -1.96127150e-01
C     1.368631088546333e+01   5.863886655424756e+00  -9.195509999999985e-02 -2.15599454e+00   2.32073888e+00  -3.05686600e-02
C     6.022883718455565e+00   8.016984290856144e+00  -1.270842000000023e-01 -1.47256344e+00   4.93579310e-01   1.09479100e-01
C     7.407578735614181e+00   7.880167850129169e+00  -1.021530000000013e-01  1.95370958e+00  -2.12276799e+00   5.85631800e-02
C     8.028976370162599e+00   6.534860664756447e+00  -7.297349999999980e-02 -1.89581503e+00   7.86395670e-01   1.69780100e-02
C     9.427405298562025e+00   6.397471862964955e+00  -5.654309999999896e-02  4.50484640e-01   3.07373730e-01   5.77305200e-02
C     9.990914003780729e+00   5.101078425258855e+00   1.234830000000000e-02  5.34055250e-01   5.28195800e-02  -5.86968960e-01
C     1.141251196700347e+01   4.908756267667943e+00   6.130500000000001e-03 -6.44680610e-01  -2.52995060e-01   3.49612680e-01
C     1.196839731757613e+01   3.592194430259651e+00   1.044447000000000e-01  2.75988470e-01   1.11102752e+00  -5.36376050e-01
C     5.158590210195722e+00   6.849257359909219e+00  -1.368675000000010e-01  8.61243100e-01   1.65685194e+00   3.44008420e-01
C     5.739969315833019e+00   5.566573323600731e+00  -7.772519999999972e-02  3.49798590e-01  -1.06814610e-01  -3.77373670e-01
C     7.153008330884969e+00   5.383230004604953e+00  -6.123089999999820e-02  8.40392350e-01   5.01602740e-01  -4.71376550e-01
C     7.718796951004796e+00   4.068043099254755e+00  -1.317120000000003e-01  6.80311050e-01   1.88834188e+00   5.10989010e-01
C     9.158065839552396e+00   3.981326629385836e+00  -5.429999999999779e-02 -1.32889355e+00  -1.18690165e+00   2.12187160e-01
C     9.714507926024961e+00   2.682748430594734e+00  -1.875599999998201e-03 -2.05984783e+00  -1.37210025e+00  -3.53205660e-01
C     1.108074722600058e+01   2.488604134430352e+00   5.371680000000000e-02  1.67147947e+00   1.50343640e-01   9.49831800e-02
C     3.467787418877678e+00   4.604451123451311e+00  -4.136699999999749e-02  1.98715181e+00  -1.43496639e+00   1.64621170e-01
C     4.904647886080793e+00   4.443741981405118e+00  -9.891719999999893e-02 -7.26474380e-01  -1.44082428e+00   3.07106160e-01
C     5.470037018778859e+00   3.117514676838029e+00  -1.124829000000034e-01 -9.76827790e-01   4.45005390e-01   4.23710390e-01
C     6.866282089769108e+00   2.953875429514540e+00  -1.506824999999985e-01 -7.54974800e-02  -3.76643000e-02   4.74809500e-02
C     7.408776177134307e+00   1.663596884891661e+00  -1.341555000000021e-01  8.15629180e-01  -1.12970533e+00   5.81019320e-01
C     8.826893130742597e+00   1.514737040572174e+00  -6.246029999999791e-02  4.21729680e-01   1.79120630e-01  -1.28750110e-01
C     9.369816844373505e+00   1.845029293983200e-01  -7.823009999999897e-02  1.71301127e+00   9.17772720e-01  -3.59566840e-01
C     2.655549173908430e+00   3.461823681442815e+00   8.268960000000000e-02 -1.07218542e+00  -8.16508220e-01  -2.49132250e-01
C     3.212943508168881e+00   2.150070756376314e+00   6.878220000000000e-02 -3.96418960e-01   6.62952300e-02  -3.00874190e-01
C     4.625177799970351e+00   1.958935380287091e+00  -1.102110000000067e-02 -6.02321800e-01   1.50478410e+00  -5.30498300e-01
C     5.153867759572383e+00   6.753383206059698e-01  -1.128047999999993e-01  6.94181790e-01  -5.12800880e-01   6.77138950e-01
C     6.567191616247541e+00   4.935519428118734e-01  -7.949759999999984e-02 -2.17365430e-01   1.55593710e+00  -1.03577592e+00
C     9.177663716846560e-01   1.208168506576096e+00  -1.291319999999985e-02 -6.53279780e-01  -1.62145860e+00   1.11326960e-01
C     2.312707360147223e+00   1.044987631973111e+00   4.602600000000000e-03  1.79514610e+00  -1.69158574e+00  -1.30007970e-01
C     1.601967683829677e+01   9.268886356436564e+00   3.477911400000000e+00 -1.90143790e-01   2.52118970e-01  -6.51214490e-01
C     1.178341293703480e+01   8.794489201056390e+00   3.556264500000000e+00  7.72629530e-01  -7.32029680e-01   1.19175760e-01
C     1.321482149688883e+01   8.976969186292354e+00   3.550183500000000e+00 -1.07634891e+00  -6.55716080e-01  -3.20754500e-02
C     1.405086088655289e+01   7.806233707477109e+00   3.512753400000000e+00 -3.60829650e-01   1.00937138e+00   1.45140500e-02
C     7.537976028802863e+00   8.315310955795535e+00   3.533954400000000e+00 -3.44396140e-01  -1.18217182e+00  -6.65905490e-01
C     8.936029699047230e+00   8.484981535767204e+00   3.501813600000000e+00  8.89626050e-01  -2.85915370e-01   5.84027200e-02
C     9.800386708400744e+00   7.355667839287951e+00   3.498007200000000e+00  1.88577790e-01  -1.00934688e+00   3.30156190e-01
C     1.123633151347146e+01   7.477646440537418e+00   3.562572600000000e+00 -6.42767100e-01   4.92293770e-01  -7.50997180e-01
C     1.208150329519280e+01   6.339285047198075e+00   3.469076700000000e+00  5.34350480e-01   1.31119660e-01   1.41686100e-01
C     1.352083219281115e+01   6.512420965879509e+00   3.495424200000000e+00 -1.32978835e+00  -1.42079992e+00  -1.61153250e-01
C     4.689407974301096e+00   7.982822868146087e+00   3.470114100000000e+00  2.06883115e+00  -1.28129186e+00   5.99861260e-01
C     5.580056101859889e+00   6.810993938693683e+00   3.510181500000000e+00 -1.45698030e+00   8.50444730e-01  -2.29418750e-01
C     6.975402970832329e+00   6.992893746521537e+00   3.517952700000000e+00  3.93571770e-01   2.30627200e-01   1.39236790e-01
C     7.837570696710287e+00   5.857831594590680e+00   3.485844300000000e+00 -6.59587110e-01   5.77587000e-01   8.91707000e-02
C     9.223791835330710e+00   6.041728571257387e+00   3.470502300000000e+00  1.53069165e+00  -4.62725970e-01  -4.83896540e-01
C     1.009075507569613e+01   4.884109475295747e+00   3.343860600000000e+00 -2.18212710e-01   5.65462880e-01   1.05968723e+00
C     1.150096753995179e+01   5.045239211068428e+00   3.360755400000000e+00  1.93310790e-01  -2.48354400e-02   1.62240310e-01
C     1.234726536475545e+01   3.897775499515575e+00   3.358125000000000e+00 -1.86760400e-01  -2.20402470e-01  -1.53695430e-01
C     3.608231638064014e+00   5.326899942647442e+00   3.462410700000000e+00 -1.09203176e+00   1.66220316e+00  -3.23173700e-02
C     5.004577225590858e+00   5.498356184922496e+00   3.496532700000000e+00  5.39381880e-01   5.26269720e-01  -2.75618570e-01
C     5.868028135582424e+00   4.380540329863545e+00   3.463931700000000e+00  4.84048530e-01   6.15055300e-02   5.29232360e-01
C     7.272615165811717e+00   4.571129213263462e+00   3.478232700000000e+00  5.76465750e-01  -1.38079025e+00   7.73825800e-02
C     8.132740488070374e+00   3.405958226670337e+00   3.513048900000000e+00 -5.49643190e-01   7.89333410e-01  -1.98430240e-01
C     9.554171478874229e+00   3.571804939695923e+00   3.443922900000000e+00 -6.30865250e-01  -5.13411820e-01  -5.90216620e-01
C     1.038501430864962e+01   2.405002756637016e+00   3.369364800000000e+00  6.55166210e-01   5.74858730e-01   3.86062490e-01
C     1.182755898331098e+01   2.576828321146679e+00   3.336869400000000e+00 -1.55309857e+00  -6.98059000e-02  -2.66099800e-02
C     2.991336080631125e+00   4.057776890260072e+00   3.395262000000000e+00  2.25949893e+00  -4.16160830e-01   4.05869170e-01
C     3.914287784007692e+00   2.936283352490503e+00   3.447731700000000e+00 -1.37198207e+00  -2.47702820e-01  -1.53023960e-01
C     5.326217141623320e+00   3.082226863185686e+00   3.516123300000000e+00 -5.52501760e-01  -9.90020300e-01  -5.30577630e-01
C     6.146427513742932e+00   1.890748948672958e+00   3.519274200000000e+00 -9.82857970e-01   1.56070000e+00   1.94284980e-01
C     7.539791450932527e+00   2.111857583083854e+00   3.548011200000000e+00  5.77392510e-01  -4.93588280e-01  -1.75434370e-01
C     8.387462983828501e+00   9.774393489820440e-01   3.537960300000000e+00  6.34595220e-01  -6.17362240e-01  -3.14822850e-01
C     9.802329455058322e+00   1.111861848381284e+00   3.434211300000000e+00  2.82011700e-01   4.02100390e-01   3.52522320e-01
C     1.921541751338203e+00   1.442222122591882e+00   3.349369500000000e+00 -1.65208940e-01  -5.00746020e-01   4.09593660e-01
C     3.345213116599068e+00   1.632986408464018e+00   3.412146000000000e+00 -5.63395350e-01  -7.24038820e-01   2.56884800e-02
C     4.160824978047199e+00   4.621656012312534e-01   3.466103700000000e+00 -1.33812842e+00   4.87393730e-01   8.46146600e-02
C     5.535928321549743e+00   5.930591145514984e-01   3.513651300000000e+00  2.09046103e+00   1.09113033e+00   1.01442200e-01
C     1.312920676516904e+00   1.085172757091176e-01   3.425067600000000e+00  5.55314250e-01   2.00647140e+00   2.81596560e-01
