64
Lattice="9.86 0 0 4.93 8.53901048131456 0 0 0 30 " PBC="1 1 1" Properties=species:S:1:pos:R:3:force:R:3 Energy="-511.48738991"
C     1.959503929000000e-01   1.244764859810472e-01  -1.070886000000009e-01 -2.37431842e+00  -1.56237056e+00   7.12566050e-01
C     1.336818011200000e+00   8.800213687176912e-01  -1.329737999999985e-01  3.29452751e+00  -1.16012718e+00   4.39774360e-01
C     1.097013887900000e+00   5.969361786748359e-01   3.151931100000000e+00 -1.03514310e-01  -5.58075220e-01  -1.63652550e-01
C     2.348706723000000e+00   1.340937514703987e+00   3.336918000000000e+00 -1.72561227e+00   4.81012430e-01   1.07461401e+00
C     2.602219253600000e+00   7.476911278476640e-02  -3.017826000000028e-01 -4.37230350e-01   5.06958114e+00   1.23449229e+00
C     3.868684784400000e+00   7.840937834249520e-01  -1.426652999999973e-01 -1.34169107e+00   2.75661200e-02  -4.02809360e-01
C     3.560551995000000e+00   5.994945516047488e-01   3.428289600000000e+00 -2.75296300e-01   1.69469313e+00  -2.65349570e-01
C     4.809032688599999e+00   1.324853946904488e+00   3.506519700000000e+00 -2.08673252e+00  -8.29625270e-01   2.00313350e-01
C     5.063887017299999e+00   5.900857575172560e-02  -2.021976000000016e-01  1.62913894e+00   1.80917797e+00   7.73700000e-05
C     6.334695237200000e+00   7.838919212172047e-01  -2.399178000000006e-01 -5.35019240e-01  -8.84171500e-02   8.20462730e-01
C     5.980282072800000e+00   6.155733375583792e-01   3.462206400000000e+00  2.85770815e+00  -1.65089029e+00  -1.99514898e+00
C     7.224765670300000e+00   1.296768372924825e+00   3.128724300000000e+00 -2.38465220e+00   2.50243378e+00   6.39238140e-01
C     7.571281122599999e+00   1.010371583837616e-01  -5.023949999999999e-02 -3.68030480e-01  -3.78154780e-01   2.52332250e-01
C     8.799068042600000e+00   7.964060118558544e-01   2.266050000000000e-02  1.95005280e-01  -5.28837840e-01  -1.03156327e+00
C     8.430344813700000e+00   6.803214945943415e-01   2.953879800000000e+00  1.23549146e+00  -4.08033366e+00   1.42418822e+00
C     9.688569455100000e+00   1.287641878523801e+00   3.111787800000000e+00  1.55742146e+00   2.43707878e+00  -2.44111310e-01
C     1.372479067600000e+00   2.271894934835927e+00   2.346072000000000e-01  2.06520743e+00  -1.30401156e+00  -1.20878550e+00
C     2.681064398500000e+00   2.896766315515873e+00   3.322740000000000e-01 -1.99259820e+00   2.78547580e+00   1.03238485e+00
C     2.304050240700000e+00   2.777862302383969e+00   3.678377700000000e+00  1.41910137e+00  -2.10719873e+00  -2.90172190e-01
C     3.607516653999999e+00   3.479670850609554e+00   3.822133500000000e+00 -2.72322613e+00  -2.27453255e+00  -1.50964934e+00
C     3.890007921800001e+00   2.201329918470883e+00   1.141614000000000e-01 -9.41431590e-01  -1.07616573e+00  -3.97455920e-01
C     5.093546341000000e+00   2.891333540878182e+00   3.866130000000000e-02  1.13386281e+00   2.11265654e+00  -1.10758323e+00
C     4.786291091600000e+00   2.714224558270826e+00   3.540553500000000e+00 -1.93092770e-01   2.34723942e+00   6.48515590e-01
C     5.974068744499999e+00   3.462200974458626e+00   3.354613200000000e+00  5.29736920e-01  -1.62523240e-01  -5.76639160e-01
C     6.323341644400000e+00   2.200186032626982e+00  -2.537306999999984e-01  1.09977510e+00   1.47570709e+00   1.65740185e+00
C     7.609090377199999e+00   2.973366619098075e+00  -9.529050000000083e-02 -2.37135483e+00  -1.66436054e+00  -1.30381385e+00
C     7.178477012900000e+00   2.751038196422516e+00   3.112236300000000e+00  1.24395228e+00  -1.61914670e-01   1.17014633e+00
C     8.416942411499999e+00   3.470658351998437e+00   3.263641500000000e+00  2.00940024e+00  -8.53623630e-01  -5.89990970e-01
C     8.805948202699998e+00   2.175270139337495e+00   6.981600000000000e-03  1.37487790e-01   4.21176069e+00   2.02449300e-01
C     1.003015466090000e+01   2.963345834129481e+00   1.989828000000000e-01 -6.78319500e-01   4.07638930e-01   4.07010220e-01
C     9.716750123899999e+00   2.740415325824977e+00   3.265257600000000e+00 -1.84516476e+00  -2.67325330e-01   1.25357915e+00
C     1.090160413890000e+01   3.428998056888404e+00   3.698510700000000e+00  8.72450390e-01  -7.86223440e-01  -1.30932915e+00
C     2.671099488100000e+00   4.380883396245355e+00   6.045752999999999e-01 -1.69125753e+00  -4.95170910e-01  -2.20079910e+00
C     3.882579841499999e+00   5.085715864252223e+00   3.435420000000000e-01 -9.46845410e-01  -7.24376740e-01  -4.07583630e-01
C     3.526347014100000e+00   4.868128214805055e+00   3.723428100000000e+00  2.42010766e+00   7.30887610e-01  -3.60624200e-02
C     4.751626782599999e+00   5.589283257514756e+00   3.464893200000000e+00 -2.74871300e-02   7.44168490e-01  -2.48039630e-01
C     5.060068239300000e+00   4.374399896368102e+00   3.904530000000001e-02  1.01757606e+00  -1.95649950e+00   9.12539750e-01
C     6.272363669600000e+00   5.078889693884406e+00  -1.167282000000007e-01  9.47179910e-01   9.44057200e-02  -1.26668635e+00
C     5.983615295100000e+00   4.888546525884622e+00   3.296353200000000e+00  5.15183270e-01   2.68147360e-01   1.05649034e+00
C     7.259077730800000e+00   5.614364892997661e+00   3.289575600000000e+00 -9.20008290e-01  -2.05265108e+00  -8.36914000e-01
C     7.526758588400000e+00   4.407669674390382e+00  -2.317593000000002e-01  1.41151012e+00  -1.70315179e+00   1.67259970e+00
C     8.778270837599999e+00   5.102880556168595e+00  -7.612439999999765e-02  5.95053650e-01   8.80731000e-02  -9.98705800e-02
C     8.487452405399999e+00   4.896726812534356e+00   3.380441100000000e+00 -7.53359620e-01  -1.00627469e+00   7.09394420e-01
C     9.702682566099998e+00   5.566500409043173e+00   3.664060800000000e+00  8.08777680e-01   7.17091170e-01  -1.71207182e+00
C     1.004839664690000e+01   4.406571643032759e+00   2.970936000000000e-01 -2.43594765e+00   4.50772880e-01  -1.32778042e+00
C     1.122061955820000e+01   5.191028932133844e+00   4.606305000000000e-01  2.01322351e+00  -2.75193543e+00  -2.06725750e-01
C     1.096388162440000e+01   4.822601199579363e+00   3.758719800000000e+00 -2.26604960e+00   2.55027702e+00   3.51134980e-01
C     1.217764279300000e+01   5.559907524441670e+00   3.749544600000000e+00 -1.12242650e-01   1.25272126e+00  -4.45848970e-01
C     3.849063384400000e+00   6.469055628686851e+00   1.403847000000000e-01  6.08655230e-01   2.72452249e+00   8.33753340e-01
C     5.107036398600000e+00   7.202872572306611e+00  -5.326110000000028e-02 -1.61110840e+00   5.62233710e-01  -6.52283990e-01
C     4.746770239600000e+00   7.027480101585944e+00   3.273875700000000e+00  1.50599030e-01  -8.64442700e-01  -8.39575670e-01
C     6.002533775700000e+00   7.656579658695167e+00   3.083973900000000e+00  1.07185550e-01   2.67735163e+00   5.60923870e-01
C     6.288474268700000e+00   6.493918067770734e+00  -2.399618999999973e-01  7.56954630e-01   7.59467520e-01   3.93404150e-01
C     7.510126986899999e+00   7.278888807571981e+00  -3.669815999999990e-01  1.09963741e+00  -5.00427832e+00   1.49930600e-02
C     7.243859215200000e+00   6.978765900698592e+00   3.125639700000000e+00  7.66604700e-02   2.20097972e+00   1.39267385e+00
C     8.441574022599999e+00   7.763897515457283e+00   3.347760300000000e+00  1.36736529e+00  -2.82635580e+00  -6.57680430e-01
C     8.792371081299999e+00   6.510670410871026e+00  -2.884035000000011e-01 -9.43111180e-01   2.05167380e-01   1.29651455e+00
C     1.001214280730000e+01   7.209378871341847e+00  -8.384549999999891e-02 -1.04230467e+00   2.78919470e-01  -8.02005910e-01
C     9.700708150399999e+00   7.014567409938087e+00   3.457406100000000e+00 -7.18760080e-01  -7.78371430e-01   1.04055546e+00
C     1.092307133090000e+01   7.700788506873062e+00   3.446133300000000e+00  1.15592242e+00   7.05527030e-01   7.50288140e-01
C     1.122742764170000e+01   6.596472266756372e+00   1.963983000000000e-01  9.78917300e-01  -2.38673754e+00   8.45162350e-01
C     1.248613069030000e+01   7.247254335446725e+00   2.182140000000000e-01  4.18126510e-01  -4.08877840e-01  -1.43159568e+00
C     1.221857781550000e+01   7.001561216125476e+00   3.511293000000000e+00 -2.33354948e+00   2.59583510e-01  -7.70828870e-01
C     1.337444476160000e+01   7.746597651005013e+00   3.146061000000000e+00  4.94482040e-01  -1.08319510e-01   1.36631245e+00
