52
Lattice="8.88768389401873 1.33226762955019e-15 0 4.44384194700937 7.69696003302603 0 0 0 30 " PBC="1 1 1" Properties=species:S:1:pos:R:3:force:R:3 Energy="-418.84628645"
C     1.227483892787467e+01   6.532528433675861e+00  -8.609699999999876e-02  9.22906180e-01   1.74603350e-01  -7.00308780e-01
C     8.551144500170880e+00   6.354763601181397e+00  -8.514179999999882e-02 -1.04372159e+00  -2.17717700e-01   2.20299690e-01
C     9.906047023426021e+00   5.953802783554596e+00  -1.005369000000016e-01 -9.69359680e-01   1.39105220e-01  -4.82620570e-01
C     1.023197096686925e+01   4.605642288287148e+00  -2.079476999999983e-01  7.41501220e-01  -2.03282629e+00   3.13442010e-01
C     6.135770733543344e+00   5.768134712501328e+00  -1.143684000000000e-01 -5.71161600e-02  -1.23586639e+00  -1.23124830e-01
C     7.527860081645764e+00   5.364693395565657e+00  -2.842079999999925e-02 -1.22719224e+00   5.79924360e-01  -5.43915380e-01
C     7.827152391363263e+00   3.988388888978915e+00  -5.673810000000046e-02  1.86728766e+00  -4.72690200e-01  -3.36086600e-01
C     9.238264982498698e+00   3.579467105593084e+00  -1.251458999999997e-01 -1.42217610e+00   1.32562822e+00  -9.17986100e-02
C     9.545534610655704e+00   2.219110700188501e+00  -1.835876999999968e-01  1.21905887e+00  -8.93373970e-01  -1.04857760e-01
C     3.743290974016317e+00   5.144806487489418e+00  -2.203739999999996e-01  2.94487310e-01   1.14326799e+00  -3.41814660e-01
C     5.099362672084828e+00   4.740213474424459e+00  -2.880915000000002e-01  1.19366907e+00   1.26014439e+00   6.95844630e-01
C     5.469661132520148e+00   3.375520216890972e+00  -3.925157999999982e-01 -9.07374400e-02  -5.00206670e-01   2.41694280e-01
C     6.838716403621074e+00   3.004345249127464e+00  -2.136998999999982e-01 -5.07258470e-01  -1.49801979e+00  -8.97806100e-02
C     7.203047184226602e+00   1.572789346478971e+00  -1.921484999999983e-01 -2.64812232e+00   2.27947296e+00  -1.57927360e-01
C     8.525954845407174e+00   1.230145008337066e+00  -9.881969999999995e-02  1.38598478e+00  -9.98551460e-01  -3.61851320e-01
C     2.721182040592643e+00   4.201149412672179e+00  -3.497744999999988e-01 -8.44489910e-01  -7.88005820e-01   6.28191980e-01
C     3.061780038939499e+00   2.820080179948465e+00  -4.066404000000006e-01  3.65725000e-02  -1.42052506e+00  -6.37006080e-01
C     4.441499108627254e+00   2.369244138901667e+00  -5.065808999999994e-01 -4.84486610e-01   8.97366530e-01   1.34675525e+00
C     4.766198107017322e+00   9.887220060968851e-01  -3.230520000000006e-01  6.33149890e-01   9.31202420e-01  -5.66147740e-01
C     6.150113230070126e+00   6.100852974018945e-01  -2.612696999999997e-01 -2.85552940e-01  -4.69505390e-01   5.04161250e-01
C     1.090865246782370e+01   6.912198921072481e+00  -1.593122999999999e-01  1.24750900e+00   1.51667373e+00   2.90566690e-01
C     2.032298060660826e+00   1.794013447421223e+00  -3.410924999999985e-01  2.38499180e-01   1.66450275e+00   7.17885540e-01
C     2.410077240196963e+00   4.432111245626786e-01  -2.208974999999995e-01 -2.62578895e+00  -9.76274940e-01   1.10241230e-01
C     3.727593943350890e+00   2.681566995731790e-02  -2.086430999999997e-01  1.86998776e+00  -3.54120530e-01   1.57918500e-02
C     4.423059478714393e+00   7.543258896373727e+00  -1.000926000000000e-01 -2.14731160e-01  -7.54368080e-01   2.39303330e-01
C     5.784466542297620e+00   7.136680529438631e+00  -1.081371000000004e-01  7.81969120e-01   6.79952010e-01  -2.42232840e-01
C     1.052212496551910e+00   1.170838853731512e+00   3.578014200000000e+00 -1.98095470e-01  -2.85148820e-01   6.01885440e-01
C     3.440812647951649e+00   5.718201684911506e-01   3.472660500000000e+00 -6.88641340e-01  -2.49638000e-03   3.64673920e-01
C     4.801038138917744e+00   9.620681262393977e-01   3.477720600000000e+00 -1.30721780e-01  -2.35217890e-01  -4.03455190e-01
C     1.025551773191876e+01   7.656507578987930e+00   3.530285400000000e+00  6.11785720e-01   1.65804930e-01   1.78505950e-01
C     7.192512833914715e+00   3.579542073983776e-01   3.553796100000000e+00 -1.18494540e-01  -6.03141910e-01   1.10178150e-01
C     1.268051992568740e+01   7.069031178038958e+00   3.546184800000000e+00 -7.93861230e-01   1.72465200e-02   7.08450670e-01
C     5.155356726596309e+00   7.484889923621426e+00   3.606444300000000e+00 -9.30701610e-01   6.74263100e-02  -2.71850560e-01
C     6.141026776961992e+00   6.509135447904684e+00   3.684789000000000e+00  1.72405109e+00  -1.51227308e+00  -6.37854710e-01
C     7.533625967562308e+00   6.893166186188698e+00   3.598132200000000e+00 -3.32307590e-01  -6.43843410e-01   2.85713600e-01
C     8.551506450780714e+00   5.867414028417882e+00   3.669701400000000e+00  1.08181430e-01   1.62840177e+00   1.42801310e-01
C     9.929060792303909e+00   6.281881240596529e+00   3.646750200000000e+00 -1.88241240e-01  -7.19109760e-01  -2.25738790e-01
C     1.096667388906063e+01   5.274691841330064e+00   3.677175300000000e+00 -3.66628090e-01   1.54839462e+00  -2.74565620e-01
C     3.434655308309603e+00   5.680334180955913e+00   3.606830100000000e+00  7.10891500e-01   4.18990120e-01  -5.06414580e-01
C     4.473536366500350e+00   4.691401893911008e+00   3.546894300000000e+00 -9.66520720e-01   6.15908990e-01   7.76148220e-01
C     5.813163361341317e+00   5.087977907347920e+00   3.676635600000000e+00  7.72487030e-01   1.03080045e+00   6.75062600e-02
C     6.839520739723484e+00   4.097873450260046e+00   3.770619900000000e+00 -1.11566650e-01   8.00016890e-01  -1.02860884e+00
C     8.207554149880385e+00   4.513681164997516e+00   3.779253300000000e+00  4.15886820e-01  -1.13822879e+00  -4.37737000e-02
C     9.257470645212853e+00   3.526722455473904e+00   3.746454300000000e+00 -7.20351570e-01  -4.56771040e-01   3.05548710e-01
C     1.062655822353878e+01   3.916105890671581e+00   3.677668200000000e+00 -8.53609730e-01  -2.21137970e-01  -5.48370810e-01
C     2.741959045038191e+00   2.947125586446842e+00   3.468191400000000e+00  1.40183460e-01  -2.63828540e-01   1.12065621e+00
C     4.101864401627592e+00   3.332793083281237e+00   3.518322900000000e+00  3.35173490e-01  -4.44121590e-01  -9.35398490e-01
C     5.117617484416368e+00   2.345064754724224e+00   3.445186200000000e+00  6.74730540e-01   2.95885200e-02   6.93208960e-01
C     6.478980998874396e+00   2.747994454726701e+00   3.580740300000000e+00  1.01343917e+00  -1.45233215e+00   7.98282220e-01
C     7.519131484929362e+00   1.719362479360660e+00   3.668947800000000e+00  3.10030500e-01   1.55007635e+00  -4.16003800e-01
C     8.915179141331237e+00   2.124663997596381e+00   3.755907300000000e+00 -9.87808050e-01   9.30895650e-01  -1.08241928e+00
C     2.403236479519734e+00   1.576302777823865e+00   3.495820800000000e+00  5.95354840e-01  -8.40784920e-01  -2.74884320e-01
