64
Lattice="9.86 0 0 4.93 8.53901048131456 0 0 0 30 " PBC="1 1 1" Properties=species:S:1:pos:R:3:force:R:3 Energy="-509.41979689"
C     5.073998693800000e+00   8.062089837451250e+00  -1.115040000000000e-01 -1.07119588e+00   1.11877711e+00  -6.16043610e-01
C     1.373837824900000e+00   2.643031241514664e-01  -7.132890000000103e-02 -1.44124562e+00   1.12676156e+00  -4.88531670e-01
C     9.771807969499999e+00   5.159450305137128e-01   3.634633800000000e+00 -5.34209950e-01  -2.90565492e+00   5.84531870e-01
C     1.150409731900000e+00   1.116467337419834e+00   3.582143700000000e+00  1.23567452e+00   3.18766862e+00   3.83685100e-02
C     7.543788928300000e+00   8.119854791716667e+00  -1.103409000000006e-01 -1.74957318e+00   8.41859690e-01  -8.91546370e-01
C     3.792212448500000e+00   2.699499717818904e-01  -4.314831000000012e-01 -9.81394300e-01   1.66900920e-01   2.45009905e+00
C     2.381836914600000e+00   4.631765928405616e-01   3.946568400000000e+00 -6.09920290e-01   1.30845580e-01  -7.98408110e-01
C     3.642330440600000e+00   1.094897028436411e+00   3.818792400000000e+00 -1.48438217e+00   3.14849609e+00  -2.14253560e-01
C     9.866623602899999e+00   8.095134014816649e+00  -2.476112999999991e-01  5.12789769e+00  -2.55166279e+00  -1.62383431e+00
C     6.243287959299999e+00   2.167370786132552e-01  -2.140041000000004e-01 -1.77434842e+00   2.99644002e+00  -2.11893900e-01
C     4.829898913600000e+00   4.319593367673584e-01   3.927075600000000e+00  2.66917592e+00  -1.33008826e+00  -1.88906090e-01
C     6.083203168499999e+00   1.161779938092373e+00   3.848446800000000e+00 -1.23739375e+00   2.51601580e-01   7.48642430e-01
C     1.239531663930000e+01   8.123606491361160e+00  -3.591524999999969e-01  9.05991490e-01  -1.84018757e+00   6.04190070e-01
C     8.740981993799998e+00   3.001096714071456e-01  -1.840395000000008e-01 -4.69854940e-01  -2.82027873e+00   1.66834570e-01
C     7.328352562499999e+00   4.280622177743912e-01   3.788365800000000e+00 -1.75282337e+00   5.96500470e-01  -6.64220770e-01
C     8.488283159700000e+00   1.157017731947678e+00   3.582978300000000e+00  2.04120108e+00  -3.38150220e-01  -1.34205000e-01
C     1.320011197500000e+00   1.711328109597506e+00  -2.739744000000002e-01  1.50671870e-01  -4.39465100e-01  -1.60031594e+00
C     2.561618879500000e+00   2.380398006252666e+00  -6.209693999999999e-01 -1.76018336e+00   1.44776845e+00   1.07230039e+00
C     1.101203594170000e+01   2.572000763688356e+00   3.290038200000000e+00 -3.99210900e-02  -1.42081948e+00   1.10904530e-01
C     2.392052269000000e+00   3.282050994049027e+00   3.268641900000000e+00  5.39676610e-01   1.51471060e-01   1.20182959e+00
C     3.765890586899999e+00   1.672380145776340e+00  -4.550003999999994e-01 -8.15860570e-01   6.65387000e-02  -1.04754653e+00
C     4.941308434000000e+00   2.372631861611211e+00  -4.128441000000009e-01  4.13776815e+00   7.27424300e-02   6.10838450e-01
C     3.662377989800000e+00   2.534106086809898e+00   3.620532300000000e+00 -2.23245736e+00   1.48374946e+00   2.18379600e-02
C     4.812370347900000e+00   3.306758364702593e+00   3.936859200000000e+00  4.73942240e-01   5.57272200e-02  -1.28069455e+00
C     6.224332405100000e+00   1.688837209894234e+00  -1.626150000000024e-01  5.07845800e-02  -3.25465830e-01  -4.15339510e-01
C     7.482767606800000e+00   2.432582887949614e+00  -9.473789999999838e-02 -1.85094930e+00  -1.01376845e+00  -7.60082230e-01
C     6.019574074199999e+00   2.615084938795929e+00   3.962673300000001e+00  3.58969350e+00  -2.55081687e+00  -6.22256190e-01
C     7.366881695700000e+00   3.251099386591857e+00   3.834206700000000e+00 -5.11591782e+00   2.25620339e+00  -1.48673610e-01
C     8.701295641700000e+00   1.692499420708897e+00  -9.090690000000023e-02  8.68418250e-01   1.50820889e+00  -1.13646801e+00
C     9.920790893299998e+00   2.423783352259870e+00  -3.898425000000003e-01  9.63849830e-01  -1.25861067e+00   2.07983221e+00
C     8.470884696699999e+00   2.546214830621061e+00   3.464267100000000e+00  3.00809993e+00   5.53167890e-01   4.02900790e-01
C     9.744582636099999e+00   3.248276560507378e+00   3.287889000000000e+00  3.28538370e-01   1.05934201e+00   2.68108860e-01
C     2.542024348000000e+00   3.851894002542185e+00  -8.078891999999982e-01  3.32450980e-01  -2.80259279e+00   3.53826020e-01
C     3.816002212800000e+00   4.522849141931119e+00  -7.129475999999997e-01 -1.67797239e+00   1.03775160e+00  -8.94363000e-03
C     1.220399541780000e+01   4.741003610893950e+00   3.287970900000000e+00  2.17630868e+00   8.73395600e-02   1.50720329e+00
C     3.655668506300000e+00   5.422317850846697e+00   3.670939800000000e+00 -2.24966963e+00  -2.06246860e-01  -4.22449470e-01
C     5.002817924100000e+00   3.760952430858823e+00  -5.284398000000010e-01  1.05815837e+00   3.39504217e+00   8.27319520e-01
C     6.254384353999999e+00   4.585030387026690e+00  -2.806370999999999e-01 -6.86837150e-01  -3.44765415e+00  -8.37513780e-01
C     4.873104299700000e+00   4.750623916271032e+00   3.925228800000000e+00 -3.29053135e+00  -1.65626099e+00  -2.95476300e-02
C     6.000348503900000e+00   5.452758227746430e+00   4.234832700000000e+00  4.69986142e+00  -1.38976099e+00  -1.40762287e+00
C     7.472543624900000e+00   3.857295865961938e+00  -2.365272000000012e-01  3.13347980e-01  -5.76764400e-01   8.78638340e-01
C     8.714925366199999e+00   4.542463590564100e+00  -2.748254999999986e-01  2.26123100e-01  -3.74348040e-01  -2.92006070e-01
C     7.298990862899999e+00   4.679317884576535e+00   3.909023400000000e+00  5.67949110e-01   1.29610433e+00   2.07806173e+00
C     8.559425623300001e+00   5.402114210490597e+00   3.896865599999999e+00 -1.23637587e+00  -4.94895750e-01  -8.77713350e-01
C     9.949893324200001e+00   3.838195209589541e+00  -4.494186000000013e-01 -1.40337178e+00  -8.02919660e-01  -8.79192710e-01
C     1.112697544070000e+01   4.499198729994768e+00  -8.088329999999999e-01  2.57684834e+00   6.90691450e-01   9.35696070e-01
C     9.786074403499999e+00   4.697794595453159e+00   3.423054300000000e+00 -2.17427122e+00   8.01688750e-01   1.03848794e+00
C     1.095372109160000e+01   5.497107542646720e+00   3.393691200000000e+00  2.10063718e+00  -1.87150814e+00   5.87885110e-01
C     3.765415187000000e+00   5.970471345770131e+00  -5.871462000000029e-01  1.31763627e+00  -1.92137510e-01   2.57077080e-01
C     5.072049026699999e+00   6.628993258949661e+00  -2.998278000000028e-01 -3.76217126e+00   2.11158169e+00  -1.53532840e-01
C     1.350403276960000e+01   6.819196045617155e+00   3.809630100000000e+00 -9.53493200e-02   2.64421644e+00  -1.29967387e+00
C     4.898367887499999e+00   7.629776046358866e+00   3.866027700000000e+00 -1.72205711e+00  -2.42417848e+00   1.40629757e+00
C     6.273617072800000e+00   5.970262993914419e+00  -2.181321000000018e-01  1.17979551e+00   8.59883280e-01   5.68330920e-01
C     7.500703341199999e+00   6.759342363998224e+00  -6.508380000000002e-02  1.35652746e+00  -4.89571454e+00  -8.27174480e-01
C     6.075853820300000e+00   6.850052870057998e+00   4.269373800000000e+00 -2.94080140e-01   3.66697278e+00  -1.50689649e+00
C     7.323878340999999e+00   7.655153729335112e+00   4.279763099999999e+00 -4.93419500e-01  -4.67176724e+00  -6.38597630e-01
C     8.765221423400000e+00   5.935822432165225e+00  -2.320878000000022e-01 -2.09939363e+00   1.80205456e+00  -2.65715200e-02
C     9.970818906400000e+00   6.609840856173755e+00  -4.167363000000002e-01 -2.81200760e-01   1.92322703e+00   2.29667190e-01
C     8.525776795700001e+00   6.818428473965107e+00   4.150666500000000e+00  1.64518689e+00   1.20683982e+00  -1.11638694e+00
C     9.792668229200000e+00   7.521449732459062e+00   3.914867700000000e+00 -2.95785825e+00   2.00155824e+00   1.36242481e+00
C     1.122254344140000e+01   5.910910722990874e+00  -7.366185000000023e-01 -5.02446907e+00   8.57076840e-01   1.20350952e+00
C     1.232024718420000e+01   6.670727416500347e+00  -5.986388999999974e-01  6.30342239e+00   1.28636863e+00   1.90683230e-01
C     1.098938816260000e+01   6.897576305933914e+00   3.762309000000000e+00  1.59483384e+00  -2.53121265e+00  -1.74795705e+00
C     1.224357725390000e+01   7.562943089914213e+00   3.695787000000000e+00  8.95223150e-01  -7.24125960e-01   1.12327042e+00
