64
Lattice="9.86 0 0 4.93 8.53901048131456 0 0 0 30 " PBC="1 1 1" Properties=species:S:1:pos:R:3:force:R:3 Energy="-510.88080289"
C     5.017195874700001e+00   8.338536117626115e+00  -7.399056000000002e-01 -4.76302210e+00  -3.71452646e+00   1.15513530e-01
C     1.212871698000000e+00   4.884527469822000e-01  -7.703568000000018e-01  4.76984858e+00  -1.24830360e-01  -2.27305360e-01
C     9.830385391400000e+00   1.301724329217312e-01   4.146846900000000e+00 -5.16236940e-01   4.25432116e+00   7.90742030e-01
C     1.181065704400000e+00   9.705548610902144e-01   4.251212100000000e+00  7.64964410e-01  -3.63832855e+00  -1.34842859e+00
C     7.386456901600000e+00   8.285016930151562e+00  -7.802499000000012e-01  2.18102758e+00   2.10175877e+00   2.56073700e-01
C     3.750249718200000e+00   4.879516778472336e-01  -7.522197000000013e-01 -1.75204876e+00  -4.49598710e-01   8.82621400e-02
C     2.440856705399999e+00   2.506445499381824e-01   4.010283299999999e+00 -7.27064640e-01  -1.09252790e-01   5.50209720e-01
C     3.661086921400000e+00   9.906095811035424e-01   4.014764100000000e+00 -6.52192600e-01  -1.57953290e-01   1.39028750e-01
C     9.909861477700000e+00   8.277530694273642e+00  -7.405557000000016e-01 -1.20839448e+00   5.21691019e+00  -2.50954080e-01
C     6.188358540200000e+00   4.757946886268576e-01  -7.915251000000012e-01  1.99850787e+00   3.27983680e-01   6.21524050e-01
C     4.913242930000000e+00   2.881372955933472e-01   3.988013100000000e+00 -2.19722408e+00  -5.92515460e-01   9.75911820e-01
C     6.124833173100000e+00   9.754928854606936e-01   4.108342800000000e+00  9.21868570e-01  -1.44862730e+00  -1.07133917e+00
C     1.235691849620000e+01   8.342877265164041e+00  -7.660055999999997e-01  1.77125512e+00  -1.24394352e+00  -1.08690250e-01
C     8.722025207100000e+00   5.255580777318872e-01  -7.200252000000020e-01 -2.19347577e+00  -2.21988098e+00  -5.44761770e-01
C     7.342535087899999e+00   2.557530129578424e-01   4.008414900000000e+00  1.02985075e+00  -1.90513174e+00   1.99240941e+00
C     8.584763062499999e+00   8.872423829301033e-01   4.184716800000000e+00  3.91824390e-01   2.33022304e+00  -4.66063500e-01
C     1.269327198600000e+00   1.900235528375184e+00  -7.735227000000009e-01  3.44359890e-01  -9.73825220e-01   1.05002826e+00
C     2.439069136700000e+00   2.575256688384380e+00  -6.011109000000019e-01  4.45833634e+00   1.98729762e+00  -6.36483990e-01
C     1.104105860520000e+01   2.350896322775000e+00   4.325908800000001e+00  1.04096511e+00   1.90100479e+00   1.81984440e-01
C     2.437775110300000e+00   3.125088867378077e+00   4.317918000000000e+00 -1.78128001e+00  -2.37005580e+00  -1.56096590e-01
C     3.747957662599999e+00   1.942603365893590e+00  -6.564446999999980e-01 -2.12158883e+00  -3.64381839e+00  -3.75196640e-01
C     4.955881957700000e+00   2.567092540464452e+00  -6.940686000000014e-01  2.93574312e+00   1.86710116e+00   7.44305750e-01
C     3.608328723600000e+00   2.421119949501052e+00   4.153359600000000e+00  2.79770231e+00  -1.44735176e+00  -2.37814820e-01
C     4.896754939399999e+00   3.084580228611482e+00   4.090875000000000e+00 -3.71250060e-01  -4.66342500e-01   4.80562960e-01
C     6.299484092599999e+00   1.890346158777877e+00  -7.379601000000022e-01 -5.56359550e+00  -2.83616840e-01  -5.14996910e-01
C     7.450289111900000e+00   2.614342984175322e+00  -8.184137999999983e-01  2.71683166e+00   1.89346900e-02   6.99267340e-01
C     6.160645531200000e+00   2.349773101336460e+00   4.086499500000000e+00 -2.62685420e+00   1.88168577e+00  -5.04708140e-01
C     7.342710004299999e+00   3.069767692521931e+00   4.010912100000000e+00  1.69376313e+00   5.92300860e-01   1.66500896e+00
C     8.691445205899999e+00   1.890630593216966e+00  -7.564332000000000e-01  1.60819251e+00   2.32396688e+00  -1.67898600e-02
C     9.997540295199999e+00   2.632357819975083e+00  -6.998099999999994e-01 -6.28640685e+00   3.35941280e-01  -6.79066720e-01
C     8.559345362899998e+00   2.412692885448446e+00   4.253472000000000e+00  2.07882288e+00  -3.41765933e+00  -1.19689351e+00
C     9.842203242299998e+00   3.077389613276379e+00   4.284914700000000e+00 -2.51936752e+00   3.15313810e-01   1.49380500e-01
C     2.506390998200000e+00   3.998744659953243e+00  -5.653751999999983e-01  3.31222540e-01   1.45500787e+00  -3.13168300e-02
C     3.807815356199999e+00   4.769902696402043e+00  -6.481761000000006e-01 -3.78532727e+00  -5.26278372e+00   1.26424528e+00
C     1.231471956960000e+01   4.508069481031917e+00   4.337939100000000e+00 -4.46118820e+00   7.38948100e-02   2.16920820e-01
C     3.570904206200000e+00   5.201823607622241e+00   4.164396900000000e+00  6.14708119e+00   1.29855897e+00  -9.20095760e-01
C     4.963104457000000e+00   3.990897480102332e+00  -5.977730999999977e-01  2.39944606e+00   6.21675950e-01  -1.82972695e+00
C     6.216278954300000e+00   4.687901127130822e+00  -8.150060999999980e-01 -4.46365800e-02   1.73517992e+00   1.99138844e+00
C     4.878475830499999e+00   4.481928068958340e+00   4.093823700000000e+00  2.83313460e-01   1.18274917e+00  -1.00481708e+00
C     6.157370433600000e+00   5.172352920752617e+00   3.861962100000000e+00 -1.98843710e+00   1.65294250e+00   1.80013837e+00
C     7.486359358300000e+00   4.031939977804138e+00  -7.894010999999992e-01 -2.53857478e+00  -2.01352320e-01  -7.31933990e-01
C     8.669843572800000e+00   4.758090683205059e+00  -7.796459999999996e-01 -1.25367480e-01   1.40477246e+00   6.94395700e-01
C     7.385819156799998e+00   4.492620532491291e+00   4.017866400000000e+00 -1.42439248e+00   2.28684200e-02  -1.71576472e+00
C     8.587233485499999e+00   5.215836379990236e+00   3.976580400000000e+00  8.62035570e-01   4.76383000e-03   8.51594390e-01
C     9.845074770099998e+00   4.043717151838364e+00  -6.676011000000024e-01  4.91242924e+00  -1.27726000e-01   4.66077320e-01
C     1.115761445400000e+01   4.743003788708786e+00  -5.314955999999995e-01 -2.64548969e+00   7.73391600e-01  -3.88706360e-01
C     9.796679474399999e+00   4.499436712216847e+00   4.208907300000000e+00  1.64655627e+00   6.36067990e-01   1.89404800e-01
C     1.104851286380000e+01   5.210705544763118e+00   4.339091400000000e+00 -7.37011010e-01   1.46317281e+00  -9.57526600e-01
C     3.710266530800000e+00   6.096113492071803e+00  -6.520080000000021e-01  4.34318830e-01   5.59296685e+00  -1.13934037e+00
C     4.935061483100000e+00   6.831855555604279e+00  -7.373006999999987e-01  2.01092898e+00   1.94246584e+00   7.12901620e-01
C     1.350216286990000e+01   6.622142069281138e+00   3.996642000000000e+00  2.95909230e-01  -1.22656125e+00   1.65353865e+00
C     4.892618324300000e+00   7.291614665670536e+00   4.046868600000000e+00 -2.82070400e-02   8.50954600e-02  -8.59512770e-01
C     6.207701296600000e+00   6.164828446426250e+00  -6.910401000000022e-01 -1.13924558e+00  -1.81639470e+00  -1.44466510e+00
C     7.445827905600000e+00   6.877415360630214e+00  -7.629303000000007e-01 -1.93962472e+00   5.18928710e-01   2.54099400e-01
C     6.121447101199999e+00   6.642944550442200e+00   3.921139200000000e+00  9.21901260e-01  -2.70109492e+00  -4.78972450e-01
C     7.359974124799999e+00   7.322810147267015e+00   3.883019400000000e+00 -1.30856822e+00   2.60224579e+00   4.35001110e-01
C     8.653467542500000e+00   6.210392520957424e+00  -7.229199000000008e-01  9.36173240e-01  -1.21309378e+00  -2.29347000e-02
C     9.871557349699998e+00   6.957663700269682e+00  -6.496443000000021e-01 -2.35178810e-01  -5.42069182e+00   2.52925920e-01
C     8.569948461799999e+00   6.650641614488872e+00   3.923021100000000e+00  9.37740040e-01  -6.41506270e-01   5.39539820e-01
C     9.751523928199999e+00   7.410995240977328e+00   4.111350600000000e+00  3.25246067e+00  -1.20628592e+00  -1.04143758e+00
C     1.105385614570000e+01   6.195007102654770e+00  -5.176734000000032e-01  3.94283822e+00   8.75932900e-02  -1.79923643e+00
C     1.235274002540000e+01   6.909841057466547e+00  -7.572708000000006e-01 -1.33391428e+00  -1.63410189e+00   1.98783205e+00
C     1.105033178730000e+01   6.670626400006368e+00   4.203019800000000e+00 -9.23202460e-01  -1.23632070e+00   4.71899970e-01
C     1.232679476650000e+01   7.326625804100003e+00   4.161786900000000e+00 -2.93117844e+00   2.25540843e+00  -1.54945925e+00
