64
Lattice="9.86 0 0 4.93 8.53901048131456 0 0 0 30 " PBC="1 1 1" Properties=species:S:1:pos:R:3:force:R:3 Energy="-508.66189494"
C     5.016397707699999e+00   7.918683389917300e+00  -1.927956000000002e-01  2.17724840e-01   7.25669970e-01   9.11341100e-01
C     1.338177902400000e+00   2.522423695792000e-04   2.172600000000000e-03 -1.14792100e-01   4.69976734e+00  -4.88289460e-01
C     9.736478159799999e+00   7.140964404766192e-01   3.005352300000000e+00  4.39447900e-02  -1.79721917e+00   1.22934113e+00
C     1.146779427800000e+00   1.343154241824595e+00   3.134588400000000e+00  1.00434419e+00  -1.06257369e+00   3.44822910e-01
C     7.563472742100000e+00   7.947374123569681e+00  -1.016417999999994e-01 -2.63332335e+00  -2.81808479e+00   4.62491040e-01
C     3.832654914700000e+00   4.723481732169200e-02   3.234150000000000e-02  2.39654262e+00   3.61659779e+00   1.29784934e+00
C     2.425472689700000e+00   5.738412293702088e-01   3.070225500000000e+00 -1.88422131e+00   1.86161928e+00   6.59770840e-01
C     3.594002192900000e+00   1.354710682437913e+00   3.315157800000000e+00 -6.06941460e-01  -1.41320892e+00   7.48664000e-02
C     1.003535763500000e+01   7.921739074817568e+00   1.534800000000000e-01 -9.37544390e-01  -2.17837289e+00  -4.54705990e-01
C     6.355255259900000e+00   1.089575175544856e-01   1.739088000000000e-01 -3.68801952e+00  -1.91036009e+00  -5.94828300e-01
C     4.820374695899999e+00   6.886338797362024e-01   3.243285900000000e+00  1.48343485e+00  -4.14031784e+00  -5.99366100e-02
C     6.087276827499999e+00   1.301507523741225e+00   3.152187900000000e+00 -1.27560807e+00   7.66309000e-01   1.45465929e+00
C     1.246110507360000e+01   7.886908621849858e+00   6.672300000000000e-02  1.99359770e-01   4.12681735e+00   2.14679210e-01
C     8.712306451600000e+00   1.684733105287232e-01  -9.277500000000316e-02  1.32585244e+00  -5.22155255e+00  -2.10987600e-02
C     7.295537792299999e+00   5.300036573679848e-01   3.133517700000000e+00 -8.15373700e-02   1.67351568e+00   6.65297800e-01
C     8.461839280600000e+00   1.368548405091067e+00   3.119181900000000e+00  2.11845724e+00  -1.57711025e+00  -5.33615800e-02
C     1.258167552000000e+00   1.493858896225696e+00   2.843529000000000e-01  1.53420480e+00  -8.51149070e-01  -5.64488060e-01
C     2.514126266800000e+00   2.249993397635984e+00   5.490882000000000e-01  6.49606710e-01  -2.53893981e+00  -2.45647195e+00
C     1.103304429860000e+01   2.704623636447533e+00   3.464959200000000e+00 -2.08999825e+00   3.14886315e+00  -4.69514340e-01
C     2.357206881100000e+00   3.507959994599060e+00   3.519904500000000e+00  6.49640640e-01  -2.48020327e+00   5.84572630e-01
C     3.815047764800000e+00   1.564872722981568e+00   2.602755000000000e-01 -3.95549289e+00  -2.18407595e+00   1.18177410e-01
C     4.930324147499999e+00   2.313096770473289e+00   1.231293000000000e-01  4.90566005e+00  -2.47579972e+00   1.59281910e-01
C     3.560652024700000e+00   2.719700540301544e+00   3.576182100000000e+00  1.75018834e+00   2.70324525e+00  -1.40995248e+00
C     4.843565908900000e+00   3.424318508365154e+00   3.426908100000000e+00 -9.09552420e-01   1.85201446e+00   7.33138990e-01
C     6.245356439400000e+00   1.480847493616691e+00   1.025406000000000e-01 -1.78391542e+00   2.09045748e+00  -1.03332680e+00
C     7.433093617000000e+00   2.140099748362576e+00  -5.422439999999895e-02  3.77411730e-01   4.97063436e+00   5.99577910e-01
C     6.052514707300000e+00   2.757744735253508e+00   3.285823800000000e+00  2.36080945e+00  -1.62163776e+00  -1.89005927e+00
C     7.338564416600000e+00   3.441681988445501e+00   3.039755100000000e+00 -5.37750941e+00   3.71634087e+00   1.22458039e+00
C     8.673285501599999e+00   1.521893833873213e+00  -2.865330000000199e-02  6.74096230e-01   6.48900610e-01  -2.86978180e-01
C     9.890643203800000e+00   2.216961772615991e+00   1.516881000000000e-01  1.65594634e+00  -2.92281500e-01   7.83832380e-01
C     8.502706170500000e+00   2.787761918793852e+00   3.205273500000000e+00  3.05511885e+00  -6.37124300e-01   2.77069840e-01
C     9.775790423500000e+00   3.495489452913858e+00   3.458372400000000e+00 -4.81985750e-01  -9.34889820e-01  -5.82794610e-01
C     2.556374246900000e+00   3.646200255402505e+00   6.187194000000000e-01  6.04844170e-01   7.87179230e-01  -2.70094170e-01
C     3.815267642799999e+00   4.376375908783278e+00   4.367106000000000e-01  3.67730100e-02   1.39679619e+00  -4.56365400e-02
C     1.221933501420000e+01   4.896790342772327e+00   3.455615700000000e+00  1.30180700e-01   5.44447770e-01   1.58096659e+00
C     3.669044828800000e+00   5.581555794590776e+00   3.454840200000000e+00 -3.29346922e+00   6.99029030e-01   8.30135900e-02
C     5.031902113999999e+00   3.702175262291106e+00   1.203447000000000e-01 -1.09094470e-01   8.49272140e-01   2.14299990e-01
C     6.318887537300000e+00   4.421596373532738e+00  -8.791469999999890e-02 -3.67792080e+00  -1.93503814e+00   8.57867490e-01
C     4.857475460200000e+00   4.928485783432411e+00   3.405230100000000e+00 -2.32733440e-01  -3.87203181e+00  -9.86983660e-01
C     5.956558962099999e+00   5.656267098274593e+00   2.993117100000000e+00  4.12843807e+00  -1.32137193e+00   1.14457861e+00
C     7.468178849399999e+00   3.643459830769158e+00  -4.141949999999994e-02  1.86224748e+00  -6.28190340e-01   2.06501480e-01
C     8.734184115400000e+00   4.357080648362041e+00   1.707882000000000e-01 -1.36287317e+00  -1.33696803e+00  -7.63134880e-01
C     7.227481558000000e+00   4.919545951800480e+00   2.961150000000000e+00  1.02073709e+00  -2.53918590e+00   8.37710620e-01
C     8.496492546399999e+00   5.526654909830454e+00   3.129758700000000e+00 -9.38311210e-01   2.61894115e+00   7.49081160e-01
C     9.929820139000000e+00   3.607395832347507e+00   3.679011000000000e-01  7.70889800e-01   2.10031672e+00  -8.78525900e-02
C     1.118636700280000e+01   4.366116629251978e+00   6.041499000000000e-01 -4.02154190e-01  -2.51219225e+00  -8.40792960e-01
C     9.731815119299998e+00   4.986276696289688e+00   3.515044500000000e+00 -1.45038171e+00  -6.60766693e+00  -1.14974795e+00
C     1.093639366990000e+01   5.582227729325448e+00   3.508590000000000e+00  3.74021716e+00   1.85985936e+00  -3.49048330e-01
C     3.857381625500000e+00   5.851159765668017e+00   4.263060000000000e-01 -1.79507466e+00  -1.21102616e+00  -2.70121487e+00
C     5.027296853099999e+00   6.492397611564665e+00  -1.216434000000000e-01 -3.70340099e+00   1.31276715e+00   1.83866455e+00
C     1.354863097930000e+01   6.975345258490409e+00   3.329682900000000e+00 -1.67940306e+00   2.79219682e+00  -4.23462800e-01
C     4.864962897699999e+00   7.804992271903227e+00   3.061706100000000e+00 -1.23327220e+00  -9.96229000e-01   6.55014680e-01
C     6.189267237799999e+00   5.821064620961990e+00  -1.081470000000024e-01  5.64434710e+00  -8.21726980e-01  -6.48292710e-01
C     7.477282488799999e+00   6.502272037893632e+00  -1.167881999999985e-01  1.16765055e+00   1.50374480e-01   1.84690800e-01
C     6.064820135200000e+00   7.053708867736731e+00   3.001708800000000e+00  4.12394700e-02   1.28457336e+00  -9.85461100e-01
C     7.354027164400000e+00   7.714180493179160e+00   2.904119700000000e+00 -1.24290857e+00  -5.61465960e-01   1.31944800e+00
C     8.719214811300001e+00   5.771795982124172e+00   1.026564000000000e-01  2.47473890e-01   1.56434410e-01  -5.34355430e-01
C     1.001211584020000e+01   6.408804029179552e+00   1.877313000000000e-01 -1.13421180e+00   3.27870734e+00   4.00431500e-01
C     8.506768244000000e+00   6.929164325842158e+00   3.138003300000000e+00  2.26313392e+00   3.01198161e+00  -7.03120860e-01
C     9.786400227199998e+00   7.700308187533561e+00   3.246846900000000e+00 -2.09933796e+00   1.21591144e+00  -2.24446400e-02
C     1.122437015430000e+01   5.734736847421182e+00   4.744641000000001e-01 -2.79237440e-01   2.91759032e+00  -8.56631800e-01
C     1.243873519860000e+01   6.575269989124637e+00   3.708141000000000e-01  1.28137235e+00  -5.07497535e+00   5.38208240e-01
C     1.099783487950000e+01   6.982965983783389e+00   3.359595900000000e+00 -2.11007700e-02   9.62156320e-01   4.95418600e-01
C     1.224873413250000e+01   7.651592193454008e+00   3.350031300000000e+00  1.17007188e+00   9.98021770e-01  -1.10364694e+00
