64
Lattice="9.86 0 0 4.93 8.53901048131456 0 0 0 30 " PBC="1 1 1" Properties=species:S:1:pos:R:3:force:R:3 Energy="-505.65561207"
C     4.977140364199999e+00   8.222579343961382e+00  -9.433743000000021e-01  7.29042900e-02  -1.90461506e+00   1.67735262e+00
C     1.307046628600000e+00   3.360133072119824e-01  -7.739225999999988e-01 -5.06625900e-02  -4.43858280e-01  -2.29336645e+00
C     9.818819907200000e+00   3.392863099289664e-01   4.154220900000000e+00 -2.05577551e+00  -1.31154246e+00  -1.28676270e-01
C     1.157874442100000e+00   9.778682673960201e-01   4.283364300000001e+00  9.82115430e-01   4.62622593e+00  -1.15667930e-01
C     7.465502352400000e+00   8.079460917250923e+00  -8.821167000000010e-01 -1.96522270e-01   5.74640736e+00   1.18443171e+00
C     3.767987562400000e+00   3.738761335813504e-01  -7.628744999999988e-01 -5.27884020e-01  -3.40335231e+00   1.62873090e-01
C     2.368214240000000e+00   4.212471481201984e-01   3.780170099999999e+00 -1.90636220e-01  -1.77841796e+00   3.61352780e-01
C     3.618453415300000e+00   1.081471569209231e+00   3.863569500000000e+00  3.34979740e-01   7.69572320e-01   3.91799470e-01
C     9.915013179799999e+00   8.219147857209890e+00  -5.955116999999994e-01  1.61334654e+00  -1.80567130e-01  -8.78671360e-01
C     6.264248692399999e+00   3.761493889513360e-01  -7.279280999999997e-01 -3.37269236e+00   1.46812277e+00   6.55333160e-01
C     4.843388823300000e+00   3.669686718337640e-01   3.757908300000000e+00  2.02060496e+00  -1.61356463e+00   3.62704320e-01
C     6.095840385399999e+00   1.057108833018638e+00   3.859688400000000e+00  6.47265690e-01   1.00739940e+00   1.33767040e-01
C     1.235182363700000e+01   8.209384011066637e+00  -6.032831999999999e-01  1.43543722e+00  -2.83262648e+00   6.59844900e-02
C     8.628127441099998e+00   3.694760668711112e-01  -8.401454999999984e-01  1.77417337e+00  -3.34544444e+00   3.55748900e-02
C     7.404245031799999e+00   3.991017367809472e-01   3.925026900000000e+00 -3.40044068e+00   6.27399020e-01   1.52745763e+00
C     8.572056874899999e+00   1.089283226776545e+00   4.340853900000000e+00  4.53308320e-01   3.99199870e-01  -2.51335076e+00
C     1.344078816600000e+00   1.775616184748806e+00  -7.283177999999992e-01  1.49513730e-01  -6.99223900e-01   2.96323951e+00
C     2.599377798800000e+00   2.382510130494894e+00  -2.107101000000000e-01 -3.69222327e+00   2.76116242e+00  -2.07755754e+00
C     1.097189957920000e+01   2.550715999215384e+00   4.647319200000000e+00  2.29161413e+00  -2.22557061e+00  -1.90614335e+00
C     2.436005388200000e+00   3.197398830534709e+00   4.515414600000000e+00 -8.15003330e-01  -1.25834843e+00  -4.51465100e-01
C     3.812362295200000e+00   1.743613168931234e+00  -5.214314999999985e-01 -2.22681500e+00   7.45933340e-01   7.59979830e-01
C     4.945795079100000e+00   2.509840353778357e+00  -5.220239999999983e-01  4.29783554e+00   6.43222390e-01  -6.69026930e-01
C     3.670750904600000e+00   2.511764790570235e+00   4.133902800000000e+00 -2.61933536e+00  -2.16305912e+00  -1.14185050e-01
C     4.845546635000000e+00   3.158960816419408e+00   3.857627100000000e+00  1.48368865e+00   2.47185198e+00   1.00327058e+00
C     6.226581766899999e+00   1.842816233253996e+00  -8.639808000000002e-01 -2.14718380e+00  -2.55589991e+00   1.56790915e+00
C     7.461132646899999e+00   2.437238100292996e+00  -8.826873000000006e-01 -1.19289732e+00   3.38770276e+00  -4.44943700e-02
C     6.079748569600000e+00   2.472399781477225e+00   3.901906500000000e+00  1.32987229e+00   5.67506540e-01  -1.39527673e+00
C     7.371756775500000e+00   3.227023646543497e+00   3.863311200000000e+00 -2.24458954e+00  -3.75953240e-01   1.09763880e+00
C     8.618008616099999e+00   1.708233742979764e+00  -8.722284000000009e-01  4.47209726e+00   3.78846567e+00   1.96725340e-01
C     9.958065144299999e+00   2.465927980044329e+00  -6.829302000000013e-01 -9.21430200e-01  -1.43183000e-03   2.45626600e-01
C     8.520371395800000e+00   2.551735727846906e+00   4.259183699999999e+00  2.28017421e+00  -7.39215000e-01   4.88922970e-01
C     9.761495149000000e+00   3.331365828933543e+00   4.499159400000000e+00 -6.66495360e-01  -4.11730304e+00   3.56019990e-01
C     2.435843536300000e+00   3.845875793345987e+00  -1.792800000000483e-03  3.87362903e+00  -2.82449160e-01  -5.87975030e-01
C     3.733338043400000e+00   4.616380851663381e+00  -1.780058999999987e-01  6.83217300e-02   3.93507000e-03   7.10820200e-01
C     1.233588401030000e+01   4.589334646039344e+00   4.468467900000000e+00 -3.02600880e-01   1.98360674e+00   8.88036400e-02
C     3.679320279900000e+00   5.337990852851457e+00   4.132578899999999e+00 -2.03427252e+00   1.01705214e+00  -1.33493697e+00
C     4.978949723500000e+00   3.941717988533926e+00  -3.181389000000010e-01  6.47841440e-01  -1.08139434e+00  -2.00111448e+00
C     6.234795097599999e+00   4.634394065051151e+00  -6.987287999999978e-01  2.97214300e-01  -1.43413897e+00   7.67544420e-01
C     4.876923866500000e+00   4.636431899902203e+00   3.791309100000000e+00 -4.78779328e+00  -3.40794127e+00   1.53781086e+00
C     5.983934709800000e+00   5.249767418984088e+00   3.509165400000000e+00  7.67483732e+00   5.50388237e+00  -6.00026750e-01
C     7.481395735700000e+00   3.881691135782460e+00  -8.701943999999990e-01 -2.38204480e-01  -2.54229850e-01   6.87336120e-01
C     8.768675085599998e+00   4.510764905080033e+00  -7.590978000000028e-01 -3.12759435e+00   5.33608970e+00   1.21117000e-02
C     7.342588874200001e+00   4.645480945478173e+00   3.701825700000000e+00 -8.96035960e-01   8.82466800e-02  -7.19427140e-01
C     8.546180635999999e+00   5.436114927809967e+00   3.795967500000001e+00  5.08459300e-01  -1.89501321e+00   1.41734207e+00
C     9.935792143799999e+00   3.921251773605566e+00  -3.799577999999997e-01 -2.63508300e-01  -4.19423418e+00  -1.26466029e+00
C     1.108706689350000e+01   4.587422078472033e+00  -1.977929999999972e-02  2.34899033e+00   9.97113520e-01  -8.52772730e-01
C     9.786181877499999e+00   4.694950421842480e+00   4.427429400000000e+00 -9.10093890e-01   2.47984306e+00  -2.01485293e+00
C     1.108263304870000e+01   5.311841328717924e+00   4.519485299999999e+00 -8.41334820e-01   1.63553251e+00  -2.34529747e+00
C     3.838052574500000e+00   6.034735682472297e+00  -3.461247000000007e-01 -2.19962196e+00   1.07536350e+00  -5.01113050e-01
C     5.025943124399999e+00   6.756502289112577e+00  -7.897391999999996e-01 -9.44936410e-01   2.64465680e-01   1.37619905e+00
C     1.340889367890000e+01   6.796751171180371e+00   3.891163200000000e+00  1.95155394e+00  -1.74241795e+00   1.33885454e+00
C     4.837383738200000e+00   7.444100813828078e+00   3.757945800000000e+00 -5.17002650e-01   2.16561065e+00   5.42435580e-01
C     6.288321931700000e+00   6.052543276487708e+00  -7.612403999999984e-01 -5.77459612e+00  -2.31978512e+00  -2.79453660e-01
C     7.403338799200000e+00   6.724777986597070e+00  -8.690700000000007e-01  7.63677799e+00  -4.00972250e-01  -5.99585540e-01
C     6.053528956199999e+00   6.783581369926961e+00   3.462669600000000e+00  3.64512700e-02  -1.66240945e+00   3.07004770e-01
C     7.311952769600000e+00   7.534823872233257e+00   3.392532600000000e+00 -1.27261877e+00   4.95679120e-01   1.59664119e+00
C     8.733691657699998e+00   6.017352306497531e+00  -8.153214000000020e-01  4.96255720e-01  -1.36732410e-01   1.87962722e+00
C     9.966596953000000e+00   6.815390720986848e+00  -4.696679999999986e-01 -1.25827973e+00  -3.25342093e+00  -7.14776640e-01
C     8.544907069099999e+00   6.847248659016365e+00   3.551244900000000e+00  1.45682167e+00  -2.16090419e+00   1.04735851e+00
C     9.847510042200000e+00   7.417027197980399e+00   3.810911700000000e+00 -3.18615904e+00   2.45475446e+00  -1.10040958e+00
C     1.123206701820000e+01   6.029263457606189e+00  -1.654142999999983e-01 -4.37190043e+00   3.87371680e-01  -3.32944500e-01
C     1.238726816780000e+01   6.735251082950791e+00  -2.632524000000025e-01  3.31527134e+00   2.13451714e+00  -1.25700757e+00
C     1.102087962220000e+01   6.689501284941676e+00   4.045493700000000e+00  1.01113931e+00   1.90204183e+00   1.30955533e+00
C     1.219140059890000e+01   7.557141686194100e+00   4.018174500000001e+00  2.29020851e+00  -3.78107817e+00  -6.94104570e-01
