76
Lattice="10.7446858958278 0 0 5.37234294791388 9.3051709414712 0 0 0 30 " PBC="1 1 1" Properties=species:S:1:pos:R:3:force:R:3 Energy="-611.08280824"
C     1.073875563923464e+01   4.935620854481981e-02  -2.536383000000022e-01  3.59602970e+00  -2.19900279e+00   4.44033760e-01
C     1.246491381950664e+01   8.521858207357552e+00  -4.278554999999997e-01  2.14559482e+00  -3.40738348e+00   2.05993780e-01
C     1.391223493683798e+01   8.298122444035165e+00  -4.152722999999980e-01 -1.21645804e+00   4.34121363e+00   1.40493760e-01
C     1.443188716506552e+01   7.029295203031980e+00  -3.471294000000000e-01  2.73304042e+00   1.81639750e-01  -1.06174360e-01
C     8.224662028072887e+00   8.983864038803766e+00  -2.093504999999993e-01 -1.30271220e+00   6.80547290e-01   8.36092720e-01
C     9.602306543514210e+00   8.823390224530646e+00  -2.291534999999989e-01  2.68724701e+00   8.46899160e-01  -3.52611050e-01
C     1.022722902599555e+01   7.542988746653740e+00  -2.722712999999999e-01  5.97749600e-01   2.74485400e-01   5.02335600e-02
C     1.166779598004673e+01   7.329609173329027e+00  -3.231701999999999e-01 -1.73972211e+00   1.33024139e+00   2.89526840e-01
C     1.221592538654933e+01   6.041100379167228e+00  -1.529510999999992e-01  1.21413740e+00  -3.03301800e-02  -6.02319380e-01
C     1.364292572411917e+01   5.921530235312159e+00  -2.658389999999997e-01 -1.80821543e+00  -4.03532215e+00   1.74972928e+00
C     5.983517445702004e+00   8.008742887058004e+00  -2.668707000000019e-01 -2.57567583e+00   3.06971360e-01  -8.52562200e-02
C     7.355315455204561e+00   7.837306650900469e+00  -2.309622000000005e-01  2.05322963e+00   1.91385200e-02   9.22485000e-02
C     7.973201511507142e+00   6.527391310991200e+00  -1.767995999999989e-01 -1.05188408e+00   1.46545686e+00  -5.03824890e-01
C     9.390524755167998e+00   6.444933724809809e+00  -1.999184999999990e-01  1.38671090e-01  -3.30792686e+00   9.06364240e-01
C     9.975125171361546e+00   5.104056359114783e+00  -2.220810000000029e-02 -3.44788630e-01   1.86075100e-02  -8.99236270e-01
C     1.141466735099501e+01   4.864571780079866e+00   2.108190000000000e-02 -2.74143296e+00   3.88237183e+00  -3.98989670e-01
C     1.193756705308896e+01   3.629649790430758e+00   9.827100000000000e-02  1.23534078e+00  -4.05158569e+00  -8.44268800e-02
C     5.121662551354024e+00   6.858902727898784e+00  -2.808852000000002e-01  4.00327640e-01   9.73115980e-01  -1.11113810e-01
C     5.712843711597316e+00   5.584077652862803e+00  -2.236806000000016e-01 -1.43401121e+00  -8.69967290e-01   3.10638190e-01
C     7.089011746025690e+00   5.417822256729532e+00  -1.725437999999997e-01  2.15132420e+00  -8.18654230e-01   2.42097090e-01
C     7.693584545540446e+00   4.101420561313117e+00  -1.172222999999981e-01 -1.37118542e+00   5.67364150e-01  -5.91043850e-01
C     9.087267599901271e+00   3.978623477227766e+00  -9.624239999999773e-02  1.42620681e+00  -3.73840350e-01   8.13782600e-01
C     9.646087377916645e+00   2.656230554449922e+00  -6.911640000000219e-02  1.10414293e+00  -1.47557610e-01  -2.39886850e-01
C     1.107402056911632e+01   2.451089872527195e+00   1.559160000000000e-02 -7.62382200e-02   6.88989100e-01   8.27550600e-02
C     3.465497027907804e+00   4.540916625945214e+00  -1.953809999999834e-02 -4.88203300e-02   3.11873316e+00  -1.12299749e+00
C     4.870618606260621e+00   4.404366033951995e+00  -1.322808000000002e-01 -9.54961050e-01   2.04070827e+00  -1.02576830e-01
C     5.368964874476470e+00   3.143453213040117e+00  -2.018063999999988e-01  4.00649926e+00  -2.34187357e+00   6.29149480e-01
C     6.860143006033285e+00   2.958787257046928e+00  -2.094668999999989e-01 -1.43729319e+00  -7.77925170e-01  -2.81875030e-01
C     7.418672731252789e+00   1.627507430762837e+00  -3.191510999999991e-01 -1.47809571e+00   7.64470170e-01   4.66711340e-01
C     8.824550090811812e+00   1.506471536381300e+00  -2.240937000000010e-01 -6.43261760e-01   2.70158050e-01  -2.42631810e-01
C     9.400922710054006e+00   2.342446511751840e-01  -3.157721999999978e-01 -2.73739187e+00  -2.82366447e+00  -2.64747440e-01
C     2.636828868835148e+00   3.429801517531865e+00   9.939120000000000e-02 -1.63999492e+00  -1.84308920e-01  -3.20035640e-01
C     3.153953946939003e+00   2.110727097866353e+00   2.384430000000000e-02  9.48778630e-01   5.88409130e-01   1.62796690e-01
C     4.595180893321590e+00   1.968634159957853e+00  -1.065953999999998e-01 -1.59822848e+00  -2.82930820e-01  -2.70035890e-01
C     5.142704084645713e+00   6.639066389510516e-01  -2.357769000000012e-01 -1.47732713e+00  -3.81285880e-01  -5.61407000e-03
C     6.521275221799053e+00   4.600400210334292e-01  -3.807342000000027e-01  1.08492050e+00   2.92731597e+00   2.81898390e-01
C     8.895410488470870e-01   1.110635799058230e+00  -6.154349999999909e-02 -1.05005922e+00   2.94906493e+00   1.44649450e-01
C     2.280806656327270e+00   1.007131125882781e+00  -1.470540000000042e-02  1.21052957e+00  -2.12968910e+00  -8.31101820e-01
C     1.604378329324143e+01   9.303847558588913e+00   3.524547900000000e+00  1.44780436e+00  -1.99227868e+00   6.40563020e-01
C     1.179743528936860e+01   8.767420086585092e+00   3.705096600000000e+00  2.68727951e+00   4.84136480e-01  -7.35145300e-02
C     1.323803968865014e+01   8.982321334513623e+00   3.659438700000000e+00 -5.87599660e-01  -6.36875770e-01   2.06336340e-01
C     1.407938448187105e+01   7.815876842225649e+00   3.663694500000000e+00  3.95943600e-01   9.82430750e-01  -2.03782790e-01
C     7.570901345870238e+00   8.330118925674322e+00   3.564099300000000e+00 -1.06661340e+00  -1.43189187e+00   3.28032570e-01
C     8.960249671598426e+00   8.454168113561360e+00   3.608439600000000e+00  1.94855080e+00   2.61917541e+00  -3.56014030e-01
C     9.854677511039693e+00   7.384018182745977e+00   3.635996100000000e+00 -9.74808800e-02  -3.40020592e+00  -1.28373760e-01
C     1.129452258336868e+01   7.455517999628424e+00   3.685916100000000e+00 -2.06881802e+00   1.62337946e+00  -3.61815460e-01
C     1.212081815462433e+01   6.339426020537815e+00   3.589240200000000e+00  3.89955280e-01  -4.64312510e-01   3.23528300e-01
C     1.353472797274505e+01   6.534177758261161e+00   3.620800200000000e+00 -6.33377370e-01  -1.97188449e+00  -4.66084900e-02
C     4.745352169206337e+00   7.955297335040182e+00   3.639585000000000e+00  6.67294030e-01   1.12657614e+00  -4.46749940e-01
C     5.598098900763746e+00   6.795508459318754e+00   3.631490100000000e+00 -7.23786970e-01   1.75249928e+00  -3.84208500e-02
C     6.990790811573726e+00   6.997237121161201e+00   3.626170800000000e+00  8.43026250e-01   7.66125640e-01  -5.17788630e-01
C     7.865363814557529e+00   5.886276850792293e+00   3.570809100000000e+00  5.85938470e-01   1.79120600e-02   7.73409480e-01
C     9.276092990758126e+00   6.038842107231799e+00   3.565891800000000e+00  4.27997380e-01   1.06513574e+00  -1.03387090e-01
C     1.011433525592541e+01   4.888725026185405e+00   3.485269500000000e+00  5.53561150e-01   1.04890443e+00   3.81064120e-01
C     1.152635696411635e+01   5.046995189876515e+00   3.509085300000000e+00  3.77866760e-01  -2.35526970e-01  -5.06024040e-01
C     1.234666162085473e+01   3.901787330914647e+00   3.399610200000000e+00  2.50282038e+00  -4.59912040e-01   7.85625640e-01
C     3.626960968673452e+00   5.346637792090242e+00   3.595142100000000e+00 -8.06986120e-01   1.54020985e+00  -4.65661000e-02
C     5.013580251629898e+00   5.521355496779766e+00   3.597268800000000e+00  2.17457486e+00  -1.49446118e+00   3.29308540e-01
C     5.934762251515306e+00   4.377449431232405e+00   3.612230100000000e+00 -1.36027556e+00   6.99923770e-01   5.24926120e-01
C     7.355448796756580e+00   4.581549795044040e+00   3.680145300000000e+00 -1.52832679e+00  -1.51726105e+00  -1.46489554e+00
C     8.169275750983003e+00   3.405671999612223e+00   3.552373200000000e+00  4.19475680e-01   1.21666200e+00   9.52347180e-01
C     9.599259672933549e+00   3.594546870524992e+00   3.490722000000000e+00 -1.23501123e+00  -1.98538131e+00  -1.16313390e-01
C     1.042444306175169e+01   2.416181709849203e+00   3.462514500000000e+00  6.06892200e-01   5.39675060e-01  -3.37145600e-01
C     1.186066072812084e+01   2.554244392120171e+00   3.354488400000000e+00 -2.50443581e+00   2.56845340e+00   7.52873470e-01
C     3.064374855909549e+00   4.065978188771460e+00   3.546216900000000e+00 -1.37779056e+00   5.05211100e-02  -7.17687460e-01
C     3.955616519917458e+00   2.964177556469051e+00   3.540409800000000e+00 -2.99188531e+00  -1.23538819e+00   4.97178500e-02
C     5.310582656617088e+00   3.079870049490002e+00   3.627876900000000e+00  3.32030404e+00   4.20992470e-01  -3.68312430e-01
C     6.170359098924573e+00   1.923479422195861e+00   3.631733400000000e+00 -2.31002550e-01   3.03747350e-01   5.75052230e-01
C     7.573670627490676e+00   2.125965897159663e+00   3.652014300000000e+00  5.87528960e-01  -6.68505760e-01  -7.21393420e-01
C     8.432984296176446e+00   9.808453207012122e-01   3.614403300000000e+00 -4.06938380e-01  -4.16099680e-01   2.34203800e-01
C     9.851205365791106e+00   1.120588144637107e+00   3.549918600000000e+00 -8.89834370e-01   9.76990490e-01  -3.12181170e-01
C     1.944802814396253e+00   1.472893082630635e+00   3.458715600000000e+00  1.39395308e+00  -1.55897611e+00  -1.62563720e-01
C     3.369031936302188e+00   1.657681587725103e+00   3.506023500000000e+00  2.65861750e-01  -1.09305963e+00  -4.46901300e-02
C     4.204795294985480e+00   4.896038518337408e-01   3.555583500000000e+00 -1.18029077e+00  -5.39482950e-01   7.04460340e-01
C     5.617727776476731e+00   6.026353451209807e-01   3.682672800000000e+00 -1.00910920e+00   1.12263735e+00  -6.69614550e-01
C     1.369610928687612e+00   1.632960726192224e-01   3.520731000000000e+00 -7.76894660e-01   1.51068290e-01  -2.52787850e-01
