64
Lattice="9.86 0 0 4.93 8.53901048131456 0 0 0 30 " PBC="1 1 1" Properties=species:S:1:pos:R:3:force:R:3 Energy="-514.73979433"
C     4.976716186999999e+00   8.418335134534125e+00  -1.268801999999987e-01 -3.99526590e-01   1.17839209e+00   2.79533700e-02
C     1.285846987700000e+00   6.207132241366056e-01  -1.401935999999999e-01 -1.54955969e+00  -3.01071880e-01   8.58774250e-01
C     1.236008089400000e+00   8.202453920941279e-01   3.591119400000000e+00 -1.91018598e+00  -7.53811200e-01  -3.26266500e-02
C     2.437259580200000e+00   1.490028808464997e+00   3.557730000000000e+00  1.55556370e-01   2.81803310e+00  -2.45976430e-01
C     7.416248004200000e+00   8.440483449136940e+00  -1.151844000000004e-01  9.82951030e-01  -3.78518390e-01   2.10122800e-02
C     3.740108708200000e+00   5.851428659108032e-01  -1.473608999999989e-01 -8.69895840e-01   1.23572650e-01  -2.78926060e-01
C     3.647348243900000e+00   8.410862988023496e-01   3.586593600000000e+00  1.99128108e+00  -1.20716993e+00  -9.92511500e-02
C     4.887660223299999e+00   1.559149621987558e+00   3.553215000000000e+00  3.18684510e-01  -3.89258400e-01   4.05779910e-01
C     9.874812579400000e+00   8.406192320071145e+00  -1.765197000000001e-01  1.42516776e+00   1.66906692e+00   2.30105210e-01
C     6.222762742400000e+00   6.251669158326592e-01  -1.649916000000005e-01 -2.01789086e+00  -2.35975913e+00   4.41049280e-01
C     6.103423514199999e+00   7.928430243429696e-01   3.616900200000000e+00  2.27801520e-01   9.65217790e-01  -2.11286260e-01
C     7.316714212900000e+00   1.517826105450855e+00   3.640938900000000e+00  2.19769722e+00   2.89580090e-01  -4.26868780e-01
C     1.234702477500000e+01   8.403033740094594e+00  -1.146962999999985e-01  4.87738030e-01  -5.71553580e-01  -8.54315400e-01
C     8.644890920100000e+00   5.660920773596088e-01  -1.272096000000005e-01  6.75422620e-01   1.21707597e+00  -1.49191210e-01
C     8.598466342599998e+00   8.194162541765201e-01   3.606181500000000e+00 -1.49455700e-01   1.64717313e+00  -5.59001250e-01
C     9.881654531999999e+00   1.548143776769990e+00   3.505640400000000e+00 -2.72576219e+00  -7.29305330e-01   1.01192657e+00
C     1.250509783000000e+00   2.043887814020853e+00  -6.991920000000107e-02  1.96741818e+00  -3.26323910e-01  -2.29611201e+00
C     2.527193478300000e+00   2.753063137367743e+00  -2.899808999999998e-01 -1.94201838e+00  -2.28843077e+00   1.53469742e+00
C     2.420976874800000e+00   2.943810712903860e+00   3.466798500000000e+00  4.79491520e-01  -1.91213930e-01  -4.30786000e-03
C     3.636199689800000e+00   3.695548307037787e+00   3.403282800000000e+00  1.91016971e+00  -1.49388368e+00   8.36944300e-01
C     3.725711579900000e+00   1.990756126841883e+00  -2.336433000000007e-01  9.74023550e-01   1.94055554e+00   1.96828020e-01
C     4.954278918900000e+00   2.753986033620421e+00  -1.926957000000016e-01 -1.59048490e-01  -7.08029610e-01  -4.26096300e-02
C     4.948630174200000e+00   3.000709555336293e+00   3.552878700000000e+00 -3.48172853e+00  -1.89680434e+00  -3.67565720e-01
C     6.149706699299999e+00   3.647148085565785e+00   3.695229000000000e+00  3.23749190e-01   1.65488079e+00  -1.04880714e+00
C     6.170042505600000e+00   2.015632399122743e+00  -1.079700000000017e-01  1.17395040e+00   1.41045887e+00  -2.65908810e-01
C     7.429113381499999e+00   2.727035721084075e+00  -7.579319999999967e-02 -8.23520490e-01   5.66666150e-01  -6.78622360e-01
C     7.367100193299999e+00   2.937367944106596e+00   3.610659300000000e+00  5.11062570e-01   9.70432270e-01   7.98068240e-01
C     8.619737517800001e+00   3.711634778100850e+00   3.593301300000000e+00 -1.67196527e+00  -2.33558316e+00  -5.11111320e-01
C     8.637568243200000e+00   2.022591692663942e+00  -1.835472000000031e-01  1.37824940e+00  -7.38573850e-01   8.59612330e-01
C     9.915660488799999e+00   2.734896648741858e+00  -2.078850000000010e-01 -1.78066071e+00   7.66044750e-01   5.29593590e-01
C     9.802964238400000e+00   2.968291714389601e+00   3.531650100000000e+00  1.56022439e+00  -5.24258980e-01  -6.22218800e-02
C     1.104882281290000e+01   3.651288993307956e+00   3.508698900000000e+00  1.31004850e-01  -4.08448100e-02  -7.47838140e-01
C     2.483165176600000e+00   4.126206127827784e+00  -2.825139000000014e-01  7.47240010e-01   2.87714894e+00  -3.76140640e-01
C     3.732864812699999e+00   4.869644230725674e+00  -1.998548999999983e-01 -5.17731980e-01  -2.76770430e-01  -1.31320976e+00
C     3.671852315899999e+00   5.096479116182053e+00   3.424034700000000e+00  4.60858410e-01   6.34212470e-01   4.26840490e-01
C     4.933520020000000e+00   5.821584134359593e+00   3.536632800000000e+00 -2.14755585e+00  -8.41769700e-02   2.07870560e-01
C     4.964509901400000e+00   4.194783262553083e+00  -2.195895000000014e-01 -2.12077000e-03  -1.57894515e+00   3.90085760e-01
C     6.194604455800000e+00   4.899247869988472e+00  -1.880424000000005e-01  7.66024090e-01  -1.21134013e+00   1.01078387e+00
C     6.118237621900000e+00   5.091052575022013e+00   3.661297200000000e+00  6.54403390e-01  -5.87806180e-01  -7.43817200e-02
C     7.334303959900000e+00   5.772418305207954e+00   3.673829400000000e+00  1.81353056e+00   1.88362158e+00  -6.33908660e-01
C     7.437148640600000e+00   4.162928142397024e+00  -9.415650000000042e-02 -9.21520450e-01  -3.82378700e-01  -2.01837670e-01
C     8.657183875099999e+00   4.865627480195882e+00  -1.040829000000016e-01  6.12481310e-01  -7.77030630e-01  -6.95096160e-01
C     8.608189880199999e+00   5.110227008444959e+00   3.553637700000000e+00 -1.36434140e+00   3.13806900e-02   1.02668420e+00
C     9.812083555199999e+00   5.819886749856379e+00   3.572759400000000e+00  1.52665393e+00  -4.43840610e-01  -4.93498640e-01
C     9.922772556100000e+00   4.188039237466084e+00  -2.522142000000009e-01 -2.13715862e+00  -1.68044657e+00   3.43326110e-01
C     1.109830458200000e+01   4.884682538252317e+00  -3.552441000000002e-01  2.09654272e+00   2.80825430e-01   1.06134470e+00
C     1.104541529550000e+01   5.051503977203684e+00   3.444995400000000e+00  7.15050150e-01   2.23205221e+00   1.06735702e+00
C     1.231234025300000e+01   5.786919679755615e+00   3.498536700000000e+00 -1.51360918e+00   3.60350260e-01  -2.60470110e-01
C     3.751654866800000e+00   6.278286107893800e+00  -2.978871000000005e-01 -8.67041230e-01   1.95768350e-01   1.33992782e+00
C     4.957202113099999e+00   7.022204786301504e+00  -1.243680000000005e-01  5.31473850e-01  -1.36116821e+00  -5.64923210e-01
C     4.878624815100000e+00   7.254626063194110e+00   3.592606800000000e+00 -1.47054710e-01  -7.65098630e-01  -9.35765300e-02
C     6.104944172700000e+00   7.931846957693058e+00   3.677810100000000e+00  1.68512857e+00   3.97494450e-01  -7.85966080e-01
C     6.197251027700000e+00   6.291868172573183e+00  -7.140660000000310e-02 -4.88454410e-01   1.28917243e+00  -6.04617480e-01
C     7.413424050900000e+00   7.023057150327618e+00  -7.409459999999868e-02  6.30158440e-01  -1.22947434e+00  -2.78391000e-02
C     7.375159461500000e+00   7.218212477683407e+00   3.635149500000000e+00 -8.06570040e-01  -2.57979780e-01   6.48206950e-01
C     8.625848499300000e+00   7.940577071227601e+00   3.641289600000000e+00 -1.19092573e+00   3.23520960e-01  -1.24167080e-01
C     8.644301538600001e+00   6.248698436580600e+00  -1.219920000000023e-01  2.39727820e-01   3.16714465e+00   1.49269540e-01
C     9.877762642099999e+00   7.019697220483948e+00  -1.753871999999994e-01  1.35715600e-01  -1.61407244e+00  -7.11608800e-02
C     9.853195959099999e+00   7.243405120302551e+00   3.648288600000000e+00 -6.04403120e-01  -1.14307440e+00  -6.92045810e-01
C     1.108947746630000e+01   7.907958563534630e+00   3.583273800000000e+00 -1.76612842e+00   1.31637094e+00   7.91080610e-01
C     1.113698733400000e+01   6.332229769579314e+00  -2.522163000000006e-01 -2.45873367e+00  -2.86232652e+00  -4.28091640e-01
C     1.234645338800000e+01   6.928525437078045e+00  -2.563971000000009e-01  1.94367301e+00   4.10473555e+00   4.62890300e-01
C     1.228447214620000e+01   7.223893225185437e+00   3.613754100000000e+00  8.10961030e-01  -1.02690856e+00  -9.18640040e-01
C     1.347558159170000e+01   7.975817225918142e+00   3.565203900000000e+00  2.13993669e+00  -1.73003792e+00   5.17417000e-01
