64
Lattice="9.86 0 0 4.93 8.53901048131456 0 0 0 30 " PBC="1 1 1" Properties=species:S:1:pos:R:3:force:R:3 Energy="-514.53945482"
C     4.954692102200000e+00   8.216146224245961e+00  -2.655492000000024e-01  7.97454400e-02   3.03342100e-02   7.44501710e-01
C     1.273339824200000e+00   3.973285258646704e-01  -2.082528000000003e-01 -4.89893540e-01  -1.16915935e+00  -3.63500290e-01
C     9.855065415099999e+00   3.181311676350808e-01   3.494642700000000e+00 -8.91661860e-01   1.08955096e+00   1.44470950e-01
C     1.189306150100000e+00   1.068538042375804e+00   3.534231900000000e+00  4.15446510e-01  -1.61994116e+00  -5.65372140e-01
C     7.415141317800000e+00   8.195630056106292e+00  -2.235662999999981e-01  5.72977580e-01  -1.15139652e+00   7.37746100e-02
C     3.713700522300000e+00   3.366826802435096e-01  -1.308438000000010e-01  5.23788570e-01   1.61238435e+00   2.34962220e-01
C     2.402614596800000e+00   3.626676576450928e-01   3.331316100000000e+00  1.46271076e+00   9.88627200e-02   3.00304230e-01
C     3.675691454800000e+00   1.039911095131709e+00   3.433439100000000e+00 -9.03209370e-01   1.27117800e-01  -5.22668100e-02
C     9.901386906299999e+00   8.231195632486227e+00  -8.199540000000027e-02 -8.55593230e-01  -1.79486101e+00  -1.49594000e-01
C     6.175916009000000e+00   4.137420410291168e-01  -1.055904000000005e-01  6.75378080e-01  -1.79631292e+00   7.23126400e-02
C     4.892119802700000e+00   2.792995051366520e-01   3.388139700000000e+00  2.22061170e-01   3.52042634e+00  -3.89465200e-02
C     6.106706844900000e+00   1.050367540414993e+00   3.394814100000000e+00  1.91519134e+00  -6.44032910e-01   1.91069340e-01
C     1.233354674660000e+01   8.165813539312229e+00  -2.638019999999841e-02  6.60710670e-01   2.18315985e+00  -6.16684870e-01
C     8.635599496999999e+00   3.563978038100480e-01  -2.029211999999987e-01  3.17874980e-01   4.99525390e-01   2.44134700e-01
C     7.383726223899999e+00   3.725074155915112e-01   3.434650500000000e+00 -6.24949750e-01  -7.43484460e-01   6.52748670e-01
C     8.652848334500000e+00   1.083736114788527e+00   3.557743200000000e+00 -2.21479506e+00  -1.75344572e+00  -8.04589440e-01
C     1.298226069800000e+00   1.795933564724499e+00  -6.645989999999813e-02 -1.36683275e+00  -1.73687930e-01   9.19402870e-01
C     2.505939656700000e+00   2.473215171587960e+00   1.817340000000000e-01  9.29312900e-02   5.67857390e-01  -1.03174111e+00
C     1.104193244770000e+01   2.443281158009692e+00   3.684145200000000e+00 -1.22609800e-01   2.70332394e+00  -9.73461800e-02
C     2.428071391300000e+00   3.159448479307921e+00   3.687239100000000e+00  7.27107050e-01   6.60505200e-01  -1.14928300e-02
C     3.723561902700000e+00   1.757189597863700e+00   1.199190000000000e-02  1.13084588e+00   1.38600347e+00  -1.54537190e-01
C     4.985625436499999e+00   2.537201563499003e+00  -8.911379999999980e-02 -2.75452074e+00  -8.06267120e-01   5.21139070e-01
C     3.661442768800000e+00   2.481565213766038e+00   3.582000600000000e+00  1.23717916e+00  -1.36755834e+00  -8.67351280e-01
C     4.932764349600000e+00   3.191276872361178e+00   3.413370600000000e+00 -2.03308507e+00  -2.06594966e+00   9.07682900e-01
C     6.169073169000000e+00   1.818909992563664e+00  -2.347584000000005e-01  1.27933106e+00  -9.92919000e-02   6.92298090e-01
C     7.409768012200000e+00   2.508851109414250e+00  -2.253708000000003e-01  1.23790252e+00  -2.34620140e-01  -9.27051300e-02
C     6.162437241099999e+00   2.474574069715748e+00   3.382588500000000e+00 -1.88233318e+00  -3.62053740e-01  -2.93215920e-01
C     7.345125950800000e+00   3.196382346727169e+00   3.376253100000000e+00  2.22886725e+00  -9.91277700e-02   6.22577410e-01
C     8.668256556499999e+00   1.804511256921973e+00  -2.083203000000005e-01 -1.02506467e+00  -1.12353192e+00   2.36635990e-01
C     9.897213316199998e+00   2.481494510759264e+00  -4.107899999999987e-02  2.30060890e-01   9.15438810e-01  -3.33530880e-01
C     8.605236612999999e+00   2.488734396184836e+00   3.551567100000000e+00 -7.91434120e-01   5.20901550e-01  -4.11046570e-01
C     9.799862578199999e+00   3.200971894079960e+00   3.647902500000000e+00  9.74703370e-01   7.54517470e-01   5.09257210e-01
C     2.467833813300000e+00   3.899076561119740e+00   2.675961000000000e-01  3.64498830e-01   1.44199588e+00  -1.92261730e-01
C     3.690945072000000e+00   4.639717967305221e+00   1.500555000000000e-01  1.34871346e+00  -7.56795300e-02   4.03222400e-02
C     1.236852884340000e+01   4.608992387455457e+00   3.701304300000000e+00 -3.78790181e+00  -1.45184015e+00   3.68411860e-01
C     3.677546613800000e+00   5.312742792054298e+00   3.588678000000000e+00  7.91143780e-01   1.23013140e+00  -5.75038310e-01
C     4.942404225100000e+00   3.963310584334702e+00   5.770200000000000e-03  6.94027220e-01  -1.21350023e+00  -6.47102280e-01
C     6.203776424999999e+00   4.632399181422812e+00  -1.690608000000005e-01 -1.02448675e+00   7.65502490e-01   6.70503900e-02
C     4.877573246100000e+00   4.552219153867185e+00   3.422857500000000e+00  1.53286841e+00   3.13363467e+00  -2.68071790e-01
C     6.126700361299999e+00   5.272977730320300e+00   3.255781200000000e+00 -1.09416321e+00   1.87564272e+00   4.09460340e-01
C     7.440964509900001e+00   3.910405437103766e+00  -2.148506999999995e-01 -6.22917450e-01   1.06511076e+00   1.62473900e-02
C     8.678729108999999e+00   4.634945343567739e+00  -1.567574999999977e-01 -5.10053500e-01  -1.23887159e+00   1.97050600e-01
C     7.357880008700000e+00   4.625356120188804e+00   3.320190900000000e+00  6.89397650e-01  -6.88793620e-01   3.52023800e-02
C     8.593551921400000e+00   5.362104420716243e+00   3.427497600000000e+00 -6.29132810e-01   1.41519740e-01  -1.72371280e-01
C     9.870772049999999e+00   3.914403316420397e+00   5.736630000000000e-02  1.21898600e+00   4.52516590e-01  -1.14562180e-01
C     1.110183530010000e+01   4.672843777610808e+00   2.408655000000000e-01 -1.56874800e-01  -2.00075534e+00  -6.07120950e-01
C     9.782319567600000e+00   4.663242258056782e+00   3.678450000000000e+00  2.39068969e+00  -1.96824582e+00  -4.56857620e-01
C     1.109200916920000e+01   5.291915803933158e+00   3.725806500000000e+00 -7.91760200e-01   1.89978832e+00  -7.54164490e-01
C     3.774788645300000e+00   6.062115848796207e+00   7.582800000000001e-02 -1.73987407e+00   3.73107930e-01   8.96188500e-02
C     4.974224811499999e+00   6.794282714030811e+00  -1.541055000000000e-01 -3.44028150e-01  -4.38846310e-01  -9.74838600e-02
C     1.347487142520000e+01   6.780718239713018e+00   3.515736600000000e+00  2.50729375e+00  -2.61321290e+00   2.03467800e-02
C     4.872901972499999e+00   7.448881208065097e+00   3.389159100000000e+00  4.65814550e-01  -2.43062970e-01   8.66062500e-02
C     6.169791124900000e+00   6.065048144995039e+00  -2.450864999999993e-01  2.75260002e+00  -2.83370870e-01   2.30789700e-01
C     7.467848490100000e+00   6.755002241141554e+00  -2.772300000000030e-01 -2.00625678e+00   2.48234000e-01  -1.39033400e-01
C     6.104944517800000e+00   6.721899998504892e+00   3.239484000000000e+00  6.34293420e-01   3.55742360e-01  -1.92765200e-01
C     7.355180784400000e+00   7.496524873208571e+00   3.139810200000000e+00 -4.65747660e-01  -1.46693253e+00   1.37455381e+00
C     8.699392760299999e+00   6.029782885613687e+00  -2.195387999999987e-01 -8.88268150e-01   1.58912177e+00   6.85907880e-01
C     9.891512806499998e+00   6.772894712921136e+00  -2.814569999999961e-02  7.39393510e-01   1.06638627e+00  -2.91639850e-01
C     8.623720415499999e+00   6.786817227948357e+00   3.293299800000000e+00 -2.46420863e+00  -1.16998604e+00  -1.47639490e-01
C     9.830004302399999e+00   7.445005607378539e+00   3.405098700000000e+00  1.34079863e+00  -7.84047120e-01   1.52934400e-01
C     1.111260582180000e+01   6.089878306619307e+00   1.573521000000000e-01  1.06919424e+00  -6.63836150e-01   1.68936020e-01
C     1.239337688150000e+01   6.774371620173757e+00   1.520625000000000e-01 -1.26863341e+00  -1.22973700e-01  -5.71287360e-01
C     1.107853237330000e+01   6.743566456746319e+00   3.555329400000000e+00 -1.52628260e+00  -1.83514348e+00   3.22179600e-01
C     1.226699362000000e+01   7.437908664988401e+00   3.521827800000000e+00  8.01334990e-01   3.02548195e+00  -1.75795720e-01
