64
Lattice="9.86 0 0 4.93 8.53901048131456 0 0 0 30 " PBC="1 1 1" Properties=species:S:1:pos:R:3:force:R:3 Energy="-515.16896054"
C     4.982105613699999e+00   7.673405266505378e+00  -2.625561000000012e-01  2.66903370e-01   1.32200480e-01   1.65120420e-01
C     6.230684463599999e+00   8.418650565581256e+00  -2.056496999999986e-01 -1.17443462e+00  -2.57992939e+00   2.35309250e-01
C     9.812086266700000e+00   9.067929597646920e-01   3.455208300000000e+00 -7.10627110e-01  -1.04466200e-01   2.90968350e-01
C     1.185587993400000e+00   1.575312858754835e+00   3.503091300000000e+00  8.48972240e-01  -5.54952480e-01  -5.58354800e-02
C     7.444504447100000e+00   7.701730872069635e+00  -2.446245000000005e-01  3.62189730e-01  -6.82991740e-01  -3.64086960e-01
C     8.693893443899999e+00   8.408264652524537e+00  -2.226959999999991e-01 -8.39347420e-01  -1.94311714e+00   6.51050700e-02
C     2.428075483200000e+00   8.511911076340672e-01   3.484674900000000e+00  2.28648890e-01   1.11259996e+00   2.65116860e-01
C     3.639110657600000e+00   1.597689677278094e+00   3.595153200000000e+00  7.01161360e-01  -5.18823640e-01   2.75643580e-01
C     9.907053744100001e+00   7.631725502451451e+00  -2.525943000000019e-01  1.01314090e-01   2.31893212e+00   3.99704410e-01
C     1.111916079910000e+01   8.354845798423124e+00  -1.704128999999988e-01  1.50016382e+00   5.60282450e-01  -5.18763570e-01
C     4.880093856500000e+00   8.666631968930937e-01   3.617639100000000e+00 -3.61263990e-01   6.07585090e-01  -7.65545280e-01
C     6.110962765999999e+00   1.584986191386998e+00   3.511444800000000e+00 -9.16476000e-02  -1.08595780e-01   7.50886240e-01
C     1.240502814770000e+01   7.687178348849200e+00  -1.733456999999987e-01 -1.75700339e+00  -1.00709143e+00   2.90188730e-01
C     1.361727462310000e+01   8.375968748647500e+00  -2.266215000000003e-01  9.86792100e-02   1.17339074e+00   6.08927240e-01
C     7.335257421900000e+00   8.428393576538936e-01   3.562013700000000e+00  5.01281870e-01   6.68289300e-02  -6.70489200e-02
C     8.566560812299999e+00   1.588482830788454e+00   3.475740000000000e+00 -1.21867680e-01  -9.93032000e-02   2.99291390e-01
C     1.267286030700000e+00   1.232910749291822e+00  -8.301299999999401e-03 -5.17700500e-02   2.63576610e+00  -8.80605210e-01
C     2.509510998000000e+00   1.957875215356861e+00  -6.084210000000212e-02 -4.86941650e-01   1.00163971e+00   4.87623790e-01
C     1.105123368150000e+01   2.961124666723423e+00   3.654328200000000e+00  1.24496064e+00   1.60847714e+00  -1.17708840e-01
C     2.428213917600000e+00   3.716135348964439e+00   3.749701800000000e+00 -9.48041830e-01   9.15518240e-01   1.86296900e-01
C     3.728055006100000e+00   1.266119814949590e+00  -1.568292000000007e-01  1.57560436e+00   3.68515090e-01  -4.85551730e-01
C     4.997524040800000e+00   1.956653112176963e+00  -2.835164999999975e-01 -1.68698943e+00   1.09377616e+00   5.93580900e-01
C     3.649261429000000e+00   3.024457226602011e+00   3.721588800000000e+00 -3.67956000e-02  -8.05224800e-02  -3.92180090e-01
C     4.863338955700000e+00   3.779975296845748e+00   3.668126700000000e+00  1.05627386e+00  -3.51774114e+00  -8.44911640e-01
C     6.196325173700000e+00   1.251523401215287e+00  -2.289686999999994e-01  1.98330320e-01  -7.80985640e-01  -5.58171500e-02
C     7.416069439599998e+00   1.980181672433765e+00  -1.990017000000002e-01  7.28363990e-01  -1.92308578e+00   1.89395470e-01
C     6.101993321200000e+00   3.032045162094749e+00   3.495030900000000e+00 -5.88641010e-01  -8.69118430e-01   5.94005020e-01
C     7.322314495699999e+00   3.724543968754409e+00   3.488314500000000e+00  1.33763020e+00  -1.51745396e+00  -6.73673530e-01
C     8.656400399499999e+00   1.272211374245812e+00  -1.271462999999997e-01  7.65012500e-02  -6.48485350e-01  -4.65000980e-01
C     9.875744201500000e+00   1.957810916607946e+00  -5.616719999999731e-02  1.07546073e+00   1.03516715e+00   2.66713790e-01
C     8.609714679900000e+00   3.009454099798547e+00   3.494057700000000e+00 -2.13751110e+00  -3.15240580e-01   1.60582670e-01
C     9.839772259299998e+00   3.671114526280001e+00   3.626122800000000e+00 -6.40461210e-01   1.37164977e+00  -1.77039190e-01
C     2.527194217800000e+00   3.398197589916730e+00  -9.609000000001089e-03  1.16087640e-01  -3.86401600e-02  -4.59518590e-01
C     3.777092335700000e+00   4.132193938146674e+00  -1.207335000000000e-01 -1.12763149e+00  -1.72772193e+00  -2.45291740e-01
C     1.229212902780000e+01   5.194937408010750e+00   3.829041300000001e+00 -1.56931243e+00  -2.50397407e+00  -1.85295180e-01
C     3.659360238200000e+00   5.839495050401813e+00   3.785436300000000e+00  7.18921340e-01   1.79976181e+00  -4.57945630e-01
C     5.008031201900000e+00   3.395856107853009e+00  -3.073629000000011e-01 -1.07563901e+00  -1.68833440e-01   6.50636140e-01
C     6.225270584100000e+00   4.093276373202817e+00  -3.442185000000002e-01  4.12832050e-01   5.87184420e-01   1.34710030e-01
C     4.872302139399999e+00   5.140120034772924e+00   3.599878500000000e+00  6.27163440e-01   1.84287284e+00   3.35942590e-01
C     6.113688020700000e+00   5.850940313098681e+00   3.430611300000000e+00 -1.37991883e+00   1.29037389e+00   1.46132180e-01
C     7.448913543300000e+00   3.348692420488615e+00  -2.403138000000027e-01  2.21189560e-01   2.93954614e+00  -3.52745580e-01
C     8.703516803899999e+00   4.093349808692945e+00  -2.051447999999993e-01 -2.15369496e+00   1.02834007e+00  -1.17940920e-01
C     7.301409865999999e+00   5.100022378580729e+00   3.387290100000000e+00  1.77137727e+00   2.53632438e+00   1.02773665e+00
C     8.564614349699999e+00   5.815173813802153e+00   3.536683500000000e+00  4.91160110e-01   8.20646100e-02  -2.35775960e-01
C     9.903343721899999e+00   3.416633057372735e+00  -7.378620000000069e-02  5.70049280e-01  -1.88092088e+00   2.13340000e-02
C     1.113158444840000e+01   4.110044513472498e+00  -3.506580000000170e-02  1.15127456e+00   1.91231300e-02   2.67082680e-01
C     9.804118154200001e+00   5.107381980933232e+00   3.675681600000000e+00  3.76064900e-01   7.32519280e-01  -8.76763700e-02
C     1.102851984040000e+01   5.890246659189692e+00   3.783937200000000e+00 -5.34758000e-03  -2.21654376e+00  -2.34079510e-01
C     3.714391954800000e+00   5.541184036162174e+00  -1.236296999999986e-01  2.14714955e+00  -1.91386500e-01  -3.29467040e-01
C     4.935329428599999e+00   6.252068613236847e+00  -2.764710000000008e-01  1.66493335e+00  -1.77111640e-01  -8.27202800e-02
C     1.353782392630000e+01   7.274347932578927e+00   3.737302500000000e+00 -1.05358930e-01  -9.52820000e-03  -5.35920560e-01
C     4.871820922100000e+00   8.057860550950611e+00   3.515002800000000e+00  5.51686280e-01  -2.74198197e+00   2.17510580e-01
C     6.195086511200000e+00   5.534945093545067e+00  -3.710889000000002e-01 -8.31796690e-01  -1.91960270e-01   4.34476030e-01
C     7.398148002199999e+00   6.262253603376971e+00  -3.516699000000010e-01  1.80930710e+00   8.43638900e-02   3.28670960e-01
C     6.103315152800000e+00   7.321242043382467e+00   3.424165500000000e+00  1.16741888e+00  -1.37260802e+00   1.18470030e-01
C     7.401294673300001e+00   7.982187327736222e+00   3.428832000000000e+00 -1.78301017e+00  -2.98023520e-01   1.80121490e-01
C     8.658227506799999e+00   5.538433962446986e+00  -2.884397999999990e-01  2.38009390e-01  -2.83182160e-01   1.53735000e-03
C     9.919806963899999e+00   6.248729603968852e+00  -2.464487999999996e-01 -1.04229084e+00  -1.84430321e+00   5.22005220e-01
C     8.622906620399998e+00   7.258931346888021e+00   3.546043800000000e+00 -1.55335273e+00  -9.25363020e-01  -5.33669190e-01
C     9.817335237700000e+00   7.980216011776808e+00   3.598452300000000e+00  4.63744190e-01   7.43177760e-01   3.59903250e-01
C     1.114150508740000e+01   5.524213948294642e+00  -7.184070000000276e-02  4.82583770e-01   1.05024963e+00  -4.21289560e-01
C     1.240459775870000e+01   6.262310729357083e+00  -7.276229999999728e-02 -2.65116106e+00  -8.95973200e-02  -2.62456580e-01
C     1.103945384090000e+01   7.279768496431632e+00   3.701143200000000e+00 -2.88548300e-02  -3.70867910e-01   3.68334770e-01
C     1.228766890610000e+01   7.913910424619399e+00   3.736121400000000e+00  6.72403500e-02   3.45868299e+00  -8.10117560e-01
