52
Lattice="8.88768389401873 1.33226762955019e-15 0 4.44384194700937 7.69696003302603 0 0 0 30 " PBC="1 1 1" Properties=species:S:1:pos:R:3:force:R:3 Energy="-413.6333615"
C     1.278004843147090e+01   6.966549464932321e+00  -3.043662000000005e-01  1.37988517e+00  -4.18419336e+00   4.62228960e-01
C     8.901771850997587e+00   6.752867538153865e+00  -2.784251999999974e-01  3.52002887e+00   4.64210575e+00  -1.39555848e+00
C     1.036391970055122e+01   6.404385748555607e+00  -5.105970000000006e-01 -2.46345830e-01   1.32735690e-01   2.84745354e+00
C     1.070581347877471e+01   5.029313756178468e+00  -3.277989000000012e-01  2.17955575e+00   1.81744900e-01  -4.63379210e-01
C     6.579015704960130e+00   6.134211829697766e+00  -2.548776000000004e-01 -6.14226020e-01   2.73112744e+00  -5.12148400e-02
C     7.882689396135912e+00   5.817451521471147e+00  -3.382713000000024e-01  4.32329649e+00  -1.79940712e+00   8.61624890e-01
C     8.339193857589303e+00   4.458690618911183e+00  -2.819043000000008e-01 -8.05755590e-01  -7.51656100e-02  -1.14334327e+00
C     9.687625480391812e+00   4.050929460128275e+00  -2.972585999999993e-01  4.97758390e-01   1.77504178e+00   5.38945860e-01
C     1.008540492608916e+01   2.753397874606961e+00  -1.700097000000014e-01 -1.88344264e+00  -5.87085756e+00  -1.64327207e+00
C     4.274361193559648e+00   5.486885099069117e+00  -2.673407999999995e-01 -1.55868698e+00   3.71914983e+00   2.80547110e-01
C     5.626762144913211e+00   5.154458398397437e+00  -2.671583999999996e-01 -1.66033425e+00  -7.77211240e-01  -2.68559410e-01
C     5.984316688748396e+00   3.812050534086810e+00  -3.374735999999992e-01 -4.25365090e-01  -5.20196570e-01   5.92002780e-01
C     7.355853623414998e+00   3.489352021197047e+00  -3.833622000000005e-01 -1.24457117e+00  -2.66118768e+00   7.91259680e-01
C     7.635301245876523e+00   2.057837374254314e+00  -3.546584999999993e-01  1.40762614e+00   2.97158000e-01   2.94367390e-01
C     8.951892385600539e+00   1.595866064162516e+00  -2.980953000000000e-01  3.89541689e+00   2.20178396e+00   1.23481912e+00
C     3.261274148055172e+00   4.547011849802628e+00  -2.290470000000013e-01 -2.35077118e+00   1.14179456e+00  -2.09020022e+00
C     3.617798920394065e+00   3.200945851298543e+00  -4.720686000000001e-01 -2.18097002e+00  -2.43454180e-01   2.97926232e+00
C     4.933454275924668e+00   2.805729505850931e+00  -2.483772000000002e-01  2.10623920e+00   3.58861311e+00  -1.91805955e+00
C     5.309986646769611e+00   1.521603099857065e+00  -2.951454000000027e-01 -1.71415930e+00  -5.11060451e+00   6.35802930e-01
C     6.654324069071330e+00   1.052228391790810e+00  -2.999216999999987e-01 -5.62058390e-01   1.34807615e+00  -5.08489590e-01
C     1.150117164505941e+01   7.407501300817393e+00  -3.478752000000007e-01 -5.37515618e+00  -1.69422959e+00  -7.27984400e-01
C     2.545272911442929e+00   2.254981843621113e+00  -3.037506000000008e-01 -1.76443430e+00   2.54542479e+00   3.22985570e-01
C     2.812782952473948e+00   9.207359896654999e-01  -1.527920999999992e-01  3.12156740e-01  -3.17412302e+00  -9.93508830e-01
C     4.176025811651376e+00   5.885126426778120e-01  -2.285372999999993e-01  1.77902866e+00  -4.30338046e+00  -1.43771660e-01
C     4.637150403902594e-01   1.758771530471063e-01  -2.100791999999991e-01  1.55931910e-01   3.80330873e+00  -6.37678890e-01
C     6.251960581562885e+00   7.502515192394124e+00  -2.140532999999998e-01  8.78709190e-01   2.32018730e+00   7.38508470e-01
C     5.188076157457394e-01   7.976730672562445e-01   3.747417300000000e+00  2.32074867e+00  -4.24015987e+00  -5.94122880e-01
C     2.954960164338385e+00   1.037779581452894e-01   3.652509300000000e+00 -2.35864815e+00   9.47381000e-01   3.83682850e-01
C     4.287601217394450e+00   4.152792414618101e-01   3.651099600000000e+00  1.16923295e+00   4.40353884e+00  -1.98551060e-01
C     9.744932690461811e+00   7.201649953295058e+00   3.580611000000000e+00  2.14608508e+00  -1.02965715e+00   1.06737229e+00
C     1.113973731538817e+01   7.596706971670049e+00   3.645167700000000e+00 -2.62698800e-01   5.45198250e-01  -2.81036390e-01
C     1.220298582541530e+01   6.666772345072697e+00   3.661867500000000e+00 -2.92588150e-01  -1.50754559e+00  -6.24989800e-02
C     4.709597829259081e+00   6.974515818563370e+00   3.716198400000000e+00 -2.04101807e+00   4.68154884e+00  -5.06329100e-02
C     5.744385486929869e+00   6.061413058098823e+00   3.720443100000000e+00 -1.09576367e+00  -1.68010980e+00   8.64564540e-01
C     7.062136336638726e+00   6.449886019894550e+00   3.685267500000000e+00  1.51016508e+00  -8.90098450e-01  -4.10580110e-01
C     8.095610661203050e+00   5.447437871036966e+00   3.659153700000000e+00 -3.00615517e+00  -1.21209167e+00   4.00635330e-01
C     9.410999964427550e+00   5.839074129465824e+00   3.689837400000000e+00  1.74769537e+00  -3.68039800e-01  -1.08773685e+00
C     1.046109012512698e+01   4.888687063707155e+00   3.645033300000000e+00 -1.57023960e-01  -1.43576304e+00  -3.04486730e-01
C     1.182151212278806e+01   5.285357057026033e+00   3.630090300000000e+00  3.71176500e-02   1.18345569e+00   5.80027800e-01
C     3.995801360204212e+00   4.397362088057745e+00   3.735601500000000e+00  8.04013330e-01  -4.37512974e+00   6.27054700e-02
C     5.384042341627477e+00   4.679281798830168e+00   3.877938600000000e+00 -5.83738260e-01   5.00215840e-01  -2.64379021e+00
C     6.319408767703544e+00   3.628853956899176e+00   3.630374400000000e+00  6.85851240e-01   3.04677110e-01   3.00991627e+00
C     7.697398561281471e+00   4.016447464041876e+00   3.681258300000000e+00 -2.92773070e-01   3.38555744e+00  -5.01825040e-01
C     8.739339560232963e+00   3.141827502517721e+00   3.716097600000000e+00  2.08278700e-01  -4.05725788e+00  -6.68738420e-01
C     1.010923796192402e+01   3.475555759130474e+00   3.621884700000000e+00  7.44225020e-01   2.23919194e+00   1.42441853e+00
C     2.282627099136711e+00   2.560611039161147e+00   3.774942600000000e+00  1.32412782e+00  -2.02388707e+00  -1.84191310e+00
C     3.714185318764585e+00   2.961575012541561e+00   3.663480900000000e+00 -2.18215921e+00  -1.79356477e+00   1.14335632e+00
C     4.696344645009837e+00   1.821041553475369e+00   3.709264200000000e+00 -3.75612324e+00   1.88301435e+00   3.28221520e-01
C     5.985334016458117e+00   2.231484487071929e+00   3.864165000000000e+00  1.93300106e+00   9.43877800e-01  -2.67306782e+00
C     7.012335440871341e+00   1.269041287970269e+00   3.688781700000000e+00  8.23025860e-01   6.65424870e-01   8.62494910e-01
C     8.372508405655227e+00   1.704823845499194e+00   3.700454100000000e+00  3.32575800e-02   1.59762984e+00   3.26320840e-01
C     1.918856063002376e+00   1.128587931038832e+00   3.724305900000000e+00  4.93805560e-01   1.31675388e+00   2.72237390e-01
