52
Lattice="8.88768389401873 1.33226762955019e-15 0 4.44384194700937 7.69696003302603 0 0 0 30 " PBC="1 1 1" Properties=species:S:1:pos:R:3:force:R:3 Energy="-414.12952954"
C     1.215714639563560e+01   6.236208480383312e+00  -3.358512000000005e-01 -9.72568480e-01  -4.39134006e+00  -1.83805440e-01
C     8.271253336670565e+00   5.978630790553766e+00  -1.207770000000004e-01  4.28625395e+00   3.35402136e+00  -1.31277802e+00
C     9.773555386522922e+00   5.616391300658687e+00  -2.187741000000010e-01 -2.44628550e+00  -2.18477795e+00   1.29086626e+00
C     1.013561216432818e+01   4.184574778943577e+00  -1.966146000000002e-01 -1.26689862e+00   2.33432020e+00  -1.04998500e-02
C     5.976085450203203e+00   5.370979425852559e+00  -5.270781000000007e-01 -6.68902090e-01   1.81141839e+00   3.87798250e-01
C     7.271054810399949e+00   5.042389351877431e+00  -2.836821000000000e-01  2.21501656e+00  -1.79198730e+00  -4.27138700e-02
C     7.628528609598773e+00   3.656537766978277e+00  -2.832833999999984e-01  3.12472785e+00   2.34081302e+00  -5.56590800e-02
C     9.001950044287238e+00   3.284957785177992e+00  -2.689889999999977e-01  2.55847399e+00  -1.10659782e+00   5.66760470e-01
C     9.394440740311479e+00   1.896447131497273e+00  -3.220515000000006e-01 -5.34105760e-01  -1.31675759e+00  -1.78862161e+00
C     3.664764731506129e+00   4.731507904752127e+00  -3.337977000000016e-01 -1.05377876e+00   4.06665998e+00   1.23245270e-01
C     5.020182118315363e+00   4.371103754976200e+00  -5.057153999999997e-01 -2.39631030e+00   1.17291097e+00   3.10205190e-01
C     5.335642191585132e+00   3.047589618451215e+00  -4.382489999999990e-01 -1.05002960e-01  -1.23799008e+00   4.36449640e-01
C     6.708554628625083e+00   2.688120957197335e+00  -3.828849000000005e-01 -2.66714736e+00  -1.41015186e+00   1.19823550e-01
C     7.034631218044346e+00   1.347999397894020e+00  -3.281676000000004e-01 -4.71356810e-01  -4.24433430e+00  -2.02953010e-01
C     8.362183938233944e+00   8.525762528462376e-01  -3.961752000000018e-01  1.73251164e+00   1.73942486e+00   5.01716300e-02
C     2.656785571243408e+00   3.783804615016718e+00  -1.667516999999989e-01 -3.02582172e+00   2.12417299e+00  -1.03405721e+00
C     2.940285666566895e+00   2.470913129998737e+00  -3.225090000000002e-01 -6.59388550e-01  -3.11602593e+00  -7.31658610e-01
C     4.279540311394504e+00   2.102740361494931e+00  -3.309761999999985e-01  1.80633211e+00   1.45177140e-01  -1.81485000e-01
C     4.679429559915641e+00   7.799064822973968e-01  -2.338166999999984e-01 -3.81373119e+00  -3.82981192e+00  -3.61768090e-01
C     5.966409603226203e+00   3.223366018291529e-01  -2.782161000000016e-01  2.97721992e+00   8.25022200e-02   3.70578330e-01
C     1.076348281649224e+01   6.590497241476203e+00  -2.153762999999991e-01  7.77802900e-01   2.00939457e+00  -6.02209280e-01
C     1.895904997169597e+00   1.470554090032494e+00  -5.583413999999998e-01 -1.69889075e+00   3.28635615e+00   2.69608061e+00
C     2.159254135676463e+00   1.427874600605345e-01  -4.349205000000005e-01  2.86914993e+00  -4.46252326e+00  -3.72876050e-01
C     8.028477453354041e+00   7.434707052709031e+00  -2.417991000000015e-01 -8.86934470e-01  -5.11013050e-01   3.92557700e-02
C     4.279295858923842e+00   7.143837008935324e+00  -5.277069000000019e-01 -4.33580060e-01   1.93671383e+00   8.01492310e-01
C     5.621863343446972e+00   6.720159075597579e+00  -5.504460000000009e-01  7.18811750e-01   3.21875370e+00   2.36084960e-01
C     1.170886273593788e+00   1.564037595046460e+00   3.466314000000000e+00  1.04488705e+00  -4.28304904e+00   1.63509670e+00
C     3.523987460173695e+00   9.365533194967501e-01   3.610099500000000e+00  2.59637416e+00  -1.23622536e+00   8.35102740e-01
C     4.898634151409703e+00   1.252263839344877e+00   3.854565000000000e+00  2.07142648e+00   4.27809490e-01  -5.41562630e-01
C     5.970645028943645e+00   2.602416846655291e-01   4.030484400000000e+00 -3.25994440e-01   3.22538246e+00  -7.96389760e-01
C     7.356913077989921e+00   7.443327494003430e-01   3.926692200000000e+00 -3.93339700e-01  -3.21171731e+00   2.28361730e-01
C     1.284416813839638e+01   7.464830568208842e+00   3.800371800000000e+00  1.88192980e-01  -8.48571540e-01   1.46279070e-01
C     8.979192817154681e-01   1.032403254871939e-01   3.564228600000000e+00 -2.57722661e+00   3.12469660e+00  -4.56248600e-01
C     6.351777714537762e+00   6.872103839914605e+00   3.476890500000000e+00 -8.26994180e-01  -3.29292247e+00   7.18331610e-01
C     7.676509217807487e+00   7.265418959265206e+00   3.551010900000000e+00  1.83465007e+00  -2.43512749e+00   1.27027918e+00
C     8.679564733200491e+00   6.196650570065930e+00   3.881413200000000e+00  3.71234050e-01   1.28727148e+00  -1.51546003e+00
C     1.007742063334658e+01   6.630239570955904e+00   4.062442200000000e+00 -1.28250457e+00  -3.20283162e+00  -3.13542720e-01
C     1.108156186822117e+01   5.588537079884521e+00   4.043113800000000e+00  1.48286423e+00   3.16873816e+00  -5.40553810e-01
C     3.618008005044874e+00   6.106233379988716e+00   3.877418100000000e+00 -1.74249565e+00  -3.27042165e+00   8.23058100e-02
C     4.622763156689521e+00   5.072774717957463e+00   3.715393800000000e+00  4.70524370e-01  -3.27921730e-01  -2.38300980e-01
C     6.009131325415703e+00   5.435078708377595e+00   3.611281200000000e+00 -7.74437100e-02   5.74894950e-01  -5.27532300e-01
C     7.009293944160814e+00   4.396914894680003e+00   3.603128700000000e+00 -6.30456420e-01   1.05325695e+00  -3.94732650e-01
C     8.378253139882457e+00   4.770139716838700e+00   3.709413600000000e+00 -1.51724916e+00   3.31763358e+00   8.19662270e-01
C     9.376309199857610e+00   3.833037296213410e+00   3.779713500000000e+00 -1.09971710e-01   2.44463220e-01   2.56213410e-01
C     1.068789884048575e+01   4.255910897228020e+00   3.905172300000000e+00  3.22754352e+00  -8.39328700e-01  -1.18298278e+00
C     2.832516589615247e+00   3.278153903420272e+00   3.635795100000000e+00  3.03729358e+00   4.59374030e-01   1.46596461e+00
C     4.299921371353779e+00   3.667387786684567e+00   3.654871200000000e+00 -1.66429745e+00  -7.65256710e-01   3.96012310e-01
C     5.367995315946768e+00   2.603597868202294e+00   3.714611400000000e+00 -4.70283788e+00   1.41793837e+00  -4.96728860e-01
C     6.661521227887172e+00   3.020430510137359e+00   3.589997400000000e+00  2.68855589e+00  -2.24957930e-01   2.00590914e+00
C     7.735086916847733e+00   2.039035856049833e+00   3.834112800000000e+00 -1.82669388e+00   3.29453940e+00  -1.64074719e+00
C     9.072211006618510e+00   2.479468762889683e+00   3.704242500000000e+00 -1.15168939e+00  -4.25673080e-01  -3.96720330e-01
C     2.524775068093260e+00   1.884781618875805e+00   3.600172500000000e+00 -2.50369520e-01   2.73969181e+00  -1.38462635e+00
