64
Lattice="9.86 0 0 4.93 8.53901048131456 0 0 0 30 " PBC="1 1 1" Properties=species:S:1:pos:R:3:force:R:3 Energy="-514.6417177"
C     4.975037176900000e+00   7.994465741685623e+00   1.884477000000000e-01  2.21203010e-01   2.77254312e+00  -6.26559870e-01
C     1.289308439300000e+00   2.255230372763368e-01   1.542672000000000e-01 -6.67269070e-01  -1.20322210e+00   5.03748160e-01
C     9.833750214999998e+00   5.309184415607072e-01   3.349944900000000e+00 -3.92662830e-01  -7.38254960e-01   3.59891010e-01
C     1.197637652900000e+00   1.241966028345442e+00   3.355049100000000e+00  3.08674660e-01  -1.53176274e+00  -2.87543670e-01
C     7.456542767599998e+00   8.076929100643603e+00   2.230860000000000e-01 -1.44042741e+00  -2.17090997e+00  -6.89535810e-01
C     3.712190463300000e+00   2.140969873530488e-01   6.132750000000000e-02  1.61449480e+00   1.02901220e-01   9.56745990e-01
C     2.416776810600000e+00   5.140234969853984e-01   3.421749600000000e+00  1.16731085e+00  -8.29854860e-01   5.78241020e-01
C     3.684573687900000e+00   1.166645124703458e+00   3.393422700000000e+00 -9.91068620e-01   2.04794316e+00  -1.80240170e-01
C     9.882625495500001e+00   8.000254166109807e+00   1.357992000000000e-01 -2.58179000e-02   1.20431842e+00  -4.57082100e-01
C     6.161915794999999e+00   1.871769883039056e-01   1.682526000000000e-01  1.62324498e+00  -4.58421850e-01  -6.83668600e-01
C     4.908663798100000e+00   4.556527853165288e-01   3.396724800000000e+00 -5.78052330e-01   2.13660667e+00   2.20084130e-01
C     6.126792848099999e+00   1.214180088243522e+00   3.376734300000000e+00 -3.71256730e-01   2.69226740e-01   9.75597400e-02
C     1.235809849170000e+01   8.012333962675442e+00   9.272880000000000e-02  2.40830400e-02   1.17820248e+00  -4.99644000e-02
C     8.687033546100000e+00   1.988736394693048e-01   9.307530000000000e-02 -9.30481790e-01   5.73570300e-01   7.95789710e-01
C     7.333870317099999e+00   4.878158221904968e-01   3.314956200000000e+00  1.57136007e+00  -4.58244800e-02  -7.43527300e-02
C     8.597727582099999e+00   1.210524708637244e+00   3.288545100000000e+00 -1.18263773e+00  -3.57695090e-01   2.78626690e-01
C     1.277950212300000e+00   1.626461275359721e+00   6.411929999999999e-02 -3.49510960e-01   1.07709632e+00  -9.40690030e-01
C     2.485634564300000e+00   2.377220128112429e+00  -8.015550000000005e-02  6.28486180e-01  -1.15142844e+00   2.22495340e-01
C     1.106086034460000e+01   2.608327165902057e+00   3.154927200000000e+00  3.65207400e-02   1.79536666e+00  -1.46374360e-01
C     2.437315782200000e+00   3.321623842657120e+00   3.053385900000000e+00 -4.17015900e-02   8.85830900e-01   6.02765910e-01
C     3.694820150600000e+00   1.633652915376081e+00   9.992999999999998e-04  1.90094367e+00   5.62028220e-01  -1.91283460e-01
C     4.979855512400000e+00   2.320918418682864e+00   3.838200000000000e-02 -1.27477986e+00   1.00560437e+00  -3.47103500e-02
C     3.657144992000000e+00   2.630885865348541e+00   3.292730400000000e+00  4.23344220e-01  -2.43261470e-01   1.22540200e-02
C     4.868248791999999e+00   3.406748896571821e+00   3.439121400000000e+00  3.83342390e-01  -2.87924652e+00  -9.80674030e-01
C     6.195227952900000e+00   1.605837174127587e+00   1.483578000000000e-01 -2.05414500e-02   1.01171667e+00   1.78004980e-01
C     7.416420159799999e+00   2.382779109325014e+00   2.104806000000000e-01  1.06311569e+00  -1.41492655e+00  -5.22040760e-01
C     6.118711049800000e+00   2.683390874548384e+00   3.437801400000000e+00 -1.58373949e+00  -2.48590418e+00   1.71772120e-01
C     7.323239906000000e+00   3.332184890818784e+00   3.412286400000000e+00  2.34720363e+00   2.47183970e-01  -7.10653850e-01
C     8.694382549200000e+00   1.677047825075022e+00   1.474830000000000e-01 -2.05945568e+00  -2.30566909e+00  -2.61214240e-01
C     9.900939706000001e+00   2.333394254554563e+00   2.139870000000000e-02  2.51640390e-01   1.84364805e+00   3.76658830e-01
C     8.586482449300000e+00   2.616355628945458e+00   3.280920300000000e+00 -4.92042310e-01   5.49537590e-01   3.30476860e-01
C     9.824137848900000e+00   3.315097049996732e+00   3.175491600000000e+00 -5.08075460e-01   7.69844350e-01   5.98704000e-02
C     2.534860367800000e+00   3.784018945258552e+00  -2.149433999999992e-01 -9.28565220e-01   5.52681780e-01   4.67017100e-02
C     3.760544001900000e+00   4.519295291159449e+00  -1.164848999999997e-01 -4.99013870e-01  -1.37654394e+00  -9.25435700e-02
C     1.230251846050000e+01   4.783722657913399e+00   2.954242800000000e+00 -1.21039560e+00  -3.24036990e-01   1.28167271e+00
C     3.646372794099999e+00   5.483849618805158e+00   3.178984800000000e+00  1.40647524e+00   2.80801440e-01   3.85467050e-01
C     4.991971874799999e+00   3.788495777673006e+00   2.136660000000000e-02 -2.49976339e+00  -2.03136539e+00  -1.49005770e-01
C     6.154435210199999e+00   4.464293048344730e+00   1.727418000000000e-01  3.35026816e+00   2.19871276e+00   2.60130170e-01
C     4.893521204499999e+00   4.775245469869274e+00   3.357221100000000e+00  5.51830800e-02   1.88393452e+00   5.30496430e-01
C     6.167092640100000e+00   5.466238080470367e+00   3.537625800000000e+00 -2.17870839e+00   1.52757723e+00  -7.42465810e-01
C     7.418722469799999e+00   3.794177293685979e+00   2.275911000000000e-01  5.32834800e-02  -3.15226290e-01  -3.74380050e-01
C     8.676806359699999e+00   4.516283923723572e+00   1.412403000000000e-01 -1.31770605e+00  -1.76908156e+00  -3.96417800e-02
C     7.353524501599999e+00   4.742282583883644e+00   3.405342600000000e+00  5.68974420e-01   6.30069660e-01   1.42322025e+00
C     8.601463043099999e+00   5.435151471257507e+00   3.441695100000000e+00 -6.97314720e-01   1.25331432e+00  -6.29278240e-01
C     9.862566459400000e+00   3.790718994441579e+00  -2.960159999999945e-02  2.44668965e+00  -9.56396900e-01  -6.66196450e-01
C     1.113796751660000e+01   4.487826561227609e+00  -2.610869999999998e-01 -1.10690665e+00  -8.10976250e-01   1.20378769e+00
C     9.786808579099999e+00   4.750725018155116e+00   3.192127200000000e+00  2.37036388e+00   2.75495420e-01  -1.94937200e-02
C     1.103942080990000e+01   5.533336770921160e+00   3.058909200000000e+00 -1.76467440e-01  -2.96766667e+00   3.40223990e-01
C     3.712264265400000e+00   5.927840506728941e+00  -3.982740000000007e-02  1.56513702e+00  -7.74533740e-01   2.33808870e-01
C     4.955927264400000e+00   6.608483665848063e+00   1.679865000000000e-01  5.94898300e-01  -6.34556550e-01  -4.50016890e-01
C     1.353652787860000e+01   6.909024728064659e+00   3.322436100000000e+00 -1.89015420e-01  -3.47365650e-01  -7.16472680e-01
C     4.893187147700000e+00   7.653142536196758e+00   3.436727100000000e+00  8.44929260e-01  -1.00587499e+00   3.17389510e-01
C     6.204788553999999e+00   5.907661458723024e+00   2.151207000000000e-01 -1.06564880e-01  -1.45711640e-01   1.07231800e-01
C     7.466705469599999e+00   6.619105853324765e+00   2.635293000000000e-01 -1.41015927e+00   4.60395540e-01  -1.56206620e-01
C     6.144955017399999e+00   6.937814855799027e+00   3.588600900000000e+00 -8.87104950e-01  -1.55772790e+00  -5.45173110e-01
C     7.367710724500000e+00   7.619173840166689e+00   3.584786100000000e+00  3.13297190e-01   4.18764200e-01  -5.58481120e-01
C     8.683797494100000e+00   5.902524816968779e+00   1.819650000000000e-01 -2.03048400e-01   7.80763450e-01  -3.16812690e-01
C     9.918176021299999e+00   6.580369059232768e+00   6.515760000000000e-02 -1.42328143e+00   1.11914349e+00  -7.46430000e-02
C     8.611716555699999e+00   6.882261334467719e+00   3.506658900000000e+00 -1.66415260e+00  -3.16776850e-01  -3.66860500e-02
C     9.786139380900000e+00   7.612322138157537e+00   3.377383800000000e+00  2.36376752e+00  -1.13669898e+00   9.56912000e-03
C     1.109719138800000e+01   5.890235216915650e+00  -1.609578000000020e-01  2.35372570e+00   2.27645780e-01   4.37596740e-01
C     1.236079396920000e+01   6.607180612848816e+00  -5.506499999999903e-02 -1.38429247e+00   3.72601640e-01  -2.52189510e-01
C     1.104431511670000e+01   6.913911859932678e+00   3.228541200000000e+00 -9.19133400e-02  -1.49297260e-01  -2.11227050e-01
C     1.230329035060000e+01   7.572968485948465e+00   3.238144500000000e+00 -1.01183035e+00   2.39243139e+00   5.53571320e-01
