76
Lattice="10.7446858958278 0 0 5.37234294791388 9.3051709414712 0 0 0 30 " PBC="1 1 1" Properties=species:S:1:pos:R:3:force:R:3 Energy="-610.27396385"
C     4.845756638726900e-02   3.204458937291560e-02   6.537180000000001e-02 -2.23080480e-01  -8.80725860e-01  -3.86303020e-01
C     1.252407615528579e+01   8.492059048784169e+00   2.121930000000000e-02 -1.97191414e+00  -1.56793404e+00   2.62412740e-01
C     1.392065436526237e+01   8.346154992013771e+00   6.959070000000001e-02  5.47495610e-01  -8.31641960e-01  -8.51079600e-02
C     1.452731093543714e+01   7.058245078653671e+00   1.307340000000000e-02 -2.22697763e+00  -1.56746870e+00  -3.11517350e-01
C     8.235085179247330e+00   8.960332657272147e+00  -1.335981000000004e-01  6.95114690e-01   3.78822986e+00   6.83361040e-01
C     9.620347032310599e+00   8.816278933743169e+00  -6.846119999999800e-02  2.49432405e+00   7.39180480e-01  -4.83400150e-01
C     1.025225468881896e+01   7.532617761434272e+00  -1.155536999999995e-01 -1.25119361e+00  -8.32942200e-01  -2.12678100e-02
C     1.163626376522972e+01   7.304145759155136e+00  -1.233990000000063e-02  2.04233403e+00   1.66362245e+00   6.64801500e-02
C     1.224479710969065e+01   6.002878645117502e+00  -5.303460000000015e-02 -5.81600500e-01   9.89901990e-01  -1.63660038e+00
C     1.367034578647196e+01   5.869271743951153e+00  -1.711376999999992e-01 -9.46030300e-02   1.30138879e+00   7.71577880e-01
C     5.990566120822693e+00   8.055533473871247e+00   2.344140000000000e-02  9.12982310e-01  -1.26414091e+00  -3.60304460e-01
C     7.410619105659874e+00   7.889843459924291e+00  -1.494263999999994e-01 -1.96429169e+00  -1.91701634e+00   6.55025820e-01
C     7.985409408733004e+00   6.581108201793632e+00  -1.986423000000030e-01  5.38877740e-01   2.75232800e-01  -3.97484170e-01
C     9.383722079630990e+00   6.396460670038905e+00  -2.558702999999980e-01  1.01379783e+00   3.63108800e-02   7.63997640e-01
C     9.958742265258950e+00   5.073858939225167e+00  -2.890526999999992e-01  5.05420090e-01   1.38576814e+00  -4.75728560e-01
C     1.138679397034410e+01   4.923163370782636e+00  -3.424068000000027e-01  5.31308710e-01  -2.22853975e+00  -7.12132700e-02
C     1.197133206735943e+01   3.571723705553616e+00  -5.724170999999991e-01 -2.27447196e+00   7.26576080e-01   8.48503660e-01
C     5.162183501777829e+00   6.880973383696243e+00  -3.021900000000244e-03 -2.85921200e-02   2.21355552e+00  -2.09637340e-01
C     5.711420900290436e+00   5.638249938731038e+00  -1.612752000000022e-01  2.39378083e+00  -3.45559581e+00   8.12757700e-02
C     7.171973990860778e+00   5.462818062171868e+00  -1.956813000000004e-01 -2.71145168e+00  -1.45984651e+00   5.86560810e-01
C     7.679012548799436e+00   4.118543471618358e+00  -1.058441999999999e-01  2.19566995e+00   1.39458522e+00  -6.13521850e-01
C     9.113792415024875e+00   3.977478475943599e+00  -2.762409000000012e-01 -7.36757460e-01  -2.95123282e+00   8.03719900e-01
C     9.687829623063275e+00   2.593692175492951e+00  -2.233757999999995e-01 -1.60679543e+00   2.72887569e+00   9.52853000e-02
C     1.104949254642037e+01   2.426839387385332e+00  -4.307447999999994e-01  2.42433336e+00   1.73922700e-02   1.10558726e+00
C     3.465763657288413e+00   4.597392779086484e+00  -3.613892999999990e-01  1.68086213e+00  -1.96633709e+00  -3.02474610e-01
C     4.940549158801893e+00   4.416372216860750e+00  -2.442365999999971e-01 -2.58472217e+00   1.64669812e+00  -4.08796910e-01
C     5.468120650325165e+00   3.116280345912838e+00  -1.947168000000019e-01  1.82403550e-01  -6.62737700e-01   1.09928105e+00
C     6.885844617046661e+00   2.978858324661089e+00   3.964050000000000e-02 -1.69103725e+00  -8.59694420e-01  -1.15375449e+00
C     7.435230023607542e+00   1.669593881459073e+00   9.907380000000000e-02 -1.65898489e+00  -1.17904326e+00  -2.20590820e-01
C     8.817267127815075e+00   1.522328664283573e+00   7.777530000000001e-02  1.37203385e+00  -2.27375921e+00  -9.05437940e-01
C     9.383848490860604e+00   1.557143123890198e-01   5.284200000000000e-02 -1.75508230e-01   2.53672938e+00   7.20029880e-01
C     2.628663337338584e+00   3.394562276871828e+00  -5.851955999999987e-01 -3.10331100e-02   2.26753873e+00   1.32401234e+00
C     3.147830335550875e+00   2.112670389765463e+00  -3.779105999999999e-01  2.27223598e+00   3.68557800e-02   1.07102229e+00
C     4.600164439812298e+00   1.949747175345806e+00  -1.428404999999984e-01 -1.06768246e+00   2.07261363e+00  -1.24942004e+00
C     5.134911877260744e+00   6.816435044349137e-01  -4.843350000000157e-02  4.78507900e-02  -2.51116934e+00   2.88258690e-01
C     6.549362582869666e+00   4.487480099943204e-01   1.443780000000000e-02  9.31444510e-01   2.95095901e+00   5.49744080e-01
C     8.941807116655660e-01   1.131675534967245e+00  -1.074194999999989e-01 -8.66509600e-02   2.39978768e+00  -1.02025887e+00
C     2.299491826277659e+00   1.035814408357040e+00  -1.100190000000012e-01  1.71074610e-01  -2.78506248e+00  -1.09254127e+00
C     1.603480589327826e+01   9.269220412073309e+00   3.733949700000000e+00 -1.67681000e-01   1.48307318e+00   6.01708700e-02
C     1.180426176438488e+01   8.781553617674149e+00   3.578916300000000e+00  7.10453590e-01   1.45154405e+00   2.00775840e-01
C     1.322746616559652e+01   9.002418270502996e+00   3.567242100000000e+00  9.57525200e-02  -3.18700821e+00   2.21513000e-02
C     1.409041900567320e+01   7.769215411185054e+00   3.561466200000000e+00 -2.76591296e+00   3.55721828e+00   9.43310000e-02
C     7.525854250234490e+00   8.330480152410212e+00   3.558903000000000e+00  1.75693243e+00  -1.23926769e+00   3.53316720e-01
C     8.975185644574299e+00   8.480766944693350e+00   3.493776000000000e+00 -1.11900270e+00  -1.91434000e-01  -2.32521620e-01
C     9.824221967473290e+00   7.348286047181248e+00   3.482584500000000e+00  2.25273100e-01  -9.62903570e-01   5.16775660e-01
C     1.125230719597845e+01   7.486458158262470e+00   3.643149300000000e+00 -1.14290225e+00  -1.94099640e-01  -1.07401995e+00
C     1.207226904351319e+01   6.334414999883206e+00   3.585367200000000e+00  4.88558030e-01   2.77984750e-01   5.10234500e-02
C     1.347617067022892e+01   6.527881600448028e+00   3.492681900000000e+00  1.19444082e+00  -2.37684146e+00  -1.00102140e-01
C     4.696634957484294e+00   7.991969478973269e+00   3.649409100000000e+00  3.10823032e+00  -2.03008154e+00  -6.81278300e-01
C     5.587747685261404e+00   6.819346818439683e+00   3.497127600000000e+00 -8.74062600e-01   6.33847450e-01  -8.18745100e-02
C     6.994421118598758e+00   6.978272252268387e+00   3.511109100000000e+00 -6.75206420e-01   2.20468906e+00  -8.24979230e-01
C     7.852309128635888e+00   5.893886991793864e+00   3.308668800000000e+00  6.30150050e-01  -1.84957652e+00   1.45545766e+00
C     9.251973158679517e+00   6.028578596736688e+00   3.421731300000000e+00  1.64388567e+00   4.08490900e-01   1.30545380e-01
C     1.014588998085938e+01   4.875146269387791e+00   3.547138800000000e+00 -2.38213869e+00   7.60574820e-01  -3.31923900e-02
C     1.152278586031062e+01   5.021663723026554e+00   3.596808300000000e+00  1.10722094e+00   6.39168840e-01  -6.93006270e-01
C     1.237755737420246e+01   3.885412184146145e+00   3.526324500000000e+00 -6.85559540e-01  -6.57014700e-02   1.08053523e+00
C     3.609469855667130e+00   5.363568085357024e+00   3.372746700000000e+00 -1.51212428e+00  -2.58253700e-01   7.77236790e-01
C     5.019620108191436e+00   5.512113507950450e+00   3.296652600000000e+00 -4.44267070e-01   1.62893732e+00   9.10320420e-01
C     5.871189974302218e+00   4.413777469944130e+00   3.321020400000000e+00  1.64252153e+00  -2.48502314e+00   7.66893290e-01
C     7.329463418588583e+00   4.566082553804153e+00   3.421129800000000e+00 -1.82189073e+00   1.33726390e-01  -1.20058023e+00
C     8.170939082083752e+00   3.418191641853446e+00   3.508234200000000e+00 -1.12665544e+00   4.15783240e-01   7.45380940e-01
C     9.559524320219323e+00   3.594049229983121e+00   3.634190700000000e+00  8.42294610e-01  -1.11372422e+00  -4.83892190e-01
C     1.040068403622560e+01   2.426327975190470e+00   3.726979800000000e+00 -8.84786300e-02   1.00829076e+00  -4.39379200e-01
C     1.182412127478070e+01   2.584163308243554e+00   3.657766500000000e+00 -1.76955193e+00   1.06645847e+00   4.07416300e-01
C     3.016301412043205e+00   4.039158825088192e+00   3.535869900000000e+00  1.88304903e+00   1.87570020e+00  -1.12625588e+00
C     3.903259599570220e+00   2.937921341731072e+00   3.538311000000000e+00 -6.37673400e-02  -1.19214332e+00  -1.29962300e-02
C     5.317873302064245e+00   3.068155490638508e+00   3.457002600000000e+00  5.54064630e-01   1.53123329e+00  -5.58153110e-01
C     6.201221006511713e+00   1.939058604642157e+00   3.483072300000000e+00 -2.14481184e+00  -8.24522400e-02   7.30680390e-01
C     7.577418588826314e+00   2.124787490311821e+00   3.601795800000000e+00  1.36742860e+00  -6.67586720e-01  -1.27019783e+00
C     8.441277044754067e+00   9.572204222016463e-01   3.554210400000000e+00 -1.36339281e+00   1.55485940e+00   1.15862183e+00
C     9.819401793931691e+00   1.145294024844772e+00   3.713649000000000e+00  1.29913731e+00  -1.40328389e+00  -2.23789870e-01
C     1.877155883672739e+00   1.474317890404967e+00   3.733767600000000e+00  3.02270218e+00  -1.36927906e+00  -7.18491600e-01
C     3.336867611613679e+00   1.637365794115220e+00   3.602951400000000e+00 -1.09808451e+00  -1.00682442e+00  -3.01775360e-01
C     4.166433865257287e+00   4.642161817513012e-01   3.454303200000000e+00  2.05143500e-01   1.50145257e+00   1.38771851e+00
C     5.584978349917538e+00   6.343852397302263e-01   3.546279900000000e+00  5.42401050e-01  -2.86557380e-01  -8.19198190e-01
C     1.341560206995918e+00   1.539272543099928e-01   3.737532900000000e+00 -1.08568362e+00  -2.18802720e-01  -3.70014950e-01
