64
Lattice="9.86 0 0 4.93 8.53901048131456 0 0 0 30 " PBC="1 1 1" Properties=species:S:1:pos:R:3:force:R:3 Energy="-514.90231019"
C     4.963458874700000e+00   6.992980022933705e+00   6.982410000000000e-02  1.00232665e+00   9.59000100e-01   5.11030800e-02
C     6.201119549400000e+00   7.689538958296395e+00   2.851530000000000e-02  6.50980590e-01   1.38415624e+00   9.46049390e-01
C     9.827278702599999e+00   1.548592416380610e+00   3.532575900000000e+00  2.61415930e-01   5.11190930e-01  -7.96126220e-01
C     1.105988543710000e+01   2.323068114571204e+00   3.445686000000000e+00 -7.46866370e-01  -2.17016790e+00  -3.41537910e-01
C     7.448843093599999e+00   6.988112872350209e+00   2.273184000000000e-01 -1.45285439e+00  -9.36293340e-01  -6.98143480e-01
C     8.658567430300000e+00   7.643450759301958e+00   1.866246000000000e-01  1.59473645e+00   2.26810708e+00  -5.74298610e-01
C     2.413405035700000e+00   1.557990536705002e+00   3.357035400000000e+00  3.07444350e-01   2.03750989e+00  -1.96904000e-03
C     3.659007792500000e+00   2.306698831481044e+00   3.253112700000000e+00 -6.46783120e-01  -2.75629250e+00   6.58466920e-01
C     9.914373265799998e+00   7.013030900392317e+00   6.112200000000000e-02  6.48642370e-01  -2.38325655e+00   3.97239110e-01
C     1.117273264410000e+01   7.706203605759058e+00   4.815120000000001e-02 -9.06500200e-01  -1.49314338e+00  -2.55684490e-01
C     4.876695065200000e+00   1.547475513809826e+00   3.353532000000000e+00 -9.14958190e-01  -7.17722920e-01  -9.94118270e-01
C     6.068203347700000e+00   2.268874430658836e+00   3.339918000000000e+00  1.85170218e+00  -4.76920430e-01   8.07982690e-01
C     1.238847508110000e+01   6.958726465514023e+00  -3.709799999999319e-03 -5.18314490e-01   1.14529818e+00   3.73796500e-02
C     1.358601216200000e+01   7.713842177583943e+00   1.774920000000000e-02  1.29178047e+00  -1.75013877e+00  -2.00901800e-01
C     7.350306937100000e+00   1.591687692201807e+00   3.413506500000000e+00 -2.02574882e+00  -1.03367486e+00  -9.95291540e-01
C     8.573708424900000e+00   2.257534283180977e+00   3.474926700000000e+00  6.53359720e-01  -6.72881750e-01   3.65328150e-01
C     1.314535545100000e+00   6.184286972727864e-01  -5.834910000000093e-02 -6.91321070e-01  -2.05333706e+00  -1.93328930e-01
C     2.557580470000000e+00   1.278478410207398e+00  -7.552230000000293e-02 -6.22624660e-01   6.80003000e-03   4.66802330e-01
C     1.102346866100000e+01   3.719055861328808e+00   3.292020300000000e+00 -1.44014680e-01   4.30262460e-01  -3.65588250e-01
C     1.226686514420000e+01   4.430365168784755e+00   3.118048200000000e+00  1.72658200e-02  -1.57868113e+00   7.17266380e-01
C     3.750699038400000e+00   5.291214921952960e-01   1.140840000000000e-01  2.83691400e-01   1.00656661e+00  -4.79688720e-01
C     4.974995764900000e+00   1.259805899820468e+00   1.415424000000000e-01  8.29342860e-01  -5.29741310e-01  -3.17706200e-02
C     3.653034801700000e+00   3.691935195533385e+00   3.171579600000000e+00 -1.03282279e+00   1.30042843e+00   3.36173090e-01
C     4.862710134200000e+00   4.405937792284829e+00   3.308278200000000e+00 -3.31189470e-01   1.13739855e+00  -4.14988380e-01
C     6.250544820700000e+00   5.606317217180680e-01   1.010397000000000e-01 -1.61080741e+00   5.33902900e-01   1.11707540e-01
C     7.444822136299999e+00   1.260466648451410e+00   6.677250000000000e-02  1.21325001e+00   1.98904548e+00   1.73408650e-01
C     6.054111583600000e+00   3.660654323832106e+00   3.400100100000000e+00  1.57949068e+00   2.23543857e+00   6.45161750e-01
C     7.324456038400000e+00   4.390976592022821e+00   3.551916600000000e+00 -1.25851432e+00  -5.67923000e-01  -9.25031990e-01
C     8.702736039800000e+00   5.565076358265424e-01  -2.407800000000293e-03 -6.28114850e-01   2.39723486e+00  -1.74467510e-01
C     9.939425800299999e+00   1.328246922718716e+00  -8.643569999999912e-02 -4.90879220e-01  -2.50969090e+00   5.08483700e-02
C     8.538228693899999e+00   3.656608626056786e+00   3.475031100000000e+00  2.55205340e-01   1.43908005e+00   4.79316300e-02
C     9.733211344599999e+00   4.388847987490366e+00   3.312539400000000e+00  2.21727815e+00  -8.54281500e-02   7.22613390e-01
C     2.527665180700000e+00   2.698566318583335e+00  -1.534152000000013e-01  1.13923715e+00   4.49113080e-01   4.25770770e-01
C     3.760619430899999e+00   3.399005465698242e+00  -4.959299999999445e-03  3.55777160e-01   1.12819355e+00   2.11510050e-01
C     1.226802078550000e+01   5.828586891464137e+00   3.113669400000000e+00  2.18986360e-01  -1.33204070e-01  -3.30921010e-01
C     1.347465346990000e+01   6.579338229887624e+00   3.120078300000000e+00  6.89075440e-01   5.31220870e-01   9.90483590e-01
C     4.968856435899999e+00   2.671813257189076e+00   1.841370000000000e-01  6.17054820e-01   1.24476384e+00  -2.77265090e-01
C     6.212501489700000e+00   3.440434524404477e+00   3.069105000000000e-01 -1.24264314e+00  -5.18335170e-01  -8.75196070e-01
C     4.839900404600000e+00   5.867019526002835e+00   3.284964000000000e+00  8.93590700e-01  -8.18018900e-01   1.41860350e-01
C     6.100771322100000e+00   6.556078136120313e+00   3.430795200000000e+00  8.92699500e-02  -1.90247657e+00   1.22783580e-01
C     7.413163204600000e+00   2.732701269147450e+00   1.624965000000000e-01  1.84701861e+00  -1.30827185e+00  -2.32089620e-01
C     8.676418812399998e+00   3.423669116618150e+00   4.309620000000000e-02 -1.58238000e-02  -3.76793320e-01   1.98227300e-01
C     7.339983960800000e+00   5.819323858285538e+00   3.528532200000000e+00 -5.13762740e-01  -6.22297410e-01  -1.71972450e-01
C     8.580955820700000e+00   6.512989606117395e+00   3.470710500000000e+00 -9.23698680e-01   8.47257710e-01  -2.04163120e-01
C     9.922423857199998e+00   2.701001729762336e+00  -1.326990000000023e-01 -1.86862220e-01   2.43758748e+00   4.59026860e-01
C     1.118568306390000e+01   3.438826970291513e+00  -1.642323000000019e-01 -1.70316957e+00  -1.66407222e+00  -1.92546400e-02
C     9.799219361099999e+00   5.807450961943831e+00   3.320642400000000e+00 -6.28435250e-01  -4.25872110e-01  -6.37313000e-03
C     1.103444200290000e+01   6.465758289789998e+00   3.178884300000000e+00 -9.92881700e-02   3.34681031e+00   5.33343700e-02
C     3.796569976900000e+00   4.860115719711252e+00   1.102350000000000e-02 -2.81889150e-01  -8.87135190e-01   4.35789150e-01
C     5.030969752400000e+00   5.601482771007324e+00   2.054451000000000e-01 -2.40449640e+00  -1.25973557e+00  -9.23572940e-01
C     1.347525783860000e+01   8.029460399824863e+00   3.251568300000000e+00  1.17026799e+00  -1.91525550e+00  -2.25607380e-01
C     9.840437464199999e+00   1.075899950261136e-01   3.440607000000000e+00 -1.88016771e+00   1.63600458e+00  -1.71991820e-01
C     6.210907571400000e+00   4.874624950148553e+00   3.008250000000000e-01  2.01907187e+00  -4.93245800e-01   1.95499200e-02
C     7.484850285300000e+00   5.573005256446628e+00   2.878029000000000e-01 -1.39595291e+00  -7.90531650e-01  -2.91878040e-01
C     6.128882921600000e+00   7.936491923223864e+00   3.454163400000000e+00 -6.96708690e-01   1.59115138e+00  -1.81118490e-01
C     2.393093583600000e+00   1.607152779472240e-01   3.413402700000000e+00  9.55116150e-01  -1.52849865e+00   5.13765400e-01
C     8.699219815899999e+00   4.842776917371193e+00   1.481052000000000e-01  9.07481400e-02   1.23820060e-01  -3.25762810e-01
C     9.930267684399999e+00   5.546097212012157e+00   6.699600000000000e-03  4.96997800e-02   1.15002557e+00   3.24562720e-01
C     8.535369934800000e+00   7.937126371702528e+00   3.427422900000000e+00  1.79394614e+00   7.28074410e-01  -4.96647100e-01
C     4.878913614500000e+00   9.062170035078160e-02   3.303305100000000e+00 -7.02996060e-01   9.06412840e-01   3.85871370e-01
C     1.115777438320000e+01   4.828501314260624e+00  -8.790090000000106e-02  7.80022730e-01   1.34761880e+00  -1.84551690e-01
C     1.241182213140000e+01   5.550901088527995e+00  -5.725679999999755e-02 -2.67902960e-01  -4.47686240e-01  -1.54055500e-02
C     1.106134811880000e+01   7.955575245404988e+00   3.174861900000000e+00 -2.05712525e+00  -1.42457094e+00   5.22525350e-01
C     7.305537557799999e+00   1.814613162490128e-01   3.194188200000000e+00  1.68569685e+00  -3.02971900e-02   1.10464967e+00
