52
Lattice="8.88768389401873 1.33226762955019e-15 0 4.44384194700937 7.69696003302603 0 0 0 30 " PBC="1 1 1" Properties=species:S:1:pos:R:3:force:R:3 Energy="-417.01836488"
C     1.273229241736707e+01   6.949049810547313e+00  -1.212425999999986e-01  6.22250270e-01  -3.24026380e-01  -5.38706590e-01
C     8.903475308998933e+00   6.858419876494869e+00  -3.516365999999991e-01  1.73953293e+00  -1.50329353e+00   7.19221670e-01
C     1.028150047501620e+01   6.410823947742301e+00  -3.879381000000031e-01  2.08977061e+00   9.84297740e-01   4.80283870e-01
C     1.067613296955107e+01   5.035237490556757e+00  -3.684353999999992e-01  6.15728410e-01  -8.01377650e-01   3.85178950e-01
C     6.513346341827447e+00   6.183730452959572e+00  -2.336987999999991e-01  2.60900872e+00  -2.09439360e-01   7.62895450e-01
C     7.939529823033590e+00   5.867195511722631e+00  -2.693061000000014e-01 -2.47063422e+00  -3.12031843e+00  -1.10229066e+00
C     8.231373587012490e+00   4.394700325340171e+00  -3.812220000000011e-01  4.07584939e+00   4.28043293e+00   5.20055630e-01
C     9.672264985184198e+00   4.024194069464071e+00  -3.847296000000000e-01 -2.03559581e+00   6.01431700e-01   2.97187900e-02
C     9.965651206767543e+00   2.652273058584012e+00  -2.779518000000003e-01  1.22294980e+00   7.78746100e-02   5.25540980e-01
C     4.221520091150604e+00   5.519333327406789e+00  -8.714609999999823e-02 -1.38285354e+00   2.73029812e+00  -9.27697030e-01
C     5.552463907205683e+00   5.142831139667318e+00  -1.900739999999992e-01  6.12743860e-01   2.97199170e+00   6.70688470e-01
C     5.936037812232406e+00   3.842404265661119e+00  -1.650606000000003e-01 -1.32238839e+00  -1.82506788e+00  -8.71384960e-01
C     7.256703244067534e+00   3.476274270349275e+00  -2.797839000000018e-01  8.81031600e-01  -3.46538074e+00   3.49195200e-02
C     7.653854241548215e+00   2.042037901370334e+00  -2.684150999999986e-01 -3.51517423e+00   2.30249373e+00   4.63423710e-01
C     8.958009645154137e+00   1.668787448334737e+00  -1.848585000000007e-01  1.77684605e+00  -1.70067494e+00  -5.58437140e-01
C     3.215723168361196e+00   4.586072228623671e+00  -2.130866999999981e-01 -3.09649571e+00  -8.87536500e-02   2.53299550e-01
C     3.531634158229741e+00   3.195776265063994e+00  -1.288689000000005e-01 -1.30107872e+00   1.52682871e+00  -1.06795127e+00
C     4.907856368778557e+00   2.879762484990685e+00  -2.166198000000001e-01 -1.23099873e+00  -2.18588659e+00   1.51515651e+00
C     5.169853023943783e+00   1.481676813032647e+00  -1.619898000000006e-01  1.91709384e+00   4.53320700e-02  -7.14876200e-01
C     6.585566191364045e+00   1.125750061875771e+00  -2.216886000000002e-01 -4.01273920e-01  -2.94390621e+00  -2.54132270e-01
C     1.139933451886381e+01   7.381811927021265e+00  -2.799528000000002e-01 -2.62015445e+00   3.12520820e-01   4.87696570e-01
C     2.437317548109424e+00   2.250156080591104e+00  -1.606988999999999e-01  1.06090711e+00   7.21358910e-01   1.55362980e-01
C     2.783226204234518e+00   9.051809722320719e-01  -1.015034999999997e-01 -1.58976378e+00  -2.34925214e+00  -2.19183370e-01
C     4.108893668978049e+00   5.031682880475702e-01  -1.702020000000033e-01  2.13564828e+00   1.27741443e+00  -2.41025060e-01
C     4.269038091115612e-01   2.513089777027126e-01  -1.350873000000021e-01 -1.58927590e+00   6.52236030e-01   4.33914600e-01
C     6.193147088897134e+00   7.538216848766876e+00  -1.115241000000005e-01  1.14567178e+00   1.94316625e+00  -4.02011460e-01
C     6.200840179289252e-01   7.682571332919917e-01   3.699798300000000e+00 -4.74051970e-01  -2.52000302e+00   6.52598600e-01
C     2.965091901778376e+00   9.991046663901530e-02   3.722876100000000e+00  1.68838990e+00   4.46242390e-01   1.82789960e-01
C     4.352574408308580e+00   4.589729593121126e-01   3.639229200000000e+00 -1.18585400e-02   1.34814326e+00  -1.16283230e-01
C     9.815271331647232e+00   7.161159171422040e+00   3.514411200000000e+00  3.90115890e-01   1.78294706e+00  -1.68006070e-01
C     1.121332298302916e+01   7.591923926768206e+00   3.464842500000000e+00 -1.49347078e+00  -1.52473620e-01   3.38564390e-01
C     1.226329129360560e+01   6.677145153257126e+00   3.493806000000000e+00  2.29069400e-02  -1.93453604e+00   8.30152290e-01
C     4.737792984356834e+00   7.036668847775220e+00   3.673114800000000e+00  2.00735420e-01   1.49831634e+00  -2.20924660e-01
C     5.774559040436920e+00   6.085672567630176e+00   3.749691900000000e+00 -3.70567800e-01  -2.54254649e+00  -7.07248970e-01
C     7.148479519019614e+00   6.397283686566325e+00   3.674687700000000e+00 -2.25682726e+00   2.38404010e+00   3.24420540e-01
C     8.123236026838885e+00   5.436115411924035e+00   3.533954400000000e+00 -4.89718710e-01  -1.80303444e+00   2.83137900e-02
C     9.445470624182704e+00   5.808113492593151e+00   3.476410200000000e+00  2.11571907e+00   1.01914936e+00  -3.05611450e-01
C     1.051147867118986e+01   4.892068646126735e+00   3.455058000000000e+00  3.60827880e-01  -1.59442337e+00   1.41362659e+00
C     1.188579571829171e+01   5.302181611046810e+00   3.583864800000000e+00  1.20521582e+00  -1.35611219e+00  -6.57528640e-01
C     4.071634767477192e+00   4.296819085243466e+00   3.699320100000000e+00 -1.58598794e+00  -4.12647690e-01  -2.81905320e-01
C     5.453401960007422e+00   4.659462665540120e+00   3.704010600000000e+00 -2.04973070e+00   1.21219675e+00   3.28431950e-01
C     6.405306232783213e+00   3.646855991865341e+00   3.674758500000000e+00  1.42614088e+00  -9.39626430e-01  -9.79186820e-01
C     7.782492446426552e+00   4.041109909430802e+00   3.527675100000000e+00 -1.86903325e+00   1.11114756e+00   7.98181460e-01
C     8.766979235016935e+00   3.095212018640030e+00   3.600066900000000e+00  2.15301924e+00  -1.74054264e+00   3.99948730e-01
C     1.014730226782785e+01   3.513224604547694e+00   3.659269500000000e+00  1.39765768e+00  -8.04899100e-01  -1.47151973e+00
C     2.335178151974165e+00   2.516093900526835e+00   3.656552400000000e+00 -1.38719766e+00  -5.56047400e-02   1.60475425e+00
C     3.700226855657586e+00   2.883991964527170e+00   3.717056400000000e+00  4.64905170e-01   1.02227726e+00  -6.07871070e-01
C     4.717824888293450e+00   1.875916029404450e+00   3.656301900000000e+00 -1.22387179e+00  -1.19876755e+00   9.18822100e-02
C     6.062018419525876e+00   2.226858998941900e+00   3.599755800000000e+00  7.87473580e-01   1.78686309e+00   4.97059680e-01
C     7.086765971730072e+00   1.244493527285791e+00   3.568701300000000e+00  7.52150620e-01   1.55535885e+00  -2.80670600e-02
C     8.464132338750154e+00   1.676140816068998e+00   3.673875300000000e+00 -1.20047797e+00   1.56355150e+00  -7.93577750e-01
C     1.960189970031309e+00   1.128787667151611e+00   3.833632200000000e+00  1.47802868e+00   2.64281900e-01  -1.68018401e+00
