64
Lattice="9.86 0 0 4.93 8.53901048131456 0 0 0 30 " PBC="1 1 1" Properties=species:S:1:pos:R:3:force:R:3 Energy="-514.61220215"
C     5.018588698299999e+00   6.707364980255940e+00  -3.555203999999996e-01  2.21043504e+00  -3.01460150e-01  -2.60999890e-01
C     6.258938983799999e+00   7.445212592992574e+00  -2.960436000000009e-01  1.24280180e-01  -1.12217202e+00   3.58986650e-01
C     9.734109097599998e+00   1.809714332177752e+00   3.616235100000000e+00 -4.23161680e-01   1.75411106e+00   4.53093200e-02
C     1.096985643930000e+01   2.536369180757412e+00   3.592139700000000e+00  4.56925980e-01  -1.36606300e-02  -1.09258790e-01
C     7.490576430999999e+00   6.709537048351738e+00  -2.714813999999990e-01  1.63490597e+00   8.40769750e-01  -6.41713250e-01
C     8.792250296299999e+00   7.396283123651021e+00  -3.555633000000000e-01 -1.01708816e+00   3.24023060e-01   9.65503580e-01
C     2.356197463600000e+00   1.806932151783158e+00   3.535460400000000e+00 -1.53065664e+00  -8.49730450e-01  -3.45567300e-02
C     3.534716132800000e+00   2.528040486105534e+00   3.612969900000000e+00  1.06702230e+00   2.22633831e+00   6.53008730e-01
C     1.006031497120000e+01   6.694292011381374e+00  -3.831369000000002e-01 -2.52246890e+00  -2.30537370e-01  -7.71194200e-02
C     1.127484546630000e+01   7.435386668243133e+00  -4.503303000000010e-01 -1.51773793e+00  -7.28407790e-01  -2.13650220e-01
C     4.751564023699999e+00   1.827531404494796e+00   3.811562100000000e+00  8.80084550e-01   1.10956580e-01  -8.00304850e-01
C     6.013153340800000e+00   2.509999264763390e+00   3.841627200000000e+00 -1.29970150e-01   7.75991700e-01   2.43147360e-01
C     1.246766951650000e+01   6.711739002984215e+00  -5.784734999999976e-01  1.14288748e+00   2.18801020e-01   1.13438623e+00
C     1.371569270610000e+01   7.435460445293680e+00  -4.451327999999997e-01 -2.18783564e+00   4.22529770e-01  -2.05145150e-01
C     7.254124707699999e+00   1.827852642069054e+00   3.835126500000000e+00  4.42678180e-01   5.65503310e-01  -5.03031320e-01
C     8.480294439800000e+00   2.537208309317281e+00   3.767607900000000e+00  4.26760070e-01   8.25290150e-01  -3.88521850e-01
C     1.326450270500000e+00   3.185243036775800e-01  -2.567691000000032e-01  4.13312780e-01  -1.43069500e-02  -5.95206450e-01
C     2.572373921000000e+00   9.877881212607408e-01  -2.834535000000002e-01  8.96853770e-01   1.24915704e+00   6.40109890e-01
C     1.099642411070000e+01   3.984039032274902e+00   3.689197200000000e+00 -1.41446912e+00  -2.41812257e+00  -1.70680130e-01
C     1.219370231730000e+01   4.696731317868189e+00   3.696540900000000e+00 -1.06566670e-01   8.19941010e-01   2.11635270e-01
C     3.792271559200000e+00   2.790205356642704e-01  -2.513258999999977e-01  2.53281582e+00   5.62935420e-01  -8.15207390e-01
C     5.103161221399999e+00   1.042867129779675e+00  -2.731349999999999e-01 -2.66100421e+00  -2.08013231e+00  -4.82314720e-01
C     3.531915744900000e+00   4.029951583823766e+00   3.662177700000000e+00  2.28928121e+00  -3.55569576e+00  -1.31088300e-01
C     4.815517117599999e+00   4.665490579516166e+00   3.729360300000000e+00 -9.78787500e-01   8.32330650e-01   1.15411600e-02
C     6.292581303800000e+00   3.099655680833712e-01  -3.966384000000005e-01  1.01475323e+00   2.65377150e-01   1.97968760e-01
C     7.531418473700000e+00   1.023898828069718e+00  -4.167437999999990e-01 -6.43090000e-01   4.62170320e-01   6.68589230e-01
C     6.046977232700000e+00   3.936171047326118e+00   3.832107600000000e+00 -1.49937415e+00   6.30496810e-01   7.39506000e-03
C     7.219466856999999e+00   4.717864600295246e+00   3.902853900000000e+00  1.59736416e+00  -1.07268696e+00  -1.21553453e+00
C     8.755563454799999e+00   3.425417222843616e-01  -3.460710000000020e-01  4.40067410e-01  -1.20945808e+00  -9.74339210e-01
C     9.976884876999998e+00   1.054407431663186e+00  -3.205089000000001e-01 -2.20128200e-02  -3.87764600e-02   1.23762443e+00
C     8.459481261599999e+00   3.984426617960589e+00   3.780564000000000e+00  1.22910989e+00  -1.02833363e+00   7.24270330e-01
C     9.752625536699998e+00   4.629732192279595e+00   3.776305199999999e+00 -1.38069605e+00   1.14021747e+00  -1.04238180e-01
C     2.665006106700000e+00   2.441179536750354e+00  -2.852246999999970e-01 -3.18729339e+00  -1.01124715e+00   1.76758900e-02
C     3.851970358900000e+00   3.128782330971097e+00  -3.819015000000014e-01  8.62786310e-01   8.44222440e-01   2.22808440e-01
C     1.219098978200000e+01   6.101552158626725e+00   3.813039600000000e+00 -1.76134999e+00   9.25213740e-01  -2.25919420e-01
C     1.336279315030000e+01   6.835827049378527e+00   3.798958799999999e+00  3.43913430e+00  -1.19174009e+00  -1.09103430e+00
C     5.085746883800000e+00   2.435617993834625e+00  -3.277163999999999e-01  1.67023460e-01   5.95746720e-01   6.21356050e-01
C     6.298645105200000e+00   3.164334586494681e+00  -2.237171999999994e-01  6.31385200e-02  -4.01471770e-01  -1.16226116e+00
C     4.797948964000000e+00   6.102883731920976e+00   3.696216900000000e+00 -8.95322540e-01   1.95630320e-01   1.19637343e+00
C     6.014039853400000e+00   6.834694349638355e+00   3.770951999999999e+00  6.72167300e-02   2.99192100e-01  -1.13848233e+00
C     7.518765283599999e+00   2.443946944656818e+00  -3.217448999999988e-01  1.86156950e-01  -4.63870200e-02   5.60826610e-01
C     8.744209615499999e+00   3.153558952999655e+00  -2.459342999999983e-01  4.25978880e-01  -1.94030730e-01   2.03426200e-02
C     7.244679813699999e+00   6.139900427741881e+00   3.783679200000000e+00  1.91309480e-01  -1.27848522e+00   7.50082140e-01
C     8.529709555299998e+00   6.765059487684899e+00   3.791025900000000e+00 -1.43324605e+00   5.12103940e-01  -5.21570440e-01
C     9.982487230400000e+00   2.467231459994101e+00  -1.682036999999994e-01  1.51729653e+00   9.19851100e-02  -1.07857431e+00
C     1.127749780630000e+01   3.181268383567674e+00  -2.172618000000028e-01 -1.25446298e+00  -1.38064762e+00  -1.72182390e-01
C     9.728957937800001e+00   6.050512955965878e+00   3.815302200000001e+00  6.33125590e-01   4.51107240e-01   1.00226930e-01
C     1.093385797370000e+01   6.815831760878140e+00   3.833172000000000e+00  1.06750689e+00  -6.56083000e-01   1.90639560e-01
C     3.841253574200000e+00   4.552106865879373e+00  -4.540404000000002e-01 -1.44954118e+00   4.25776140e-01   1.16211670e-01
C     5.044117322900000e+00   5.266750571537655e+00  -3.971477999999991e-01  4.92303740e-01   8.26218280e-01   5.02215350e-01
C     1.344528250190000e+01   8.234304856982204e+00   3.690121200000000e+00 -1.93872040e-01   9.61575590e-01   1.35815700e-01
C     9.757794937500000e+00   4.061702442661864e-01   3.563785200000000e+00 -1.15614414e+00  -1.95894000e-03   5.83269480e-01
C     6.284836421700000e+00   4.576043505447013e+00  -2.581941000000008e-01  2.07983650e-01   5.34793720e-01  -2.83008100e-01
C     7.517254978100000e+00   5.307991088892492e+00  -2.790222000000000e-01 -4.05555270e-01  -1.25593587e+00   1.57328980e-01
C     6.041577206500000e+00   8.264166288971394e+00   3.605726700000000e+00  3.34272900e-02  -2.04914191e+00   4.18330000e-03
C     2.354569676200000e+00   3.406486236609456e-01   3.533887500000000e+00  8.17291020e-01   2.04632010e+00   5.69818170e-01
C     8.753933695399999e+00   4.558882570695253e+00  -2.951553000000011e-01 -1.60590959e+00   8.92753860e-01   3.82787760e-01
C     9.952512830400000e+00   5.243200236804130e+00  -3.437517000000021e-01  2.49827083e+00   2.15693099e+00   3.77506000e-03
C     8.528751853499999e+00   8.171557133931392e+00   3.672891900000000e+00 -8.32117110e-01   1.18427112e+00   3.92507100e-01
C     4.771798173400001e+00   4.103681072082592e-01   3.817193100000000e+00  1.36231967e+00  -9.84496890e-01  -1.55764760e-01
C     1.121251892730000e+01   4.584496613481585e+00  -3.321927000000002e-01  5.82011350e-01  -5.60028630e-01  -2.36212790e-01
C     1.243867224250000e+01   5.287688737575244e+00  -4.915598999999986e-01  1.06875565e+00  -1.20498770e-01   5.61484200e-02
C     1.096836511430000e+01   8.227616079293011e+00   3.881018700000000e+00  1.33542890e-01   1.42770985e+00  -8.25798810e-01
C     7.319747346100000e+00   4.464701042265464e-01   3.754288800000000e+00 -2.45030970e+00  -2.68493627e+00   9.20867630e-01
