64
Lattice="9.86 0 0 4.93 8.53901048131456 0 0 0 30 " PBC="1 1 1" Properties=species:S:1:pos:R:3:force:R:3 Energy="-502.40812331"
C     9.762216851700000e+00   1.106769327047384e-01  -2.879426999999986e-01  6.57002568e+00  -7.08929807e+00  -7.67434310e-01
C     1.208725617300000e+00   6.985857548902232e-01  -4.252673999999992e-01 -4.46501610e-01   5.52906280e-01   2.97394769e+00
C     4.925706315099999e+00   8.474956202955642e+00   3.552909600000000e+00  1.13730105e+00   3.89241572e+00  -1.54460640e-01
C     1.255870911500000e+00   7.431935456377432e-01   3.591605700000000e+00 -2.48254887e+00  -1.46083268e+00   1.15976980e-01
C     7.340808503299999e+00   8.425297758289412e+00  -2.807649000000012e-01  1.98712974e+00   5.22485851e+00  -5.45061180e-01
C     3.761169224500000e+00   7.207601988651064e-01  -1.322556000000006e-01 -3.45144001e+00  -3.79705477e+00  -1.03905051e+00
C     2.515515245000000e+00   5.240937228246720e-02   3.534257700000000e+00 -7.79892531e+00  -3.66847313e+00  -7.46930230e-01
C     3.610167367099999e+00   7.266751714246024e-01   3.514472100000000e+00  7.33642529e+00  -1.89065790e-01  -1.91599780e-01
C     4.981379079599999e+00   9.150847658912960e-02  -1.420974000000008e-01 -1.37736560e-01  -4.91878256e+00   4.81633350e-01
C     6.202967264100000e+00   7.272547994559848e-01  -2.462316000000015e-01 -1.22618762e+00   3.65682177e+00   1.02629444e+00
C     9.786056655499999e+00   8.495596015967060e+00   3.458720400000000e+00  3.61229990e+00   1.27228700e+00  -8.29999970e-01
C     6.184364500699999e+00   6.555172061718280e-01   3.493734300000000e+00 -2.71672112e+00   1.71765664e+00  -3.41701610e-01
C     7.412976702699999e+00   7.234138671519759e-02  -6.008849999999910e-02 -2.44813298e+00  -2.59744395e+00  -4.19511380e-01
C     8.599928974999999e+00   7.088951584130415e-01  -2.204757000000015e-01 -9.73214640e-01   1.40752718e+00  -1.81922060e-01
C     7.429829858399999e+00   8.953938077244160e-02   3.580821300000000e+00 -9.73675950e-01  -2.32355505e+00  -1.38578296e+00
C     8.634576472699999e+00   7.694581756325465e-01   3.587704800000000e+00  1.41213993e+00  -1.85296402e+00   3.11966680e-01
C     1.107043637660000e+01   2.110454353338531e+00  -4.377630000000110e-02  6.91142700e-01  -1.38622207e+00  -3.40716201e+00
C     2.520524075700000e+00   2.715843298487519e+00  -9.597510000000042e-02 -3.72939324e+00   4.89424437e+00   3.57705371e+00
C     1.102813362420000e+01   2.149919610414576e+00   3.690857400000000e+00  4.00086194e+00   1.12470570e-01   2.91691660e-01
C     2.561369717300000e+00   2.785956259637751e+00   3.734466000000000e+00 -7.49724009e+00   5.59598403e+00   2.87462040e-01
C     3.714662217400000e+00   2.053810314978822e+00  -4.793129999999834e-02  1.62628105e+00   3.40554145e+00  -1.97868450e-01
C     4.996132006000000e+00   2.852419733098936e+00  -2.564699999999931e-02 -4.02349851e+00  -9.82896590e-01  -4.76609840e-01
C     3.669115278500000e+00   2.126806302237417e+00   3.560000400000000e+00  3.43515532e+00  -1.49691503e+00  -4.72083410e-01
C     4.902211611300000e+00   2.790889075211838e+00   3.395580900000000e+00  2.45657517e+00   8.49405950e-01  -2.69086850e-01
C     6.149790213499999e+00   2.272850877059163e+00  -2.614736999999998e-01  4.06507832e+00  -8.13794595e+00   7.37767300e-02
C     7.447063708699999e+00   2.807110974981113e+00  -2.657348999999982e-01 -4.62995250e+00   4.54364670e-01  -7.83337230e-01
C     6.206382965300000e+00   2.043482467193367e+00   3.336480300000000e+00 -2.41709875e+00   4.35502786e+00   2.32637413e+00
C     7.351840068500000e+00   2.936351972639685e+00   3.617285100000000e+00  4.74464300e-01  -2.05795712e+00  -2.54415203e+00
C     8.593391351299999e+00   2.075554307435409e+00  -3.011163000000003e-01  8.99860520e-01   2.14640555e+00   1.73706440e-01
C     9.758610704599999e+00   2.810479358445158e+00  -1.926845999999998e-01  5.69444627e+00  -1.39695852e+00   1.87184511e+00
C     8.599816275199998e+00   2.146986460314696e+00   3.633561000000000e+00  8.37894610e-01   4.17416937e+00   4.32744500e-01
C     9.849472182200000e+00   2.904513845114482e+00   3.684869400000000e+00 -8.78246160e-01  -7.25028100e-02  -8.57042580e-01
C     1.231401093140000e+01   4.310429301626448e+00   3.605040000000000e-01  2.16725720e-01  -4.81876373e+00  -2.19126955e+00
C     3.678366078400000e+00   4.923405926097860e+00   2.845755000000000e-01  3.35738323e+00   2.96023150e+00  -2.69293248e+00
C     2.519937405699999e+00   4.338771387480930e+00   3.759962400000000e+00 -9.77585290e-01  -5.40753846e+00  -4.10621680e-01
C     3.665199576700000e+00   5.003384433006159e+00   3.573705900000000e+00  2.43131779e+00   1.22742365e+00  -9.15177560e-01
C     4.998505603800000e+00   4.194745520126761e+00  -2.001209999999887e-02 -2.71111507e+00   5.79388554e+00   8.53430740e-01
C     6.209017409399999e+00   5.006422698325048e+00  -2.708790000000008e-01 -2.47454973e+00  -4.72624363e+00   8.67625560e-01
C     4.947467236500000e+00   4.236826873843564e+00   3.370159500000000e+00 -5.40730408e+00  -1.60402293e+00   1.58539456e+00
C     6.052870012400000e+00   4.967320519974613e+00   3.469453200000000e+00  3.59463386e+00   3.70309959e+00  -2.29085718e+00
C     7.340576349599999e+00   4.170096129354355e+00  -3.477905999999997e-01  3.68864848e+00   2.50362815e+00   4.39942460e-01
C     8.608063129900000e+00   4.755693697573219e+00  -2.321483999999998e-01  2.09996205e+00   7.21332879e+00   1.02144846e+00
C     7.289138504399999e+00   4.404409992529747e+00   3.419685000000000e+00  5.58556520e+00  -3.58442079e+00   2.02073462e+00
C     8.697792383700000e+00   5.135787426245476e+00   3.499951500000000e+00 -3.50567328e+00  -2.97237783e+00  -1.27096353e+00
C     9.879452991199999e+00   4.172688743716293e+00   7.271670000000001e-02 -3.25269282e+00   1.01286969e+00  -1.55939555e+00
C     1.105085362780000e+01   4.946844485184201e+00   3.167685000000000e-01  1.68325989e+00   2.68962090e-01   9.97992500e-02
C     9.927122196499999e+00   4.340073757359340e+00   3.503641800000000e+00 -3.53603885e+00  -8.99685860e-01   1.68039202e+00
C     1.114104501980000e+01   4.990762665445357e+00   3.648063600000000e+00  1.03451809e+00  -1.69671254e+00  -1.12406780e-01
C     3.754415913300000e+00   6.431302357821941e+00  -6.557820000000092e-02 -2.50801956e+00  -1.67289035e+00   2.97166973e+00
C     4.980068488400000e+00   7.068270783868694e+00  -2.162384999999993e-01 -1.63650563e+00   3.09880444e+00  -6.18863200e-02
C     1.347490322370000e+01   6.466589818630541e+00   3.473940600000000e+00  4.01828165e+00  -1.65765155e+00  -3.02036310e-01
C     4.931475055999999e+00   7.078688035093875e+00   3.448430700000000e+00 -3.00217322e+00   2.05032542e+00  -3.07563820e-01
C     6.224693921999999e+00   6.365030499755927e+00  -2.319411000000002e-01 -2.93209267e+00   1.00238258e+00  -1.04657488e+00
C     7.371909260400000e+00   7.072730709042399e+00  -3.680051999999989e-01  4.32026456e+00  -9.23968080e-01   8.07964640e-01
C     6.106145465799999e+00   6.413641549396681e+00   3.278029500000000e+00  8.86126710e-01  -1.23526388e+00   1.87271972e+00
C     7.317810694199999e+00   7.128569347933634e+00   3.354756000000000e+00  1.73545762e+00   2.12482593e+00   2.99677620e-01
C     8.683105519300000e+00   6.377668832997061e+00  -2.199047999999983e-01 -2.44338699e+00  -2.46839884e+00   1.11500000e-05
C     9.838352813699998e+00   7.104956849203814e+00   1.875600000000000e-02  2.56494613e+00   5.67035670e-01   8.01348200e-02
C     8.591588894000001e+00   6.536581269661643e+00   3.365540400000000e+00  1.57864410e+00  -3.72826908e+00  -1.10409490e-01
C     9.896364271600000e+00   7.091719589767612e+00   3.298841400000000e+00 -7.85626700e-01   1.14049393e+00   1.96440852e+00
C     1.112615612400000e+01   6.369911398146296e+00   3.332049000000000e-01 -2.22494146e+00   2.85259395e+00  -2.23574606e+00
C     1.231629500040000e+01   7.217895424224285e+00   1.268619000000000e-01  1.77167578e+00  -4.19030611e+00  -1.97975720e-01
C     1.117067703130000e+01   6.306198169180510e+00   3.498274200000000e+00 -1.93281399e+00   8.59614478e+00  -1.79107066e+00
C     1.235540794420000e+01   7.250464576436682e+00   3.358812000000000e+00 -1.67067770e+00  -4.87565394e+00   2.61518230e+00
