64
Lattice="9.86 0 0 4.93 8.53901048131456 0 0 0 30 " PBC="1 1 1" Properties=species:S:1:pos:R:3:force:R:3 Energy="-514.41244399"
C     4.903941548300001e+00   8.422364608189532e+00  -1.554125999999982e-01  2.07788270e-01   2.31258260e+00   2.59452560e-01
C     1.197669796500000e+00   6.501034735275080e-01  -8.010810000000035e-02  4.19843130e-01  -1.69833942e+00  -1.37864826e+00
C     1.278932564100000e+00   8.085330291494456e-01   3.385024800000000e+00 -9.96099800e-01  -4.00691000e-02   4.66912550e-01
C     2.491835814100000e+00   1.516138455419588e+00   3.552585900000000e+00  7.27796600e-01  -6.51507790e-01  -3.36464900e-02
C     7.375152362300000e+00   8.511484894327616e+00  -2.647437000000004e-01 -7.68128380e-01  -2.89394894e+00   8.09594820e-01
C     3.674638505400000e+00   6.132953003425248e-01  -1.829856000000021e-01  1.55767310e+00   1.56001834e+00   5.31667880e-01
C     3.717418038100000e+00   8.231665021892312e-01   3.467043900000000e+00  1.12137954e+00  -1.06131021e+00   4.85318800e-02
C     4.938917038900000e+00   1.565796729305609e+00   3.437721300000000e+00 -2.43281000e-01  -2.63725090e-01   1.55849820e-01
C     9.896863976399999e+00   8.455486319770090e+00  -1.561781999999994e-01 -3.35928777e+00  -6.31455660e-01  -5.41173550e-01
C     6.157304223699999e+00   6.382632815959400e-01  -1.741235999999979e-01  9.94771100e-01  -2.03801213e+00   2.22695300e-01
C     6.145840149599999e+00   8.039749907453264e-01   3.355866900000000e+00  1.03317683e+00   8.56580770e-01   4.48547850e-01
C     7.410600442699999e+00   1.484676642086238e+00   3.300701100000000e+00 -4.03919180e-01   1.64982859e+00   1.48245830e-01
C     1.232671455540000e+01   8.441549800765682e+00  -1.774131000000025e-01 -2.79381030e-01  -3.86885900e-02   6.96329420e-01
C     8.616993923499999e+00   6.039046943473545e-01  -1.329449999999994e-01 -2.50013240e-01   1.24400785e+00  -2.27498390e-01
C     8.637398848400000e+00   8.035958586800144e-01   3.300404100000000e+00  1.44725617e+00  -1.34018651e+00   1.27443882e+00
C     9.912804391900000e+00   1.503806758044791e+00   3.441028800000000e+00 -1.97421758e+00   9.31880510e-01  -6.87235270e-01
C     1.193504587400000e+00   2.039048244441208e+00  -2.247899999999703e-02 -6.59515690e-01   8.69649530e-01   9.07353810e-01
C     2.410006934600000e+00   2.739612915010171e+00   1.487991000000000e-01  1.78929489e+00  -5.03574500e-02  -9.37398760e-01
C     2.530172282900000e+00   2.894638394104257e+00   3.801600000000000e+00 -1.50684607e+00   1.43470611e+00  -1.13533830e-01
C     3.728542878900000e+00   3.684232495739796e+00   3.828711300000000e+00  4.39876030e-01  -1.65393380e-01  -1.29282093e+00
C     3.670512243300000e+00   2.054786750827211e+00   3.722700000000000e-03 -1.28364110e-01  -1.24803007e+00  -1.26960840e-01
C     4.930933002500000e+00   2.717202196615306e+00  -3.439919999999930e-02 -1.19000677e+00   1.84838101e+00   1.90984280e-01
C     4.936303251500000e+00   3.008644260044623e+00   3.523011600000000e+00  1.28865144e+00  -1.47597227e+00   1.13028530e-01
C     6.215748732800000e+00   3.680802119059666e+00   3.349010100000000e+00 -2.02897427e+00  -1.22163973e+00   5.92597670e-01
C     6.143343006000000e+00   2.021272927885411e+00  -1.279571999999973e-01 -6.35922200e-01   5.74759850e-01  -4.51385080e-01
C     7.330874306799999e+00   2.740844923442226e+00  -2.070974999999997e-01  2.45186770e+00  -9.70583000e-01   6.15104610e-01
C     7.438935666999999e+00   2.951567037683264e+00   3.321028500000000e+00 -1.51971576e+00  -1.46363669e+00  -5.30514430e-01
C     8.619408686799998e+00   3.665532660519330e+00   3.373221000000000e+00  2.36534686e+00   2.16634320e-01   9.58551450e-01
C     8.602062531100000e+00   2.064066776636665e+00  -1.202307000000005e-01 -1.06417384e+00  -2.03536581e+00  -4.16868190e-01
C     9.806006787899999e+00   2.742330284315222e+00  -3.668970000000016e-02  9.40393120e-01   1.39648872e+00   1.67563310e-01
C     9.874778118700000e+00   2.946169785329170e+00   3.551082900000000e+00  6.55860800e-02  -1.20436764e+00  -1.97684560e-01
C     1.112001418210000e+01   3.572798579756006e+00   3.797673600000000e+00 -2.28103300e-02   2.65994309e+00  -1.76179830e-01
C     2.481530437900000e+00   4.150100926244073e+00   2.060889000000000e-01 -1.85953267e+00   1.22021842e+00  -2.04326300e-02
C     3.687943244300000e+00   4.885079004508904e+00   1.172781000000000e-01  9.06396000e-01  -4.67220110e-01   2.12856110e-01
C     3.740014988900000e+00   5.119977789902175e+00   3.748369800000000e+00 -1.23460682e+00  -4.25312030e-01   3.05405670e-01
C     4.947174641000000e+00   5.809613124787472e+00   3.499407300000000e+00  1.76621610e-01  -1.72259076e+00  -1.57004110e-01
C     4.955503530900000e+00   4.178800028126724e+00  -2.212680000000233e-02 -2.18144056e+00  -1.44872340e+00   1.60835370e-01
C     6.148502596100000e+00   4.841709028720564e+00  -1.925652000000007e-01  8.89274080e-01   2.57715070e+00  -1.10766300e-02
C     6.139006577999999e+00   5.061496924998114e+00   3.339567000000000e+00  2.46741866e+00   1.91171303e+00  -3.96804300e-01
C     7.411373170899999e+00   5.797100656560813e+00   3.217167000000000e+00 -8.42640130e-01  -3.15503610e-01   1.14913255e+00
C     7.383819992499999e+00   4.112554043262465e+00  -2.267298000000011e-01 -6.06995510e-01   2.53255096e+00   1.29476830e-01
C     8.616409965000001e+00   4.857508332861184e+00  -1.543644000000022e-01 -1.73925407e+00   6.11470570e-01  -1.35742560e-01
C     8.625849189500000e+00   5.095731440424425e+00   3.418844700000000e+00  7.56867300e-01  -3.10429020e-01  -6.97137820e-01
C     9.896752509100001e+00   5.778476220802886e+00   3.557166300000000e+00 -2.61049800e-01  -1.17032587e+00   3.16622340e-01
C     9.810515124999998e+00   4.188997741392464e+00   1.176330000000000e-02  2.43628280e+00  -1.04357009e+00   2.84788100e-01
C     1.108298051510000e+01   4.889905936353037e+00   1.765482000000000e-01 -7.05548410e-01   2.02776850e-01  -8.11238410e-01
C     1.109423146530000e+01   5.047463146664339e+00   3.828582000000000e+00  1.22188483e+00  -3.92466100e-02  -9.09216220e-01
C     1.235249411700000e+01   5.827177527784412e+00   3.786292800000000e+00 -1.01303084e+00  -2.15206276e+00   1.32232100e-02
C     3.649766408900000e+00   6.312391684261863e+00   9.902610000000001e-02  2.00371734e+00  -4.54597090e-01  -1.55419481e+00
C     4.867106461700000e+00   7.046639506350444e+00  -1.867574999999988e-01  9.41466270e-01  -2.48351830e+00   1.14672066e+00
C     4.963227164700000e+00   7.188668696884075e+00   3.376035900000000e+00 -5.99520470e-01   1.82568171e+00   3.53133320e-01
C     6.162507740100000e+00   7.936868408195927e+00   3.265886700000000e+00  2.03709838e+00  -8.40422310e-01   2.74404720e-01
C     6.112004918700000e+00   6.330654578316068e+00  -2.408310000000000e-01  1.68002290e-01  -1.45553680e+00  -1.04465990e-01
C     7.348289926200000e+00   7.018978150411427e+00  -3.043400999999974e-01 -3.44046100e-01   1.30125463e+00   2.62140270e-01
C     7.424900055599999e+00   7.210262061195793e+00   3.265305600000000e+00  3.73268520e-01   9.88541960e-01   1.98207510e-01
C     8.705458090000000e+00   7.912696091939038e+00   3.412828500000000e+00 -1.56895306e+00   1.16045180e-01  -8.22013610e-01
C     8.553579974400000e+00   6.280887432046427e+00  -2.055593999999985e-01  1.35798764e+00   1.07225478e+00  -7.95347300e-02
C     9.800566089200000e+00   7.020745725580787e+00  -1.423224000000012e-01  1.05001854e+00  -1.29483600e-01   3.77731170e-01
C     9.953465552899999e+00   7.182658258187413e+00   3.451200000000000e+00 -3.03010482e+00   6.80160790e-01   5.47707090e-01
C     1.110312395280000e+01   7.933506002039217e+00   3.518560200000000e+00  1.48744789e+00   6.08474200e-02  -6.54360480e-01
C     1.104522982890000e+01   6.329895972625025e+00   3.850110000000000e-02  9.22038580e-01  -1.04406473e+00  -2.11687000e-03
C     1.233616783040000e+01   7.017125014357057e+00  -3.867599999999527e-03 -3.23300235e+00   9.43427800e-01   8.09261600e-02
C     1.233279679500000e+01   7.208407388119538e+00   3.589892700000000e+00  9.76045120e-01   1.18023086e+00   2.22220140e-01
C     1.359353406020000e+01   7.891914189793233e+00   3.489678300000000e+00 -8.76672030e-01   1.28118100e+00  -1.17443806e+00
