52
Lattice="8.88768389401873 1.33226762955019e-15 0 4.44384194700937 7.69696003302603 0 0 0 30 " PBC="1 1 1" Properties=species:S:1:pos:R:3:force:R:3 Energy="-416.57937511"
C     1.324037735343958e+01   7.548324111830270e+00  -1.036104000000009e-01  6.74333310e-01   3.05132189e+00  -4.91787490e-01
C     9.490309523699114e+00   7.394186945418298e+00  -1.013732999999988e-01 -6.86271260e-01  -1.86371334e+00  -3.78141570e-01
C     1.082113442250365e+01   6.955956369751832e+00   1.393701000000000e-01  1.18791144e+00   2.76337444e+00  -4.88641320e-01
C     1.119204475556511e+01   5.635502698473976e+00   1.096767000000000e-01 -1.93366840e-01  -4.04492972e+00  -8.42691530e-01
C     7.082099674665701e+00   6.799228252654562e+00  -4.620636000000005e-01  7.75274050e-01  -2.61512077e+00   1.15942955e+00
C     8.486906098566596e+00   6.379176049308549e+00  -1.918587000000009e-01 -1.85876949e+00   1.34825789e+00  -4.21227450e-01
C     8.756559049030834e+00   4.999517823297534e+00  -3.709169999999773e-02  2.69592474e+00   6.41985980e-01  -7.84900640e-01
C     1.016225028628594e+01   4.555665311055555e+00  -8.549879999999987e-02  1.32071510e-01   2.02787416e+00   5.22100380e-01
C     1.049427224738798e+01   3.189349072530143e+00  -3.449991000000026e-01  1.58310047e+00   3.20166057e+00   9.00527540e-01
C     4.701005438158683e+00   6.193054781248714e+00  -7.623689999999783e-02  3.96887980e-01   1.13593880e-01  -2.59135590e-01
C     6.036269290701848e+00   5.785262911595287e+00  -2.542362000000011e-01  1.26117310e+00   2.15213556e+00  -1.39271800e-01
C     6.392766022408408e+00   4.455111378558033e+00  -1.117850999999987e-01 -2.77152520e-01  -1.44953327e+00   3.53952140e-01
C     7.734339375085419e+00   4.085924458600673e+00  -8.209139999999948e-02  1.09110919e+00  -3.98597806e+00   5.42380200e-02
C     8.148040750849677e+00   2.611875102048956e+00  -8.938500000000005e-02 -3.97102348e+00   2.92275750e+00   1.72446610e-01
C     9.460961499401362e+00   2.276351221630804e+00  -3.168477000000003e-01  5.70742630e-01  -2.41584574e+00  -1.18018920e-01
C     3.704461927429851e+00   5.226701834330217e+00   4.441020000000000e-02 -2.08462856e+00  -8.51258320e-01  -5.54869290e-01
C     4.023661227026435e+00   3.842557820013717e+00  -1.659287999999997e-01 -4.04932160e-01  -1.94060690e-01   6.93252550e-01
C     5.394016766257452e+00   3.435952205840114e+00  -5.142929999999879e-02 -1.24416658e+00  -5.62198300e-02  -1.15819281e+00
C     5.681930929737458e+00   2.050018109529438e+00  -1.092978000000002e-01  1.13793656e+00  -1.85689170e-01   1.00486990e-01
C     7.063035189436026e+00   1.657890246263464e+00   7.950300000000000e-03  1.30816397e+00  -5.24610280e-01  -3.73916840e-01
C     7.445249856470486e+00   2.704159112811846e-01   8.652960000000000e-02 -1.12906532e+00  -4.02797460e-01  -4.15907190e-01
C     3.000887805884213e+00   2.848852571084609e+00  -3.658844999999999e-01  1.19143030e-01  -8.60152920e-01  -5.17496900e-02
C     3.354422761327293e+00   1.448572726730819e+00  -4.877405999999986e-01 -1.47744848e+00   4.01610300e-02  -5.67416890e-01
C     4.678406676539467e+00   1.030406201622555e+00  -3.361826999999984e-01  1.37679212e+00   1.64830538e+00   1.34158219e+00
C     9.276659158379497e-01   9.142630002194704e-01  -4.155675000000016e-01 -2.97737980e-01  -3.53569448e+00   3.15522120e-01
C     2.303038019315518e+00   4.332741182551477e-01  -6.336528000000001e-01 -7.00290130e-01   3.04976886e+00   1.56093936e+00
C     1.084526293132828e-01   1.066276036571963e-01   3.468404100000000e+00 -1.13673721e+00   3.84763220e-01  -7.37698600e-01
C     6.950190848130484e+00   7.226578790470622e+00   3.785939700000000e+00 -3.38502460e-01  -6.37334730e-01  -5.81653750e-01
C     8.325947566702762e+00   7.629770571962119e+00   3.835202400000000e+00 -2.23036190e-01   1.27112677e+00  -8.68700250e-01
C     9.356292404471995e+00   6.654778172257947e+00   3.852533700000000e+00 -1.39739979e+00  -9.48878430e-01  -1.19729795e+00
C     1.065867867063981e+01   7.018299590846024e+00   3.478863300000000e+00  1.72839314e+00   1.47645810e-01   2.65355500e-01
C     1.171905134833274e+01   6.058381225543005e+00   3.328673700000000e+00 -2.05862965e+00  -1.42164776e+00   1.05009141e+00
C     4.172046043930237e+00   6.452895069448680e+00   3.249690900000000e+00  1.11512080e+00   2.75869600e-02   1.06065553e+00
C     5.194367658400200e+00   5.504333953517927e+00   3.363410100000000e+00  1.52944470e+00  -2.98650347e+00   4.27412370e-01
C     6.607068745751331e+00   5.825139245149111e+00   3.661718400000000e+00 -2.28958232e+00   1.80001425e+00  -8.04707560e-01
C     7.603655671561092e+00   4.859749418839167e+00   3.692068200000000e+00  1.28837217e+00  -7.52569290e-01   6.24575220e-01
C     8.970401611819684e+00   5.260154285043002e+00   3.840186600000000e+00  6.26929090e-01   6.63367150e-01   1.92409160e-01
C     1.003164541585375e+01   4.307392784084677e+00   3.836479200000000e+00 -1.40871516e+00  -1.18880666e+00  -1.02780165e+00
C     1.135483606133936e+01   4.657444214741854e+00   3.563134500000000e+00  2.51228269e+00   7.29827100e-01  -6.66148290e-01
C     3.507600928065816e+00   3.629028677891857e+00   3.441793800000000e+00 -1.67277472e+00   1.14542366e+00   1.96705550e-01
C     4.866742610432881e+00   4.039190133660120e+00   3.332412900000000e+00 -2.48961940e-01   2.63778784e+00   3.08566460e-01
C     5.914099719483490e+00   3.126037727803378e+00   3.393013800000000e+00  6.61258510e-01  -2.24680901e+00   1.71882650e-01
C     7.285051622793340e+00   3.473448947231062e+00   3.576054600000000e+00 -6.86853080e-01   6.39575390e-01  -3.67273060e-01
C     8.296261010514575e+00   2.494901013810633e+00   3.632316000000000e+00  6.84893500e-01  -7.33711660e-01  -3.00868370e-01
C     9.671287428116218e+00   2.920576077367362e+00   3.763724400000000e+00 -3.85756400e-02  -1.85162684e+00   2.62285870e-01
C     1.802000306868588e+00   1.859101404462113e+00   3.765063300000000e+00 -2.30997259e+00   1.28367152e+00  -9.97861880e-01
C     3.107636088040810e+00   2.254255635442282e+00   3.563530800000000e+00  3.26077936e+00   9.86197090e-01   2.88677600e-01
C     4.206437244490182e+00   1.340041664858203e+00   3.559493400000000e+00 -3.35448380e-01  -1.98998213e+00   5.41116730e-01
C     5.584391042936867e+00   1.709949097243971e+00   3.406219200000000e+00 -7.69246300e-01   5.38899390e-01   1.99979320e-01
C     6.581303302381283e+00   6.920089690556037e-01   3.369143400000000e+00  4.01499050e-01   8.84044230e-01   5.19675180e-01
C     7.970253787678063e+00   1.079492948457078e+00   3.434286600000000e+00 -3.08498700e-01   1.35252543e+00   4.41851760e-01
C     1.441701377797886e+00   4.836456416578779e-01   3.641468100000000e+00  1.47848849e+00   3.10026550e-01   8.73485680e-01
