52
Lattice="8.88768389401873 1.33226762955019e-15 0 4.44384194700937 7.69696003302603 0 0 0 30 " PBC="1 1 1" Properties=species:S:1:pos:R:3:force:R:3 Energy="-410.95763713"
C     1.221062630040528e+01   6.328515735965492e+00  -2.648294999999976e-01 -4.45280890e-01  -8.44559710e-01   6.96097770e-01
C     8.507482064243938e+00   6.112497627878732e+00  -4.883975999999990e-01 -2.66557426e+00   3.01741512e+00   6.59821980e-01
C     9.837011805386053e+00   5.785803469098195e+00  -6.384957000000000e-01 -1.63362360e-01  -3.44028855e+00   1.55279052e+00
C     1.010703475010851e+01   4.372086810711232e+00  -5.115380999999992e-01  3.10870026e+00   3.16368560e-01   9.80239730e-01
C     6.125070895216592e+00   5.568013674751728e+00  -2.282349000000004e-01 -3.98403873e+00   1.63352236e+00   1.40901359e+00
C     7.442447217421335e+00   5.179107681984711e+00  -2.844413999999986e-01  2.70110319e+00  -2.54027680e-01  -8.50177170e-01
C     7.849642853109348e+00   3.847937533257086e+00  -2.779032000000008e-01 -2.13362494e+00  -5.57569037e+00   5.26551220e-01
C     9.190824392157861e+00   3.349120952471277e+00  -4.065960000000004e-01 -1.81205595e+00   1.15696264e+00   2.63993930e-01
C     9.595847789013018e+00   1.997472579766234e+00  -2.280888000000019e-01 -4.66258843e+00  -1.31718890e+00   3.22053200e-02
C     3.594036587714235e+00   4.987517800793162e+00  -1.210929000000007e-01  3.44895924e+00  -2.24120577e+00  -8.75029950e-01
C     5.065512550312255e+00   4.607048599854229e+00  -1.966448999999990e-01 -1.56699545e+00  -3.08967210e+00   1.57981341e+00
C     5.378388396033465e+00   3.064506151144350e+00  -6.409980000000104e-02  2.23126997e+00   3.32704974e+00  -1.36515399e+00
C     6.833966914040805e+00   2.717567294153706e+00  -8.666850000000181e-02 -2.65434186e+00   1.82107407e+00  -1.26679147e+00
C     7.065439929842706e+00   1.313931113409234e+00  -2.561289000000002e-01  4.74155211e+00   2.22706236e+00   1.17320815e+00
C     8.522627207506030e+00   9.593827338545311e-01  -1.787738999999995e-01 -2.20757109e+00   2.59314998e+00  -6.64134500e-01
C     2.560117255510707e+00   3.978241216875362e+00  -1.640207999999994e-01  2.36153408e+00   2.43517130e-01  -2.23050396e+00
C     2.997931762067669e+00   2.610662292057028e+00  -3.576060000000005e-01  8.37272650e-01  -9.98762390e-01   2.00502412e+00
C     4.379956741290350e+00   2.082340184692218e+00  -2.759079000000000e-01 -3.85335630e-01   2.67691770e+00  -9.99092690e-01
C     4.728915161693863e+00   7.219473726666928e-01  -5.931999000000019e-01  8.30416100e-01   1.95450239e+00   3.29653835e+00
C     6.123059742254263e+00   3.136371897248457e-01  -3.447816000000010e-01 -2.88960630e+00   1.64036159e+00  -1.36686136e+00
C     1.087240573757777e+01   6.665129890771895e+00  -3.610895999999997e-01 -7.83392400e-02   1.50180420e+00  -1.08341049e+00
C     2.012976591267681e+00   1.603682250103381e+00  -2.184866999999997e-01  1.31013900e+00   4.02506740e-01  -6.68473750e-01
C     2.339255064407360e+00   2.340883381187927e-01  -1.485221999999986e-01 -7.23489170e-01  -7.05525600e-02  -1.03843880e-01
C     8.144672188538307e+00   7.535153458674936e+00  -3.538136999999999e-01 -7.98990210e-01  -3.31294123e+00  -1.16707418e+00
C     4.314810021765965e+00   7.299823677872904e+00  -1.949237999999980e-01  2.41015963e+00   1.02263550e+00   8.58625730e-01
C     5.683074111310125e+00   7.025819289886533e+00  -4.484400000000122e-02  3.22965959e+00  -4.32938961e+00  -1.82268640e+00
C     1.103982277715860e+00   1.401635740832675e+00   3.976045500000000e+00  1.57699080e-01  -1.83447431e+00  -2.08039967e+00
C     3.613750267766251e+00   8.195326646502454e-01   3.928908000000000e+00 -5.62821061e+00  -2.84407478e+00  -7.39570630e-01
C     4.908175391076285e+00   1.162565699273665e+00   3.724978800000000e+00 -2.29765280e-01   1.14020619e+00  -1.14555659e+00
C     5.852125808942055e+00   2.017681871960203e-01   3.380733900000000e+00  1.07949390e-01  -2.68810546e+00   1.24548846e+00
C     7.175475010658865e+00   4.757750382096011e-01   3.468204300000000e+00  4.50500774e+00   4.58496537e+00   1.36834880e-01
C     1.272408153080157e+01   7.251198594700980e+00   3.521832000000000e+00  5.91184810e-01   3.10727800e-02   5.91544940e-01
C     5.216598423517223e+00   7.664047982850921e+00   3.777314100000000e+00 -2.49433961e+00   2.08609051e+00   1.09092856e+00
C     6.162717747293331e+00   6.660521643832333e+00   3.963783300000000e+00  1.61195438e+00   4.50021030e-01  -3.54927600e-02
C     7.526472359805341e+00   7.092138298714620e+00   3.824061900000000e+00  3.18414939e+00   5.37713880e-01   2.40385800e-01
C     8.553531731903707e+00   6.108419932394038e+00   3.572486100000000e+00  1.93470462e+00   8.36615420e-01   5.91381900e-01
C     1.003598745079904e+01   6.492172040724967e+00   3.405714300000000e+00 -3.13197383e+00   4.81076240e-01  -2.80131990e-01
C     1.110714995451389e+01   5.571931966194200e+00   3.342369000000000e+00 -3.06174569e+00  -3.36455989e+00   2.43598970e-01
C     3.567260529674904e+00   5.805444109885147e+00   3.490649400000000e+00 -2.50942314e+00   7.18916257e+00  -3.77320100e-01
C     4.488165538773618e+00   4.925249625059263e+00   3.777153300000000e+00  3.98112240e+00  -3.95187347e+00   2.74017440e-01
C     5.840132016138359e+00   5.267292676683625e+00   4.063846499999999e+00  6.99592320e-01   2.07902325e+00  -3.41117924e+00
C     6.897329080002109e+00   4.404552357208972e+00   3.626745600000000e+00 -3.19082432e+00  -2.86593687e+00   3.13461700e+00
C     8.202523143246706e+00   4.740759881616988e+00   3.649321200000000e+00  5.09415918e+00   4.65673200e-01  -9.83997570e-01
C     9.344602831927531e+00   3.776542071410812e+00   3.675720900000000e+00 -2.59479639e+00  -6.26128230e-01  -7.22127500e-01
C     1.073563699026916e+01   4.156728486038243e+00   3.471255300000000e+00 -3.33208686e+00   1.03935249e+00   1.61256840e+00
C     2.791993239311733e+00   3.208144433166600e+00   3.782049300000000e+00  2.15268466e+00  -2.84010243e+00  -1.59986598e+00
C     4.172305384663577e+00   3.554880629199654e+00   3.610985700000000e+00 -8.99091700e-01  -1.02716616e+00   1.75812704e+00
C     5.148067578321300e+00   2.544267006355044e+00   3.642662400000000e+00  2.96575654e+00   2.00052304e+00   6.09757070e-01
C     6.550791529588139e+00   3.014306808737491e+00   3.692937300000000e+00 -1.08955069e+00  -1.69784288e+00  -1.73335757e+00
C     7.543832936075924e+00   2.008650413000201e+00   3.612435900000000e+00 -4.81447300e-01  -2.80856684e+00   3.85969070e-01
C     8.885112329071811e+00   2.353028260480063e+00   3.788473800000000e+00  4.09696165e+00   1.51486874e+00  -3.95006100e-02
C     2.544894606859223e+00   1.764024551752337e+00   3.918462600000000e+00 -2.49726851e+00   2.12765379e+00   7.24608720e-01
