76
Lattice="10.7446858958278 0 0 5.37234294791388 9.3051709414712 0 0 0 30 " PBC="1 1 1" Properties=species:S:1:pos:R:3:force:R:3 Energy="-609.83461067"
C     1.811861877991035e-01   7.111113989228340e-02  -3.142635000000027e-01 -8.21825670e-01  -6.31250300e-02   2.18765030e-01
C     1.261736753529369e+01   8.546794855804530e+00  -3.806925000000021e-01 -1.64388713e+00  -1.15651870e-01   1.38736082e+00
C     1.399342500690415e+01   8.388642588629232e+00  -3.903251999999995e-01  2.16920939e+00   1.45970273e+00   8.20689030e-01
C     1.452135913157655e+01   7.089791655277877e+00  -2.111564999999977e-01  1.32621568e+00   1.06753300e-02   2.01582620e-01
C     8.332574508036362e+00   9.095802360608975e+00  -2.185647000000017e-01  2.85554229e+00  -4.22755969e+00   1.03329008e+00
C     9.782649542087313e+00   8.892760459991765e+00  -1.524953999999994e-01 -5.52111100e-01   2.01223850e+00  -4.10639040e-01
C     1.035318597028920e+01   7.628039683976109e+00  -1.148658000000005e-01 -8.99112300e-01  -2.16645396e+00  -4.40390850e-01
C     1.173601710678474e+01   7.423731349593965e+00  -2.424177000000007e-01  1.25800733e+00  -3.97365590e-01   1.03707401e+00
C     1.228790350015914e+01   6.103788757479752e+00   4.497000000000000e-03 -1.83086289e+00   5.17444960e-01  -1.72452266e+00
C     1.366060400955387e+01   5.978481324378206e+00  -6.369959999999963e-02  2.43936826e+00  -1.60607930e+00   3.88385760e-01
C     6.055316284227567e+00   8.047723457797886e+00  -1.451345999999987e-01  2.86197181e+00  -2.00572220e-01   2.13596030e-01
C     7.567467183086311e+00   7.856146179140722e+00  -1.530870000000206e-02 -3.90731199e+00   3.04948021e+00  -1.56097881e+00
C     8.058134063119141e+00   6.565374460458024e+00  -3.742709999999860e-02  2.04005249e+00  -1.01094970e-01  -4.64143070e-01
C     9.527491026975364e+00   6.440409178491944e+00  -1.082177999999985e-01 -1.91558420e+00   7.22077800e-01   7.54226460e-01
C     1.004944589511470e+01   5.144406278810196e+00  -9.787169999999890e-02 -1.35527927e+00  -5.60097670e-01  -1.27989845e+00
C     1.140974649974653e+01   4.942757362282704e+00  -6.737700000000046e-02  2.28767988e+00   1.63917732e+00   3.56996290e-01
C     1.201333675145916e+01   3.693225137637282e+00  -2.200544999999998e-01 -2.58295790e-01  -7.43991220e-01  -8.39667100e-02
C     5.220679237243743e+00   6.911408085444830e+00  -8.247120000000052e-02 -8.22516010e-01  -1.59469150e-01  -1.46006200e-01
C     5.776546966531523e+00   5.584216579064937e+00   1.860060000000000e-02  1.76622890e-01   1.09036224e+00  -4.68842780e-01
C     7.189478427277614e+00   5.428287782485750e+00  -1.132253999999975e-01  7.42478900e-02   5.08175720e-01   6.07985070e-01
C     7.791402876611738e+00   4.151080397585709e+00  -2.401673999999971e-01 -1.79948762e+00  -9.42402060e-01   1.02928049e+00
C     9.171931104578334e+00   4.012015827559631e+00  -3.136301999999986e-01  1.21998240e+00   6.01933050e-01   1.41829964e+00
C     9.736466195917638e+00   2.728949348725509e+00  -2.520276000000017e-01  2.34561654e+00   3.11032900e-01  -6.51126970e-01
C     1.119473641679823e+01   2.555431452776987e+00  -3.616329000000000e-01 -1.34270082e+00  -1.27972533e+00   5.97143440e-01
C     3.556655695211418e+00   4.644293166916819e+00   9.218700000000000e-03 -4.10692056e+00   1.00074926e+00  -6.23723560e-01
C     4.897361914572004e+00   4.457170459692051e+00   3.279780000000000e-02  2.76394709e+00   1.27056942e+00  -1.98882160e-01
C     5.494825170320448e+00   3.200612737935220e+00  -3.092160000000277e-02  1.91281179e+00  -1.82564862e+00   2.79588540e-01
C     6.942554155928560e+00   2.989471709583543e+00  -5.858399999999975e-02 -2.16586710e-01   1.33935000e-02  -9.15173040e-01
C     7.531831250383512e+00   1.639746708203638e+00  -1.223427000000008e-01 -7.37195980e-01   3.55353454e+00   4.77664640e-01
C     8.942518146245092e+00   1.607216761114492e+00  -1.717884000000005e-01 -3.08894020e-01  -3.55747278e+00  -1.06672859e+00
C     9.522852653519191e+00   2.752720803667380e-01  -3.126278999999990e-01 -1.43887453e+00  -8.52509710e-01   7.71696900e-02
C     2.660847808313155e+00   3.541499021513146e+00  -1.820915999999997e-01  1.93798624e+00  -8.60464290e-01  -8.15015100e-02
C     3.267237802830748e+00   2.240093632635344e+00  -3.347778000000012e-01  4.98400330e-01  -1.03226535e+00   1.32691850e+00
C     4.688485166952574e+00   2.055971005573342e+00  -1.028576999999977e-01 -5.00405440e-01  -9.17815880e-01  -9.85626370e-01
C     5.299643438178869e+00   7.238751157978133e-01  -1.585353000000005e-01 -2.33686745e+00   5.42171180e-01   5.08756970e-01
C     6.685675094263445e+00   5.322154863778298e-01  -1.296348000000016e-01  3.21990550e-01  -3.57250390e-01  -1.34018292e+00
C     1.001855626623794e+00   1.223395023043765e+00  -3.858822000000011e-01  1.49634181e+00   5.48029540e-01   1.12520210e-01
C     2.469099110763486e+00   1.040125401001833e+00  -3.816576000000005e-01 -3.12883269e+00   3.05983149e+00   1.88127040e-01
C     1.598915381810292e+01   9.237280133666632e+00   3.481311900000000e+00  6.80105600e-01   8.15665060e-01  -1.12887909e+00
C     1.176601363736950e+01   8.692583435403561e+00   3.403362600000000e+00 -2.27897383e+00   1.90203964e+00   1.75929060e-01
C     1.313494045190586e+01   8.927014934411220e+00   3.340670100000000e+00  2.20596152e+00  -9.40515870e-01   4.45901820e-01
C     1.402871179103863e+01   7.811473821440260e+00   3.442661400000000e+00 -1.34503051e+00  -2.11287091e+00  -4.00229480e-01
C     7.445223870856850e+00   8.238245809225583e+00   3.605027700000000e+00  1.83477410e+00   2.33662720e-01  -1.41192900e+00
C     8.864004631160043e+00   8.435197568514273e+00   3.464916600000000e+00 -3.84503490e-01  -1.12413935e+00   3.44300230e-01
C     9.734570027473435e+00   7.284605179336264e+00   3.480301800000000e+00  1.37309118e+00   8.54239720e-01   7.34909500e-01
C     1.118802458758051e+01   7.420616722776928e+00   3.551037300000000e+00 -1.04042304e+00   3.51838040e-01  -7.14442250e-01
C     1.203866815431985e+01   6.304891553524775e+00   3.673484400000000e+00 -1.94261646e+00  -7.27408500e-01  -3.23345980e-01
C     1.341959984524199e+01   6.441266556942354e+00   3.569696100000000e+00  1.90507836e+00   2.51559302e+00   3.04264590e-01
C     4.707357885395346e+00   7.918094145001549e+00   3.419945100000000e+00 -1.62761146e+00   7.53022560e-01   1.15964697e+00
C     5.478244723167580e+00   6.763090918694562e+00   3.618826500000000e+00  2.16995307e+00  -9.37315390e-01  -1.18647447e+00
C     6.913153042112954e+00   6.917748628923345e+00   3.607693800000000e+00 -8.94200930e-01   3.65813420e-01   8.94258900e-02
C     7.767399516928284e+00   5.793225978857678e+00   3.576324900000000e+00  5.71518790e-01  -7.34613150e-01   3.56762950e-01
C     9.205139275502027e+00   5.996309845795828e+00   3.593170200000000e+00 -2.54285021e+00  -7.12751710e-01  -1.89226260e-01
C     9.988930534763590e+00   4.839193508220076e+00   3.704169900000000e+00  9.71068490e-01  -7.85739630e-01   1.91195300e-01
C     1.139226177982832e+01   5.027006752180301e+00   3.769746300000000e+00  2.00722410e+00  -1.46472519e+00   3.54877130e-01
C     1.226613863461266e+01   3.872795861178855e+00   3.883204500000000e+00  2.63378330e-01  -7.31832270e-01  -1.07793181e+00
C     3.529916201263530e+00   5.336754490879740e+00   3.668014200000000e+00  9.94251730e-01  -1.64819960e+00  -3.06148560e-01
C     4.974699208891582e+00   5.424438605474710e+00   3.568063200000000e+00 -1.72670843e+00   1.87154957e+00   4.81095160e-01
C     5.799585722038303e+00   4.293323614004890e+00   3.528134400000000e+00  7.87469310e-01  -4.78893690e-01   8.06003360e-01
C     7.232448682575753e+00   4.428709570803258e+00   3.580381200000000e+00 -2.06677536e+00   3.97193162e+00  -4.81568260e-01
C     8.031941151342986e+00   3.341949258498009e+00   3.560499600000000e+00  1.32636381e+00  -2.57577701e+00  -1.34248100e-02
C     9.442744304706004e+00   3.499584437324172e+00   3.702349500000000e+00  4.80347730e-01   5.08269250e-01  -5.85880290e-01
C     1.031499715393999e+01   2.356889532826361e+00   3.657424800000000e+00 -8.81876230e-01   7.90591890e-01  -3.06484540e-01
C     1.170101156480370e+01   2.524539867135247e+00   3.766760700000000e+00  2.05574627e+00   7.90975630e-01   1.16044140e-01
C     2.988218026506376e+00   4.024122785469665e+00   3.787700700000000e+00 -2.54743544e+00   9.53176940e-01   4.23707640e-01
C     3.807498929572208e+00   2.899628423123656e+00   3.752323500000000e+00  1.12797726e+00  -6.65367910e-01  -7.91363520e-01
C     5.220035147047468e+00   2.989607472027558e+00   3.605253900000000e+00 -1.26605423e+00   2.28171170e+00  -1.29474700e-02
C     5.996589323121086e+00   1.870333589734017e+00   3.495518100000000e+00  2.93316230e+00  -2.22436963e+00  -6.11101950e-01
C     7.436969534531324e+00   2.033752955868195e+00   3.417620700000000e+00  7.29595340e-01   3.36979620e-01   5.74628040e-01
C     8.337384903913794e+00   9.217305932881956e-01   3.359785200000000e+00 -1.11443714e+00   3.21266240e-01  -2.20130280e-01
C     9.750469046646524e+00   1.081391693931416e+00   3.406495500000000e+00  2.67611090e-01  -9.27692200e-01   9.59123950e-01
C     1.874513711686499e+00   1.392649847977835e+00   3.653131800000000e+00 -9.74816740e-01   1.98808723e+00  -3.84920880e-01
C     3.280152861559119e+00   1.614715147013072e+00   3.612896700000000e+00 -1.91860878e+00  -1.37792923e+00   2.76775670e-01
C     4.025290113295431e+00   4.341380541531358e-01   3.432644700000000e+00  3.31728198e+00  -4.74811830e-01   5.55324880e-01
C     5.494838654901251e+00   5.298893797462486e-01   3.431570700000000e+00 -1.11626018e+00   5.47008480e-01  -1.95393100e-01
C     1.318019244870172e+00   1.246472312233512e-01   3.477494700000000e+00 -2.32668415e+00  -1.52682715e+00   1.42708285e+00
