64
Lattice="9.86 0 0 4.93 8.53901048131456 0 0 0 30 " PBC="1 1 1" Properties=species:S:1:pos:R:3:force:R:3 Energy="-508.32195541"
C     4.933811826700000e+00   8.462034801517097e+00  -1.900598999999978e-01 -2.64874380e-01  -2.64268636e+00  -1.22932594e+00
C     1.232683001600000e+00   6.451254865879824e-01  -2.637369000000014e-01  5.32511510e-01  -1.80300513e+00   1.24867784e+00
C     4.990642796100000e+00   8.499316462833196e+00   3.715505700000000e+00 -2.70537925e+00   5.58868045e+00   4.67458930e-01
C     1.209016832400000e+00   8.376806852526112e-01   3.684417000000000e+00  9.83313220e-01  -2.24936984e+00   1.01446279e+00
C     7.324480984199999e+00   8.334421083085697e+00  -1.176630000000003e-01  3.86165153e+00   6.39826044e+00  -1.91877662e+00
C     3.752910192700000e+00   5.890001931149336e-01  -3.603795000000005e-01 -2.37746167e+00  -9.31975990e-01   7.03082340e-01
C     2.471423790000000e+00   1.271012924124944e-01   4.054758300000000e+00 -1.74150347e+00   4.35764510e-01  -1.04490319e+00
C     3.660947944699999e+00   8.760685753763945e-01   3.993247200000000e+00  6.37697990e-01  -2.02659637e+00   1.76487220e-01
C     9.921260820899999e+00   8.415311043972633e+00  -4.521498000000008e-01 -1.63634351e+00   2.06586207e+00  -4.58260100e-02
C     6.206646720299999e+00   6.349880587362312e-01  -4.602471000000001e-01 -6.06825580e-01  -1.10668686e+00   1.71748750e-01
C     4.902039702199999e+00   9.742020432464320e-02   4.045400400000000e+00 -1.06311869e+00  -1.60843990e-01  -1.55736270e-01
C     6.118570889899999e+00   7.993786975742567e-01   4.038854100000000e+00 -1.45190228e+00   7.47597610e-01  -3.66404850e-01
C     1.231550053090000e+01   8.411792288534034e+00  -5.378048999999976e-01  2.25240902e+00  -1.63360403e+00  -4.97453130e-01
C     8.616248901899999e+00   5.358556120301383e-01  -3.206483999999996e-01  5.05002400e-01   2.41357702e+00   5.75999070e-01
C     7.327767519399999e+00   2.376983853692448e-01   4.014035100000000e+00  3.79213712e+00  -6.22922191e+00  -7.95431290e-01
C     8.619054219800001e+00   7.649097009201649e-01   3.765171300000000e+00  2.78344110e-01   1.91490733e+00   3.72507790e-01
C     1.320230286700000e+00   2.062343604321801e+00  -4.740909000000002e-01 -1.43086605e+00  -5.02375540e-01  -1.29691094e+00
C     2.526914243100000e+00   2.718552384952404e+00  -8.375396999999971e-01 -3.81972770e-01   1.31328060e-01   1.03567478e+00
C     1.101173910640000e+01   2.260505602657702e+00   3.522037200000000e+00  1.82684889e+00  -1.62314090e-01   6.33887030e-01
C     2.449498058700000e+00   2.974197037867255e+00   3.649899300000000e+00 -2.46748751e+00   2.11686010e-01  -3.94701280e-01
C     3.733499599500000e+00   2.003367049859375e+00  -5.796975000000018e-01  1.33638361e+00   1.03342260e-01  -3.42921320e-01
C     4.993748153799999e+00   2.747966628962755e+00  -5.655603000000013e-01 -1.56987324e+00  -5.07227000e-01   2.53056520e-01
C     3.598624117200000e+00   2.284954668244248e+00   3.835735200000000e+00  4.37167098e+00  -1.25179814e+00   1.99461080e-01
C     4.922512759700000e+00   2.944280956210994e+00   3.896986200000000e+00 -1.10247662e+00   7.40544790e-01  -2.69763940e-01
C     6.222033003799999e+00   2.066415431469189e+00  -3.075977999999999e-01 -1.58985579e+00  -1.22683023e+00  -5.59092560e-01
C     7.427139951799999e+00   2.729469253680770e+00  -1.549551000000022e-01  2.06979577e+00   6.68072830e-01  -6.28664280e-01
C     6.165059113700000e+00   2.148974939685174e+00   3.945663900000000e+00 -2.27563941e+00   6.48851727e+00   7.84319410e-01
C     7.356647508699999e+00   2.980781810408802e+00   4.023617400000000e+00  1.12943122e+00  -2.94901190e+00  -1.60202880e+00
C     8.659405431700000e+00   1.970335766399801e+00  -2.077910999999979e-01  8.89649740e-01   2.19092849e+00  -1.22986072e+00
C     9.936786524799999e+00   2.763562619263846e+00  -5.326343999999992e-01 -1.86116565e+00  -6.89777950e-01   1.62208394e+00
C     8.581258325499999e+00   2.242483935649557e+00   3.756113700000000e+00  4.55042370e-01  -1.08731616e+00   2.03323260e-01
C     9.779514791999999e+00   2.958505496038893e+00   3.559922400000000e+00 -1.87237120e-01   8.20249430e-01  -1.47629200e-02
C     2.475486849500000e+00   4.127425925474852e+00  -1.121571599999999e+00 -4.75347970e-01   3.21919330e-01   4.46678670e-01
C     3.691983921600000e+00   4.844914146304232e+00  -9.610650000000014e-01  1.19716423e+00   8.50256900e-02  -1.05416700e-02
C     1.235434400090000e+01   4.397122374035591e+00   3.686460600000000e+00 -3.03082481e+00  -1.41939537e+00  -4.31230180e-01
C     3.589859316700000e+00   5.167051988436738e+00   3.905649900000000e+00  4.53787347e+00  -2.57671980e-01   6.11837400e-02
C     4.875206303800000e+00   4.162266027524405e+00  -6.854934000000021e-01  3.74442746e+00  -2.81929930e-01   1.26109357e+00
C     6.139219652600000e+00   4.909247734381390e+00  -3.602193000000007e-01  1.36023624e+00  -2.58465636e+00  -1.34380530e-01
C     4.907885597600000e+00   4.404668212206663e+00   3.915909600000000e+00  2.00890570e-01  -1.15862450e-01   1.41671623e+00
C     6.183372239600000e+00   5.083802186613550e+00   4.214379000000000e+00 -1.95281520e+00   1.85229370e-01  -1.48722751e+00
C     7.463940528399999e+00   4.161063222508192e+00  -2.025785999999989e-01 -2.94903871e+00  -1.73969100e-02  -7.05085420e-01
C     8.656125798500000e+00   4.863970399822134e+00  -4.073349000000022e-01  6.28236120e-01   1.70738958e+00  -3.96621990e-01
C     7.414122631900000e+00   4.381161255646376e+00   4.075185300000000e+00 -7.84951270e-01   1.00524518e+00   1.20177976e+00
C     8.641971620600000e+00   5.156030943780517e+00   4.081359900000000e+00 -9.64692890e-01  -3.36956999e+00  -1.64293321e+00
C     9.895162682699999e+00   4.226057132265769e+00  -6.867155999999994e-01 -5.05519170e-01  -3.20669833e+00  -2.72875130e-01
C     1.107233590560000e+01   4.852733488980977e+00  -1.139099099999999e+00  5.75541190e-01   2.13002294e+00   1.70163483e+00
C     9.784147513000001e+00   4.407232477053806e+00   3.620014800000000e+00  9.36728550e-01  -8.12439160e-01   1.38776557e+00
C     1.107685084890000e+01   4.997497980741666e+00   3.642349200000000e+00 -5.64667790e-01   3.68264026e+00   9.23283800e-01
C     3.855131277700000e+00   6.249914306282847e+00  -8.219825999999983e-01 -4.11243063e+00   1.17177443e+00   2.65097350e-01
C     4.936965153300000e+00   6.957360565397643e+00  -3.118566000000023e-01  2.60978871e+00   2.32440001e+00  -4.55688300e-01
C     1.348017023850000e+01   6.618181847000724e+00   4.008987000000000e+00  9.40640680e-01  -3.15038641e+00  -3.38190440e-01
C     4.934085293800000e+00   7.162048758663198e+00   4.020163500000000e+00 -1.16298568e+00   1.33935799e+00  -2.49943460e-01
C     6.213152496199999e+00   6.294622771963926e+00  -2.409965999999990e-01 -2.13018872e+00  -6.48095450e-01   5.18581000e-03
C     7.431441031699999e+00   6.996827530275783e+00  -1.668917999999984e-01 -5.75610840e-01  -2.05182223e+00  -1.17260510e-01
C     6.131128832400000e+00   6.523624004379082e+00   4.220804100000000e+00  2.32207218e+00  -2.26055695e+00   2.98282450e-01
C     7.388383249800000e+00   7.221705701480671e+00   4.267530000000000e+00 -2.25081019e+00   2.30368837e+00  -7.11364870e-01
C     8.642735819900000e+00   6.308523170954004e+00  -4.348361999999995e-01 -1.84763740e-01  -7.59002850e-01   5.67042890e-01
C     9.829867100500000e+00   7.028477543400113e+00  -6.157475999999988e-01  3.12210042e+00  -1.14299917e+00  -8.24180110e-01
C     8.579265718100000e+00   6.536783729600124e+00   4.196769000000000e+00  1.77697444e+00  -4.63265890e-01  -5.60732190e-01
C     9.810165686600000e+00   7.189026054472663e+00   3.991480500000000e+00  1.44734061e+00   1.00945561e+00   7.99443520e-01
C     1.107648676840000e+01   6.339993267127520e+00  -9.946505999999999e-01  2.19100969e+00  -1.67940918e+00   1.92398290e-01
C     1.246241231240000e+01   6.972355665531256e+00  -9.134856000000013e-01 -4.27661634e+00   1.76984119e+00   1.15461675e+00
C     1.106681400980000e+01   6.425287051889306e+00   3.903404100000000e+00 -1.59700030e-01   2.75678986e+00  -5.00595870e-01
C     1.228216194820000e+01   7.310221596456979e+00   3.975271200000000e+00 -1.76121855e+00  -1.22777621e+00   8.51549900e-02
