76
Lattice="10.7446858958278 0 0 5.37234294791388 9.3051709414712 0 0 0 30 " PBC="1 1 1" Properties=species:S:1:pos:R:3:force:R:3 Energy="-603.82280176"
C     1.074064434012215e+01   8.553582978005260e-02  -4.990142999999989e-01  1.10020688e+00   4.10981820e-01   7.48303640e-01
C     1.246789144058667e+01   8.456462117353198e+00  -3.028794000000019e-01  2.60561760e+00   6.75210450e-01  -5.74330670e-01
C     1.390521161917602e+01   8.377648436111912e+00  -4.213418999999980e-01 -9.59346150e-01  -4.29688709e+00   4.00364540e-01
C     1.454732269803217e+01   6.949969365182154e+00  -4.057841999999994e-01 -2.98233939e+00   2.38442058e+00   9.49160040e-01
C     8.373147677633643e+00   9.028516204283287e+00  -3.336323999999991e-01 -4.45241207e+00   2.31055231e+00  -6.22729450e-01
C     9.737246206390548e+00   8.852787027512584e+00  -3.616188000000022e-01  4.95856680e-01   1.98533580e-01   1.07546679e+00
C     1.022978610006946e+01   7.511910685386362e+00  -2.765817000000013e-01  3.12401637e+00  -1.21619094e+00  -3.32011420e-01
C     1.167995241022713e+01   7.316461525101063e+00  -3.553920000000019e-01 -1.79808348e+00  -8.46929800e-02   1.44402000e-02
C     1.222952214187463e+01   5.992528131274102e+00  -4.263165000000022e-01  5.36669386e+00   4.76662540e+00   1.85564164e+00
C     1.373562641501972e+01   5.768059957947029e+00  -1.934919000000015e-01 -3.39724281e+00   5.15476011e+00  -2.36850651e+00
C     6.024390338312463e+00   8.129470594178009e+00  -4.689192000000020e-01 -1.57457363e+00  -2.82621554e+00   1.38042815e+00
C     7.439867215148264e+00   7.960830934094782e+00  -2.880257999999998e-01  2.25847128e+00  -1.80288243e+00  -5.21555550e-01
C     8.111357864724791e+00   6.614974371429763e+00  -2.066121000000010e-01 -5.41379357e+00  -1.21512193e+00   3.83677820e-01
C     9.467301284330455e+00   6.271409315241629e+00  -1.987094999999997e-01 -8.06426270e-01   4.14237817e+00  -9.32767680e-01
C     1.000598047096686e+01   4.988603381193827e+00  -3.142353000000000e-01  1.56672510e+00   2.09245415e+00   7.58551950e-01
C     1.146465850640079e+01   4.973786013092390e+00  -2.608439999999987e-01 -4.70411050e+00  -7.45553060e+00  -1.21762720e-01
C     1.201248663191075e+01   3.620742508600152e+00  -1.550505000000015e-01 -3.10045477e+00   1.20727407e+00   9.48990230e-01
C     5.141304052072941e+00   6.828718428300194e+00  -3.060350999999990e-01  3.85874159e+00   2.45824520e+00  -5.22372460e-01
C     5.771550956205171e+00   5.525543847271570e+00  -1.664237999999969e-01 -5.27889680e-01   4.63773363e+00  -5.77646360e-01
C     7.143233943845169e+00   5.489019097246174e+00  -1.599105000000023e-01  4.32709588e+00  -1.46416180e+00  -1.09725432e+00
C     7.740830433698772e+00   4.162244741679521e+00  -3.445646999999994e-01 -7.84212220e-01   4.88046790e-01   2.44586560e-01
C     9.139804816077911e+00   3.904231985424004e+00  -3.394064999999991e-01 -3.96418710e-01   6.59923600e-01   4.34666830e-01
C     9.665735379170533e+00   2.624321355314184e+00  -2.697465000000001e-01 -2.70599360e-01  -1.47561279e+00  -2.10506130e-01
C     1.109951905184275e+01   2.486314690172274e+00  -1.549848000000011e-01 -7.07353880e-01   2.42210961e+00  -9.91429420e-01
C     3.529108254607280e+00   4.549795992262999e+00  -1.572038999999990e-01  7.21835690e-01  -8.72102280e-01   9.20995120e-01
C     4.959503912921512e+00   4.460921374097966e+00  -2.387064000000017e-01 -2.23654788e+00  -4.30166777e+00   5.91643780e-01
C     5.486632186151408e+00   3.129598557924132e+00  -3.254705999999992e-01 -1.01553573e+00   1.51293018e+00  -9.75494010e-01
C     6.886113986322174e+00   3.042868037247092e+00  -4.770306000000026e-01 -1.07010572e+00  -1.54198594e+00   1.65947321e+00
C     7.350557009883459e+00   1.712948626954430e+00  -3.485673000000027e-01  1.63725564e+00  -2.38840700e+00  -4.06309970e-01
C     8.727965786916135e+00   1.488227632132917e+00  -3.392625000000002e-01  2.04812497e+00   2.54494160e+00   2.15596740e-01
C     9.274528833108233e+00   2.180034988682174e-01  -4.018253999999999e-01  3.52944669e+00  -8.12912060e-01  -4.42125850e-01
C     2.611142945063185e+00   3.466512277924353e+00   1.714110000000000e-02  2.04961589e+00  -5.57496190e-01  -1.74202740e+00
C     3.125581744245181e+00   2.190119932946946e+00  -1.622459999999997e-01  2.91000894e+00  -1.50726176e+00  -1.30993086e+00
C     4.599874225846140e+00   2.011470049121595e+00  -4.301286000000033e-01 -4.26865370e-01   8.06334710e-01   2.45359203e+00
C     5.216667171528683e+00   7.511346140665431e-01  -3.130445999999978e-01 -2.20695059e+00  -3.39425613e+00  -9.80973820e-01
C     6.575692811731622e+00   4.519704837425518e-01  -2.747285999999995e-01 -2.92557340e-01   4.11876619e+00  -4.69568910e-01
C     8.987353840185760e-01   1.261874603380237e+00  -3.691287000000010e-01 -3.87772670e-01  -4.12460878e+00   1.07673770e-01
C     2.300929304080790e+00   1.075441688477252e+00  -3.672642000000010e-01  1.91412568e+00  -1.68196220e+00   8.79882890e-01
C     1.604085837484573e+01   9.261936696468316e+00   3.405879000000000e+00  3.28034630e-01  -2.87585147e+00   2.98790502e+00
C     1.172083309273487e+01   8.880738830499251e+00   3.653130600000000e+00  3.85406525e+00  -3.21309887e+00  -1.97955800e-02
C     1.319504955568309e+01   8.896592236333147e+00   3.650145900000000e+00 -2.27297558e+00   2.39347733e+00  -9.92504320e-01
C     1.399442077066994e+01   7.746460453116669e+00   3.615132600000000e+00  2.18132380e+00   1.17670025e+00   1.28586242e+00
C     7.575743760911651e+00   8.307166977137136e+00   3.561438900000000e+00 -3.70200130e-01  -3.32647531e+00   1.17150156e+00
C     8.970033191621242e+00   8.438307914952677e+00   3.724168800000000e+00  1.33412333e+00   1.77580168e+00  -1.31446420e-01
C     9.797266773955961e+00   7.325097561198768e+00   3.741926700000000e+00 -8.20755700e-02  -1.20802625e+00  -1.84592080e-01
C     1.120113369533624e+01   7.526247813615585e+00   3.660610200000000e+00 -2.00358000e+00   1.54160966e+00   1.88177350e-01
C     1.195886275192562e+01   6.389353287423223e+00   3.628393500000000e+00  5.38928326e+00  -3.05570435e+00  -1.46872710e-01
C     1.345375945810213e+01   6.475284773071644e+00   3.682445100000000e+00 -1.41129772e+00  -5.03001860e-01  -1.74352300e-01
C     4.685100966958081e+00   7.943997228502355e+00   3.727041000000000e+00  5.04599390e-01   4.56063860e-01  -3.04967483e+00
C     5.559276685180732e+00   6.790539218881666e+00   3.681549900000000e+00 -2.36385220e-01   2.45847837e+00   1.61743880e+00
C     6.939802280699283e+00   6.966813771721162e+00   3.699058200000000e+00  3.36555156e+00   7.87299540e-01   3.24780080e-01
C     7.848660663091684e+00   5.839778353294857e+00   3.951399900000000e+00 -1.31882564e+00   1.28362909e+00  -1.63379518e+00
C     9.246506047599880e+00   5.994680417312525e+00   3.806739000000000e+00  1.16727759e+00   1.02600663e+00   3.69036700e-01
C     1.013026924905110e+01   4.871464213246833e+00   3.773526000000000e+00  4.02582000e-03   7.15893630e-01  -6.35631930e-01
C     1.155842351216316e+01   5.005778493508042e+00   3.591862200000000e+00 -1.06226369e+00   6.69227870e-01   2.15562081e+00
C     1.246753315903534e+01   3.853939304475782e+00   3.806537700000000e+00 -1.31584474e+00   1.67787430e+00  -1.14974152e+00
C     3.626005282586076e+00   5.378203072108038e+00   3.790046100000000e+00 -9.24624660e-01  -1.13441729e+00   8.72729680e-01
C     5.020443043684517e+00   5.545545126103681e+00   3.943026900000000e+00 -9.19062920e-01  -1.29793658e+00  -2.30312869e+00
C     5.806723524328532e+00   4.381073237003279e+00   3.763354500000000e+00  1.60053842e+00   1.58918550e+00   1.62533245e+00
C     7.268943760363117e+00   4.570791528610050e+00   3.890349000000000e+00 -1.70418914e+00  -2.75977763e+00  -8.61674750e-01
C     8.097159353265665e+00   3.401413767286660e+00   3.748173900000000e+00  1.11829772e+00   1.46883419e+00  -1.60796030e-01
C     9.511428634853164e+00   3.633615002923420e+00   3.776282100000000e+00 -6.39289200e-01  -2.86086777e+00  -3.55394510e-01
C     1.030961949237047e+01   2.477378004001498e+00   3.646212600000000e+00  3.20124493e+00  -2.25760005e+00   4.66001200e-01
C     1.180039244182200e+01   2.590308350080620e+00   3.713778300000000e+00 -1.56679929e+00   2.19110220e-01  -9.51092340e-01
C     3.165519526841763e+00   4.022059456865430e+00   3.858334500000000e+00 -3.81005503e+00  -3.44934500e-01  -6.79596080e-01
C     3.888087995632562e+00   2.792524323725196e+00   3.792942900000000e+00 -6.50050560e-01   3.24687935e+00   3.64802290e-01
C     5.241550574710775e+00   3.097358839116604e+00   3.699646200000000e+00  2.74896274e+00  -4.46241680e-01   6.55835000e-02
C     6.192583246069844e+00   2.083350726650617e+00   3.598559700000000e+00 -1.69021681e+00  -4.55551312e+00  -1.23280200e-02
C     7.583861586002818e+00   2.091696534466703e+00   3.515382900000000e+00 -5.39092900e-02   1.31048275e+00   1.37748227e+00
C     8.369643835561652e+00   9.031821307949466e-01   3.575508900000000e+00  2.67932117e+00  -1.34763650e-01   1.82658660e-01
C     9.867603851688258e+00   1.060691782865130e+00   3.613510200000000e+00 -3.59913499e+00   3.56869210e+00  -1.21279729e+00
C     1.828328700090510e+00   1.431458645262165e+00   3.520384200000000e+00  2.55215675e+00  -1.65190345e+00   2.33730093e+00
C     3.266235538529997e+00   1.541122504134510e+00   3.777455100000000e+00  9.07998460e-01  -2.67386870e-01  -1.16745060e+00
C     4.247739279526594e+00   4.585345374270466e-01   3.787193700000000e+00 -4.70131872e+00   3.84943400e-02  -7.35221020e-01
C     5.609402793841411e+00   7.323702716074862e-01   3.686069400000000e+00 -2.40177550e-01   5.40731430e-01  -1.91586000e-02
C     1.357227302123856e+00   5.693843403356940e-02   3.539791500000000e+00 -2.37321367e+00   3.96135233e+00  -1.65645174e+00
