52
Lattice="8.88768389401873 1.33226762955019e-15 0 4.44384194700937 7.69696003302603 0 0 0 30 " PBC="1 1 1" Properties=species:S:1:pos:R:3:force:R:3 Energy="-411.68951587"
C     1.263890396782983e+01   6.791132590095008e+00   6.936240000000000e-02 -2.39799376e+00  -2.22097676e+00   4.23696500e-02
C     8.798859981408960e+00   6.390623276143566e+00  -3.314190000000039e-02 -2.46323448e+00   3.48769542e+00   1.24325460e+00
C     1.009149339167204e+01   6.097650268950462e+00  -2.697551999999988e-01  4.98366042e+00  -2.47096950e+00  -2.77779570e-01
C     1.050683974441468e+01   4.632238056096408e+00  -2.353920000000009e-01 -2.71911216e+00   3.65565182e+00   4.78964340e-01
C     6.379702061247697e+00   5.918737511837123e+00   2.904195000000000e-01  3.53115666e+00  -4.23501330e-01  -2.28308220e-01
C     7.782950385252696e+00   5.447668779837866e+00   1.643190000000000e-01 -2.17173074e+00  -2.37527141e+00  -1.42677127e+00
C     8.008328893956365e+00   3.947419202252829e+00  -3.610980000000197e-02  1.90122521e+00   5.16396203e+00   5.79640910e-01
C     9.424016064921524e+00   3.622705240379210e+00  -4.127879999999706e-02  1.37000332e+00   2.08662898e+00  -8.88506360e-01
C     9.838027843156906e+00   2.319934872952677e+00   1.658307000000000e-01  2.18913067e+00   5.49229900e-01   2.49050500e-01
C     4.047043835555531e+00   5.355619449386291e+00   1.828725000000000e-01 -1.14432912e+00   1.97512396e+00  -2.50658840e+00
C     5.391312511634377e+00   4.904739689606522e+00   1.303017000000000e-01 -1.13812772e+00   4.38825409e+00   1.53050312e+00
C     5.665471828952737e+00   3.606604970297257e+00   4.529340000000000e-02 -1.75419990e-01  -4.95782148e+00  -1.99297596e+00
C     6.927080512068689e+00   3.052418614204437e+00  -7.452629999999871e-02  4.07427376e+00   3.10441544e+00   1.14467925e+00
C     7.430742624354814e+00   1.783202528271886e+00   4.385700000000000e-03 -1.80298062e+00  -3.04753783e+00  -1.52471310e-01
C     8.787966655108404e+00   1.425286266886457e+00   2.463312000000000e-01  1.18627610e-01  -1.59573859e+00  -2.79682040e-01
C     3.000758935511007e+00   4.454743386898998e+00  -1.345689000000014e-01 -1.34280350e-01  -3.57902486e+00   1.71014750e+00
C     3.350122500946302e+00   3.035324974461012e+00   7.072919999999999e-02 -1.39918652e+00  -2.40231220e-01  -1.39557633e+00
C     4.651610977214784e+00   2.611940064391609e+00  -1.320605999999991e-01  2.50206520e-01  -6.86553870e-01   3.16561344e+00
C     4.932010959468722e+00   1.219188308764760e+00   1.040481000000000e-01  3.77290701e+00  -1.96452523e+00  -2.80723394e+00
C     6.414150542919968e+00   7.899599436101815e-01  -1.177382999999992e-01 -2.11140252e+00  -6.98840260e-01   6.45668440e-01
C     1.119266205060291e+01   7.102872017354857e+00  -2.805399000000008e-01  2.33011360e-01   2.96492370e-01   2.12255704e+00
C     2.408526606998084e+00   1.997086346311929e+00   2.379675000000000e-01 -3.34269807e+00   7.58620000e-03   1.76245030e-01
C     2.712800819023670e+00   5.905905140075107e-01   4.087107000000000e-01  5.44110000e-03   1.42088259e+00  -1.10036770e+00
C     3.980749842574258e+00   1.330275608032939e-01   1.770414000000000e-01  3.34208417e+00   5.65019150e-01  -6.18816550e-01
C     2.570297739774657e-01   7.075107235256239e-02   4.019109000000000e-01  1.90058146e+00  -1.33073627e+00  -1.37811303e+00
C     6.202848617861562e+00   7.323658238241002e+00   4.289544000000000e-01 -6.74564911e+00  -1.13050982e+00   5.24206900e-02
C     7.617548990895051e-01   9.478345229039202e-01   3.489272700000000e+00 -1.64968500e-02   8.80426380e-01  -1.46921050e-01
C     3.199724312539812e+00   3.747023306060558e-01   3.285905700000000e+00 -6.70019030e-01   1.13827818e+00   1.41239300e-02
C     4.601407915953960e+00   8.217318400700171e-01   3.141231000000000e+00 -1.91284814e+00   1.76989640e+00   1.57304528e+00
C     1.002958898568410e+01   7.584476040364778e+00   3.059462700000000e+00  1.57852145e+00  -2.50717687e+00  -2.67002790e-01
C     6.984212230958724e+00   2.586909011586847e-01   3.193846500000000e+00 -2.63943384e+00  -3.60619900e-01   4.46794990e-01
C     1.238960083531586e+01   6.964323350152444e+00   3.322105200000000e+00 -9.85568770e-01  -3.54023583e+00   5.32653500e-02
C     4.801788352455800e+00   7.336537407520001e+00   3.496944600000000e+00  2.69893000e+00  -2.01974706e+00   5.30631940e-01
C     5.862402508520544e+00   6.377410135768866e+00   3.578023800000000e+00  8.61174800e-01  -2.75837435e+00  -1.19876855e+00
C     7.268990469145968e+00   6.709779801966724e+00   3.334207200000000e+00  5.73376220e-01   7.96337420e-01   5.49798730e-01
C     8.388759582740533e+00   5.790405096652130e+00   3.179463900000000e+00 -6.17016206e+00  -1.52905095e+00   7.26530950e-01
C     9.642724636109135e+00   6.144684852301785e+00   2.975969700000000e+00  4.42478695e+00   2.84150252e+00   1.36066340e-01
C     1.063754868980255e+01   5.153484809923242e+00   3.005053500000000e+00  3.28191212e+00  -1.85503149e+00   1.65604838e+00
C     3.173720063762629e+00   5.492364334005674e+00   3.290312100000000e+00 -1.82724364e+00   1.61436971e+00  -6.71180280e-01
C     4.139793704325317e+00   4.466806293566815e+00   3.516590100000000e+00  9.11485600e-01   8.03340560e-01  -7.81976160e-01
C     5.570413340140158e+00   4.935767443970658e+00   3.563466000000000e+00 -6.03154930e-01   2.03281560e-01   9.69028920e-01
C     6.703529088618499e+00   3.995089862381032e+00   3.627903300000000e+00 -2.71149021e+00   1.65336341e+00  -2.09483369e+00
C     8.019421968040032e+00   4.429559087620038e+00   3.310714500000000e+00 -3.59391960e-01  -1.76573736e+00   1.05738280e+00
C     8.954444662940043e+00   3.376655364556196e+00   3.289885200000000e+00  1.76535446e+00  -1.41550122e+00   3.50284350e-01
C     1.033252568856052e+01   3.714088014092188e+00   3.172702800000000e+00 -1.95504757e+00   2.57402967e+00  -4.79293840e-01
C     2.363518354152608e+00   2.700790846133117e+00   3.268801200000000e+00  3.42799505e+00  -1.17395226e+00   8.03843110e-01
C     3.758184242293814e+00   3.034833292654296e+00   3.412618200000000e+00  1.53006923e+00   4.17037020e+00   1.02800430e-01
C     4.918913402585095e+00   2.255149021592965e+00   3.400520700000000e+00 -3.96695740e-01  -3.30190958e+00  -1.14047210e+00
C     6.318708550894591e+00   2.653375032351508e+00   3.422484900000000e+00 -6.91316540e-01  -1.35255109e+00   1.21975789e+00
C     7.316752567988756e+00   1.609565729380712e+00   3.428112600000000e+00 -6.13233850e-01   2.31208120e-01  -7.42220240e-01
C     8.684663283609995e+00   1.933681637460000e+00   3.481854300000000e+00 -1.82990591e+00   3.71108359e+00  -5.83365050e-01
C     2.086883415173648e+00   1.302743351096828e+00   3.379180500000000e+00  2.36523202e+00   1.20455462e+00  -1.89806090e-01
