76
Lattice="10.7446858958278 0 0 5.37234294791388 9.3051709414712 0 0 0 30 " PBC="1 1 1" Properties=species:S:1:pos:R:3:force:R:3 Energy="-602.41080417"
C     1.902389617338600e-01   1.250030609600968e-01  -5.920515000000002e-01  1.86914371e+00   3.53924933e+00   1.06685000e-01
C     1.275485379617519e+01   8.476964665743846e+00  -6.537006000000005e-01 -3.35554541e+00   2.51872597e+00   7.77962200e-01
C     1.410118534211529e+01   8.333286033655462e+00  -7.982781000000010e-01  2.78299039e+00   2.24188240e-01   1.62156772e+00
C     1.470721254231347e+01   7.023572150697042e+00  -3.214638000000001e-01  1.24046090e+00   4.78568440e+00  -1.87509273e+00
C     8.500823288160424e+00   9.191832469123449e+00  -1.703903999999987e-01 -4.38072050e-01  -2.10354608e+00   7.00922140e-01
C     9.893778282604664e+00   8.972412164927908e+00  -9.372510000000034e-02  7.18342120e-01   1.14405371e+00  -1.19341229e+00
C     1.041451142623374e+01   7.671903050115047e+00  -9.418829999999900e-02  1.89339674e+00  -3.27686535e+00  -2.87786500e-02
C     1.187588498101940e+01   7.400594228155073e+00  -2.586611999999988e-01 -1.74618340e-01   8.81766620e-01   1.59880700e-02
C     1.247025849489044e+01   6.109293603556146e+00  -1.906380000000141e-02 -7.19438430e-01   7.36384080e-01  -5.76107900e-01
C     1.391264570617994e+01   5.944517543498916e+00  -9.322590000000019e-02 -1.10218804e+00  -1.44475733e+00   2.25649178e+00
C     6.186409242104846e+00   8.235582483199137e+00  -4.397399999999969e-01  2.60479098e+00  -4.12641838e+00   1.80754938e+00
C     7.660209187304148e+00   8.037106443858766e+00  -1.401752999999992e-01 -2.66896282e+00   1.59646144e+00  -1.10292135e+00
C     8.126424654251494e+00   6.736046276822837e+00   3.186000000000000e-04  3.48682695e+00  -1.23643129e+00  -1.36160191e+00
C     9.597123414482910e+00   6.436726284885601e+00  -1.224900000000062e-02 -9.57374140e-01   3.57204523e+00   1.26530927e+00
C     1.018122586820842e+01   5.162437932109437e+00   1.854666000000000e-01 -2.21333143e+00  -1.18470125e+00  -2.30138680e+00
C     1.156258390826707e+01   5.016693924279209e+00   1.720326000000000e-01  1.25490000e+00  -2.50473500e-01   2.46883000e-03
C     1.209031329294965e+01   3.709498951094248e+00   1.211748000000000e-01  3.91551316e+00   9.00236690e-01   1.95118000e-01
C     5.419436908299700e+00   7.048444965671371e+00  -2.012375999999989e-01 -2.59618690e+00  -1.61630120e-01  -9.16574960e-01
C     5.935014590463666e+00   5.781328666448923e+00  -1.722120000000160e-02  1.10072750e+00  -3.23472905e+00   1.07512893e+00
C     7.335761684846017e+00   5.607086549046141e+00  -1.566036000000004e-01 -2.41592790e-01  -1.49709708e+00   1.98986006e+00
C     7.940724301565224e+00   4.281094572252123e+00  -8.050469999999876e-02 -9.15660320e-01  -1.15695593e+00  -1.16993798e+00
C     9.294188760963470e+00   3.957760539566610e+00  -1.326636000000008e-01  2.58854696e+00   1.46182617e+00   1.59901724e+00
C     9.878139714617792e+00   2.587243319824693e+00  -2.983806000000016e-01  1.65452120e-01   5.69891574e+00   1.30080746e+00
C     1.133928956504302e+01   2.572969745912990e+00  -7.874939999999953e-02 -3.59425373e+00  -2.24934970e+00  -1.73338626e+00
C     3.777204019060011e+00   4.667514220997590e+00   3.338646000000000e-01 -2.82482024e+00   7.40323820e-01  -1.88491762e+00
C     5.165135120717988e+00   4.523985774368175e+00   3.294459000000000e-01  3.11544400e-02   2.99677417e+00  -2.32343556e+00
C     5.736757406876932e+00   3.296726499936447e+00  -2.660970000000162e-02 -2.69188104e+00  -1.82287678e+00   1.30457622e+00
C     7.083889646810301e+00   3.139569699948308e+00  -1.610472000000023e-01  4.23755530e-01  -2.15581228e+00  -1.93482226e+00
C     7.482709393790476e+00   1.778291305277588e+00  -6.185369999999999e-01  5.44925845e+00   1.68131860e+00   1.56984526e+00
C     9.000998301916452e+00   1.581602882326501e+00  -6.072101999999973e-01 -1.97020532e+00  -1.41379176e+00  -1.14074521e+00
C     9.572711810458687e+00   2.981872734787102e-01  -8.258021999999983e-01 -1.87673842e+00  -2.54669439e+00   8.72937210e-01
C     2.844758633562781e+00   3.591894803755383e+00   1.254813000000000e-01 -2.38291260e-01  -2.27829258e+00   4.11728930e-01
C     3.425825820968401e+00   2.245674874165156e+00  -9.425819999999874e-02 -9.96689070e-01   2.29877185e+00   1.21171864e+00
C     4.855621979532844e+00   2.108376797790328e+00  -1.088202000000003e-01  1.39711000e-01   7.12233210e-01  -2.72846400e-01
C     5.408816645862422e+00   8.129373262089976e-01  -2.832042000000001e-01 -1.10269593e+00  -1.53076389e+00   3.58508340e-01
C     6.771050702998529e+00   5.974744181625284e-01  -5.875538999999996e-01 -4.82068660e-01  -1.49223838e+00   1.07894120e-01
C     1.074784215148313e+00   1.283062570662327e+00  -3.304286999999988e-01  2.08346624e+00  -4.45233920e-01   5.43902560e-01
C     2.528572021688577e+00   1.142323907332434e+00  -1.813247999999987e-01 -6.04067040e-01   1.32961400e-01  -7.25465520e-01
C     1.584657038567732e+01   9.126604337454562e+00   3.014756100000000e+00  1.04788150e-01  -1.61879920e-01   5.31878300e-02
C     1.158254264583719e+01   8.729667333150744e+00   3.336120600000000e+00  8.22292800e-02  -4.25073900e-02  -1.00147722e+00
C     1.301921158901414e+01   8.805465208490377e+00   3.044816100000000e+00 -2.63383861e+00  -2.11213600e-01   8.48229780e-01
C     1.382099863917874e+01   7.633180604817040e+00   3.258672600000000e+00  2.33195330e-01   1.38641474e+00  -4.94828810e-01
C     7.368859292951799e+00   8.217574651137500e+00   3.424690800000000e+00  1.44948669e+00  -1.29584507e+00   1.64628339e+00
C     8.785247050534775e+00   8.402337660063594e+00   3.615016800000000e+00 -2.11875395e+00  -8.93293670e-01  -8.91310990e-01
C     9.561360801933350e+00   7.276995317489822e+00   3.707589300000000e+00  2.44792847e+00  -1.99659403e+00   8.25911900e-02
C     1.099265981971462e+01   7.398477208714514e+00   3.455574900000000e+00 -2.00485070e-01   2.89277220e-01   2.19453981e+00
C     1.179763884744297e+01   6.259641065553812e+00   3.781122900000000e+00  2.75860327e+00  -8.27445930e-01  -4.68690300e-01
C     1.328601283087361e+01   6.400441329115327e+00   3.697976100000000e+00 -1.77244484e+00  -8.24284540e-01   2.66893870e-01
C     1.522760669110240e+01   7.839257852194879e+00   3.177224700000000e+00  1.47563565e+00  -1.14942594e+00   1.32419464e+00
C     5.316490783329492e+00   6.775107244239641e+00   3.662253300000000e+00  2.69268480e+00  -2.02543970e+00  -9.65640260e-01
C     6.828748752983229e+00   6.920967752810038e+00   3.713332500000000e+00 -3.43099721e+00   1.45820900e-02  -7.36045060e-01
C     7.619902271023470e+00   5.759935054889059e+00   3.919230000000000e+00  1.23996624e+00  -1.24331330e+00  -2.41083710e-01
C     9.048541012022767e+00   5.974772376293233e+00   3.961561200000000e+00  5.24802320e-01  -1.94556473e+00  -1.29854244e+00
C     9.983132433634802e+00   4.757230864080984e+00   3.895969500000000e+00 -5.10098891e+00   6.82495930e-01  -5.87714900e-01
C     1.131304051228304e+01   4.853144564907000e+00   3.972929700000000e+00  2.69451756e+00   5.03032594e+00  -4.33028480e-01
C     1.223362827731474e+01   3.816114435966648e+00   3.928275300000000e+00 -2.51466738e+00  -3.18371314e+00  -1.14624210e+00
C     3.402413526456308e+00   5.276047927874017e+00   4.000194600000000e+00 -5.29099270e-01  -1.18581050e+00  -3.05076580e-01
C     4.819399333256476e+00   5.370770939026551e+00   3.876468600000000e+00 -2.07469363e+00   5.25556014e+00   7.77450910e-01
C     5.591997101087995e+00   4.284851814174277e+00   4.092630600000000e+00  4.85513734e+00  -2.69064250e+00  -1.80554963e+00
C     7.092586449301191e+00   4.359738248020337e+00   3.853131900000000e+00 -1.57195453e+00   3.46554960e+00   9.63790690e-01
C     7.999861763396516e+00   3.328984642982435e+00   3.534166800000000e+00 -2.65262368e+00  -1.61239888e+00   4.25013830e-01
C     9.368785891761402e+00   3.519069744427661e+00   3.554721300000000e+00  1.22251939e+00  -2.17220077e+00   5.58435010e-01
C     1.014965158794611e+01   2.283271672934551e+00   3.408517200000000e+00  1.29574352e+00   1.56100815e+00  -2.26685212e+00
C     1.161740748615638e+01   2.560874140311503e+00   3.432301800000000e+00 -1.55567771e+00  -2.44184217e+00   2.16153683e+00
C     2.845272981676814e+00   3.907320743865828e+00   4.147735500000000e+00  9.61823320e-01   1.75922066e+00  -1.45410718e+00
C     3.660338099782924e+00   2.752434204402428e+00   3.953086800000000e+00  1.09456864e+00  -3.08959790e-01  -3.90819530e-01
C     5.094633864185139e+00   2.961785848382342e+00   3.969576900000000e+00 -4.01320100e-01   5.50234510e-01  -1.36146410e-01
C     6.007301291452520e+00   1.942814636892087e+00   3.596264400000000e+00 -1.09125032e+00  -3.10588244e+00  -4.77971060e-01
C     7.423198392953870e+00   1.979607468892266e+00   3.343418700000000e+00 -6.75166010e-01   1.36691215e+00  -5.17299220e-01
C     8.180530003611810e+00   8.116794532013285e-01   2.898035400000000e+00 -6.00823100e-02   6.29145290e-01   1.85815816e+00
C     9.584914550235316e+00   9.290720940047275e-01   2.935753800000000e+00  2.22142231e+00   3.28299888e+00   1.67088495e+00
C     1.606376475582223e+00   1.336276051716905e+00   3.429173700000000e+00  4.85173011e+00   7.75693340e-01  -5.51737910e-01
C     3.129873655304507e+00   1.469858852490519e+00   3.583943100000000e+00 -3.02624690e+00   1.31613830e+00   1.07068640e+00
C     3.978143237417675e+00   3.459273599346708e-01   3.573574500000000e+00  3.15794730e-01   2.86046838e+00  -6.07219850e-01
C     5.353782257235763e+00   6.352550871096976e-01   3.452353800000000e+00  2.79311603e+00  -2.31742565e+00   3.28883760e-01
C     1.183705406224081e+00   5.194704728964400e-03   3.207123300000000e+00 -3.91232690e+00   1.38873561e+00  -5.89213200e-02
