64
Lattice="9.86 0 0 4.93 8.53901048131456 0 0 0 30 " PBC="1 1 1" Properties=species:S:1:pos:R:3:force:R:3 Energy="-510.19299168"
C     4.984433756900000e+00   8.425025022294681e+00  -4.314291000000026e-01 -7.79415130e-01  -2.34516669e+00  -4.87587300e-02
C     1.285120946600000e+00   5.376278836552624e-01  -3.853352999999977e-01  1.33203581e+00   1.97781665e+00  -8.52340890e-01
C     9.734757589799999e+00   1.502158814412256e-01   4.041440400000000e+00  3.41429701e+00   8.97946910e-01  -8.29124770e-01
C     1.191974512600000e+00   8.750841128581552e-01   3.896513100000000e+00 -4.55118050e-01  -2.31193381e+00   3.12225700e-01
C     7.483315379100000e+00   8.351777902737869e+00  -4.088837999999981e-01 -1.06865947e+00   2.67379274e+00   8.22178660e-01
C     3.767493132700000e+00   5.699438542069272e-01  -3.981570000000012e-01 -1.32528098e+00   1.37372799e+00  -1.96865423e+00
C     2.483458265100000e+00   8.009856539564879e-02   4.014343500000000e+00 -3.28456798e+00   2.37949385e+00  -1.60181440e-01
C     3.652989051300000e+00   8.690450684763847e-01   4.004897400000000e+00  5.44626850e-01  -2.22335947e+00   2.44263270e-01
C     9.901627934000000e+00   8.398749547756568e+00  -5.657850000000018e-01 -9.06139560e-01  -1.84643461e+00   1.76021700e-01
C     6.166594167800000e+00   5.076019903242288e-01  -5.761548000000012e-01  2.13910507e+00   4.07942660e+00   1.60970782e+00
C     4.893423984900000e+00   1.747967039594776e-01   4.153153500000000e+00  8.90937920e-01  -1.20912731e+00  -3.09564730e-01
C     6.195417314200000e+00   8.151660471002048e-01   4.077221700000000e+00 -3.37394891e+00   1.19351432e+00  -5.38746330e-01
C     1.236233434770000e+01   8.346065817067378e+00  -4.826960999999983e-01 -4.16846300e-02   4.94418454e+00  -8.07943880e-01
C     8.682813367500000e+00   5.795999380379209e-01  -3.991013999999993e-01 -6.46362600e-01  -8.04762570e-01  -3.00920560e-01
C     7.380909517699999e+00   1.800886703143528e-01   3.914433600000000e+00 -1.39995313e+00  -4.10641978e+00   6.30885790e-01
C     8.513348660100000e+00   8.953701546653864e-01   3.861176700000000e+00  4.79553040e+00   8.74535800e-02   3.96937750e-01
C     1.302685649200000e+00   2.017025453292450e+00  -5.762268000000006e-01 -3.93602623e+00  -2.44700304e+00   7.73471390e-01
C     2.458567336000000e+00   2.668162061697933e+00  -7.902813000000002e-01  2.44712051e+00   3.62077432e+00   2.97147890e-01
C     1.106928640480000e+01   2.267925831984613e+00   3.653483700000000e+00 -5.95854400e-02  -2.19566600e-02   4.70643900e-01
C     2.480131698300000e+00   2.958215425852887e+00   3.613905300000000e+00 -3.17822372e+00   1.98844053e+00   5.63828170e-01
C     3.704267460300000e+00   2.050565747166737e+00  -6.452448000000004e-01 -6.51631100e-01  -3.90417430e+00   8.18222080e-01
C     4.889080999999999e+00   2.740335998417618e+00  -5.981859000000007e-01  2.69154867e+00   1.27342510e-01   5.45916810e-01
C     3.607799734599999e+00   2.239831804384574e+00   3.851949000000000e+00  4.35014481e+00   1.37912803e+00   5.88208800e-01
C     4.937424185600000e+00   2.929009875258667e+00   4.070373900000000e+00 -1.31881784e+00   3.43944500e-02  -4.50882190e-01
C     6.131209092799999e+00   2.039164887324365e+00  -4.212227999999989e-01  9.80962810e-01  -2.42408161e+00  -1.37633942e+00
C     7.383468335600000e+00   2.740412337171309e+00  -4.456404000000020e-01  7.64858290e-01  -1.90255217e+00   7.62950360e-01
C     6.209335394400000e+00   2.231828531422090e+00   4.038765000000001e+00 -3.49274609e+00  -3.03722040e-01   4.09155650e-01
C     7.339007870100000e+00   2.971703305246676e+00   3.948009000000000e+00  2.62193677e+00   3.10291287e+00   9.38332990e-01
C     8.674265388399998e+00   1.974076792281193e+00  -4.242927000000023e-01 -1.41023175e+00   2.67004856e+00   7.64394700e-02
C     9.880337088099999e+00   2.764491919774385e+00  -5.249604000000012e-01  1.44459129e+00  -3.45996278e+00  -7.47856920e-01
C     8.612995348400000e+00   2.311237742501688e+00   3.822686700000000e+00 -1.72341253e+00  -2.77681700e-01  -4.46491300e-02
C     9.824624439899999e+00   2.994520736710703e+00   3.717365100000000e+00  8.80275880e-01   4.39702920e-01  -4.48241400e-02
C     2.505164710000000e+00   4.154218864048053e+00  -8.881373999999980e-01 -4.61556900e-02  -2.12545972e+00  -5.10112200e-02
C     3.709740499800000e+00   4.849442554341985e+00  -8.125083000000011e-01  1.13703756e+00  -9.53285500e-02   4.93843400e-02
C     1.226796098460000e+01   4.429594266918621e+00   3.682466400000000e+00  9.40373370e-01  -2.28536700e+00   3.50486250e-01
C     3.646424559100000e+00   5.080148429419263e+00   3.861480900000000e+00  1.41656037e+00   5.41020870e-01   7.83675610e-01
C     4.936544229900000e+00   4.138097809992546e+00  -6.193112999999997e-01  1.52959095e+00   2.40283963e+00  -2.52043600e-01
C     6.236083996800000e+00   4.912482482331424e+00  -4.859337000000004e-01 -2.37870637e+00  -2.08307267e+00   9.50131250e-01
C     4.913146942900000e+00   4.329891328922360e+00   4.162619700000000e+00 -9.17683570e-01   2.08463020e+00  -1.67529537e+00
C     6.140883971299999e+00   5.155119575191986e+00   4.204327500000000e+00 -2.02023459e+00  -2.52015164e+00   3.38734960e-01
C     7.432790175500000e+00   4.142281242006908e+00  -3.853145999999974e-01  1.33182533e+00   1.29643973e+00  -1.10341591e+00
C     8.732702256000000e+00   4.846182018580302e+00  -5.282765999999981e-01 -2.60755400e+00   6.00007440e-01   2.30105970e-01
C     7.328474777199999e+00   4.449355244971438e+00   4.178488800000000e+00  2.53196526e+00  -2.56525275e+00  -2.06672155e+00
C     8.631765929000000e+00   5.093697533518193e+00   4.012842900000000e+00 -3.12188659e+00   1.00512169e+00   1.11631811e+00
C     9.928187224399998e+00   4.130329445208367e+00  -7.500320999999985e-01 -4.43039350e-01   1.34752886e+00   9.72959290e-01
C     1.117835190740000e+01   4.863253208331918e+00  -8.863970999999999e-01 -2.55157561e+00  -2.10794959e+00   2.73251490e-01
C     9.823044522800000e+00   4.441307056813828e+00   3.801319200000000e+00 -1.14240059e+00  -3.37274677e+00   1.82145660e-01
C     1.100862290270000e+01   5.087394121371962e+00   3.841482900000000e+00  3.66133810e+00   2.56720030e+00  -1.18006514e+00
C     3.717644029300000e+00   6.259755857421466e+00  -8.110293000000013e-01  4.89780220e-01   1.55588122e+00   7.19883440e-01
C     4.963994272700000e+00   6.933125658193935e+00  -5.543598000000003e-01 -1.20518684e+00   3.15260325e+00   6.06920500e-01
C     1.354160829290000e+01   6.529837927695483e+00   3.890432400000000e+00  1.12212435e+00  -5.58121350e-01   1.53492090e+00
C     4.919737021800000e+00   7.262994037294195e+00   4.177053600000000e+00 -2.99822722e+00   2.55953540e-01  -1.83473694e+00
C     6.183048535799999e+00   6.332202103185359e+00  -3.155232000000012e-01  1.25742784e+00  -2.93626178e+00  -1.63492062e+00
C     7.460961428000000e+00   6.965001698925670e+00  -3.378803999999995e-01 -2.02792802e+00   1.24831784e+00   2.19601200e-01
C     6.105784047500000e+00   6.537587250486292e+00   4.175056800000000e+00  8.42933040e-01   1.40677771e+00   4.69147160e-01
C     7.337685693399999e+00   7.226252212220642e+00   4.153809900000000e+00  1.43402878e+00  -4.20076670e-01   1.91062630e-01
C     8.645698503399998e+00   6.311300654892833e+00  -4.784046000000011e-01  1.40371582e+00  -4.29695545e+00  -4.04266110e-01
C     9.859808469499999e+00   6.940089050460165e+00  -6.597420000000014e-01  4.69277130e-01   2.06619774e+00   5.27141820e-01
C     8.582165790600000e+00   6.495436218443973e+00   4.177851600000000e+00  6.59201420e-01   1.72451960e+00  -4.96234470e-01
C     9.791424587400000e+00   7.276319504708654e+00   4.168379100000000e+00  2.06105755e+00  -1.18674310e+00  -1.20956724e+00
C     1.103691139060000e+01   6.209795217174348e+00  -7.969857000000005e-01  3.95912572e+00   4.49144990e+00  -6.62588270e-01
C     1.236863656390000e+01   7.067101707943878e+00  -8.176752000000000e-01 -1.37375149e+00  -6.86525487e+00   3.37272790e-01
C     1.109836295320000e+01   6.512231768937294e+00   3.906711300000000e+00 -2.14294396e+00   2.02419390e+00   1.56979515e+00
C     1.234214018030000e+01   7.246396164893485e+00   3.927069300000000e+00 -1.53740308e+00   2.02240030e-01  -7.85187420e-01
