52
Lattice="8.88768389401873 1.33226762955019e-15 0 4.44384194700937 7.69696003302603 0 0 0 30 " PBC="1 1 1" Properties=species:S:1:pos:R:3:force:R:3 Energy="-415.40994867"
C     1.216285113325566e+01   6.177064423755990e+00  -3.259517999999986e-01 -1.03124088e+00   3.69886705e+00  -9.43500040e-01
C     8.320805329491986e+00   5.989237894201509e+00  -1.665503999999984e-01 -2.09177810e-01  -2.03059500e+00   1.00363801e+00
C     9.680119876761038e+00   5.553237743612536e+00   7.573200000000000e-03  1.47148345e+00   2.57479719e+00  -2.27095309e+00
C     1.008148408085211e+01   4.214971228646052e+00  -1.834355999999993e-01 -7.24377200e-02  -1.10267399e+00   1.06247830e+00
C     5.921119569204789e+00   5.400676298857906e+00  -5.599448999999979e-01  2.21558508e+00  -2.51749970e-01   9.10799010e-01
C     7.263887782051314e+00   4.950427612830998e+00  -2.633486999999981e-01  1.09577794e+00   1.94184063e+00  -1.21584383e+00
C     7.623719839303192e+00   3.579481498908339e+00  -3.172032000000016e-01  8.12561530e-01  -7.78540000e-03   1.09364208e+00
C     9.032395471976427e+00   3.204451662653007e+00  -2.049903000000022e-01 -4.22553890e-01   1.39911795e+00  -1.41471777e+00
C     9.368001924889263e+00   1.870646459659111e+00  -4.811391000000000e-01  1.85423424e+00   2.88276700e-01   1.31119367e+00
C     3.617141277304841e+00   4.863820417968634e+00  -3.711077999999972e-01 -1.33112593e+00  -3.33612622e+00  -1.70836100e-02
C     4.923449366777309e+00   4.415985036789531e+00  -5.588793000000010e-01  1.15948681e+00   6.46512560e-01   2.45798510e-01
C     5.297732886913677e+00   3.048903412558736e+00  -4.985010000000010e-01 -8.50994030e-01   8.71520300e-02   2.89170890e-01
C     6.583676715150567e+00   2.577576293611271e+00  -3.590178000000002e-01  3.66635568e+00   1.24959434e+00  -3.90002250e-01
C     7.013371522585352e+00   1.214444518359071e+00  -3.158126999999986e-01  3.06670440e-01   2.04823323e+00  -5.72220410e-01
C     8.387661239578057e+00   8.838232166320271e-01  -4.337882999999998e-01 -4.15129240e-01  -1.71428626e+00  -7.01329170e-01
C     2.608594549505374e+00   3.849108317847249e+00  -2.533037999999976e-01 -1.67049054e+00  -4.23863860e-01  -3.19179900e-02
C     2.932769530031794e+00   2.435499416900706e+00  -2.891319000000010e-01 -5.28797050e-01   2.35270652e+00  -1.31728736e+00
C     4.313673683560030e+00   2.093327056347841e+00  -4.266399000000014e-01 -2.55608730e+00  -3.65991490e+00   1.62311673e+00
C     4.581227096430231e+00   6.694858167374165e-01  -2.066625000000002e-01  2.57390998e+00   1.08703928e+00  -1.14190938e+00
C     6.029166738979815e+00   2.746121399503400e-01  -2.820051000000028e-01 -4.04755909e+00  -1.85474973e+00   9.01969340e-01
C     1.075193838169950e+01   6.596779577222289e+00  -2.093069999999990e-01  7.04372530e-01  -2.09020044e+00   8.31867550e-01
C     1.874459815866703e+00   1.520008289738849e+00  -4.497867000000006e-01  6.98568530e-01  -3.17190010e+00   7.64235000e-01
C     2.262847956953784e+00   4.908212865850460e-02  -3.865638000000011e-01 -3.04140047e+00   3.34186741e+00  -9.87203190e-01
C     7.999203288995262e+00   7.375079011235022e+00  -1.850456999999999e-01  2.34591865e+00  -2.46410780e-01  -2.56493680e-01
C     4.312449763927958e+00   7.198596107433555e+00  -5.766609000000003e-01 -1.29239921e+00  -7.22512200e-02   1.28803814e+00
C     5.684283591628862e+00   6.805018521745930e+00  -5.924549999999975e-01 -1.37428057e+00  -7.55913000e-01   4.78682050e-01
C     1.160207276963828e+00   1.484096352418077e+00   3.414691200000000e+00  2.17812550e-01   1.87074847e+00   2.04000659e+00
C     3.593539274696946e+00   8.846936658418197e-01   3.570179400000000e+00  3.19094210e-01   1.38991281e+00   7.19860670e-01
C     4.980403065141184e+00   1.286913090372727e+00   3.851833200000000e+00 -1.16288916e+00   9.07103100e-02  -8.31999120e-01
C     6.014324662439829e+00   3.499767701448844e-01   4.125966900000000e+00 -4.27264450e-01  -1.69022302e+00  -7.22164610e-01
C     7.397759362221962e+00   7.133327810619162e-01   4.021084500000000e+00 -8.85889370e-01   1.41161471e+00  -6.60392840e-01
C     1.282710654048775e+01   7.431216096487425e+00   3.801932400000000e+00 -7.76831820e-01  -1.30751278e+00   9.06412630e-01
C     8.099336997668498e-01   1.200081529125489e-01   3.501255000000000e+00  2.30958169e+00  -8.92781910e-01  -5.84294830e-01
C     6.350023730093345e+00   6.827884188785453e+00   3.398841600000000e+00 -1.72030810e-01   6.83392340e-01   9.69799550e-01
C     7.763082457873162e+00   7.193259805044756e+00   3.540612900000000e+00 -3.08871532e+00   2.82506253e+00  -3.02731970e-01
C     8.763660531499934e+00   6.306298537808498e+00   3.814548600000000e+00 -1.13256646e+00  -2.94767721e+00   1.52949940e-01
C     1.006117701343712e+01   6.615645595951823e+00   4.152570600000000e+00  2.14810520e+00   2.67622313e+00  -5.50694090e-01
C     1.108468011215235e+01   5.647609554783564e+00   4.118723700000000e+00  1.03162254e+00  -1.35150841e+00  -8.76557800e-02
C     3.567980654405468e+00   6.026157902377410e+00   3.959229300000001e+00  1.31081059e+00   8.31283810e-01  -8.51025660e-01
C     4.627027645179784e+00   5.082262606647244e+00   3.725067300000000e+00 -7.39515350e-01  -1.40088818e+00   7.80379400e-02
C     6.004742853768661e+00   5.477139208279131e+00   3.535435200000000e+00 -1.14039529e+00  -1.24959252e+00   4.02665530e-01
C     7.011585011357282e+00   4.463576264290225e+00   3.627631200000000e+00  8.22987750e-01   2.62016740e-01  -7.65689880e-01
C     8.372945637362367e+00   4.934733280421026e+00   3.736007100000000e+00  2.01741710e-01  -2.20041051e+00   2.33513290e-01
C     9.383834046354341e+00   3.916818398261558e+00   3.785842800000000e+00  1.13415918e+00  -7.16538120e-01   6.34226550e-01
C     1.078261391004738e+01   4.242258645283608e+00   3.977159400000000e+00 -5.45693400e-01   1.07812476e+00  -2.15168630e+00
C     2.919553322457332e+00   3.300738169601098e+00   3.579593100000000e+00 -1.43820886e+00  -1.02240651e+00   2.32738413e+00
C     4.285122533327970e+00   3.638154193703425e+00   3.703925100000000e+00  6.55294770e-01   1.86978560e+00  -9.44461760e-01
C     5.300286007167422e+00   2.650331500416445e+00   3.658708200000000e+00  1.60478172e+00   5.10032870e-01   4.72517060e-01
C     6.723922278622982e+00   3.030048785330048e+00   3.617579100000000e+00 -3.08707564e+00   3.18022734e+00   1.28438836e+00
C     7.722635627288931e+00   2.137145618889830e+00   3.846098400000000e+00  6.81800150e-01  -3.05651005e+00  -4.37886900e-01
C     9.072680587419109e+00   2.513756179826523e+00   3.723477000000000e+00  1.21002370e-01   7.80392700e-02  -9.91853880e-01
C     2.523127647020059e+00   1.904254619873304e+00   3.501666600000000e+00  2.01559022e+00  -9.35465330e-01  -9.02312050e-01
