52
Lattice="8.88768389401873 1.33226762955019e-15 0 4.44384194700937 7.69696003302603 0 0 0 30 " PBC="1 1 1" Properties=species:S:1:pos:R:3:force:R:3 Energy="-416.0234429"
C     1.304783745804174e+01   7.391085917191812e+00  -4.386051000000002e-01 -4.84902180e-01   1.21187337e+00   2.65901500e-01
C     9.364918968532029e+00   7.151573223461477e+00  -4.907049000000008e-01 -4.76253191e+00  -2.32751952e+00   1.04118146e+00
C     1.061759481842388e+01   6.751419663002621e+00  -5.167332000000009e-01  5.73319933e+00  -1.01257358e+00  -8.78224230e-01
C     1.101443083641173e+01   5.354488919897085e+00  -5.316072000000034e-01 -1.98612440e+00   1.38199096e+00   7.96754000e-02
C     6.923895612842003e+00   6.585777388616206e+00  -2.359820999999975e-01  1.27215536e+00  -9.29953260e-01  -3.02755850e-01
C     8.334930258976833e+00   6.157013150151437e+00  -3.909998999999971e-01 -2.16606853e+00  -4.66433050e-01  -8.16356200e-02
C     8.671016646775245e+00   4.754725938621823e+00  -4.733057999999986e-01 -3.93236838e+00   5.75864600e-01   1.96371800e-02
C     9.975419083561818e+00   4.392140778251795e+00  -4.659882000000017e-01  2.09330826e+00  -2.24993746e+00   1.55046900e-02
C     1.030334128936230e+01   2.966778003582641e+00  -3.415427999999991e-01  2.16322408e+00   3.82531446e+00   1.79128260e-01
C     4.478246973160218e+00   6.050546259019667e+00  -4.261085999999992e-01  9.42683050e-01  -3.72117493e+00  -4.56837200e-02
C     5.867987173055956e+00   5.586610761697813e+00  -3.039206999999990e-01  3.36919390e-01   1.70650944e+00  -8.49389730e-01
C     6.226090309163794e+00   4.220409361816047e+00  -4.753451999999996e-01 -6.08160370e-01  -1.58410516e+00   6.34287910e-01
C     7.573386574723094e+00   3.713074555365038e+00  -5.210198999999989e-01  1.38319340e+00   3.99538930e+00   8.00795690e-01
C     7.956244354608110e+00   2.393758648718816e+00  -4.439384999999980e-01 -9.60701790e-01  -7.55164890e-01  -1.29980830e-01
C     9.336311777128895e+00   2.039847269576196e+00  -2.836098000000007e-01 -3.08276287e+00  -1.71030849e+00  -6.47893110e-01
C     3.444171262130109e+00   4.997339506639443e+00  -5.468139000000001e-01  2.78223938e+00  -6.32951300e-01   7.10890340e-01
C     3.797545572659175e+00   3.554413500695434e+00  -4.521285000000006e-01  1.05959198e+00   3.33092518e+00   5.21775820e-01
C     5.190020601854473e+00   3.228667376481792e+00  -3.992085000000003e-01 -4.62753460e-01  -2.29442719e+00  -5.02172790e-01
C     5.524882755592960e+00   1.760961777417200e+00  -3.939321000000007e-01  1.14361015e+00   2.97640682e+00  -3.44768230e-01
C     6.909597236950085e+00   1.405810187104946e+00  -4.980447000000012e-01 -7.91848880e-01   1.34617767e+00   3.26083210e-01
C     7.192366720203460e+00   6.838949107615780e-02  -5.590200000000003e-01  2.15139601e+00  -2.04291404e+00   7.24126800e-01
C     2.778289185832069e+00   2.631773975844915e+00  -2.565266999999984e-01  1.26780645e+00  -2.32930928e+00  -4.72987510e-01
C     3.185868902728672e+00   1.222531175475390e+00  -1.746608999999992e-01  1.41454235e+00   1.60794546e+00  -4.08333570e-01
C     4.559076632991319e+00   7.483012250222109e-01  -3.388826999999992e-01 -1.73908359e+00   4.68407811e+00   2.73961630e-01
C     7.482555291732577e-01   6.846218116668112e-01  -2.564826000000018e-01  1.80743021e+00  -1.72702337e+00   3.02843910e-01
C     2.204442453558155e+00   3.020732000061734e-01  -1.341278999999993e-01 -4.49844365e+00  -2.87255344e+00  -6.67310630e-01
C     2.937152002918994e-01   3.050425332465468e-01   3.891582300000000e+00 -2.59727702e+00   2.18774593e+00  -4.76838060e-01
C     7.040813672710051e+00   7.502708770938878e+00   3.652176600000000e+00  3.20389737e+00  -2.43677080e+00   9.54473520e-01
C     4.026046056860882e+00   1.730235051159838e-01   3.665842800000000e+00 -6.00562960e-01   4.93238380e-01   1.43477800e-01
C     9.549033250476619e+00   6.925979558310194e+00   3.661266300000000e+00 -1.60952987e+00  -2.50003574e+00   5.35265500e-02
C     1.090753288651691e+01   7.270630647871120e+00   3.812514300000000e+00 -1.27754966e+00   1.88827957e+00  -5.98491620e-01
C     1.186312305956160e+01   6.267316360101360e+00   3.848290200000000e+00  5.11715050e-01  -1.28824038e+00   4.82290590e-01
C     4.316709985975158e+00   6.661913100266557e+00   3.977698200000000e+00  2.83362816e+00  -1.21414997e+00  -8.06048960e-01
C     5.397494562848340e+00   5.662393259852386e+00   3.941573400000000e+00 -9.21797810e-01   7.16054280e-01  -2.39404260e-01
C     6.764011112000023e+00   6.084799578423574e+00   3.841300200000000e+00 -5.93443490e-01   1.10853650e+00  -1.13754000e+00
C     7.810416794470290e+00   5.140986332287328e+00   3.702705600000000e+00 -2.28611510e-01  -2.37518510e+00   7.74104120e-01
C     9.198602716709781e+00   5.450497874466492e+00   3.611805000000000e+00 -1.07333456e+00   3.21772577e+00   3.72208110e-01
C     1.017755550002648e+01   4.469599751270503e+00   3.682877700000000e+00  8.63535500e-02  -1.76962613e+00   3.44620100e-02
C     1.151797527625788e+01   4.846848852011285e+00   3.809396700000000e+00  9.28357890e-01   1.60762971e+00  -4.77694000e-01
C     3.659125406651477e+00   3.885446204936081e+00   3.810498300000000e+00  3.83772260e-01   9.63233800e-02   9.48408510e-01
C     5.029137081921909e+00   4.293360302314785e+00   3.876546900000000e+00  5.83061300e-02  -1.82872910e-01   4.71764450e-01
C     6.042259454715711e+00   3.302625310261253e+00   3.930257100000000e+00  2.10314489e+00   6.27282290e-01  -4.29620640e-01
C     7.458582939893748e+00   3.724168953552280e+00   3.849283500000000e+00 -2.66272720e-01  -5.54950120e-01  -9.78858210e-01
C     8.498707251709527e+00   2.679940705047051e+00   3.718175100000000e+00 -5.96342340e-01   2.13301594e+00   8.13416950e-01
C     9.869416343499433e+00   3.033401888997517e+00   3.691787700000000e+00 -3.87525120e-01   2.76300226e+00   2.77887510e-01
C     2.019065099435812e+00   2.095189643705500e+00   3.791151600000000e+00 -2.25259042e+00   6.74021290e-01  -6.07586700e-01
C     3.340857445643393e+00   2.488933329790573e+00   3.877358700000000e+00 -1.28617680e-01   2.52831660e+00  -8.61861470e-01
C     4.345396493336198e+00   1.581617451754980e+00   3.816393300000000e+00  1.82342519e+00  -3.78418896e+00  -3.22609700e-02
C     5.718394563660345e+00   1.914744421850190e+00   3.903502800000000e+00  6.46693240e-01   1.57753583e+00  -5.50748050e-01
C     6.796193056559130e+00   1.005995600765811e+00   3.822851100000000e+00 -1.20827870e+00  -2.82449366e+00   7.20854460e-01
C     8.146234061644630e+00   1.343588501009628e+00   3.843616500000000e+00  6.26631360e-01  -1.18443391e+00  -1.89177700e-01
C     1.607103441532798e+00   7.647687170671952e-01   3.718788000000000e+00  5.89567260e-01  -1.52230438e+00   8.04548440e-01
