52
Lattice="8.88768389401873 1.33226762955019e-15 0 4.44384194700937 7.69696003302603 0 0 0 30 " PBC="1 1 1" Properties=species:S:1:pos:R:3:force:R:3 Energy="-419.32666474"
C     1.245739453246717e+01   6.630394818639710e+00   1.672680000000000e-02 -8.40409690e-01   1.42732954e+00  -5.57554510e-01
C     8.635033882056184e+00   6.532465703451616e+00  -2.439090000000022e-02  1.08810498e+00  -1.64944053e+00  -2.11570860e-01
C     1.003061911172738e+01   6.109751814357629e+00  -4.927019999999871e-02 -3.36057100e-02  -4.45520400e-01  -7.74000600e-02
C     1.038263356220540e+01   4.701534403003301e+00  -7.774949999999947e-02 -6.09378450e-01   4.32811070e-01   2.28036520e-01
C     6.261892522824038e+00   5.889995523693098e+00  -3.561660000000089e-02  4.06689670e-01  -1.19260361e+00   3.76979520e-01
C     7.633683645216287e+00   5.515564510928099e+00  -1.066709999999915e-02 -1.21435480e-01  -1.61029990e-01  -1.63617660e-01
C     7.959884040037236e+00   4.121717246980181e+00  -2.622780000000091e-02  2.13803596e+00   1.04212444e+00  -8.31478800e-02
C     9.350201583912153e+00   3.709635553623634e+00  -7.054680000000246e-02 -4.16122930e-01   6.95588700e-01   4.22161700e-02
C     9.698246750345950e+00   2.331385871298109e+00  -9.277110000000022e-02 -4.27115000e-01   4.15669020e-01   3.17986610e-01
C     3.924822095305724e+00   5.271774308630692e+00  -7.099739999999954e-02 -1.40729712e+00  -1.00151886e+00   4.86423630e-01
C     5.272889856322859e+00   4.853360403227065e+00  -4.976729999999918e-02 -1.39268630e-01   1.73615063e+00  -4.30807920e-01
C     5.618235033286338e+00   3.503783898222897e+00  -1.268637000000012e-01 -2.49851950e-01   6.23247400e-01   3.02655730e-01
C     6.975238293974045e+00   3.148860214897132e+00  -5.167289999999980e-02 -5.75289090e-01  -6.37975710e-01  -1.16754400e-01
C     7.304933770510102e+00   1.794059167363802e+00  -2.559270000000069e-02 -1.73950100e-02  -2.36741577e+00  -4.19206560e-01
C     8.672149646510409e+00   1.357083196182225e+00  -3.045960000000036e-02 -4.95351840e-01  -6.45648190e-01   2.24792420e-01
C     2.858197819497244e+00   4.280799171424226e+00  -8.784389999999931e-02  4.95543190e-01   9.79890470e-01  -5.53214870e-01
C     3.203738881002763e+00   2.914448989305081e+00  -1.892280000000000e-01  2.89075290e-01   1.21707600e-01   6.26734890e-01
C     4.597399571647221e+00   2.557629082906324e+00  -1.895364000000015e-01 -1.32386291e+00  -1.34824357e+00   5.34260300e-02
C     4.915624292265967e+00   1.172131866046951e+00  -1.604729999999996e-01 -1.70005283e+00  -6.26471030e-01   3.40767510e-01
C     6.249288139524097e+00   7.755200617459002e-01  -8.244360000000128e-02  2.39759603e+00  -3.89987470e-01   1.45337890e-01
C     1.108714209038846e+01   7.066530589664411e+00  -5.602830000000125e-02 -8.67296220e-01   3.76074670e-01   3.19594570e-01
C     2.165299894927571e+00   1.931214146013583e+00  -1.083204000000002e-01  4.67955800e-02   8.45213480e-01  -2.69888270e-01
C     2.458389578948810e+00   5.760494940884351e-01  -5.088689999999829e-02  9.33287730e-01  -1.67076029e+00  -1.90150690e-01
C     3.824933012813305e+00   1.811075452658925e-01  -8.272799999999947e-02  1.29335084e+00   1.25528187e+00  -9.54953800e-02
C     4.569278187671400e+00   7.645734297973140e+00   2.168010000000000e-02 -1.42513379e+00   6.12405230e-01  -2.38517530e-01
C     5.889921266953933e+00   7.237098379682823e+00  -7.912199999999814e-03  1.53366505e+00   1.60199244e+00  -3.06189300e-02
C     9.202025278121813e-01   1.041170092346109e+00   3.503319900000000e+00 -7.46962460e-01  -1.31018880e-01  -4.54074100e-02
C     3.302278230447205e+00   4.097227290465528e-01   3.439375800000000e+00 -1.83808400e-02   9.98141080e-01   2.52479430e-01
C     4.672690118121831e+00   8.155257042282277e-01   3.401209500000000e+00 -5.72229350e-01  -2.03172470e-01   1.50656580e-01
C     1.010235565319873e+01   7.493649602922768e+00   3.441436800000000e+00  7.72919220e-01   1.40293749e+00  -4.92156700e-01
C     7.035069913375453e+00   2.000680056949936e-01   3.406655100000000e+00  4.01170800e-01  -2.37283850e-01   2.12685060e-01
C     1.255768160235061e+01   6.958834647955051e+00   3.423233700000000e+00 -7.69957850e-01  -4.58113700e-02   1.97312700e-01
C     5.027386210190569e+00   7.364432730060727e+00   3.468763200000000e+00 -1.61603370e-01  -5.40146730e-01  -5.04287200e-02
C     6.036584581659330e+00   6.357123104278594e+00   3.480459300000000e+00  2.50079550e-01   1.49939250e-01   4.67831590e-01
C     7.402377762192691e+00   6.738711058357888e+00   3.502773600000000e+00  3.17590700e-02  -4.83233890e-01  -3.43990590e-01
C     8.416093787816630e+00   5.724430680724585e+00   3.504189300000000e+00 -5.36866950e-01   5.60142570e-01  -6.38883000e-03
C     9.752975021609712e+00   6.141160260364848e+00   3.447720300000000e+00  1.12306408e+00  -3.00502400e-02   1.24467080e-01
C     1.082314161590005e+01   5.211348015431972e+00   3.423834000000000e+00 -1.95254820e-01  -1.26555940e+00   4.73778490e-01
C     3.325190282938320e+00   5.595119366162976e+00   3.444181800000000e+00 -1.49287780e-01  -1.30198306e+00  -5.16230900e-02
C     4.359141920556588e+00   4.578250423901983e+00   3.491967900000000e+00 -1.50995150e+00  -5.48721900e-02  -5.71654260e-01
C     5.711535451168615e+00   4.976283010054972e+00   3.526472400000000e+00 -4.09301900e-02  -7.13873010e-01  -4.02531110e-01
C     6.719197941973567e+00   3.952380585718567e+00   3.507177600000000e+00  4.34577180e-01   7.66348590e-01   1.80044150e-01
C     8.092363989565358e+00   4.350353366492123e+00   3.536820600000000e+00 -1.48179798e+00   3.89976890e-01   4.61232900e-02
C     9.091294375419768e+00   3.377194921454299e+00   3.569982000000000e+00  5.42651160e-01   4.91080330e-01  -5.28306160e-01
C     1.043498126430032e+01   3.833234569298979e+00   3.495581100000000e+00  2.18537225e+00  -1.51665922e+00  -2.73322860e-01
C     2.599787653986080e+00   2.808704226963326e+00   3.425779200000000e+00 -9.33525400e-02   6.13572630e-01   3.61128580e-01
C     3.980540406288046e+00   3.188191988528833e+00   3.389991600000000e+00  3.15004760e-01   4.94405660e-01   4.88672230e-01
C     5.019326455135827e+00   2.195901056005238e+00   3.383504100000000e+00 -5.68233360e-01   2.06709100e-02   2.31727530e-01
C     6.387498690892093e+00   2.576305371571118e+00   3.457237800000000e+00 -7.01410250e-01  -3.69239000e-03  -2.14021280e-01
C     7.381856274479730e+00   1.559231767142928e+00   3.442528200000000e+00  7.78736680e-01   1.59396628e+00   2.99277820e-01
C     8.753975041875879e+00   2.011905380427288e+00   3.519897900000000e+00  9.03094900e-02  -1.32661086e+00  -9.42966500e-02
C     2.273231972192601e+00   1.417750943017086e+00   3.485494500000000e+00  6.13523340e-01   3.55846240e-01  -4.36113140e-01
