64
Lattice="9.86 0 0 4.93 8.53901048131456 0 0 0 30 " PBC="1 1 1" Properties=species:S:1:pos:R:3:force:R:3 Energy="-506.86836258"
C     5.070135743000000e+00   8.044087895557313e+00   7.515360000000000e-02 -5.58691899e+00  -1.24266910e+00   3.37998570e-01
C     1.270262715400000e+00   1.789820999462496e-01  -1.838700000000415e-03  5.14738859e+00   3.97226424e+00  -6.67288010e-01
C     9.749206581699999e+00   4.862495968882552e-01   3.613048200000000e+00  6.31622570e-01  -5.90405480e-01  -2.43314590e-01
C     1.158750059400000e+00   1.062386453835907e+00   3.406371000000000e+00 -3.29430390e-01   4.34788516e+00   7.51354610e-01
C     7.500823633200000e+00   8.045078079212574e+00  -7.764000000001658e-03 -2.30094362e+00   1.92093079e+00   7.27868370e-01
C     3.767339711100000e+00   2.760068626955640e-01   4.094100000000000e-03  1.19668260e-01  -2.16618689e+00  -1.06486756e+00
C     2.378204934300000e+00   4.431484291498264e-01   3.875645400000000e+00  1.75692030e-01   3.26220003e+00  -2.47073312e+00
C     3.633398759599999e+00   1.225774612843581e+00   3.748669200000000e+00 -2.19573794e+00   9.39273100e-02   6.98338770e-01
C     9.889800321699999e+00   8.133855182519467e+00  -1.744497000000003e-01  3.66587341e+00  -2.91428405e+00  -7.78185940e-01
C     6.287721359100000e+00   2.776306409284408e-01  -2.094315000000009e-01 -1.98989392e+00  -3.60188526e+00   7.46077310e-01
C     4.835037501900000e+00   5.257744562574503e-01   3.905482500000001e+00  7.71088190e-01  -3.93163860e-01  -1.47675263e+00
C     6.056053362699999e+00   1.233569106999830e+00   3.733298700000000e+00  1.19980000e+00   1.58547060e-01  -8.28455200e-02
C     1.240333937620000e+01   7.993472740156904e+00  -1.691369999999992e-01  1.31953794e+00   4.83026577e+00   1.24069642e+00
C     8.707028886600000e+00   2.643172135187584e-01   1.987206000000000e-01  1.02772485e+00  -3.78173193e+00  -2.36760773e+00
C     7.317695135000000e+00   4.846791874708784e-01   3.620558700000000e+00 -3.41998995e+00  -1.52543845e+00   3.76994950e-01
C     8.488175636399999e+00   1.169106836034738e+00   3.535484100000000e+00  3.06624579e+00   1.57496648e+00  -8.94976780e-01
C     1.331742329700000e+00   1.683816784072623e+00  -2.568653999999988e-01  1.85222579e+00  -1.72774977e+00  -1.60947810e-01
C     2.625464598000000e+00   2.360490925730538e+00  -6.078654000000014e-01 -3.01553755e+00   9.51821000e-03   1.33097155e+00
C     1.099664167160000e+01   2.616924753993950e+00   3.056260200000000e+00  1.46880850e-01  -3.17472593e+00   1.61288721e+00
C     2.332350462000000e+00   3.315512814417003e+00   3.207714300000000e+00  1.34874188e+00   4.84454350e-01   2.05757700e-02
C     3.854626149900000e+00   1.627248742906186e+00  -2.628197999999990e-01 -3.91702165e+00   2.95899152e+00  -1.55754967e+00
C     4.995101882500000e+00   2.352185969527794e+00  -3.451746000000000e-01  5.05027593e+00   1.24213847e+00   8.41589120e-01
C     3.576980431200000e+00   2.637858650526300e+00   3.532571700000000e+00  1.11470886e+00  -3.14957800e-02  -1.09787617e+00
C     4.848493641099999e+00   3.398448380654527e+00   3.510839100000000e+00 -5.05650100e-01  -6.45738265e+00   1.33318519e+00
C     6.300788028300000e+00   1.641334694593994e+00  -8.290709999999990e-02 -2.60062243e+00   1.35902557e+00  -4.15331690e-01
C     7.482606297199999e+00   2.297548854801200e+00   9.286560000000001e-02  2.44351239e+00   5.04631120e+00  -3.36649950e-01
C     6.087140020000000e+00   2.697616524447645e+00   3.716279100000000e+00 -3.98382270e-01  -3.56398306e+00  -6.84651540e-01
C     7.393322320999999e+00   3.260299060312694e+00   3.736700400000000e+00 -2.18356725e+00   2.26893910e+00   4.04686730e-01
C     8.748840216600000e+00   1.653494501687829e+00   1.557759000000000e-01 -2.27618160e-01   3.15987510e-01  -5.77771730e-01
C     9.996237838499999e+00   2.377231911946892e+00  -1.512597000000007e-01 -1.49692021e+00   1.30428638e+00   2.74456580e-01
C     8.566640727599999e+00   2.612404543406258e+00   3.417702300000000e+00  3.84381790e-01  -1.17206118e+00   1.04600740e-01
C     9.777985653899998e+00   3.358223151645762e+00   3.123381300000000e+00 -5.20836490e-01  -2.40838878e+00   8.45986800e-01
C     2.503480178300000e+00   3.828108845020460e+00  -9.107283000000024e-01  4.02081125e+00  -3.23836780e+00   1.48812922e+00
C     3.801783402600000e+00   4.492985660579416e+00  -7.906593000000015e-01  1.39840053e+00   7.40962980e-01   1.30201946e+00
C     1.220327051060000e+01   4.754908364779372e+00   3.182841600000000e+00  2.57341142e+00   9.16519980e-01   9.87794420e-01
C     3.668695094600000e+00   5.437114333596546e+00   3.555089700000000e+00 -4.68785377e+00   1.46308877e+00  -9.92646610e-01
C     5.107203821400000e+00   3.805678145341072e+00  -4.692320999999993e-01 -3.67825454e+00  -2.14092229e+00  -1.19135730e-01
C     6.267654582900000e+00   4.474676399698305e+00  -6.570419999999899e-02 -2.17362980e-01   1.53043848e+00  -4.53852160e-01
C     4.824990211199999e+00   4.694797317384575e+00   3.711378900000000e+00  4.75899130e-01   4.91224762e+00   6.20791650e-01
C     5.985457488200000e+00   5.371194197372203e+00   4.086244200000000e+00  4.22849222e+00   2.41133760e+00   1.75113080e-01
C     7.543317916099999e+00   3.850552609385883e+00   3.496290000000001e-02 -2.75638507e+00  -4.64568106e+00   2.28702250e-01
C     8.726407730600000e+00   4.524920364313148e+00  -1.140305999999995e-01  8.77655490e-01  -1.94536000e-02  -2.94311150e-01
C     7.359932860700000e+00   4.635049092545071e+00   4.074729300000000e+00 -1.84584574e+00   2.62024964e+00  -1.88799823e+00
C     8.518829094599999e+00   5.402431947070559e+00   3.809405700000000e+00  2.61627995e+00   1.14087939e+00  -6.38636900e-01
C     9.950032498100001e+00   3.817401608999378e+00  -3.355079999999973e-01  1.55333241e+00  -2.59527720e-01  -5.64675330e-01
C     1.119965424020000e+01   4.533117131253110e+00  -7.335464999999992e-01 -3.53995230e+00   2.95980330e-01   8.80527620e-01
C     9.788503414499999e+00   4.737603462310919e+00   3.264976800000000e+00 -2.28242010e+00   2.22962231e+00   1.36852532e+00
C     1.099565438980000e+01   5.511700711557039e+00   3.178110000000000e+00 -6.52283890e-01  -9.97848220e-01   8.06689000e-01
C     3.802959947100000e+00   5.884700998833456e+00  -5.183052000000004e-01 -5.12746930e-01   1.61204342e+00   6.31769030e-01
C     5.014701146800000e+00   6.580523017591723e+00  -7.075950000000120e-02 -4.83442806e+00   2.45898258e+00  -8.29263000e-01
C     1.343108824310000e+01   6.885664813264837e+00   3.691400400000000e+00  2.15658068e+00  -1.60554765e+00  -3.37347000e-03
C     4.825535222700000e+00   7.657442440314067e+00   3.915827400000000e+00 -7.88535800e-01  -2.98487052e+00  -3.61061700e-01
C     6.116542490700000e+00   5.907384026272529e+00   6.694050000000000e-02  7.24742156e+00  -1.62134167e+00  -1.76316100e-01
C     7.418414196899999e+00   6.677773380997920e+00   7.853790000000001e-02  9.41823000e-01  -3.29449222e+00  -7.76137420e-01
C     6.041071930799999e+00   6.886518970483152e+00   4.142814900000000e+00  3.62095360e-01  -7.73865260e-01  -1.26634131e+00
C     7.339995102600000e+00   7.629500150930258e+00   4.030078500000000e+00 -1.12888717e+00  -4.06113870e+00   1.22578023e+00
C     8.633866749899997e+00   5.915708878369690e+00  -1.836684000000020e-01  2.55486149e+00   2.54526279e+00   2.57292250e-01
C     9.957009335499999e+00   6.642996211455604e+00  -3.979673999999989e-01 -3.29108446e+00   1.81568744e+00   1.23355134e+00
C     8.591000942199999e+00   6.884124631944561e+00   3.943976400000000e+00 -2.42605691e+00  -1.26352453e+00  -1.58026770e-01
C     9.749387118300000e+00   7.628552576937292e+00   3.785723700000000e+00  1.83275072e+00  -4.38862790e-01  -3.19579340e-01
C     1.117344448680000e+01   5.983740626495631e+00  -6.518723999999985e-01  2.62169840e-01  -8.81636940e-01   2.06391820e-01
C     1.242453329830000e+01   6.670388161613976e+00  -5.124618000000005e-01  4.42607830e-01  -2.46579473e+00  -1.96284400e-01
C     1.098044529050000e+01   6.910740983781034e+00   3.475131300000000e+00 -2.15885377e+00  -1.19669597e+00  -1.30503470e-01
C     1.218720092910000e+01   7.510228704177400e+00   3.529170300000000e+00  2.48832948e+00   4.88113663e+00   1.01208807e+00
