64
Lattice="9.86 0 0 4.93 8.53901048131456 0 0 0 30 " PBC="1 1 1" Properties=species:S:1:pos:R:3:force:R:3 Energy="-512.11459954"
C     4.951992631400000e+00   8.249151719893884e+00  -6.086919000000002e-01  1.93451376e+00  -1.91763742e+00  -2.78858310e-01
C     1.264338038600000e+00   3.729231800117824e-01  -5.560121999999978e-01  1.03745032e+00   1.09400228e+00  -1.69145413e+00
C     9.857307036800000e+00   3.331392470646240e-01   3.949469400000000e+00 -2.47116538e+00  -7.36669930e-01   1.48951040e+00
C     1.164804740300000e+00   1.055175686436071e+00   4.077017400000000e+00  1.04199789e+00   2.66998231e+00  -5.55782190e-01
C     7.457492926500000e+00   8.230502264835250e+00  -6.618720000000025e-01 -1.96831940e-01  -1.83148079e+00  -1.66363730e-01
C     3.773857614800000e+00   3.871821320519152e-01  -7.705191000000013e-01 -5.56266240e-01  -4.51014600e-01   1.63454894e+00
C     2.407162373900000e+00   3.981469900191784e-01   4.121688600000000e+00 -5.84384100e-02  -1.99605899e+00   5.92660060e-01
C     3.658731318100000e+00   1.024178395272833e+00   4.092685200000000e+00  8.03421350e-01   1.04396058e+00  -8.52063690e-01
C     9.923501505899999e+00   8.190764100984264e+00  -6.078086999999996e-01  1.63660590e-01   9.52020420e-01  -1.30990915e+00
C     6.223799866500000e+00   3.489194238217688e-01  -6.478436999999992e-01  4.16585920e-01   2.22224922e+00   4.34856130e-01
C     4.881558017200000e+00   2.677280358648896e-01   3.989389800000000e+00  4.29738200e-02   7.93397940e-01   1.46177143e+00
C     6.086850086700000e+00   1.018721626015693e+00   4.080696600000000e+00  6.66091300e-02   1.45673038e+00  -2.08760430e-01
C     1.238548188090000e+01   8.231402788880471e+00  -6.309086999999991e-01 -2.74722330e-01  -1.98962930e+00  -5.55201410e-01
C     8.672805023799999e+00   4.196968053774496e-01  -6.925929000000011e-01 -7.56916760e-01  -3.29765021e+00   1.03995337e+00
C     7.348606136400000e+00   3.057223629956496e-01   4.065511200000000e+00 -4.22744400e-01   1.78598239e+00   6.75885630e-01
C     8.596050198899999e+00   1.004429542614898e+00   4.088762700000000e+00 -9.66820020e-01   2.36406043e+00  -1.10073593e+00
C     1.283464368000000e+00   1.806187037728674e+00  -7.227363000000011e-01  2.88443390e-01  -5.13287790e-01   1.33413011e+00
C     2.534317131100000e+00   2.492717076062814e+00  -6.545196000000004e-01  7.09825700e-02   1.85722712e+00  -1.25451774e+00
C     1.099120496620000e+01   2.538770777454912e+00   4.042449600000000e+00  2.17743937e+00  -3.40790998e+00  -3.54783700e-01
C     2.411493921200000e+00   3.192770857634759e+00   3.989480400000000e+00 -9.86049200e-02  -1.79433421e+00   2.05024500e-02
C     3.791759874500000e+00   1.823690045240263e+00  -7.173891000000019e-01 -3.16886428e+00  -2.75990128e+00   3.04366380e-01
C     4.942841072400000e+00   2.492912192452282e+00  -6.495782999999982e-01  4.74847510e+00   1.76527238e+00   6.56505900e-02
C     3.678009540800000e+00   2.461553359585320e+00   4.011788700000000e+00 -3.20807019e+00  -5.39905330e-01   2.09056190e-01
C     4.813051673900000e+00   3.218422813627622e+00   4.028264700000000e+00  2.39223479e+00   3.19108010e-01   4.36477680e-01
C     6.263589896499999e+00   1.797201693170884e+00  -6.205983000000010e-01 -2.51303471e+00  -2.46065230e-01  -2.81629240e-01
C     7.474856731599999e+00   2.532725328815281e+00  -6.065021999999978e-01 -2.16728290e+00  -1.89760221e+00  -9.10259500e-02
C     6.012438047099999e+00   2.494715375295343e+00   4.154538000000001e+00  3.10288603e+00  -1.18172248e+00  -1.32132499e+00
C     7.323541622000000e+00   3.211130071727177e+00   4.071503400000000e+00 -2.35275775e+00  -1.29789197e+00   8.73627740e-01
C     8.655264971199999e+00   1.754823011109168e+00  -6.214694999999999e-01  1.92745173e+00   4.78683179e+00  -3.48675300e-01
C     9.911359852599999e+00   2.501388526595358e+00  -6.800333999999992e-01 -5.05377570e-01  -1.05674385e+00   6.04812120e-01
C     8.509093774300000e+00   2.499813335332113e+00   4.061397599999999e+00  2.35579856e+00  -2.76104723e+00  -1.30185260e-01
C     9.780233290200000e+00   3.190348340361582e+00   3.999828600000000e+00 -1.40015832e+00   9.00635800e-02   5.12353240e-01
C     2.549016517700000e+00   3.937668618984100e+00  -7.353789000000006e-01 -9.26175650e-01   5.01045900e-01   4.41123910e-01
C     3.846642754399999e+00   4.728709655945475e+00  -6.914799000000009e-01 -5.05171147e+00  -3.89244249e+00   4.78891120e-01
C     1.228927899480000e+01   4.564111860713204e+00   3.935233500000000e+00  6.34569250e-01   3.02974037e+00   1.01381280e+00
C     3.656601706000000e+00   5.376652332871019e+00   4.070167800000000e+00 -1.14154382e+00  -3.65643476e+00  -8.81203500e-01
C     4.956307712500000e+00   3.925304644149689e+00  -6.462897000000005e-01  2.14015603e+00   2.61078280e-01  -1.00664662e+00
C     6.186483759800000e+00   4.639124847637280e+00  -7.947701999999985e-01 -1.89312510e-01  -3.80665350e-01   1.76469676e+00
C     4.884964302100000e+00   4.662386563816582e+00   4.045768200000000e+00 -2.88830505e+00  -1.81196722e+00  -2.61404700e-02
C     6.064328269100001e+00   5.304524762978241e+00   4.106491500000001e+00  3.57586403e+00   1.51372850e+00   7.32203490e-01
C     7.365790045800000e+00   3.923924483885806e+00  -6.484884000000015e-01  3.76028518e+00   6.16815510e-01  -3.12445710e-01
C     8.666634340000000e+00   4.579711778959117e+00  -6.170640000000027e-01 -1.43716664e+00   2.94503796e+00   2.58943880e-01
C     7.335472862900000e+00   4.608576110694556e+00   4.123085100000000e+00 -1.04310114e+00   7.95554180e-01  -5.51096660e-01
C     8.533471638300000e+00   5.343299043326244e+00   4.065976200000001e+00  1.86234794e+00  -1.78869602e+00   4.33729010e-01
C     9.874439427700000e+00   3.902254610040186e+00  -5.837967000000006e-01  1.20476945e+00   1.68764100e-02  -1.37005574e+00
C     1.109540756610000e+01   4.629287992954425e+00  -7.607907000000012e-01  3.25568766e+00  -8.50339110e-01   7.43535440e-01
C     9.823570356599999e+00   4.574071079416239e+00   4.041350100000000e+00 -1.70822533e+00   2.89055042e+00  -6.99092320e-01
C     1.106412129310000e+01   5.295688765713747e+00   3.978574800000001e+00 -5.55022670e-01  -2.11023884e+00   4.19628700e-02
C     3.777266019600000e+00   6.081757366092408e+00  -5.539485000000006e-01  1.19731171e+00   2.55177418e+00  -1.72693495e+00
C     5.033306572400000e+00   6.805698431751419e+00  -6.689168999999993e-01 -1.63053386e+00   2.96607050e-01   1.00184995e+00
C     1.346389892140000e+01   6.730566069460833e+00   4.089969000000000e+00  1.51023864e+00   2.96644587e+00  -1.51632810e-01
C     4.881734708400000e+00   7.441364402529658e+00   4.026597600000000e+00 -4.28486810e-01  -3.68442900e-02   7.39867670e-01
C     6.253502574200000e+00   6.057309495967329e+00  -7.125108000000004e-01 -1.52335456e+00   3.30591220e-01  -3.65310460e-01
C     7.467151289499999e+00   6.734352522877979e+00  -6.993785999999993e-01  1.87647101e+00   2.44051922e+00   6.88575520e-01
C     6.093376667199999e+00   6.729151667764926e+00   4.198969200000001e+00  6.87905950e-01   1.22999019e+00  -8.35176850e-01
C     7.343474006400000e+00   7.507843331599811e+00   4.245960300000000e+00 -6.49474010e-01  -1.60780785e+00  -1.23558863e+00
C     8.732493963500000e+00   6.052497336611326e+00  -6.105170999999991e-01 -3.18983350e-01  -5.39719960e-01  -8.74096480e-01
C     9.995895597899999e+00   6.806449608503345e+00  -6.582273000000001e-01 -1.85058787e+00  -2.79732683e+00  -6.78591500e-02
C     8.559636331499998e+00   6.741735351338987e+00   4.112090700000000e+00 -1.52855900e-02   7.59797800e-01   4.12175770e-01
C     9.836657879700001e+00   7.377150787549743e+00   4.068326400000000e+00 -1.70102363e+00   1.23272527e+00  -6.72491020e-01
C     1.122862365970000e+01   6.036178433682998e+00  -7.804932000000022e-01 -3.54158044e+00   1.13271422e+00   1.11322549e+00
C     1.238217646380000e+01   6.777452922105466e+00  -6.621629999999996e-01  2.55646256e+00   7.04085770e-01   2.62532460e-01
C     1.104096049820000e+01   6.674680807572377e+00   4.010026200000000e+00  8.16971400e-01   2.23556266e+00   7.68178220e-01
C     1.224645326800000e+01   7.466548335358111e+00   4.130232599999999e+00  1.64450900e-02  -2.50434584e+00  -1.30378354e+00
