64
Lattice="9.86 0 0 4.93 8.53901048131456 0 0 0 30 " PBC="1 1 1" Properties=species:S:1:pos:R:3:force:R:3 Energy="-508.5128123"
C     5.011904308500000e+00   8.497073777120729e+00  -3.850985999999992e-01 -4.00675392e+00   8.72377780e-01  -6.20641990e-01
C     1.237318335500000e+00   7.266365750972328e-01  -4.783448999999997e-01  5.36715660e-01  -9.20356330e-01   1.21115785e+00
C     1.279860636600000e+00   7.343458499288912e-01   3.709478100000000e+00 -2.33650896e+00   9.40822780e-01  -6.39627170e-01
C     2.479023631500000e+00   1.419967166767750e+00   3.725608800000000e+00 -1.51634084e+00   1.35156225e+00   5.06810180e-01
C     2.453615052400000e+00   6.950703296657119e-02  -4.313079000000002e-01  2.52430501e+00  -5.67279991e+00  -9.20249840e-01
C     3.755660984800000e+00   6.044178034870976e-01  -3.469964999999995e-01 -9.14108070e-01   4.74890088e+00   1.99922188e+00
C     3.629019785700000e+00   7.746905396942712e-01   3.552030000000000e+00  5.91344700e+00  -9.83806220e-01  -7.98972940e-01
C     4.895465990900000e+00   1.551499522498526e+00   3.503337600000000e+00 -5.18926340e-01  -2.03398478e+00   8.62133760e-01
C     9.939368020700000e+00   8.512219249228895e+00  -1.689761999999995e-01 -1.97464816e+00  -5.62246310e-01  -6.83589140e-01
C     6.248003208500000e+00   7.445295592174440e-01  -1.866120000000002e-01 -1.69655694e+00  -5.05066208e+00  -4.10008680e-01
C     6.091055968299999e+00   7.002351501545400e-01   3.491874300000000e+00 -8.45669250e-01   4.48283707e+00  -8.94775020e-01
C     7.269488165299999e+00   1.423973670484966e+00   3.422132400000000e+00  5.78864313e+00  -1.33547500e-02   1.40965809e+00
C     1.236270577390000e+01   8.507022407450767e+00  -2.405453999999985e-01  8.50629770e-01  -1.26549567e+00   1.37314899e+00
C     8.647477641800000e+00   6.655366248987457e-01  -4.022046000000010e-01  8.34908720e-01   6.90115320e-01   8.49624420e-01
C     8.620279078299999e+00   6.962665596438552e-01   3.536260200000000e+00 -6.68823600e-02   3.80585278e+00  -3.61189560e-01
C     9.948504592499999e+00   1.490622184303252e+00   3.681717900000000e+00 -5.12097930e+00  -1.79412596e+00  -6.79721330e-01
C     1.103929943330000e+01   2.081404725075676e+00  -1.670157000000003e-01  1.50294678e+00   7.62801040e-01  -6.90505040e-01
C     2.412443882900000e+00   2.774149711407475e+00   4.737630000000000e-02  2.64114648e+00  -1.88194143e+00   4.13595200e-02
C     2.463213022900000e+00   2.810182115490349e+00   3.881932500000000e+00  2.70124310e-01   3.42716135e+00   7.03074500e-02
C     3.622162352900000e+00   3.681354678427826e+00   3.825724800000000e+00  3.51463228e+00  -2.99025781e+00  -8.23911310e-01
C     3.721816682699999e+00   2.080049413332290e+00  -4.295129999999858e-02  1.71096630e-01  -1.08392909e+00  -1.81475860e+00
C     4.982728519200000e+00   2.790343005491641e+00  -1.767609000000014e-01 -3.17219869e+00   9.61937170e-01   4.28537900e-01
C     4.981539255300000e+00   2.991658801958226e+00   3.651786300000000e+00 -4.34606189e+00  -3.43464270e+00   4.03335120e-01
C     6.214001836600000e+00   3.567636150190112e+00   3.653176800000000e+00 -1.02990130e+00   2.47616950e+00  -1.42354975e+00
C     6.173660386100000e+00   2.078663190370967e+00  -3.530607000000003e-01 -3.02807480e-01   1.92252484e+00   3.42915770e-01
C     7.359788855399999e+00   2.779192082486019e+00  -4.374018000000000e-01  1.94170772e+00   6.10508540e-01   4.59830430e-01
C     7.407025896899999e+00   2.836528378425342e+00   3.520624800000000e+00 -7.21055740e-01   1.67597466e+00   3.64243670e-01
C     8.597895497900000e+00   3.672865194208610e+00   3.616715700000000e+00  8.94381130e-01  -3.36848133e+00  -1.45774770e+00
C     8.584339033199999e+00   2.129335813311907e+00  -3.642672000000005e-01  2.04313190e+00  -2.79627769e+00  -9.84762780e-01
C     9.862936948899998e+00   2.782443993847118e+00  -2.646210000000018e-01 -1.83298647e+00   1.97813798e+00   1.26889480e+00
C     9.810124225299999e+00   2.902237088750199e+00   3.676503900000000e+00  2.06505321e+00  -1.01052350e-01   1.45090993e+00
C     1.109288710360000e+01   3.526249615756067e+00   3.931482000000000e+00 -1.77211198e+00   1.81563157e+00  -1.58547537e+00
C     2.518759973800000e+00   4.108094545039285e+00   2.889489000000000e-01 -1.50121669e+00   6.06877791e+00  -9.77394750e-01
C     3.816074190800000e+00   4.941528951160402e+00   1.224912000000000e-01 -4.00996913e+00  -1.87371880e+00   6.75333340e-01
C     3.713233651300000e+00   5.073024503756009e+00   3.725699400000000e+00 -1.54336114e+00  -2.17827230e-01   2.26335440e-01
C     4.963087842900000e+00   5.749577135294794e+00   3.566011200000000e+00 -3.04448399e+00   9.12426480e-01   1.42254480e-01
C     4.965956609900000e+00   4.257069110527033e+00  -1.534881000000006e-01  2.30597462e+00  -2.90679392e+00   5.62708090e-01
C     6.233227505499999e+00   4.890843178143323e+00  -2.466279000000000e-01 -2.01342571e+00   2.46949956e+00  -1.71678205e+00
C     6.090896236299999e+00   5.008528503699521e+00   3.482416200000000e+00  4.37672424e+00  -8.76824500e-01   1.00137336e+00
C     7.316374881000000e+00   5.708550690932690e+00   3.433096500000000e+00  1.89065450e+00   2.81164431e+00  -1.36852551e+00
C     7.437918607999999e+00   4.166567468663600e+00  -3.775569000000019e-01 -2.11256666e+00   1.09673265e+00   1.85363960e-01
C     8.611044744600001e+00   4.883540530990722e+00  -2.662821000000015e-01  2.03990163e+00  -2.22272300e-01   7.65477140e-01
C     8.625147897000000e+00   5.071912126860779e+00   3.393250200000000e+00 -2.99181875e+00  -9.57400890e-01   1.85598664e+00
C     9.813637392600000e+00   5.754207242947364e+00   3.556641300000000e+00  3.09150921e+00  -2.99160060e-01  -3.40473570e-01
C     9.864593379599999e+00   4.213156139062271e+00  -3.929639999999779e-02  3.77555780e-01   2.35376460e-01  -5.26492040e-01
C     1.106222072880000e+01   4.955860655569824e+00   2.247645000000000e-01  1.98406177e+00  -5.50796480e-01  -4.45556620e-01
C     1.103017360890000e+01   4.963080815881187e+00   3.806208000000000e+00  2.55510679e+00   1.93426640e+00  -4.79918720e-01
C     1.234357604280000e+01   5.740892022345480e+00   3.720169200000000e+00 -3.27027036e+00   1.31909464e+00   3.53566080e-01
C     3.723602378000000e+00   6.333313540789436e+00   9.424589999999999e-02  4.63417600e-01   1.75727419e+00  -1.10894532e+00
C     4.900941347500000e+00   7.105533744751843e+00  -2.977118999999995e-01  1.20792274e+00  -2.33159872e+00   4.17540120e-01
C     4.911651427400000e+00   7.176456801826312e+00   3.542961900000000e+00  1.99707000e-03  -8.87675410e-01  -3.30766450e-01
C     6.116930333799999e+00   7.893152346312833e+00   3.495661200000000e+00  1.73704778e+00  -6.50080790e-01   2.77145150e-01
C     6.114194775400000e+00   6.350262281130768e+00  -4.634451000000013e-01  2.41767608e+00  -3.76141590e-01   1.23328286e+00
C     7.394364325800000e+00   7.054241189650054e+00  -5.126357999999982e-01 -1.46356747e+00   1.18333113e+00   1.13305094e+00
C     7.357158256700000e+00   7.189024261280461e+00   3.370443900000000e+00  1.42734908e+00  -1.70320391e+00   7.88261660e-01
C     8.686966941800000e+00   7.888560237256899e+00   3.416597400000000e+00 -2.74114937e+00  -3.46506900e-01  -3.53480320e-01
C     8.576664797999999e+00   6.266586638854942e+00  -2.314362000000010e-01  9.78316130e-01   4.64467627e+00  -8.67554310e-01
C     9.811188513699999e+00   7.099990731488855e+00  -9.506370000000075e-02  2.07348280e+00  -1.16634927e+00   3.23891010e-01
C     9.939950598799999e+00   7.179397466255415e+00   3.393087300000000e+00 -4.32013193e+00  -1.77597368e+00   7.46823940e-01
C     1.110133396840000e+01   7.873112484177740e+00   3.471685800000000e+00 -6.31552120e-01   9.52011900e-02   3.55353650e-01
C     1.109921446280000e+01   6.476077257004555e+00   1.293663000000000e-01 -2.21587878e+00  -5.26457207e+00   4.40635000e-01
C     1.235267263230000e+01   7.028814151193234e+00   1.178676000000000e-01  2.92863720e-01   3.91430251e+00  -1.39021024e+00
C     1.228294202210000e+01   7.226654997344983e+00   3.617704800000000e+00  2.07750242e+00  -4.53316893e+00  -4.37110040e-01
C     1.351968586470000e+01   7.864222776537328e+00   3.532628100000000e+00  1.28391501e+00  -8.08053800e-02   6.31109100e-01
