76
Lattice="10.7446858958278 0 0 5.37234294791388 9.3051709414712 0 0 0 30 " PBC="1 1 1" Properties=species:S:1:pos:R:3:force:R:3 Energy="-603.44566941"
C     3.313318913314085e-01   1.742011746506460e-02  -6.744477000000018e-01  4.90499430e-01   6.21406868e+00   4.58434400e-02
C     1.273053255495938e+01   8.629882867317107e+00  -4.820777999999990e-01  4.70748210e-01  -3.18547114e+00   8.24505970e-01
C     1.417474861923592e+01   8.394433475660321e+00  -5.752118999999993e-01 -2.93632900e-01   4.25059550e-01  -2.34156820e-01
C     1.472120180101469e+01   7.062201823440777e+00  -3.778140000000008e-01  3.84120470e-01   3.48691465e+00   1.38216340e+00
C     8.459604524110844e+00   9.198080891409660e+00  -1.980611999999979e-01  2.88204301e+00  -2.38044006e+00  -9.36777220e-01
C     9.925359385742521e+00   8.942783197931016e+00  -1.234722000000019e-01 -1.24293277e+00   3.15368696e+00   1.21144800e-02
C     1.049485658792416e+01   7.665645043502768e+00  -7.932209999999884e-02 -1.01361103e+00   2.56981630e-01  -6.79630000e-04
C     1.184104265081718e+01   7.438665776745827e+00  -2.418840000000024e-01  2.88848778e+00   1.41602373e+00  -1.10968850e-01
C     1.240686226935583e+01   6.113459528585983e+00  -9.163560000000004e-02 -1.76032770e-01   2.80128171e+00   9.36531600e-02
C     1.379932021463033e+01   6.083552057822858e+00  -3.175889999999981e-02  1.61331813e+00  -3.97483749e+00  -9.11713670e-01
C     6.192048590499461e+00   8.135131115764230e+00  -3.405191999999992e-01  4.53454084e+00  -2.22419518e+00   1.71138850e-01
C     7.672970220960142e+00   8.007563828848197e+00  -2.383965000000003e-01 -2.94362130e+00   2.39998527e+00   5.05362500e-01
C     8.194187896199878e+00   6.766571424832961e+00  -8.100330000000255e-02  2.65953821e+00  -2.93526144e+00   1.78694125e+00
C     9.631853355270621e+00   6.579647010800924e+00   4.539000000000000e-02 -9.75753840e-01  -1.01238757e+00  -1.60365843e+00
C     1.018149024120499e+01   5.294522879516840e+00  -9.071369999999845e-02 -1.57627445e+00  -4.46443705e+00   1.24488697e+00
C     1.156307988296822e+01   4.998183706038523e+00   8.168400000000001e-03  9.67000000e-03  -5.07037270e-01  -6.14087370e-01
C     1.212703599690780e+01   3.646391188727458e+00  -8.499959999999973e-02  5.75355660e-01   2.54404089e+00  -2.18814460e-01
C     5.423425765493216e+00   7.023093585755598e+00  -1.132589999999993e-01 -1.95631263e+00  -3.03790593e+00   5.66775660e-01
C     6.002880282992106e+00   5.738120849602709e+00   3.150687000000000e-01 -1.14882055e+00  -3.40026950e-01  -3.20918485e+00
C     7.452322508766974e+00   5.562039472111925e+00   1.458582000000000e-01 -3.72274822e+00  -1.33982640e-01  -1.69709883e+00
C     7.898873696261295e+00   4.247847475638632e+00  -2.970132000000021e-01 -4.98346810e-01  -9.43710830e-01   2.17945773e+00
C     9.249932420486530e+00   4.013732538546352e+00  -1.655106000000011e-01  3.41616512e+00   1.83208636e+00  -1.14212991e+00
C     9.822177844704246e+00   2.697478516192754e+00  -3.417492000000024e-01  2.88258843e+00   1.79047294e+00  -8.70730150e-01
C     1.129565195730363e+01   2.572867016825812e+00  -3.924161999999995e-01 -1.15878915e+00  -1.23602733e+00   3.57748380e-01
C     3.647958556199809e+00   4.746000732428626e+00   2.015070000000000e-02 -1.16306109e+00  -3.86171740e-01   6.80711490e-01
C     5.030256004146699e+00   4.603563224040217e+00   9.914969999999999e-02  3.99199802e+00  -9.55337420e-01   1.02237327e+00
C     5.658235457213450e+00   3.236403496076870e+00   1.254450000000000e-02  1.09537253e+00   1.74695431e+00  -1.79174488e+00
C     7.087120036626136e+00   3.033911158855377e+00  -3.810822000000016e-01 -9.84453650e-01   1.04907925e+00   2.55780853e+00
C     7.705803456069355e+00   1.678681311399076e+00  -4.109847000000002e-01 -7.06183950e-01   3.48528806e+00  -1.31211457e+00
C     9.109071576104423e+00   1.544750869439144e+00  -6.195360000000001e-01 -9.51277780e-01  -1.21120252e+00   9.49810920e-01
C     9.711814018376113e+00   2.088942948282138e-01  -6.994307999999982e-01 -3.12610464e+00   8.43969140e-01   1.10353410e-01
C     2.813125687315456e+00   3.544073390105406e+00  -5.806559999999905e-02 -7.14459300e-02   1.23704526e+00  -4.24224870e-01
C     3.423131214914970e+00   2.275891648810327e+00  -2.207742000000010e-01  3.85879990e-01   2.34874298e+00   7.30539310e-01
C     4.809961308608774e+00   2.148578951371213e+00  -1.070925000000003e-01  9.07769290e-01  -2.44879746e+00   1.83908570e-01
C     5.379414457578226e+00   8.113414893927876e-01  -1.451196000000010e-01  1.19599138e+00  -4.24039910e-01  -1.02491791e+00
C     6.837872549291784e+00   6.179608686074511e-01  -3.798858000000003e-01 -2.72649058e+00  -8.86554010e-01   6.95979290e-01
C     1.169412878763331e+00   1.312493523621615e+00  -5.931467999999995e-01  1.22383700e-01  -1.93660137e+00   2.14144670e-01
C     2.630956092139356e+00   1.198112501392947e+00  -4.420311000000012e-01 -4.04014555e+00  -2.43304131e+00   4.93509330e-01
C     1.581433622053046e+01   9.222442945551093e+00   3.197920500000000e+00  1.81769092e+00  -1.96374773e+00   1.23866523e+00
C     1.157438168083213e+01   8.591746368633192e+00   3.243183300000000e+00  7.55507100e-02   1.60252349e+00   1.53369752e+00
C     1.299387868189742e+01   8.768039531814569e+00   3.093153600000000e+00  9.54700810e-01   1.37196094e+00   8.51102380e-01
C     1.386583734163146e+01   7.639509889038719e+00   3.266253600000000e+00  4.47018110e-01   5.82956030e-01   7.75850720e-01
C     7.256167308082856e+00   8.240954265331089e+00   3.508598400000000e+00  4.32241640e+00  -6.47184320e-01  -3.89362900e-01
C     8.751206381347547e+00   8.405260786462685e+00   3.485330700000000e+00 -2.06936605e+00  -1.99959304e+00   1.51101952e+00
C     9.561313901379396e+00   7.182295941471477e+00   3.744627300000000e+00  1.06083940e+00   2.83196554e+00  -1.04805872e+00
C     1.102277384343970e+01   7.372065411518418e+00   3.716920800000000e+00 -7.56778090e-01  -1.85960750e-01  -2.19275265e+00
C     1.190019032010008e+01   6.292591420266026e+00   3.725429100000000e+00 -1.72580413e+00  -3.08657847e+00   1.22178634e+00
C     1.332376380127239e+01   6.374089178064957e+00   3.636101700000000e+00 -2.49932521e+00   2.74085297e+00  -7.32639540e-01
C     4.549161457335320e+00   7.781379502844660e+00   3.363101100000000e+00 -9.53685130e-01   3.93005273e+00  -1.37853641e+00
C     5.361064253210770e+00   6.676733349268798e+00   3.567917100000000e+00  1.45075575e+00  -1.17434160e-01   1.50931703e+00
C     6.803103605294256e+00   6.871495229628468e+00   3.670117800000000e+00 -3.35113773e+00   2.65185306e+00  -1.11582226e+00
C     7.589434693408860e+00   5.760412875416828e+00   3.768037200000000e+00  2.12791963e+00  -1.15039901e+00  -2.72495280e-01
C     8.981395750683921e+00   5.919414797750659e+00   3.799248900000000e+00  1.71037109e+00  -1.86971853e+00   7.33402410e-01
C     9.860225314710441e+00   4.715440503924059e+00   3.919239300000000e+00 -2.56545835e+00   1.41315797e+00  -4.29853710e-01
C     1.122365192453459e+01   4.967648229288656e+00   3.933036600000000e+00  2.22749691e+00   8.95422000e-03   1.15794070e-01
C     1.205101943937905e+01   3.822153491906708e+00   4.050379800000000e+00  2.96575586e+00  -7.95074790e-01   3.10732400e-02
C     3.363508039557568e+00   5.318700132963404e+00   3.926007000000000e+00  1.73860392e+00  -3.93692512e+00   7.20710880e-01
C     4.802100765021482e+00   5.417179269417578e+00   3.926513400000000e+00  2.98587930e-01  -1.35607011e+00  -2.10601058e+00
C     5.689327301078850e+00   4.229953911076140e+00   3.757348200000000e+00 -2.13833720e-01   4.38173300e-01   1.23534558e+00
C     7.121193208488210e+00   4.432364362793361e+00   3.677541300000000e+00 -2.80061212e+00  -8.48288800e-01   2.74124540e-01
C     7.885904699209705e+00   3.243833395917332e+00   3.607357500000000e+00  7.87311340e-01  -9.49415810e-01  -7.52948120e-01
C     9.291947043420723e+00   3.353288912012330e+00   3.816842700000000e+00  1.37572184e+00   2.34459473e+00  -1.08821593e+00
C     1.025308111633496e+01   2.321085468290267e+00   3.564471600000000e+00 -3.33952296e+00  -8.07670580e-01   1.48820436e+00
C     1.160001388117460e+01   2.454209338033120e+00   3.912895200000000e+00 -4.64311050e-01   1.89696155e+00  -2.69606548e+00
C     2.755345225589905e+00   3.997459562554770e+00   4.091529300000000e+00  8.54373410e-01   5.01423180e-01   2.75146250e-01
C     3.676887548516969e+00   2.878095606206530e+00   4.128495000000000e+00  1.03925511e+00  -1.75892525e+00  -2.15973920e+00
C     5.172543044411743e+00   2.886895227209360e+00   3.849855000000000e+00 -2.86793603e+00   2.31127630e+00  -1.28890950e-01
C     5.899060776228517e+00   1.732272024083562e+00   3.430528200000000e+00  1.15248474e+00   1.25137071e+00   4.73688350e-01
C     7.308297676727893e+00   1.909279452186293e+00   3.250355400000000e+00  1.98234420e-01   3.07820542e+00   1.93555956e+00
C     8.209711388600763e+00   8.698564985387213e-01   3.188268300000000e+00 -6.95254210e-01  -3.00023741e+00  -9.59806700e-01
C     9.622512838647461e+00   1.055892547901116e+00   3.289023000000000e+00  1.50375180e-01  -9.24259200e-01  -5.88550470e-01
C     1.709751259796411e+00   1.424511683793489e+00   3.454024500000000e+00  2.56856055e+00   3.46522670e-01   3.38836082e+00
C     3.147250606023141e+00   1.593255096532697e+00   3.804395100000000e+00 -1.51734596e+00  -1.61326315e+00  -1.62165330e+00
C     3.947849669991214e+00   3.936915467833660e-01   3.527522400000000e+00  2.26172680e-01   6.81307800e-02   6.79738580e-01
C     5.361846627514579e+00   4.447357133367018e-01   3.414469800000000e+00 -3.58795180e-01   3.12768080e-01  -6.21061320e-01
C     1.166790745616294e+00   1.445659731892246e-01   3.326046300000000e+00 -3.28983366e+00  -2.73246447e+00  -3.24222350e-01
