64
Lattice="9.86 0 0 4.93 8.53901048131456 0 0 0 30 " PBC="1 1 1" Properties=species:S:1:pos:R:3:force:R:3 Energy="-506.55710745"
C     5.079821368899999e+00   7.990972603278465e+00  -3.077582999999997e-01 -3.77420981e+00  -2.21184077e+00   1.26011419e+00
C     1.331229264600000e+00   7.819359754766561e-02  -1.671185999999985e-01  2.39601952e+00   4.13954664e+00   6.77818720e-01
C     9.798713740299998e+00   5.552852764763303e-01   3.240786600000000e+00 -1.62418152e+00   5.12952380e-01  -1.42014000e-03
C     1.096063334600000e+00   1.295839584754915e+00   3.302030400000000e+00  1.22546907e+00   2.70503972e+00   1.27567978e+00
C     7.550452513500000e+00   7.964623095519491e+00  -1.402464000000023e-01 -2.69523549e+00  -5.40698680e-01  -2.57628090e-01
C     3.745649781699999e+00   1.970934265644344e-01   2.922090000000000e-02  2.51615604e+00  -3.52960992e+00  -1.68626850e-01
C     2.319341868200000e+00   6.270774340374543e-01   3.124478400000000e+00 -1.56852260e-01  -2.57575170e-01   2.28914070e-01
C     3.585629623200000e+00   1.188981553707147e+00   3.304603200000000e+00  1.87539789e+00   3.56047520e+00  -7.91344600e-02
C     9.905663681299998e+00   8.053250851533088e+00   1.001508000000000e-01  2.01644975e+00  -3.46235165e+00  -6.24308370e-01
C     6.233608939600000e+00   1.895605676892928e-01  -4.373700000002145e-03  1.98714380e-01  -1.61155431e+00   8.48483370e-01
C     4.803066994200000e+00   4.911097454831568e-01   3.157089600000000e+00  3.34977176e+00   2.27667711e+00   1.33572024e+00
C     6.117997530900000e+00   1.207776855064780e+00   3.268022700000000e+00 -3.03603110e+00   4.12089957e+00  -1.18007116e+00
C     1.237298117570000e+01   7.908706410072468e+00   1.332510000000000e-01  1.16085485e+00   4.29726432e+00  -1.98187439e+00
C     8.700915242900001e+00   1.807475403629896e-01  -2.372627999999999e-01  3.94117140e-01  -4.63955837e+00   9.53448430e-01
C     7.383647245300000e+00   6.441990893410072e-01   3.276753900000000e+00 -2.39812798e+00  -2.72002006e+00  -9.45734300e-02
C     8.591800785400000e+00   1.306267424353091e+00   3.354381000000000e+00 -6.96936010e-01  -5.00095780e-01  -2.59748470e-01
C     1.295576490600000e+00   1.564663175664389e+00   1.928199000000000e-01  2.84949866e+00  -2.07147433e+00  -1.22517557e+00
C     2.614311360400000e+00   2.225801868605515e+00   4.870335000000000e-01 -3.96846219e+00   1.02809757e+00  -7.09259480e-01
C     1.094670013070000e+01   2.776740105626687e+00   3.715309200000000e+00 -3.93213830e-01  -4.02054420e+00  -7.72777440e-01
C     2.353358424500000e+00   3.374586969769215e+00   3.732612900000000e+00  2.35599147e+00   9.27280460e-01  -1.01696538e+00
C     3.801460980600000e+00   1.519787943108635e+00   2.189043000000000e-01 -1.58405922e+00   3.57538818e+00   9.73299990e-01
C     4.949611885099999e+00   2.270756599348838e+00   1.663611000000000e-01  4.45248173e+00   1.66632606e+00  -1.18787293e+00
C     3.723620816200000e+00   2.641224045336677e+00   3.493169100000000e+00 -5.22476036e+00  -2.07222030e-01   7.20344910e-01
C     4.873808500900000e+00   3.406537556062441e+00   3.345915300000000e+00 -1.41290530e-01  -1.04692416e+00  -7.88142980e-01
C     6.260776739899999e+00   1.604546758863849e+00  -1.003985999999983e-01 -2.98238420e-01   4.33526900e-01   7.13321640e-01
C     7.536824514499999e+00   2.290145447324935e+00  -1.450203000000023e-01 -2.75086603e+00   1.62681613e+00  -6.95127000e-01
C     6.066359034700000e+00   2.699907455569324e+00   3.129046500000000e+00  1.43818004e+00  -2.08210262e+00   1.19692569e+00
C     7.319335346000000e+00   3.404724809527642e+00   3.156361500000000e+00 -2.41951240e+00   1.70650239e+00  -4.05653580e-01
C     8.737550812399999e+00   1.547010308518875e+00  -3.151010999999997e-01 -2.41588010e-01   2.50745184e+00   1.72929095e+00
C     9.970535875099998e+00   2.277945933832369e+00   1.283280000000000e-02  2.74698400e-02  -1.85188412e+00   6.32076830e-01
C     8.450933676900000e+00   2.689950969349644e+00   3.421703700000000e+00  4.35115171e+00   1.03568807e+00   1.30519011e+00
C     9.666334662099999e+00   3.422426434422996e+00   3.822140699999999e+00  5.47021460e-01   5.16184900e-02  -2.07105788e+00
C     2.532896847400000e+00   3.649188823680400e+00   7.349898000000000e-01  9.45855500e-01   6.34824290e-01  -9.84342730e-01
C     3.793640373700000e+00   4.445900446721334e+00   6.442500000000000e-01  2.65937710e-01  -1.91979919e+00  -2.18760711e+00
C     1.221827284570000e+01   4.808252844099505e+00   3.635533200000000e+00  1.64736857e+00   1.71033716e+00   3.74741560e-01
C     3.658126111300000e+00   5.572154941783030e+00   3.492157500000000e+00 -2.08375679e+00  -1.73887960e+00  -4.81944970e-01
C     4.992243715000000e+00   3.728553461125293e+00   1.925442000000000e-01 -7.39012910e-01  -1.08565989e+00   8.44801620e-01
C     6.226386884000000e+00   4.421891396344822e+00  -9.705750000000180e-02 -9.85299110e-01  -9.78022710e-01   6.28866940e-01
C     4.865201065999999e+00   4.801891708242429e+00   3.199177500000000e+00 -1.61401963e+00   1.62499402e+00   1.40266895e+00
C     6.049737983400000e+00   5.483207570607166e+00   2.933129400000000e+00  1.06140403e+00   3.18573565e+00  -9.70140500e-01
C     7.464205269399999e+00   3.805133527252658e+00  -1.125873000000013e-01  2.04201449e+00  -5.61116301e+00   3.89439180e-01
C     8.734201222499998e+00   4.357721330318356e+00   1.142595000000000e-01  3.38323250e-01   1.35728354e+00  -7.06811140e-01
C     7.318053693900000e+00   4.876205264818087e+00   2.977783800000000e+00  1.48644400e+00  -1.90638525e+00   1.93602444e+00
C     8.568638314299999e+00   5.600492501961957e+00   3.239103900000000e+00 -2.80174811e+00   6.04157530e-01  -1.54344510e+00
C     9.956887022200000e+00   3.616272475301886e+00   3.771627000000000e-01 -1.41777726e+00   2.38040400e+00  -1.20731712e+00
C     1.113507681110000e+01   4.380888007311015e+00   6.200523000000000e-01  1.93923808e+00  -1.04226284e+00  -4.11172770e-01
C     9.695225596000000e+00   4.826328306873673e+00   3.698433900000000e+00  1.22283399e+00   3.32874991e+00  -1.68298109e+00
C     1.100355012990000e+01   5.594520830372875e+00   3.553332300000000e+00 -5.15179380e-01  -3.48175569e+00   1.48648457e+00
C     3.792995726900000e+00   5.819976494856523e+00   4.426881000000000e-01  1.03028122e+00   2.90427978e+00  -1.57582330e+00
C     5.099287227400000e+00   6.545543473501032e+00  -7.348200000000205e-02 -3.88064243e+00  -3.27713190e-01   8.11828140e-01
C     1.342985505290000e+01   6.988284421070753e+00   3.428346000000000e+00  7.40430050e-01   7.55796550e-01  -1.70166902e+00
C     4.797122646700000e+00   7.678978507865464e+00   3.078113400000000e+00  1.07802745e+00  -8.66389440e-01   1.48509460e-01
C     6.255472700800000e+00   5.786957251401726e+00  -1.857074999999995e-01  2.39808593e+00   3.91734455e+00  -9.61884800e-02
C     7.604386072599999e+00   6.570520079155032e+00  -2.401382999999981e-01 -1.57930699e+00  -3.31569128e+00   4.83603760e-01
C     6.018613710199999e+00   6.954209926700837e+00   2.726370000000000e+00 -1.39355770e-01   1.03367564e+00   2.90841385e+00
C     7.247101183200000e+00   7.799941191033992e+00   2.852296800000000e+00  1.18372600e-02  -3.53205298e+00  -7.28397040e-01
C     8.820603613699999e+00   5.761502888111370e+00  -3.523229999999700e-02 -1.26717089e+00   2.29951786e+00   4.39145140e-01
C     1.001154100220000e+01   6.498965391475356e+00   1.699563000000000e-01 -1.19509109e+00   2.61856324e+00  -4.59591280e-01
C     8.521510620200001e+00   7.114822907302511e+00   2.899892700000000e+00  2.01478920e-01  -4.90239645e+00   2.55125133e+00
C     9.784196812999999e+00   7.657605620804339e+00   3.173881200000000e+00 -1.64513358e+00   4.35851640e-01  -6.68298840e-01
C     1.122344410310000e+01   5.813266540421340e+00   4.280703000000000e-01 -3.11014937e+00  -9.78077030e-01   6.92714340e-01
C     1.236419138010000e+01   6.555134233901853e+00   4.578246000000000e-01  4.36416167e+00  -5.10362330e-01  -8.73615020e-01
C     1.099593569560000e+01   6.970941776175978e+00   3.387943500000000e+00  6.31552280e-01   1.82871335e+00  -5.54199750e-01
C     1.219771587960000e+01   7.781292333706091e+00   3.319213200000000e+00  1.82150837e+00  -3.88333874e+00   1.42523028e+00
