64
Lattice="9.86 0 0 4.93 8.53901048131456 0 0 0 30 " PBC="1 1 1" Properties=species:S:1:pos:R:3:force:R:3 Energy="-512.41956302"
C     9.799531578000000e+00   6.033459868916480e-02  -1.612824000000010e-01  3.68238908e+00  -4.25893347e+00  -3.00229210e-01
C     1.217032568700000e+00   7.042764930345143e-01  -2.387610000000002e-01 -2.07861860e-01   6.13428300e-02   1.73361906e+00
C     1.234483930600000e+00   6.780795773928175e-01   3.475908000000000e+00  4.90665520e-01   2.19918089e+00  -1.14443880e-01
C     2.479555825000000e+00   1.444569166031992e+00   3.504051600000000e+00 -1.44638528e+00  -9.12875240e-01   7.78039200e-02
C     7.367125730700000e+00   8.473920420984419e+00  -1.535783999999971e-01  1.33931324e+00   3.12711176e+00  -3.68206350e-01
C     3.732210453800000e+00   7.215779798987760e-01  -6.769260000000088e-02 -2.27057325e+00  -2.76291797e+00  -5.21231080e-01
C     3.731450494300000e+00   7.463917466229224e-01   3.468312900000000e+00 -4.47660125e+00  -2.03657187e+00  -4.13327180e-01
C     4.875417505000000e+00   1.435231587291902e+00   3.454637400000000e+00  4.20975656e+00  -4.40984630e-01  -5.85378600e-02
C     4.956347152499999e+00   5.354104734138160e-02  -6.992069999999728e-02 -1.28407600e-02  -2.95188856e+00   2.34268840e-01
C     6.183896791600000e+00   7.222129407180687e-01  -1.335753000000004e-01 -6.35405170e-01   2.33192958e+00   7.56608350e-01
C     6.115806343099999e+00   6.891682510120408e-01   3.419097900000000e+00  2.25858034e+00   5.95955790e-01  -4.92802320e-01
C     7.405361726100000e+00   1.390434486682041e+00   3.443720400000000e+00 -1.67494378e+00   9.03641170e-01  -2.50964540e-01
C     7.406802962300000e+00   4.157106245051760e-02  -2.558639999999812e-02 -1.51061614e+00  -1.38357100e+00  -3.78284180e-01
C     8.611078465799999e+00   7.106125242007791e-01  -1.195860000000017e-01 -3.18347530e-01   6.14656310e-01  -1.03317090e-01
C     8.646365384499999e+00   7.662487031535336e-01   3.491313000000000e+00 -6.14399170e-01  -1.55398756e+00  -9.00341170e-01
C     9.863033823400000e+00   1.457671594492714e+00   3.496169100000000e+00  9.72108690e-01  -1.10403452e+00   1.99396170e-01
C     1.107979100230000e+01   2.120573507707855e+00  -1.001970000000085e-02  3.57941910e-01  -6.53941180e-01  -2.00025350e+00
C     2.499588288400000e+00   2.766895736614609e+00  -4.304129999999873e-02 -2.21311597e+00   3.60216957e+00   2.12635636e+00
C     2.427408503500000e+00   2.858005014463799e+00   3.567619800000000e+00  2.53634335e+00   2.10511290e-01   7.52151100e-02
C     3.756533496199999e+00   3.525779799399458e+00   3.584113500000000e+00 -4.40679757e+00   3.06851148e+00  -5.67065600e-02
C     3.707797981200000e+00   2.082095957974032e+00  -1.524720000000102e-02  9.70733240e-01   2.42512411e+00  -1.74589080e-01
C     4.966607320600000e+00   2.850830623248608e+00   7.194000000000000e-04 -2.10984329e+00  -7.97729560e-01  -4.53001590e-01
C     4.913850552500000e+00   2.842182569604778e+00   3.479984700000000e+00  1.70731031e+00  -4.96212190e-01  -1.19393130e-01
C     6.148202753500000e+00   3.532581889757721e+00   3.386091000000000e+00  1.48777611e+00  -5.45873400e-02  -1.49895900e-01
C     6.156279375300000e+00   2.213975766041239e+00  -1.389560999999979e-01  2.07996575e+00  -4.81652466e+00   2.03305580e-01
C     7.427092623799999e+00   2.823703894755744e+00  -1.475864999999992e-01 -2.61685055e+00   1.45905030e-01  -4.46393610e-01
C     7.417145510699999e+00   2.792946635177098e+00   3.353923800000000e+00 -1.39681968e+00   2.70427627e+00   1.34368091e+00
C     8.603184747000000e+00   3.608410266792531e+00   3.517337700000000e+00  3.11691770e-01  -1.09486610e+00  -1.49505600e+00
C     8.609514965600001e+00   2.096519542136219e+00  -1.651905000000014e-01  3.80498020e-01   1.44776010e+00   1.34340280e-01
C     9.800009541500000e+00   2.822814044473623e+00  -1.006892999999991e-01  3.42515711e+00  -9.03295810e-01   1.04790094e+00
C     9.845241798500000e+00   2.852867774978822e+00   3.524876400000000e+00  3.91145330e-01   2.47757409e+00   2.87623370e-01
C     1.108485958460000e+01   3.592241821228861e+00   3.558889800000000e+00 -4.66936510e-01  -1.72955530e-01  -4.94464540e-01
C     1.232085007390000e+01   4.295143021235466e+00   2.137749000000000e-01  1.59626250e-01  -3.52157194e+00  -1.17577322e+00
C     3.688599131500000e+00   4.948384154163850e+00   1.844532000000000e-01  1.88108583e+00   1.76622209e+00  -1.52199004e+00
C     3.729381422599999e+00   5.016179030139077e+00   3.588941700000000e+00 -4.64679800e-01  -3.11598559e+00  -3.19621500e-01
C     4.910656898500000e+00   5.706036208516644e+00   3.485947200000000e+00  1.55575243e+00   5.53182730e-01  -4.79102340e-01
C     4.969037761299999e+00   4.221651344418508e+00   2.926800000000000e-03 -1.73175357e+00   3.54211398e+00   4.56449490e-01
C     6.186808844000000e+00   4.995649199582641e+00  -1.480277999999977e-01 -1.41080546e+00  -2.68465918e+00   4.29968750e-01
C     6.180498443999999e+00   4.958339359531958e+00   3.371066400000000e+00 -3.45989360e+00  -4.01318480e-01   9.31340460e-01
C     7.330828556400000e+00   5.683904715764475e+00   3.427378200000000e+00  2.23851740e+00   2.17593843e+00  -1.36362733e+00
C     7.358569272000000e+00   4.209332199389117e+00  -1.982418000000017e-01  2.24857920e+00   1.52128290e+00   3.78907490e-01
C     8.608328117399999e+00   4.852607794746712e+00  -1.172685000000016e-01  1.44444248e+00   4.61364688e+00   3.90497360e-01
C     8.565437265300000e+00   5.060284812460478e+00   3.397653900000000e+00  3.51932239e+00  -2.04198360e+00   1.22400495e+00
C     9.896393506499999e+00   5.780445145839364e+00   3.451326300000000e+00 -2.31978937e+00  -1.90211851e+00  -8.27297600e-01
C     9.869661912600000e+00   4.211321618050747e+00   5.178660000000000e-02 -1.83739658e+00   7.82914540e-01  -8.03265810e-01
C     1.107129533050000e+01   4.964745922924788e+00   1.922256000000000e-01  1.02299375e+00  -7.31134000e-02   1.00272540e-01
C     1.112700649970000e+01   5.020333685688120e+00   3.447376500000000e+00 -1.97499298e+00  -2.99562940e-01   1.11479983e+00
C     1.235334069660000e+01   5.696411975194741e+00   3.530506200000000e+00  5.37520330e-01  -1.00188116e+00  -2.53385310e-01
C     3.733165444100000e+00   6.419045291398740e+00  -2.480880000000241e-02 -1.65185841e+00  -1.03783612e+00   1.73804311e+00
C     4.959023107199999e+00   7.091177021041713e+00  -1.104744000000011e-01 -7.77250280e-01   2.10513874e+00  -1.35616770e-01
C     4.886113189300000e+00   7.151321285187279e+00   3.427783800000000e+00  2.07888294e+00  -9.59527420e-01  -1.69517080e-01
C     6.163934975099999e+00   7.805525789278017e+00   3.416646000000000e+00 -1.68822932e+00   1.38738027e+00  -2.60152710e-01
C     6.201248912600001e+00   6.381680203950252e+00  -1.235694000000009e-01 -1.79159223e+00   6.40665590e-01  -6.44445350e-01
C     7.385272814200000e+00   7.089932374874149e+00  -2.014500000000012e-01  2.42261390e+00  -5.00126840e-01   5.04480810e-01
C     7.360566809400000e+00   7.123966992065124e+00   3.322815900000000e+00  6.35634920e-01  -8.40488310e-01   1.10402958e+00
C     8.582013798700000e+00   7.836541012363263e+00   3.368122800000000e+00  1.03823649e+00   1.31204950e+00   1.47709230e-01
C     8.661487025600000e+00   6.386002992615647e+00  -1.183158000000013e-01 -1.66589835e+00  -1.83126038e+00   1.50678730e-01
C     9.850335030800000e+00   7.113797030583443e+00   2.216610000000000e-02  1.55709590e+00   2.52850970e-01   2.98743700e-02
C     9.837340487500001e+00   7.192868865358977e+00   3.374796600000000e+00  9.64100680e-01  -2.24926370e+00  -5.30939900e-02
C     1.111390817990000e+01   7.809136595249590e+00   3.329697300000000e+00 -4.78435070e-01   8.52623890e-01   1.16009849e+00
C     1.111404232520000e+01   6.382644429013653e+00   2.049264000000000e-01 -1.33197352e+00   1.93627502e+00  -1.14612256e+00
C     1.232180363450000e+01   7.176675485884705e+00   8.957970000000000e-02  1.17677711e+00  -2.77181187e+00  -1.82084750e-01
C     1.237124448460000e+01   7.055090991973024e+00   3.442379700000000e+00 -1.16352261e+00   5.03778127e+00  -9.53019520e-01
C     1.357319712000000e+01   7.902207796146664e+00   3.361825800000000e+00 -9.41331930e-01  -2.77816611e+00   1.51547163e+00
