52
Lattice="8.88768389401873 1.33226762955019e-15 0 4.44384194700937 7.69696003302603 0 0 0 30 " PBC="1 1 1" Properties=species:S:1:pos:R:3:force:R:3 Energy="-414.94977345"
C     1.268755337192465e+01   6.818436016409427e+00  -1.068458999999997e-01 -1.10796312e+00  -1.34987781e+00   7.43171190e-01
C     8.867078821328162e+00   6.686318313251279e+00  -4.222830000000144e-02  1.49972490e-01  -9.58636710e-01   3.17788710e-01
C     1.019367384915511e+01   6.213865898747429e+00   1.279257000000000e-01  2.22510218e+00   2.49885145e+00   3.67005270e-01
C     1.058261551528507e+01   4.881807366893141e+00   1.904016000000000e-01  1.00727952e+00  -2.58326684e+00  -4.91118300e-01
C     6.473705805097426e+00   6.010119438884498e+00  -2.808242999999990e-01  8.89979400e-01   2.26432886e+00  -4.24340540e-01
C     7.874020660283023e+00   5.731986555477235e+00  -1.066745999999981e-01 -2.20997229e+00  -4.10252622e+00  -3.43356250e-01
C     8.167852110332024e+00   4.269530898909905e+00  -2.472180000000179e-02  2.26146904e+00   1.50482370e+00   8.58462670e-01
C     9.550717686757817e+00   3.834799823090679e+00   1.589301000000000e-01  3.38915450e-01   2.99564443e+00  -1.31325975e+00
C     9.927925299366686e+00   2.520477858051122e+00  -1.184054999999979e-01 -5.55468160e-01  -2.45771696e+00  -9.97002410e-01
C     4.175531615071125e+00   5.333615303082927e+00   1.647630000000000e-02 -8.60063160e-01   5.55434313e+00  -1.33467004e+00
C     5.491827905949485e+00   4.975391702083499e+00  -1.870094999999985e-01  1.74629990e+00   2.35012737e+00   9.59423450e-01
C     5.881419395107963e+00   3.675508541333819e+00   2.931810000000000e-02 -1.96855978e+00  -1.83760659e+00  -1.15889251e+00
C     7.188059839541032e+00   3.260822658520721e+00  -2.757779999999954e-02  2.01548661e+00   1.88404883e+00   2.88827650e-01
C     7.618261867127993e+00   1.947831651809552e+00  -1.023449999999926e-02 -2.40352232e+00  -3.10067761e+00  -1.52367820e-01
C     8.926861734759814e+00   1.486877418016117e+00  -2.124525000000013e-01  2.16883110e-01   1.51266415e+00   1.17328290e-01
C     3.170378827193612e+00   4.434170875161214e+00   8.800740000000000e-02 -5.12614102e+00   1.42133910e-01   8.02403990e-01
C     3.452545858786897e+00   3.085041486565189e+00  -1.450050000000047e-02 -1.01492272e+00  -1.85439140e+00  -1.92788980e+00
C     4.836187685571367e+00   2.723776354840307e+00  -3.464759999999956e-02 -1.42451886e+00  -2.22276248e+00   1.06750837e+00
C     5.096635661807531e+00   1.308404234290092e+00   6.475140000000000e-02  2.30401313e+00   1.24922349e+00  -1.09943983e+00
C     6.552709979267676e+00   9.722427377030548e-01   7.566780000000001e-02 -2.03458558e+00  -2.26281619e+00   2.63799550e-01
C     1.126478231701207e+01   7.233490660577561e+00   1.390515000000000e-01  2.18957945e+00   5.35764000e-02  -1.46388685e+00
C     2.344212526808923e+00   2.088379296501356e+00  -3.952041000000008e-01  3.92559531e+00   2.12223794e+00   2.62797405e+00
C     2.772274177893972e+00   7.305899042363784e-01  -4.716972000000013e-01 -3.41315610e+00  -2.46166850e-01   5.59310150e-01
C     4.051108347889294e+00   3.328735092014219e-01  -1.388172000000019e-01  2.92568336e+00   1.25362910e+00   8.13757800e-02
C     3.802691540069267e-01   1.149548677440530e-01  -3.952622999999988e-01 -3.13005407e+00   8.42642700e-02   1.35234961e+00
C     6.132473403908694e+00   7.443824794590968e+00  -4.726284000000014e-01  3.05696892e+00  -2.44818403e+00   2.33376430e-01
C     7.169215109543301e-01   9.276630997532992e-01   3.383528400000000e+00 -2.19808506e+00  -3.63704357e+00  -3.93096360e-01
C     3.020168079075612e+00   2.884191777609549e-01   3.570189900000000e+00  2.78748184e+00  -6.52841400e-01  -5.60655810e-01
C     4.429329557489317e+00   6.840480032965747e-01   3.584873400000000e+00 -8.78917100e-02  -1.93286268e+00   9.16863560e-01
C     9.907390353284258e+00   7.303363201912300e+00   3.709480500000000e+00 -1.44677619e+00   3.78132245e+00  -5.98212900e-01
C     6.834235675875986e+00   6.111193839819250e-02   3.557141700000000e+00 -1.51652269e+00  -1.30023460e-01   6.03113060e-01
C     1.231503334516092e+01   6.854228496910533e+00   3.527912700000000e+00  1.21923887e+00  -2.90898282e+00  -9.79061210e-01
C     4.786466785242310e+00   7.215418660244723e+00   3.348573600000000e+00  5.33774420e-01   1.02677388e+00   5.66616350e-01
C     5.805914522675705e+00   6.247895698432065e+00   3.330293700000000e+00  3.86949230e-01  -2.59628320e+00  -6.64415720e-01
C     7.190229414204947e+00   6.569785799609877e+00   3.466412400000000e+00 -1.24579860e+00   1.55318526e+00   1.21090683e+00
C     8.172072783379814e+00   5.570731856186322e+00   3.739390200000000e+00 -1.65855180e+00   3.97621790e-01  -1.89932008e+00
C     9.481611990881911e+00   5.971744166475725e+00   3.812744100000000e+00  4.14110842e+00   9.40162000e-03  -2.70233280e-01
C     1.058937131054463e+01   5.042292831998656e+00   3.707766000000000e+00  1.22252120e-01  -9.13191690e-01  -5.94963120e-01
C     1.199604419303765e+01   5.448597264126285e+00   3.497341500000000e+00 -1.51850433e+00  -1.48990110e+00   6.61491390e-01
C     4.090578243602145e+00   4.375774347292005e+00   3.329133300000000e+00  6.25320750e-01   2.26016104e+00  -1.82519260e-01
C     5.503275376013230e+00   4.818628409878891e+00   3.179392800000000e+00 -1.79607314e+00  -4.00236290e-01   1.42299771e+00
C     6.509676793355748e+00   3.801990530358001e+00   3.247330500000000e+00 -8.88893800e-01   3.89352270e-01   3.47451400e-01
C     7.860130942479498e+00   4.220590933103155e+00   3.463087500000000e+00 -8.35613660e-01  -1.31210274e+00   3.64915120e-01
C     8.851549591210123e+00   3.224010253846040e+00   3.490423800000000e+00  6.61775300e-01  -4.12655300e-01  -4.89038770e-01
C     1.021769521287368e+01   3.644912509457767e+00   3.591504900000000e+00  2.83661230e-01   1.72766450e-01   1.45178000e-01
C     2.325715523895941e+00   2.643279237758558e+00   3.541992000000000e+00  2.24943107e+00   9.49171960e-01  -6.43153840e-01
C     3.722693676330573e+00   2.999156959280042e+00   3.404728800000000e+00 -4.06696790e-01   1.62823138e+00   8.47561950e-01
C     4.778022015734892e+00   2.067575029297068e+00   3.512720700000000e+00 -1.41129169e+00  -1.89366940e+00  -1.00903569e+00
C     6.103066320998600e+00   2.398503901546911e+00   3.339198300000000e+00  3.44344421e+00   1.57718648e+00   3.83291850e-01
C     7.178211218069356e+00   1.414337187304581e+00   3.431207400000000e+00 -1.33414615e+00   1.08930771e+00  -7.96198510e-01
C     8.548103176221293e+00   1.796858705665913e+00   3.304113900000000e+00 -1.16559750e+00   3.52267636e+00   1.39987121e+00
C     2.025480495770915e+00   1.283597701809405e+00   3.478720500000000e+00  1.04639527e+00  -6.24084800e-02   2.39131990e-01
