52
Lattice="8.88768389401873 1.33226762955019e-15 0 4.44384194700937 7.69696003302603 0 0 0 30 " PBC="1 1 1" Properties=species:S:1:pos:R:3:force:R:3 Energy="-418.48972724"
C     1.250825505907165e+01   6.770204016986236e+00   1.481670000000000e-02  1.37946362e+00   1.57124887e+00  -4.62373000e-02
C     8.728349763573817e+00   6.566229188319215e+00   9.069060000000000e-02  1.66461616e+00  -1.99159199e+00  -1.10394526e+00
C     1.013633531199705e+01   6.138297914868891e+00  -4.630829999999975e-02 -1.26940847e+00   1.73128058e+00   1.56157021e+00
C     1.039659891325006e+01   4.752411847588803e+00   3.669330000000000e-02  3.29940622e+00   8.11826970e-01   2.44127810e-01
C     6.377612255741202e+00   5.987980364871807e+00  -3.899099999999933e-02 -5.20723990e-01  -1.99005732e+00   2.74325710e-01
C     7.716518681049129e+00   5.519941079370757e+00   4.428570000000000e-02  3.88959160e-01   3.16155866e+00  -1.30334000e-02
C     8.042164484428923e+00   4.177788754133128e+00   7.473000000000000e-02  5.94096110e-01  -1.18110856e+00  -4.16068860e-01
C     9.425085608899940e+00   3.775247904551367e+00   7.701390000000000e-02 -1.10986649e+00  -9.13656300e-01  -1.26423090e-01
C     9.804823767256872e+00   2.387777341079503e+00   6.237030000000000e-02 -1.43744063e+00   1.21889954e+00  -4.75895710e-01
C     3.972955258374748e+00   5.442173227346046e+00   5.375670000000000e-02 -5.48699220e-01  -3.91563754e+00   3.44959800e-02
C     5.344796596140895e+00   5.006041227831759e+00  -9.510900000002209e-03 -1.13962504e+00   1.62704650e-01   3.23479420e-01
C     5.633448215181412e+00   3.604309967725112e+00   5.711940000000000e-02  1.24952663e+00   1.41525848e+00   6.38245300e-02
C     7.003969020906771e+00   3.216803051382749e+00   4.467330000000000e-02  8.95395800e-02  -8.99272840e-01   1.99798070e-01
C     7.339311731763035e+00   1.825827523222023e+00   4.786140000000000e-02  1.55764225e+00   1.31958904e+00  -2.31003760e-01
C     8.726223648512647e+00   1.453902640642793e+00  -1.408260000000183e-02  1.22369441e+00  -1.40910275e+00   5.90064090e-01
C     2.924833318393204e+00   4.363689119440100e+00   1.361196000000000e-01 -1.58236580e-01   2.87857356e+00  -1.28764337e+00
C     3.282733193191061e+00   3.029173025217834e+00   5.297670000000000e-02 -1.31453070e-01  -7.66552050e-01   8.99668820e-01
C     4.629954224588150e+00   2.647942364023133e+00   1.369941000000000e-01  5.51165810e-01  -1.91811174e+00  -1.14693602e+00
C     5.013277407984027e+00   1.242361469357481e+00   5.947350000000001e-02 -2.79820669e+00   3.56827090e-01   6.51722670e-01
C     6.331673947430475e+00   8.657284332975000e-01   5.813520000000000e-02  1.50272032e+00  -2.08219512e+00  -1.83741430e-01
C     1.117741242930700e+01   7.161086973936958e+00   3.728460000000000e-02 -2.61934303e+00  -2.44676340e-01  -5.37015790e-01
C     2.286720854860010e+00   2.016784329451105e+00   3.430979999999999e-02 -1.06196827e+00   1.19280400e-02   1.06855820e-01
C     2.597065888270764e+00   6.522587886766716e-01   4.005150000000000e-02  6.21113360e-01  -1.24300403e+00  -2.82115620e-01
C     3.968083737691726e+00   2.248113461338343e-01   8.321819999999999e-02 -1.78650450e-01   1.56563189e+00  -2.44408370e-01
C     2.440721974343944e-01   5.883148308050410e-02  -2.102100000000107e-02 -2.77213511e+00   4.19173600e-01  -1.72491840e-01
C     6.008847987286469e+00   7.333423987187866e+00  -4.228529999999964e-02  1.62644671e+00   1.92858939e+00   3.81682660e-01
C     8.239877059608426e-01   9.444675647083971e-01   3.331446300000000e+00 -5.99210940e-01  -5.39961000e-01  -7.50022000e-02
C     3.224252586959483e+00   3.464226988510319e-01   3.370740900000000e+00  2.71203000e-01  -6.72690820e-01  -6.21842000e-02
C     4.593985188971420e+00   7.784313599076472e-01   3.430613400000000e+00 -1.41752240e-01  -1.76900327e+00  -3.60041480e-01
C     1.005393168520717e+01   7.468490318763906e+00   3.410225100000000e+00 -2.17546400e-02  -5.11476100e-02   5.19364420e-01
C     6.972703968978061e+00   1.705196840182248e-01   3.406655100000000e+00  6.26549840e-01  -6.56935680e-01  -2.60898570e-01
C     1.244819475770280e+01   6.854259130811453e+00   3.371793600000000e+00 -7.19445790e-01   6.42076820e-01   8.94437800e-02
C     4.918664150746929e+00   7.268224732104943e+00   3.329116200000000e+00  9.93549800e-02  -7.03985800e-01   1.73486700e-02
C     5.941113570078890e+00   6.269879216882549e+00   3.294311700000000e+00  1.29441290e-01  -1.85609020e-01   9.62756290e-01
C     7.325400598754542e+00   6.646269875671186e+00   3.330883500000000e+00 -9.61307840e-01   1.19066229e+00  -1.44021590e-01
C     8.330260402922377e+00   5.682674903470637e+00   3.334214700000000e+00  1.93644853e+00  -6.55108980e-01   2.84865570e-01
C     9.703434093929891e+00   6.092310579899250e+00   3.427395900000000e+00  5.30964620e-01  -8.32956580e-01  -6.03459520e-01
C     1.074933717782386e+01   5.067967735509927e+00   3.386741700000000e+00 -1.76157154e+00   8.25071930e-01   1.15761640e-01
C     3.201750574464096e+00   5.474124693883382e+00   3.373974900000000e+00  1.34677259e+00  -4.39412530e-01   3.55355890e-01
C     4.234739898109841e+00   4.458282910938394e+00   3.404915400000000e+00 -6.44533070e-01   2.56796910e-01  -6.03078010e-01
C     5.608626781316752e+00   4.876606223122469e+00   3.422901900000000e+00 -2.07373080e-01   3.04779390e-01  -1.64810510e+00
C     6.653537199843937e+00   3.924438850508860e+00   3.243867600000000e+00  7.86853400e-01  -4.50525700e-01   1.82861112e+00
C     8.053714429664920e+00   4.293501387592134e+00   3.278495700000000e+00 -2.14666499e+00   2.30991490e-01   1.55217340e-01
C     9.038453672871054e+00   3.278106490146488e+00   3.350726700000000e+00 -3.42815600e-01   2.02524336e+00  -2.88346170e-01
C     1.037100718230952e+01   3.695392636966520e+00   3.366342000000000e+00  1.75199431e+00  -8.03603450e-01   1.22053300e-02
C     2.500230618576230e+00   2.663238840569153e+00   3.340108800000000e+00  1.37573320e-01   1.44295606e+00  -2.61296790e-01
C     3.847448095410311e+00   3.067939841983333e+00   3.286013100000000e+00  2.56480014e+00   8.09390200e-01   1.44826335e+00
C     4.959617972626820e+00   2.115330586894403e+00   3.390999000000000e+00 -8.47897340e-01   1.73610892e+00  -6.95218600e-02
C     6.349383369688742e+00   2.547870569101889e+00   3.417613200000000e+00 -2.15132637e+00  -2.44980700e-01  -1.19794205e+00
C     7.331547362060974e+00   1.550403353988518e+00   3.363619200000000e+00  2.99563750e-01  -5.03100590e-01   4.32778000e-01
C     8.690673535408012e+00   1.942648211046948e+00   3.335411700000000e+00  2.44994200e-01  -1.71651146e+00   1.12914390e-01
C     2.184867730378505e+00   1.290824146672771e+00   3.330498000000000e+00 -1.42994740e-01   7.79885390e-01   2.12457810e-01
