76
Lattice="10.7446858958278 0 0 5.37234294791388 9.3051709414712 0 0 0 30 " PBC="1 1 1" Properties=species:S:1:pos:R:3:force:R:3 Energy="-604.69282458"
C     3.511384304257505e-01   9.990319981483141e-02  -1.648979999999973e-01 -3.04533061e+00  -3.25356135e+00  -2.31074911e+00
C     1.278601865018128e+01   8.646535773438167e+00  -4.731431999999991e-01 -2.06202517e+00   2.07799900e-02   4.12333090e-01
C     1.431400694743947e+01   8.518209556780269e+00  -4.112466000000019e-01 -7.12789501e+00  -6.66206630e-01  -7.56504410e-01
C     1.475395848023687e+01   7.246427272641666e+00  -3.754148999999991e-01 -2.88202922e+00  -5.72833337e+00   1.13744653e+00
C     8.393361171706445e+00   9.040787584563830e+00  -1.250424000000017e-01  1.31562600e-01   1.38368355e+00   7.93277680e-01
C     9.757515680276891e+00   8.967133899763901e+00  -3.114105000000009e-01  2.96698412e+00  -1.00744356e+00  -5.56176800e-02
C     1.037239462133664e+01   7.691416924093321e+00  -2.663294999999977e-01  1.17818529e+00  -2.12919596e+00   1.70140360e-01
C     1.182966902472802e+01   7.524276792307075e+00  -2.561117999999993e-01  8.91827270e-01   1.72365811e+00  -8.37467500e-02
C     1.240134954708454e+01   6.287372149885781e+00   8.086530000000000e-02  1.84467830e-01  -2.67231296e+00  -1.00627507e+00
C     1.380528270945339e+01   5.977503909222669e+00  -6.448170000000175e-02  1.15214950e-01   4.94542137e+00  -5.13955030e-01
C     6.257390087692841e+00   8.029572791362321e+00  -3.215088000000002e-01 -2.90326859e+00   1.39091035e+00   6.11611930e-01
C     7.610256659044182e+00   7.851556961884824e+00  -2.291088000000023e-01  1.29387700e-01   3.01561933e+00   6.63350590e-01
C     8.194780358180402e+00   6.637551693784903e+00  -2.723280000000017e-02 -2.49612652e+00  -2.86281281e+00  -1.18571749e+00
C     9.546978341451617e+00   6.486065744122729e+00  -8.219220000000149e-02  2.60489210e+00  -2.56101740e-01   1.14840492e+00
C     1.010668708105493e+01   5.144179884001226e+00   1.608567000000000e-01  3.24310394e+00   3.78353551e+00  -1.43278116e+00
C     1.158356956919208e+01   5.113675393470589e+00   1.727400000000000e-01 -1.11039111e+00  -1.89732785e+00   1.25705186e+00
C     1.216774519422857e+01   3.781998701645908e+00   3.684714000000000e-01 -2.31047581e+00  -1.96557651e+00  -1.81555720e+00
C     5.316349920497343e+00   6.918767359037856e+00  -3.838302000000020e-01  2.54649064e+00   2.99061574e+00   2.72922230e-01
C     5.820865841080401e+00   5.663570425479291e+00  -2.562579000000014e-01  3.06038339e+00  -3.19965910e+00   5.47855250e-01
C     7.263045894825748e+00   5.499377799640000e+00  -4.208790000000207e-02  8.18997200e-01  -5.80706440e-01  -3.00355260e-01
C     7.843058168969705e+00   4.172013124028914e+00  -1.474800000000087e-02  1.92757005e+00   1.65717641e+00  -5.10534580e-01
C     9.364119582121891e+00   4.027492932280714e+00   8.499000000000000e-03 -3.18005256e+00  -2.84868994e+00  -2.37264000e-02
C     9.965736249928407e+00   2.675707114692726e+00  -1.363409999999980e-01 -1.72060907e+00   2.27238027e+00   5.76787370e-01
C     1.135292295974723e+01   2.532578418206894e+00   8.218590000000001e-02 -6.39647370e-01   4.66847340e-01   2.78039120e-01
C     3.567815770668311e+00   4.715337030423206e+00   7.086600000000000e-02  3.19754984e+00  -2.83360784e+00  -3.53367050e-01
C     5.035880847215348e+00   4.474296347651993e+00  -1.986642000000032e-01 -1.62610964e+00   4.57239250e-01   1.03818377e+00
C     5.597036573668813e+00   3.155000278814691e+00  -1.872225000000007e-01 -1.03416806e+00   1.12635847e+00   1.60309829e+00
C     7.036654342167587e+00   3.048150024479474e+00  -1.939391999999991e-01 -3.81427230e-01  -3.98785390e-01  -6.31672210e-01
C     7.677668496040205e+00   1.813203003920537e+00  -4.355720999999981e-01 -4.54276799e+00  -2.37892612e+00   2.81757780e-01
C     9.017558925123833e+00   1.597663328213813e+00  -3.717500999999999e-01  4.12053925e+00   5.68671040e-01   3.51133820e-01
C     9.666667641842647e+00   3.339368097130962e-01  -4.017416999999988e-01  2.21844170e+00   8.63738020e-01   6.34512960e-01
C     2.787620704054050e+00   3.523227760062200e+00   3.650988000000000e-01  7.57088190e-01   1.53222957e+00  -4.41585030e-01
C     3.332857963452946e+00   2.196223101514783e+00   3.417291000000000e-01 -4.03429570e-01  -4.44285090e-01  -4.93106540e-01
C     4.692751237042310e+00   2.014003940220267e+00   9.028770000000000e-02  3.16113839e+00   1.27036271e+00  -2.70282317e+00
C     5.280231336503917e+00   7.900782432777936e-01  -3.822864000000017e-01 -4.11544540e-01  -6.58083010e-01   1.77899489e+00
C     6.716772632812372e+00   6.137679585818872e-01  -5.298492000000010e-01  2.62138715e+00   1.05910450e+00   4.06884220e-01
C     1.144434707451601e+00   1.148640629573344e+00   1.504200000000000e-03  8.88849930e-01   5.51246145e+00   1.78624029e+00
C     2.498319015451389e+00   1.019918012633400e+00   2.363391000000000e-01  1.14960569e+00  -2.46059880e-01  -1.61934618e+00
C     1.590664344103335e+01   9.224668277181394e+00   3.151639800000000e+00 -6.75086580e-01   5.90789390e-01  -3.82341590e-01
C     1.165430570455871e+01   8.669538900415523e+00   3.584742000000000e+00  3.21061640e-01   5.50655100e-01  -8.09210010e-01
C     1.306424960539030e+01   8.880828997605658e+00   3.378640500000000e+00 -3.13732580e-01  -2.54228856e+00   4.04942720e-01
C     1.392517938228229e+01   7.713003617950189e+00   3.447324900000000e+00 -4.11257500e-01   1.97919709e+00  -8.69798490e-01
C     7.335378368176534e+00   8.199881333853638e+00   3.407018700000000e+00  9.90522630e-01   1.18105384e+00   1.14130365e+00
C     8.762638136187423e+00   8.324661908176559e+00   3.543475800000000e+00  3.69170010e-01   1.47870335e+00   4.43064870e-01
C     9.655782093110499e+00   7.258966362690154e+00   3.699162300000000e+00 -8.22764240e-01  -3.12829384e+00  -3.14189680e-01
C     1.106428131719941e+01   7.375490831044850e+00   3.668679300000000e+00  5.66718710e-01  -3.17715190e-01   1.87226800e-02
C     1.192026703432137e+01   6.181939073084726e+00   3.630497700000000e+00 -1.01964786e+00   3.86990638e+00  -3.74521490e-01
C     1.330060196538863e+01   6.444855468322203e+00   3.563174400000000e+00  1.75820519e+00  -4.54213820e-01   4.09238760e-01
C     4.620122156637254e+00   7.911225905279026e+00   3.336669300000000e+00 -1.54841187e+00  -1.05507004e+00   1.07755438e+00
C     5.384176770986254e+00   6.734631704736539e+00   3.693676800000000e+00  1.01044790e+00   1.58610417e+00  -1.11324667e+00
C     6.782561216386052e+00   6.888642519481571e+00   3.694788900000000e+00  5.07741140e-01   1.26129004e+00  -5.96669850e-01
C     7.639469525962820e+00   5.767063746346194e+00   3.820249200000000e+00  1.09810683e+00  -1.61961684e+00  -4.95387280e-01
C     9.066597241783999e+00   5.876517401407003e+00   3.717043200000000e+00 -2.08834540e-01   3.42594721e+00  -2.05464610e-01
C     9.906815991922585e+00   4.813260927327391e+00   3.497606700000000e+00  3.64787660e-01  -3.17238312e+00  -1.19017320e-01
C     1.134135646654617e+01   4.952773262179101e+00   3.466182600000000e+00 -7.43928520e-01  -1.52528645e+00   4.55246670e-01
C     1.218289595347559e+01   3.805030302446339e+00   3.411398400000000e+00  2.66132020e-01   1.40760186e+00  -3.65715070e-01
C     3.431925901494409e+00   5.350608494633758e+00   3.668219400000000e+00  4.93184700e-02  -2.91479355e+00  -1.96241140e-01
C     4.847552344357938e+00   5.453876537312203e+00   3.790546200000001e+00 -3.44319640e-01  -1.05610748e+00   7.78619020e-01
C     5.710033761340747e+00   4.276807959155194e+00   3.972532500000000e+00 -1.60051315e+00  -1.26969485e+00  -2.13519646e+00
C     7.132616206409077e+00   4.409218308390368e+00   3.839899200000000e+00 -1.10174863e+00   6.82278000e-01   5.02950290e-01
C     7.968424531602861e+00   3.234623509927758e+00   3.644124000000000e+00 -6.56108560e-01   2.68390732e+00  -2.24666460e-01
C     9.338405346102579e+00   3.445699681237983e+00   3.355356600000000e+00  9.11403840e-01   1.04418638e+00   1.14268804e+00
C     1.018345856021501e+01   2.307972249194781e+00   3.191793600000000e+00  7.59051630e-01   2.70031740e+00  -1.14186574e+00
C     1.161567361619269e+01   2.544950945695556e+00   3.153075000000000e+00 -4.87018320e-01   5.68847140e-01   1.64798218e+00
C     2.877163048257726e+00   4.004227864741398e+00   3.575628300000000e+00 -2.46814534e+00   1.15511340e+00   1.92100130e-01
C     3.626774816990234e+00   2.860536469487621e+00   3.642402600000000e+00  2.73118399e+00  -3.44225660e+00  -3.09940780e-01
C     5.040958302260822e+00   2.924780579329604e+00   3.744327900000000e+00  1.92793487e+00   2.79066563e+00   5.20986690e-01
C     5.925714527582922e+00   1.819840661507167e+00   3.553793400000000e+00  4.75693720e-01   8.48329460e-01   1.12092412e+00
C     7.338140826921425e+00   2.005141323210173e+00   3.584917800000000e+00  1.12835701e+00  -2.29648262e+00  -1.85367755e+00
C     8.213623851077529e+00   8.438143027323619e-01   3.243744000000000e+00 -3.85524550e-01   2.61566214e+00   5.71169170e-01
C     9.609381435668496e+00   1.070467981558113e+00   3.002373600000000e+00  5.13454650e-01  -3.00518611e+00   1.88871219e+00
C     1.734838382223167e+00   1.482411807243708e+00   3.317688900000000e+00  4.23049300e-02  -4.44913138e+00  -8.49296160e-01
C     3.110719855878590e+00   1.460292392350524e+00   3.491726100000000e+00  1.78770057e+00   3.62814574e+00   8.49538490e-01
C     3.990475450659400e+00   3.250873129940280e-01   3.614354400000000e+00 -3.28623050e-01   7.30011210e-01  -1.53431478e+00
C     5.449734021472508e+00   5.096577979333724e-01   3.517479300000000e+00 -2.78655159e+00  -1.10647921e+00   9.37700810e-01
C     1.205345203626681e+00   1.646536970593684e-01   3.247014900000000e+00 -1.64516304e+00  -3.50601730e+00   2.21959240e-01
