76
Lattice="10.7446858958278 0 0 5.37234294791388 9.3051709414712 0 0 0 30 " PBC="1 1 1" Properties=species:S:1:pos:R:3:force:R:3 Energy="-609.96246676"
C     1.635084933221285e-01   5.861355090618819e-02  -2.925231000000004e-01 -8.72813150e-01  -8.07393190e-01   5.25757840e-01
C     1.259931356191650e+01   8.592734484735310e+00  -2.529381000000015e-01 -8.36267330e-01  -2.29246382e+00   3.97370630e-01
C     1.399290491038316e+01   8.478472196487836e+00  -2.361111000000022e-01  1.13510079e+00  -2.37253041e+00  -4.21788700e-01
C     1.457626200524779e+01   7.159077771993698e+00  -1.707417000000007e-01 -9.85675030e-01  -2.32151571e+00   1.30445630e-01
C     8.316256499836603e+00   8.944419605292524e+00  -1.571925000000007e-01 -6.97211190e-01   3.66645309e+00  -9.69294900e-02
C     9.706426256801848e+00   8.866646893524296e+00  -2.447514000000020e-01  2.07602678e+00   2.83608000e-02   1.20107393e+00
C     1.035046337432900e+01   7.613586520265263e+00  -1.295292000000003e-01 -1.68584085e+00  -1.71706786e+00  -6.69794160e-01
C     1.174462811295872e+01   7.432936955204907e+00  -1.404446999999998e-01  5.31750660e-01   9.65166810e-01  -3.05212900e-01
C     1.229535832440685e+01   6.151034553255379e+00  -1.435841999999994e-01  1.13497103e+00  -1.30826481e+00   7.56694300e-01
C     1.373318103195574e+01   5.952181747543647e+00  -6.888900000000220e-02 -1.83209796e+00   3.95487230e+00  -1.06926142e+00
C     6.069193959365720e+00   8.034627825475477e+00  -3.092399999999991e-01  1.13346080e-01  -6.04943370e-01   5.80961600e-01
C     7.475013888578607e+00   7.846769172281065e+00  -2.640710999999989e-01 -4.82322100e-02  -8.39720430e-01   7.77636700e-02
C     8.080463830526810e+00   6.539627517725591e+00  -2.388756000000001e-01 -7.19730980e-01   6.02660000e-04   1.79979737e+00
C     9.491907904403762e+00   6.433345344076261e+00  -9.600479999999934e-02  5.18060090e-01   9.62547470e-01  -7.51678660e-01
C     1.007690297291042e+01   5.142122231551263e+00  -9.262170000000225e-02 -4.55195980e-01   1.49631159e+00   5.96465600e-01
C     1.147616182084876e+01   4.997127383033415e+00  -1.289999999999978e-01  2.65633890e-01  -1.08922780e+00  -1.81637700e-02
C     1.201759938324941e+01   3.655554455810624e+00  -1.125921000000005e-01  6.49376730e-01   7.73868980e-01   1.26573092e+00
C     5.215423581582617e+00   6.860590685907301e+00  -2.155737000000002e-01 -5.55077500e-02   3.53791918e+00   2.40507010e-01
C     5.745242646502451e+00   5.584722594260654e+00  -4.602000000000217e-02  3.77210755e+00   4.97069490e-01  -9.30513530e-01
C     7.230347935312015e+00   5.394595526494489e+00  -1.142099999999857e-02 -1.89673111e+00   1.34963750e+00  -1.27375747e+00
C     7.760220186427053e+00   4.096023748271335e+00  -5.799269999999979e-02  1.43792725e+00   1.39384344e+00  -1.04468620e-01
C     9.216140490777889e+00   4.072398291461512e+00  -1.940609999999765e-02 -1.13738982e+00  -4.48799477e+00  -1.37899668e+00
C     9.781876032149370e+00   2.722799933458100e+00  -1.792014000000002e-01 -2.14146820e+00   7.17520730e-01  -5.51338100e-02
C     1.114017307520143e+01   2.528183679023642e+00  -9.423209999999926e-02  2.33451057e+00  -6.76361310e-01  -8.69445300e-02
C     3.490866789297160e+00   4.700337932333311e+00  -1.231662000000000e-01  2.79077312e+00  -3.62072175e+00   8.26826830e-01
C     4.951075351514117e+00   4.489316661531632e+00  -1.624208999999972e-01 -2.45412519e+00  -1.89762909e+00   1.24470160e+00
C     5.480132457033351e+00   3.159745729890672e+00  -1.215893999999977e-01  3.74645480e-01  -9.35109600e-01  -1.08927973e+00
C     6.917889783168540e+00   2.971674174385153e+00  -2.533188000000024e-01 -5.02888930e-01  -2.93932900e-01   1.08082989e+00
C     7.515676453962572e+00   1.673266818532509e+00  -3.605178000000002e-01 -1.59452453e+00   3.79320100e-01   2.34862320e-01
C     8.925980355495248e+00   1.585945140345652e+00  -3.862877999999981e-01  3.96466100e-01  -1.02712482e+00   1.13730079e+00
C     9.493385406161872e+00   2.484933802804778e-01  -3.252623999999997e-01  1.62905910e-01   1.78812563e+00  -3.16214430e-01
C     2.707400341890355e+00   3.505724919627478e+00   4.065030000000000e-02 -1.97598477e+00   3.45879500e-02  -1.20231439e+00
C     3.205499912117939e+00   2.166614791997378e+00   6.705810000000001e-02  1.15159524e+00  -2.79507410e-01  -9.63363470e-01
C     4.614323786891319e+00   1.975925226647889e+00  -1.400685000000017e-01  1.05681110e+00   1.82087733e+00   8.65198350e-01
C     5.221835204276295e+00   7.011624032054954e-01  -2.054828999999998e-01 -1.56573772e+00  -3.56398410e-01  -5.27380040e-01
C     6.617951177865456e+00   5.017212315352276e-01  -3.095087999999997e-01  9.40559800e-01   3.56044358e+00  -6.15679900e-02
C     9.808330039792894e-01   1.184870312628233e+00  -7.514880000000090e-02 -7.86470630e-01   9.82593970e-01  -7.00924410e-01
C     2.356283991794129e+00   1.012698595759601e+00  -3.460199999999247e-03  1.45544232e+00  -8.70559540e-01  -3.37300110e-01
C     1.599363300903748e+01   9.276691719924456e+00   3.373091100000000e+00 -1.45916273e+00  -6.06591110e-01   7.68495130e-01
C     1.171837626658041e+01   8.702300732364494e+00   3.436309800000000e+00  1.72834789e+00   2.30957531e+00   8.76464380e-01
C     1.317697715516957e+01   8.946903341519830e+00   3.409480800000000e+00 -1.63009087e+00  -1.58237377e+00  -9.76282000e-03
C     1.402279281219347e+01   7.780891167473729e+00   3.437487900000000e+00 -7.70537360e-01   2.14931241e+00   5.91104740e-01
C     7.413091833949471e+00   8.267775676151963e+00   3.478688100000000e+00  3.39392001e+00  -1.42886577e+00  -3.00760300e-02
C     8.883600090899879e+00   8.412341370186059e+00   3.504972300000000e+00 -8.39904020e-01   4.91422160e-01   6.99339720e-01
C     9.777472967314409e+00   7.305584710789297e+00   3.643187100000000e+00 -1.57753166e+00  -1.66988148e+00  -7.03802020e-01
C     1.118850224259219e+01   7.424480322802926e+00   3.622447500000000e+00 -7.24910790e-01   5.13436160e-01  -9.05233920e-01
C     1.202694215625661e+01   6.304319099408546e+00   3.585497100000000e+00  5.31527120e-01  -1.92412490e-01  -1.87510630e-01
C     1.345464653937004e+01   6.532628819506489e+00   3.570784800000000e+00 -3.27505450e-01  -3.34048130e+00   1.46056520e-01
C     4.661962661936437e+00   7.957687461247831e+00   3.484251900000000e+00  1.92492563e+00  -1.29851798e+00  -6.38518490e-01
C     5.492714323051962e+00   6.733168187451095e+00   3.550583100000000e+00  7.86690760e-01   1.40609363e+00   1.20467539e+00
C     6.928250400271044e+00   6.920688318526710e+00   3.549144900000000e+00 -2.17571433e+00   1.44061649e+00   9.98586100e-02
C     7.777869783550399e+00   5.828266274963017e+00   3.686232900000000e+00  1.05248674e+00  -2.05099830e+00  -6.65356400e-01
C     9.190418572308161e+00   5.952580660221845e+00   3.636618600000000e+00  7.25634000e-03   2.72516745e+00   6.97302490e-01
C     1.002123292866591e+01   4.842181770815748e+00   3.640356000000000e+00  1.59482800e-01  -6.56887370e-01  -4.01477790e-01
C     1.142186779480404e+01   5.012697632515606e+00   3.537611700000000e+00  1.33039881e+00  -2.68262330e-01   1.05047198e+00
C     1.228134252633145e+01   3.880203242505642e+00   3.595318200000000e+00  9.26233110e-01  -1.18361302e+00  -3.19895350e-01
C     3.565641798370165e+00   5.351607497785877e+00   3.698372700000000e+00 -1.99164744e+00  -9.43357230e-01  -3.80586980e-01
C     4.958530068314967e+00   5.414424566612500e+00   3.817525800000000e+00  5.64595190e-01   2.36359899e+00  -2.24083428e+00
C     5.826348048443728e+00   4.303709115291024e+00   3.672391200000000e+00  1.18118605e+00  -3.36168610e-01   7.91200140e-01
C     7.279157014098502e+00   4.477124189100659e+00   3.663033900000000e+00 -2.41853944e+00   5.95174930e-01   3.11282020e-01
C     8.092520603745488e+00   3.309890060006717e+00   3.635533200000000e+00 -1.73664482e+00   1.65730564e+00  -8.32509530e-01
C     9.463949157223372e+00   3.531267613857779e+00   3.609573900000000e+00  1.47710213e+00  -6.47538730e-01  -6.69543670e-01
C     1.031125402771301e+01   2.410560269980931e+00   3.407994600000000e+00  1.58338822e+00  -2.72797620e-01   1.89171171e+00
C     1.177216926792161e+01   2.527703532203138e+00   3.589751100000000e+00 -2.43635337e+00   2.01965797e+00  -1.76571533e+00
C     2.966145325708864e+00   4.029267428378972e+00   3.602660400000000e+00 -5.52655700e-02   1.81322397e+00   1.22183939e+00
C     3.846333071756571e+00   2.929409901872253e+00   3.706170300000000e+00 -1.08920590e+00  -1.84982973e+00  -7.90704930e-01
C     5.246174281670693e+00   3.005960751644352e+00   3.657351600000000e+00  4.42123590e-01   1.00664577e+00   1.62346080e-01
C     6.060583114362030e+00   1.853356026198859e+00   3.558950400000000e+00  1.60478800e-01   1.07273750e-01  -5.22470430e-01
C     7.458690776653045e+00   2.056371965389147e+00   3.437674200000000e+00  1.17720351e+00  -7.91952290e-01   1.42487125e+00
C     8.346950145642550e+00   9.357579523768268e-01   3.447973800000000e+00 -7.40631500e-01  -8.89599000e-02  -7.82577660e-01
C     9.750496445595568e+00   1.116287201576929e+00   3.428217300000000e+00  5.77065570e-01  -6.09457790e-01  -7.12637730e-01
C     1.848280561061649e+00   1.418931186677352e+00   3.456591300000000e+00  1.74972269e+00   1.04721720e-01   1.34169909e+00
C     3.289266289245781e+00   1.616996030513885e+00   3.621475200000000e+00 -1.71510589e+00  -1.13163332e+00  -6.84389250e-01
C     4.065327015619442e+00   4.244101492973316e-01   3.557099700000000e+00  9.32944830e-01   1.18371730e-01  -3.22495400e-02
C     5.489144239991399e+00   5.457114271540776e-01   3.522926100000000e+00  3.27055760e-01   2.85057600e-02  -1.74716960e-01
C     1.271993845583227e+00   1.189448363679004e-01   3.428150400000000e+00 -3.63246270e-01   1.72150630e-01  -4.17001220e-01
