76
Lattice="10.7446858958278 0 0 5.37234294791388 9.3051709414712 0 0 0 30 " PBC="1 1 1" Properties=species:S:1:pos:R:3:force:R:3 Energy="-600.92145267"
C     1.510679736465315e-01   8.764233437744981e-02  -3.797789999999779e-02 -3.31458473e+00  -2.16782760e-01  -5.57716670e-01
C     1.252993947665799e+01   8.629781068747024e+00   4.371300000000001e-03 -1.14507381e+00  -4.69362230e+00   1.48913870e-01
C     1.391954723282723e+01   8.354952286723865e+00   1.574430000000000e-02  2.33480876e+00   4.06049800e-02   1.10909752e+00
C     1.456562954759202e+01   6.992750912147608e+00  -2.311830000000015e-02 -4.35531190e+00   6.43058240e-01   3.25995620e-01
C     8.311237066094989e+00   8.959679434272159e+00  -1.881146999999999e-01 -8.16319610e-01   4.05597162e+00  -1.96984369e+00
C     9.697462233972624e+00   8.817906128985447e+00  -2.490965999999979e-01  9.55670920e-01   1.81696481e+00   9.87826490e-01
C     1.027167280751802e+01   7.540339192280284e+00  -2.453375999999992e-01 -8.45992080e-01  -2.33798207e+00   4.99590080e-01
C     1.165764230559466e+01   7.397028579702575e+00  -1.764060000000001e-02  1.91372607e+00   4.78533400e-02  -1.49378650e+00
C     1.227909951942640e+01   6.085983126782643e+00  -2.532606000000008e-01 -1.41377550e-01  -6.11012020e-01   7.25938080e-01
C     1.372678719171722e+01   5.789522706926976e+00  -1.633817999999998e-01 -2.31460773e+00   4.98450847e+00  -1.36810756e+00
C     6.007981430069989e+00   8.052103401759345e+00  -7.401569999999680e-02  1.26463960e+00  -7.14128350e-01  -6.88521700e-01
C     7.434824250544529e+00   7.904803104089400e+00  -2.776913999999984e-01 -1.63522002e+00  -2.41193084e+00   2.42934350e-01
C     7.947543309024800e+00   6.580231840794503e+00  -4.896728999999986e-01  2.26383345e+00  -1.94295777e+00   1.86777187e+00
C     9.389009324668663e+00   6.305669186660230e+00  -3.719999999999999e-01  7.78127130e-01   3.73359954e+00  -8.37940330e-01
C     1.003205922045532e+01   5.048313174288457e+00  -5.320008000000023e-01  9.27953680e-01   2.30350012e+00   7.80752990e-01
C     1.147444922536316e+01   4.951914301849629e+00  -5.298176999999988e-01 -1.65671090e-01  -7.16920770e-01  -2.23583118e+00
C     1.204224307248907e+01   3.616020878761777e+00  -1.042123499999999e+00 -4.18362334e+00   2.60255945e+00   2.91473603e+00
C     5.147661897613689e+00   6.791369519284641e+00  -1.001595000000002e-01  2.39884777e+00   5.76405164e+00   2.87682310e-01
C     5.706224447848619e+00   5.574265722313410e+00  -2.504844000000013e-01  4.75645708e+00  -2.81961194e+00  -6.33877010e-01
C     7.171888301990724e+00   5.387251792536931e+00  -3.615399000000004e-01 -7.09418960e-01   5.43505460e-01   3.18262980e-01
C     7.779560513600194e+00   4.053934226868690e+00  -2.856786000000007e-01  5.16310390e-01   3.91332332e+00  -8.50171040e-01
C     9.252779171292307e+00   3.932356864590154e+00  -4.592046000000032e-01 -4.34344454e+00  -5.35840000e-01  -1.42763650e-01
C     9.774895908124725e+00   2.661952769319475e+00  -5.003205000000008e-01 -2.22742071e+00  -4.93095230e-01   1.13781190e+00
C     1.113394040525142e+01   2.553503979668476e+00  -7.444316999999998e-01  1.06487810e+00  -2.50065509e+00   8.05433800e-02
C     3.490946890930545e+00   4.683599139484473e+00  -7.107174000000001e-01  2.48056505e+00  -6.14584253e+00   5.92735100e-01
C     5.006013145414535e+00   4.410529779182652e+00  -4.532202000000005e-01 -6.22712571e+00   7.58528880e-01  -1.21837940e-01
C     5.415592782025257e+00   3.118578537031599e+00  -1.927494000000003e-01  2.92797373e+00  -1.08125240e-01  -1.90145281e+00
C     6.887492798140292e+00   3.009264180379761e+00  -1.531773000000030e-01 -1.90691946e+00  -1.24178800e-01   7.11102870e-01
C     7.432372259498719e+00   1.775763648643447e+00   1.751220000000000e-02  3.95037500e-01  -3.50738181e+00  -1.10387524e+00
C     8.832449261544916e+00   1.626487211820975e+00  -1.079976000000009e-01  2.48704293e+00  -3.89010528e+00   4.67940650e-01
C     9.419922860471551e+00   1.889532204520844e-01   1.099722000000000e-01  3.79779700e-01   2.58782243e+00  -1.99774455e+00
C     2.624998486148383e+00   3.411625634083054e+00  -9.983861999999988e-01  3.78114556e+00   2.71964599e+00   1.74325102e+00
C     3.122003548946763e+00   2.157733843800532e+00  -6.110220000000020e-01  4.61609476e+00  -9.34258340e-01  -7.73037730e-01
C     4.654325876433012e+00   1.929321859873959e+00  -3.732977999999996e-01 -4.32400420e+00   5.60493067e+00   1.88644450e-01
C     5.208460487885122e+00   7.603456166766305e-01  -1.248944999999999e-01 -2.65542055e+00  -6.02258670e+00  -8.91678800e-01
C     6.545657116766761e+00   5.492687009527302e-01  -6.204629999999867e-02  4.15253321e+00   2.99935992e+00   1.43806515e+00
C     9.106372188665766e-01   1.267607053937825e+00  -4.615895999999999e-01  1.28283948e+00  -2.43098918e+00   3.98882820e-01
C     2.326963892910209e+00   1.044996099678666e+00  -4.897938000000011e-01 -2.78654320e-01  -2.02494246e+00   1.33675357e+00
C     1.598510000928313e+01   9.241021277643059e+00   3.885654300000000e+00  1.23896613e+00   1.84159960e+00   5.15757560e-01
C     1.169928226133152e+01   8.835713899871871e+00   3.651733200000000e+00  2.50663869e+00  -8.75025220e-01  -1.24958942e+00
C     1.314833402522078e+01   8.956329014423503e+00   3.595689600000000e+00 -8.47699100e-02  -5.59036249e+00   5.93482490e-01
C     1.407829459465678e+01   7.684891952126773e+00   3.600307200000000e+00 -4.55909576e+00   4.75169544e+00   1.66049370e-01
C     7.589461232783034e+00   8.334518875753302e+00   3.814397700000000e+00 -2.21928219e+00  -2.68931959e+00  -1.04618793e+00
C     8.957341514912732e+00   8.482248700113836e+00   3.561515700000000e+00 -3.06457564e+00  -9.36164800e-02   1.12195468e+00
C     9.682790526546462e+00   7.387999214029236e+00   3.642181200000000e+00  5.64996890e+00  -6.42092334e+00  -4.96520600e-01
C     1.117628784483136e+01   7.529760050386888e+00   3.725666700000000e+00 -1.54299232e+00  -1.63135814e+00  -5.71118200e-02
C     1.202140096056769e+01   6.335918994662239e+00   3.829182300000000e+00  1.65506518e+00   1.28367444e+00  -2.02315248e+00
C     1.349432478407870e+01   6.447244850116177e+00   3.594074700000000e+00 -1.10277004e+00  -1.28942506e+00   7.70805310e-01
C     4.638016678875690e+00   7.999145440698778e+00   3.764190000000000e+00  4.16881682e+00  -3.43108693e+00  -6.06404140e-01
C     5.558461861925505e+00   6.826407768252373e+00   3.673757700000000e+00  1.72912000e-03  -1.58853700e-02  -1.08143096e+00
C     6.993363357995332e+00   6.963456652149429e+00   3.619862700000000e+00 -1.39562918e+00   2.30624885e+00   1.10276675e+00
C     7.785487013725486e+00   5.815976749599141e+00   3.539901900000000e+00  1.33733949e+00  -1.02889000e+00  -1.36047996e+00
C     9.202862798900394e+00   5.975611051350055e+00   3.566440200000000e+00  9.83104020e-01   2.13877481e+00   1.51145939e+00
C     1.012239941131051e+01   4.871709311449393e+00   3.813795600000000e+00 -2.33661948e+00   6.95948020e-01  -1.23718449e+00
C     1.152152953791176e+01   5.015236548406587e+00   3.788937000000000e+00 -1.74657290e-01   2.17046931e+00   1.00851024e+00
C     1.242999133394760e+01   3.962189335675503e+00   3.886737900000000e+00 -8.54649290e-01  -2.23645703e+00  -4.96601500e-01
C     3.652460203527902e+00   5.314215505828871e+00   3.532598100000000e+00 -4.14107394e+00  -5.49430760e-01   8.00447580e-01
C     4.993999565833175e+00   5.475849488814791e+00   3.448756500000000e+00  9.31438220e-01   4.58902081e+00   8.58138850e-01
C     5.799852834929776e+00   4.405045962792582e+00   3.475049100000000e+00  2.79808579e+00  -4.86505778e+00  -4.43535010e-01
C     7.229307419929459e+00   4.495571039127244e+00   3.359629200000000e+00 -4.26805400e-01   1.17361514e+00   2.86013663e+00
C     8.072074218605799e+00   3.413545942209941e+00   3.759188100000000e+00  5.25806200e-01  -9.67069670e-01  -1.70629495e+00
C     9.477533394989596e+00   3.621906957691583e+00   3.860940600000000e+00  1.15296107e+00  -2.26370726e+00   7.58763120e-01
C     1.033115522749013e+01   2.446647770023858e+00   4.031081700000001e+00  8.26447840e-01   1.12568926e+00  -1.50281054e+00
C     1.185138419610221e+01   2.682881308435757e+00   3.968407200000000e+00 -4.48133041e+00  -2.55067250e+00   7.05000840e-01
C     3.071087490978715e+00   4.007299222513564e+00   3.734027100000000e+00  5.65771170e-01   2.08089017e+00  -2.67572910e-01
C     3.887526908134864e+00   2.870151595671633e+00   3.768088200000000e+00  1.27577320e-01  -2.09732957e+00  -6.30443540e-01
C     5.296854708676953e+00   3.038868674777081e+00   3.643539000000000e+00  2.19509510e-01   1.96488684e+00   1.39993850e-01
C     6.205638254332062e+00   1.943556352067715e+00   3.738134100000000e+00 -3.47786255e+00  -8.57416360e-01  -2.22286589e+00
C     7.575813279029424e+00   2.053251662417836e+00   3.720813300000000e+00  9.05208170e-01   5.27320700e-02   6.43263620e-01
C     8.398818558845344e+00   8.097719862103379e-01   3.725169600000000e+00  2.00316640e-01   6.88734731e+00   9.83338000e-03
C     9.783595074446511e+00   1.122300296090067e+00   3.835524600000000e+00  1.71141659e+00  -1.29209508e+00   9.24429650e-01
C     1.760018016395522e+00   1.455993496427954e+00   3.957249000000000e+00  6.07289335e+00  -1.14752893e+00  -4.68485750e-01
C     3.303805460971366e+00   1.532706070070989e+00   3.760752600000000e+00 -2.07550631e+00   1.43181557e+00   8.57146500e-01
C     4.155650337317759e+00   3.870414202676762e-01   3.616032600000000e+00 -1.47598860e-01   6.05334548e+00  -4.78864090e-01
C     5.528249578047880e+00   6.734925468983114e-01   3.477991200000000e+00  1.39759863e+00  -8.90270010e-01   2.46414100e+00
C     1.332215983456124e+00   7.594378041997241e-02   4.021363800000000e+00 -2.89242982e+00   2.22399569e+00  -1.18623733e+00
