64
Lattice="9.86 0 0 4.93 8.53901048131456 0 0 0 30 " PBC="1 1 1" Properties=species:S:1:pos:R:3:force:R:3 Energy="-515.35292848"
C     9.840235284899999e+00   2.627496219748400e-02  -1.989392999999993e-01 -5.39109840e-01   8.30314400e-02   2.01878920e-01
C     1.190585534400000e+00   7.324242310104720e-01  -1.629159000000016e-01  4.72232650e-01   1.94272804e+00  -8.27643770e-01
C     1.263953005600000e+00   6.804901400513216e-01   3.622357800000000e+00  6.82145720e-01  -8.22946390e-01  -5.18684700e-01
C     2.521212895300000e+00   1.354116196528295e+00   3.626236200000000e+00 -1.66190112e+00   4.76355950e-01  -2.66255380e-01
C     2.449429728900000e+00   7.289095742969040e-02  -2.102837999999991e-01 -1.27952718e+00  -1.68006844e+00   6.69317710e-01
C     3.671523682100000e+00   7.423377660074376e-01  -1.726539000000002e-01  6.27666350e-01   1.00779197e+00  -5.14566800e-02
C     3.719713791200000e+00   6.635495971600496e-01   3.516016500000000e+00  1.07112674e+00   3.61898570e-01   3.42075150e-01
C     4.927069558700000e+00   1.420344078690337e+00   3.525882300000000e+00  9.17342040e-01  -1.32475005e+00  -3.06506840e-01
C     4.901930404100000e+00   7.519341621551760e-02  -1.521258000000003e-01  1.11523042e+00  -2.12559655e+00  -1.82881290e-01
C     6.175409007800000e+00   7.606338768124096e-01  -1.665156000000003e-01 -1.51002673e+00  -3.39500940e-01  -1.31490140e-01
C     6.137740849800000e+00   6.580065838970623e-01   3.513870900000000e+00  1.39923102e+00   1.12362115e+00   1.89238230e-01
C     7.385431067200000e+00   1.364507232991302e+00   3.509867700000000e+00  1.95893292e+00  -5.98056000e-02   1.73014290e-01
C     1.231386712330000e+01   8.538652439290574e+00  -1.847735999999998e-01  7.23835500e-02   2.96093398e+00   5.86209130e-01
C     8.614896800099999e+00   7.782887079303336e-01  -1.369502999999987e-01 -4.17870000e-02  -2.42205443e+00  -6.36508330e-01
C     8.705869547799999e+00   6.463038700342224e-01   3.506003400000000e+00 -3.37174170e+00   1.17157041e+00   5.89311080e-01
C     9.896412832099999e+00   1.399078526990945e+00   3.615376200000000e+00 -2.20728810e-01  -1.83068890e+00  -6.35637660e-01
C     1.103033634820000e+01   2.198321625078779e+00  -2.260227000000015e-01  1.38545891e+00  -1.43281385e+00   1.19162051e+00
C     2.436207616800000e+00   2.869671095971680e+00  -1.233836999999980e-01 -6.33542400e-01   1.37718320e-01  -6.25396610e-01
C     2.505035593300000e+00   2.765972071850988e+00   3.644727300000000e+00  3.62347800e-02   1.71010987e+00   1.96118010e-01
C     3.724957585699999e+00   3.549262334389772e+00   3.677534100000000e+00  2.38399040e-01  -8.81817140e-01  -7.82229170e-01
C     3.684673668300000e+00   2.151378500355084e+00  -1.389114000000014e-01 -1.19203061e+00   1.31618126e+00  -1.53394710e-01
C     4.874607210200000e+00   2.905173910624586e+00  -1.541996999999995e-01  1.91882687e+00  -1.57907469e+00  -6.05037000e-03
C     4.987728426600000e+00   2.830179197182937e+00   3.529503900000000e+00 -1.80569409e+00   3.58962580e-01   5.85835470e-01
C     6.210961111200000e+00   3.522343701582305e+00   3.495823800000000e+00 -1.79237390e-01  -2.35324000e-02   5.55940490e-01
C     6.143265900799999e+00   2.183448376624715e+00  -1.972778999999996e-01 -2.07337910e-01   7.40119200e-02   3.11012390e-01
C     7.377860312699999e+00   2.879449031482223e+00  -2.074998000000008e-01 -3.98347760e-01   6.69044590e-01   5.07228450e-01
C     7.426455667799999e+00   2.798954256000302e+00   3.557817600000000e+00  1.07774200e-01  -1.07424070e-01  -7.02237420e-01
C     8.661890743299999e+00   3.531215818861130e+00   3.559037400000000e+00 -1.03201449e+00   1.22391200e-02   2.73800740e-01
C     8.611257129000000e+00   2.172839851564782e+00  -1.431000000000004e-01 -5.65286550e-01   1.08499500e+00  -6.23792300e-01
C     9.825141498299999e+00   2.927794347116839e+00  -1.926857999999996e-01  3.23936460e-01  -1.78553546e+00   6.65326800e-02
C     9.857746398399998e+00   2.786618289120266e+00   3.573028500000000e+00  1.29178526e+00   1.70195179e+00   2.81814680e-01
C     1.111283442590000e+01   3.480941711539292e+00   3.602745000000000e+00  6.59145910e-01  -5.79047900e-02   5.12091080e-01
C     1.229196219660000e+01   4.293966601761636e+00  -1.230957000000004e-01  1.22529876e+00   7.78617870e-01   5.16935480e-01
C     3.708265838200000e+00   4.994879322397765e+00  -1.646831999999989e-01 -2.18838211e+00   9.42801410e-01   6.34145290e-01
C     3.709209440200000e+00   4.980604829358559e+00   3.675146400000000e+00  6.61383000e-01  -1.27625419e+00  -4.87412310e-01
C     4.984966443399999e+00   5.648473458019392e+00   3.562682100000000e+00 -2.25309663e+00   1.23007236e+00  -1.37065080e-01
C     4.920057373199999e+00   4.307656855703801e+00  -1.317213000000024e-01  2.44867790e-01  -7.22306800e-02   7.56438200e-02
C     6.160095146000000e+00   5.017130105126340e+00  -7.322279999999992e-02 -1.48805713e+00  -1.31447000e-03  -8.19002770e-01
C     6.187486225999999e+00   4.942659003807324e+00   3.514467000000000e+00 -1.57704790e-01  -5.36919760e-01  -3.24191000e-02
C     7.381405820800000e+00   5.654123892034217e+00   3.492930000000000e+00  2.19794083e+00   5.89407210e-01   3.31848750e-01
C     7.367470485599998e+00   4.323465296585635e+00  -1.739696999999971e-01  2.69712590e-01  -1.48050803e+00   8.47299400e-02
C     8.576109285599999e+00   5.015111483048867e+00  -2.078217000000002e-01  1.55972497e+00   4.03830730e-01   5.16663240e-01
C     8.634534962100000e+00   4.982733690061327e+00   3.581950200000000e+00  5.94867410e-01  -2.01186452e+00  -9.74773940e-01
C     9.898129605999999e+00   5.624595310673539e+00   3.525326400000000e+00 -5.94235000e-02   1.17421375e+00   4.80883260e-01
C     9.849922044700000e+00   4.307319308619527e+00  -1.726187999999986e-01 -5.10807970e-01   2.61553024e+00   5.29033940e-01
C     1.109344626420000e+01   5.068680452954519e+00  -2.197290000000152e-02 -1.34794353e+00  -2.67450795e+00  -1.39380889e+00
C     1.113708307460000e+01   4.907164898945109e+00   3.641898300000000e+00 -1.55480814e+00  -1.47092520e-01  -7.01546200e-01
C     1.231743274580000e+01   5.648905873510099e+00   3.637313700000000e+00  1.75999966e+00   1.31370145e+00   4.09860500e-02
C     1.351398407320000e+01   6.424661313201331e+00  -1.458426000000017e-01  8.88462900e-02   1.51444970e-01  -4.76005410e-01
C     4.897655551800000e+00   7.130606755834162e+00  -2.445792000000004e-01 -1.74906481e+00   7.15378120e-01   1.12625132e+00
C     4.932506362700000e+00   7.089327385981641e+00   3.489730500000000e+00  1.87559897e+00  -1.35553313e+00   5.07684540e-01
C     6.203826957500000e+00   7.781389593035459e+00   3.502003800000000e+00 -9.06550250e-01   7.91898370e-01   2.89257360e-01
C     6.082823164100001e+00   6.425168786594158e+00  -1.273161000000016e-01  2.92756283e+00   9.28775880e-01  -3.70550180e-01
C     7.345493433000000e+00   7.182725630980099e+00  -1.536624000000018e-01 -4.28276920e-01  -1.01395952e+00  -2.34678960e-01
C     7.441248625799999e+00   7.063823667210710e+00   3.491046600000000e+00 -2.24076320e-01   1.13669073e+00  -2.41097470e-01
C     8.698612883599999e+00   7.801103521140530e+00   3.470121600000000e+00 -6.45760670e-01  -1.84168763e+00   8.58296500e-02
C     8.558763277799999e+00   6.434627363112750e+00  -1.685403000000001e-01  1.14636084e+00   9.62365870e-01   7.08439800e-02
C     9.829152398400000e+00   7.151235980472584e+00  -1.504778999999985e-01 -1.55488437e+00   1.20859491e+00   2.63565110e-01
C     9.943084796999999e+00   7.064192210903028e+00   3.468732900000000e+00 -1.77209409e+00  -4.71095430e-01   6.78147860e-01
C     1.113663922670000e+01   7.780897746031810e+00   3.584881500000000e+00 -6.58061360e-01   7.64873680e-01  -1.04547495e+00
C     1.104397415790000e+01   6.466041101817098e+00  -7.194210000000112e-02  4.16684980e-01  -1.64252180e-01  -7.87515600e-02
C     1.226493711980000e+01   7.158787710560887e+00  -1.165812000000024e-01  1.79961042e+00  -1.17165389e+00  -1.47355260e-01
C     1.235726936430000e+01   7.107345551995489e+00   3.567006900000000e+00 -1.32421134e+00  -2.42643012e+00   4.33061240e-01
C     1.355621100220000e+01   7.770590221091298e+00   3.535220100000000e+00  2.40427330e+00   1.20058559e+00  -3.12652010e-01
