64
Lattice="9.86 0 0 4.93 8.53901048131456 0 0 0 30 " PBC="1 1 1" Properties=species:S:1:pos:R:3:force:R:3 Energy="-513.41541706"
C     4.967567536700000e+00   8.416812372795226e+00  -1.845794999999981e-01 -4.71750920e-01   2.92514120e+00  -3.07160500e-02
C     1.268373933800000e+00   6.522977430505535e-01  -1.672781999999984e-01 -9.48119960e-01  -3.77275980e-01  -2.23650330e-01
C     9.857773957099999e+00   6.237294588084560e-02   3.585177300000000e+00 -1.05543297e+00  -5.90318870e-01   1.28415244e+00
C     1.212554008800000e+00   7.449818706025696e-01   3.636564600000000e+00  5.07422540e-01   3.05611805e+00   4.31342000e-03
C     7.412355670600000e+00   8.488000480754994e+00  -2.113148999999979e-01 -6.63130900e-02  -1.28056456e+00   7.08905970e-01
C     3.711486114200000e+00   6.200851799158016e-01  -2.327792999999971e-01  3.79060340e-01   7.82662160e-01  -1.28790544e+00
C     2.434483546500000e+00   9.593518501206641e-02   3.808759800000000e+00  1.52708974e+00  -1.08838321e+00   1.02671200e-02
C     3.703122911500000e+00   7.967027424700344e-01   3.775569000000000e+00 -1.66068975e+00   1.44748781e+00  -3.34326810e-01
C     9.851011081699999e+00   8.414629118595700e+00  -3.363140999999992e-01  1.31724890e+00   2.54044335e+00   7.46694800e-02
C     6.198714448900000e+00   6.221955963559336e-01  -3.674067000000001e-01 -1.30635678e+00  -1.58138294e+00   1.18160986e+00
C     4.913189291600000e+00   8.777385496559681e-02   3.737427900000000e+00 -4.31424510e-01  -4.54291770e-01   1.08163631e+00
C     6.110767735199999e+00   8.130866272681152e-01   3.837919500000000e+00  1.38980209e+00  -1.60739700e-01  -1.12152499e+00
C     1.233931622700000e+01   8.421439235623815e+00  -3.258377999999986e-01  6.33268600e-01  -6.14182530e-01  -1.29971483e+00
C     8.647921045999999e+00   5.919170337047969e-01  -2.385422999999989e-01  1.21133100e-01   1.05814652e+00  -1.35618700e-01
C     7.351250341900000e+00   5.733510047785520e-02   3.814653000000000e+00  7.05946130e-01   2.97049859e+00  -4.04861760e-01
C     8.623985895999999e+00   7.706438172376944e-01   3.648285000000000e+00 -1.38369938e+00  -9.01045100e-02   8.30170770e-01
C     1.263513496100000e+00   2.083078029569337e+00  -2.730804000000013e-01  1.53772304e+00  -4.87301600e-01  -1.22782388e+00
C     2.503224064800000e+00   2.812871818401445e+00  -5.442941999999995e-01 -6.06061140e-01  -3.88925163e+00   1.29686674e+00
C     1.106861912930000e+01   2.239084214017050e+00   3.597097200000000e+00 -1.14869277e+00  -2.42858649e+00  -5.09888800e-02
C     2.391814297900000e+00   2.956106290264327e+00   3.625952100000000e+00  3.11286731e+00  -1.42797556e+00   2.77782450e-01
C     3.714471327799999e+00   2.041722662523544e+00  -4.489821000000020e-01  5.81558580e-01   7.51956170e-01   8.53546900e-01
C     4.947139292900000e+00   2.762345383319923e+00  -3.643043999999982e-01  1.96051400e-01  -1.89993420e-01   3.13949630e-01
C     3.705482656000000e+00   2.263372660816467e+00   3.716237700000000e+00 -2.60342707e+00  -2.30799125e+00  -2.45860540e-01
C     4.909980453199999e+00   2.926918159251486e+00   3.728361900000000e+00 -2.72459500e-02   2.72541548e+00   1.45982960e-01
C     6.170327952599999e+00   2.005791701885171e+00  -1.723668000000025e-01  1.08679333e+00   2.65006023e+00  -1.06474984e+00
C     7.449495727000000e+00   2.762350762896525e+00  -1.220996999999997e-01 -1.46906251e+00   8.99684840e-01  -8.36239500e-01
C     6.121589183799999e+00   2.239997973528515e+00   3.743607900000000e+00  1.44718348e+00  -1.11416464e+00   6.21049920e-01
C     7.400897216700000e+00   2.909480048219545e+00   3.767106600000000e+00 -1.71060102e+00   2.72556400e-02   1.59601540e-01
C     8.658900353200000e+00   2.068231849778495e+00  -2.624132999999986e-01  1.17404417e+00  -1.30502652e+00   1.05703446e+00
C     9.942926494700000e+00   2.776882536321494e+00  -3.234203999999998e-01 -3.28909867e+00   1.48878403e+00  -2.20405970e-01
C     8.589731368599999e+00   2.195266025568616e+00   3.736357500000000e+00  1.19374512e+00  -1.06910710e+00  -1.02432355e+00
C     9.815556543000000e+00   2.914259930115934e+00   3.614897700000000e+00  2.65004010e-01  -8.29652840e-01  -1.49214550e-01
C     2.482178042700000e+00   4.164834476486684e+00  -6.313020000000016e-01 -3.42850890e-01   2.97281457e+00  -1.35970900e-01
C     3.712538324100000e+00   4.894286277949068e+00  -4.992380999999995e-01 -1.74470290e-01   5.56431900e-02  -9.11023870e-01
C     1.228408164090000e+01   4.336121903309196e+00   3.642700800000000e+00  6.47056390e-01   2.50375223e+00   3.89504590e-01
C     3.682480804300000e+00   5.109274994166543e+00   3.738915000000000e+00 -9.57112570e-01  -1.96054593e+00   2.95564000e-02
C     4.928482644599999e+00   4.219201246141481e+00  -4.003559999999986e-01  8.89240870e-01  -2.33503713e+00  -1.70314030e-01
C     6.157751571900000e+00   4.913229048017691e+00  -3.826910999999988e-01  1.84308671e+00  -2.63065000e-03   2.52363745e+00
C     4.898382874699999e+00   4.396875767412929e+00   3.789267900000000e+00  1.23052988e+00  -1.14081984e+00  -6.17883950e-01
C     6.173614586399999e+00   5.058201208513252e+00   3.815381700000000e+00 -2.36902980e-01  -3.61874030e-01   5.81016100e-01
C     7.439314389599999e+00   4.239574129685295e+00  -1.669671000000008e-01 -1.38696033e+00  -1.74322594e+00  -9.59874170e-01
C     8.653863175000000e+00   4.972222595110972e+00  -2.614094999999992e-01  2.44597030e-01  -3.50151397e+00  -6.17268760e-01
C     7.427478593500000e+00   4.315932950051122e+00   3.825349200000000e+00 -2.97734587e+00   3.48393780e-01  -3.54589060e-01
C     8.595402594099999e+00   5.028123141828186e+00   3.767317800000000e+00  1.39628058e+00   1.15860530e+00   2.01961000e-01
C     9.892782035000000e+00   4.247163089859289e+00  -4.830648000000011e-01 -1.13162086e+00  -2.22974565e+00   9.79497060e-01
C     1.108312836580000e+01   4.898599075972202e+00  -6.760461000000006e-01  1.81553224e+00   1.45016129e+00   9.44286240e-01
C     9.793443570299999e+00   4.301057481454333e+00   3.574617600000000e+00  2.02886942e+00   2.16950914e+00   1.13820437e+00
C     1.106462607580000e+01   5.044537937844204e+00   3.661782600000000e+00 -1.35024044e+00   5.54012400e-02  -6.17653380e-01
C     3.740637894400000e+00   6.301493601356554e+00  -5.314467000000000e-01 -7.87172210e-01   4.00034570e-01   7.90795200e-01
C     4.937476147800000e+00   7.043504067092292e+00  -2.339181000000004e-01  7.20011300e-01  -2.24305423e+00  -5.14627280e-01
C     1.354268816010000e+01   6.503596694589395e+00   3.778133100000000e+00 -1.30340619e+00   7.49557430e-01   2.38474680e-01
C     4.906447220800000e+00   7.186829820977207e+00   3.794225400000000e+00  1.53889291e+00   1.13252300e-01  -7.25758730e-01
C     6.184408476300000e+00   6.314785168899407e+00  -1.457708999999987e-01 -4.13501050e-01   9.17314930e-01  -1.50568954e+00
C     7.419270636499999e+00   7.051912174541634e+00  -1.720314000000016e-01 -3.86509570e-01  -3.33561550e-01   5.36908000e-03
C     6.190489680600000e+00   6.477102962943413e+00   3.866393400000000e+00 -2.19262960e+00  -5.01485000e-02  -3.25607600e-02
C     7.385696103999999e+00   7.191095398272386e+00   3.948256200000000e+00  6.52701200e-01   6.79220550e-01  -7.00431920e-01
C     8.648283302399999e+00   6.323810305246034e+00  -2.952699000000010e-01 -2.49242300e-01   2.76211556e+00   2.87941360e-01
C     9.874782161300001e+00   7.038086833453676e+00  -3.911121000000009e-01  3.33665740e-01  -5.95653730e-01  -2.48968820e-01
C     8.607060860899999e+00   6.456085811058884e+00   3.918217800000000e+00  3.27084680e-01   7.16722700e-01  -1.09179539e+00
C     9.834084469000000e+00   7.193471463328550e+00   3.767735100000000e+00 -8.19322000e-01  -3.62959890e-01   3.58685680e-01
C     1.112419289940000e+01   6.365916507483332e+00  -5.633675999999994e-01 -2.62044709e+00  -3.74515426e+00  -6.83076430e-01
C     1.232972535570000e+01   6.946490746617022e+00  -6.062283000000015e-01  2.75104797e+00   4.79561044e+00   1.67273231e+00
C     1.103796606550000e+01   6.480953117378740e+00   3.726324300000000e+00  1.27499327e+00  -2.00731020e-01   3.99756550e-01
C     1.226969836590000e+01   7.234649048176150e+00   3.826640400000000e+00  6.50119480e-01  -3.09452238e+00  -8.90783270e-01
