64
Lattice="9.86 0 0 4.93 8.53901048131456 0 0 0 30 " PBC="1 1 1" Properties=species:S:1:pos:R:3:force:R:3 Energy="-506.23710988"
C     4.957763985200000e+00   8.293782224409281e+00  -2.777231999999970e-01  9.18524120e-01  -1.48775145e+00   1.45792102e+00
C     1.308046925600000e+00   4.099331300144080e-01  -1.095752999999995e-01 -6.68970880e-01  -3.58982560e-01  -2.40294916e+00
C     1.187452519400000e+00   9.999691904906703e-01   3.445248900000000e+00 -1.58415694e+00  -2.16537946e+00  -1.59537850e-01
C     2.388889624700000e+00   1.611283013451311e+00   3.702677700000000e+00  7.94022090e-01   4.48432170e+00   2.31910170e-01
C     7.459066434600000e+00   8.160515595650018e+00  -2.585495999999985e-01 -1.61887000e-01   5.34220882e+00   1.03493795e+00
C     3.754018013000000e+00   4.566925806226784e-01  -1.704779999999992e-01  1.85535430e-01  -3.11334510e+00   2.81634080e-01
C     3.615176690799999e+00   1.035863433383979e+00   3.279097500000000e+00 -3.10042640e-01  -1.88100792e+00  -2.81503850e-01
C     4.861948942200000e+00   1.705526108146661e+00   3.240689400000000e+00  2.36647370e-01   8.55232920e-01   3.96549310e-01
C     9.922830532899999e+00   8.295038398240994e+00  -2.836950000000016e-02  7.43581200e-01   2.47936600e-02  -6.78969240e-01
C     6.255777424100000e+00   4.600069975404904e-01  -1.095566999999988e-01 -2.99558440e+00   1.32738785e+00   4.62254240e-01
C     6.087827360600000e+00   9.940629277218640e-01   3.036703500000000e+00  1.51642000e+00  -1.40783535e+00   1.11327179e+00
C     7.328602168400001e+00   1.690031219729653e+00   3.122322000000000e+00  1.00036718e+00   1.03151552e+00   3.70223830e-01
C     1.234850683160000e+01   8.291463712283752e+00   1.171110000000000e-02  1.21779046e+00  -2.93421440e+00  -8.51990000e-04
C     8.618200195899998e+00   4.475052030769320e-01  -2.251028999999996e-01  1.84065609e+00  -3.20716492e+00   3.25577500e-01
C     8.645382490399999e+00   1.032811420258217e+00   3.201321600000000e+00 -3.72746299e+00   4.84753980e-01   1.22526910e+00
C     9.806110416500001e+00   1.721561430536948e+00   3.621463800000000e+00  5.99214500e-01   5.83944930e-01  -2.01218216e+00
C     1.336656948100000e+00   1.849842643417569e+00  -3.366510000000034e-02  6.36792000e-03  -7.31597940e-01   2.54131251e+00
C     2.590144401800000e+00   2.464693836859654e+00   4.638198000000000e-01 -3.30624077e+00   2.48610034e+00  -2.07685156e+00
C     2.344218796100000e+00   3.170406249896486e+00   4.104534600000000e+00  2.40391467e+00  -1.75753403e+00  -2.33467009e+00
C     3.682205020100000e+00   3.832987010927475e+00   3.888441600000000e+00 -1.15278044e+00  -1.34343727e+00  -3.37813660e-01
C     3.803184212800000e+00   1.833135813243135e+00   1.064442000000000e-01 -2.29294918e+00   2.92111510e-01   8.39129170e-01
C     4.942788715800000e+00   2.592184849710456e+00   1.360383000000000e-01  4.11147987e+00   5.90187600e-01  -8.37328030e-01
C     4.905128938800000e+00   3.152675763145709e+00   3.442880100000000e+00 -2.99940470e+00  -2.67249953e+00   5.00415060e-01
C     6.070088431800000e+00   3.789780386409618e+00   3.144553200000000e+00  1.83230779e+00   2.79377139e+00   1.10408461e+00
C     6.221529847999999e+00   1.925478721936369e+00  -1.999628999999992e-01 -1.88225907e+00  -2.33696895e+00   1.13258232e+00
C     7.460830437899999e+00   2.523839890680108e+00  -2.348870999999981e-01 -1.35855652e+00   3.03170152e+00  -3.62439100e-02
C     7.297628999700001e+00   3.104575602501974e+00   3.208853100000000e+00  2.10292265e+00   2.95624840e-01  -1.27910644e+00
C     8.608470347899999e+00   3.854037208782561e+00   3.260632200000000e+00 -2.52566390e+00  -3.23821680e-01   8.92932290e-01
C     8.619510836400000e+00   1.787317703150179e+00  -2.558643000000025e-01  4.16205158e+00   4.05415896e+00   5.58331380e-01
C     9.947649878399998e+00   2.541970857022397e+00  -1.262909999999806e-02 -7.24389630e-01  -5.78034100e-02   1.82034590e-01
C     9.761549132499999e+00   3.181086161084031e+00   3.658533900000000e+00  1.67485387e+00  -6.67702630e-01   3.89983380e-01
C     1.098470693040000e+01   3.959404926331255e+00   3.966576900000000e+00 -2.15832150e-01  -3.62820683e+00  -2.56397600e-02
C     2.430827359900000e+00   3.917415281587007e+00   6.964100999999999e-01  3.71465745e+00   2.79626430e-01  -8.65556310e-01
C     3.731074828300000e+00   4.700926362936804e+00   5.276304000000001e-01  8.47099500e-02  -2.31595640e-01   2.56476250e-01
C     3.705043787400000e+00   5.223289996848123e+00   3.795910200000000e+00  5.12759200e-01   2.31045861e+00  -2.85752530e-01
C     4.922339618100000e+00   5.977312203235974e+00   3.361665000000000e+00 -2.78481753e+00   3.84444720e-01  -5.63167030e-01
C     4.972814782200000e+00   4.023982900888350e+00   3.439629000000000e-01  5.50345060e-01  -8.83171200e-01  -2.08626351e+00
C     6.218925871300000e+00   4.716953914827554e+00  -7.734510000000228e-02  5.97928400e-01  -1.50645609e+00   9.62328610e-01
C     6.123627788100000e+00   5.265299110536265e+00   3.092738700000000e+00 -5.16192791e+00  -3.40677156e+00   1.18449623e+00
C     7.240953177400000e+00   5.883309225515322e+00   2.883892200000000e+00  7.51919194e+00   5.22956438e+00  -2.11676180e-01
C     7.469305798100000e+00   3.963933590539323e+00  -2.162198999999987e-01  3.71306410e-01  -5.10373400e-02   5.55061120e-01
C     8.776627422099999e+00   4.596066631121565e+00  -9.140220000000099e-02 -4.03512424e+00   5.13249336e+00  -3.60342790e-01
C     8.572523992399999e+00   5.269910261585570e+00   3.131637000000000e+00 -4.18748800e-01   4.34619130e-01  -5.94183300e-01
C     9.782267210999999e+00   6.062074263815170e+00   3.258502200000000e+00  3.06961160e-01  -1.80884768e+00   1.63310195e+00
C     9.931174015600000e+00   3.998950620886021e+00   2.934930000000000e-01 -2.50397330e-01  -4.18009292e+00  -1.38784892e+00
C     1.108067421180000e+01   4.676968546623173e+00   6.318150000000000e-01  2.68214559e+00   3.19450130e-01  -6.71029870e-01
C     1.101280433150000e+01   5.336230792011319e+00   3.860926200000000e+00 -5.87306250e-01   1.92858873e+00  -1.79427343e+00
C     1.232530171600000e+01   5.958191053238425e+00   3.886314000000000e+00 -1.05006567e+00   1.12975884e+00  -2.22679078e+00
C     3.834457273400000e+00   6.120451208961690e+00   3.339849000000000e-01 -1.91499670e+00   8.58456250e-01  -7.34462640e-01
C     5.020916052700000e+00   6.843090673253234e+00  -1.102731000000006e-01 -7.23320720e-01  -1.17048960e-01   9.56045000e-01
C     4.790078071100000e+00   7.423028329155639e+00   3.095202900000000e+00  1.93909363e+00  -1.25182479e+00   1.72151472e+00
C     6.073699459599999e+00   8.088396137817195e+00   2.997100800000000e+00 -5.03536890e-01   2.22395617e+00   1.07271786e+00
C     6.295670836200000e+00   6.131548677761708e+00  -1.460153999999996e-01 -6.86188923e+00  -2.45358834e+00   1.16152260e-01
C     7.401404316500001e+00   6.796844246394603e+00  -2.603672999999986e-01  8.09552386e+00   3.50013710e-01  -6.25515280e-01
C     7.296278179700000e+00   7.402775845659594e+00   2.827818900000000e+00 -5.96957200e-02  -1.40462969e+00   6.90189650e-01
C     8.536487516499999e+00   8.140586996821479e+00   2.891249100000000e+00 -6.82843170e-01   1.14287371e+00   1.40746033e+00
C     8.730963642199999e+00   6.100052708386437e+00  -1.696034999999974e-01  5.87345990e-01  -3.30810090e-01   1.41856891e+00
C     9.966625941399998e+00   6.891088536551419e+00   1.291956000000000e-01 -1.08157856e+00  -3.06522517e+00  -7.97153850e-01
C     9.770173477299998e+00   7.479323805107555e+00   3.056176200000000e+00  1.69814323e+00  -2.22801951e+00   6.77055240e-01
C     1.108913394390000e+01   8.065152353559901e+00   3.190678800000000e+00 -3.15718842e+00   1.56919588e+00  -8.13365740e-01
C     1.122942917240000e+01   6.097543947107413e+00   4.484109000000000e-01 -3.91671244e+00   1.16624947e+00  -5.16626340e-01
C     1.239442790820000e+01   6.815961639227541e+00   3.578865000000000e-01  2.42598257e+00   1.95915670e+00  -1.08292382e+00
C     1.226926541330000e+01   7.313836074203059e+00   3.373297800000000e+00  6.89149670e-01   2.56277404e+00   1.22115841e+00
C     1.344281074780000e+01   8.183722918332561e+00   3.279148800000000e+00  2.00091220e+00  -3.66691889e+00  -8.16639450e-01
