64
Lattice="9.86 0 0 4.93 8.53901048131456 0 0 0 30 " PBC="1 1 1" Properties=species:S:1:pos:R:3:force:R:3 Energy="-510.27379915"
C     4.954699201400000e+00   8.275860036873230e+00  -5.303405999999988e-01  2.93297757e+00   2.13987019e+00   3.88887950e-01
C     1.332735379600000e+00   4.503832765592160e-01  -4.622996999999991e-01 -2.07842368e+00   8.02024720e-01  -4.68051200e-01
C     9.774724015200000e+00   3.182200587341776e-01   3.965380200000000e+00  6.23554370e-01  -1.99091688e+00   1.21497618e+00
C     1.209064061800000e+00   9.279935295943312e-01   3.939954300000000e+00 -9.34240430e-01   2.02175113e+00  -2.29680390e-01
C     7.511384580599999e+00   8.311814223620107e+00  -4.784801999999999e-01 -2.58958890e+00  -9.31223000e-01   3.80988620e-01
C     3.753271019400000e+00   4.985684003572272e-01  -5.175978000000008e-01  2.00504486e+00  -1.98843522e+00  -1.65339032e+00
C     2.421083905100000e+00   1.941976773304568e-01   4.191018600000000e+00  4.82374220e-01   4.13094581e+00  -2.47631270e-01
C     3.637175386100000e+00   1.049077295931465e+00   4.195749600000000e+00  1.28567550e-01  -5.18034570e+00  -1.63702680e-01
C     9.930315801199999e+00   8.274204664301577e+00  -7.051110000000023e-01 -3.68385260e-01  -4.89022480e-01   4.87755080e-01
C     6.232744069699999e+00   4.524344322666168e-01  -6.228932999999977e-01 -7.85808650e-01  -1.01804598e+00   1.10182230e-01
C     4.870579893200000e+00   2.959643233795248e-01   4.221789000000000e+00 -2.31546630e-01  -2.80068826e+00   7.55647460e-01
C     6.120561180199999e+00   9.099046605737088e-01   4.242462300000000e+00 -8.33022760e-01   3.19174303e+00  -1.27808637e+00
C     1.241146041730000e+01   8.336358328393295e+00  -6.527088000000028e-01 -2.02541405e+00  -3.16186700e+00  -1.56029100e+00
C     8.683068445700000e+00   4.768121117255496e-01  -5.563836000000002e-01  8.88411100e-02  -5.77832020e-01  -2.14920580e-01
C     7.364034522099999e+00   2.833691975314200e-01   4.136890200000000e+00 -2.50545257e+00  -3.23169510e+00   7.60284070e-01
C     8.479240898800001e+00   9.944833885978992e-01   3.902752200000000e+00  4.76783379e+00   1.62182466e+00   8.03501260e-01
C     1.258633535600000e+00   1.879282846019779e+00  -6.243069000000006e-01  3.26646220e-01  -2.25443100e-02  -7.94569360e-01
C     2.507331543600000e+00   2.568719990471835e+00  -9.666384000000008e-01 -1.67859959e+00  -5.42862680e-01   1.06662318e+00
C     1.108071656050000e+01   2.423606594742933e+00   3.757466400000000e+00  1.70892940e-01  -2.03578932e+00   9.70456190e-01
C     2.464222440400000e+00   3.171073232005079e+00   3.829164599999999e+00 -1.09222377e+00  -3.97442869e+00   4.69409970e-01
C     3.717755250100000e+00   1.864093227227431e+00  -8.264940000000003e-01  5.25972170e-01   8.92251710e-01   5.75868420e-01
C     4.940350485700000e+00   2.559511777740518e+00  -8.142927000000029e-01  2.08195217e+00   1.23031606e+00   1.28482852e+00
C     3.685218630500000e+00   2.388828229739151e+00   4.064591700000000e+00 -2.19470252e+00   2.99743013e+00  -3.93365620e-01
C     4.890609546499999e+00   3.074031562015014e+00   4.188084900000001e+00  6.75553300e-02   1.47480552e+00  -2.30741000e-01
C     6.166036634099999e+00   1.832593329907340e+00  -4.879883999999990e-01 -7.86346170e-01   1.81826811e+00  -1.93141379e+00
C     7.376369825800000e+00   2.547455121893281e+00  -5.405568000000009e-01  8.26055330e-01   1.50291238e+00   1.04126624e+00
C     6.074294362700000e+00   2.358542067368687e+00   4.131119100000000e+00  2.74756679e+00   6.78880030e-01   7.27885880e-01
C     7.327162213999999e+00   3.166624919885627e+00   4.082207700000000e+00 -1.09490990e+00  -2.29221860e+00   1.00891330e+00
C     8.628376899099999e+00   1.873197178640788e+00  -5.954046000000019e-01  3.87659570e-01   9.50851350e-01   1.12088724e+00
C     9.846261815500000e+00   2.593276220639905e+00  -6.207914999999993e-01  2.23244033e+00   3.40331710e-01  -1.89264737e+00
C     8.549851957700000e+00   2.436861871491248e+00   3.982935300000000e+00 -6.39483490e-01  -8.14077740e-01  -9.78680960e-01
C     9.806633243000000e+00   3.083468278666776e+00   3.864359400000000e+00  1.08472040e+00   4.78950800e-02  -4.37544570e-01
C     2.507749656900000e+00   3.963403659548933e+00  -1.160267099999999e+00  1.50038852e+00   9.25430970e-01   1.96735330e-01
C     3.780592734300000e+00   4.694434665609489e+00  -1.038952500000001e+00 -1.31971673e+00   2.09160968e+00   1.23819090e-01
C     1.225293202750000e+01   4.526112154005843e+00   3.886406700000000e+00  3.38144383e+00   1.70470887e+00   3.32441730e-01
C     3.688125309200000e+00   5.242656643396973e+00   4.059474000000001e+00 -2.23532912e+00   2.89883830e-01   4.64383550e-01
C     5.025714421700000e+00   4.028496365657764e+00  -8.466230999999986e-01 -1.79928668e+00  -1.19828399e+00  -4.42160970e-01
C     6.229878556500000e+00   4.760453000454351e+00  -6.668586000000012e-01  7.10222510e-01  -1.68583051e+00   1.92047845e+00
C     4.863261604000000e+00   4.530315481914623e+00   4.264249800000000e+00  7.84624360e-01  -3.34415110e-01  -1.41491180e+00
C     6.055406004400000e+00   5.307478492093377e+00   4.271363700000000e+00  2.02393218e+00  -2.46170766e+00   1.44635079e+00
C     7.418230554399999e+00   3.987868009964238e+00  -4.029689999999988e-01  1.06478353e+00  -2.77270240e-01  -2.28644479e+00
C     8.713646425600000e+00   4.675457141768213e+00  -5.774036999999979e-01 -2.21237633e+00   1.20795335e+00  -3.26361570e-01
C     7.315792697299999e+00   4.547616627218464e+00   4.331982600000000e+00 -2.38995690e-01   3.01764810e-01  -1.85111366e+00
C     8.575985148200001e+00   5.184300533436025e+00   4.203976800000000e+00  6.72209990e-01   1.29748553e+00   3.99182020e-01
C     9.912400427700000e+00   4.020711179022938e+00  -9.643839000000014e-01 -1.18202091e+00  -2.09378097e+00   2.29947116e+00
C     1.113464311900000e+01   4.677353997556240e+00  -1.190015400000000e+00  4.81057450e-01   6.47913290e-01   9.51596910e-01
C     9.850243677899998e+00   4.492378793104602e+00   3.916632900000000e+00 -3.05087840e+00   3.68114310e-01   1.02904985e+00
C     1.104702429960000e+01   5.177607827802010e+00   3.929901000000000e+00  1.98644800e-02   3.69032931e+00  -2.24038770e-01
C     3.704225949700000e+00   6.210171189805783e+00  -9.097134000000011e-01  3.25449183e+00  -2.75034102e+00  -2.90138660e-01
C     4.999032078500000e+00   6.918103489397100e+00  -6.290936999999985e-01 -1.46270501e+00  -3.55948408e+00  -2.07553630e-01
C     1.356527746940000e+01   6.668421712890538e+00   4.144875000000000e+00 -1.88561780e+00  -1.25471710e-01   8.69788000e-01
C     4.901413000600000e+00   7.400510019228727e+00   4.289301300000000e+00 -7.13311770e-01   1.90640857e+00  -1.91514361e+00
C     6.260357196899999e+00   6.148484524197215e+00  -4.792400999999984e-01 -3.43370676e+00   1.68324968e+00  -1.40637020e+00
C     7.431092431400000e+00   6.879418441708613e+00  -4.777470000000008e-01  2.32739328e+00  -4.86413430e-01   7.43588560e-01
C     6.118760349800000e+00   6.694352809135991e+00   4.335757500000000e+00  5.14045700e-02   7.14909410e-01   3.87455080e-01
C     7.382389651600000e+00   7.383912573778541e+00   4.423160100000000e+00 -7.55247170e-01  -2.09512050e+00  -8.03523080e-01
C     8.624774548100000e+00   6.101932571543609e+00  -5.413071000000009e-01  3.22289633e+00   1.18344633e+00  -1.78406035e+00
C     9.919863363099999e+00   6.828742573943690e+00  -8.683784999999986e-01 -1.60645790e+00  -1.15110540e-01   1.72284836e+00
C     8.575783954899999e+00   6.609422017709711e+00   4.372632600000000e+00  2.01436473e+00   4.96749850e-01  -1.00302298e+00
C     9.836502831200001e+00   7.330143107906819e+00   4.216270199999999e+00 -1.60568667e+00   1.78329924e+00   1.98455300e-02
C     1.115101658570000e+01   6.090263501382060e+00  -1.035421499999998e+00 -1.00192330e+00   1.86130003e+00  -7.77943840e-01
C     1.235428429860000e+01   6.870782428069560e+00  -1.031761799999998e+00  3.70193490e-01   1.58400738e+00   2.10968610e+00
C     1.107681890250000e+01   6.672601985471021e+00   4.033848600000000e+00 -9.52293820e-01  -1.80893245e+00   1.38075697e+00
C     1.228081295230000e+01   7.368268508848447e+00   4.246666800000000e+00  1.85548122e+00   3.65580730e-01  -2.28089756e+00
