32
Lattice="9.86 0 0 4.93 8.53901048131456 0 0 0 30 " PBC="1 1 1" Properties=species:S:1:pos:R:3:force:R:3 Energy="-256.66023438"
C     5.184636619899999e+00   6.631081217792230e+00  -2.387027999999987e-01 -1.63679630e+00   6.75455070e-01   3.03412110e-01
C     6.380755635600000e+00   7.408980376064467e+00  -2.052125999999994e-01  2.50262060e-01  -2.88028302e+00  -5.10583930e-01
C     7.610694993599999e+00   6.715119682623351e+00  -1.962660000000014e-01  2.30750980e-01  -2.62360045e+00   3.90725100e-02
C     8.846059767300000e+00   7.345491381513885e+00  -2.309850000000004e-01  1.08741775e+00   9.64780200e-01   1.51214370e-01
C     1.009201950540000e+01   6.608606115258347e+00  -2.772474000000003e-01 -3.77564810e-01   3.25404774e+00  -2.17517730e-01
C     1.131277190700000e+01   7.360011371104392e+00  -3.148841999999981e-01  9.23172540e-01  -4.35432710e-01  -6.12216900e-02
C     1.255386238270000e+01   6.676504142480172e+00  -3.856803000000006e-01  6.26965990e-01  -1.87905428e+00   5.71345260e-01
C     1.378458432890000e+01   7.366085425429130e+00  -2.397768000000013e-01  6.46225830e-01   6.15056800e-02  -7.97864710e-01
C     1.490064990600000e+00   2.255630852354880e-01  -3.633771000000010e-01 -1.48267557e+00   2.40741388e+00   4.51761580e-01
C     2.688594628400000e+00   9.341187325918447e-01  -2.855993999999988e-01  1.61082670e+00   8.68811320e-01  -3.18871540e-01
C     3.928052436000000e+00   2.484167221039504e-01  -2.128949999999996e-01 -4.73343770e-01  -1.99057962e+00  -2.91598230e-01
C     5.147412605600000e+00   8.918016167956897e-01  -2.236127999999979e-01  2.22922015e+00   2.40404842e+00   4.42858720e-01
C     6.443924908800000e+00   2.317832420295392e-01  -2.478252000000012e-01 -2.29857468e+00   4.59354920e-01  -4.56619430e-01
C     7.642864180299999e+00   9.960877832769864e-01  -3.372698999999990e-01  1.14664420e-01  -1.35494644e+00   9.04772350e-01
C     8.869696701600001e+00   2.608175854636352e-01  -2.713491000000019e-01  1.00295512e+00   3.19218940e-01  -9.75191980e-01
C     1.013514295490000e+01   9.669658295953656e-01  -4.161611999999977e-01 -1.93715707e+00   2.67582560e-01   7.27734580e-01
C     2.742663023000000e+00   2.352521125689135e+00  -3.426870000000015e-01 -1.21151377e+00   6.61406760e-01   1.43343330e-01
C     3.971536416400000e+00   3.082991118761154e+00  -2.255159999999989e-01 -2.00505749e+00  -1.86395690e+00  -1.77521900e-02
C     5.166827635800000e+00   2.339838645763819e+00  -1.554453000000002e-01  1.88883680e-01   1.57177010e-01  -1.09022760e-01
C     6.369530420000000e+00   3.080697882106645e+00  -1.137501000000007e-01  1.68454563e+00   4.57765280e-01  -5.91101930e-01
C     7.617645208999999e+00   2.402658267282874e+00  -2.744679000000012e-01  6.95081010e-01   5.51256200e-01   3.74862830e-01
C     8.878683056300000e+00   3.126469113032065e+00  -3.008045999999993e-01 -1.44673756e+00  -1.48346190e-01  -2.01058660e-01
C     1.008953882800000e+01   2.416329906182192e+00  -4.240409999999990e-01  1.45725300e+00  -1.52998218e+00   1.93708390e-01
C     1.136112598790000e+01   3.083764155379908e+00  -4.228623000000020e-01 -8.74901980e-01   6.25118580e-01  -8.81028500e-02
C     3.862871377700000e+00   4.468263090487196e+00  -2.263298999999996e-01  4.28476453e+00   1.67509812e+00  -6.87516950e-01
C     5.157267823500000e+00   5.201196246522276e+00  -2.123613000000013e-01 -1.26329430e-01   5.08804010e-01   6.94575670e-01
C     6.418599745300000e+00   4.528604691164955e+00  -1.044546000000004e-01 -1.32953324e+00  -8.22464250e-01  -6.05631500e-01
C     7.647195530399999e+00   5.252679050777558e+00  -1.865319000000021e-01 -1.32648048e+00   8.22694010e-01   4.54583750e-01
C     8.857379983999998e+00   4.554449116454037e+00  -2.426415000000013e-01  6.97940430e-01  -8.06322780e-01  -3.92011040e-01
C     1.010040183650000e+01   5.245824701675157e+00  -3.491633999999983e-01 -7.51573680e-01  -1.75011759e+00   1.42437280e-01
C     1.129373564870000e+01   4.519047489075319e+00  -4.438500000000012e-01  2.78047483e+00  -5.54490920e-01   1.01119870e-01
C     1.258552437100000e+01   5.205621588703536e+00  -4.350096000000008e-01 -3.23316485e+00   1.49803864e+00   6.24864500e-01
