32
Lattice="9.86 0 0 4.93 8.53901048131456 0 0 0 30 " PBC="1 1 1" Properties=species:S:1:pos:R:3:force:R:3 Energy="-255.40047003"
C     9.804635607000000e+00   5.881140999974240e-02   3.841082400000000e+00  2.89845252e+00   9.81369820e-01  -5.25735560e-01
C     1.250995585200000e+00   7.877442104051520e-01   3.775187700000000e+00 -2.92424839e+00  -6.19085160e-01   1.97799220e-01
C     2.473440209300000e+00   6.491210603717840e-02   3.828708000000000e+00 -1.96242744e+00   2.49959517e+00  -1.20855570e-01
C     3.637569194500000e+00   8.684811522242856e-01   3.839027100000000e+00  9.70252760e-01  -4.98552971e+00   1.46612600e-01
C     4.821607048000001e+00   8.872219746950560e-02   3.925937400000000e+00  3.64680834e+00   1.73189520e-01  -7.92513490e-01
C     6.124173144699999e+00   7.590971110963241e-01   3.815456700000000e+00  3.41062300e-02   1.08828713e+00   1.05145811e+00
C     7.406117692300000e+00   1.452025429983128e-01   3.862714200000000e+00 -3.00309788e+00  -2.43700946e+00   3.94616700e-02
C     8.609059877300000e+00   8.407160473079367e-01   3.859741500000000e+00  7.15682630e-01  -1.53309894e+00  -1.00267863e+00
C     1.105644764950000e+01   2.205821694153677e+00   3.747602700000000e+00  6.49427310e-01   1.25330808e+00   4.37230510e-01
C     2.455592031700000e+00   2.938420804098780e+00   3.840894599999999e+00 -1.65592189e+00   7.49846630e-01  -7.27445290e-01
C     3.649647152200000e+00   2.208161126854883e+00   3.788851200000000e+00  1.70762948e+00   3.43369245e+00   6.67780860e-01
C     4.940975511100000e+00   2.906309342848111e+00   3.854833500000000e+00 -1.16468371e+00  -4.24793620e-01  -3.68624670e-01
C     6.186320921899999e+00   2.181729559205196e+00   3.868316700000000e+00 -2.25741852e+00   1.05720111e+00  -3.94588260e-01
C     7.357076369400000e+00   2.953306263337831e+00   3.847740000000000e+00  1.21949325e+00   7.69621150e-01  -1.27833853e+00
C     8.609539024000000e+00   2.226481573839723e+00   3.685211700000000e+00 -1.11879170e+00   2.00000550e+00   1.68628495e+00
C     9.800126481100000e+00   2.959248646120967e+00   3.747874200000000e+00  2.02469654e+00  -1.68033824e+00  -1.25683600e-02
C     1.229244415340000e+01   4.400839319907431e+00   3.881116500000000e+00  1.38477370e+00  -2.94898827e+00   2.26457500e-02
C     3.687759207400000e+00   5.080716871346916e+00   3.969654900000000e+00 -1.61040997e+00   5.22301210e-01  -9.30376040e-01
C     4.902131301600000e+00   4.312842938328725e+00   3.844505700000000e+00 -2.40790800e-01   1.60619699e+00   1.55569006e+00
C     6.104102375200000e+00   5.085170819213285e+00   3.973663500000000e+00  5.51528320e-01  -1.84623295e+00  -1.57305582e+00
C     7.324988330500000e+00   4.442261803575597e+00   3.795174000000000e+00  3.31586370e+00  -3.04025988e+00   1.67886888e+00
C     8.670372709700001e+00   5.107816189616140e+00   3.894458400000000e+00 -3.94710972e+00  -3.38552930e-01  -8.15370200e-01
C     9.854600121699999e+00   4.359177743945825e+00   3.884546400000000e+00 -1.84879572e+00  -7.77955450e-01  -8.28742050e-01
C     1.104725250930000e+01   5.011756249660961e+00   3.843291600000000e+00  2.55292533e+00   4.02254087e+00   1.20155596e+00
C     1.347348737700000e+01   6.551500628772299e+00   3.957727800000000e+00  3.29842583e+00  -3.21639646e+00  -6.37409120e-01
C     4.916998899799999e+00   7.161599777492160e+00   3.830888100000000e+00 -2.24000306e+00   2.06557501e+00   1.16585724e+00
C     6.127343923500000e+00   6.447924907962938e+00   3.908441100000000e+00  3.88057290e-01   3.52493874e+00  -1.49643470e-01
C     7.361575092999999e+00   7.236538816585478e+00   3.874698300000000e+00  7.68825950e-01  -3.25896746e+00  -7.64282500e-02
C     8.629309950900000e+00   6.524298500816897e+00   3.861276900000000e+00 -1.11349833e+00  -1.17405041e+00   8.34369800e-01
C     9.839254855800000e+00   7.186137990348117e+00   3.945454200000000e+00  7.30630600e-01   1.72890306e+00  -1.80417990e-01
C     1.111842174280000e+01   6.479542729017758e+00   3.960133200000000e+00 -4.09435466e+00  -5.95267030e-01  -7.34914270e-01
C     1.226184512240000e+01   7.226864800832477e+00   3.906873000000000e+00  2.32397199e+00   1.39995353e+00   4.64089970e-01
