26
Lattice="8.88768389401873 1.33226762955019e-15 0 4.44384194700937 7.69696003302603 0 0 0 30 " PBC="1 1 1" Properties=species:S:1:pos:R:3:force:R:3 Energy="-204.57050727"
C     1.206054887004614e+01   6.032030528941099e+00  -3.972557999999999e-01  1.32531391e+00   3.86698043e+00  -2.40981970e-01
C     8.363141767228399e+00   5.935078157980814e+00  -8.731799999999978e-02 -2.51111694e+00   8.91487430e-01  -1.95107978e+00
C     9.668823541644242e+00   5.528966303793135e+00  -7.088219999999978e-02  4.83381442e+00  -3.94595580e-01   5.15725890e-01
C     1.012889440837020e+01   4.046449906360415e+00  -1.444673999999999e-01 -3.99503259e+00   4.86198308e+00  -7.62076140e-01
C     5.915767805795364e+00   5.221119537098858e+00  -4.510764000000016e-01  2.10400850e+00   5.53771782e+00   1.00963375e+00
C     7.307865286221341e+00   4.960529872870373e+00  -3.354338999999982e-01 -9.53521100e-02  -2.29688190e-01   5.19945780e-01
C     7.637032789903750e+00   3.617793579275266e+00  -4.019460000000024e-01 -3.00420630e-01  -1.01135858e+00  -8.06261800e-02
C     8.976367468281925e+00   3.183635773039075e+00  -3.027188999999986e-01  1.62318004e+00  -1.83649349e+00   1.06982872e+00
C     9.246962068822281e+00   1.754677902279107e+00  -2.236602000000012e-01  3.09930076e+00   1.37197041e+00  -2.25438080e+00
C     3.616378847212485e+00   4.663927825992723e+00  -6.122502000000019e-01 -3.98762667e+00   3.27563787e+00   2.33888096e+00
C     4.918507192327889e+00   4.310216952658886e+00  -4.728710999999990e-01  4.79820980e-01   4.81741890e-01  -7.97234500e-01
C     5.285404202871965e+00   3.020519256086505e+00  -3.767010000000006e-01 -4.42971819e+00  -3.17516902e+00  -4.87994060e-01
C     6.537092053386872e+00   2.624499963768563e+00  -4.912139999999994e-01  6.51457879e+00   1.32983337e+00   1.66213420e-01
C     6.964866232368547e+00   1.316044775603072e+00  -5.192405999999998e-01 -2.15789378e+00  -3.72006420e+00   1.49329769e+00
C     8.300565892413539e+00   7.886114362129255e-01  -5.016698999999996e-01 -1.59373356e+00   8.72092560e-01   1.03755473e+00
C     2.580808583359473e+00   3.764720618379136e+00  -3.743814000000008e-01 -8.80030490e-01  -3.15577424e+00  -4.51570340e-01
C     2.869514950535599e+00   2.367370929739166e+00  -4.243431000000015e-01 -2.46128519e+00  -7.04393560e-01   6.69164680e-01
C     4.218222491527043e+00   2.025137763202063e+00  -3.761834999999998e-01 -8.82959970e-01   2.53024112e+00  -3.74368440e-01
C     4.481599181874709e+00   7.293010482793548e-01  -2.694000000000010e-01  3.40550922e+00  -6.00056770e+00   3.70032380e-01
C     5.919950213376451e+00   3.839052008659253e-01  -1.777082999999990e-01  8.18299680e-01  -3.42296857e+00  -1.16075681e+00
C     1.078871166262086e+01   6.602736023680706e+00  -5.589060000000146e-02 -3.56430684e+00  -1.82380362e+00  -1.73912110e+00
C     1.736880379976942e+00   1.328203971240864e+00  -3.352095000000013e-01  1.64700003e+00   2.20598823e+00   6.97111060e-01
C     6.514824853434531e+00   7.651637789346550e+00  -2.989983000000009e-01  3.94561657e+00   9.18189500e-02  -6.09988570e-01
C     7.992049014491096e+00   7.310959562674708e+00  -3.262268999999982e-01 -1.65498327e+00   1.37653289e+00   1.83992305e+00
C     4.166936381586050e+00   7.129353716216473e+00  -4.609631999999984e-01  1.57564326e+00  -3.88853890e+00   4.17106020e-01
C     5.578274142134696e+00   6.630927448273786e+00  -3.309707999999993e-01 -2.85762590e+00   6.69389590e-01  -1.23423943e+00
