32
Lattice="9.62 0 0 4.81 8.3311643844063 0 0 0 30 " PBC="1 1 1" Properties=species:S:1:pos:R:3:force:R:3 Energy="-256.52580303"
C    -6.805470906977949e-03   7.742262350982038e-03   3.008381644851191e+00  2.83468640e-01  -1.15194457e+00  -1.41394320e-01
C     1.198804856263089e+00   6.888073566086781e-01   2.992783756255085e+00 -1.36873270e-01   4.59771810e-01   1.21889650e-01
C     2.395917423418490e+00   2.699624264576023e-03   2.994776053831460e+00  8.38362320e-01  -3.94635600e-01   1.62811300e-02
C     3.612491212926612e+00   6.926893116862242e-01   2.992885258227596e+00 -1.08921202e+00   3.58118300e-01   2.42447700e-02
C     4.796734204566744e+00  -6.117502330119974e-03   3.002901247529332e+00  1.32275762e+00   4.21943250e-01   3.64507200e-02
C     6.012892793649233e+00   6.954287969449494e-01   3.008878402926583e+00  7.17957400e-02  -3.20603170e-01  -7.64604400e-02
C     7.229725669940079e+00  -6.665459388472107e-03   3.007822767464784e+00 -1.63839631e+00   5.63063970e-01  -1.05041200e-02
C     8.413113763283535e+00   6.853969337396767e-01   3.008277794716140e+00  4.85955380e-01   7.90605110e-01   1.38617000e-03
C     1.198878572100394e+00   2.080334468228302e+00   3.004556934661711e+00  4.45380380e-01   3.95698100e-02  -2.20589000e-03
C     2.415070033381376e+00   2.779659967529623e+00   3.009524637269120e+00 -9.97016360e-01  -3.53907270e-01  -1.41918270e-01
C     3.598018421110230e+00   2.089187016782568e+00   2.993489738082548e+00  1.42605749e+00  -5.41772910e-01   4.42594000e-02
C     4.819539632933227e+00   2.781258058639502e+00   2.992926939182373e+00 -8.12838860e-01  -4.68265330e-01  -3.76992900e-02
C     6.020898798287770e+00   2.087169011498653e+00   2.995654307463948e+00 -5.90481870e-01  -4.87741070e-01   1.38692000e-03
C     7.209198077847438e+00   2.777690895143461e+00   2.989546094133368e+00  8.61436920e-01   1.99440760e-01   1.44538470e-01
C     8.412037383433626e+00   2.079427307895973e+00   3.000235945666750e+00 -2.83389000e-02  -1.13545800e-02  -1.55805400e-02
C     9.618578831924800e+00   2.770547500683662e+00   3.004022458284617e+00 -2.75129000e-03   1.26564770e-01  -2.96286700e-02
C     2.415516022137394e+00   4.157527113873397e+00   2.997702427751870e+00 -7.12114810e-01   6.54705140e-01   1.56425960e-01
C     3.601530141655646e+00   4.867781656293135e+00   3.000142334774752e+00  5.52809300e-01  -4.78376420e-01  -1.38099810e-01
C     4.808344000666713e+00   4.159806551158522e+00   2.989391700658643e+00  1.09173900e-02   6.74093660e-01   1.75661550e-01
C     6.012453182110023e+00   4.853578215833944e+00   3.012488611206654e+00  1.25240860e-01   6.26675610e-01  -1.95242390e-01
C     7.222778200489925e+00   4.171124066304159e+00   3.009415759893040e+00 -8.77865560e-01  -5.34245030e-01  -1.05102710e-01
C     8.403502679442584e+00   4.861795848983387e+00   3.001380743949348e+00  1.75021682e+00   1.19822010e-01   2.50447600e-02
C     9.633483689772023e+00   4.162257817272367e+00   2.998010577318097e+00 -1.73726783e+00  -1.35579970e-01   9.51660200e-02
C     1.081448280709783e+01   4.845838925626102e+00   3.009244527944026e+00  1.24557595e+00   4.81834680e-01  -1.78274880e-01
C     3.614392485270499e+00   6.253114177435307e+00   2.995477817065598e+00 -9.83983660e-01  -1.65764940e-01   1.22397300e-02
C     4.807754459723020e+00   6.929463236827582e+00   2.995267051158979e+00  7.12565480e-01   1.27820964e+00   3.64363800e-02
C     6.025612504215618e+00   6.254519396243028e+00   2.994554184714347e+00 -5.39575100e-01  -8.69621470e-01   1.73860290e-01
C     7.228983171250884e+00   6.936611035760478e+00   3.007891231002751e+00 -5.66153570e-01   8.80010170e-01  -1.27736340e-01
C     8.425856078634689e+00   6.255881338923078e+00   3.003750388717013e+00 -9.43082900e-02  -7.52000410e-01   8.52418800e-02
C     9.626133949231921e+00   6.940974630164502e+00   3.010246814232741e+00  6.98042000e-03  -1.91312850e-01  -1.15208240e-01
C     1.082515568344509e+01   6.237717957177035e+00   2.997100770408316e+00 -1.50661980e-01   3.61759810e-01   1.27148660e-01
C     1.201570123777409e+01   6.952984170447804e+00   2.996624403758795e+00  8.18318980e-01  -1.17906291e+00   3.73934500e-02
