32
Lattice="9.86 0 0 4.93 8.53901048131456 0 0 0 30 " PBC="1 1 1" Properties=species:S:1:pos:R:3:force:R:3 Energy="-258.0782259"
C    -4.152051764748218e-03  -3.224206477839864e-03   3.000316234166866e+00  3.25661540e-01   1.36948700e-01   1.52437600e-02
C     1.233994341956933e+00   7.129278836001791e-01   3.000082904622102e+00 -2.22387080e-01  -2.38796010e-01   4.10440000e-03
C     2.462409354734090e+00  -3.716032012066980e-03   2.997051767226409e+00  1.14563020e-01   2.07443860e-01   2.98582200e-02
C     3.696328999935826e+00   7.085885096017490e-01   2.999633206600947e+00 -6.58293600e-02   1.65107110e-01  -3.03311300e-02
C     4.928664658040276e+00   4.251828263887910e-03   2.997053333759758e+00  2.87051000e-02  -2.60423110e-01   5.16866700e-02
C     6.159913523366868e+00   7.122529939764476e-01   3.001775930301358e+00  1.67777200e-01   9.47901500e-02  -4.34619700e-02
C     7.393067449824108e+00   2.057475358846985e-04   3.002345066302610e+00  4.60760000e-03  -3.94808600e-02   5.05688000e-03
C     8.629808968003676e+00   7.094958130695882e-01   3.004496592419474e+00 -2.57706360e-01   6.00178500e-02  -4.93108900e-02
C     1.232969857585144e+00   2.133615622635634e+00   3.003631674478723e+00  1.08092120e-01   2.08834900e-02  -5.69912700e-02
C     2.466695591829310e+00   2.844799185916168e+00   2.998552872115882e+00 -1.66626000e-02   1.81207740e-01   6.45555300e-02
C     3.700464231887193e+00   2.134472024782285e+00   3.000056715886269e+00 -1.66177290e-01  -9.59525400e-02  -1.53897500e-02
C     4.931230619684015e+00   2.845627766134920e+00   2.998890791936653e+00 -2.35368300e-02   2.89250200e-02  -2.96358300e-02
C     6.164461477159882e+00   2.137191875648060e+00   2.997480474718408e+00 -1.27156540e-01  -1.43100950e-01   5.47502900e-02
C     7.392140984711686e+00   2.847475505505728e+00   3.001375201912079e+00  2.68696460e-01  -7.73391700e-02  -5.12394600e-02
C     8.628312769902404e+00   2.132796535447480e+00   2.999362059793009e+00 -2.70735400e-02   1.07808970e-01   4.67574500e-02
C     9.862500437795921e+00   2.844295008366343e+00   2.999978221441190e+00 -1.52941570e-01   8.73788800e-02   1.09396700e-02
C     2.461885208560828e+00   4.273283453379626e+00   3.002950164539351e+00  1.46314310e-01  -2.29326580e-01  -5.17006700e-02
C     3.696163577599805e+00   4.983545042854529e+00   2.998853747268460e+00 -1.18278500e-02  -8.06307500e-02   1.89300000e-04
C     4.927541802679513e+00   4.266878143210535e+00   2.995296770803083e+00  1.08293770e-01   2.06153330e-01   4.27925900e-02
C     6.164020138301599e+00   4.980382054471208e+00   2.998265204010373e+00 -1.88547220e-01   1.14093010e-01   1.42648100e-02
C     7.392753384473189e+00   4.269600292670774e+00   2.999023071643450e+00  1.77665250e-01   3.88977300e-02   3.06070000e-03
C     8.628604815938075e+00   4.982130236301552e+00   2.998888515912291e+00 -7.99205200e-02  -4.71665600e-02   2.06737800e-02
C     9.861227023562469e+00   4.269750428937778e+00   2.998798146891842e+00 -1.33221210e-01  -6.69486300e-02   1.12535800e-02
C     1.108964219789174e+01   4.981975852828321e+00   3.000546885193067e+00  1.11946340e-01  -5.77794600e-02  -4.00351000e-03
C     3.697657340762446e+00   6.407385447002655e+00   2.998691724688498e+00 -7.63173700e-02  -1.95183280e-01   3.58320000e-04
C     4.927303582189293e+00   7.114000061077996e+00   2.999128239345825e+00  2.02367070e-01   1.08713570e-01   2.37473100e-02
C     6.165513381922018e+00   6.408010593701421e+00   3.003518435643148e+00 -2.53997060e-01  -3.06613300e-01  -7.12123500e-02
C     7.393980332306678e+00   7.114963939892711e+00   2.999060490879246e+00  4.95007900e-02   5.15659200e-02   3.51853900e-02
C     8.626456688879772e+00   6.406080915158752e+00   3.002371270403854e+00  1.32936480e-01  -7.42559800e-02  -4.13366300e-02
C     9.860296108159446e+00   7.117742258801794e+00   3.000421063340287e+00  3.92598900e-02  -4.11684800e-02  -2.50881600e-02
C     1.109482335778137e+01   6.401495199874570e+00   2.997819118673478e+00 -2.51694500e-01   2.12784720e-01   2.91215600e-02
C     1.232361563183680e+01   7.114457282435716e+00   2.999018955687982e+00  6.86099600e-02   1.31445610e-01   6.10140000e-03
