26
Lattice="8.88768389401873 1.33226762955019e-15 0 4.44384194700937 7.69696003302603 0 0 0 30 " PBC="1 1 1" Properties=species:S:1:pos:R:3:force:R:3 Energy="-204.89555388"
C     2.210403424972941e-01   3.118795889019952e-01   3.886754400000000e+00 -1.80416530e-01  -2.83772636e+00  -3.10430320e-01
C     7.043642400256400e+00   7.435374917930834e+00   3.546586500000000e+00 -4.24455195e+00  -2.83286485e+00   8.59648940e-01
C     3.908542921285679e+00   6.169074979244850e-02   3.598199700000000e+00  2.48691000e+00   3.48823306e+00  -1.33889733e+00
C     9.422663894822463e+00   6.898476011034995e+00   3.552537900000000e+00  2.35525937e+00  -6.24027034e+00   2.58143090e-01
C     1.083001779602364e+01   7.197151311066325e+00   3.818706600000001e+00 -5.74315000e-01  -1.10633453e+00  -1.06160939e+00
C     1.188408812814523e+01   6.163174643625053e+00   3.849870300000000e+00 -3.88927694e+00  -6.35994380e-01   7.73282750e-01
C     4.335613645145052e+00   6.538853179671713e+00   3.933556800000000e+00 -1.69043345e+00   3.47579094e+00   5.33362700e-02
C     5.281771719254195e+00   5.583469324431168e+00   3.944754300000000e+00  2.61591486e+00  -2.34959186e+00   3.64934330e-01
C     6.637660198274224e+00   6.033101022142072e+00   3.673389000000000e+00  1.93443837e+00  -2.00891593e+00  -1.25771639e+00
C     7.683769165366559e+00   5.010373846632647e+00   3.348359100000000e+00  8.92811920e-01  -1.18980442e+00   3.29678332e+00
C     9.167634026529806e+00   5.374352156768104e+00   3.359428200000000e+00 -2.71267694e+00   8.04909070e-01   8.06548760e-01
C     1.016986489815473e+01   4.277341389100348e+00   3.505488600000000e+00 -2.22827466e+00   4.38536438e+00  -3.08048430e-01
C     1.144739866722496e+01   4.715935954006634e+00   3.864511200000000e+00  3.36695160e-01   3.97013415e+00  -1.24315652e+00
C     3.570469382209735e+00   3.811571475294544e+00   3.884476800000000e+00  4.46961830e-01  -1.34921139e+00   3.49154730e-01
C     4.870924354645444e+00   4.139987521003391e+00   4.139402700000000e+00  4.87623892e+00   3.28064433e+00  -2.27990300e+00
C     5.941768768150393e+00   3.214390054413343e+00   3.927889200000001e+00  1.00500851e+00  -1.63543185e+00   9.74400990e-01
C     7.359500373441450e+00   3.506481066956610e+00   3.745041900000000e+00 -7.19289200e-02   5.00208827e+00  -1.88710373e+00
C     8.455587675631408e+00   2.617507737398910e+00   3.675198000000000e+00 -2.40527198e+00  -1.93420367e+00   8.58571010e-01
C     9.806581307094227e+00   2.923651551686549e+00   3.450808800000000e+00 -9.15336470e-01   2.89132591e+00   1.01670867e+00
C     1.960713899593721e+00   2.047952322426986e+00   3.559463100000000e+00 -1.03381775e+00  -1.36417278e+00  -6.29980030e-01
C     3.287068693924708e+00   2.498491953543029e+00   3.569133600000000e+00  4.82558080e-01  -3.01019653e+00   4.63788930e-01
C     4.298956256344092e+00   1.487496484511330e+00   3.568434300000000e+00 -1.37516456e+00  -1.21578064e+00   1.74399325e+00
C     5.602827387828071e+00   1.802783055801004e+00   3.927117600000000e+00  2.28234921e+00   1.19946914e+00  -1.59047421e+00
C     6.703743546391130e+00   8.552917403448216e-01   3.874223400000000e+00  6.07249500e-02   7.22533120e-01   1.42097111e+00
C     8.090921160943882e+00   1.242668347153877e+00   3.979622100000000e+00 -8.48635540e-01   1.30975223e+00  -1.63503455e+00
C     1.539989118680779e+00   7.026835750428095e-01   3.633749100000000e+00  2.39422950e+00  -8.19745080e-01   3.02087710e-01
