2
Lattice="2.512 0 0 1.256 2.17545581430651 0 0 0 30 " PBC="1 1 1" Properties=species:S:1:pos:R:3:force:R:3 Energy="-16.0839294"
C     0.000000000000000e+00   0.000000000000000e+00   3.000000000000000e+00 -0.00000000e+00  -0.00000000e+00   0.00000000e+00
C     1.256000000000000e+00   7.251519381021698e-01   3.000000000000000e+00  0.00000000e+00   0.00000000e+00  -0.00000000e+00
