32
Lattice="9.632 0 0 4.816 8.34155668925171 0 0 0 30 " PBC="1 1 1" Properties=species:S:1:pos:R:3:force:R:3 Energy="-256.83262805"
C     1.223213493995778e-04   5.012199568643964e-04   2.999496498611302e+00  5.82021000e-03  -5.55440900e-02   5.12210000e-03
C     1.204026072873316e+00   6.960759403703785e-01   3.000954273758152e+00 -1.56953900e-02  -5.11373400e-02  -2.52032100e-02
C     2.407098409427597e+00  -7.049591494432463e-04   2.998919933025548e+00  4.53048800e-02   2.42476000e-02   2.73350200e-02
C     3.611857470103510e+00   6.939976660201049e-01   2.999896054404342e+00  7.95300000e-04   7.19204400e-02   1.97535000e-03
C     4.816359138866656e+00  -5.334026233836755e-04   3.000424421803968e+00 -3.74098200e-02   3.91635000e-02  -9.89430000e-04
C     6.020218797664339e+00   6.939834724770735e-01   3.000141720643882e+00 -1.39485000e-02   8.72783000e-02  -3.25288000e-03
C     7.223420279892153e+00  -2.044363175997523e-04   2.999478728396905e+00  6.92568200e-02   4.22754000e-03   9.10659000e-03
C     8.428465076107299e+00   6.949863366564605e-01   2.999173737514248e+00 -5.17648900e-02   9.68540000e-04   3.51798000e-03
C     1.204107514835421e+00   2.086064170265872e+00   2.999533723385962e+00 -4.72520000e-04  -3.65624900e-02   1.59982000e-02
C     2.407330474584509e+00   2.780249131205431e+00   3.001050811828864e+00  9.58563900e-02   2.46086700e-02  -1.42104100e-02
C     3.613146196977315e+00   2.085804272204526e+00   3.000970024533360e+00 -8.48164100e-02  -7.01453600e-02  -1.31114300e-02
C     4.816832568098074e+00   2.780225106068757e+00   2.999018058557363e+00 -2.36799100e-02   2.63215000e-02   2.06973900e-02
C     6.020369413453277e+00   2.085528452868759e+00   2.999666647949454e+00 -1.28134800e-02  -7.53344400e-02  -2.69579000e-03
C     7.223337931247655e+00   2.780293796375871e+00   2.999925208118868e+00  4.78141100e-02   2.74673700e-02  -2.37518000e-03
C     8.427444319272430e+00   2.084887809313263e+00   2.999898108849570e+00  5.63898700e-02   4.18657300e-02  -7.20742000e-03
C     9.632868165662376e+00   2.780726593411196e+00   2.999478638772737e+00 -1.03901790e-01  -3.62557200e-02   8.74349000e-03
C     2.407465369835950e+00   4.170669074583713e+00   2.999290628109809e+00 -1.39642300e-02   7.23771000e-03   9.01795000e-03
C     3.611280919936192e+00   4.865941865154206e+00   2.999006048320024e+00  4.51331000e-02  -3.17138300e-02   1.35831500e-02
C     4.815960473961902e+00   4.170446464945286e+00   3.000500109385332e+00  3.50008000e-03   3.21613200e-02  -1.61650800e-02
C     6.020594164905229e+00   4.866368220485994e+00   3.000455546436322e+00 -7.19896600e-02  -6.11252400e-02  -9.01921000e-03
C     7.223695629098951e+00   4.171183213235659e+00   2.999614355582808e+00  3.05322800e-02  -3.31030000e-02   6.63875000e-03
C     8.428175287638645e+00   4.865488612366786e+00   2.999867909278627e+00 -3.50910200e-02   2.66253000e-02   9.07141000e-03
C     9.630944161665438e+00   4.170158707042476e+00   3.001135619075666e+00  7.31476100e-02   4.22958900e-02  -1.68185700e-02
C     1.083535124676409e+01   4.866369146576527e+00   3.000362348274578e+00  2.15123000e-03  -3.85718100e-02   1.82298000e-03
C     3.612539245447766e+00   6.256107530313193e+00   3.000232766369241e+00 -6.96562400e-02  -1.60758500e-02  -8.26110000e-03
C     4.814957262372830e+00   6.950267970670970e+00   2.999275134271323e+00  8.64240700e-02   8.61202200e-02   1.32580000e-03
C     6.019161681280796e+00   6.255204568200536e+00   2.999107339625978e+00  4.37216400e-02   6.89235500e-02   1.70916100e-02
C     7.224128292778193e+00   6.950545499141511e+00   3.001088659793219e+00 -5.02582400e-02   3.76527000e-03  -2.60956100e-02
C     8.428437321163367e+00   6.256266292312235e+00   3.000498890886746e+00 -2.29532200e-02  -1.88378400e-02   3.82724000e-03
C     9.631431439103654e+00   6.952324796490777e+00   3.000816776883182e+00  7.38044600e-02  -9.42416500e-02  -1.10261000e-03
C     1.083654497735222e+01   6.256119934753039e+00   3.000823784471591e+00 -4.55866600e-02   4.24540700e-02   1.31455000e-03
C     1.204058936359481e+01   6.951683305825704e+00   3.000996852442950e+00 -2.56500600e-02  -3.90038500e-02  -9.68164000e-03
