26
Lattice="8.88768389401873 1.33226762955019e-15 0 4.44384194700937 7.69696003302603 0 0 0 30 " PBC="1 1 1" Properties=species:S:1:pos:R:3:force:R:3 Energy="-207.55356777"
C     1.303961755027689e+01   7.385034798125027e+00  -3.933461999999999e-01  2.36280678e+00  -2.23015591e+00  -1.51751440e-01
C     9.269680014432872e+00   7.148865663831724e+00  -4.794365999999997e-01  2.70816922e+00   1.63028251e+00   1.01900488e+00
C     1.074492231082581e+01   6.757390271867492e+00  -6.068315999999996e-01 -4.53693333e+00   2.13881930e-01  -8.43599000e-02
C     1.101717090937906e+01   5.391504370377358e+00  -6.167513999999983e-01  1.72320670e+00  -5.05110440e-01   1.11892510e-01
C     6.941448121942775e+00   6.577023866882889e+00  -2.073495000000030e-01 -2.00788585e+00   1.98544680e-01   7.34846680e-01
C     8.264647743491293e+00   6.160733167903536e+00  -3.274032000000027e-01  1.35356697e+00   7.57449560e-01  -1.11562042e+00
C     8.603989645486179e+00   4.798447750376234e+00  -5.154660000000000e-01  2.15971066e+00  -6.67440200e-02   9.26864580e-01
C     1.001887336978697e+01   4.411067141147964e+00  -4.933202999999970e-01 -1.85723706e+00   7.54550600e-01  -3.10453560e-01
C     1.033752123306459e+01   3.070010786049005e+00  -3.039486000000018e-01 -9.40522150e-01  -3.26163907e+00   3.33193490e-01
C     4.528337292942227e+00   5.980134545634828e+00  -4.465572000000009e-01  1.45847600e-01   7.26385900e-01  -2.08333480e-01
C     5.906309355109147e+00   5.626284126415645e+00  -3.315789000000002e-01 -2.80795360e-01  -3.10386068e+00  -3.95166900e-01
C     6.243222386334800e+00   4.144924659045035e+00  -4.356561000000028e-01  1.22243620e-01   3.08744627e+00  -2.71530140e-01
C     7.653962716873033e+00   3.801473294643984e+00  -4.741049999999980e-01 -2.75384419e+00  -1.57651660e+00  -2.11700960e-01
C     7.951661909224012e+00   2.380160660342616e+00  -4.905314999999995e-01  1.06133179e+00   1.33931443e+00   5.79747350e-01
C     9.301140501203857e+00   1.995631082079057e+00  -2.637006000000000e-01  1.07600042e+00   1.31205482e+00  -6.71955820e-01
C     3.521470026335744e+00   4.975751381025701e+00  -6.158039999999971e-01 -1.13448134e+00   1.64057392e+00   1.52242225e+00
C     3.803019674987506e+00   3.657249043054650e+00  -3.319404000000006e-01  1.52449003e+00  -3.24337722e+00  -1.38057634e+00
C     5.181284141886134e+00   3.198299251592227e+00  -4.809009000000017e-01  7.27240220e-01   2.02204469e+00   1.39641345e+00
C     5.591326636039107e+00   1.866721240952612e+00  -4.284197999999968e-01 -2.35170749e+00  -1.38587302e+00  -3.33051860e-01
C     6.909396108691442e+00   1.448585580654069e+00  -5.360535000000013e-01  1.04986948e+00  -1.25061672e+00   5.94181600e-02
C     7.275713419976276e+00   3.955537032057270e-02  -5.830254000000004e-01 -7.24468860e-01   2.22693685e+00   5.27372990e-01
C     2.796172094578133e+00   2.617912212648486e+00  -2.063966999999991e-01  4.31364880e-01   2.15597285e+00  -2.33457860e-01
C     3.169997099114404e+00   1.268976633506017e+00  -1.184024999999984e-01 -1.01920597e+00  -1.18753412e+00   3.65489810e-01
C     4.543370984696971e+00   9.018845951600238e-01  -2.940194999999974e-01 -5.13691170e-01  -2.76956688e+00  -5.30244170e-01
C     7.830537889227087e-01   6.014914875891988e-01  -1.750197000000000e-01 -2.79583145e+00   2.17444606e+00  -1.27619750e-01
C     2.082402510893639e+00   2.356566706945055e-01   6.270300000000000e-03  4.47075587e+00   3.41109610e-01  -1.55084356e+00
