26
Lattice="8.88768389401873 1.33226762955019e-15 0 4.44384194700937 7.69696003302603 0 0 0 30 " PBC="1 1 1" Properties=species:S:1:pos:R:3:force:R:3 Energy="-206.62218589"
C     8.864567031609408e-01   1.140273378786778e+00   3.181871700000000e+00  2.09915927e+00   3.28809750e+00   1.10565151e+00
C     3.348203026247805e+00   5.587912933395688e-01   3.326286000000000e+00 -1.94361577e+00   5.73087500e-01   1.69354420e-01
C     4.674591060511206e+00   1.001117960225200e+00   3.526488600000000e+00  7.50461540e-01  -2.19592279e+00   9.09873600e-01
C     5.733430657155917e+00   1.715128997404960e-02   3.815979600000000e+00 -6.67846770e-01   1.17044784e+00  -1.24138278e+00
C     7.077618100377198e+00   4.486350183566190e-01   3.652640700000000e+00  1.66005950e+00  -2.78448549e+00   4.13414550e-01
C     1.257334978924137e+01   7.088521189318122e+00   3.523437300000000e+00 -2.42546016e+00   1.31859281e+00   1.89462010e-01
C     5.025980445340242e+00   7.534618212074450e+00   3.230647500000000e+00 -1.60216979e+00  -4.58098849e+00   3.50884570e-01
C     6.028630682396699e+00   6.541027263001786e+00   3.173222700000000e+00  2.10179086e+00  -1.88404648e+00  -1.36969110e-01
C     7.469057166270245e+00   6.857282727620038e+00   3.268644900000000e+00 -2.60132701e+00   2.37197879e+00   7.02818640e-01
C     8.426825088550872e+00   5.934589631927709e+00   3.616935000000000e+00  2.82746425e+00  -8.35413830e-01  -5.64515570e-01
C     9.823135198277580e+00   6.370002889314395e+00   3.890964300000000e+00 -1.33293996e+00  -3.02944932e+00  -9.74746160e-01
C     1.080332314737970e+01   5.261045285136074e+00   3.825443700000000e+00  8.02956500e-02   2.89433641e+00   1.31883840e-01
C     1.213065905314735e+01   5.730129663869998e+00   3.629772600000000e+00  3.93841156e+00  -1.81866846e+00  -1.08261160e+00
C     4.357957147923715e+00   4.683056157120080e+00   3.365754600000000e+00 -1.74576290e+00   2.51872787e+00   3.35652930e-01
C     5.739320706338761e+00   5.120639572387224e+00   3.171787500000000e+00 -1.36273657e+00   4.43136000e-03   1.43927061e+00
C     6.791162807267979e+00   4.141601650491283e+00   3.314922000000000e+00 -6.85363220e-01  -8.73984600e-02  -1.30706108e+00
C     8.159376548523763e+00   4.546251698030064e+00   3.399823500000000e+00 -1.97733048e+00   2.09143880e-01   1.15734591e+00
C     9.100941112052105e+00   3.530688083220560e+00   3.484688700000000e+00  2.62896153e+00  -8.12032600e-02   4.53675600e-01
C     1.046354370294150e+01   3.905673277107719e+00   3.705044400000000e+00  8.41927340e-01  -9.03344060e-01  -2.25946151e+00
C     2.623537634014520e+00   2.914376791819999e+00   3.343160400000000e+00 -2.79701558e+00   7.96380950e-01   2.14448696e+00
C     3.939448688743106e+00   3.338838352658399e+00   3.387457200000000e+00  3.66522089e+00  -1.26478312e+00  -4.09677700e-02
C     5.018819279536633e+00   2.322113728397970e+00   3.487342500000000e+00  1.25106973e+00   3.21955086e+00  -1.68674899e+00
C     6.477265231490612e+00   2.734417017233780e+00   3.327239700000000e+00 -3.52770017e+00   1.54296777e+00   1.98743117e+00
C     7.461169121331493e+00   1.786095122820760e+00   3.536607600000000e+00  6.88928970e-01  -2.97785530e-01  -1.54634025e+00
C     8.842662973145982e+00   2.152274147767995e+00   3.350500200000000e+00 -2.93043894e+00   2.91445120e-01   4.05224830e-01
C     2.238231695412978e+00   1.538823431562584e+00   3.292302600000000e+00  3.06595623e+00  -4.35699370e-01  -1.05562632e+00
