2
Lattice="2.407 0 0 1.2035 2.08452314690914 0 0 0 30 " PBC="1 1 1" Properties=species:S:1:pos:R:3:force:R:3 Energy="-16.04918342"
C     0.000000000000000e+00   0.000000000000000e+00   3.000000000000000e+00  0.00000000e+00   0.00000000e+00   0.00000000e+00
C     1.203500000000000e+00   6.948410489697145e-01   3.000000000000000e+00 -0.00000000e+00   0.00000000e+00  -0.00000000e+00
