32
Lattice="9.86 0 0 4.93 8.53901048131456 0 0 0 30 " PBC="1 1 1" Properties=species:S:1:pos:R:3:force:R:3 Energy="-253.5482318"
C     9.694986737499999e+00   5.735850590558088e-01   4.680258300000000e+00 -3.53702310e-01   8.19369170e-01  -5.50775670e-01
C     1.074543243700000e+00   1.269983204851161e+00   4.566280200000000e+00  2.57782690e-01  -1.24885990e-01   7.41841220e-01
C     2.350036442600000e+00   5.289457593596176e-01   4.661697000000000e+00 -1.01381414e+00   4.69532700e+00  -1.67512316e+00
C     3.574557138999999e+00   1.300531258673046e+00   4.392200099999999e+00 -2.93019153e+00   9.76314040e-01   2.03541855e+00
C     4.776753612199999e+00   6.552571933027119e-01   4.409793300000000e+00  5.82623980e-01  -1.28012322e+00  -8.67161980e-01
C     6.005249959199999e+00   1.373997318458565e+00   4.399778100000001e+00  6.15725390e-01  -1.97655805e+00   1.09393678e+00
C     7.217356274699999e+00   5.777614890815769e-01   4.603499700000000e+00 -2.16910926e+00  -1.22342199e+00  -5.74688980e-01
C     8.379619205599999e+00   1.229107047073506e+00   4.599716400000000e+00  5.47251364e+00   3.29919804e+00   1.11071800e-02
C     1.091925373610000e+01   2.693915631915508e+00   4.460379600000000e+00  1.89975687e+00  -8.13735070e-01   8.06844200e-01
C     2.282209897000000e+00   3.446295103467216e+00   4.594932600000000e+00 -1.07026535e+00  -5.21890740e-01  -1.32910028e+00
C     3.508699290300000e+00   2.719258390338890e+00   4.512770400000000e+00  1.70722755e+00   8.29259540e-01  -1.51883450e+00
C     4.776418914500000e+00   3.463957790474782e+00   4.310735700000000e+00 -1.18176354e+00  -5.77030844e+00   1.27152739e+00
C     6.031923280499999e+00   2.782678475074898e+00   4.449613500000000e+00 -1.18166223e+00  -1.75268657e+00  -3.87140800e-01
C     7.278289644999999e+00   3.404133056101378e+00   4.635578400000000e+00  1.89657450e-01  -3.75745860e+00  -1.10660623e+00
C     8.477728917100000e+00   2.695932204630465e+00   4.522427400000000e+00  3.29334130e-01  -1.65811777e+00   3.08248380e-01
C     9.735028296099999e+00   3.399958077707391e+00   4.422436500000000e+00 -1.48393628e+00   4.00208800e-02   5.38837890e-01
C     1.206507866660000e+01   4.869917735231349e+00   4.525018800000000e+00  4.41895273e+00   4.41390310e-01  -1.60884090e-01
C     3.610109587499999e+00   5.496131106798332e+00   4.512250200000000e+00 -6.48499749e+00   2.87961589e+00   1.73237230e-01
C     4.735514260800000e+00   4.778099121781585e+00   4.348982400000000e+00  3.70756984e+00   3.49806004e+00   1.26822547e+00
C     5.994588045399999e+00   5.430193807162924e+00   4.574289300000000e+00  1.03346416e+00   3.35744958e+00   5.79832060e-01
C     7.320423298400000e+00   4.707206719754740e+00   4.697298300000000e+00 -3.88154552e+00   7.54786387e+00  -7.26267100e-01
C     8.451321322799998e+00   5.501943355061754e+00   4.599333600000000e+00  3.59982097e+00   1.22891758e+00  -4.33462200e-01
C     9.763574425800000e+00   4.819613912153040e+00   4.462483200000000e+00 -3.56241575e+00   1.92019497e+00   2.37308380e-01
C     1.089023220650000e+01   5.665065523892975e+00   4.447741200000000e+00  1.44661044e+00  -1.96520314e+00   7.08097630e-01
C     1.340011216570000e+01   6.926702785291089e+00   4.647381300000000e+00  1.78747319e+00   6.11517530e-01   5.33410000e-03
C     4.805130544300000e+00   7.726730703832140e+00   4.727300400000000e+00 -3.11428276e+00  -2.83952877e+00  -2.74841860e-01
C     5.937926667999999e+00   6.952012668524123e+00   4.728928200000000e+00  4.65131762e+00  -1.50409103e+00  -7.18333870e-01
C     7.262996292000000e+00   7.740032859747989e+00   4.670789700000000e+00 -1.01696576e+00  -5.94014563e+00   1.19028570e-01
C     8.505693750500001e+00   6.977669918703485e+00   4.527428400000001e+00 -2.27353692e+00  -4.39852320e-01   5.32973620e-01
C     9.666242914800000e+00   7.757562765142590e+00   4.412415899999999e+00  2.54622781e+00  -1.10854140e-01   7.98090010e-01
C     1.095567243490000e+01   7.102891774909330e+00   4.529954700000000e+00 -3.70744145e+00  -3.65096926e+00  -1.03382778e+00
C     1.217917976980000e+01   7.643267768307371e+00   4.622840700000000e+00  1.17957180e+00   3.18533228e+00   1.27159860e-01
