26
Lattice="8.88768389401873 1.33226762955019e-15 0 4.44384194700937 7.69696003302603 0 0 0 30 " PBC="1 1 1" Properties=species:S:1:pos:R:3:force:R:3 Energy="-208.67982642"
C     1.312777142057133e+01   7.447343767747085e+00  -1.918514999999985e-01 -3.33450400e-02   9.48915960e-01  -1.96647150e-01
C     9.371354807154979e+00   7.286556196960392e+00  -1.707018000000033e-01  8.20929900e-02  -9.78493850e-01  -1.44385410e-01
C     1.073561375074707e+01   6.883430994173154e+00  -3.277230000000131e-02  2.26640700e-02  -5.51672050e-01  -3.60810620e-01
C     1.108718617227002e+01   5.480126475436375e+00  -7.038599999999917e-02 -6.51759490e-01   1.39135996e+00   9.75801200e-02
C     7.008348518277393e+00   6.691189719254266e+00  -3.997130999999996e-01 -6.32409860e-01  -1.53736021e+00   3.75307610e-01
C     8.351729092563756e+00   6.271446548853458e+00  -2.488467000000014e-01  6.21501760e-01   1.46214868e+00   7.68824000e-02
C     8.733728810988573e+00   4.922823928105809e+00  -1.469018999999996e-01 -2.32438143e+00  -9.55803640e-01  -1.73879230e-01
C     1.005258319947307e+01   4.549974178809373e+00  -1.469984999999987e-01  1.35701571e+00  -2.88713874e+00  -3.65389000e-01
C     1.039285693063958e+01   3.117149124421533e+00  -3.289841999999972e-01 -4.70581600e-02   1.58369580e+00   5.58557160e-01
C     4.582437913571799e+00   6.098634556199098e+00  -1.896701999999983e-01  6.25726010e-01  -2.65558996e+00   7.49969600e-02
C     5.990594283290642e+00   5.688017902214661e+00  -2.859683999999980e-01 -1.08423663e+00  -6.35887630e-01   2.56685840e-01
C     6.331684837043360e+00   4.252575804447020e+00  -1.883133000000008e-01 -2.90971640e-01   2.17202932e+00  -7.69081000e-03
C     7.724314911855755e+00   3.883165672648792e+00  -1.355576999999997e-01 -1.34088268e+00   7.01651310e-01  -3.59444680e-01
C     8.010549614156171e+00   2.507518024631009e+00  -1.552355999999975e-01  1.43893695e+00  -2.07061730e-01  -3.61955500e-01
C     9.402276744714321e+00   2.123577494718546e+00  -3.297462000000024e-01 -1.61269836e+00  -6.31668790e-01   4.26297070e-01
C     3.525459752133059e+00   5.069153298263348e+00  -9.748799999999846e-02  2.53413032e+00   4.49328070e-01  -4.95914240e-01
C     3.876331335347281e+00   3.672657895217108e+00  -2.047257000000009e-01  1.68311039e+00   1.74708749e+00   1.69437800e-02
C     5.278308498426561e+00   3.298030917849746e+00  -1.955975999999993e-01  9.91930100e-02  -3.22847730e-01  -1.40234900e-02
C     5.652863137343393e+00   1.905395001471349e+00  -1.905156000000012e-01 -2.18137113e+00   1.45090830e+00  -1.99555000e-02
C     6.979170559776064e+00   1.519762910653093e+00  -1.243043999999998e-01  1.30693429e+00   4.56683620e-01   8.11461100e-02
C     7.311751200688919e+00   1.557371334934077e-01  -6.919110000000117e-02  6.80739450e-01  -4.46783370e-01  -2.68501980e-01
C     2.865846337059712e+00   2.739607847078013e+00  -3.599229000000008e-01 -3.60231810e-01  -1.90428358e+00  -2.63991400e-01
C     3.199824743989391e+00   1.331620574828581e+00  -4.831187999999997e-01  1.92225593e+00   1.49748452e+00   9.00010310e-01
C     4.606119188396708e+00   9.595032682486009e-01  -2.819316000000001e-01 -1.34358461e+00  -4.04524600e-01  -3.31258280e-01
C     8.201480930614038e-01   7.232563946589949e-01  -3.864573000000000e-01  5.63837990e-01   8.03582850e-01   3.73931100e-02
C     2.207009749963848e+00   3.593818395447420e-01  -5.078934000000004e-01 -1.03520803e+00  -5.45760010e-01   4.62046800e-01
