32
Lattice="9.86 0 0 4.93 8.53901048131456 0 0 0 30 " PBC="1 1 1" Properties=species:S:1:pos:R:3:force:R:3 Energy="-251.88576774"
C     4.916738743700000e+00   8.343639713409802e+00  -6.761018999999990e-01  2.11516953e+00   1.32608754e+00   2.85135710e-01
C     1.306404446800000e+00   5.234915518056223e-01  -5.779199999999989e-01 -2.27961113e+00  -1.04646350e-01  -1.26706515e+00
C     7.467851941099999e+00   8.358253546725482e+00  -5.939514000000017e-01 -2.63288298e+00  -1.52744246e+00  -5.51976400e-01
C     3.682325607900000e+00   5.523859408579511e-01  -5.109660000000034e-01  2.30015625e+00  -2.96727129e+00   1.11474505e+00
C     9.819443749399998e+00   8.374033211141999e+00  -3.017102999999999e-01  3.50955670e+00  -1.96103054e+00  -9.76559090e-01
C     6.142282217899999e+00   5.122206557027560e-01  -4.093550999999991e-01  2.82820810e-01   3.56348110e-01   1.12178990e-01
C     1.235937787600000e+01   8.294881707398686e+00  -3.094004999999989e-01 -2.25947937e+00   4.00411217e+00  -1.11815812e+00
C     8.599314056100001e+00   4.914191138328472e-01  -6.687995999999998e-01  1.98939498e+00   1.26312632e+00   1.31620721e+00
C     1.282465057000000e+00   1.934657133521112e+00  -4.369818000000016e-01  1.98070256e+00  -3.32056470e-01   3.17807292e+00
C     2.549671320300000e+00   2.577669641965818e+00   1.371906000000000e-01 -3.42474641e+00   1.41397141e+00  -3.13919947e+00
C     3.695513259299999e+00   1.858118310814366e+00  -1.969130999999997e-01  2.39809863e+00   5.94348644e+00   4.96468540e-01
C     4.976925613400001e+00   2.697097694170880e+00  -3.332574000000008e-01 -1.40094028e+00  -3.30275377e+00   9.64061270e-01
C     6.140246275799999e+00   1.963404566203080e+00  -5.849945999999981e-01  3.22335955e+00  -1.06929099e+00   4.02879490e-01
C     7.473606187800000e+00   2.670416872805281e+00  -6.455030999999991e-01 -2.78538145e+00   3.37596660e-01   8.49156130e-01
C     8.718027470100001e+00   2.005886399511394e+00  -5.998277999999999e-01 -4.58642697e+00  -4.90238161e+00  -1.29746368e+00
C     9.894406913699999e+00   2.599525068509169e+00  -3.756135000000000e-01  2.28685848e+00   1.10541479e+00   7.00599970e-01
C     2.485645114500000e+00   4.079434807994947e+00   2.747436000000000e-01  6.76258710e-01  -1.82493428e+00  -2.90045390e-01
C     3.699233979600000e+00   4.780353591328515e+00   1.278945000000000e-01  3.11759690e+00   2.26025758e+00   7.77658150e-01
C     5.039644679000000e+00   4.054014259186091e+00  -7.618229999999926e-02 -4.96927299e+00   1.88651526e+00  -1.00870532e+00
C     6.148454676499999e+00   4.783031851965567e+00  -4.660671000000001e-01  1.91422324e+00   1.38790837e+00   2.81112140e-01
C     7.379551105499999e+00   4.096407628345832e+00  -5.419170000000015e-01  1.56204317e+00  -9.52499610e-01  -5.47432660e-01
C     8.638821991499999e+00   4.764944690747041e+00  -4.320771000000008e-01  1.55239799e+00  -7.66360140e-01   1.43071764e+00
C     9.811115944099999e+00   3.939085923943570e+00  -2.215260000000185e-02  1.31374518e+00   4.94015818e+00  -1.45367262e+00
C     1.106546614780000e+01   4.752080415288606e+00   2.286597000000000e-01 -4.39874150e-01  -2.70271115e+00  -6.76238720e-01
C     3.824445380100000e+00   6.372931731543177e+00   1.346106000000000e-01 -1.29739416e+00  -4.62353113e+00  -2.28436368e+00
C     5.005479483200000e+00   6.952786473653821e+00  -4.933854000000011e-01 -1.55143049e+00  -5.22686000e-01   1.76984808e+00
C     6.213883664499999e+00   6.210968904164824e+00  -6.151733999999998e-01  8.70951690e-01   4.18741880e-01   4.54848420e-01
C     7.493288424000000e+00   6.933053503555380e+00  -6.924171000000001e-01  2.06809350e-01  -1.48913929e+00   7.82305100e-01
C     8.785734463199999e+00   6.182619816321749e+00  -4.807607999999988e-01 -3.61985075e+00   3.88990000e-02  -1.95069400e-01
C     9.974358843600001e+00   6.866863363819659e+00  -2.165189999999981e-01 -2.84637602e+00   2.49446413e+00  -5.20117850e-01
C     1.109593823130000e+01   6.121949549130616e+00   8.576670000000000e-02  2.95598419e+00   3.54069607e+00   6.19265900e-01
C     1.239103192700000e+01   6.998667601644119e+00   1.046550000000000e-01 -1.62460760e-01  -3.66904883e+00  -2.09193150e-01
