32
Lattice="9.86 0 0 4.93 8.53901048131456 0 0 0 30 " PBC="1 1 1" Properties=species:S:1:pos:R:3:force:R:3 Energy="-248.58893603"
C     9.170313705999998e-01   1.196549678695571e+00   3.444465900000000e+00  2.84651206e+00  -2.61031155e+00   1.22572830e-01
C     2.106557941000000e+00   2.018538736729715e+00   3.654416700000000e+00  8.08456050e-01  -7.13388195e+00  -5.73059990e-01
C     3.360819256800000e+00   1.327088435166894e+00   3.751164600000000e+00  5.34004190e-01  -5.51582493e+00  -2.75094033e+00
C     4.716477953200000e+00   1.829847781867705e+00   3.885330900000000e+00 -2.81669158e+00  -3.90703290e+00   1.84741410e-01
C     5.929855074800000e+00   1.121883717157403e+00   3.801776700000000e+00 -5.45733340e-01   1.71689391e+00  -3.93304234e+00
C     7.072731323000000e+00   2.021303839103349e+00   3.500937900000000e+00  1.09211672e+00  -2.69360335e+00   1.62444071e+00
C     8.317142942500000e+00   1.311932460075838e+00   3.477429600000000e+00 -3.97711670e-01  -2.78091293e+00  -2.25624983e+00
C     9.644205321799998e+00   1.917481426281221e+00   3.413511300000000e+00 -5.69865692e+00  -2.52065210e-01   5.48619210e-01
C     2.109969451700000e+00   3.305937765795465e+00   3.828129900000000e+00 -2.38898384e+00   6.19688977e+00   1.30275789e+00
C     3.390168779300000e+00   3.928123542289346e+00   3.945501300000000e+00 -1.86964900e-02  -7.39475090e-01   9.78826200e-01
C     4.665497217600000e+00   3.117462591728285e+00   3.933316200000000e+00  4.51804120e-01   1.04577969e+01   5.81815290e-01
C     5.896394030900000e+00   4.003633328843148e+00   3.857160000000000e+00 -5.87814021e+00   1.87272188e+00  -1.76766435e+00
C     7.053778529599999e+00   3.453148513278464e+00   3.540699000000000e+00  2.59983479e+00  -3.08936548e+00   1.24564768e+00
C     8.311781961900000e+00   4.091870681297599e+00   3.667655700000000e+00 -4.05978430e-01   2.98236870e-01  -1.43385136e+00
C     9.439259601599998e+00   3.302808133064440e+00   3.594486000000000e+00  4.40542799e+00   2.38044595e+00   1.48817612e+00
C     1.061047457440000e+01   4.074835611560314e+00   3.914218800000000e+00  4.51230318e+00  -8.29341000e-02  -1.04286739e+00
C     3.357138222999999e+00   5.326072187413577e+00   4.077419100000000e+00  1.62276251e+00   3.39649808e+00  -4.21344348e+00
C     4.593761527100000e+00   6.075156967161683e+00   3.565303800000000e+00 -4.38499214e+00   2.99134785e+00   2.18631403e+00
C     5.764041032400000e+00   5.437252665566322e+00   3.478431900000000e+00  4.82449742e+00  -2.54913643e+00   1.77155172e+00
C     7.097524884599999e+00   6.090081022728103e+00   3.393429600000000e+00  3.09742460e-01   1.23443506e+00  -3.77887270e-01
C     8.444215812400000e+00   5.526058032997903e+00   3.626658000000000e+00 -6.37095677e+00  -2.96951403e+00   4.64669100e-01
C     9.522944083799999e+00   6.268316813158400e+00   3.916754700000000e+00  2.53739627e+00   1.60926635e+00  -2.93455640e+00
C     1.076869991710000e+01   5.550580107124052e+00   3.964968900000000e+00 -1.47075800e+00  -2.35824115e+00   9.66376600e-02
C     1.202514670190000e+01   6.148937091752654e+00   3.818687100000000e+00  1.60615120e-01   1.11932936e+00   5.09328870e-01
C     4.511949853300000e+00   7.595410627901897e+00   3.508159500000000e+00  1.61466947e+00  -2.26813016e+00  -1.41080534e+00
C     5.852962900100000e+00   8.131578511545289e+00   3.398850600000000e+00 -2.94671057e+00   5.53348971e+00  -2.75855610e-01
C     7.076963432200000e+00   7.491824147939331e+00   3.245595600000000e+00  9.85541510e-01   1.82639968e+00   1.17729614e+00
C     8.295993045299999e+00   8.387413584393844e+00   3.306813300000000e+00 -9.74840350e-01  -2.87878330e-01   2.15767715e+00
C     9.514950581800001e+00   7.641393113946592e+00   3.453796800000000e+00 -1.20045905e+00  -2.21249000e-03   8.37360270e-01
C     1.073697719120000e+01   8.290287207419818e+00   3.322855500000000e+00  8.43695920e-01   2.31328315e+00   3.12920486e+00
C     1.195792171490000e+01   7.675768523045823e+00   3.467434200000000e+00  4.57064670e-01  -5.71091848e+00   3.36731440e-01
C     1.311427012480000e+01   8.359802267056240e+00   3.332277600000000e+00  4.89286488e+00   2.00440400e+00   2.22585513e+00
