26
Lattice="8.88768389401873 1.33226762955019e-15 0 4.44384194700937 7.69696003302603 0 0 0 30 " PBC="1 1 1" Properties=species:S:1:pos:R:3:force:R:3 Energy="-207.56460803"
C     5.717867438496808e-01   7.099384986582865e-01   3.873474000000000e+00 -3.81580820e-01  -1.30280009e+00  -1.45890260e-01
C     2.940548340530425e+00   1.097341736949046e-01   3.551273400000000e+00 -2.31553769e+00  -2.99079420e-01   7.30463140e-01
C     4.272750697558730e+00   4.967447900545336e-01   3.493035600000000e+00  1.14781216e+00   6.99140340e-01   9.64625330e-01
C     9.727652944381298e+00   7.212981648760024e+00   3.486715800000000e+00  9.72815380e-01  -1.99304541e+00  -4.46309800e-01
C     1.111230605674225e+01   7.567625316679899e+00   3.690999300000000e+00 -4.49447000e-02   6.48319460e-01   3.87720410e-01
C     1.217830223867431e+01   6.625255404488477e+00   3.820235400000000e+00 -6.33995520e-01  -1.43830505e+00  -1.37996600e-01
C     4.651104737612415e+00   7.033081294705237e+00   4.007489400000000e+00 -8.74245910e-01  -2.31818440e-01  -8.48897440e-01
C     5.636512023591550e+00   6.038331568300059e+00   3.989246700000000e+00  8.38345750e-01  -1.18333207e+00  -1.27283392e+00
C     6.986425801525693e+00   6.442932124385847e+00   3.730500600000000e+00  1.79779975e+00  -1.89798391e+00  -4.30573140e-01
C     8.021119116330674e+00   5.373863630714999e+00   3.571538700000000e+00 -9.17263590e-01   1.01426218e+00   3.36025630e-01
C     9.393474562704149e+00   5.757782917017781e+00   3.358230300000000e+00  3.06169790e-01   1.84256367e+00   1.45595312e+00
C     1.046047096458199e+01   4.816649290546378e+00   3.495479700000000e+00  1.53689060e-01  -5.58350900e-02   5.77424850e-01
C     1.186252434003591e+01   5.189061005847505e+00   3.710810700000000e+00 -3.16797239e+00   2.91440001e+00  -5.33292160e-01
C     3.920409404006838e+00   4.215874466905571e+00   3.823044300000000e+00  2.67191594e+00  -3.39283130e-01   6.96409420e-01
C     5.295988280025666e+00   4.620894276404195e+00   3.878923200000000e+00  1.03766138e+00   8.76300900e-02   2.16531255e+00
C     6.359647223243181e+00   3.611453439359355e+00   4.083058200000000e+00 -2.59717519e+00   9.33756490e-01  -2.77071419e+00
C     7.666318286259104e+00   3.984709434206173e+00   3.772932600000000e+00  2.54776133e+00   1.22789916e+00  -2.95746000e-01
C     8.742560990065199e+00   3.033248026766517e+00   3.628241700000000e+00 -1.55000719e+00  -1.18388124e+00   1.50343886e+00
C     1.010373315267816e+01   3.419378803625117e+00   3.609579900000000e+00 -1.63341084e+00   2.86397481e+00  -9.71012160e-01
C     2.207047524014608e+00   2.505644045772505e+00   3.629378700000000e+00  2.58084881e+00  -3.11463655e+00   1.07872245e+00
C     3.580717992070213e+00   2.849176767041073e+00   3.863371800000000e+00 -7.40658510e-01   1.28502230e-01  -1.64774159e+00
C     4.588589432358945e+00   1.879963552805826e+00   3.787243800000000e+00  1.19972919e+00  -9.19470280e-01  -6.20237920e-01
C     5.973318623310664e+00   2.260265498803307e+00   3.859536900000000e+00  5.76420700e-01  -9.04782110e-01   1.23322691e+00
C     7.021134558985153e+00   1.259460189094526e+00   3.862302900000000e+00 -7.28679560e-01  -3.90979000e-01  -6.70730200e-01
C     8.405473536160748e+00   1.616771546391198e+00   3.848805899999999e+00 -4.00941350e-01   2.89454447e+00  -6.34476740e-01
C     1.909851994875889e+00   1.104039169749550e+00   3.654802500000000e+00  1.55444010e-01   2.38880000e-04   2.97129470e-01
