26
Lattice="8.88768389401873 1.33226762955019e-15 0 4.44384194700937 7.69696003302603 0 0 0 30 " PBC="1 1 1" Properties=species:S:1:pos:R:3:force:R:3 Energy="-208.94291267"
C     1.237590775825740e+01   6.590544654749988e+00  -2.662677000000002e-01 -3.20047950e-01   1.40412838e+00   1.20907130e-01
C     8.538247448796739e+00   6.406943987160778e+00  -1.859295000000003e-01  1.75789562e+00  -1.23083080e+00  -2.87800410e-01
C     9.949160689176949e+00   5.989443326064710e+00  -2.235462000000012e-01 -2.94248610e-01   1.66021668e+00   3.76715620e-01
C     1.027825802457760e+01   4.619847028022512e+00  -1.948191000000001e-01  1.15129074e+00  -6.60338900e-02   3.50198610e-01
C     6.173874545198773e+00   5.800750426689252e+00  -2.843316000000016e-01  1.02110619e+00  -6.38498000e-02   3.30116870e-01
C     7.526666687905383e+00   5.386164912234945e+00  -2.463474000000012e-01  8.08789010e-01   1.06894623e+00   2.55120610e-01
C     7.888846337977984e+00   4.012168954870001e+00  -2.024265000000014e-01 -5.04299250e-01   4.17466100e-01  -2.02118990e-01
C     9.250713783618082e+00   3.653879621831917e+00  -2.042654999999982e-01  8.32616730e-01  -1.51048667e+00   2.87246130e-01
C     9.652320088174843e+00   2.248679418809349e+00  -1.729976999999998e-01 -2.07028315e+00   1.94354822e+00  -2.29781960e-01
C     3.821105712789835e+00   5.245831320001576e+00  -2.072922000000013e-01 -4.15861870e-01  -2.72009116e+00   3.59886530e-01
C     5.184926404671081e+00   4.814639460343344e+00  -2.331459000000002e-01 -1.16939614e+00   3.27565920e-01   5.07984500e-02
C     5.507733926172165e+00   3.428708211907880e+00  -1.553309999999968e-01 -1.17632210e-01   1.27180181e+00   3.96196510e-01
C     6.845029769896113e+00   3.040947218914925e+00  -1.523553000000000e-01  1.55057417e+00  -2.69199170e-01  -4.18540070e-01
C     7.205976520462468e+00   1.671530644889429e+00  -1.945856999999975e-01  1.21734686e+00   2.62032970e-01  -9.05550800e-02
C     8.601380441416751e+00   1.301842652834117e+00  -2.580596999999969e-01  3.56331000e-02  -1.69012849e+00   4.31376020e-01
C     2.790427496699857e+00   4.222643943251957e+00  -8.421270000000192e-02 -4.38980310e-01   8.21588640e-01  -1.13385310e+00
C     3.135382059928124e+00   2.829582538923102e+00  -8.822430000000026e-02  2.15449530e-01   2.22832245e+00   7.43130530e-01
C     4.498884128398388e+00   2.485329074317325e+00  -2.634510000000034e-02 -4.35067290e-01  -2.84385601e+00  -1.07374914e+00
C     4.825163979090771e+00   1.056778680621346e+00  -1.174199999999992e-01  4.31463520e-01   1.27473134e+00   5.32651790e-01
C     6.209769541873335e+00   6.885583449045544e-01  -1.895178000000008e-01 -7.59475300e-01  -1.31904336e+00   1.47475340e-01
C     1.101317491886436e+01   6.991047349315805e+00  -2.112753000000005e-01 -1.40043326e+00  -2.79498160e-01  -3.12504580e-01
C     2.108646509347404e+00   1.896935118763175e+00  -9.458729999999704e-02 -3.25942660e-01  -2.56993069e+00  -3.69683870e-01
C     2.400151341538058e+00   4.812414192229071e-01  -1.328634000000015e-01  2.18940691e+00   9.92079280e-01   9.95234800e-02
C     3.792292727035455e+00   8.672957652684089e-02  -1.067976000000002e-01 -8.01596590e-01   1.25326270e-01  -3.89640890e-01
C     4.516707581859387e+00   7.582491533160242e+00  -2.869710000000012e-01 -1.16358814e+00   1.13154621e+00   1.47643490e-01
C     5.870257755141931e+00   7.194008873194877e+00  -2.443857000000023e-01 -9.94719650e-01  -3.66352330e-01  -1.20759020e-01
