32
Lattice="9.86 0 0 4.93 8.53901048131456 0 0 0 30 " PBC="1 1 1" Properties=species:S:1:pos:R:3:force:R:3 Energy="-253.42630736"
C     9.808914403299999e+00   4.817871954015120e-02  -4.091394000000008e-01  5.17110159e+00  -5.02154499e+00   1.31374330e-01
C     1.235962930600000e+00   6.940499179133520e-01  -4.704591000000029e-01 -3.46166490e-01  -1.85304558e+00   1.28595031e+00
C     7.398250940599999e+00   8.408686565032353e+00  -4.447913999999997e-01  3.76113390e-01   7.33319921e+00   8.40341290e-01
C     3.781391246400000e+00   7.219429372066912e-01  -2.255456999999979e-01 -2.26499713e+00  -7.42168033e+00  -2.05308684e+00
C     9.911110788999999e+00   8.499676382124928e+00  -3.315891000000022e-01 -5.95849810e-01   1.86273840e-01   6.37101340e-01
C     6.194899269800000e+00   6.225439025934129e-01  -3.800279999999994e-01  8.45486330e-01   3.93911568e+00   6.30615880e-01
C     7.467761672799999e+00   1.146959887673600e-02  -2.282480999999983e-01 -2.36370580e+00  -4.27977420e-01  -7.55511610e-01
C     8.669186699599999e+00   7.301648088374639e-01  -3.029478000000019e-01 -2.55137038e+00  -2.39483032e+00  -5.00902320e-01
C     1.105132823890000e+01   2.077607256335011e+00  -2.100831000000021e-01  1.88140648e+00  -5.91311300e-02  -1.56375741e+00
C     2.496631718100000e+00   2.701197700052852e+00  -2.286888000000005e-01 -2.14507918e+00   4.18107215e+00   1.48912974e+00
C     3.723321220100000e+00   2.033135406634332e+00  -2.373236999999975e-01 -9.70616800e-02   4.36529444e+00   1.07440000e-01
C     4.938207513300000e+00   2.810713071161996e+00  -2.710988999999984e-01  1.20895701e+00  -2.80837168e+00  -7.70494180e-01
C     6.171553254800000e+00   2.143846324600781e+00  -4.206696000000001e-01 -3.25964350e-01  -4.29568216e+00   1.05535044e+00
C     7.411330329199999e+00   2.780258946455390e+00  -3.330789000000003e-01 -1.48854019e+00  -5.16493160e-01  -1.19680517e+00
C     8.615233469800000e+00   2.059334200858334e+00  -4.181966999999993e-01 -3.17916160e-01   3.47052602e+00   1.09621267e+00
C     9.780042055499999e+00   2.773902421663974e+00  -2.749284000000003e-01  3.88204153e+00  -4.48301630e-01   6.23240000e-03
C     2.511051918800000e+00   4.252052356479928e+00  -6.580740000000063e-02 -1.85874184e+00  -3.97277206e+00  -9.00138300e-01
C     3.719637721300000e+00   4.883759215049114e+00  -1.097511000000004e-01  2.09437076e+00   2.80428079e+00  -1.76341181e+00
C     5.023465109200000e+00   4.148831602336220e+00  -3.010647000000013e-01 -4.39290597e+00   4.35660316e+00   1.08207977e+00
C     6.190312348499999e+00   4.912314861555701e+00  -3.754086000000001e-01  3.72699570e-01  -1.41992664e+00   5.09360770e-01
C     7.372821556900000e+00   4.156665546720887e+00  -3.566910000000014e-01  2.68161380e+00   1.94062415e+00  -4.92338600e-02
C     8.642257511299999e+00   4.818408289263369e+00  -3.275112000000000e-01 -5.08272280e-01   4.96368300e+00  -9.27581900e-02
C     9.861930735900000e+00   4.160240488848444e+00  -2.398316999999999e-01 -4.35285000e-03   1.24448151e+00   2.29170980e-01
C     1.108437304290000e+01   4.917096024303663e+00  -1.214879999999994e-01  1.04299416e+00   4.74644020e-01   1.77954850e-01
C     3.708320068200000e+00   6.386938697384045e+00  -3.200061000000005e-01 -4.25507640e-01  -1.66156748e+00   2.14355959e+00
C     4.940355070600000e+00   7.046957584490824e+00  -3.200840999999990e-01  4.77497430e-01   1.82409852e+00  -6.57212760e-01
C     6.208599789099999e+00   6.292074645846590e+00  -3.094068000000014e-01 -2.35202294e+00   3.06524778e+00  -1.26884607e+00
C     7.371273191799999e+00   7.083585669944783e+00  -4.630289999999988e-01  2.97484926e+00  -4.46366579e+00   8.73749430e-01
C     8.692405668499999e+00   6.387504919168974e+00  -3.726585000000000e-01 -3.40476125e+00  -3.31739821e+00   1.29399410e-01
C     9.872269882599998e+00   7.080612044935228e+00  -2.572728000000026e-01  3.44847440e-01  -2.57252530e-01  -7.36178700e-02
C     1.107056928940000e+01   6.355060521899690e+00  -1.089351000000001e-01  2.09222183e+00   8.11809200e-01  -8.61453120e-01
C     1.234494032170000e+01   7.172894412044161e+00  -1.929797999999998e-01 -2.98463000e-03  -4.62131236e+00   8.22063000e-02
