32
Lattice="10.016 0 0 5.008 8.67411044430494 0 0 0 30 " PBC="1 1 1" Properties=species:S:1:pos:R:3:force:R:3 Energy="-257.56338431"
C     7.650491151979645e-04  -1.119758628150097e-03   3.002652830072778e+00  6.55582800e-02   7.00278500e-02  -2.30321600e-02
C     1.251939710813439e+00   7.256424168143195e-01   3.002345278172872e+00  5.11626900e-02  -1.70843400e-01   2.14418700e-02
C     2.503692963315631e+00  -2.965803678176733e-03   3.004949711991407e+00 -1.05061940e-01   1.29766110e-01  -6.99099600e-02
C     3.751810046390093e+00   7.228791376946195e-01   2.998023411261106e+00  1.76639690e-01  -7.09693700e-02   7.13509600e-02
C     5.007746288424363e+00   2.290602343570214e-03   3.000884503145333e+00 -6.77553900e-02  -7.35353100e-02  -6.96863300e-02
C     6.259243490130297e+00   7.227650801623805e-01   2.996881668307272e+00  9.12227600e-02   1.15758320e-01   2.97766700e-02
C     7.512666788652957e+00   2.672693346035329e-03   3.000142239760618e+00 -6.18752200e-02  -2.63438890e-01  -3.16257300e-02
C     8.767157253579297e+00   7.195664969777649e-01   2.998542972814897e+00 -1.23451550e-01   1.45659760e-01   4.53655200e-02
C     1.255437342519504e+00   2.169040751667548e+00   3.000486137326277e+00 -1.15540970e-01   6.56678300e-02  -8.28505000e-03
C     2.505033959650003e+00   2.893225443113697e+00   2.999402688950728e+00  8.15736800e-02  -1.50963540e-01   5.12377000e-03
C     3.756532364946065e+00   2.165922470013534e+00   3.001469223784809e+00 -9.20510300e-02   1.30470180e-01  -4.15641500e-02
C     5.006187091630709e+00   2.891592429382646e+00   2.999521514066992e+00  1.24021670e-01  -8.23764000e-02   1.56109000e-03
C     6.261830109075078e+00   2.170184043157026e+00   2.995989126199009e+00 -1.56131480e-01  -8.43313900e-02   5.02290300e-02
C     7.510909387354660e+00   2.889961500927541e+00   3.002353685235530e+00  1.68452510e-01   3.81140500e-02  -4.70473800e-02
C     8.765246300325675e+00   2.166430224641217e+00   3.002118218307849e+00  6.12064100e-02   8.31142400e-02  -3.30760500e-02
C     1.001940070132008e+01   2.893755969907954e+00   2.998978826627429e+00 -1.27499230e-01  -1.52583770e-01   1.25569500e-02
C     2.507277490473572e+00   4.334449496967917e+00   2.997522799056521e+00 -2.40188530e-01   1.44994580e-01   6.48119100e-02
C     3.756675159672614e+00   5.055674604238890e+00   3.003263012980931e+00  2.76148400e-02   1.30586600e-01  -6.26972500e-02
C     5.006416443916906e+00   4.334794026665321e+00   3.002227870888175e+00  2.13872300e-01   9.31980200e-02  -4.06662000e-03
C     6.264021229904580e+00   5.062738306748331e+00   3.001345692197568e+00 -2.20303070e-01  -2.35033840e-01  -6.02043000e-03
C     7.515056424055745e+00   4.336762485230222e+00   2.999832594256042e+00 -5.46983700e-02   5.98466400e-02   3.03609700e-02
C     8.766071151226122e+00   5.061200343510065e+00   3.000652162696523e+00 -6.26530100e-02  -2.43975200e-02  -3.86761200e-02
C     1.001708286602170e+01   4.337819009706895e+00   2.997420747471359e+00 -2.69665900e-02   2.29083700e-02   4.58627700e-02
C     1.126541616815704e+01   5.061047547146421e+00   3.002093569429885e+00  2.60449540e-01  -1.81092300e-01  -5.30967000e-02
C     3.757292077106879e+00   6.501932842065063e+00   2.997682025211585e+00 -9.38694000e-02   1.35345030e-01   7.08876200e-02
C     5.009109113848544e+00   7.229868742993399e+00   3.002357371212571e+00 -1.30032980e-01  -1.49996120e-01  -2.37809900e-02
C     6.257195916072422e+00   6.505125597615798e+00   3.001610989748434e+00  1.39411350e-01   3.14987900e-02   1.86453000e-03
C     7.509476125475130e+00   7.226628188220994e+00   3.000348064040898e+00  1.87271200e-02   6.12600600e-02   2.22434400e-02
C     8.761462797155787e+00   6.507746365526230e+00   2.997955688180692e+00  1.16868180e-01  -5.19155500e-02   1.16630200e-02
C     1.001460473545553e+01   7.231628880478265e+00   2.996446177956897e+00  6.18957400e-02  -1.24810850e-01   6.44790000e-02
C     1.126974123076062e+01   6.501568747467733e+00   3.002223467382695e+00 -2.47084500e-01   2.28897380e-01  -3.67441100e-02
C     1.251659824933717e+01   7.224966924603763e+00   3.000146982845236e+00  2.66486480e-01   1.29174480e-01  -2.70080000e-04
