32
Lattice="9.86 0 0 4.93 8.53901048131456 0 0 0 30 " PBC="1 1 1" Properties=species:S:1:pos:R:3:force:R:3 Energy="-257.17482788"
C     4.931975697500000e+00   8.329968757631320e+00  -4.567644000000008e-01  9.13670270e-01  -4.46411040e-01   5.58832600e-02
C     1.251587678200000e+00   5.078574775177904e-01  -4.464591000000020e-01 -6.93913350e-01  -8.19126140e-01  -4.47304280e-01
C     7.383939791500000e+00   8.301176922094857e+00  -4.783245000000029e-01  1.80916527e+00   1.15149884e+00   1.68465840e-01
C     3.717364744800000e+00   4.901448372989168e-01  -4.591655999999986e-01 -9.12336500e-01   2.19123380e-01   3.33641260e-01
C     9.899195817099999e+00   8.347442476336964e+00  -4.318047000000007e-01 -1.53868298e+00  -1.22430898e+00  -3.50036550e-01
C     6.177889044300000e+00   5.113302076899016e-01  -4.707483000000003e-01  3.00754330e-01  -3.86607450e-01   5.36314390e-01
C     1.233608899970000e+01   8.332183264609204e+00  -4.098936000000002e-01  6.05645420e-01   3.57420480e-01  -4.62595500e-01
C     8.653598088900001e+00   4.804461438056280e-01  -4.255647000000025e-01 -7.61806510e-01   1.99777058e+00  -8.40191100e-02
C     1.258246579900000e+00   1.920242686100138e+00  -4.587707999999999e-01 -6.18454680e-01   1.05217770e-01   1.11923639e+00
C     2.468035055900000e+00   2.621625223092876e+00  -3.268434000000013e-01  4.23803360e-01   7.16722790e-01  -7.24348790e-01
C     3.671420990200000e+00   1.907063491935202e+00  -3.680669999999999e-01  2.76758554e+00   3.74997370e-01  -4.67760190e-01
C     4.995395956999999e+00   2.638186548528731e+00  -4.221044999999997e-01 -4.08882436e+00  -5.49915800e-01   6.30512320e-01
C     6.160325722100000e+00   1.920950399288721e+00  -4.704560999999998e-01  2.40865181e+00   2.67607730e-01  -1.86942200e-01
C     7.417467735500000e+00   2.648066952165034e+00  -4.980741000000002e-01  2.21698700e-01  -8.91374820e-01   4.48746980e-01
C     8.663606235400000e+00   1.952221365737843e+00  -4.309551000000020e-01 -8.95551440e-01  -1.87628555e+00  -2.86841860e-01
C     9.884047208900000e+00   2.636581299948596e+00  -4.043928000000001e-01 -3.80724500e-02   3.90416780e-01  -3.02624020e-01
C     2.494013838800000e+00   4.062128539284815e+00  -3.364631999999972e-01 -1.88168321e+00  -9.90149610e-01   1.79323930e-01
C     3.674984542099999e+00   4.747564218035839e+00  -4.072527000000008e-01  2.90344006e+00   9.02726100e-01   8.20068490e-01
C     4.942226399999999e+00   4.041000807214571e+00  -3.576927000000012e-01  4.42751090e-01   8.81699590e-01  -1.23065545e+00
C     6.181388604800000e+00   4.761749649195739e+00  -4.832720999999971e-01 -2.04389560e-01   2.58144790e-01   7.43256090e-01
C     7.435437043200000e+00   4.048173917578191e+00  -4.940957999999966e-01 -1.05820311e+00   1.29865041e+00  -1.95787650e-01
C     8.652872442200000e+00   4.799646631607027e+00  -4.817324999999997e-01  9.04754200e-02  -1.91777340e+00   4.98932120e-01
C     9.861050878799999e+00   4.059848794266865e+00  -3.779766000000002e-01  1.25985972e+00   5.76764550e-01  -1.41065710e-01
C     1.112039867280000e+01   4.777394653416986e+00  -3.117287999999974e-01 -1.02351699e+00  -5.04842720e-01  -3.08068090e-01
C     3.734217999100000e+00   6.181615201738777e+00  -3.971292000000020e-01 -1.64736336e+00   2.05721230e-01  -5.45721070e-01
C     4.939225903400000e+00   6.896364108006173e+00  -4.780253999999999e-01  7.83638170e-01   3.53967110e-01   6.06404100e-01
C     6.176096989300000e+00   6.199308714574175e+00  -4.489203000000010e-01  8.06459380e-01  -7.34867990e-01  -6.77650910e-01
C     7.436202524299999e+00   6.900412538264845e+00  -4.849128000000000e-01 -1.82900765e+00  -4.15137000e-01   1.01747310e-01
C     8.663635815399999e+00   6.196477947209950e+00  -4.626125999999999e-01 -1.66047033e+00   1.11347980e-01  -6.36109900e-02
C     9.838833735200000e+00   6.896859882954641e+00  -4.127633999999993e-01  2.97130916e+00   1.34803139e+00   2.65659110e-01
C     1.108177917270000e+01   6.186297311965170e+00  -3.257468999999986e-01  1.42144145e+00   1.04198564e+00  -6.81921840e-01
C     1.236047583630000e+01   6.930283192385353e+00  -4.068201000000009e-01 -1.27807268e+00  -1.80301402e+00   6.48762610e-01
