32
Lattice="9.78 0 0 4.89 8.46972844901181 0 0 0 30 " PBC="1 1 1" Properties=species:S:1:pos:R:3:force:R:3 Energy="-257.92449481"
C    -2.563760384247877e-03   1.356056275279038e-04   3.000849560163029e+00  3.09738400e-02   2.08093300e-02   1.01414100e-02
C     1.220436689981046e+00   7.072353000939408e-01   3.002937164205682e+00  9.65534000e-03  -1.45332690e-01  -4.70596800e-02
C     2.441428032580875e+00  -1.767252428129704e-03   3.000392592092738e+00  2.16871830e-01   2.17714970e-01   5.28652800e-02
C     3.671080847797238e+00   7.062834140885197e-01   3.003213309844693e+00 -2.35459300e-01  -1.64581970e-01  -5.66635100e-02
C     4.893778607258404e+00   1.910605505659105e-04   3.000662863312963e+00 -1.55274000e-01   2.81811300e-02   1.57691000e-02
C     6.111635197522265e+00   7.076120087407038e-01   3.001324472934022e+00  2.50569440e-01  -2.19004740e-01  -3.29692400e-02
C     7.339270027372242e+00   1.397192666648906e-03   3.000089354758036e+00 -3.51333590e-01  -7.82756000e-02  -1.13020500e-02
C     8.554069848386508e+00   7.069519619423922e-01   2.999347048025275e+00  2.27132430e-01   3.93770000e-02   3.20191500e-02
C     1.222448824215074e+00   2.118149105673096e+00   2.998517669613049e+00  2.79128000e-02  -1.28938590e-01   4.35565300e-02
C     2.442154789428696e+00   2.820954675778234e+00   2.999734006701186e+00  1.81872640e-01   1.21784690e-01   1.59704000e-03
C     3.667832262056292e+00   2.116634997776366e+00   2.998253566934629e+00 -4.38243100e-02   4.36190600e-02   4.27292400e-02
C     4.888574055706110e+00   2.824087681973249e+00   2.999787662001586e+00  1.39047440e-01  -1.18175210e-01  -2.33214700e-02
C     6.115205690698123e+00   2.113043440914554e+00   2.996692932846116e+00 -2.84873250e-01   3.10188540e-01   5.33938100e-02
C     7.334488068644238e+00   2.820442033992964e+00   3.000425080521639e+00  2.96048100e-02   9.29881500e-02   4.56210000e-03
C     8.555721993387410e+00   2.118945009694302e+00   3.003572667882008e+00  1.84696740e-01  -8.25491000e-02  -3.18952700e-02
C     9.784148767837383e+00   2.820202075170819e+00   3.001917399942776e+00 -3.62002930e-01   2.41931150e-01  -2.09566600e-02
C     2.442187751559240e+00   4.234304990399051e+00   3.003472992160555e+00  2.28731960e-01  -6.69312300e-02  -8.00591300e-02
C     3.668014036961932e+00   4.941146840389826e+00   2.998304748012343e+00 -2.11145650e-01   7.82836300e-02   5.09281200e-02
C     4.886626502573868e+00   4.235333026913724e+00   3.000413537363347e+00  1.64172320e-01  -5.34333000e-03  -3.01380900e-02
C     6.111996340009636e+00   4.939656211536033e+00   2.997836269691127e+00 -2.81062000e-02   9.50877500e-02   8.20271000e-03
C     7.332896198883229e+00   4.231752896366671e+00   3.001007936990714e+00 -2.81034000e-03   1.14940710e-01  -5.38035000e-03
C     8.554630065406414e+00   4.940348380718159e+00   3.002040266405831e+00  7.97158300e-02   7.82198700e-02  -5.13922000e-02
C     9.777457223835443e+00   4.235041917698872e+00   2.998167243537901e+00  1.46470860e-01  -8.42818000e-02   2.89170900e-02
C     1.100410639239762e+01   4.938830842216420e+00   2.997086970552775e+00 -2.34103160e-01   1.66905290e-01   6.06886700e-02
C     3.665795841957103e+00   6.356923101952442e+00   2.999655437065936e+00  7.86089500e-02  -3.85815640e-01  -1.51145600e-02
C     4.886279840357335e+00   7.057093069737598e+00   3.001150292444760e+00  2.43201850e-01   1.77139410e-01  -3.85850700e-02
C     6.114189404522428e+00   6.354937633549824e+00   2.996174235407404e+00 -2.54352410e-01  -2.58422930e-01   6.48917800e-02
C     7.332155354947474e+00   7.058197030867796e+00   3.002655061100421e+00  2.25968290e-01   5.29641400e-02  -7.66670600e-02
C     8.559484037320823e+00   6.355575829688671e+00   2.997017068872331e+00 -1.21574770e-01  -1.66170570e-01   6.32620800e-02
C     9.783218003838595e+00   7.058974546366346e+00   2.999148255172519e+00 -6.74813900e-02  -2.72537800e-02   1.07865100e-02
C     1.100423966420128e+01   6.353360056215244e+00   3.002217045830123e+00  2.16499800e-02  -1.30095580e-01  -6.73403900e-02
C     1.222707957394845e+01   7.057767440958326e+00   2.998255887256324e+00 -1.34516050e-01   1.81037950e-01   4.45340500e-02
