32
Lattice="9.86 0 0 4.93 8.53901048131456 0 0 0 30 " PBC="1 1 1" Properties=species:S:1:pos:R:3:force:R:3 Energy="-254.97897683"
C     5.118721484599999e+00   8.055944994729632e+00   2.559810000000000e-02  1.87643689e+00   3.43546790e-01   2.07718810e-01
C     1.495282557500000e+00   1.868320976706184e-01   1.224324000000000e-01 -2.21664444e+00   7.86401260e-01  -1.20041675e+00
C     7.640787664299999e+00   7.985161806646825e+00   1.988997000000000e-01  3.28858310e-01   3.00841833e+00  -9.05610040e-01
C     3.988312121800000e+00   2.226960270767232e-01   7.927650000000000e-02 -3.03236950e+00  -5.00505690e-01   4.55744220e-01
C     1.007834970000000e+01   8.057494142010913e+00   1.035210000000000e-01  3.90459379e+00  -2.16190447e+00  -3.47035840e-01
C     6.454255033600000e+00   2.307855440450560e-01   1.097934000000000e-01 -5.32735503e+00   4.65791610e-01  -4.31365430e-01
C     1.254218015610000e+01   8.040078915527058e+00   8.364569999999999e-02  3.89078000e-02   2.18248730e-01  -7.28052250e-01
C     8.767810067799999e+00   2.803580862658576e-01   1.367010000000000e-02  4.31053634e+00  -4.24201525e+00   2.10446700e-02
C     1.423270787000000e+00   1.624717011688971e+00  -1.335138000000029e-01  1.12137033e+00  -1.74891618e+00   1.50944210e+00
C     2.649861787600000e+00   2.308397326055621e+00  -6.405239999999779e-02  1.57490777e+00   1.27179862e+00  -1.30667093e+00
C     3.951381196000000e+00   1.646559629716602e+00  -2.221799999999874e-02 -2.38840145e+00   1.76684240e-01   4.80819020e-01
C     5.115419419900000e+00   2.430857239321711e+00  -2.261159999999762e-02  1.91455051e+00  -2.75778693e+00   1.95916090e-01
C     6.350039763599999e+00   1.679113070149715e+00   5.879400000000000e-03  3.42395000e-02  -2.22310307e+00   9.16230300e-02
C     7.579196533399999e+00   2.270977332769745e+00  -1.221260999999991e-01  1.98671079e+00   4.05529178e+00   6.40556410e-01
C     8.863227161199999e+00   1.638398043499818e+00  -9.929130000000086e-02 -3.95552529e+00  -7.32544710e-01   1.30351900e-02
C     1.003457677230000e+01   2.292464813351513e+00  -1.929456000000016e-01  3.22654281e+00   2.84689021e+00  -3.30124540e-01
C     2.705753592000000e+00   3.765669636418290e+00  -2.318105999999993e-01 -1.41516407e+00  -3.13430618e+00   7.18756110e-01
C     3.897965336200000e+00   4.393170776155761e+00  -1.149897000000024e-01  1.72416743e+00   6.57475593e+00   2.73634400e-01
C     5.157075060500000e+00   3.818459592397851e+00  -7.647899999998486e-03 -1.79940550e-01  -9.31261980e-01  -2.68080940e-01
C     6.400517294100000e+00   4.481132062401394e+00   5.849370000000000e-02  1.63167496e+00  -9.67670530e-01  -4.60600540e-01
C     7.645781014800001e+00   3.702891002149539e+00  -4.810679999999934e-02 -8.35849670e-01   1.82330372e+00  -2.47109500e-02
C     8.904613623800000e+00   4.473221096142198e+00  -8.827769999999902e-02 -2.14423861e+00  -1.39179257e+00   1.64916500e-02
C     1.010340159360000e+01   3.745751028232013e+00  -2.402766000000014e-01  3.16776480e-01  -3.55924990e-01   2.08943970e-01
C     1.134970914320000e+01   4.451391286630288e+00  -2.584863000000013e-01 -1.28149974e+00   8.16814550e-01   4.64218470e-01
C     3.919578061800000e+00   5.956134347174212e+00  -5.697089999999960e-02  9.91666290e-01  -2.92657673e+00  -8.48262600e-01
C     5.242570035900000e+00   6.640558494743773e+00  -5.122860000000173e-02 -3.98299562e+00  -7.06999620e-01   1.16880085e+00
C     6.458287428500000e+00   5.886098834849033e+00   9.119220000000000e-02 -3.75677854e+00  -1.45261250e-01  -5.03895380e-01
C     7.590038195000000e+00   6.598522227002306e+00   1.508508000000000e-01  4.85633986e+00  -1.84937650e-01   1.25554060e-01
C     8.856791736400000e+00   5.873794547697877e+00   4.976130000000000e-02  7.32801680e-01   5.95741820e-01  -2.67482360e-01
C     1.012021397820000e+01   6.559616616673121e+00  -5.941199999998759e-03 -2.40738306e+00   2.59539735e+00   8.66911930e-01
C     1.132738605390000e+01   5.883068169249471e+00  -8.986739999999926e-02  7.97151000e-03  -1.11385014e+00  -7.07414420e-01
C     1.252116765800000e+01   6.613099001012504e+00  -7.350989999999769e-02  2.34509252e+00   6.46273000e-01   8.70511960e-01
