26
Lattice="8.88768389401873 1.33226762955019e-15 0 4.44384194700937 7.69696003302603 0 0 0 30 " PBC="1 1 1" Properties=species:S:1:pos:R:3:force:R:3 Energy="-209.28214671"
C     1.282230741314715e+01   7.073926675526838e+00  -6.972899999999882e-02  8.36695300e-01   2.01065775e+00  -1.75111360e-01
C     9.080906808320233e+00   6.954341701476738e+00  -1.580858999999997e-01 -1.61175630e-01  -1.87926662e+00   1.49509010e-01
C     1.043538769983627e+01   6.529729665069753e+00  -8.086379999999949e-02  3.48139700e-01   7.41506360e-01  -2.89473080e-01
C     1.077941101156527e+01   5.165499379682070e+00  -9.390630000000044e-02  7.95450300e-02  -1.26896359e+00  -3.87962600e-02
C     6.685169268262250e+00   6.329358630058378e+00  -1.565048999999981e-01  2.67377770e-01  -6.84389730e-01   1.17672240e-01
C     8.074266266519889e+00   5.934726714785844e+00  -1.674062999999997e-01 -1.14087685e+00   1.27349683e+00   7.90340300e-02
C     8.407643466106236e+00   4.578168143399263e+00  -1.302395999999995e-01 -1.68098700e-01  -1.04735374e+00   7.43770000e-02
C     9.755949194870205e+00   4.176193944014912e+00  -1.422153000000002e-01  6.46846480e-01  -9.12200160e-01   1.23226610e-01
C     1.009745764753264e+01   2.761089523734540e+00  -1.602657000000001e-01  3.23191300e-02   1.86938197e+00   1.55977920e-01
C     4.286973750353543e+00   5.713447349670576e+00  -3.028439999999932e-02  1.58216360e-01  -6.34099680e-01  -4.44471400e-01
C     5.666383084299513e+00   5.326927876330461e+00  -8.274779999999993e-02  6.70515800e-02   1.05626380e-01   3.07411860e-01
C     6.030128922020194e+00   3.942131852529821e+00  -2.242559999999827e-02 -4.39078870e-01   3.88476750e-01  -4.49902280e-01
C     7.398528504240888e+00   3.569035800512426e+00  -6.043259999999862e-02 -2.10390740e-01  -6.71203000e-01  -7.70097500e-02
C     7.734961289517942e+00   2.165256687220197e+00  -5.994180000000071e-02 -1.06277559e+00   1.03631502e+00  -3.57182680e-01
C     9.090341125851895e+00   1.788154213567986e+00  -1.350759000000004e-01 -5.88898800e-01  -6.88913710e-01  -1.97214000e-03
C     3.250713180030657e+00   4.718584324013755e+00  -5.652659999999798e-02  4.92879990e-01   7.89356180e-01   6.00219330e-01
C     3.602442247001020e+00   3.344309120938922e+00   7.656600000000000e-03  4.22578250e-01   1.13244010e-01  -1.27113430e+00
C     5.001571262891784e+00   2.955632420611199e+00  -4.938600000000193e-02 -9.74219120e-01   3.56225100e-02   6.54288940e-01
C     5.323420692069028e+00   1.568933477382342e+00  -7.118460000000226e-02 -3.96599050e-01   7.81749510e-01  -3.53867120e-01
C     6.680493010043215e+00   1.187310425165312e+00  -8.758169999999765e-02  1.03072135e+00   4.26425400e-02   3.88302180e-01
C     1.146974395056026e+01   7.508889275903767e+00  -6.736260000000271e-02 -1.31179680e-01  -5.34983680e-01  -7.94715000e-02
C     2.560831024363861e+00   2.377193944068653e+00  -1.394519999999986e-01  8.48758970e-01  -5.59816920e-01   4.35339430e-01
C     2.893446682735488e+00   9.889130446448295e-01  -1.723371000000000e-01  1.18701166e+00   4.92540970e-01   4.41080200e-02
C     4.281718459547592e+00   5.999032968566086e-01  -1.525992000000009e-01 -4.56448260e-01   9.77556670e-01   2.12610940e-01
C     5.267710691394644e-01   4.150511805361212e-01  -1.492377000000005e-01 -4.40541790e-01  -1.64439177e+00   3.15783230e-01
C     1.887193732854239e+00   7.247611503448600e-03  -1.721070000000005e-01 -2.47858490e-01  -1.32590860e-01  -1.19468860e-01
