32
Lattice="10.096 0 0 5.048 8.74339247660769 0 0 0 30 " PBC="1 1 1" Properties=species:S:1:pos:R:3:force:R:3 Energy="-256.91490395"
C     4.305007358005119e-03   3.125628151090997e-03   3.000714386456997e+00 -2.00330390e-01  -1.15849640e-01   1.95920500e-02
C     1.266141518931012e+00   7.303602105814382e-01   2.998434823143868e+00 -2.17013290e-01   1.79044100e-02   2.71753600e-02
C     2.522393711586285e+00   8.492561542098715e-04   2.998533176042316e+00  9.44474300e-02   9.68324000e-03  -4.09335000e-03
C     3.781675615205288e+00   7.303355188729770e-01   2.996831498026334e+00  2.59265060e-01  -8.89953000e-02   3.61543400e-02
C     5.049711924542856e+00  -2.023566914065379e-03   2.998872762240342e+00 -1.17809740e-01   1.73987620e-01  -6.92541000e-03
C     6.312439052221501e+00   7.285692064100798e-01   2.999011705616844e+00 -1.59607420e-01   4.32665200e-02   1.75724600e-02
C     7.572547616389993e+00   1.447372604816627e-03   2.999383054326865e+00  3.24500000e-05  -8.44605300e-02   2.86433000e-02
C     8.831297446802854e+00   7.286397920784987e-01   3.004066254111414e+00  2.40245440e-01   8.30175300e-02  -6.96694100e-02
C     1.261259292033123e+00   2.185527165872618e+00   3.000787552669852e+00  9.23625000e-03   8.30852500e-02  -4.10318600e-02
C     2.525031820182462e+00   2.911952870840004e+00   2.997558417133865e+00 -1.66991700e-01   1.82255350e-01   6.59952600e-02
C     3.784720292989707e+00   2.188430150230774e+00   3.000530534978610e+00  2.66796900e-02  -1.68980290e-01  -6.46127800e-02
C     5.046974168699130e+00   2.913263239606263e+00   2.996813857465865e+00  3.62687000e-03   1.25932960e-01   6.27271400e-02
C     6.307951952240694e+00   2.188610392174803e+00   3.001674869492049e+00  2.53209400e-02  -1.96788320e-01  -2.46277900e-02
C     7.569083604932671e+00   2.912545299039198e+00   3.004001138406795e+00  7.62160600e-02   1.95027390e-01  -5.72231500e-02
C     8.832187691185460e+00   2.188102360846182e+00   2.998465821965973e+00 -5.35972500e-02  -1.38466640e-01   7.13354200e-02
C     1.009170726998204e+01   2.917074979767194e+00   2.999408426386116e+00  1.20088420e-01  -1.79321740e-01  -1.63997000e-02
C     2.520663941207261e+00   4.371796896557143e+00   3.003150242456701e+00  1.85027100e-01  -5.18256200e-02  -7.60589000e-02
C     3.787307143607848e+00   5.099328168675538e+00   2.998244514361721e+00 -1.53291770e-01   7.17525400e-02   1.91062500e-02
C     5.047376075529328e+00   4.371491699297699e+00   2.998981092480766e+00  4.28025300e-02   2.22494100e-02  -2.06305300e-02
C     6.310405078451926e+00   5.102815509779708e+00   2.998567775221098e+00  4.36803600e-02  -1.66586340e-01  -6.73347000e-03
C     7.572629059145529e+00   4.371537787813067e+00   3.000361511621103e+00 -6.29273000e-03   6.12167600e-02   2.83042300e-02
C     8.838079185382682e+00   5.102185526602504e+00   3.002843043808404e+00 -2.70892840e-01  -5.14930700e-02  -8.41477800e-02
C     1.009131363861042e+01   4.369175759738568e+00   2.996746917654507e+00  2.31824900e-01   1.54609050e-01   6.17035200e-02
C     1.135719823016808e+01   5.098706536102247e+00   2.999707391762683e+00 -7.85264500e-02   6.41005000e-03   2.58451200e-02
C     3.784894717026314e+00   6.560136075849235e+00   2.996229101679017e+00  1.09127480e-01  -1.28687090e-01   5.34154500e-02
C     5.048075569366618e+00   7.286577098943779e+00   3.001722415859932e+00  7.44721700e-02   8.39876200e-02  -6.97944500e-02
C     6.312682813114914e+00   6.556769043981913e+00   2.996336138108377e+00 -1.63471980e-01   1.02434590e-01   5.86213600e-02
C     7.569705078397674e+00   7.288358240000687e+00   2.999970748364492e+00  1.81451310e-01  -9.72374700e-02  -5.01496600e-02
C     8.836191791162110e+00   6.559687725570341e+00   2.996463072843142e+00 -1.39975390e-01  -2.21613400e-02   7.75773700e-02
C     1.009577698045848e+01   7.285720828070921e+00   3.001055517891059e+00  6.01016800e-02   2.39435700e-02  -2.30001800e-02
C     1.135677103421768e+01   6.555454743627573e+00   3.003601281209386e+00  1.05204120e-01   5.27309200e-02  -5.26151000e-02
C     1.262181273643838e+01   7.286242882661900e+00   2.999076565950882e+00 -1.61049300e-01  -2.64139000e-03   1.39449100e-02
