32
Lattice="9.86 0 0 4.93 8.53901048131456 0 0 0 30 " PBC="1 1 1" Properties=species:S:1:pos:R:3:force:R:3 Energy="-257.49688927"
C     4.950028963099999e+00   8.376214330588905e+00   7.574340000000000e-02 -1.48551058e+00  -1.41086152e+00  -2.81590330e-01
C     1.233498177100000e+00   5.331285936432456e-01   5.755950000000000e-02  3.72018940e-01  -6.48481170e-01   2.90082070e-01
C     7.378359228699999e+00   8.348825625254515e+00   8.782260000000000e-02  1.80436119e+00   5.40889560e-01  -5.65749470e-01
C     3.710666649600000e+00   5.375435182317200e-01   8.415299999999999e-03 -1.05237256e+00  -3.82183410e-01   2.74304680e-01
C     9.864233883999999e+00   8.366951809750933e+00  -2.831580000000145e-02 -8.82890700e-02   2.85143500e-02   2.58740330e-01
C     6.148651728600000e+00   5.406833123852161e-01   4.400100000000001e-03  9.19189020e-01   5.86425580e-01  -3.38819190e-01
C     1.230571384000000e+01   8.351745539888151e+00  -1.500809999999930e-02  1.17021063e+00   1.15630157e+00   3.87470580e-01
C     8.630513758299999e+00   5.330864109314744e-01   6.619590000000000e-02 -3.13213580e-01   6.33178500e-02  -1.23838210e-01
C     1.257084874700000e+00   1.932960859089260e+00  -1.473899999997030e-03 -7.41017210e-01   9.53745840e-01  -4.04918800e-02
C     2.460885964300000e+00   2.641647324086171e+00  -6.025590000000136e-02  1.25887244e+00   1.75449231e+00   1.32303120e-01
C     3.707630607700000e+00   1.959480463936996e+00  -5.705999999999989e-03  1.53925190e-01  -1.76277760e-01  -1.28031690e-01
C     4.939023181800000e+00   2.689707522160859e+00   1.994190000000000e-02 -2.78966610e-01  -6.83634390e-01  -5.38682770e-01
C     6.190005160200000e+00   1.985296198150866e+00   2.497200000000000e-03 -1.44145946e+00  -8.27046740e-01   5.93999990e-01
C     7.399624093500000e+00   2.691652964918518e+00   5.726220000000000e-02  8.15239210e-01  -6.79047490e-01  -2.05818350e-01
C     8.624888874800000e+00   1.955083471270530e+00   8.763749999999999e-02  1.02955884e+00   4.67411730e-01  -4.98073860e-01
C     9.899969777799999e+00   2.667429926939378e+00   5.125800000000000e-03 -1.73816132e+00  -8.97678730e-01   3.91068340e-01
C     2.478930355900000e+00   4.104357617882923e+00  -1.187292000000006e-01 -5.83496390e-01  -7.66551620e-01   1.84576020e-01
C     3.708449283500000e+00   4.833677064682867e+00  -1.167887999999984e-01 -7.02577620e-01  -1.53589215e+00   8.37483200e-02
C     4.903740946600000e+00   4.097748850721926e+00  -2.938890000000072e-02  1.77783352e+00   4.86440850e-01   4.35631710e-01
C     6.167238025800000e+00   4.802919634324011e+00   6.913229999999999e-02 -7.98507930e-01  -6.53938300e-02  -1.02504500e+00
C     7.400941192299999e+00   4.101984456090321e+00   2.280990000000000e-02 -3.97365540e-01   2.15588040e-01   4.14679320e-01
C     8.620490624600000e+00   4.802748512553992e+00  -1.589309999999955e-02  1.17039459e+00   1.57264800e-01   1.52792210e-01
C     9.854516558200000e+00   4.072123621831865e+00  -2.067960000000113e-02  8.45770330e-01   1.11370367e+00  -3.49308330e-01
C     1.110035970180000e+01   4.812278219029881e+00  -8.915310000000076e-02 -3.21521470e-01  -7.18125350e-01  -1.49708680e-01
C     3.725461727500000e+00   6.230073403091938e+00  -1.079952000000013e-01 -1.31212050e+00   6.21512290e-01   5.31316260e-01
C     4.921451922300000e+00   6.913125929408098e+00   1.480050000000000e-02  1.73512641e+00   2.07729032e+00  -8.93850600e-02
C     6.157961836399999e+00   6.218213827606580e+00   2.408640000000000e-02  1.20489690e+00   1.66702920e-01   5.75656140e-01
C     7.430572562900000e+00   6.936040534811388e+00   7.313340000000000e-02 -1.23037416e+00  -3.52031260e-01  -3.73904060e-01
C     8.675043687500001e+00   6.234680540806318e+00  -1.189169999999962e-02 -1.43950140e+00  -4.79592150e-01   2.90767420e-01
C     9.889629349300000e+00   6.942911193423805e+00  -4.043490000000105e-02 -2.09967870e-01   1.71486880e-01  -2.03280120e-01
C     1.109946668160000e+01   6.227348007117037e+00  -1.116450000000029e-01  1.26283851e+00   4.71521280e-01   4.52289150e-01
C     1.235801616070000e+01   6.958338623658022e+00  -6.556199999999990e-02 -1.38581246e+00  -1.40981228e+00  -5.37698660e-01
