32
Lattice="9.86 0 0 4.93 8.53901048131456 0 0 0 30 " PBC="1 1 1" Properties=species:S:1:pos:R:3:force:R:3 Energy="-256.40682518"
C     1.276884050500000e+00   1.846773637660952e-01   3.150248400000000e+00  1.00217360e-01  -4.28063200e-02  -1.91103980e-01
C     2.503590610300000e+00   8.927884702368633e-01   3.238308000000000e+00 -7.17119730e-01   6.15819720e-01   9.29469790e-01
C     3.712024125100000e+00   1.888138312228168e-01   3.271805100000000e+00  1.35086288e+00   1.25433830e+00  -2.48990910e-01
C     4.956387036200000e+00   9.178261298157951e-01   3.302828400000000e+00  4.49947430e-01  -2.31584408e+00   7.38782990e-01
C     6.181374209199999e+00   1.637271577237296e-01   3.388743300000000e+00  3.58794550e-01   2.80569610e-01  -1.00197289e+00
C     7.417376826300000e+00   8.816247387155208e-01   3.332472300000000e+00  2.03080940e-01   8.51222250e-01  -5.62871440e-01
C     8.675074894400000e+00   1.896616695733760e-01   3.224646300000000e+00 -1.15743893e+00  -5.22135800e-02   5.56880720e-01
C     9.925825409300002e+00   8.871950768120440e-01   3.220737900000000e+00 -1.60970949e+00   5.34052500e-01   9.05433000e-02
C     2.478273877100000e+00   2.293716632287881e+00   3.553027500000000e+00 -2.77872540e-01   5.97611910e-01  -5.51669820e-01
C     3.703768495000000e+00   3.029088785886363e+00   3.616700100000000e+00  1.09130339e+00   9.23453900e-02  -8.15444620e-01
C     4.998447725600000e+00   2.287008641825107e+00   3.406776300000000e+00 -2.53433615e+00   3.05697143e+00   3.52736790e-01
C     6.192739929800000e+00   3.045394026397923e+00   3.346101900000000e+00 -1.77945500e-01  -3.55365880e-01   1.41128820e-01
C     7.405787185099999e+00   2.327514548108350e+00   3.266983500000000e+00  9.32788810e-01  -5.09033300e-02   1.17062310e+00
C     8.650017331299999e+00   3.054943116427602e+00   3.431815200000000e+00 -4.44185460e-01  -1.61345071e+00  -1.27433889e+00
C     9.875559227899998e+00   2.315347482855607e+00   3.400306800000000e+00 -8.21719850e-01  -5.28592990e-01   2.43461280e-01
C     1.105588489000000e+01   2.997736442667366e+00   3.612074100000000e+00  2.99704769e+00   1.20791154e+00   1.82525780e-01
C     3.703146526199999e+00   4.500894833646411e+00   3.639723900000000e+00  1.43040827e+00  -2.35456393e+00   2.41859770e-01
C     4.980186561900000e+00   5.158885961934505e+00   3.425411400000000e+00 -2.55498408e+00   2.38211390e+00   2.37514700e-02
C     6.165961599500000e+00   4.479623902370417e+00   3.368501400000000e+00  2.11590479e+00  -1.49919170e+00  -5.58945720e-01
C     7.432800134099999e+00   5.155887915354977e+00   3.264053700000000e+00 -5.92855350e-01   8.56437490e-01  -1.86935560e-01
C     8.661028880700000e+00   4.459012780434212e+00   3.381000000000000e+00  2.22219720e-01   2.79557440e-01   8.98923670e-01
C     9.878762446100000e+00   5.183805526998498e+00   3.584361300000000e+00  3.36567910e-01  -4.79155930e-01  -6.30819160e-01
C     1.110842345630000e+01   4.439480989422679e+00   3.761039700000000e+00 -6.66838680e-01   4.30398900e-01  -4.67627700e-01
C     1.234834685310000e+01   5.181475743379135e+00   3.796918800000000e+00 -4.32279360e-01   1.73944190e-01  -8.95695410e-01
C     4.957339808000000e+00   6.613677604362628e+00   3.250227900000000e+00 -1.23834357e+00  -1.18838617e+00   3.55878490e-01
C     6.177282802200000e+00   7.302410622010504e+00   3.080650800000000e+00  1.20331541e+00  -5.24475850e-01   4.12599350e-01
C     7.446180252700000e+00   6.569178173658100e+00   3.116985000000000e+00 -2.28136840e-01   1.34019799e+00   1.05398447e+00
C     8.688146296399999e+00   7.346647990483402e+00   3.286179000000000e+00 -1.43622970e+00  -2.71746355e+00  -8.71186610e-01
C     9.902428565999999e+00   6.609439010340567e+00   3.424768800000000e+00 -1.09543206e+00  -1.18570405e+00   3.36896890e-01
C     1.112108290750000e+01   7.257161466185831e+00   3.417923700000000e+00  1.76932590e-01   2.61459424e+00   1.08804751e+00
C     1.234510261730000e+01   6.615414524484366e+00   3.621518700000000e+00 -2.28594400e-01  -1.47030962e+00  -8.20839760e-01
C     1.352313932970000e+01   7.312244402649586e+00   3.327419400000000e+00  3.24462994e+00  -1.89659100e-01   2.60348260e-01
