32
Lattice="9.86 0 0 4.93 8.53901048131456 0 0 0 30 " PBC="1 1 1" Properties=species:S:1:pos:R:3:force:R:3 Energy="-255.99658736"
C     4.960506692100000e+00   8.478090190582012e+00  -1.832192999999975e-01  2.72928400e-02  -1.22766879e+00   2.38900110e-01
C     1.259943633800000e+00   6.423520159840784e-01  -1.202612999999992e-01  9.64698800e-02   1.20767584e+00  -1.13539328e+00
C     7.434345294700000e+00   8.513589077290098e+00  -2.401499999999999e-01 -1.04090551e+00  -1.11297860e+00   1.28722566e+00
C     3.731442507700000e+00   6.811706137964728e-01  -2.260770000000001e-01 -3.94509020e-01  -8.24960620e-01  -1.37243027e+00
C     9.865690600400001e+00   8.476406553885671e+00  -3.193814999999987e-01  4.59396550e-01  -1.45026998e+00   1.49831990e-01
C     6.161013309199999e+00   5.640667094638576e-01  -3.220464000000014e-01  2.48323123e+00   3.34282508e+00   9.86443610e-01
C     1.238042799000000e+01   8.413147173326896e+00  -3.251867999999973e-01 -1.55881119e+00   3.53525757e+00  -2.98404390e-01
C     8.671720473100001e+00   6.557107001493049e-01  -2.274803999999975e-01 -4.80942340e-01  -9.97388580e-01  -3.87026290e-01
C     1.262407154800000e+00   2.075373878143966e+00  -2.518884000000021e-01 -1.52887220e+00  -1.07533890e-01  -1.56732610e-01
C     2.469946466200000e+00   2.748183007488318e+00  -4.396728000000003e-01  5.14412660e-01   2.67970974e+00  -1.12700610e-01
C     3.723625795499999e+00   2.080346400116785e+00  -4.286724000000000e-01 -6.28569860e-01  -4.64610760e-01   1.33127963e+00
C     4.946706488200000e+00   2.760225744748472e+00  -3.210188999999986e-01  1.27504796e+00   3.92407580e-01   6.91921900e-02
C     6.179367945699999e+00   2.048457636259434e+00  -1.529379000000013e-01  2.04487280e-01  -9.35045280e-01  -1.25596009e+00
C     7.410146340399999e+00   2.806005770854686e+00  -1.300269000000007e-01  1.42482200e-01  -2.11572206e+00  -9.16281320e-01
C     8.678470136100000e+00   2.074736270231425e+00  -2.790408000000006e-01 -2.70329552e+00   3.41659610e-01   1.67848425e+00
C     9.842463792800000e+00   2.818636162816074e+00  -2.631941999999974e-01  2.92584326e+00  -1.75431297e+00  -8.93065960e-01
C     2.474223241200000e+00   4.244551006553458e+00  -5.383586999999999e-01  1.33908217e+00  -2.59327990e+00   4.06413220e-01
C     3.736679153700000e+00   4.914566598619278e+00  -4.217376000000002e-01 -5.99303020e-01  -2.98238320e-01  -8.61039410e-01
C     5.000446002499999e+00   4.173490642190470e+00  -3.621374999999993e-01 -1.69368144e+00   1.15415962e+00  -3.12593120e-01
C     6.219282606100000e+00   4.899360841097122e+00  -3.677984999999993e-01 -1.81387679e+00   7.99162110e-01   1.96271112e+00
C     7.402171325899999e+00   4.211708349835386e+00  -1.775151000000008e-01  2.14934305e+00  -2.12321980e-01  -5.32097200e-01
C     8.663731408100000e+00   4.916874863932231e+00  -2.394216000000000e-01 -1.13079782e+00   1.51526488e+00  -7.07143750e-01
C     9.859418309300001e+00   4.196215852341313e+00  -4.464050999999998e-01  6.39041180e-01   1.82899330e+00   1.00726044e+00
C     1.112039344700000e+01   4.942336570771600e+00  -5.700630000000011e-01 -1.36774845e+00  -3.13389602e+00   4.73222960e-01
C     3.665524710200000e+00   6.342486658187680e+00  -4.415841000000000e-01  2.98635427e+00  -6.35398440e-01   5.28085760e-01
C     4.943955301699999e+00   7.014049348172266e+00  -2.308847999999983e-01 -1.60847206e+00   1.65629535e+00  -4.01969110e-01
C     6.152716267099999e+00   6.323277727162396e+00  -1.774953000000004e-01  1.21348447e+00   4.62182600e-02  -1.11084319e+00
C     7.377313082700000e+00   7.076425624267199e+00  -1.881957000000014e-01  1.02773155e+00   2.26765620e-01  -7.05258200e-02
C     8.626962679300000e+00   6.403406435265039e+00  -2.571389999999987e-01  5.26348560e-01  -2.98135029e+00  -8.33266500e-02
C     9.899182160999999e+00   7.032429312060152e+00  -3.571692000000013e-01 -2.25503894e+00   1.00780766e+00  -8.77904100e-02
C     1.107829740950000e+01   6.287351548369892e+00  -5.119034999999990e-01  1.45106071e+00   4.25440302e+00  -1.04338000e-01
C     1.233545564260000e+01   7.070816604453202e+00  -5.250996000000008e-01 -6.56285660e-01  -3.14362876e+00   6.80610530e-01
