26
Lattice="8.88768389401873 1.33226762955019e-15 0 4.44384194700937 7.69696003302603 0 0 0 30 " PBC="1 1 1" Properties=species:S:1:pos:R:3:force:R:3 Energy="-208.46512267"
C     1.250221214505674e+01   6.794184819594904e+00   4.965060000000000e-02  1.21011594e+00  -4.95429140e-01   5.09815230e-01
C     8.838608059159704e+00   6.634513846799764e+00  -1.104158999999996e-01 -1.50046144e+00   3.43895770e-01  -4.36328270e-01
C     1.019083845583553e+01   6.265323540179993e+00  -1.151310000000016e-01 -1.80344406e+00  -3.50104931e+00   6.88773470e-01
C     1.048963554377094e+01   4.833998854210800e+00  -6.365070000000017e-02  1.43107907e+00   1.75648893e+00  -6.17210900e-02
C     6.450577474183669e+00   6.004504044725011e+00  -2.161770000000018e-02 -2.01716756e+00   1.23862122e+00  -3.54171600e-02
C     7.804146756010127e+00   5.652272065291337e+00  -1.435542000000005e-01  7.04230600e-01  -6.75303500e-01   4.21602440e-01
C     8.182941575613292e+00   4.286840977169374e+00  -1.433105999999995e-01 -2.86607616e+00  -1.59030887e+00   4.03946110e-01
C     9.510549977196430e+00   3.874497664141407e+00  -1.414437000000000e-01 -8.92366820e-01  -1.40677336e+00   2.62763920e-01
C     9.816429438252795e+00   2.475680857950119e+00  -5.522429999999900e-02 -6.26826070e-01  -1.32197742e+00  -1.59983380e-01
C     3.972777015874970e+00   5.443152973388265e+00   1.264212000000000e-01  8.72526730e-01  -1.51391138e+00  -3.98526710e-01
C     5.380890724733809e+00   5.067431719213438e+00   7.125030000000000e-02 -2.54834490e-01  -1.98401860e+00   6.27807340e-01
C     5.723495873139871e+00   3.636961164898775e+00   1.685187000000000e-01  1.45699000e-01   1.44581222e+00  -8.86747150e-01
C     7.122722920186530e+00   3.252269180778583e+00   1.431420000000000e-02 -1.21171644e+00   2.25033540e+00   1.75792500e-02
C     7.372464036992872e+00   1.894166214361983e+00   2.562000000000000e-02  3.37118119e+00  -2.01142381e+00  -2.34330620e-01
C     8.783212899642361e+00   1.450225802836462e+00  -3.888630000000148e-02 -6.91339700e-01   1.03257576e+00   4.09686910e-01
C     2.936235328093856e+00   4.422448482005124e+00   1.096110000000000e-01  1.60131977e+00   7.46188430e-01  -3.55434950e-01
C     3.297826702370834e+00   3.050078738355317e+00   9.902279999999999e-02  5.33141280e-01  -5.34148030e-01   2.88275020e-01
C     4.679422806491768e+00   2.651629361816704e+00   1.797570000000000e-01  7.20597550e-01   2.93217060e-01  -9.47274570e-01
C     5.070396819267248e+00   1.273992203570366e+00  -3.316500000000389e-03 -2.82815108e+00   3.43697280e-01   9.47031860e-01
C     6.395972607549686e+00   8.692602603768659e-01   4.286280000000000e-02  2.01767340e-01   5.42788520e-01  -1.77111900e-02
C     1.116623590019516e+01   7.177019989077459e+00   6.160649999999999e-02  1.18173425e+00   2.62514127e+00  -7.47336470e-01
C     2.278698475895272e+00   2.050237318951093e+00   8.227800000000000e-03  2.69799290e-01   7.82125180e-01   1.89638050e-01
C     2.614099934353451e+00   6.768145541995813e-01   1.752690000000000e-02  6.29069650e-01  -4.11177900e-02  -4.22367750e-01
C     4.007781288847742e+00   2.965778014535543e-01  -4.838880000000145e-02  1.88283970e-01   4.35830440e-01   2.02779150e-01
C     2.090245936469220e-01   3.961171206799229e-02   2.481780000000000e-02  6.71377800e-01   2.34985037e+00  -2.13213920e-01
C     6.031193713231058e+00   7.394099969769959e+00   6.911400000000000e-03  9.60460390e-01  -1.11110666e+00  -5.33055100e-02
