32
Lattice="9.86 0 0 4.93 8.53901048131456 0 0 0 30 " PBC="1 1 1" Properties=species:S:1:pos:R:3:force:R:3 Energy="-256.90723916"
C     4.944111730600000e+00   8.465438365704321e+00  -2.743235999999989e-01 -5.83200220e-01   2.23817132e+00   7.09256660e-01
C     1.244600044100000e+00   6.298945389849112e-01  -2.562816000000012e-01  5.01783050e-01   1.75295790e+00  -1.45790200e-02
C     7.426027004300000e+00   8.499744267258244e+00  -2.739809999999991e-01 -1.71860677e+00  -2.41949988e+00   7.32839770e-01
C     3.679883088700000e+00   6.309938511941063e-01  -1.520963999999978e-01  2.12409795e+00   2.90421655e+00  -1.57835689e+00
C     9.859992161299999e+00   8.487785041520585e+00  -2.717580000000019e-01  2.26873760e-01  -1.61817960e-01   3.63240920e-01
C     6.160932062800000e+00   6.843426000194784e-01  -3.175724999999971e-01 -2.31621270e-01  -1.63709968e+00   1.19826292e+00
C     1.231642766670000e+01   8.525356004511746e+00  -1.662867000000006e-01  3.93224820e-01  -1.34513588e+00  -1.30125397e+00
C     8.620128910499998e+00   6.762526561006216e-01  -1.820898000000000e-01  9.51183380e-01  -1.47799440e-01  -8.52988200e-01
C     1.272176492100000e+00   2.088058834382321e+00  -2.156378999999973e-01 -1.06690684e+00  -6.63286990e-01   5.22135900e-02
C     2.475710868700000e+00   2.848616884781668e+00  -2.269952999999987e-01  5.25069260e-01  -3.17510729e+00   2.36261900e-02
C     3.708570610800000e+00   2.121452598836771e+00  -2.309097000000015e-01 -4.36614600e-01  -2.03354856e+00   5.47679870e-01
C     4.936951497200000e+00   2.785476964979509e+00  -2.383035000000007e-01 -2.09375640e-01   1.45187516e+00  -7.24842800e-02
C     6.168724765899999e+00   2.059391497618655e+00  -2.712578999999984e-01  1.11645940e-01   2.63184787e+00   9.68285000e-02
C     7.398819714699999e+00   2.802906537000970e+00  -2.288007000000007e-01  5.14628680e-01   6.55465230e-01  -4.54751760e-01
C     8.645610157800000e+00   2.109780966972078e+00  -2.684144999999987e-01 -3.60556390e-01  -9.87824990e-01   1.13024227e+00
C     9.890891527899999e+00   2.786448789762238e+00  -1.853379000000004e-01 -2.27837340e-01   9.49284550e-01  -8.80299630e-01
C     2.466388682400000e+00   4.208006432621992e+00  -2.446593000000021e-01  1.69486920e-01   2.69354927e+00   2.46831270e-01
C     3.694603427800000e+00   4.959665980200131e+00  -2.306555999999986e-01 -6.14724380e-01  -3.42104710e-01  -5.01934200e-01
C     4.897462246500000e+00   4.253949639218479e+00  -2.240982000000002e-01  1.85702422e+00  -1.82243902e+00  -4.77241510e-01
C     6.153165340799999e+00   4.927034151650811e+00  -2.915709000000000e-01  3.91847940e-01   1.18842037e+00   1.32068216e+00
C     7.415448111700000e+00   4.255776987461199e+00  -2.361500999999997e-01 -7.04860540e-01  -1.02143974e+00  -2.55270740e-01
C     8.652744508700000e+00   4.987459349241169e+00  -2.410376999999997e-01 -3.29244560e-01  -3.10310647e+00  -2.99271660e-01
C     9.875661229599999e+00   4.228156106431857e+00  -2.437848000000002e-01 -3.58237420e-01  -2.90825780e-01   4.72633170e-01
C     1.109834594470000e+01   4.915497692322017e+00  -2.327237999999987e-01  4.89971620e-01   8.73338420e-01  -7.02777100e-02
C     3.703727132300000e+00   6.374261767815542e+00  -3.205308000000002e-01  6.64628530e-01   2.14747590e-01   1.05122448e+00
C     4.968165496400000e+00   7.087225679332198e+00  -2.486874000000014e-01 -1.41544960e+00  -1.56558890e+00  -1.07256550e-01
C     6.180045820699999e+00   6.369847782518219e+00  -1.687395000000009e-01  6.11793510e-01  -1.09706484e+00  -1.47468690e+00
C     7.439753554000000e+00   7.035358192654792e+00  -2.523264000000012e-01 -1.54123043e+00   2.11126065e+00  -5.80489800e-02
C     8.649297748500000e+00   6.360270599144061e+00  -3.151854000000007e-01  1.25232265e+00   7.83059260e-01   8.12570210e-01
C     9.901393857599999e+00   7.060033542019058e+00  -2.624585999999987e-01 -6.42464710e-01   6.12678980e-01  -1.35880750e-01
C     1.112911170830000e+01   6.352314803079846e+00  -2.103171000000010e-01 -9.21821590e-01  -4.65363800e-01  -6.75120440e-01
C     1.233261236370000e+01   7.069395115378596e+00  -2.587203000000002e-01  5.77170090e-01   1.21818080e+00   4.51571220e-01
