32
Lattice="9.924 0 0 4.962 8.59443610715677 0 0 0 30 " PBC="1 1 1" Properties=species:S:1:pos:R:3:force:R:3 Energy="-257.87441493"
C    -1.413170428246037e-02  -2.603882263474378e-03   3.003592745684346e+00  9.78502460e-01  -3.42648040e-01  -1.87375230e-01
C     1.229654064253334e+00   7.200217514901457e-01   2.999548718917673e+00  1.39091360e-01  -1.89611030e-01   7.71697900e-02
C     2.468712987768134e+00  -2.936337378547466e-03   3.010144885967390e+00  3.46822920e-01   8.73222100e-02  -8.29861000e-02
C     3.718120386263146e+00   7.257699554616677e-01   3.004517330444161e+00 -5.09776280e-01  -5.59100210e-01  -1.67038000e-02
C     4.950386010044700e+00   8.091572034455470e-03   2.995705503554735e+00  3.58002280e-01  -3.04495770e-01   8.58099300e-02
C     6.193825604313405e+00   7.147993110184225e-01   3.008617457060677e+00  4.27615300e-01   2.69176200e-01  -1.32991460e-01
C     7.442329489518533e+00  -1.153676381241918e-02   3.010882997721890e+00 -7.54884700e-02   8.54572160e-01  -1.99272110e-01
C     8.698210877278486e+00   7.137427904565488e-01   2.996305778128856e+00 -1.18226954e+00  -4.04035800e-02   2.19423320e-01
C     1.232839054983967e+00   2.157138642752110e+00   2.998477204341671e+00  5.26102100e-02  -3.03079930e-01   3.12368000e-02
C     2.474525443791327e+00   2.868200595197375e+00   2.999073975365886e+00  4.20643720e-01  -4.45329610e-01  -1.38429300e-02
C     3.720726077998587e+00   2.141099328992817e+00   3.003485678532543e+00  9.15393400e-02   8.69134310e-01   1.80094900e-02
C     4.970062880810448e+00   2.874359030995880e+00   3.008809351089921e+00 -4.39780670e-01  -1.67027630e-01  -8.31851600e-02
C     6.208947771155273e+00   2.163619281212272e+00   2.995394379752544e+00 -2.61473050e-01  -8.89861560e-01   2.00805200e-01
C     7.446591281041854e+00   2.857698297937736e+00   3.004062385504283e+00  6.83458700e-02   7.22125220e-01   8.76412000e-03
C     8.689325472042620e+00   2.145414694634507e+00   3.011476979721257e+00 -1.69804320e-01   1.30838530e-01  -1.44468000e-01
C     9.918914187726044e+00   2.870582649469650e+00   3.003424380536199e+00  2.88229660e-01   2.17800170e-01   2.19065100e-02
C     2.490395872467856e+00   4.286266711135202e+00   2.992623787903978e+00 -3.26296730e-01   7.88239300e-01   6.19145000e-02
C     3.724648713168925e+00   5.022315686910635e+00   2.991940320210944e+00  2.40958200e-02  -8.59774300e-01   2.07352260e-01
C     4.965860459900165e+00   4.305331949678338e+00   3.012989815704424e+00 -1.22814100e-01  -4.19310200e-02  -1.58234390e-01
C     6.204824573248779e+00   5.024335049321395e+00   3.005877783356625e+00 -2.21642630e-01  -7.87569980e-01  -1.08691500e-02
C     7.432198375579618e+00   4.306464735147537e+00   3.003440218834390e+00  7.09751450e-01  -6.33057200e-01  -3.76244800e-02
C     8.674846749424184e+00   5.021017235835996e+00   2.990540984038924e+00  4.51876580e-01  -5.42062790e-01   2.08954020e-01
C     9.938041760142209e+00   4.309396730112347e+00   3.002865421475014e+00 -9.22905940e-01  -3.01475010e-01  -8.19544300e-02
C     1.117098587872278e+01   5.014557181680178e+00   3.000507962984310e+00  1.84601240e-01   1.28972890e-01  -8.69489500e-02
C     3.725395666869266e+00   6.434674684081457e+00   3.009891074159921e+00 -2.68538120e-01   8.20613420e-01  -3.49520420e-01
C     4.966524935520638e+00   7.151182569478590e+00   2.985045535241072e+00 -1.70949080e-01   1.88460380e-01   2.89352720e-01
C     6.210414220225507e+00   6.432411369900602e+00   2.995449113581848e+00 -2.40728890e-01   9.46343780e-01   4.14819800e-02
C     7.450173490984605e+00   7.148532851719780e+00   3.009297149278790e+00 -6.53769880e-01   7.26351780e-01  -5.82627300e-02
C     8.673790972139845e+00   6.438724811306090e+00   3.006893352257384e+00  6.74072660e-01   4.28463660e-01  -1.50859770e-01
C     9.917630456034887e+00   7.166883180693455e+00   2.990445366828184e+00 -4.55751000e-03  -1.27955380e-01   1.15125020e-01
C     1.116291390527955e+01   6.454288062884805e+00   2.991616562231090e+00 -2.17655750e-01  -2.27222010e-01   1.15837000e-03
C     1.239696276062668e+01   7.165653150094133e+00   2.990824324837135e+00  5.72650110e-01  -4.15808960e-01   2.06635100e-01
