26
Lattice="8.88768389401873 1.33226762955019e-15 0 4.44384194700937 7.69696003302603 0 0 0 30 " PBC="1 1 1" Properties=species:S:1:pos:R:3:force:R:3 Energy="-208.70445857"
C     9.951612982245475e-01   1.111499756137029e+00   3.542994000000000e+00  2.70318440e-01   1.30532014e+00  -2.73922210e-01
C     3.377235178921302e+00   5.368986759870392e-01   3.465090600000000e+00 -5.31372630e-01  -1.44887800e-01   4.31668650e-01
C     4.738747428746648e+00   9.050672881324289e-01   3.525023700000000e+00  5.17419970e-01   9.01007580e-01   2.82566520e-01
C     1.022488806249184e+01   7.658981920728775e+00   3.593144700000000e+00  8.02916230e-01  -1.07203235e+00   7.90703020e-01
C     7.172934510587603e+00   3.684400839256478e-01   3.709766700000000e+00 -7.18858520e-01  -5.15262810e-01  -1.08403569e+00
C     1.262685173539480e+01   7.069523783480877e+00   3.671671800000000e+00 -6.93538000e-02  -7.34347880e-01  -5.44653100e-02
C     5.116467288136414e+00   7.472271450378644e+00   3.585588000000000e+00 -2.89362520e-01  -3.13964146e+00  -1.53260880e-01
C     6.165659659383069e+00   6.422391862910589e+00   3.520469700000000e+00 -1.74651885e+00   1.81549253e+00   9.20498730e-01
C     7.489338816465855e+00   6.852739135144729e+00   3.560290500000000e+00  1.35113291e+00  -4.74444640e-01  -7.04658860e-01
C     8.532022159131149e+00   5.850179149457907e+00   3.606344100000000e+00 -1.01426054e+00   5.50822180e-01   2.30495400e-01
C     9.879902168362751e+00   6.257870034995741e+00   3.647200200000000e+00  2.93310090e-01   8.09784400e-02  -6.11489180e-01
C     1.086846889263461e+01   5.240162355000280e+00   3.616689900000000e+00  1.71127819e+00   7.29986590e-01   6.05098870e-01
C     3.365014794659921e+00   5.668756105800385e+00   3.660298200000000e+00  6.06172390e-01  -1.84202910e-01  -2.17387050e-01
C     4.425891715086288e+00   4.690255970501742e+00   3.635797200000000e+00  4.19129740e-01  -3.32192250e-01  -2.39899160e-01
C     5.831184162499452e+00   5.068754364824994e+00   3.624484200000000e+00 -1.05444605e+00  -1.14606721e+00  -6.58031110e-01
C     6.856055831176462e+00   4.036032840655814e+00   3.581528400000000e+00 -2.17752608e+00   1.30271016e+00   1.64515897e+00
C     8.180510883062466e+00   4.465796837258880e+00   3.647165700000000e+00  1.16752913e+00  -6.25585900e-02  -7.79353970e-01
C     9.206299671864207e+00   3.470208680997633e+00   3.594896100000000e+00 -4.96035500e-02   8.19506430e-01   1.77367190e-01
C     1.055257709835479e+01   3.846503281725095e+00   3.608993400000000e+00  5.67086760e-01   1.61105035e+00  -1.42822440e-01
C     2.691956935437404e+00   2.892251803244164e+00   3.568663800000000e+00  1.61278419e+00   7.24125300e-02  -5.98575480e-01
C     4.114802514109205e+00   3.292774817784460e+00   3.550426800000000e+00 -1.66465518e+00  -6.81416000e-02   7.85265310e-01
C     5.111838312360156e+00   2.275547120216470e+00   3.615365700000000e+00  2.05344900e-02   8.71503380e-01   1.18597490e-01
C     6.482988144422547e+00   2.672697480810819e+00   3.772814400000000e+00  1.75227490e-01   5.77406430e-01  -2.26345235e+00
C     7.539249779514032e+00   1.744004065987905e+00   3.623109300000000e+00 -1.20280277e+00  -1.27233215e+00   1.12515522e+00
C     8.889735213257664e+00   2.120408656274195e+00   3.552699000000000e+00 -8.66393960e-01  -7.30894370e-01   3.96226480e-01
C     2.331845403190814e+00   1.531099224294078e+00   3.483169200000000e+00  1.87031442e+00  -7.61190710e-01   2.72551840e-01
