32
Lattice="9.86 0 0 4.93 8.53901048131456 0 0 0 30 " PBC="1 1 1" Properties=species:S:1:pos:R:3:force:R:3 Energy="-252.90797255"
C     5.103961360400000e+00   8.378008632861066e+00  -5.021394000000008e-01 -6.78952577e+00  -4.32883015e+00  -4.53308320e-01
C     1.314850424200000e+00   5.225643860477041e-01  -3.890354999999985e-01  1.95931457e+00  -4.17710050e-01  -6.42700630e-01
C     7.442275495499999e+00   8.266406242200507e+00  -4.362029999999990e-01  2.28386996e+00   1.06302180e+00  -9.30046400e-02
C     3.797228526300000e+00   3.828519144474024e-01  -6.267515999999986e-01 -3.48560983e+00   2.67830534e+00   5.44611810e-01
C     9.904151896799998e+00   8.225811530208272e+00  -6.500060999999988e-01  8.58118570e-01   7.16717820e-01   1.79085000e-02
C     6.190176428399999e+00   3.988730620802928e-01  -5.331524999999999e-01  6.31027330e-01   5.11014920e-01  -1.07157833e+00
C     1.233122318830000e+01   8.175998273282039e+00  -6.997698000000021e-01  2.70730353e+00   2.84465931e+00   7.50549220e-01
C     8.691447670899999e+00   4.411608890705016e-01  -5.550360000000012e-01 -3.99815010e-01   7.08376900e-02  -4.77482200e-02
C     1.302986034100000e+00   1.928137172069108e+00  -6.172794000000010e-01 -1.45949670e+00  -1.18601940e+00   4.33213300e-02
C     2.492315010100000e+00   2.520195782567663e+00  -8.784218999999993e-01  2.23756027e+00   2.48968639e+00  -1.49770740e+00
C     3.756072984900000e+00   1.833198745750372e+00  -8.124411000000009e-01 -5.59396240e-01  -7.10447510e-01   3.75872000e-02
C     4.948676072500000e+00   2.584260391814702e+00  -8.757780000000004e-01  5.51172070e-01  -8.56409000e-02   1.72419819e+00
C     6.143777536199999e+00   1.870980536910285e+00  -4.773381000000008e-01  3.75641110e-01  -6.60964580e-01  -1.48402361e+00
C     7.366796160199999e+00   2.586276196018715e+00  -4.325825999999999e-01  1.92461345e+00  -1.84442876e+00   9.95598000e-03
C     8.601580623599999e+00   1.862517182063138e+00  -5.062206000000025e-01  2.65800822e+00   7.12865910e-01  -1.72740890e-01
C     9.979360920200000e+00   2.673922478167741e+00  -7.040162999999993e-01 -3.80684210e+00  -3.23700420e+00   7.16472660e-01
C     2.434578744800000e+00   3.907106219624608e+00  -1.288134899999999e+00  2.36104436e+00   3.00148953e+00   1.29032283e+00
C     3.732017197800000e+00   4.744558913297403e+00  -1.125293100000000e+00 -7.11736100e-02  -5.63912068e+00  -2.17423130e-01
C     4.937979599400000e+00   4.027322678667288e+00  -9.058418999999986e-01  3.55927468e+00  -5.37164880e-01   7.19254730e-01
C     6.313272218000000e+00   4.731058737728524e+00  -5.770991999999993e-01 -4.44846979e+00   2.97667490e-01  -3.82339680e-01
C     7.522142777299999e+00   3.969078002793103e+00  -3.944462999999985e-01 -3.51795081e+00   1.31125345e+00  -7.55106890e-01
C     8.705065809899999e+00   4.671008231918027e+00  -5.359560000000023e-01  7.93240310e-01   1.91988602e+00  -1.32616292e+00
C     9.903358610500000e+00   4.038793387615386e+00  -9.465837000000015e-01  5.47208510e-01   1.46712620e-01   7.09733790e-01
C     1.111135557380000e+01   4.733738279217147e+00  -1.296194700000001e+00 -3.14132030e-01  -9.75875570e-01   1.17729154e+00
C     3.811751320300000e+00   6.046425417039207e+00  -8.919677999999998e-01 -2.57918914e+00   6.22178842e+00  -6.37342940e-01
C     4.984711118700000e+00   6.832689646147966e+00  -6.198131999999994e-01 -2.34373340e-01   2.76601289e+00   1.02499530e-01
C     6.176452146500000e+00   6.213091702170153e+00  -5.079573000000011e-01  3.91148671e+00  -4.36473955e+00   5.42259950e-01
C     7.467195856700000e+00   6.856447051885631e+00  -3.771360000000001e-01 -2.09435467e+00   4.58609980e-01  -6.47942750e-01
C     8.640686320300000e+00   6.103971174905604e+00  -5.759387999999994e-01  1.55332989e+00   5.11596500e-01  -1.80209880e-01
C     9.854477907000000e+00   6.858001407963306e+00  -8.180103000000010e-01  1.49671405e+00  -2.91164108e+00  -3.08737980e-01
C     1.110965028680000e+01   6.168801648002593e+00  -1.161206400000001e+00  5.41280540e-01  -6.75942430e-01   6.80019640e-01
C     1.240539696100000e+01   6.808789724325388e+00  -1.021610700000000e+00 -1.18987909e+00  -1.46596370e-01   8.52091280e-01
