32
Lattice="9.86 0 0 4.93 8.53901048131456 0 0 0 30 " PBC="1 1 1" Properties=species:S:1:pos:R:3:force:R:3 Energy="-252.30590363"
C     1.191019867400000e+00   9.634862682148704e-01   4.118097600000000e+00 -2.26884618e+00   3.53055303e+00   5.22685570e-01
C     2.403634564500000e+00   1.679277104541036e+00   4.297896600000000e+00  1.28453098e+00   1.14800200e-01  -4.05158740e-01
C     3.648343660200000e+00   9.383130945396209e-01   3.855712500000000e+00 -1.47606320e-01   2.42211121e+00   7.35543340e-01
C     4.872900542799999e+00   1.703088562215040e+00   3.854517300000000e+00 -1.46764601e+00   2.27238340e-01   6.68865850e-01
C     6.087908607000000e+00   9.772555933940801e-01   3.660215700000000e+00 -9.10356930e-01  -5.71796970e-01  -7.70140400e-02
C     7.297716655100000e+00   1.634973473346814e+00   3.732001500000000e+00  1.60201357e+00   2.21096062e+00   1.46599868e+00
C     8.543956269299999e+00   1.023948866671130e+00   3.968999700000000e+00 -1.45715696e+00  -4.60434638e+00  -1.96536098e+00
C     9.713398118300001e+00   1.639006618776727e+00   4.178426400000000e+00  3.84262000e+00   4.37066771e+00   1.26468589e+00
C     2.381600225300000e+00   3.105746813179410e+00   4.727818200000000e+00  1.63489252e+00  -7.16653470e-01  -2.19290849e+00
C     3.651354706999999e+00   3.870956831098157e+00   4.462943400000000e+00 -1.18949458e+00  -2.43104703e+00   2.16992600e-01
C     4.811016915000000e+00   3.140934623735709e+00   4.136133300000000e+00  3.12971243e+00  -9.68249460e-01  -5.40113100e-01
C     6.143279902000000e+00   3.834410720144805e+00   3.968280300000000e+00 -2.10730147e+00  -8.40703970e-01  -1.09891850e+00
C     7.358688824500000e+00   3.044118212842106e+00   3.837407999999999e+00 -2.34150222e+00   1.40258421e+00   2.24662680e-01
C     8.526702551100000e+00   3.806700350285633e+00   3.979293300000000e+00  1.59740438e+00   2.03712310e+00  -1.38564057e+00
C     9.746264160499999e+00   3.201552632182705e+00   4.329332100000000e+00  4.75147640e-01  -4.90153991e+00   4.63903080e-01
C     1.098684112740000e+01   3.803228644794779e+00   4.731915000000000e+00 -1.61182003e+00   1.50380903e+00  -2.62194441e+00
C     3.662149582900000e+00   5.262176906744357e+00   4.302542100000000e+00 -2.41311843e+00   8.67143180e-01   3.58598470e-01
C     4.774954753799999e+00   5.987216174541202e+00   3.898707300000000e+00  4.79457559e+00  -4.27499300e-01  -1.89753590e-01
C     6.072816102200000e+00   5.225677504178331e+00   3.737014800000000e+00  8.07192370e-01   3.04301526e+00  -2.33479580e-01
C     7.339729671399999e+00   6.050554626337020e+00   3.396449700000000e+00 -1.30351557e+00  -2.37047005e+00   8.61894860e-01
C     8.594618033900000e+00   5.224149789813354e+00   3.539495700000000e+00 -2.41119344e+00   1.18647957e+00   2.04292351e+00
C     9.784485513800000e+00   5.951147394273682e+00   3.795944100000000e+00  9.41312560e-01  -1.46784096e+00   7.89407050e-01
C     1.092809820540000e+01   5.222653328226735e+00   4.386046500000001e+00  2.43694532e+00   1.22972965e+00  -4.01954850e-01
C     1.223561254310000e+01   5.915294053240572e+00   4.330173300000000e+00 -1.25024822e+00   2.22864011e+00  -1.11960140e+00
C     4.878830889100000e+00   7.435226647186738e+00   3.820559100000000e+00 -1.45339110e-01  -1.18869194e+00  -6.71944590e-01
C     6.108149855900000e+00   8.231804122373031e+00   3.685739100000000e+00  1.97576440e-01  -4.67911507e+00  -6.06600780e-01
C     7.327012046200000e+00   7.532329285711630e+00   3.348402900000000e+00 -1.00710960e-01  -3.65310574e+00   1.35488066e+00
C     8.615451918100000e+00   8.080245566923930e+00   3.496479600000000e+00 -2.16811419e+00   2.66616048e+00   4.31705270e-01
C     9.809486431200000e+00   7.376230026049685e+00   3.614413200000000e+00  5.35957690e-01  -1.30324115e+00  -4.16700710e-01
C     1.100998466730000e+01   8.084576894599806e+00   3.634184400000000e+00  1.65860596e+00  -4.04061800e-01   1.70604158e+00
C     1.224498047980000e+01   7.355039788422727e+00   3.959160000000000e+00  4.57077200e-02  -6.06186000e-01  -5.88098700e-01
C     1.350840868690000e+01   8.062587234811710e+00   3.830694300000000e+00 -1.69022455e+00   2.09353348e+00   1.40640397e+00
