32
Lattice="9.86 0 0 4.93 8.53901048131456 0 0 0 30 " PBC="1 1 1" Properties=species:S:1:pos:R:3:force:R:3 Energy="-255.60419097"
C     4.928870241199999e+00   8.238660350057737e+00   2.896080000000000e-02  3.69858866e+00   2.12006142e+00  -7.60653640e-01
C     1.315517157400000e+00   4.263242729713968e-01  -4.648170000000107e-02 -1.66433356e+00  -1.56935530e-01   1.42988436e+00
C     7.468406516800000e+00   8.280623780039811e+00   2.976960000000000e-02  5.55718140e-01  -5.92593980e-01  -1.18584982e+00
C     3.775247726900000e+00   4.941155625622216e-01  -2.146229999999960e-02 -3.23218790e-01  -2.65409572e+00  -1.22085239e+00
C     9.944047478100000e+00   8.296343159042339e+00  -1.827089999999991e-01  4.28138090e-01   1.28804425e+00   1.62197795e+00
C     6.244525438599999e+00   4.703056419101040e-01  -5.206679999999864e-02  4.32719090e-01   1.19173951e+00   3.52860600e-02
C     1.241763287590000e+01   8.306724546423503e+00   5.209050000000000e-02 -2.31843065e+00  -1.62597305e+00  -1.62100884e+00
C     8.684104090799998e+00   4.324042192133664e-01   2.863260000000000e-02  6.35037300e-01   2.73329821e+00   3.70364230e-01
C     1.323415362500000e+00   1.831826355986026e+00   3.178710000000000e-02 -4.62791240e-01   2.00578634e+00  -2.92764120e-01
C     2.566145063200000e+00   2.588799302835346e+00  -5.195609999999817e-02 -1.30529437e+00   2.51923250e-01   3.75168360e-01
C     3.768515466799999e+00   1.876766058070904e+00  -1.307000999999985e-01  1.25146026e+00   8.01692880e-01   7.81549560e-01
C     5.022218262900000e+00   2.589735946894897e+00  -1.042005000000010e-01 -5.76973320e-01   1.95295200e-01   5.04411910e-01
C     6.271479819200000e+00   1.936107399061035e+00  -1.841459999999984e-02 -7.07632530e-01  -2.21677378e+00  -6.26275810e-01
C     7.502233908999999e+00   2.645246602393595e+00  -2.550600000000003e-02 -7.91611860e-01  -2.80483567e+00   7.05886610e-01
C     8.720993308799999e+00   1.906977760269982e+00   1.672320000000000e-02 -8.12580560e-01  -1.28174717e+00   3.53137860e-01
C     9.921139000600000e+00   2.597741696170421e+00   7.923870000000001e-02  2.52807917e+00  -1.07723378e+00  -1.30640642e+00
C     2.569032514900000e+00   4.028662193241286e+00  -1.238370000000089e-02 -3.57342990e-01   3.55642550e-01  -7.07060290e-01
C     3.816956463600000e+00   4.781537098181043e+00  -8.717789999999681e-02 -2.51461895e+00  -1.46971156e+00   3.57743000e-03
C     4.990364596199999e+00   3.999815110307016e+00  -2.501700000000184e-02  7.31165960e-01   1.32399192e+00  -8.33764100e-01
C     6.214055277800000e+00   4.713894131202256e+00  -5.187689999999989e-02  1.78276553e+00   6.17706270e-01   5.51397500e-01
C     7.459662816700000e+00   4.006861757925426e+00   2.689530000000000e-02  6.87829170e-01   1.49117095e+00  -1.19849958e+00
C     8.739388174099998e+00   4.632142071817260e+00  -9.195419999999999e-02 -2.06721379e+00   5.17208713e+00   6.75183340e-01
C     9.951986651500000e+00   4.012345510455683e+00  -1.054986000000007e-01  2.10325260e-01  -1.99873588e+00   1.18943801e+00
C     1.114408466060000e+01   4.730495333817053e+00  -4.677810000000093e-02  2.88224281e+00  -1.28225637e+00  -3.97668000e-03
C     3.776125316200000e+00   6.224461992355007e+00  -1.834416000000019e-01  5.56340960e-01  -3.89627189e+00   7.54125690e-01
C     4.967126646800000e+00   6.870537187688575e+00  -7.129199999999969e-02  3.59519261e+00  -3.16531440e-01  -9.24643400e-02
C     6.303990112599999e+00   6.149430219607876e+00  -6.730560000000096e-02 -5.94595987e+00  -1.69630498e+00  -1.26948910e-01
C     7.450435237100001e+00   6.821080178279567e+00  -7.893089999999958e-02  4.77251637e+00   2.18305988e+00   9.58623240e-01
C     8.741891923899999e+00   6.127924977884310e+00  -4.333379999999920e-02  3.20233900e-02  -2.69914230e-01  -8.85311220e-01
C     9.999578554399999e+00   6.903072354639261e+00  -1.012190999999980e-01 -1.72335563e+00  -3.14377219e+00   3.52800070e-01
C     1.122424572110000e+01   6.102812431183468e+00  -3.062340000000319e-02 -1.44742529e+00   3.46805683e+00  -1.14637443e+00
C     1.243240793800000e+01   6.861881875885837e+00  -1.400775000000003e-01 -1.76135938e+00   1.28413065e+00   1.34539841e+00
