32
Lattice="9.86 0 0 4.93 8.53901048131456 0 0 0 30 " PBC="1 1 1" Properties=species:S:1:pos:R:3:force:R:3 Energy="-256.47154965"
C     1.254823533000000e+00   6.307683359273295e-01   3.370185300000000e+00  1.26813108e+00  -4.91593120e-01   3.41623640e-01
C     2.536026460700000e+00   1.292542928978902e+00   3.501973500000000e+00 -1.43588136e+00   2.28667774e+00   6.45566030e-01
C     3.763255896300000e+00   6.021758862855736e-01   3.490324500000000e+00 -9.46750400e-01   2.99028710e-01  -8.52665500e-02
C     4.951756287199999e+00   1.372550126962414e+00   3.498756300000000e+00  1.84237580e-01   4.14115000e-02   1.68234830e-01
C     6.150674261100001e+00   6.506651696368825e-01   3.411227400000000e+00  2.39221633e+00  -1.07036406e+00   3.10584840e-01
C     7.425825071499999e+00   1.298751643498910e+00   3.265797600000000e+00 -5.06433470e-01   1.07660935e+00   8.84000920e-01
C     8.665662686299999e+00   5.943317804784359e-01   3.300557700000000e+00 -4.14962040e-01   1.51878956e+00   5.92037770e-01
C     9.887508808400000e+00   1.344879463501974e+00   3.386974800000000e+00  3.12530910e-01  -7.66587710e-01  -1.70736700e-01
C     2.530580536200000e+00   2.766964731819288e+00   3.755090400000000e+00 -7.83856860e-01  -1.34959877e+00  -4.34362320e-01
C     3.738467757700000e+00   3.516197748789326e+00   3.750343500000000e+00  6.71566040e-01  -2.06090257e+00  -3.88216790e-01
C     4.981832097300000e+00   2.816783282932018e+00   3.572630100000000e+00 -1.25381979e+00  -1.87022619e+00  -2.87813940e-01
C     6.200919095600000e+00   3.449464271816763e+00   3.382882200000000e+00  1.02364054e+00   1.74455864e+00   3.66668500e-01
C     7.438203759199999e+00   2.731412903246227e+00   3.330263100000000e+00  2.43632140e-01  -6.52170800e-02  -9.09611510e-01
C     8.683590581999999e+00   3.450395707079922e+00   3.351044400000000e+00 -1.30774353e+00   1.64081766e+00   9.57412980e-01
C     9.893904941100001e+00   2.743406370415911e+00   3.523909800000000e+00  8.65037410e-01   1.12169179e+00   2.21361900e-01
C     1.113695563410000e+01   3.474890627152745e+00   3.822914400000000e+00 -4.62719310e-01  -2.18719609e+00  -8.96470710e-01
C     3.722920411100000e+00   4.892332552351244e+00   3.708889500000000e+00  1.37166211e+00   1.44441887e+00  -1.60835410e-01
C     4.978994586500000e+00   5.624854298861397e+00   3.507288600000000e+00 -9.15493970e-01  -1.21976985e+00   3.96668400e-02
C     6.206078587100000e+00   4.903090339314367e+00   3.362959500000000e+00 -1.09668921e+00  -3.70572530e-01  -2.03028170e-01
C     7.391295006399999e+00   5.644636709830518e+00   3.227467500000000e+00  2.13387134e+00  -1.45025318e+00   1.43901199e+00
C     8.631705339300000e+00   4.933068755747132e+00   3.427190400000000e+00  1.16160810e+00  -2.09195464e+00  -6.83155430e-01
C     9.908469442900000e+00   5.573104992089034e+00   3.606640800000000e+00 -1.29065988e+00   1.15727167e+00   5.05556020e-01
C     1.111443056270000e+01   4.869234016662215e+00   3.895031400000000e+00  1.06254180e-01   4.32104700e-01  -1.55668918e+00
C     1.235423174480000e+01   5.557653225674951e+00   3.746623500000000e+00 -2.65676470e-01   1.97130933e+00   5.09841710e-01
C     4.964715975400000e+00   7.030625531486357e+00   3.427974900000000e+00  5.48602660e-01   3.45190080e-01   4.18930300e-02
C     6.198677966899999e+00   7.733150502691213e+00   3.298258200000000e+00 -1.38814700e-02   9.27291660e-01   4.92543370e-01
C     7.449003121400001e+00   7.038914178179083e+00   3.322227600000000e+00 -1.69085028e+00   3.64407010e-01  -5.30342500e-01
C     8.662694086799998e+00   7.714766269298088e+00   3.427830000000000e+00  1.86316218e+00   4.60549570e-01   1.19951400e-01
C     9.910262631799998e+00   7.008433497149885e+00   3.556547100000000e+00  2.60039950e-01   2.97962910e-01   1.69111000e-02
C     1.115334216530000e+01   7.761503091528586e+00   3.596445300000000e+00 -1.34624862e+00  -1.24224993e+00  -8.43863760e-01
C     1.237262828630000e+01   6.989067277551559e+00   3.599742900000000e+00 -1.34608180e-01   1.76770705e+00   3.71954210e-01
C     1.360472264590000e+01   7.763638356489215e+00   3.510597900000000e+00 -5.39917730e-01  -2.66131208e+00  -8.74428120e-01
