32
Lattice="9.86 0 0 4.93 8.53901048131456 0 0 0 30 " PBC="1 1 1" Properties=species:S:1:pos:R:3:force:R:3 Energy="-253.18269992"
C     1.027831789500000e+00   1.278780435008076e+00   3.501439500000000e+00 -2.51403861e+00  -1.45455930e-01  -3.03084700e-01
C     2.185500946400000e+00   2.070045023263817e+00   3.716788200000000e+00  2.00421222e+00  -4.87070250e+00  -7.79021590e-01
C     3.489813643500000e+00   1.178248444484311e+00   3.550548300000000e+00 -2.05914777e+00   5.61719360e+00  -3.54179010e-01
C     4.705445402000000e+00   1.909496426801163e+00   3.332586300000000e+00 -1.89528480e+00  -8.52612000e-01   2.50027643e+00
C     5.867479580900000e+00   1.170821383949017e+00   3.441257400000000e+00  1.82740547e+00  -1.02711789e+00  -1.20649307e+00
C     7.120960872100000e+00   1.883038900559617e+00   3.390701100000000e+00 -2.01493890e+00   1.67843736e+00   1.17797424e+00
C     8.347652888399999e+00   1.277193630690578e+00   3.475407900000000e+00 -1.38780734e+00  -4.59666736e+00  -1.34261837e+00
C     9.519782376200000e+00   1.903228793108843e+00   3.580701300000000e+00  4.53154723e+00   2.34619846e+00   6.04422800e-02
C     2.158872438800000e+00   3.453646508369657e+00   3.923647799999999e+00  2.98649381e+00  -3.00986450e+00  -4.94713060e-01
C     3.507088412800000e+00   4.068316760179672e+00   3.833860500000000e+00 -2.82864608e+00   5.86891600e-02  -7.75118760e-01
C     4.688066659000000e+00   3.289018826600707e+00   3.575607900000000e+00 -4.16667840e-01   2.58054142e+00   4.10946370e-01
C     5.906657107700000e+00   4.039136826616892e+00   3.605973900000000e+00 -6.72315720e-01  -3.73135240e-01  -1.58135633e+00
C     7.102693200799999e+00   3.309495715292166e+00   3.464895000000000e+00  2.28711510e-01   5.33280610e-01   5.86750660e-01
C     8.316974237899998e+00   4.064630725525770e+00   3.559673100000000e+00 -6.29907330e-01  -1.84084400e+00  -1.29717536e+00
C     9.500144707199999e+00   3.335183620519151e+00   3.670778400000000e+00  1.91661667e+00  -1.39455780e+00   7.91608900e-01
C     1.074843746920000e+01   3.970918757282277e+00   3.889503600000000e+00 -1.71781940e-01   4.17736532e+00  -1.05500191e+00
C     3.411894599100000e+00   5.488972683532738e+00   3.684099600000000e+00  3.26560496e+00  -2.67804280e-01  -2.17096260e-01
C     4.685662248699999e+00   6.210039518264181e+00   3.454899600000000e+00 -1.29020052e+00   5.21958800e-01   3.11308370e-01
C     5.904814816000000e+00   5.462519085236013e+00   3.459552300000000e+00  2.59730200e-01   7.84608840e-01   2.70035420e-01
C     7.160094226099999e+00   6.151190195057907e+00   3.330872400000000e+00 -1.02423137e+00   2.42951716e+00  -7.90511820e-01
C     8.354352216100001e+00   5.426747889483721e+00   3.293047500000000e+00  1.23842790e+00   4.42292790e-01   2.23107415e+00
C     9.637042179700000e+00   6.061148549689033e+00   3.456478500000000e+00 -3.95216339e+00   4.66680399e+00  -1.23262657e+00
C     1.080072662680000e+01   5.420842907566486e+00   3.712437900000000e+00  1.39465228e+00  -9.40540430e-01   6.08321400e-02
C     1.205002989090000e+01   6.137471079260321e+00   3.629898000000000e+00 -9.42580810e-01   2.81089469e+00   1.57209187e+00
C     4.646193260300000e+00   7.649505259292696e+00   3.305658900000000e+00  1.02717953e+00   4.31749860e-01  -6.57709630e-01
C     5.964927834299999e+00   8.403755884210888e+00   3.153882900000000e+00 -1.06144835e+00  -1.24965641e+00   2.30097139e+00
C     7.192342884399999e+00   7.642446315499195e+00   3.258777300000000e+00 -2.35045056e+00  -8.57420870e-01   3.69416530e-01
C     8.395661277700000e+00   8.372611038946554e+00   3.463209900000000e+00 -1.83322116e+00  -2.93755207e+00  -1.47250346e+00
C     9.535076222200001e+00   7.595751419810154e+00   3.356147700000000e+00  2.85564734e+00  -3.45018471e+00   1.36007274e+00
C     1.075111722000000e+01   8.234596464190096e+00   3.490078800000000e+00  1.37661366e+00   3.69106126e+00   4.19587510e-01
C     1.202007447140000e+01   7.673801732761965e+00   3.697513500000000e+00  1.02066667e+00  -4.03247792e+00  -3.01340708e+00
C     1.323777480860000e+01   8.370997592916359e+00   3.346776300000000e+00  1.11132305e+00  -9.23999400e-01   2.14922799e+00
