26
Lattice="8.88768389401873 1.33226762955019e-15 0 4.44384194700937 7.69696003302603 0 0 0 30 " PBC="1 1 1" Properties=species:S:1:pos:R:3:force:R:3 Energy="-206.92043629"
C     3.074162317019528e-01   4.856542403473067e-01   4.040145600000000e+00  3.02519461e+00  -3.90911342e+00  -1.93212851e+00
C     7.230815201080658e+00   7.552452992099163e+00   3.847062300000000e+00 -2.64425392e+00   1.79008010e+00   3.40709360e-01
C     4.125344549543763e+00   3.144709244352953e-01   3.855414600000000e+00  1.14743315e+00   1.31362160e-01   7.56973690e-01
C     9.604535236676243e+00   7.064026383718650e+00   3.867295800000000e+00  8.86599760e-01  -1.57713996e+00  -2.63595450e-01
C     1.100721945993094e+01   7.433764636922958e+00   3.906933600000000e+00 -2.12319383e+00  -3.38399692e+00   4.39494230e-01
C     1.198390112888932e+01   6.367453887061260e+00   4.014796800000000e+00 -7.39346350e-01   2.97476930e-01  -1.24896748e+00
C     4.432548769424685e+00   6.770141286761992e+00   3.992595000000000e+00  2.30903260e-01   6.76663910e-01   8.33734700e-01
C     5.453582247422482e+00   5.809929667281829e+00   4.030944600000000e+00  8.49762650e-01  -1.39736989e+00  -7.12016310e-01
C     6.856342193770542e+00   6.220651153861875e+00   4.013635200000000e+00  5.93241090e-01  -1.79508715e+00  -8.71168020e-01
C     7.946126394932677e+00   5.252472026206659e+00   3.971712900000000e+00 -2.97016415e+00  -6.70085350e-01   2.95155320e-01
C     9.264207955373553e+00   5.663221529721214e+00   3.842675100000000e+00  8.99001460e-01  -8.14601790e-01   1.04004505e+00
C     1.024711678005063e+01   4.598714023655344e+00   3.957132600000000e+00  1.60570794e+00   1.01443398e+00  -1.68340320e+00
C     1.162419683030108e+01   4.979375340716626e+00   3.909112800000000e+00 -1.23360603e+00   1.14512922e+00   8.17497430e-01
C     3.692055564228396e+00   3.962884627071508e+00   3.891994800000000e+00  3.03333197e+00   1.43543296e+00   6.07044190e-01
C     5.100123990858547e+00   4.388774281873874e+00   3.922379400000001e+00  1.08687867e+00   1.26592802e+00   4.19697020e-01
C     6.226182785030177e+00   3.474584017926687e+00   3.947019000000000e+00 -2.68861901e+00  -4.71840420e-01   1.04804064e+00
C     7.568481906453916e+00   3.844720896690948e+00   4.055340000000000e+00  1.70884167e+00   1.03256476e+00  -1.44751855e+00
C     8.591559773922404e+00   2.859713751382942e+00   3.930386700000000e+00  4.52459310e-01  -1.48031470e+00  -4.85859990e-01
C     1.000341137646112e+01   3.201744795749657e+00   3.821599500000000e+00 -3.48122498e+00   5.15975290e-01   3.02047770e+00
C     2.030539677076315e+00   2.155318988186263e+00   4.153092600000000e+00  1.63113380e+00   1.60925104e+00  -4.03759266e+00
C     3.406312882338939e+00   2.615052253210139e+00   4.013285100000000e+00  1.60796570e-01  -1.71964132e+00   7.29290120e-01
C     4.517880352358628e+00   1.688985041149460e+00   4.032669600000000e+00 -2.53265090e+00  -4.80345600e-02  -8.47468850e-01
C     5.848657169348522e+00   2.105438607803047e+00   4.028993400000000e+00  1.74182803e+00  -1.71189103e+00  -1.19119986e+00
C     6.877682097129774e+00   1.048123526037211e+00   3.910955700000000e+00  6.33711570e-01   3.61442753e+00   6.92075950e-01
C     8.268945335520760e+00   1.423833773559195e+00   3.905871900000000e+00 -3.75446318e+00   4.31272084e+00   7.25815000e-01
C     1.663728075468079e+00   8.182872965173915e-01   3.824954400000000e+00  2.48069687e+00   1.37669770e-01   2.95486847e+00
