26
Lattice="8.88768389401873 1.33226762955019e-15 0 4.44384194700937 7.69696003302603 0 0 0 30 " PBC="1 1 1" Properties=species:S:1:pos:R:3:force:R:3 Energy="-208.96563121"
C     7.213885052556316e-01   8.349426713567081e-01   3.459331200000000e+00  1.38485667e+00   1.60603620e-01   7.32991420e-01
C     3.149328789578121e+00   2.682372867446931e-01   3.450533400000000e+00 -1.74420610e-01  -7.47516130e-01   5.45868740e-01
C     4.517026067508882e+00   6.510659907808225e-01   3.430623000000000e+00  4.90899240e-01   1.00872820e-01  -2.16005800e-01
C     1.001386716156883e+01   7.374396521789162e+00   3.397982700000000e+00 -7.27263710e-01   1.10522403e+00  -2.72816600e-01
C     6.917475234668655e+00   1.079371644367005e-01   3.352433400000000e+00  5.26572000e-03  -6.52447400e-02   2.63998490e-01
C     1.235220283899375e+01   6.804238665755690e+00   3.358709100000000e+00  4.20164230e-01  -1.16680435e+00   6.80340100e-01
C     4.838121159643627e+00   7.157855020420361e+00   3.454377000000000e+00 -1.32820710e-01   4.93350020e-01  -3.06848830e-01
C     5.888915136035768e+00   6.215869956230440e+00   3.485394000000000e+00  7.96770000e-03  -1.77165562e+00   5.54311300e-02
C     7.267436724155560e+00   6.566989340091777e+00   3.461562600000000e+00 -5.39081000e-01   1.70603637e+00  -2.05648440e-01
C     8.300474707918626e+00   5.625071085514917e+00   3.388329300000000e+00 -3.66367770e-01   7.87786300e-02   2.35288340e-01
C     9.660914792016268e+00   6.021510708820097e+00   3.377877300000000e+00 -3.35165890e-01  -1.16353327e+00  -3.05906570e-01
C     1.063360611312574e+01   4.994616937937631e+00   3.338328900000000e+00  1.38101099e+00   4.84364000e-01   1.11658370e+00
C     1.199744466980077e+01   5.408796206841555e+00   3.433256100000000e+00  8.80956260e-01  -4.68870100e-02  -6.27937140e-01
C     4.173842510165678e+00   4.437453782553209e+00   3.503077200000000e+00 -2.52835460e-01  -1.10417490e+00  -3.62299410e-01
C     5.561571116670642e+00   4.808592189756574e+00   3.511224900000000e+00 -6.22392420e-01   8.63645150e-01  -9.77280800e-02
C     6.612271861244897e+00   3.845239748766570e+00   3.482489400000000e+00 -2.10450258e+00  -2.07419960e-01  -4.31796130e-01
C     7.935098822754033e+00   4.269648123611162e+00   3.396469800000000e+00  1.31841047e+00  -1.53080935e+00   5.25474660e-01
C     8.943919067708318e+00   3.257140509811970e+00   3.451747500000000e+00  6.44329110e-01  -9.38759630e-01   1.46979140e-01
C     1.031399851153667e+01   3.616197768552247e+00   3.468992700000000e+00 -2.36229980e-01   2.38568990e-01  -1.18376835e+00
C     2.441495381917518e+00   2.622569181345038e+00   3.395516400000000e+00  6.57667280e-01  -6.23206100e-01   1.58316763e+00
C     3.832239312952369e+00   3.019148658413962e+00   3.452931300000000e+00 -8.60814900e-02   3.03839650e-01  -2.91912820e-01
C     4.875251499921879e+00   2.017027245509651e+00   3.415129200000000e+00 -3.91935500e-02   1.68665535e+00   3.10060130e-01
C     6.259786717211131e+00   2.456491643868927e+00   3.423105000000000e+00 -7.75130170e-01   1.40659520e-01   2.78086500e-01
C     7.279745496472068e+00   1.494922588517874e+00   3.414687000000000e+00 -5.01416460e-01  -1.25780028e+00  -6.56586400e-02
C     8.641957606952396e+00   1.843175855372841e+00   3.489571500000000e+00 -1.04544516e+00   1.53804211e+00  -6.15574980e-01
C     2.092676896294293e+00   1.208116539640007e+00   3.538072800000000e+00  7.46819260e-01   1.72317110e+00  -1.49036817e+00
