26
Lattice="8.88768389401873 1.33226762955019e-15 0 4.44384194700937 7.69696003302603 0 0 0 30 " PBC="1 1 1" Properties=species:S:1:pos:R:3:force:R:3 Energy="-208.20267606"
C     1.273979566671620e+01   6.916229972979393e+00  -1.081445999999993e-01 -2.32972301e+00   2.35881509e+00  -5.96670900e-01
C     8.928355846756920e+00   6.810646077102265e+00  -3.428196000000021e-01 -1.01430530e-01  -2.66557890e-01   2.78014340e-01
C     1.033188808788060e+01   6.427030897690270e+00  -4.128852000000016e-01 -2.02163334e+00  -2.62011482e+00   9.63639770e-01
C     1.064641339892916e+01   4.998717955211216e+00  -3.604565999999991e-01  3.99508000e-02   7.09974240e-01   5.25766820e-01
C     6.544630678037249e+00   6.162083753480001e+00  -2.741349000000000e-01 -1.51072073e+00   1.77289080e+00   1.01827432e+00
C     7.863359128041603e+00   5.790123618823833e+00  -3.024447000000023e-01  3.64649370e+00   9.19193320e-01  -9.70738030e-01
C     8.282609040510751e+00   4.455823116452006e+00  -4.037885999999986e-01 -2.42009013e+00  -2.88882771e+00   1.09647616e+00
C     9.605244427431408e+00   4.014740432246424e+00  -3.854922000000016e-01  1.73288052e+00   6.90561930e-01  -1.41385440e-01
C     1.001159853274473e+01   2.644220575970227e+00  -2.952456000000012e-01 -1.65740599e+00  -6.23910570e-01   4.12250860e-01
C     4.171898374500385e+00   5.587726820902162e+00  -9.110130000000183e-02 -1.19160700e-01  -1.78350300e+00  -1.82457970e-01
C     5.538984312588196e+00   5.190738250407643e+00  -1.782740999999994e-01 -5.67697350e-01  -1.63136174e+00   5.46798240e-01
C     5.869702628182847e+00   3.771457536584593e+00  -1.074452999999984e-01  1.19514368e+00   1.87486471e+00  -7.15092650e-01
C     7.247837201619009e+00   3.370366640333285e+00  -2.292461999999986e-01 -4.40708100e-01   4.46587998e+00  -5.57915210e-01
C     7.565596118778947e+00   2.067793545992320e+00  -2.483258999999975e-01  2.21730122e+00  -4.32887786e+00   6.22613080e-01
C     8.975313521277133e+00   1.627778968930101e+00  -2.272967999999977e-01 -1.21923010e+00   1.34995109e+00  -3.32951970e-01
C     3.106047104996393e+00   4.593910196961421e+00  -1.083432000000002e-01  1.01582264e+00   1.55570885e+00  -1.08836676e+00
C     3.509000027026627e+00   3.263956937614538e+00  -1.496978999999996e-01 -7.29504040e-01  -2.25889707e+00   5.84523680e-01
C     4.864247125752150e+00   2.810604760333933e+00  -9.947850000000003e-02 -2.18705760e-01   7.67544670e-01  -4.60155790e-01
C     5.225723360095724e+00   1.455770000115671e+00  -2.342675999999990e-01 -1.85543708e+00  -1.30616582e+00   1.13282726e+00
C     6.564514556593457e+00   1.005344053099272e+00  -1.853642999999998e-01  4.80774410e-01   2.23667708e+00  -6.32775160e-01
C     1.134252075502396e+01   7.341549360013136e+00  -2.196864000000005e-01  1.67951253e+00   3.91014000e-01   2.59697900e-02
C     2.479700512918916e+00   2.269757620821104e+00  -1.710828000000006e-01 -5.91057620e-01  -6.09555060e-01  -2.74944070e-01
C     2.739501732399849e+00   8.566096138411582e-01  -1.344923999999992e-01  2.27086487e+00   1.09241864e+00  -2.00584160e-01
C     4.147103510673440e+00   4.913800858832240e-01  -1.826355000000000e-01 -4.79875600e-02  -8.84384940e-01  -8.06294230e-01
C     3.698359908504410e-01   2.460285552437314e-01  -1.587857999999969e-01  1.28477083e+00   3.14451380e-01   2.11666510e-01
C     6.183154399293252e+00   7.575410714780644e+00  -1.570380000000000e-01  2.66976840e-01  -1.29778928e+00  -4.58488500e-01
