26
Lattice="8.88768389401873 1.33226762955019e-15 0 4.44384194700937 7.69696003302603 0 0 0 30 " PBC="1 1 1" Properties=species:S:1:pos:R:3:force:R:3 Energy="-208.37145018"
C     1.238804464607257e+01   6.606305950712220e+00  -2.189319000000012e-01 -1.59865636e+00  -1.79249015e+00   3.75683940e-01
C     8.528779887974206e+00   6.411363350701203e+00  -1.905660000000005e-01  2.66199358e+00   1.25531553e+00  -6.09378210e-01
C     9.970480598650415e+00   6.055444219534757e+00  -3.224412000000001e-01 -1.30244413e+00  -2.30446382e+00   1.72534607e+00
C     1.034116029624499e+01   4.627318390154033e+00  -2.122557000000000e-01 -9.37570360e-01   1.13153534e+00   1.63404570e-01
C     6.202921007059609e+00   5.803912183930376e+00  -3.088382999999979e-01 -1.21636177e+00   3.42337030e-01   4.68304380e-01
C     7.528106759351251e+00   5.424913410235574e+00  -2.356539000000026e-01  1.42311919e+00  -1.58013430e-01  -9.18770700e-02
C     7.881039085412541e+00   4.062149087855206e+00  -2.095647000000014e-01  2.25986277e+00  -6.95121500e-02  -6.05282800e-02
C     9.283240440296181e+00   3.654018551960458e+00  -2.029776000000005e-01 -7.18310530e-01   2.15442613e+00  -8.46388500e-02
C     9.593315332574626e+00   2.319557721911207e+00  -1.837589999999985e-01  1.22607207e+00  -3.71887214e+00  -3.65905000e-03
C     3.853038672141189e+00   5.179941878512762e+00  -1.102361999999992e-01 -1.14103871e+00   2.15339110e+00  -6.94700140e-01
C     5.199453501742488e+00   4.813906555809288e+00  -2.277930000000019e-01 -2.63924080e-01  -6.28242770e-01   7.91236370e-01
C     5.537672355999809e+00   3.449739385493851e+00  -8.335139999999797e-02  2.87979700e-01  -5.06175110e-01  -1.06695800e-02
C     6.923116560624536e+00   3.066590026102872e+00  -1.340108999999998e-01 -1.76552102e+00  -3.48501870e-01  -4.11773020e-01
C     7.247515866319509e+00   1.694804712628143e+00  -2.084246999999984e-01 -2.02043040e-01  -1.39932503e+00   5.71696880e-01
C     8.600259837766725e+00   1.260653371838376e+00  -2.568209999999986e-01  1.95369800e-02   1.60726403e+00   3.52599670e-01
C     2.815825342119211e+00   4.206502417464243e+00  -3.308129999999920e-02 -6.95477390e-01   1.44523269e+00  -1.05905363e+00
C     3.141724444486403e+00   2.859011788628206e+00  -5.033369999999948e-02 -3.61835420e-01  -2.16203314e+00   9.10281050e-01
C     4.514237602292395e+00   2.445353526948714e+00   3.486660000000000e-02 -2.15123320e-01   2.54374135e+00  -1.24715720e+00
C     4.873253370255054e+00   1.132378991732009e+00  -1.189511999999979e-01 -2.27049435e+00  -3.26291550e+00   1.04937077e+00
C     6.194802859968051e+00   7.067190142169382e-01  -1.417521000000015e-01  1.83466141e+00  -2.13697880e-01  -6.31901480e-01
C     1.099055109733839e+01   7.003549444522933e+00  -1.990811999999984e-01  6.44814980e-01   9.60185650e-01  -4.61850420e-01
C     2.082408377814052e+00   1.850548619446377e+00  -8.940929999999980e-02 -1.07086450e-01   2.93714004e+00  -3.50873010e-01
C     2.424000774703321e+00   5.162480401049503e-01  -1.314944999999987e-01 -7.46963480e-01  -2.44807782e+00  -2.34585600e-01
C     3.775630541682630e+00   1.174455270401607e-01  -8.785139999999814e-02  1.50645053e+00  -1.82021220e-01  -7.66637490e-01
C     4.501149824520900e+00   7.575872686321644e+00  -2.628354000000002e-01 -1.95706370e-01   5.12487510e-01  -7.68303800e-02
C     5.832806921616873e+00   7.153653711757586e+00  -2.737407000000012e-01  1.87406557e+00   2.15128562e+00   3.88189690e-01
