32
Lattice="9.86 0 0 4.93 8.53901048131456 0 0 0 30 " PBC="1 1 1" Properties=species:S:1:pos:R:3:force:R:3 Energy="-255.53670648"
C     5.060005529700000e+00   8.288472753082923e+00   1.784862000000000e-01 -4.02859509e+00  -2.91959405e+00  -3.82805960e-01
C     1.309111904200000e+00   4.139734482131248e-01   1.041318000000000e-01  1.56349846e+00   6.05715890e-01   3.64512850e-01
C     7.469173427599999e+00   8.207925889637075e+00   1.679004000000000e-01  9.58391520e-01   2.43603321e+00  -3.63810700e-01
C     3.793171234900000e+00   3.951769513940248e-01   9.729330000000000e-02 -1.70289214e+00   1.54141837e+00  -5.01973660e-01
C     9.927098828300000e+00   8.213641476301863e+00   3.689940000000001e-02 -1.06270257e+00   6.67992530e-01   3.73156980e-01
C     6.191837197499999e+00   4.125145582726168e-01   1.112250000000000e-01  4.16647850e-01   1.52466626e+00  -7.95922090e-01
C     1.234388791460000e+01   8.282443613953308e+00  -1.630169999999964e-02  2.21008672e+00  -1.59997945e+00   1.18513559e+00
C     8.703504676100000e+00   4.349793286038200e-01   2.273319000000000e-01 -1.34159612e+00  -1.55726405e+00  -1.40601718e+00
C     1.282042161600000e+00   1.842161376540285e+00  -6.519540000000035e-02  4.87637340e-01  -1.46678840e+00  -4.44906780e-01
C     2.479545619900000e+00   2.522117401486082e+00  -3.112746000000008e-01  1.68417115e+00   6.33052290e-01   1.09501064e+00
C     3.741484967000000e+00   1.877829164875664e+00  -7.690050000000070e-02 -1.12548878e+00  -2.48608149e+00  -2.36172810e-01
C     4.914554704400000e+00   2.610316584563688e+00  -3.858119999999943e-02  2.33502864e+00  -4.37984020e-01  -5.56835000e-03
C     6.163240387399999e+00   1.872327821983819e+00   1.242261000000000e-01 -3.78815430e-01  -4.28623430e-01   1.06596670e-01
C     7.408405261599999e+00   2.549300060497590e+00   1.757790000000000e-01 -1.28392210e-01   5.40490010e-01  -5.45963830e-01
C     8.600969698000000e+00   1.811839521106014e+00   1.933824000000000e-01  4.08613785e+00   1.99684031e+00  -5.66914030e-01
C     9.961328064800000e+00   2.537729018176352e+00  -4.662689999999969e-02 -3.84666626e+00   8.97587740e-01   9.66398810e-01
C     2.496606131400000e+00   3.931455720348957e+00  -4.103427000000011e-01  6.23681340e-01   1.69021267e+00   7.93958950e-01
C     3.730643601200000e+00   4.712949887423378e+00  -2.763074999999979e-01 -1.16871670e-01  -3.38002630e+00  -9.00604220e-01
C     4.956816389900000e+00   4.026265976120389e+00  -1.618104000000002e-01  2.25721132e+00  -1.15070350e-01   1.32597181e+00
C     6.266958171099999e+00   4.727968555225916e+00   8.418300000000001e-02 -2.17148578e+00  -1.13301392e+00  -1.65506973e+00
C     7.494234540300001e+00   3.983063877278086e+00   7.370639999999999e-02 -1.16988870e+00   1.62854840e-01   8.91287170e-01
C     8.721699876399999e+00   4.691762040719354e+00   6.695880000000000e-02  3.05625540e-01  -6.92375090e-01  -1.02876404e+00
C     9.968637479999998e+00   3.985363518190454e+00  -1.218369000000017e-01 -1.64640941e+00  -9.54380460e-01   4.96299560e-01
C     1.116561022380000e+01   4.693069021663423e+00  -2.703047999999981e-01  6.32472000e-02   3.30047200e-02  -5.04086820e-01
C     3.745480189699999e+00   6.053258674785722e+00  -2.413077000000001e-01 -4.74987940e-01   5.54944990e+00   1.45463524e+00
C     4.995475280699999e+00   6.789970342958203e+00   5.159280000000000e-02 -1.59087525e+00   2.19161771e+00  -5.88009640e-01
C     6.213906046700000e+00   6.155103623560892e+00   7.489920000000000e-02  1.74692901e+00  -1.96077258e+00   8.97004960e-01
C     7.475347365199999e+00   6.829105567279195e+00   2.099967000000000e-01 -6.75161930e-01  -7.89967510e-01  -1.05651180e+00
C     8.699874470599999e+00   6.111850546826024e+00   2.479260000000000e-02 -2.00893196e+00  -9.99882090e-01   1.05086119e+00
C     9.863705585200000e+00   6.805276433853498e+00  -5.000820000000061e-02  3.63755331e+00   7.35581000e-01  -3.20477330e-01
C     1.114118286260000e+01   6.133535876280613e+00  -2.223027000000002e-01 -1.38339760e+00  -1.04582070e+00   2.36505360e-01
C     1.232895839560000e+01   6.833403422033989e+00  -2.002338000000030e-01  2.47731158e+00   7.61106420e-01   6.62431800e-02
