32
Lattice="9.86 0 0 4.93 8.53901048131456 0 0 0 30 " PBC="1 1 1" Properties=species:S:1:pos:R:3:force:R:3 Energy="-254.94412855"
C     9.678849910800000e+00   5.882295474191136e-01   4.742949000000000e+00  2.16398689e+00  -1.47085721e+00  -1.67648620e-01
C     1.052930123700000e+00   1.270882874995334e+00   4.681157400000000e+00  5.72043790e-01   6.80221050e-01  -5.30322360e-01
C     2.282399702000000e+00   5.442560343700480e-01   4.442346900000000e+00 -7.40099100e-02   3.53665147e+00   1.73056709e+00
C     3.501333623799999e+00   1.312854587817573e+00   4.548233700000000e+00  1.22970580e-01  -1.10796272e+00  -2.05187651e+00
C     4.704429723400000e+00   6.119398178189296e-01   4.403081100000001e+00  3.33810346e+00  -2.61076330e+00   9.45480970e-01
C     6.026260978300000e+00   1.212319267079721e+00   4.433882400000000e+00 -1.52475140e-01   2.78884930e+00  -5.82674370e-01
C     7.329371889300000e+00   5.876923582698168e-01   4.485130500000000e+00 -4.34742111e+00  -7.79169670e-01   4.12814100e-01
C     8.505437291900000e+00   1.320449098348380e+00   4.702808999999999e+00 -1.28194888e+00   5.61164630e-01  -7.77554670e-01
C     1.095695186850000e+01   2.714113124184061e+00   4.709832899999999e+00 -6.56388340e-01  -6.62555800e-01  -6.46797670e-01
C     2.319882837100000e+00   3.428572984946710e+00   4.498767600000000e+00 -1.16564917e+00  -1.41090351e+00   7.55536840e-01
C     3.525382804700000e+00   2.694681410375354e+00   4.411651200000000e+00  1.55281482e+00   2.19700873e+00   6.26362820e-01
C     4.801255120600000e+00   3.422517716445027e+00   4.369959300000000e+00 -6.30126160e-01  -9.64382550e-01   5.04441770e-01
C     6.026354451100000e+00   2.643411312871129e+00   4.376850000000000e+00 -3.23549300e-01   3.18196951e+00   2.49818070e-01
C     7.229047424600000e+00   3.514672083786864e+00   4.433309400000000e+00  8.73568680e-01  -3.50334308e+00   6.93049820e-01
C     8.477448843800000e+00   2.761005527185506e+00   4.640683500000000e+00 -7.28126030e-01  -5.29412800e-02  -1.42171810e-01
C     9.712692438099999e+00   3.435549698069289e+00   4.724421900000000e+00  9.45033000e-02   2.73572570e-01   2.39638900e-02
C     1.211059686360000e+01   4.801226006985408e+00   4.541597700000000e+00  3.76119355e+00   2.14752290e+00   1.70164740e-01
C     3.582160973799999e+00   5.584604050551926e+00   4.562806200000000e+00 -3.92085681e+00  -1.48400849e+00  -6.19553300e-02
C     4.799192014199999e+00   4.890751725341082e+00   4.501777500000000e+00 -2.46311134e+00  -2.78257458e+00  -4.58040960e-01
C     5.914175505599999e+00   5.632119886708515e+00   4.493136600000001e+00  5.78948850e+00  -1.60680438e+00  -5.26518710e-01
C     7.238847623699999e+00   4.915419987326648e+00   4.440220200000000e+00 -2.61127200e+00   3.42390400e-01   1.94062090e-01
C     8.431771900799999e+00   5.633132271791024e+00   4.516496699999999e+00  2.41327187e+00  -3.24572595e+00   4.03574950e-01
C     9.700339435700000e+00   4.857334051657287e+00   4.672571700000000e+00 -2.22901626e+00   1.86236810e-01  -5.28765220e-01
C     1.091438856560000e+01   5.508168635262092e+00   4.629654000000000e+00  9.73034670e-01   1.79402226e+00  -8.55376260e-01
C     1.337586494670000e+01   6.977768458884424e+00   4.646391899999999e+00  6.20551720e-01   3.87538090e-01  -5.63301190e-01
C     4.807706074900000e+00   7.643125423002670e+00   4.677323700000000e+00 -4.60066796e+00   4.14799050e+00   1.17227900e-01
C     5.972993462200000e+00   7.005003205859859e+00   4.528713300000000e+00  3.14067707e+00   5.00139720e-01  -6.01923000e-02
C     7.262422686500000e+00   7.744384254098493e+00   4.432629300000000e+00 -1.12936919e+00  -3.77550005e+00   1.65000020e-01
C     8.504189410300000e+00   6.996414925289389e+00   4.446531000000000e+00 -1.80159638e+00   1.83122207e+00   1.50333900e-02
C     9.708885837199999e+00   7.686231287196863e+00   4.450480800000000e+00  6.26575890e-01   6.13604700e-01  -5.01839720e-01
C     1.097297688280000e+01   6.933225308446237e+00   4.447646700000000e+00 -3.46838817e+00   1.59825002e+00   7.87893960e-01
C     1.209303945740000e+01   7.718470321264102e+00   4.495904100000000e+00  5.54118735e+00  -1.31086215e+00   6.60043280e-01
