32
Lattice="9.788 0 0 4.894 8.47665665224208 0 0 0 30 " PBC="1 1 1" Properties=species:S:1:pos:R:3:force:R:3 Energy="-257.83702145"
C     9.658111230099410e-03   3.827969183032044e-03   2.993144849972003e+00 -9.91748020e-01  -9.68201600e-02   3.87661100e-02
C     1.217173106567160e+00   7.076356890807508e-01   3.009876895481390e+00  6.33638940e-01   4.63397030e-01  -1.29977140e-01
C     2.454027822657824e+00   7.807505079687406e-03   3.006714888300222e+00 -8.15799120e-01  -5.40562900e-01   3.31452400e-02
C     3.658992612795478e+00   6.962771002829486e-01   3.012778491309542e+00  1.05276962e+00   6.06547190e-01  -2.84135850e-01
C     4.895426913564783e+00  -1.581924482505816e-02   2.987925999764527e+00 -1.49136960e-01   1.09724347e+00   1.75701110e-01
C     6.118239204595418e+00   6.969523025445929e-01   2.994022463712772e+00 -1.62921140e-01   6.67838770e-01   1.04490200e-01
C     7.343005302262961e+00   6.911705386172849e-03   3.006221452769931e+00 -3.38403270e-01  -6.23278010e-01  -1.47257160e-01
C     8.554569822281799e+00   7.139532334627618e-01   2.993532283999489e+00  8.46733310e-01  -1.26220920e-01   8.31161700e-02
C     1.221376952044396e+00   2.128801339554026e+00   3.001590582294396e+00 -1.28206850e-01  -3.42335720e-01  -1.74121200e-02
C     2.452717719703549e+00   2.827637915366843e+00   3.000026573959850e+00 -5.09238860e-01   2.31902100e-02   1.92940400e-02
C     3.663154930217993e+00   2.117769064503733e+00   2.989570718775436e+00  5.30105660e-01  -7.07856900e-02   2.06100070e-01
C     4.888912745431367e+00   2.837659901447870e+00   2.996098743070102e+00  3.63472510e-01  -6.92814970e-01   8.24114800e-02
C     6.123824700759948e+00   2.120196561874922e+00   3.010916250949961e+00 -8.04008120e-01  -1.06381930e-01  -2.04207930e-01
C     7.339620215544429e+00   2.826647124985719e+00   3.001295468044039e+00 -3.97298200e-02   1.04156080e-01   1.38737000e-03
C     8.554902149533655e+00   2.129072525614112e+00   2.997440059916073e+00  2.12317150e-01  -5.98070910e-01  -3.94814500e-02
C     9.774935537562049e+00   2.828630982779823e+00   2.990686252445278e+00  5.81327050e-01  -1.73092120e-01   9.58389700e-02
C     2.456312835681894e+00   4.245265084333496e+00   3.012105116988581e+00 -2.09046690e-01  -7.93603540e-01  -1.33657590e-01
C     3.668015700123539e+00   4.930642463303944e+00   3.009822141446979e+00  5.33570930e-01   1.54241387e+00   3.16069700e-02
C     4.895479307226356e+00   4.248867819635528e+00   3.007730995247917e+00  1.07433320e-01  -5.35387860e-01  -1.23362700e-01
C     6.125316784152824e+00   4.942138876023082e+00   2.994867352486433e+00  3.21077700e-02   3.98465130e-01   1.43672430e-01
C     7.350583554733395e+00   4.235209448264095e+00   2.990790905406752e+00 -3.60529140e-01   3.95591770e-01   1.26900930e-01
C     8.567214738497935e+00   4.953882430520761e+00   3.005872583542513e+00  2.82112190e-01  -5.89835200e-01  -9.47082800e-02
C     9.789815980017297e+00   4.229473332891311e+00   2.998765469464383e+00  1.26224020e-01   7.48213500e-01  -3.05677200e-02
C     1.102714448566604e+01   4.935259765734813e+00   2.997410016250900e+00 -9.22457870e-01   2.17852250e-01   1.29701490e-01
C     3.675153162004833e+00   6.364823276469383e+00   3.006630655082834e+00 -5.93721360e-01  -6.90846890e-01  -7.33652300e-02
C     4.895966437327520e+00   7.061194865684734e+00   2.991899085177673e+00  2.15678540e-01   3.79559420e-01   1.76397130e-01
C     6.125789446566703e+00   6.361750519493347e+00   3.011272447654183e+00 -3.49148900e-02  -3.04136980e-01  -2.63647560e-01
C     7.350582231014597e+00   7.066950334349328e+00   2.996308172265121e+00 -2.02052170e-01   4.06563000e-02   1.97522300e-01
C     8.570170024853615e+00   6.357896839276122e+00   3.008621651656672e+00  8.55516600e-02   3.81092660e-01  -1.20306700e-01
C     9.798344697946678e+00   7.072594533319487e+00   2.997142194291965e+00 -4.65723260e-01  -1.14422635e+00   3.14090600e-02
C     1.100985339014259e+01   6.348484266401756e+00   3.002771320959853e+00  1.85815660e-01   1.50709550e-01  -4.55164700e-02
C     1.222189939040976e+01   7.060714751146584e+00   3.003944292914734e+00  9.38779230e-01   2.11472940e-01   3.01428100e-02
