32
Lattice="9.86 0 0 4.93 8.53901048131456 0 0 0 30 " PBC="1 1 1" Properties=species:S:1:pos:R:3:force:R:3 Energy="-255.67379296"
C     1.217492981400000e+00   3.020044778326576e-01   3.563469600000000e+00 -5.37938120e-01  -1.72299864e+00   3.02107750e-01
C     2.442938743000000e+00   9.537755347168049e-01   3.521060400000000e+00 -1.96538060e-01   3.17571485e+00  -5.24387760e-01
C     3.642219269099999e+00   2.779503414808120e-01   3.519972300000000e+00  1.19173363e+00  -7.63019310e-01  -8.10885670e-01
C     4.872176128600000e+00   1.001202735944611e+00   3.488991900000000e+00  1.16990801e+00  -1.49413663e+00  -2.12928990e-01
C     6.094534921399999e+00   2.792078815542016e-01   3.427550100000000e+00  2.56725619e+00  -1.47825292e+00  -2.24049000e-03
C     7.400270761600000e+00   9.337607772725233e-01   3.448004100000000e+00 -1.46948175e+00   2.48866983e+00   9.97542720e-01
C     8.645754606799999e+00   2.605289669094112e-01   3.598477500000000e+00 -5.59865820e-01   6.91902590e-01  -1.49232583e+00
C     9.877527234599999e+00   1.025538745032402e+00   3.536423400000000e+00 -1.56551225e+00  -1.94541460e-01   6.15298810e-01
C     2.452649413300000e+00   2.431351989588922e+00   3.339323100000000e+00  3.91580610e-01  -1.82150042e+00   1.89263320e-01
C     3.689973911300000e+00   3.127297738609044e+00   3.174431700000000e+00  2.30748750e-01   4.01906850e-01   2.06306844e+00
C     4.977728020200000e+00   2.385247737254783e+00   3.434826600000000e+00 -4.81867229e+00   1.07025052e+00  -7.80569340e-01
C     6.138559722800000e+00   3.080538373390878e+00   3.526435200000000e+00  2.06278275e+00   1.24646531e+00  -1.22650466e+00
C     7.376421640100000e+00   2.404786103304385e+00   3.503458200000000e+00  1.45304139e+00  -9.73212010e-01   2.78143700e-02
C     8.625766168300000e+00   3.164890049126406e+00   3.459191700000000e+00 -1.37931354e+00  -6.00008830e-01  -4.91714650e-01
C     9.848312350399999e+00   2.466285508413126e+00   3.474971700000000e+00 -5.87249750e-01  -1.79029368e+00   1.02870350e-01
C     1.106730548150000e+01   3.121697513975841e+00   3.380777100000000e+00  2.05233357e+00   1.67641653e+00  -1.35433112e+00
C     3.658191483100000e+00   4.590585611074663e+00   3.241817100000000e+00  2.94756523e+00  -2.01990707e+00  -5.40729710e-01
C     4.972419741300000e+00   5.218130128985374e+00   3.430303500000000e+00 -4.26635910e+00   1.12643112e+00  -4.30607000e-01
C     6.128292258299999e+00   4.512010148978332e+00   3.410266500000000e+00  1.70840647e+00  -9.14248340e-01   1.61812179e+00
C     7.334733067100000e+00   5.240506093607585e+00   3.542811300000000e+00  1.81761817e+00  -6.53961160e-01  -1.53607913e+00
C     8.596175864599999e+00   4.585789675838571e+00   3.321900900000000e+00  3.85577990e-01  -1.08233727e+00   1.62236735e+00
C     9.855479535099999e+00   5.269250793806199e+00   3.287655300000000e+00  1.83988200e-01  -5.74953330e-01  -5.74213660e-01
C     1.111746951330000e+01   4.533732537738405e+00   3.147408000000000e+00 -1.16960835e+00   1.68065649e+00   1.00305961e+00
C     1.235384681040000e+01   5.337324895424121e+00   3.104440500000000e+00 -1.83840344e+00  -4.16366166e+00   6.46754880e-01
C     4.906292714600000e+00   6.623712649478725e+00   3.571393500000000e+00  1.79442600e-02   2.31546128e+00  -5.72666980e-01
C     6.112040759799999e+00   7.390793479203534e+00   3.625087200000000e+00  1.30453606e+00  -8.48084520e-01  -1.66838560e-01
C     7.388379749499999e+00   6.624022017828415e+00   3.568162200000000e+00 -1.73519546e+00   3.33996418e+00  -4.63348210e-01
C     8.593532793000000e+00   7.399953275745431e+00   3.387284400000000e+00  7.72932000e-01  -1.34727427e+00   1.62833564e+00
C     9.859798362999999e+00   6.683410067205872e+00   3.362640600000000e+00 -4.13028020e-01   1.59239010e-01  -8.76153720e-01
C     1.111243149700000e+01   7.357481603859587e+00   3.317448000000000e+00 -2.83915381e+00   2.58009726e+00   4.06792300e-01
C     1.232129766860000e+01   6.691268518550616e+00   3.250214100000000e+00  2.77285680e-01   1.80007035e+00   2.87693240e-01
C     1.351067436700000e+01   7.399369548989018e+00   3.461628300000000e+00  2.84108079e+00  -1.31085465e+00   5.45434950e-01
