26
Lattice="8.88768389401873 1.33226762955019e-15 0 4.44384194700937 7.69696003302603 0 0 0 30 " PBC="1 1 1" Properties=species:S:1:pos:R:3:force:R:3 Energy="-208.81722828"
C     4.327079913874714e+00   7.475945825157766e+00  -2.042777999999998e-01 -5.41102740e-01   1.85028720e-01  -3.41251380e-01
C     9.402760415853759e+00   7.330023085398611e+00  -2.438633999999986e-01  2.90367100e-01   7.92770040e-01  -1.93411280e-01
C     1.078448659122164e+01   6.921128703190486e+00  -3.914100000000005e-01  2.84916870e-01   1.17352290e+00   6.64582340e-01
C     1.115451633253765e+01   5.561218875406844e+00  -3.830105999999986e-01 -5.93047700e-01  -1.14415258e+00   2.92901620e-01
C     7.010169515841433e+00   6.709380868528370e+00  -1.077063000000003e-01  5.88407660e-01  -2.04606770e-01  -2.85350540e-01
C     8.370327993179822e+00   6.343518265607967e+00  -2.207969999999975e-01  9.59845440e-01  -1.02485970e-01   1.90261800e-02
C     8.720183269752649e+00   4.964612879257487e+00  -3.039629999999995e-01  9.58264020e-01  -2.10265100e-01   2.79139130e-01
C     1.010484349176026e+01   4.548856888091419e+00  -3.194918999999992e-01  1.94681530e-01   1.16586621e+00   1.48558630e-01
C     1.045655167268466e+01   3.191790856130060e+00  -1.704678000000008e-01 -2.98092740e-01  -1.05892716e+00  -2.42395180e-01
C     4.683655968113712e+00   6.074553000383636e+00  -2.692434000000006e-01 -8.53506890e-01   2.34850974e+00   1.49364720e-01
C     6.024789558180041e+00   5.687192018403442e+00  -2.282784000000007e-01 -4.18113200e-02   2.20895608e+00   5.29478930e-01
C     6.367164160138481e+00   4.368302138494880e+00  -2.499725999999995e-01 -3.54104020e-01  -2.24112599e+00  -3.77709990e-01
C     7.711761102860172e+00   3.976486771806125e+00  -2.589734999999997e-01  9.12065440e-01  -1.00741348e+00  -3.68951190e-01
C     8.079491555888746e+00   2.575508813177613e+00  -2.862809999999989e-01 -9.92989570e-01   3.95550570e-01   1.95114080e-01
C     9.417662925332568e+00   2.156762168191888e+00  -1.804106999999995e-01  1.12222567e+00   1.32369971e+00   2.51535690e-01
C     3.648126009894718e+00   5.156221848909910e+00  -3.175916999999977e-01 -1.21272063e+00  -9.71411150e-01   4.71473230e-01
C     3.993252683134307e+00   3.782853347726611e+00  -1.468109999999996e-01 -1.88629469e+00  -2.62986260e-01  -1.11858610e+00
C     5.318194868431014e+00   3.376253814151430e+00  -2.675744999999985e-01  1.36889778e+00   8.66488190e-01   6.65080660e-01
C     5.646850752586665e+00   2.027928680908941e+00  -2.719310999999998e-01  1.01431056e+00  -1.92563382e+00   8.43875400e-02
C     7.051912386317257e+00   1.587551500059708e+00  -3.279432000000000e-01 -8.24252420e-01   7.66392390e-01   3.60159330e-01
C     7.414345024316173e+00   2.203058536106735e-01  -3.181395000000009e-01 -1.29551462e+00  -1.23626206e+00  -1.46451520e-01
C     2.945210732370379e+00   2.800744107869900e+00  -1.059726000000012e-01 -7.27919110e-01   1.46853180e-01   1.07327680e-01
C     3.246992660093101e+00   1.415137055390899e+00  -5.827800000000138e-02 -7.00257900e-02  -5.87826120e-01   1.73381400e-01
C     4.600891052850162e+00   1.056989962174169e+00  -1.510622999999995e-01  1.50239565e+00  -1.90340262e+00  -5.08199660e-01
C     8.650534714636690e-01   7.858857887271019e-01  -7.243140000000281e-02  9.44367970e-01  -4.98422650e-01  -3.39306700e-01
C     2.239598887065326e+00   3.681909333294767e-01  -6.302700000002659e-03 -4.49363450e-01   1.98128403e+00  -4.69897600e-01
