32
Lattice="9.86 0 0 4.93 8.53901048131456 0 0 0 30 " PBC="1 1 1" Properties=species:S:1:pos:R:3:force:R:3 Energy="-255.986454"
C     4.994413062900000e+00   8.359329974386592e+00  -8.090952000000016e-01 -1.61783308e+00   7.78901100e-02   1.20294180e-01
C     1.289321454500000e+00   5.353243147980727e-01  -7.958798999999992e-01 -1.12092634e+00   1.35406136e+00  -8.33184250e-01
C     7.419179776600000e+00   8.389895618570065e+00  -8.860458000000015e-01  1.91723152e+00  -1.08652133e+00   7.93330090e-01
C     3.738440494800000e+00   5.430270999817663e-01  -7.566056999999979e-01 -1.44267863e+00   1.13815920e+00   5.30792170e-01
C     9.876908568899999e+00   8.382682631027505e+00  -6.198569999999997e-01  5.88990510e-01  -5.57464020e-01  -5.28035600e-01
C     6.202313102399999e+00   5.421602196378369e-01  -6.772872000000021e-01 -7.20299050e-01  -7.53176600e-02   3.39538920e-01
C     1.234100312510000e+01   8.404071656818438e+00  -6.522170999999979e-01  1.45363758e+00  -3.27568365e+00   5.66366030e-01
C     8.663784208399999e+00   5.218527449143008e-01  -8.188053000000011e-01  3.43808150e-01   1.39209365e+00   7.35477180e-01
C     1.298747466600000e+00   1.979694436495776e+00  -7.162955999999987e-01 -1.23866755e+00   5.11186100e-01   1.53597112e+00
C     2.501914015900000e+00   2.693539232333550e+00  -4.143527999999996e-01 -2.90321190e-01  -1.25137034e+00  -1.12232432e+00
C     3.700770512700000e+00   1.979365769982401e+00  -5.645196000000006e-01  2.08234647e+00  -1.38730551e+00  -4.18683180e-01
C     4.972699666700001e+00   2.626912749162301e+00  -6.111333000000023e-01 -1.34200048e+00   2.63846962e+00   7.63634610e-01
C     6.203296341600000e+00   1.947197182751621e+00  -7.182639000000002e-01 -3.09739100e-01   8.21500650e-01  -6.82538270e-01
C     7.406227187599999e+00   2.683163736869616e+00  -8.679750000000013e-01  1.67914131e+00   1.29316210e-01   1.09692370e+00
C     8.658423572900000e+00   1.971759902567655e+00  -8.031435000000009e-01  9.68068910e-01   6.87944020e-01  -3.60664770e-01
C     9.934623290099999e+00   2.739672090352797e+00  -6.599672999999981e-01 -1.24017417e+00  -1.84455758e+00  -5.03256750e-01
C     2.493345922400000e+00   4.067532195896770e+00  -2.271356999999981e-01 -9.74697700e-02   2.71253041e+00  -4.64389200e-01
C     3.734391190000000e+00   4.846722367163477e+00  -3.689640000000018e-01 -4.12488440e-01  -2.76029522e+00   1.09930428e+00
C     4.931024453999999e+00   4.097737237667674e+00  -5.055155999999990e-01  2.54904938e+00  -2.75456500e-02  -1.30923163e+00
C     6.210494437400000e+00   4.853253685499419e+00  -7.441089000000005e-01 -7.48691210e-01  -2.40256033e+00   4.69943390e-01
C     7.472841051800000e+00   4.123076409706655e+00  -8.194659000000009e-01 -1.95027955e+00  -2.74433530e-01  -6.62340000e-04
C     8.679868974300000e+00   4.849458522291584e+00  -7.193519999999971e-01  1.03688320e-01  -1.17254980e+00   7.15994400e-01
C     9.929548101599998e+00   4.174801465689255e+00  -4.925993999999996e-01 -2.73115940e+00  -2.76385118e+00  -8.93988360e-01
C     1.109340564100000e+01   4.801443239412019e+00  -2.390909999999984e-01  3.35150501e+00   2.07302999e+00  -2.11887040e-01
C     3.755175133300000e+00   6.241958510218631e+00  -3.471119999999992e-01 -4.91971620e-01   5.28402420e-01  -1.48573507e+00
C     4.935588401500000e+00   6.937090491540009e+00  -7.290087000000014e-01  1.42939689e+00   3.98565380e-01   7.36288120e-01
C     6.193307323499999e+00   6.244710974856755e+00  -8.217692999999997e-01 -1.98519210e-01   5.72645550e-01   1.46495110e-01
C     7.440088103799999e+00   6.962151377227446e+00  -8.743091999999990e-01 -1.25828046e+00   5.93546200e-02   2.74802950e-01
C     8.631074052799999e+00   6.237283658151145e+00  -6.697116000000030e-01  1.21960257e+00   1.48387906e+00  -5.51685060e-01
C     9.860502219099999e+00   6.964331301212885e+00  -5.439879000000012e-01  1.53997290e+00  -3.62630740e-01   4.05119550e-01
C     1.114603615180000e+01   6.261185714726342e+00  -3.225849000000025e-01 -2.62962258e+00  -1.38334531e+00  -4.10139800e-02
C     1.236034543780000e+01   6.899371205936810e+00  -3.572631000000008e-01  6.14682320e-01   4.04640348e+00  -9.22995960e-01
