32
Lattice="9.86 0 0 4.93 8.53901048131456 0 0 0 30 " PBC="1 1 1" Properties=species:S:1:pos:R:3:force:R:3 Energy="-251.53231611"
C     1.181488944900000e+00   1.011312155841988e+00   3.357581700000000e+00 -7.54955900e-02   3.37632168e+00   1.28572146e+00
C     2.367831869200000e+00   1.766543998454435e+00   3.735010200000000e+00  1.18373328e+00  -4.63369151e+00  -2.51498641e+00
C     3.625312228499999e+00   1.018132946633203e+00   3.346126500000000e+00  2.12801890e-01   1.32501532e+00  -2.99432650e-01
C     4.941177936900000e+00   1.645237022383354e+00   3.199796400000000e+00 -2.94607973e+00   1.18920847e+00   1.81341948e+00
C     6.146476070299999e+00   8.940681263473961e-01   3.055098300000000e+00 -7.43909910e-01   5.29402306e+00  -4.03692870e-01
C     7.318544228900000e+00   1.747777046611596e+00   3.118593300000000e+00  1.17269712e+00  -2.77097128e+00   5.53269240e-01
C     8.529315697600000e+00   1.007017118960653e+00   3.317209200000000e+00  1.73644067e+00   4.99945710e-01  -1.40366491e+00
C     9.829110493400000e+00   1.753755293238749e+00   3.405069300000000e+00 -2.58673897e+00  -1.76653912e+00   1.07984755e+00
C     2.328926774200000e+00   3.083131329313235e+00   4.094323200000000e+00  4.86933070e-01   2.64129278e+00  -5.96494570e-01
C     3.602560722200000e+00   3.710738865121288e+00   3.912597300000000e+00  3.09152437e+00   3.56573975e+00  -2.47352980e-01
C     4.848315914600001e+00   3.077742872139936e+00   3.497296500000000e+00  1.21436990e+00  -7.82538000e-02  -7.56439340e-01
C     6.111576896099999e+00   3.886591332336513e+00   3.211115700000000e+00 -1.88793841e+00  -4.81870402e+00   4.62896970e-01
C     7.361809169400000e+00   3.163384194628258e+00   3.090274800000000e+00 -2.93952260e+00  -1.69685324e+00   7.48001740e-01
C     8.532823146100000e+00   3.803873596256333e+00   3.322014000000000e+00  3.05268271e+00   1.61246888e+00   4.73412400e-02
C     9.770075814000000e+00   3.145392328766688e+00   3.693366600000000e+00 -1.60781080e-01  -1.24515100e-01  -6.49641040e-01
C     1.094362124710000e+01   3.869887832376166e+00   4.079360100000000e+00 -1.09203470e-01   8.10279340e-01  -2.15700892e+00
C     3.771849527200000e+00   5.277642335575210e+00   3.903638400000000e+00 -5.01425415e+00  -2.03471716e+00  -8.41605730e-01
C     4.850962732999999e+00   5.929469579148315e+00   3.328863300000000e+00  1.52630510e+00   2.51124253e+00  -1.29025390e-01
C     6.063325852199999e+00   5.200855113053600e+00   3.124299300000000e+00  2.57371649e+00   4.70124388e+00  -9.13000200e-01
C     7.433154305299999e+00   5.916227367086035e+00   2.875685100000000e+00 -5.68599125e+00   2.57465416e+00   5.16128900e-02
C     8.588767011300000e+00   5.210943526985196e+00   3.082826700000000e+00  5.82186980e-01   8.30556740e-01   1.29676002e+00
C     9.744709485000000e+00   6.007903293670679e+00   3.340851300000000e+00  1.77749459e+00   1.07938120e-01   1.42537730e-01
C     1.093998670320000e+01   5.338599086567948e+00   3.772398900000000e+00  2.55748686e+00  -1.72227064e+00   1.54069198e+00
C     1.227811929890000e+01   5.997000428919500e+00   3.884393400000000e+00 -5.16398280e-01   1.05692307e+00  -2.18340520e+00
C     4.829093055800000e+00   7.448261361294353e+00   3.101509800000000e+00  1.63711036e+00  -2.40493537e+00   9.91698570e-01
C     6.061839112099999e+00   8.243936006902596e+00   3.003062700000000e+00  1.01239234e+00  -6.14023408e+00  -7.70397210e-01
C     7.314943356900000e+00   7.415767266984076e+00   2.790882600000000e+00  7.66775560e-01   4.33468340e-01   1.84814687e+00
C     8.542515821900000e+00   8.187085495269480e+00   2.982189300000000e+00 -5.62477210e-01  -1.91848413e+00   8.48998390e-01
C     9.798388064499999e+00   7.453269576330978e+00   3.197156700000000e+00 -2.47403053e+00  -1.81142007e+00  -1.61685743e+00
C     1.102417665830000e+01   8.078265711954037e+00   3.073658400000000e+00  1.90623168e+00  -1.51122883e+00   2.11517745e+00
C     1.225291496970000e+01   7.407109393478194e+00   3.405920400000000e+00 -6.10415010e-01  -3.45143002e+00   7.63191400e-01
C     1.347493758580000e+01   8.049502652882891e+00   3.283474200000000e+00 -1.77646800e-01   4.35392653e+00  -1.06308140e-01
