32
Lattice="9.86 0 0 4.93 8.53901048131456 0 0 0 30 " PBC="1 1 1" Properties=species:S:1:pos:R:3:force:R:3 Energy="-252.08289708"
C     5.213303041600000e+00   7.546923308522999e+00  -2.157677999999983e-01  1.95415523e+00   1.21570964e+00  -2.33583500e-01
C     6.400957000800000e+00   8.310583581429730e+00  -2.925894000000007e-01  1.92575393e+00   8.07898330e-01   1.62487580e-01
C     7.639259561499999e+00   7.616320956765321e+00  -3.365408999999993e-01  1.23815813e+00   2.56311080e-01   1.09424457e+00
C     8.922475506799998e+00   8.301759197219488e+00  -1.477890000000031e-01 -1.74071561e+00   1.15107912e+00  -2.02752299e+00
C     1.010439829170000e+01   7.580228267268457e+00  -3.345891000000023e-01  9.66068220e-01  -2.04177116e+00   1.83294595e+00
C     1.136662574800000e+01   8.225417198704305e+00  -3.812718000000004e-01  9.64336960e-01   2.11481833e+00   2.19908537e+00
C     1.268354563830000e+01   7.648309968605707e+00  -1.021073999999977e-01 -8.81348180e-01  -3.80333847e+00  -2.43439283e+00
C     1.396057379270000e+01   8.293454070236535e+00  -3.407201999999998e-01 -6.95767036e+00   3.05458535e+00   9.49803590e-01
C     1.514233280300000e+00   1.257736726800954e+00  -2.076419999999999e-01 -5.17618975e+00  -6.04903882e+00  -1.48862140e-01
C     2.675382967900000e+00   1.845079754152034e+00  -1.946760000000225e-02  5.66083679e+00  -4.28060300e-02  -2.41675000e-01
C     4.018430970800000e+00   1.197738308954387e+00  -8.873969999999787e-02 -4.90046097e+00  -3.45536026e+00   2.18506310e-01
C     5.205059342099999e+00   1.813973163654652e+00  -1.032393000000020e-01 -5.65404000e-03   2.99706911e+00   4.58023100e-01
C     6.358499840800000e+00   1.119154649407995e+00  -2.060558999999991e-01  3.66805069e+00  -1.03424310e+00  -1.10721834e+00
C     7.581731292899999e+00   1.920754002047681e+00  -2.189675999999992e-01 -5.95552000e-02  -6.77029864e+00  -8.05871710e-01
C     8.814233856500000e+00   1.257318144507225e+00  -4.045478999999972e-01  3.76576156e+00  -3.18258810e+00   1.49264579e+00
C     1.008873903410000e+01   1.913391837992034e+00  -1.790130000000012e-01  1.75332450e-01  -3.66344462e+00  -1.28013121e+00
C     2.716448980500000e+00   3.179809066676642e+00   7.724280000000000e-02  1.16068010e+00   6.88489650e+00  -6.36336300e-02
C     4.031174577100000e+00   3.985012479469622e+00   6.239400000000000e-03 -1.68108044e+00  -3.94370139e+00   1.05866504e+00
C     5.252394391999999e+00   3.232094025576416e+00  -1.849980000000073e-02 -5.13605500e-01   2.14303284e+00  -1.43792713e+00
C     6.472138509999999e+00   3.987115040020112e+00  -2.711882999999986e-01 -3.72846033e+00  -1.32600540e-01   2.73531323e+00
C     7.618687509600000e+00   3.227493035949582e+00  -2.021814000000006e-01  2.50516752e+00   4.82221984e+00  -1.00240445e+00
C     8.881920833799999e+00   3.895637645429129e+00  -2.509979999999992e-01 -8.94532640e-01   3.03687253e+00   1.37425405e+00
C     1.012605272510000e+01   3.224454599850484e+00  -6.943889999999797e-02 -6.53532560e-01   5.40329016e+00   5.11562000e-02
C     1.134994874120000e+01   3.967449015763834e+00   7.047330000000000e-02  1.74884790e-01  -2.70288750e-01   1.79456010e-01
C     4.008872785399999e+00   5.358740392147542e+00   4.439040000000000e-02 -1.67589180e+00   3.55058216e+00  -7.06649830e-01
C     5.172870780500000e+00   6.165377760970428e+00  -3.761100000000184e-02  1.31017916e+00  -3.28819037e+00  -3.22351200e-02
C     6.357039821299999e+00   5.377149047110641e+00  -7.978410000000125e-02  3.38970893e+00   3.61061942e+00  -2.74494801e+00
C     7.662506434199999e+00   6.209906053530379e+00  -3.690455999999998e-01 -3.10355400e+00  -3.69775516e+00   1.86532777e+00
C     8.790419146400000e+00   5.369643342288826e+00  -2.115989999999996e-01  3.21939881e+00   1.43675005e+00  -1.64129930e-01
C     1.004636908580000e+01   6.168591076004157e+00  -5.497799999999842e-02  9.02987350e-01  -2.96782704e+00  -1.35474891e+00
C     1.129493916030000e+01   5.397020861519487e+00   1.044753000000000e-01  2.09431829e+00   2.31256742e+00  -1.49549495e+00
C     1.266958550520000e+01   6.152476255426301e+00  -4.976279999999988e-02 -3.10352753e+00  -4.55049410e-01   1.60951511e+00
