26
Lattice="8.88768389401873 1.33226762955019e-15 0 4.44384194700937 7.69696003302603 0 0 0 30 " PBC="1 1 1" Properties=species:S:1:pos:R:3:force:R:3 Energy="-209.04098998"
C     1.326577586547281e+01   7.590043174584876e+00  -2.011803000000008e-01 -8.31492730e-01   1.16576270e-01   1.08662700e-01
C     9.488221406800523e+00   7.383328612995177e+00  -1.678647000000026e-01 -1.60941300e-01   2.61997800e-01  -4.69468950e-01
C     1.085225766946849e+01   6.973637056636745e+00  -2.898980999999985e-01  3.54139830e-01   1.66916712e+00   4.87041570e-01
C     1.119592569602829e+01   5.600642319832502e+00  -2.614428000000011e-01 -9.42449150e-01   4.79613710e-01   1.40490950e-01
C     7.098066798729711e+00   6.814390263308858e+00  -3.171510000000310e-02 -1.24013500e-02  -2.23203049e+00  -9.01502790e-01
C     8.445213706810513e+00   6.382907073713491e+00  -1.745657999999999e-01  9.98750890e-01   1.54270081e+00   7.88658000e-01
C     8.808683137576203e+00   5.019642218022372e+00  -1.833114000000009e-01 -1.09640038e+00  -2.48107170e-01   5.10758000e-03
C     1.014994288831319e+01   4.628961922029239e+00  -1.769618999999985e-01  1.55164262e+00  -1.11149083e+00  -8.16130200e-02
C     1.053263242429026e+01   3.229727247877923e+00  -9.296339999999859e-02 -9.96649150e-01   1.20333921e+00  -4.02605770e-01
C     4.700525325487772e+00   6.212799638874473e+00  -2.168235000000003e-01  3.48591180e-01  -5.39522510e-01   3.49036700e-01
C     6.080081306198855e+00   5.796921804831130e+00  -1.228875000000009e-01 -9.32838960e-01   1.49218931e+00  -1.49071090e-01
C     6.407126342082947e+00   4.441030944727152e+00  -1.911527999999976e-01 -3.27255990e-01  -8.65982280e-01   1.61101150e-01
C     7.763192352041544e+00   4.048406858448043e+00  -1.766280000000009e-01  4.76660080e-01  -8.89026450e-01  -7.08535700e-02
C     8.096489740201605e+00   2.653434145004538e+00  -1.857789000000025e-01  1.01784242e+00   5.82155530e-01   3.90999000e-03
C     9.480202801749858e+00   2.257382063636868e+00  -1.208747999999993e-01  1.25168650e-01  -5.87998300e-02   2.73566520e-01
C     3.655689828891256e+00   5.249158869761746e+00  -2.398871999999983e-01  1.57500856e+00  -1.92987901e+00  -6.52374400e-02
C     4.025500444314639e+00   3.817940170932167e+00  -1.972563000000029e-01 -3.20119540e-01   2.50176139e+00   1.47255370e-01
C     5.365258220919772e+00   3.438237972060223e+00  -2.015750999999995e-01  1.52816457e+00   2.95301990e-01  -3.77217400e-02
C     5.715875794141633e+00   2.062086865886878e+00  -1.951491000000019e-01  6.79928340e-01   3.07636610e-01  -2.23250700e-02
C     7.100083010907988e+00   1.656521649800530e+00  -2.388840000000023e-01 -8.00745720e-01   8.48684140e-01   2.20220290e-01
C     7.460842320235397e+00   3.091082214735934e-01  -2.664083999999995e-01 -1.12619745e+00  -2.12818286e+00  -2.62205800e-02
C     3.023391066003398e+00   2.875114598706969e+00  -1.012254000000006e-01 -1.87021300e+00  -2.40777811e+00   7.40695500e-02
C     3.317070981064513e+00   1.447201051483872e+00  -5.276819999999915e-02  1.41931504e+00   1.83719096e+00  -1.65318750e-01
C     4.701298461792207e+00   1.106397749211543e+00  -1.196510999999987e-01 -4.77573600e-01  -2.35645367e+00  -1.32417880e-01
C     9.198396880077653e-01   8.724421836532679e-01  -6.875910000000118e-02  1.78969186e+00   2.56210990e-01  -3.69289780e-01
C     2.327780842461741e+00   4.626399450096052e-01  -2.705010000000030e-02 -1.96962572e+00   1.37272737e+00   1.34526050e-01
