26
Lattice="8.88768389401873 1.33226762955019e-15 0 4.44384194700937 7.69696003302603 0 0 0 30 " PBC="1 1 1" Properties=species:S:1:pos:R:3:force:R:3 Energy="-207.33547233"
C     2.874542269528587e-01   3.291944392766823e-01   3.739824600000000e+00  8.34493400e-02   3.24588263e+00   3.61897520e-01
C     7.179154116372022e+00   7.446869173191635e+00   3.871888199999999e+00 -2.64659160e-01  -3.06602840e-01  -1.14678370e-01
C     4.120747128343100e+00   1.943333856246421e-01   3.868033500000000e+00 -2.82475380e+00   1.16254875e+00   3.37767630e-01
C     9.511829316832731e+00   6.920579525092346e+00   3.830115900000000e+00  2.46186420e-01  -2.66205989e+00   2.17643960e-01
C     1.083804319684416e+01   7.230294113077102e+00   3.742447500000000e+00  3.49120389e+00   3.62432634e+00   6.68986790e-01
C     1.191505006373232e+01   6.311470587070257e+00   3.799330499999999e+00 -7.37764000e-01  -5.24552360e-01  -1.12598734e+00
C     4.385402717031922e+00   6.699831096279948e+00   3.706463700000000e+00  4.31441620e-01  -1.54912202e+00   4.26131910e-01
C     5.434964060489039e+00   5.671147474312106e+00   3.727680300000000e+00 -1.04788042e+00   2.46007090e+00  -1.33399790e-01
C     6.789244935188286e+00   6.030325883203255e+00   3.810966000000001e+00 -3.08131130e-01   3.70147094e+00   5.74364730e-01
C     7.797800993813411e+00   5.132456253303680e+00   3.984210900000000e+00  2.01652086e+00  -1.12191095e+00  -1.20310042e+00
C     9.145426193142448e+00   5.531775463295284e+00   3.925637100000000e+00  9.96593920e-01   1.72938866e+00  -2.60880100e-02
C     1.020493929852408e+01   4.627454318468163e+00   3.870574500000000e+00 -1.30792618e+00  -3.77145662e+00   7.95309900e-02
C     1.156540973400451e+01   4.935078181199971e+00   3.776531700000000e+00  1.40821046e+00  -9.67505600e-02   5.35461950e-01
C     3.718922099402253e+00   3.933936899185881e+00   3.774291900000000e+00 -1.45302947e+00  -1.27780494e+00  -1.16715130e-01
C     5.087587157248336e+00   4.342230533663662e+00   3.692710200000000e+00 -5.19873400e-01  -1.70539991e+00   2.25165550e-01
C     6.155173612462185e+00   3.405020047719551e+00   3.673579800000000e+00  4.67385190e-01  -1.35006550e+00   8.58720630e-01
C     7.537239031234664e+00   3.782014071204939e+00   3.822265500000000e+00 -3.21144781e+00  -8.00323780e-01   9.65455300e-02
C     8.494907900221616e+00   2.772004274874682e+00   3.854986200000000e+00 -4.72704520e-01   1.03939737e+00  -4.84821150e-01
C     9.801766404530731e+00   3.206761443388410e+00   3.881730900000000e+00  3.75559614e+00  -1.54579126e+00   4.00782850e-01
C     1.932334947279343e+00   2.118527211364462e+00   3.933031800000000e+00  1.51831098e+00   1.02086833e+00  -6.20249840e-01
C     3.332647492089436e+00   2.490489732078239e+00   3.862042199999999e+00  1.05343418e+00   2.40999244e+00   1.94947670e-01
C     4.445622682370858e+00   1.580428656278346e+00   3.887319000000000e+00 -2.44986900e-01   2.51606330e-01  -9.04554610e-01
C     5.863957850361792e+00   2.006303302008654e+00   3.748975800000000e+00 -4.41766616e+00   7.38041790e-01   3.10882530e-01
C     6.792983402837331e+00   1.005713353241511e+00   3.766729500000000e+00  6.42781000e-02  -2.34851588e+00  -6.87425320e-01
C     8.105764259748867e+00   1.446472534217033e+00   3.723424500000000e+00  3.37388414e+00  -4.41544831e+00   6.02405180e-01
C     1.691124138781049e+00   6.861185625142450e-01   3.884353800000000e+00 -2.09567230e+00   2.09221033e+00  -4.74215430e-01
