32
Lattice="9.668 0 0 4.834 8.37273360378795 0 0 0 30 " PBC="1 1 1" Properties=species:S:1:pos:R:3:force:R:3 Energy="-257.20378422"
C    -8.358884099683319e-04   5.802001164777333e-04   2.999427932391702e+00  5.08837700e-02  -7.37414100e-02   8.73413000e-03
C     1.208581548113800e+00   6.965545279999898e-01   3.001012111518577e+00 -1.29196500e-02   8.09192500e-02  -9.93496000e-03
C     2.417968527802401e+00  -1.127720409427125e-03   3.001104446545777e+00 -7.73050000e-02   7.32217100e-02  -5.89517000e-03
C     3.624623134929717e+00   6.972053134447620e-01   3.000256403056595e+00  1.09397650e-01   3.19208400e-02  -7.61586000e-03
C     4.835073692153840e+00   8.525618028611417e-04   2.998796960567414e+00 -8.32864500e-02  -6.36821900e-02   1.18993100e-02
C     6.042551303307792e+00   6.978535752752630e-01   2.999964657208823e+00  5.03749700e-02   1.77988500e-02  -3.05101000e-03
C     7.251648080250373e+00  -8.200476076954971e-04   3.000639442608469e+00 -7.82777200e-02   5.46727200e-02  -2.06272700e-02
C     8.458341797281651e+00   6.968461033167808e-01   2.999072531883060e+00  6.12792600e-02   1.07135150e-01   1.00913100e-02
C     1.208040522461712e+00   2.093597801990465e+00   2.999930462374030e+00  4.65454000e-02  -8.42710200e-02   7.57007000e-03
C     2.417764178776377e+00   2.790402632518444e+00   3.000563465487890e+00 -4.24928700e-02  -3.12557000e-03  -1.57458600e-02
C     3.625989738232652e+00   2.092766636371116e+00   2.999600343077849e+00  1.34831300e-02   5.21780000e-04   1.89401300e-02
C     4.835155466376983e+00   2.791212316226715e+00   3.001088407789199e+00 -7.14373800e-02  -4.75019300e-02  -2.68353200e-02
C     6.043146488647549e+00   2.093968948312008e+00   2.999774349609467e+00 -1.77958300e-02  -6.24137200e-02   1.93224900e-02
C     7.250882312430406e+00   2.790671027905983e+00   3.001196748933538e+00  1.65000500e-02   7.98629000e-02  -2.23246000e-02
C     8.458720672613241e+00   2.094301497661606e+00   2.999804827903216e+00  3.10099900e-02  -1.09873680e-01   2.73402000e-03
C     9.667816434763314e+00   2.790822132080781e+00   2.999694788850707e+00 -9.54146000e-03   1.67395000e-02   4.57519000e-03
C     2.416916633078117e+00   4.185243303581951e+00   2.998995187042742e+00  4.05391800e-02   7.26490400e-02   9.23810000e-03
C     3.626062002527409e+00   4.884423797594732e+00   2.998858953125678e+00 -6.68815700e-02  -1.83815800e-02  -9.43800000e-04
C     4.833517011034594e+00   4.185692102436819e+00   2.998924483323903e+00  5.25838500e-02   5.96508400e-02   1.04461300e-02
C     6.042556185753071e+00   4.883892467671320e+00   2.998908044718328e+00 -2.73204600e-02   2.47338500e-02   3.40872000e-03
C     7.251175001714034e+00   4.187100401638663e+00   2.999066075356128e+00 -2.26062400e-02  -4.11282500e-02   1.44758900e-02
C     8.458961292307267e+00   4.884437038157243e+00   2.999982446067240e+00  5.47060600e-02   1.08509800e-02   4.46185000e-03
C     9.668015846034889e+00   4.186273603002555e+00   3.000954094009684e+00 -1.76604500e-02   3.39996000e-02  -1.29271600e-02
C     1.087675566468431e+01   4.884344412702495e+00   2.999864338276414e+00  3.42116000e-03  -4.28345000e-02   1.12676100e-02
C     3.625451773075301e+00   6.280489080514278e+00   2.999295445680608e+00  4.86689100e-02  -7.51796000e-02  -5.04231000e-03
C     4.835074553394032e+00   6.976247080252834e+00   3.000229983487690e+00 -1.03095000e-01   1.14914810e-01  -5.82576000e-03
C     6.041366792138248e+00   6.279949630055391e+00   3.000332060741756e+00  1.46395610e-01  -3.84553000e-02  -9.50587000e-03
C     7.251876078297273e+00   6.978345441507351e+00   2.999868580588093e+00 -7.26236800e-02  -1.05673730e-01   1.10655300e-02
C     8.459910787597595e+00   6.280575810141975e+00   3.000288646519178e+00 -3.27415000e-02  -6.09912600e-02  -9.87195000e-03
C     9.667571189715957e+00   6.976841677400152e+00   2.999495950807661e+00  1.04991750e-01   5.89458900e-02   1.08308600e-02
C     1.087760557791318e+01   6.279322904155897e+00   3.001079325422651e+00 -5.49945900e-02   2.81793400e-02  -2.53648700e-02
C     1.208586332958070e+01   6.977734641325426e+00   2.998799447020474e+00 -3.98009100e-02  -3.94633400e-02   2.24504300e-02
