32
Lattice="9.86 0 0 4.93 8.53901048131456 0 0 0 30 " PBC="1 1 1" Properties=species:S:1:pos:R:3:force:R:3 Energy="-256.45707725"
C     1.255366671100000e+00   8.494273750194232e-01   3.390350100000000e+00 -4.92747850e-01   1.46400338e+00  -2.11663090e-01
C     2.455294851300000e+00   1.619487807061124e+00   3.240690900000000e+00  1.14835484e+00  -5.88142060e-01   7.60280000e-03
C     3.707021308999999e+00   9.013417408643648e-01   3.381760200000000e+00 -2.62664030e-01  -9.83414520e-01   3.70326360e-01
C     4.964463362200000e+00   1.540477965501675e+00   3.451798800000000e+00 -1.13444822e+00   3.21898436e+00  -9.51624070e-01
C     6.213166448099999e+00   8.754358346998263e-01   3.509870700000000e+00 -1.51097047e+00   9.87390310e-01   8.99416200e-02
C     7.406856797900000e+00   1.649947482124541e+00   3.505889400000000e+00 -2.94649230e-01  -2.35371900e+00  -4.29588100e-02
C     8.598362221000000e+00   8.584395320701199e-01   3.458749500000000e+00  1.92119380e+00   1.83975580e+00  -1.02974210e-01
C     9.872954610300001e+00   1.550979325980084e+00   3.381071400000000e+00 -5.02985690e-01   6.35619830e-01  -3.77594290e-01
C     2.481013724600000e+00   3.037200333501734e+00   2.993322600000000e+00 -5.02804830e-01  -9.16188300e-01   5.23217720e-01
C     3.726509746900000e+00   3.722833604955265e+00   3.051483600000000e+00 -1.11246577e+00   3.89489300e-01   3.19711700e-02
C     4.900010563500000e+00   3.040061328963058e+00   3.295391100000000e+00  2.21113794e+00  -2.35203098e+00   6.28972420e-01
C     6.121536777899999e+00   3.766755371600822e+00   3.442054800000000e+00  6.21785360e-01   7.36303400e-02   1.66737770e-01
C     7.364112909099999e+00   3.051216179913502e+00   3.523784700000000e+00  3.38165170e-01  -3.30327380e-01  -3.72023760e-01
C     8.622408936899999e+00   3.686823231519428e+00   3.428304900000000e+00  1.04434629e+00   1.07765376e+00  -3.03558680e-01
C     9.870430844700000e+00   2.978431874724706e+00   3.235170900000000e+00  1.98806080e-01   4.83655150e-01   1.16744700e-01
C     1.111103916640000e+01   3.744173872996357e+00   2.980227300000000e+00 -1.64042822e+00  -4.72036550e-01   1.14853313e+00
C     3.733874427400000e+00   5.142214141703039e+00   3.073361100000000e+00 -1.81415006e+00   9.04706200e-01   1.36136220e-01
C     4.872699152300000e+00   5.876988906128340e+00   3.358721700000000e+00  3.35181006e+00  -4.93039470e-01   2.49950360e-01
C     6.154861901699999e+00   5.195613783030871e+00   3.489716100000000e+00  7.01340400e-02  -7.16470940e-01   6.42744300e-02
C     7.441832978699999e+00   5.856999936495708e+00   3.626563200000000e+00 -1.35734115e+00   4.24491030e-01  -6.83446520e-01
C     8.664053435700000e+00   5.112652172811384e+00   3.475282800000000e+00 -7.95172300e-01   7.78243510e-01   1.05304370e-01
C     9.877328555599998e+00   5.859284548749632e+00   3.342742800000000e+00 -6.21725370e-01  -2.23171260e-01   1.04445200e-02
C     1.107437973570000e+01   5.175705250876961e+00   3.075983400000000e+00  1.93365803e+00  -2.76110100e-01  -2.08254510e-01
C     1.235837230390000e+01   5.896966775047348e+00   3.053315100000000e+00 -1.53264483e+00  -1.46858340e+00   4.32473170e-01
C     4.926943843699999e+00   7.269874344988455e+00   3.479319300000000e+00  3.26363130e-01   1.39163791e+00  -4.80311060e-01
C     6.183173955000000e+00   7.996655570923219e+00   3.550293000000000e+00 -7.23874860e-01  -9.03060720e-01  -4.28443900e-02
C     7.413196777900000e+00   7.319353299654396e+00   3.620108100000000e+00 -5.24684140e-01  -2.50146892e+00  -2.99263100e-01
C     8.610931305299999e+00   7.991017860034009e+00   3.513896100000000e+00  1.17848125e+00   1.55902290e+00  -7.88203000e-03
C     9.837730154700001e+00   7.274938148983305e+00   3.454566000000000e+00  9.23679550e-01   9.66708500e-01   2.53869000e-02
C     1.107525564880000e+01   8.021297618146614e+00   3.455761800000000e+00  1.15808710e+00  -2.24226932e+00  -7.24513360e-01
C     1.231912477110000e+01   7.281642809231990e+00   3.278859300000000e+00  5.94951930e-01   9.17366540e-01   2.33837580e-01
C     1.358694274880000e+01   7.994812340121006e+00   3.370008000000000e+00 -2.19719755e+00  -2.92325910e-01   4.67056660e-01
