26
Lattice="8.88768389401873 1.33226762955019e-15 0 4.44384194700937 7.69696003302603 0 0 0 30 " PBC="1 1 1" Properties=species:S:1:pos:R:3:force:R:3 Energy="-208.68712343"
C     1.010440959955094e+00   1.150411968477495e+00   3.563832000000000e+00  3.53183400e-01  -1.06525556e+00  -4.65763930e-01
C     3.380853088394271e+00   5.243791086806423e-01   3.467041500000000e+00  1.24906493e+00   9.27332190e-01  -7.69729700e-02
C     4.761923308777777e+00   9.238626487688865e-01   3.474328800000000e+00  2.35758070e-01   1.47970300e-01   7.06260300e-01
C     1.023561154190681e+01   7.626751285451150e+00   3.554803500000000e+00 -6.19305340e-01   9.41464040e-01   3.83550640e-01
C     7.153380095104099e+00   3.388200265813994e-01   3.628556700000000e+00  2.83737430e-01  -1.02752529e+00   8.67256400e-02
C     1.265117377113786e+01   7.084443416863829e+00   3.655266300000000e+00 -2.74742960e-01  -1.16745936e+00  -6.10756910e-01
C     5.144004887867743e+00   7.420782790197159e+00   3.587590500000000e+00 -1.13232222e+00   2.76000666e+00   1.39112610e-01
C     6.148782081034629e+00   6.489220949279864e+00   3.575382000000000e+00  1.47698053e+00  -3.01462003e+00   5.99151390e-01
C     7.543273104005683e+00   6.839247749664944e+00   3.553147500000000e+00 -2.25792770e+00   6.97368050e-01   4.06567300e-02
C     8.517385965735894e+00   5.844602932824974e+00   3.679945200000000e+00  8.39428170e-01   9.14371510e-01  -6.53190980e-01
C     9.872708521471919e+00   6.275288024634830e+00   3.651499200000000e+00  7.33595780e-01  -7.98958850e-01  -9.44676900e-02
C     1.092199941275232e+01   5.314425396275331e+00   3.662122200000000e+00  2.73953850e-01  -2.43460760e-01  -2.94980300e-01
C     3.410052732857967e+00   5.716856487207064e+00   3.600985200000000e+00  7.00686270e-01  -1.33681370e+00   8.66826230e-01
C     4.470377728087622e+00   4.696572634689562e+00   3.649818000000000e+00 -1.62109888e+00   7.82233200e-02  -1.06966195e+00
C     5.830429909196244e+00   5.053542323930501e+00   3.685795800000000e+00 -4.55590400e-01   1.55778872e+00  -1.00410597e+00
C     6.825546856506440e+00   4.053395566121887e+00   3.610331400000000e+00  6.06887420e-01   7.17724560e-01   1.44590449e+00
C     8.188286228886311e+00   4.482881702467870e+00   3.667022700000000e+00 -5.19104210e-01  -6.78264540e-01   1.31479010e-01
C     9.201815790933368e+00   3.516522597981348e+00   3.692838300000000e+00  9.25399800e-01  -1.22287082e+00  -8.00568570e-01
C     1.058307478573761e+01   3.938958780757453e+00   3.643433100000000e+00  2.75775300e-01  -1.35478305e+00   1.13306760e-01
C     2.749454606555591e+00   2.937136240811108e+00   3.550420500000000e+00 -1.28686486e+00  -1.33771860e-01  -8.75538760e-01
C     4.109418799607656e+00   3.315586144286170e+00   3.445812000000000e+00  6.71402220e-01   5.27328500e-02   2.11300515e+00
C     5.134102004958645e+00   2.299592346380589e+00   3.588839400000000e+00 -6.48623790e-01   3.39233650e-01  -6.75807740e-01
C     6.503569665082315e+00   2.683100153200166e+00   3.748985400000000e+00 -8.66137920e-01  -2.96319740e-01  -1.48212788e+00
C     7.505792671164226e+00   1.674187327613384e+00   3.686150100000000e+00  3.41643500e-02   1.97621655e+00  -2.03136580e-01
C     8.856673562430498e+00   2.093622003856190e+00   3.582664500000000e+00  6.48531540e-01   1.32454674e+00   1.10453177e+00
C     2.371226419448972e+00   1.547268767016301e+00   3.470908800000000e+00  3.73169230e-01  -9.48755800e-02   5.76569530e-01
