32
Lattice="9.86 0 0 4.93 8.53901048131456 0 0 0 30 " PBC="1 1 1" Properties=species:S:1:pos:R:3:force:R:3 Energy="-256.94842904"
C     1.269768433600000e+00   5.474726796178639e-01   3.545138100000000e+00  6.14773930e-01   1.81473120e-01  -1.09457123e+00
C     2.501560534900000e+00   1.248884846976967e+00   3.320932800000000e+00 -8.67997630e-01   7.78442100e-02   3.63541330e-01
C     3.719676421800000e+00   5.504095868823552e-01   3.363170100000000e+00  8.25271760e-01   1.96185160e-01  -2.18436730e-01
C     4.966932306199999e+00   1.246350724836818e+00   3.393228900000000e+00  1.71912730e-01  -2.65034440e-01  -1.34047200e-02
C     6.184057213799999e+00   5.098718300900225e-01   3.477249900000000e+00  9.22698000e-01   1.30708093e+00  -7.55002180e-01
C     7.438534315700000e+00   1.267657349176619e+00   3.492146700000000e+00 -6.03643790e-01  -8.33277010e-01   4.00327800e-01
C     8.680120157799999e+00   5.269262833810976e-01   3.515903400000000e+00 -1.50086084e+00   5.51323460e-01  -4.43040940e-01
C     9.896353228400001e+00   1.253977939777763e+00   3.509015400000000e+00  2.07956500e-01  -1.62237503e+00  -5.39778500e-02
C     2.493625502700000e+00   2.658004481781449e+00   3.114304500000000e+00  2.00974020e-01   3.71496300e-02   7.81432380e-01
C     3.727935256399999e+00   3.367904425557672e+00   3.154420800000000e+00  4.65734560e-01   9.57136190e-01   4.30591500e-02
C     4.992947423200000e+00   2.662493695761099e+00   3.332329500000000e+00 -2.15204397e+00   7.31010970e-01   1.26765400e-02
C     6.158692215900000e+00   3.421074196723383e+00   3.474726000000000e+00  1.98916202e+00  -1.52089824e+00  -3.45221650e-01
C     7.423690184300000e+00   2.707691446742682e+00   3.528310500000000e+00 -8.55354120e-01  -1.10587966e+00   1.75624560e-01
C     8.656731991299999e+00   3.379872617256335e+00   3.517491000000000e+00  5.79330590e-01  -2.05922260e-01  -1.15961910e+00
C     9.877686029899998e+00   2.621876270000988e+00   3.352360200000000e+00  4.85006320e-01   3.07928941e+00   5.43383410e-01
C     1.111896783890000e+01   3.364684279315560e+00   3.161701800000000e+00 -4.32725570e-01  -5.86228240e-01  -7.27047700e-02
C     3.711145796299999e+00   4.839101214919972e+00   3.158999700000000e+00  9.01796840e-01  -2.07972205e+00  -1.70694100e-02
C     4.966079859900000e+00   5.485149256200214e+00   3.394611300000000e+00 -1.25760678e+00   3.05212766e+00  -5.36991310e-01
C     6.179552524900000e+00   4.819617754707757e+00   3.444752100000000e+00  6.54829400e-01  -5.97403900e-01   8.94631840e-01
C     7.434975693800000e+00   5.488743240321141e+00   3.552645600000000e+00 -3.58571290e-01   1.93386164e+00  -1.14075560e+00
C     8.650780051600000e+00   4.798476957951476e+00   3.420523500000000e+00  1.31079451e+00  -2.77370750e-01   5.45083740e-01
C     9.904363344499998e+00   5.493270538287532e+00   3.277506600000000e+00 -8.12038490e-01   9.66602070e-01  -6.08383780e-01
C     1.112911215200000e+01   4.782476218553634e+00   3.089842800000000e+00 -7.10037410e-01   5.02260440e-01   3.96838210e-01
C     1.234194401560000e+01   5.535101698997271e+00   3.033560700000000e+00  5.35550860e-01  -1.06751290e-01   9.62782980e-01
C     4.976498724699999e+00   6.955223080294289e+00   3.475532100000000e+00 -7.98355320e-01  -1.27481270e+00  -3.84770370e-01
C     6.205158205399999e+00   7.669764830167439e+00   3.558852300000000e+00  2.60111160e-01  -8.42835600e-01  -1.17234960e-01
C     7.449856750900000e+00   6.935113881394098e+00   3.483874800000000e+00 -4.24083540e-01   2.40878800e-01   2.81674880e-01
C     8.669929354799999e+00   7.684469006214000e+00   3.360253500000000e+00 -3.27922490e-01  -1.81642359e+00   3.06390150e-01
C     9.896379603900000e+00   6.948895502748400e+00   3.248227200000000e+00 -5.43287110e-01  -1.07076962e+00   7.34617600e-01
C     1.111630253300000e+01   7.637122584025335e+00   3.315219000000000e+00  6.03184440e-01   7.40659280e-01  -1.58012320e-01
C     1.235525619880000e+01   6.953423825396048e+00   3.217254600000000e+00 -4.02388930e-01  -6.44171440e-01  -1.26753090e-01
C     1.357615886680000e+01   7.646636920282360e+00   3.364557600000000e+00  1.31782961e+00   2.94992860e-01   8.03885430e-01
