32
Lattice="9.86 0 0 4.93 8.53901048131456 0 0 0 30 " PBC="1 1 1" Properties=species:S:1:pos:R:3:force:R:3 Energy="-256.83480164"
C     4.945105815799999e+00   8.401460512803759e+00   1.507338000000000e-01 -1.16530309e+00  -2.46054628e+00   8.07431100e-02
C     1.240701449400000e+00   5.281851043060592e-01   1.274973000000000e-01  1.17038230e-01   8.57852150e-01   1.94858000e-02
C     7.398821045799998e+00   8.342995103508665e+00   1.824177000000000e-01  3.32767380e-01   1.23296563e+00   2.24532970e-01
C     3.720106860100000e+00   5.328855734049848e-01   1.670421000000000e-01 -1.55088875e+00   2.33163650e-01  -1.14583061e+00
C     9.847134228300000e+00   8.362767267665211e+00   7.589849999999999e-02  9.35389680e-01   4.19272800e-02   4.30413250e-01
C     6.157653119800000e+00   5.324059371863231e-01   8.820000000000000e-02 -3.17924900e-01   1.38206067e+00   2.50218010e-01
C     1.232255851610000e+01   8.359135626508067e+00   8.242500000000000e-02 -3.00716300e-01   3.59287420e-01  -1.03798180e-01
C     8.623507242299999e+00   5.469062870527256e-01   1.890912000000000e-01  9.31302000e-02  -1.09667699e+00  -8.65405550e-01
C     1.224937725100000e+00   1.967205706718252e+00  -1.841429999999988e-02 -7.98777860e-01  -1.03987094e+00  -8.41546000e-02
C     2.438890079100000e+00   2.621660233035844e+00  -2.002224000000012e-01  7.29068930e-01   2.39676528e+00   6.67206190e-01
C     3.692000486400000e+00   1.951166627163354e+00  -4.005030000000076e-02 -1.08924146e+00   3.98960000e-04   2.02084960e-01
C     4.855217273699999e+00   2.725114102165655e+00   9.959700000000000e-03  2.78350762e+00  -9.73603150e-01   2.48818440e-01
C     6.122628772900000e+00   2.004822609585796e+00   1.484625000000000e-01 -1.47326560e-01  -1.32340559e+00  -5.11327410e-01
C     7.379083593600000e+00   2.668185287806438e+00   1.597806000000000e-01 -6.26421270e-01   7.64564400e-01   1.60170300e-02
C     8.590474122400000e+00   1.931125228006374e+00   1.308081000000000e-01  1.46944199e+00   2.67731353e+00   1.59049220e-01
C     9.857535197199999e+00   2.702120681695635e+00   1.172700000000000e-02 -2.80921920e-01  -1.75570898e+00  -2.24166380e-01
C     2.435260810300000e+00   4.092293362316359e+00  -2.635235999999992e-01  8.35544940e-01  -5.42424020e-01   3.87972630e-01
C     3.689360274200000e+00   4.803864219663309e+00  -1.637127000000014e-01 -1.06327858e+00   3.72277370e-01  -4.84570890e-01
C     4.905119966199999e+00   4.142276203990725e+00  -3.423420000000021e-02  1.52975661e+00  -6.45445820e-01   5.28794250e-01
C     6.188230951800000e+00   4.853397823996321e+00   1.601805000000000e-01 -1.66685550e+00  -2.02199492e+00  -3.18782990e-01
C     7.409022201799999e+00   4.115871534224049e+00   1.816116000000000e-01 -1.23545940e-01  -8.11821820e-01  -1.68263600e-01
C     8.642660095099998e+00   4.794858210700158e+00   1.189479000000000e-01  5.41090220e-01   1.21797605e+00  -4.86522470e-01
C     9.907872666399999e+00   4.110003526222194e+00  -1.003641000000002e-01 -3.16176396e+00  -2.42714560e-01   1.10002530e+00
C     1.107840853170000e+01   4.841815766351564e+00  -1.854981000000002e-01  1.43550156e+00  -6.17368740e-01  -1.43648970e-01
C     3.696097267100000e+00   6.214642557253530e+00  -1.487487000000023e-01 -1.05416791e+00   1.27927787e+00   1.04572529e+00
C     4.908108482899999e+00   6.916407812695981e+00   9.858900000000000e-02  1.23053810e-01   1.93054843e+00  -7.74522500e-02
C     6.144780692599999e+00   6.240449581676710e+00   2.400441000000000e-01  2.11228460e-01   2.90064170e-01  -5.89805230e-01
C     7.380118154100000e+00   6.940166243114905e+00   2.619705000000000e-01  4.91942720e-01   1.21558440e-01  -2.69201400e-01
C     8.620489539999999e+00   6.246524575292602e+00   1.499979000000000e-01 -5.37149790e-01  -1.50108562e+00   1.15161860e-01
C     9.828938929400000e+00   6.947104103739800e+00   3.666390000000000e-02  6.32442410e-01   3.21109200e-01   2.12765110e-01
C     1.106370958880000e+01   6.257604966071659e+00  -7.648260000000207e-02  9.46266700e-02  -3.22935340e-01  -5.20385540e-01
C     1.228869464190000e+01   6.949735229039002e+00  -9.898559999999890e-02  1.52875236e+00  -1.23507740e-01   3.04302640e-01
