32
Lattice="9.572 0 0 4.786 8.28959516502464 0 0 0 30 " PBC="1 1 1" Properties=species:S:1:pos:R:3:force:R:3 Energy="-256.05755571"
C    -3.189975024311211e-04   3.182244111093501e-04   2.998877278260285e+00  1.56175300e-02  -1.26234700e-02   1.14456400e-02
C     1.196957676374407e+00   6.918472789951496e-01   3.001056308770318e+00 -4.74020200e-02  -6.44427900e-02  -1.35241200e-02
C     2.392727396671075e+00  -1.018781722922972e-03   2.999965529601058e+00  1.88482100e-02   1.00828340e-01   9.52860000e-03
C     3.589667557153941e+00   6.910624479419667e-01   3.000465491463462e+00 -6.90977700e-02  -4.59981900e-02  -1.52247300e-02
C     4.784858920533537e+00   1.138820145203054e-03   2.998821204294097e+00  7.07710600e-02  -1.33231690e-01   2.10541200e-02
C     5.982485142599401e+00   6.899837087407165e-01   3.000629368451944e+00 -4.17620900e-02   1.83988200e-02  -2.56542300e-02
C     7.178485801946268e+00  -7.652230741510372e-04   2.999247619089720e+00  3.24789000e-03  -1.55672700e-02   1.00389900e-02
C     8.374357968041505e+00   6.900878304979684e-01   2.999608511412251e+00  4.80051900e-02   6.87181900e-02  -4.58355000e-03
C     1.196451649276792e+00   2.073509442724388e+00   3.000990569900831e+00 -1.02019500e-02  -8.41026700e-02  -1.21500500e-02
C     2.392515932457294e+00   2.762073325177073e+00   2.998818129055689e+00  3.69985600e-02   1.07793780e-01   2.03796300e-02
C     3.588339752199543e+00   2.071384403147766e+00   2.999323634947612e+00  7.83629700e-02   7.83176500e-02   7.00673000e-03
C     4.785849182123129e+00   2.763585110462047e+00   2.999973095127988e+00 -4.75437200e-02  -3.85281400e-02  -8.64283000e-03
C     5.981939028673805e+00   2.071276406913460e+00   2.999115126594236e+00  2.70109100e-02   6.87299700e-02   1.10669900e-02
C     7.178723421534427e+00   2.763652231767601e+00   2.998994395403689e+00 -2.49867200e-02  -4.01261500e-02   1.01470900e-02
C     8.375500208752541e+00   2.073310885832304e+00   2.999808183056637e+00 -3.29267100e-02  -9.63629400e-02  -2.83047000e-03
C     9.572028950219542e+00   2.762175058593479e+00   2.999785538456063e+00 -2.74341200e-02   1.07048860e-01   3.39997000e-03
C     2.394083949930760e+00   4.144808102109347e+00   3.000444968314651e+00 -6.92232100e-02  -5.24715000e-02  -1.98659200e-02
C     3.589835721951439e+00   4.834921162423447e+00   2.999916707177186e+00 -3.73226100e-02   9.95790900e-02   1.35989800e-02
C     4.784841373801909e+00   4.145726709842263e+00   2.999989456380503e+00  1.27723440e-01  -7.45242900e-02  -5.40610000e-03
C     5.983390998982411e+00   4.835662110653093e+00   2.999400241179575e+00 -1.13806470e-01  -1.54165000e-03   1.07944900e-02
C     7.178049535943708e+00   4.144666949974209e+00   3.000494525796454e+00  1.08403570e-01   1.97037200e-02  -1.66699500e-02
C     8.376673293727933e+00   4.835498924271760e+00   2.999502439536724e+00 -1.35971440e-01  -1.65138000e-02   1.16538600e-02
C     9.571119955526015e+00   4.145050477349746e+00   2.998889542950419e+00  1.00781100e-01  -7.05563400e-02  -3.82700000e-04
C     1.076874156612780e+01   4.835363323835124e+00   2.998875452782598e+00 -1.38933900e-02  -4.27997000e-02   1.28662300e-02
C     3.589696166930540e+00   6.217874738478136e+00   3.001068228079408e+00 -5.88955100e-02  -9.38409200e-02  -2.20164500e-02
C     4.785024124328895e+00   6.907180668284099e+00   2.998805087305432e+00  6.15916200e-02   8.86118500e-02   9.07052000e-03
C     5.981394718475397e+00   6.216723930192257e+00   2.999322516859685e+00  9.18019100e-02   4.73265800e-02  -2.40740000e-03
C     7.179239970527327e+00   6.908653728128751e+00   2.999965955286974e+00 -6.61442100e-02  -1.04590190e-01   3.19363000e-03
C     8.375653328366043e+00   6.216696971844188e+00   3.001153770937154e+00 -3.59638100e-02   1.73899500e-02  -1.95322700e-02
C     9.571168083887168e+00   6.906922514441801e+00   2.999487578661929e+00  2.67050300e-02   1.07143620e-01   4.35224000e-03
C     1.076739990191019e+01   6.216092523744332e+00   2.999684730245783e+00  6.01711400e-02   5.15467600e-02  -5.34666000e-03
C     1.196493201521405e+01   6.907215483010519e+00   2.999793002280038e+00 -4.34644000e-02   6.68452000e-03   4.63972000e-03
