32
Lattice="9.648 0 0 4.824 8.35541309571226 0 0 0 30 " PBC="1 1 1" Properties=species:S:1:pos:R:3:force:R:3 Energy="-257.00609706"
C    -1.021944406030015e-03   6.751641268831564e-04   2.999851443066235e+00  1.38979200e-01  -7.44155800e-02   1.62012000e-03
C     1.206538998008928e+00   6.974373353456244e-01   3.000092852039430e+00 -3.65590300e-02  -1.27990830e-01  -7.53017000e-03
C     2.412002702558348e+00  -1.032212666336255e-03   2.999441474820006e+00  3.02384000e-03   7.97036400e-02   1.64823400e-02
C     3.617999716591991e+00   6.967167273933322e-01   3.000732618555084e+00 -1.52538300e-02  -6.49133600e-02  -1.74364200e-02
C     4.823712830013154e+00  -1.046961531262957e-03   2.999489007185531e+00  4.26364600e-02   1.23122180e-01   1.57527800e-02
C     6.030987939588860e+00   6.955931101155234e-01   2.999884522995904e+00 -2.84966300e-02  -1.72470600e-02   4.39740000e-04
C     7.237040068919490e+00  -1.145943063148561e-03   3.000242523988923e+00 -1.94168000e-02   4.99001100e-02  -4.20705000e-03
C     8.443085712354998e+00   6.956339151868871e-01   3.000116957685197e+00 -8.29592700e-02   4.71113200e-02   5.23050000e-04
C     1.206986817640227e+00   2.087968478631237e+00   3.000056471144585e+00 -2.61538700e-02   9.71349700e-02   5.23678000e-03
C     2.412603988580154e+00   2.785545358507767e+00   2.999922219897705e+00 -4.72875500e-02   4.16979000e-03  -2.25924000e-03
C     3.617288096005798e+00   2.088831001252553e+00   2.999692191870797e+00  6.01250100e-02   9.66782000e-03   1.34483500e-02
C     4.823945491585502e+00   2.784814226181257e+00   3.000815058202274e+00  6.31350000e-03  -3.66489100e-02  -1.85484600e-02
C     6.030647977785724e+00   2.088404629089503e+00   3.000175172302337e+00 -4.61430300e-02  -6.35943000e-03   1.25983000e-03
C     7.235459830304573e+00   2.785023955724056e+00   2.999645383818658e+00  7.86195800e-02   8.10638000e-03  -1.39931000e-03
C     8.442379647504225e+00   2.088540560740233e+00   2.999901332262674e+00 -1.37296200e-02   2.19995300e-02   5.37734000e-03
C     9.648529009783493e+00   2.784927834862577e+00   3.000980292925224e+00  8.09837000e-03   3.24718600e-02  -6.77226000e-03
C     2.411229249305517e+00   4.178288126577598e+00   2.999812766193267e+00  5.40488700e-02  -1.41234900e-02  -2.13110000e-03
C     3.617822606017316e+00   4.874315096741966e+00   3.000055249756880e+00  2.01000000e-06  -4.79850700e-02  -4.98947000e-03
C     4.823794704979996e+00   4.176503989492049e+00   2.999016536778182e+00  2.28295000e-02   7.70501300e-02   2.19246400e-02
C     6.030505059277665e+00   4.874049694078218e+00   3.000473139038003e+00 -3.17929300e-02  -4.60392300e-02  -2.31802000e-02
C     7.237098589595083e+00   4.178147736072885e+00   2.998922146401903e+00 -7.91003100e-02  -3.91768500e-02   1.30242200e-02
C     8.441538952675891e+00   4.874214310884645e+00   2.999361110422305e+00  9.93507700e-02   7.63824000e-03   5.98391000e-03
C     9.649121510050881e+00   4.178780004171920e+00   3.000840342924580e+00 -7.82296300e-02  -6.88701800e-02  -1.38837500e-02
C     1.085393324547905e+01   4.874814614335156e+00   2.999110238869343e+00  1.38594900e-02   2.18206100e-02   1.04156500e-02
C     3.617538665581402e+00   6.266470569086898e+00   3.000583335448049e+00  6.85479900e-02  -2.52105200e-02  -9.32516000e-03
C     4.823965810451646e+00   6.961968391625426e+00   2.999622610109647e+00 -2.04986300e-02   7.71869800e-02   3.03053000e-03
C     6.029576515921249e+00   6.266078432181412e+00   2.999193189377924e+00  2.48259000e-02   1.31664300e-02   1.55941300e-02
C     7.235794743075447e+00   6.962719113452783e+00   3.000663059706464e+00  2.56201100e-02  -3.51913500e-02  -1.84595300e-02
C     8.442714894370289e+00   6.266613826772937e+00   2.999905040274346e+00 -3.90951500e-02   1.98282800e-02   5.84282000e-03
C     9.648671051206923e+00   6.963778387378755e+00   3.000421904072919e+00 -2.21422800e-02  -8.08236800e-02  -1.47092800e-02
C     1.085472475546618e+01   6.267618958369400e+00   2.998892061812361e+00 -2.02955000e-02  -3.32537400e-02   9.34688000e-03
C     1.206090612020039e+01   6.962305316557639e+00   2.999941543972611e+00 -3.97264900e-02   2.81710400e-02  -4.71700000e-04
