26
Lattice="8.88768389401873 1.33226762955019e-15 0 4.44384194700937 7.69696003302603 0 0 0 30 " PBC="1 1 1" Properties=species:S:1:pos:R:3:force:R:3 Energy="-208.01889457"
C     1.297629009173593e+01   7.260166630710335e+00  -1.735589999999831e-02  5.29788700e-02  -2.16404132e+00   3.35550310e-01
C     9.204526759027575e+00   7.081228858476900e+00   5.875170000000000e-02  6.00417830e-01   1.06558186e+00  -3.33253620e-01
C     1.056199244588159e+01   6.685523294249781e+00   1.867350000000000e-01  1.12927450e+00  -1.85053020e-01  -4.45947700e-01
C     1.093761231816734e+01   5.317951989421876e+00   1.775655000000000e-01  8.70974370e-01  -1.19457454e+00  -3.26301450e-01
C     6.808092380083922e+00   6.409640771046489e+00  -8.838300000000032e-02  5.42794690e-01   3.90415882e+00  -2.69630790e-01
C     8.200490308657381e+00   6.139168748926686e+00   1.991070000000000e-02 -1.34784559e+00  -4.35871393e+00   3.97974550e-01
C     8.514594476784151e+00   4.679047580336455e+00   1.288092000000000e-01  1.49830915e+00   1.84338584e+00  -7.24058880e-01
C     9.941603979287581e+00   4.295629750979630e+00   1.033317000000000e-01 -2.50312511e+00   2.16875350e+00   3.27364150e-01
C     1.021569095083390e+01   2.958742377311320e+00  -3.657090000000096e-02  9.48514560e-01  -3.33907641e+00   2.80218000e-02
C     4.440165691652244e+00   5.815952230626904e+00   4.942500000000000e-03  6.76388920e-01   4.36251063e+00   3.47516860e-01
C     5.783599236577041e+00   5.461554711488788e+00   2.017290000000000e-02  1.23948875e+00   9.60900500e-01  -8.29779290e-01
C     6.161149202768446e+00   4.145834978507783e+00   2.249070000000000e-02 -1.21728122e+00  -2.76147793e+00   1.05425421e+00
C     7.479238806013781e+00   3.710750689192780e+00   6.529020000000001e-02  2.33288361e+00   7.09175010e-01   1.92592240e-01
C     7.867255353098964e+00   2.334561637006487e+00   7.178400000000000e-02 -8.99386050e-01  -5.23695000e-02  -3.87285600e-02
C     9.197494198037710e+00   1.911603523370747e+00  -4.253010000000046e-02  1.27712487e+00   1.19939560e+00   7.26138600e-02
C     3.474904561884832e+00   4.892719578036473e+00   1.117728000000000e-01 -4.31897791e+00  -1.34817985e+00  -7.26693210e-01
C     3.781740071109081e+00   3.512122399871398e+00  -6.242100000000050e-02 -1.98333348e+00  -2.67713140e-01   1.66668411e+00
C     5.129443392687695e+00   3.154342759526501e+00   1.000827000000000e-01 -2.20572840e-01  -1.03107885e+00  -1.69060348e+00
C     5.421120379333677e+00   1.766939544454899e+00   3.828420000000000e-02  2.47785373e+00  -7.35231500e-01   4.68587740e-01
C     6.855800264099662e+00   1.378207810862962e+00   1.304856000000000e-01 -2.33295893e+00  -1.93634227e+00  -6.49638110e-01
C     1.162778034617623e+01   7.643605241859241e+00   1.104852000000000e-01 -8.24725540e-01   1.64385609e+00   1.13445380e-01
C     2.682949978584178e+00   2.514451292286833e+00  -7.661939999999845e-02  2.07409434e+00   1.65340909e+00  -4.91469830e-01
C     3.077602070478035e+00   1.163509192634143e+00  -1.689699000000005e-01 -2.43011874e+00  -1.37365828e+00  -2.03609380e-01
C     4.413919957894435e+00   7.592593870169219e-01  -9.503850000000114e-02  1.23914599e+00   7.45781430e-01   8.12968320e-01
C     6.697116892088119e-01   5.173859586757856e-01  -1.151054999999985e-01 -3.05603230e-01   1.48943626e+00  -1.29567320e-01
C     2.019071097356315e+00   1.461300958623629e-01  -2.296142999999979e-01  1.42368446e+00  -9.98834080e-01   1.04170808e+00
