32
Lattice="9.86 0 0 4.93 8.53901048131456 0 0 0 30 " PBC="1 1 1" Properties=species:S:1:pos:R:3:force:R:3 Energy="-253.46573153"
C     5.039946444300000e+00   8.210396823099671e+00  -7.804427999999994e-01 -5.22329922e+00  -4.23875780e-01  -5.77871790e-01
C     1.234466626300000e+00   3.912139966302568e-01  -7.635992999999992e-01  5.26958294e+00   5.25696090e-01   1.96074850e-01
C     7.481902983399999e+00   8.277658010919897e+00  -6.825824999999988e-01  1.16293296e+00  -1.53145495e+00  -8.15878120e-01
C     3.818738806500000e+00   4.168216351587288e-01  -8.023176000000021e-01 -1.76950137e+00   8.20939610e-01  -1.17809368e+00
C     9.975301262399999e+00   8.168367728127006e+00  -9.865026000000015e-01 -1.63739348e+00   5.69235697e+00   5.48603420e-01
C     6.216916551200000e+00   4.257069025136928e-01  -1.002866999999998e+00  1.68034331e+00  -4.83363510e-01   2.56429660e-01
C     1.238354143290000e+01   8.288428521008635e+00  -1.010959199999999e+00  5.32771080e-01  -1.24389324e+00  -5.22174900e-02
C     8.689649157600000e+00   4.513010494056064e-01  -8.349077999999999e-01  3.24494400e-01  -3.46105361e+00  -3.03364830e-01
C     1.264916130400000e+00   1.794121245140224e+00  -9.762564000000005e-01  2.88232779e+00   8.16019240e-01  -1.15583388e+00
C     2.487374213400000e+00   2.575187607789597e+00  -1.312247399999997e+00  2.27841260e+00  -2.08437793e+00   1.89030688e+00
C     3.764232923700000e+00   1.912852684870327e+00  -1.072572899999997e+00 -7.60839970e-01  -3.52965163e+00   7.26882360e-01
C     4.976132129900000e+00   2.566362113507993e+00  -9.651830999999973e-01  1.40821190e+00  -3.65871460e-01  -1.38255088e+00
C     6.279078526799999e+00   1.822509185480984e+00  -9.010293000000011e-01 -3.60080143e+00   1.86168558e+00   6.41580650e-01
C     7.426049830199999e+00   2.600515849895163e+00  -7.452077999999993e-01  1.97362882e+00  -2.43483579e+00  -1.27809094e+00
C     8.669999508700000e+00   1.797249682409781e+00  -7.999568999999980e-01  1.00980873e+00   4.07931511e+00   9.83907800e-02
C     9.978222484600000e+00   2.483446016214363e+00  -9.703683000000005e-01 -4.98853225e+00   2.17537876e+00   5.35143700e-01
C     2.617542876800000e+00   3.965769733962837e+00  -1.470119100000002e+00 -2.41880474e+00   1.91358465e+00   5.79217040e-01
C     3.885263684200000e+00   4.807904879422445e+00  -1.335549900000000e+00 -3.98547217e+00  -6.77982577e+00  -1.25783234e+00
C     5.004111999799999e+00   3.957561353968623e+00  -1.154388900000001e+00  1.06793382e+00   2.09919437e+00   1.47685085e+00
C     6.202970123500000e+00   4.645876045493082e+00  -8.477081999999996e-01 -2.58520100e-01   3.87228684e+00  -1.02192432e+00
C     7.418782122800000e+00   4.021061363842724e+00  -8.339855999999983e-01  6.34754200e-01  -2.72359456e+00   1.04517917e+00
C     8.659995503399999e+00   4.622860765156234e+00  -8.905512000000009e-01  2.58216471e+00   2.74181280e+00  -7.53957770e-01
C     9.874757067599999e+00   3.919727560234886e+00  -1.083979200000002e+00  3.06842937e+00  -2.10982600e-02  -8.66639930e-01
C     1.117181620640000e+01   4.651326752052780e+00  -1.411184100000000e+00 -4.09690100e-01  -2.61219100e-02   8.08470250e-01
C     3.751393182400000e+00   6.142400052279691e+00  -1.321757399999999e+00  1.22235603e+00   2.43182413e+00   1.96206324e+00
C     4.944508004000000e+00   6.773200153326007e+00  -9.228738000000014e-01  3.08416490e+00   2.93105738e+00   1.75908170e-01
C     6.221345170199999e+00   6.150462927535326e+00  -7.981338000000022e-01  9.34877210e-01  -3.13396424e+00  -2.06212750e-01
C     7.569483841799999e+00   6.800511324445238e+00  -7.205304000000012e-01 -3.02905887e+00   1.40616373e+00  -1.69586240e-01
C     8.786663373800000e+00   6.078575047666722e+00  -9.121701000000009e-01 -1.51652458e+00   1.97535770e-01   1.15900170e-01
C     9.995966047600000e+00   6.847586035320431e+00  -1.128837900000001e+00 -8.15627800e-01  -5.51499453e+00   1.05337050e-01
C     1.119782590040000e+01   6.082943263867870e+00  -1.377641400000002e+00 -3.00488480e-01   1.39701351e+00   1.06992633e+00
C     1.239539221620000e+01   6.870531551941657e+00  -1.219529399999999e+00 -4.02640220e-01  -1.20388737e+00  -1.21220958e+00
