32
Lattice="9.86 0 0 4.93 8.53901048131456 0 0 0 30 " PBC="1 1 1" Properties=species:S:1:pos:R:3:force:R:3 Energy="-257.42761756"
C     9.821656234799999e+00   1.347186021012832e-01  -4.805130000000091e-02 -1.14392317e+00  -1.08807620e-01   3.03969480e-01
C     1.171032760000000e+00   8.402145512224464e-01   3.802140000000000e-02  8.39994630e-01  -2.96413710e-01  -1.00708987e+00
C     2.396770081800000e+00   1.264461795284688e-01  -8.473949999999775e-02  1.07961468e+00  -5.34241350e-01   4.65474430e-01
C     3.650405041100000e+00   8.232896347203528e-01  -5.807760000000073e-02 -1.57656100e-02   1.41039911e+00   1.93664390e-01
C     4.902430996300000e+00   1.599149164949336e-01  -5.970900000000157e-02 -9.69336470e-01  -1.32479751e+00  -5.29256510e-01
C     6.121608016399999e+00   8.615345818087008e-01  -8.448209999999889e-02  4.69956870e-01  -1.72637580e-01   4.35686960e-01
C     7.335368346899999e+00   1.140370333286184e-01  -5.594250000000045e-02  1.14555033e+00   1.12106588e+00   1.46486220e-01
C     8.572855879999999e+00   8.477842132327568e-01  -2.965800000001906e-03  9.32598900e-02  -5.99883330e-01  -4.46270750e-01
C     1.106684171640000e+01   2.253465359297152e+00   4.240740000000000e-02 -1.15108684e+00   2.07004330e-01   7.31845110e-01
C     2.415413912100000e+00   2.945277458734010e+00   1.290060000000000e-01  1.48013893e+00   1.59172937e+00  -8.39131060e-01
C     3.681433376500000e+00   2.275926287073639e+00   2.415870000000000e-02 -1.44125950e+00  -1.35593574e+00   2.04069860e-01
C     4.889897900999999e+00   2.994367119912168e+00   1.298700000000000e-03  5.09432630e-01  -7.17284980e-01  -1.06101850e-01
C     6.152449554099999e+00   2.289328947142837e+00  -5.361360000000204e-02 -2.19666189e+00  -8.99036100e-01  -1.21248490e-01
C     7.339190033600000e+00   2.979473719393371e+00  -7.998450000000190e-02  1.79086144e+00   3.22141900e-02   2.92737890e-01
C     8.576349623100000e+00   2.258871321441935e+00  -9.371099999999188e-03  5.92101310e-01   5.49219850e-01  -1.50958840e-01
C     9.833990749700000e+00   2.980483457382631e+00   3.075540000000000e-02 -1.03587968e+00  -1.14524458e+00  -1.64203500e-02
C     1.227632270830000e+01   4.398104360240791e+00   9.677519999999999e-02 -6.07226980e-01  -3.65500040e-01   1.20941450e-01
C     3.634505347400000e+00   5.122849715296914e+00   2.094900000000000e-02  7.12632260e-01  -1.05840216e+00   4.26020710e-01
C     4.861763623500000e+00   4.392982661754887e+00   2.343000000000000e-04  1.43620449e+00   1.05429133e+00  -2.71189740e-01
C     6.148255849600000e+00   5.094505323909601e+00  -8.164770000000132e-02 -2.88352457e+00   7.61098600e-01   1.36168740e-01
C     7.347017493199999e+00   4.390630591318171e+00  -1.115562000000025e-01  3.47028900e-01   2.23135440e-01   1.01435150e-01
C     8.568205805399998e+00   5.096319351295973e+00  -1.060674000000006e-01  7.35018730e-01   4.40697440e-01   2.44510310e-01
C     9.784671374800000e+00   4.378846586075562e+00   2.764170000000000e-02  1.44309486e+00   1.31953035e+00  -2.59963770e-01
C     1.104095325110000e+01   5.118775497226592e+00   7.524599999999999e-02 -3.73089300e-01  -5.39562750e-01  -4.18239850e-01
C     1.353265856810000e+01   6.527311746835079e+00   1.486920000000000e-02 -2.04905790e-01   5.68830350e-01  -7.34665000e-01
C     4.882580893599999e+00   7.249419230773720e+00  -1.142558999999999e-01  2.94295130e-01  -2.24073900e-02   9.46230450e-01
C     6.094114885400000e+00   6.532466149731121e+00  -9.023909999999802e-02  1.82421182e+00  -6.55551940e-01  -4.78790110e-01
C     7.355902289900000e+00   7.224139404857576e+00  -1.300017000000011e-01 -7.91181070e-01   9.31154350e-01   4.36508600e-02
C     8.597761747000000e+00   6.530495858452966e+00  -1.420808999999998e-01 -4.19013110e-01  -1.75207870e-01   2.58326790e-01
C     9.821332629600001e+00   7.258576124052053e+00  -9.467070000000177e-02  7.38956920e-01  -1.64717600e-02   1.61355160e-01
C     1.106252170530000e+01   6.539094215055803e+00  -2.402490000000057e-02  8.58313600e-02   8.40216800e-02   2.10806720e-01
C     1.233057730900000e+01   7.245444492175490e+00  -1.215330000000137e-02 -2.38533119e+00  -3.07005870e-01  -4.40545200e-02
