2
Lattice="2.485 0 0 1.2425 2.15207312840433 0 0 0 30 " PBC="1 1 1" Properties=species:S:1:pos:R:3:force:R:3 Energy="-16.12204088"
C     0.000000000000000e+00   0.000000000000000e+00   3.000000000000000e+00 -0.00000000e+00   0.00000000e+00   0.00000000e+00
C     1.242500000000000e+00   7.173577094681099e-01   3.000000000000000e+00  0.00000000e+00  -0.00000000e+00  -0.00000000e+00
