32
Lattice="9.86 0 0 4.93 8.53901048131456 0 0 0 30 " PBC="1 1 1" Properties=species:S:1:pos:R:3:force:R:3 Energy="-257.05585186"
C     1.224571376800000e+00   8.451984300792031e-01   3.460861800000000e+00  9.25802960e-01   1.02419947e+00  -5.83185920e-01
C     2.482117650200000e+00   1.586629609343979e+00   3.462216600000000e+00 -1.87395370e-01  -2.75870256e+00  -1.40825350e-01
C     3.695093716300000e+00   8.207286146971913e-01   3.347031000000000e+00  1.22395723e+00   1.50589742e+00   3.12771880e-01
C     4.956417404999999e+00   1.553948254533875e+00   3.393702000000000e+00 -1.12046478e+00  -3.55371120e-01  -2.49627920e-01
C     6.199602588399999e+00   8.641304409946208e-01   3.363702600000000e+00 -1.27542953e+00   4.32720480e-01  -4.69969920e-01
C     7.422480312999999e+00   1.574455029762014e+00   3.303433200000000e+00  4.06795790e-01  -9.97497540e-01   2.05241250e-01
C     8.638509183000000e+00   8.324350003345375e-01   3.316915500000000e+00  7.74955740e-01  -8.45847200e-02   4.48467250e-01
C     9.859548461299999e+00   1.568333327758798e+00   3.459776100000000e+00  1.91620000e-01  -5.20320010e-01  -5.99602960e-01
C     2.533408630700000e+00   2.970131785757937e+00   3.558887700000000e+00 -2.20959651e+00   1.10315579e+00   2.17819020e-01
C     3.718288478900000e+00   3.695186338383540e+00   3.582165600000000e+00  8.11045330e-01   7.17138230e-01  -6.61942890e-01
C     4.917914203600000e+00   2.962661944780137e+00   3.425436600000000e+00  1.99739111e+00   1.26715339e+00   2.67408110e-01
C     6.190135361499999e+00   3.700347145537442e+00   3.338023500000000e+00 -9.38598140e-01  -7.62200930e-01   5.23316200e-02
C     7.439621972299999e+00   2.991766051929855e+00   3.298733700000000e+00 -1.72861898e+00  -1.53915610e-01   2.34974820e-01
C     8.620014189399999e+00   3.704992281848457e+00   3.373556100000000e+00  2.66026808e+00   3.66849970e-01   7.64390200e-02
C     9.902187193200000e+00   2.990268565661978e+00   3.458165700000000e+00 -9.26796380e-01   5.37929290e-01   2.34775790e-01
C     1.114813598670000e+01   3.687802656021484e+00   3.557456700000000e+00 -7.97086370e-01   8.52013260e-01   1.03946700e-01
C     3.711005291300000e+00   5.143669274478935e+00   3.554749200000000e+00 -7.11970980e-01  -1.21966630e+00  -2.05911430e-01
C     4.932058077800000e+00   5.799410715065967e+00   3.422318700000000e+00  1.09243965e+00   1.30990392e+00  -2.97544810e-01
C     6.156452221099999e+00   5.112404370727253e+00   3.313332900000000e+00  1.79952204e+00  -1.99126700e-02   3.13959560e-01
C     7.435263605799999e+00   5.858249791459666e+00   3.272373300000000e+00 -2.08136514e+00  -8.02823420e-01  -4.01382600e-02
C     8.638908118600000e+00   5.132819351592732e+00   3.365786400000000e+00  4.28409410e-01  -3.10951550e-01  -7.54392300e-02
C     9.892645868399999e+00   5.816795286502201e+00   3.442641900000000e+00 -7.26898850e-01   8.60111960e-01  -6.13931560e-01
C     1.111115092950000e+01   5.152600567100387e+00   3.572762700000000e+00  8.90490320e-01  -2.01582906e+00  -3.80657580e-01
C     1.233848014830000e+01   5.865447238003152e+00   3.525918900000000e+00  3.75296200e-02   3.12777170e-01   2.24010990e-01
C     4.984028165800000e+00   7.229220884604118e+00   3.360847500000000e+00 -1.21907895e+00  -5.57123710e-01  -6.29328300e-02
C     6.170881197200000e+00   7.974211464997378e+00   3.311272200000000e+00  6.16172020e-01   1.48175400e-02   3.16062030e-01
C     7.396243395299999e+00   7.272818083461330e+00   3.232851900000000e+00  1.30029816e+00  -2.67883610e-01   3.06520150e-01
C     8.657013987299999e+00   7.959629311410577e+00   3.245288100000000e+00 -6.97355140e-01  -5.32400570e-01   8.89893000e-02
C     9.902622906600000e+00   7.235517550932070e+00   3.276990900000000e+00 -1.43081473e+00   5.67797240e-01   8.68513470e-01
C     1.107296245930000e+01   7.998007723232726e+00   3.364258800000000e+00  2.69734606e+00  -7.89028570e-01  -1.18558450e-01
C     1.234826033160000e+01   7.302388762143675e+00   3.422039400000000e+00 -6.97736490e-01  -1.96013565e+00  -1.61370640e-01
C     1.361409561120000e+01   7.902327513073594e+00   3.336213000000000e+00 -1.10483718e+00   3.23588248e+00   3.89408770e-01
