32
Lattice="9.62 0 0 4.81 8.3311643844063 0 0 0 30 " PBC="1 1 1" Properties=species:S:1:pos:R:3:force:R:3 Energy="-256.69323807"
C     1.173964769452160e-04   5.175304261256688e-04   3.000247145919452e+00  1.05709500e-02  -7.89171100e-02  -3.74865000e-03
C     1.202607944055107e+00   6.940800884929349e-01   3.000350875341925e+00 -2.00466500e-02   4.41960600e-02  -2.15743000e-03
C     2.404849897243087e+00   9.422140668809018e-04   3.001115108939005e+00  1.98599400e-02  -1.07353910e-01  -7.91239000e-03
C     3.607219676852775e+00   6.949652974171137e-01   3.000069492282006e+00  1.47225000e-03  -4.32322000e-03  -3.06326000e-03
C     4.810163647169430e+00   1.023559915093850e-03   2.998968341719966e+00 -7.80446700e-02  -8.42156000e-02   2.31561000e-02
C     6.011507045965781e+00   6.931098239463688e-01   3.000799950728543e+00  1.07498220e-01   1.08923800e-01  -5.72687000e-03
C     7.215668966986034e+00   8.898792165336001e-04   3.001151077113070e+00 -4.76686500e-02  -1.00626930e-01  -1.06309400e-02
C     8.418219476346939e+00   6.941710565667432e-01   3.000674672668969e+00 -2.55393000e-02   6.06684000e-03   3.62105000e-03
C     1.201581949994215e+00   2.083127606157867e+00   2.999142264656219e+00  1.15311390e-01  -3.76555300e-02   5.86208000e-03
C     2.406069428745504e+00   2.777107340015908e+00   2.999794761965677e+00 -1.25817830e-01   1.49050600e-02  -2.28860000e-04
C     3.606933756247112e+00   2.083450628124664e+00   2.999894541548981e+00  5.60252600e-02  -5.57163400e-02   2.02110000e-03
C     4.810164583647029e+00   2.775897484272149e+00   3.000282913370468e+00 -1.31840500e-02   6.89401500e-02   4.02855000e-03
C     6.012769590213146e+00   2.083072322364058e+00   3.001067214128827e+00 -6.26146000e-03  -7.79298600e-02  -7.91963000e-03
C     7.215437277819344e+00   2.776716911302979e+00   2.999848561848887e+00 -7.45137000e-03  -3.22001700e-02   1.56646500e-02
C     8.417975303026205e+00   2.081733438360843e+00   3.000401073950647e+00 -1.24150100e-02   6.33896100e-02  -7.94368000e-03
C     9.620410384076431e+00   2.776358264861482e+00   2.999107567745860e+00 -3.46628700e-02   2.11178600e-02   1.25818600e-02
C     2.404556105183973e+00   4.165254416607266e+00   3.000168823232855e+00  1.42233100e-02   8.29236600e-02  -9.90032000e-03
C     3.607352336639877e+00   4.861020429984206e+00   2.999042917769849e+00 -6.84645000e-03  -1.09738830e-01   1.89452400e-02
C     4.809299848598408e+00   4.164767641593662e+00   3.000368225522744e+00  1.03185300e-02   3.18048400e-02  -1.44527700e-02
C     6.011906666304108e+00   4.859764868312394e+00   2.999385343548764e+00 -9.18650000e-03  -6.10053000e-02   1.02362100e-02
C     7.214179821848667e+00   4.164645144417650e+00   3.000375972662664e+00  2.47611000e-02   4.38222400e-02  -1.35108800e-02
C     8.416629829997994e+00   4.859116171483515e+00   2.999684284035439e+00  6.31800200e-02  -2.46681600e-02   1.10558800e-02
C     9.620771988717783e+00   4.164613220771431e+00   3.000812757502535e+00 -9.27546900e-02   6.06595000e-02  -1.75777100e-02
C     1.082152861667099e+01   4.860991775917031e+00   2.999924606139963e+00  5.69894000e-02  -8.80743600e-02   2.58321000e-03
C     3.608646610417098e+00   6.248625441779710e+00   3.000575428908453e+00 -1.03446240e-01  -1.00930700e-02  -2.52736800e-02
C     4.808891746640371e+00   6.942114637750245e+00   2.999086572729718e+00  1.15136710e-01   7.13203200e-02   1.66257400e-02
C     6.012009717175040e+00   6.247456328468808e+00   2.999562249546443e+00 -1.36303000e-03   5.17013400e-02  -3.32036000e-03
C     7.214793802501807e+00   6.941588761733967e+00   3.000462895447085e+00 -7.15211000e-03   7.87757300e-02  -1.33996000e-03
C     8.417660176497366e+00   6.247809050030432e+00   3.000055911568587e+00 -4.26828900e-02  -5.97952000e-03   7.21214000e-03
C     9.619023426928374e+00   6.942819638327062e+00   3.001032457355171e+00  5.19948000e-02   2.69919400e-02  -2.44174800e-02
C     1.082206365833065e+01   6.248775910268535e+00   2.999114473859083e+00  5.53911000e-03   3.11176000e-02   1.20478100e-02
C     1.202552026692590e+01   6.942130508658787e+00   2.999238075225627e+00 -1.83572000e-02   7.18413700e-02   1.34832600e-02
