32
Lattice="9.86 0 0 4.93 8.53901048131456 0 0 0 30 " PBC="1 1 1" Properties=species:S:1:pos:R:3:force:R:3 Energy="-255.54425884"
C     5.034416956299999e+00   8.095474038213963e+00  -5.394906000000006e-01 -1.66090552e+00   6.34039290e-01  -3.66270620e-01
C     1.305804022100000e+00   2.820775868062152e-01  -6.471408000000025e-01  1.04279695e+00   8.75120980e-01   2.42577440e+00
C     7.456878155499999e+00   8.118755308727263e+00  -4.145076000000003e-01 -5.83676040e-01  -5.44858670e-01  -1.90527455e+00
C     3.701492166100000e+00   2.856489425493704e-01  -4.229678999999997e-01  3.95899936e+00   1.26159991e+00   1.86072750e-01
C     9.945403228099998e+00   8.116910711683374e+00  -4.947848999999991e-01 -2.58178011e+00   1.47359010e-01   6.25148220e-01
C     6.193285237100000e+00   3.358525176446440e-01  -5.325464999999987e-01  2.09171194e+00  -3.95700700e+00   4.70980180e-01
C     1.234985696140000e+01   8.112017602508018e+00  -4.266890999999973e-01  2.15698184e+00   1.62875288e+00  -1.07432834e+00
C     8.718477381900000e+00   2.867562814284168e-01  -5.610338999999982e-01 -8.32020810e-01   1.49044890e-01   8.03743000e-01
C     1.373920994000000e+00   1.741536823142917e+00  -4.731194999999992e-01 -1.45092348e+00  -1.42230667e+00  -8.38958820e-01
C     2.542072563400000e+00   2.498003492060877e+00  -4.067744999999974e-01  2.19621748e+00  -2.92874050e+00   1.03976065e+00
C     3.784098950300000e+00   1.729774080036402e+00  -3.442365000000009e-01 -4.22097780e-01  -9.21949120e-01  -1.15001319e+00
C     5.065741880499999e+00   2.346924231270018e+00  -4.368350999999997e-01 -1.98935577e+00   3.25194168e+00   1.22698140e-01
C     6.293160973200000e+00   1.688547310488438e+00  -5.829747000000012e-01 -1.03597641e+00   2.16026322e+00   7.63112110e-01
C     7.489560998900000e+00   2.433908740106844e+00  -5.395175999999999e-01  1.53322156e+00   9.40958280e-01  -3.30086800e-02
C     8.745702074399999e+00   1.745548450266421e+00  -5.300720999999982e-01 -1.18127460e-01  -1.63675851e+00  -3.28315390e-01
C     1.001163013660000e+01   2.430100597603079e+00  -4.704518999999969e-01 -2.59181611e+00   2.60543350e-01  -1.61668190e-01
C     2.535898428600000e+00   3.875263224863430e+00  -2.722991999999991e-01  1.49032420e-01  -1.14647847e+00  -9.18362420e-01
C     3.721601093799999e+00   4.552923195281260e+00  -3.806666999999990e-01  3.85113718e+00  -2.38405800e-02   1.53600000e-04
C     5.007011677900000e+00   3.814192819641204e+00  -4.012098000000002e-01 -6.25351660e-01  -1.85352360e-01  -6.76295100e-02
C     6.225939042800000e+00   4.547581361105182e+00  -4.313544000000000e-01 -1.83187350e-01   5.97188660e-01  -8.08127700e-01
C     7.477765135800000e+00   3.891974068372790e+00  -4.956437999999999e-01 -1.70394380e-01  -1.46860987e+00  -1.30728980e-01
C     8.687365039299999e+00   4.635386554239242e+00  -5.200242000000017e-01  1.19066878e+00  -4.07674112e+00   5.64146140e-01
C     9.933732488399999e+00   3.838447110398701e+00  -4.263729000000005e-01  5.88287270e-01   1.31800876e+00  -2.02578370e-01
C     1.120223558820000e+01   4.514290320946807e+00  -3.425817000000002e-01 -3.88013433e+00   2.95923529e+00   2.87763290e-01
C     3.770035188600000e+00   5.952337390774175e+00  -5.020311000000000e-01 -3.91254720e-01   1.64555754e+00   1.79733940e+00
C     5.022002181000000e+00   6.663020788761937e+00  -4.315524000000011e-01 -6.55782380e-01   6.06892370e-01  -1.48518048e+00
C     6.228450581999999e+00   5.974004275966126e+00  -5.255141999999999e-01  2.43334432e+00   1.07030830e-01   6.68328200e-01
C     7.560917128700000e+00   6.713484205946118e+00  -5.474003999999972e-01 -5.79785364e+00  -1.50407090e-01   6.49207810e-01
C     8.709484864699998e+00   6.007099858174615e+00  -5.050106999999997e-01  1.28363457e+00  -7.37526400e-02   1.41139060e-01
C     9.938593221900000e+00   6.663451069500026e+00  -4.212105000000008e-01  2.83328830e-01   2.43371476e+00  -1.62985010e-01
C     1.111742543910000e+01   5.961437670413025e+00  -3.142572000000001e-01  3.51355735e+00  -1.78568360e-01  -6.06716470e-01
C     1.239976990830000e+01   6.722660226607925e+00  -3.717036000000000e-01 -1.30228189e+00  -2.26188073e+00  -3.05220260e-01
