32
Lattice="9.86 0 0 4.93 8.53901048131456 0 0 0 30 " PBC="1 1 1" Properties=species:S:1:pos:R:3:force:R:3 Energy="-252.06890967"
C     9.677221334599999e+00   4.206292653218656e-01   4.222777200000000e+00  4.03595598e+00  -3.39599807e+00   1.28442858e+00
C     1.209689728100000e+00   9.984223487422184e-01   4.125323100000000e+00 -2.46786281e+00   1.82539916e+00  -1.99929980e-01
C     2.418178064500000e+00   2.926406843303944e-01   4.538154600000000e+00 -2.02955006e+00   2.89545460e-01  -2.13548170e-01
C     3.599854891700000e+00   1.052588707821051e+00   4.563432300000001e+00  1.08606591e+00  -9.85189160e-01  -6.88618980e-01
C     4.832101193900000e+00   3.378943658306216e-01   4.660230600000000e+00  1.83546916e+00  -2.91277821e+00   4.72211560e-01
C     6.146908924299999e+00   9.504069804725496e-01   4.605162300000000e+00 -3.76648866e+00   2.30045047e+00  -1.14255368e+00
C     7.325286891299999e+00   2.814147888127576e-01   4.437918900000001e+00  3.55968770e-01  -4.68474550e-01  -3.10605980e-01
C     8.426820455300000e+00   1.091984286571578e+00   4.045536600000000e+00  2.93668037e+00  -2.61267501e+00   1.93522658e+00
C     1.111899312980000e+01   2.488675306232315e+00   3.765583800000000e+00 -3.03296020e+00  -2.97879314e+00   1.76021308e+00
C     2.489554604499999e+00   3.166522366369762e+00   3.892460400000000e+00 -1.83949641e+00   7.11049200e-02   8.93925370e-01
C     3.639330584900000e+00   2.435742577997529e+00   4.293675000000000e+00  2.48299400e-02   1.26052710e-01   2.81177180e-01
C     4.863194408100000e+00   3.091044344934947e+00   4.547641800000000e+00 -1.72168060e-01   1.60713887e+00  -2.59323260e-01
C     6.093825247900000e+00   2.404052089963524e+00   4.466071200000000e+00 -3.45459920e-01  -5.10184400e-01   9.57360580e-01
C     7.217609775300001e+00   3.225882663963159e+00   4.356243000000000e+00  2.87381282e+00  -1.19724214e+00   1.11386939e+00
C     8.523661924299999e+00   2.460733529189135e+00   4.104725100000000e+00 -2.49681646e+00   3.31880007e+00  -5.48565360e-01
C     9.725424360300000e+00   3.180830673890470e+00   3.901971300000000e+00  3.27501270e+00  -1.53266237e+00  -1.92567440e-01
C     1.221831253220000e+01   4.571423303046600e+00   4.029648600000000e+00  4.26244638e+00   4.91480760e-01   3.89422580e-01
C     3.646269313399999e+00   5.286544766341238e+00   4.351357500000000e+00 -1.30944386e+00  -3.12594312e+00   4.86274800e-01
C     4.823129284100000e+00   4.529276882069940e+00   4.697189400000000e+00  2.81742900e-02   1.72299636e+00  -1.91095539e+00
C     6.003725751099999e+00   5.393494591751667e+00   4.797725700000000e+00  1.70372938e+00  -6.05165079e+00   8.50930500e-01
C     7.232665896700000e+00   4.598907901468681e+00   4.768644900000000e+00  2.07276803e+00  -2.65661470e-01  -2.75590453e+00
C     8.587822275400001e+00   5.226600058870591e+00   4.574810400000000e+00 -2.68277698e+00  -3.02953400e-02   7.42842900e-01
C     9.790309766500000e+00   4.564876016761060e+00   4.105870500000000e+00 -2.26707759e+00   1.26655990e-01   9.55126550e-01
C     1.101513375650000e+01   5.242813675799701e+00   4.100887200000000e+00 -9.42358000e-03   1.18238212e+00  -1.52530230e-01
C     1.356874424540000e+01   6.654462992458882e+00   4.467173400000000e+00 -2.64433421e+00   2.51771344e+00   9.02428780e-01
C     4.839327193500000e+00   7.417376187338718e+00   4.723881000000000e+00  6.64490720e-01   3.51836291e+00  -2.70599196e+00
C     6.095522696200000e+00   6.739702127553596e+00   4.831841100000000e+00 -2.41118085e+00   2.99726141e+00   2.02356710e-01
C     7.295988640800000e+00   7.440084234078496e+00   4.868073300000000e+00  2.30553311e+00  -1.04590524e+00  -6.40489830e-01
C     8.517379773199998e+00   6.600264355920435e+00   4.841710500000000e+00  2.56737184e+00   3.72384412e+00  -1.45781287e+00
C     9.795611044799999e+00   7.376859863462689e+00   4.640556900000000e+00 -6.19121040e-01   4.21729000e-02  -3.51301900e-01
C     1.105884175610000e+01   6.639794594866233e+00   4.304752800000000e+00 -8.20720080e-01   3.25731102e+00   2.50636279e+00
C     1.231603859110000e+01   7.405730001725255e+00   4.518653700000000e+00 -1.11342862e+00  -2.00521971e+00  -2.20345837e+00
