32
Lattice="9.86 0 0 4.93 8.53901048131456 0 0 0 30 " PBC="1 1 1" Properties=species:S:1:pos:R:3:force:R:3 Energy="-255.84783667"
C     4.966135815400000e+00   8.279238923320165e+00  -5.566073999999972e-01 -6.11435590e-01  -1.45907500e-02  -5.87496630e-01
C     1.261520346400000e+00   4.474094807694512e-01  -5.966576999999980e-01  7.58889550e-01   1.17582820e-01   8.57487500e-02
C     7.425388618600000e+00   8.266838743081319e+00  -5.226293999999996e-01  3.81465590e-01   6.37798140e-01  -8.08938820e-01
C     3.726184514799999e+00   4.488537690020384e-01  -6.644073000000006e-01  1.27442600e-02  -7.61925000e-02   7.10900480e-01
C     9.891581382800000e+00   8.266448851862801e+00  -6.827936999999977e-01  5.97158100e-02   3.75952565e+00  -2.51576380e-01
C     6.176217133400000e+00   4.900722557098368e-01  -7.330125000000010e-01  1.44538397e+00  -4.48788450e-01  -1.76014700e-02
C     1.232649881860000e+01   8.299511729661152e+00  -7.614812999999998e-01  1.39398655e+00  -1.39036062e+00   6.64205360e-01
C     8.645560956399999e+00   4.572219992724384e-01  -6.072303000000012e-01 -1.71278300e-01  -1.19590063e+00  -1.58870520e-01
C     1.309794955700000e+00   1.869630775523711e+00  -7.934951999999988e-01 -9.37174990e-01  -1.99840370e-01   6.43641520e-01
C     2.526824270600000e+00   2.590679934503461e+00  -8.550882000000009e-01 -1.25025750e-01   2.94653310e-01   2.18580510e-01
C     3.775768827899999e+00   1.898381623809871e+00  -7.077951000000020e-01 -2.69840973e+00  -1.86975112e+00  -4.77654330e-01
C     4.927800727000000e+00   2.598394076571093e+00  -6.635106000000022e-01  4.16230091e+00   1.97117389e+00  -9.96768100e-01
C     6.270636493400000e+00   1.915528213024026e+00  -7.150281000000014e-01 -4.35585198e+00  -3.36862670e-01   1.16748272e+00
C     7.444187842499999e+00   2.627874583302769e+00  -5.829149999999998e-01  1.46748828e+00  -5.92050040e-01  -8.56468710e-01
C     8.666699613200000e+00   1.841011171828629e+00  -5.481480000000012e-01  1.05351315e+00   2.99725003e+00  -1.18904739e+00
C     9.938847067599999e+00   2.578815833342549e+00  -7.490787000000019e-01 -1.48372362e+00   2.89831100e-01   1.25274752e+00
C     2.470777713500000e+00   4.006026130359854e+00  -9.595248000000005e-01  1.88969269e+00   1.21980086e+00   4.69621640e-01
C     3.772134579800000e+00   4.778255214893160e+00  -9.302421000000010e-01 -3.33574465e+00  -3.27052651e+00  -1.32367690e-01
C     4.927354857800000e+00   4.063378821199298e+00  -7.618410000000004e-01  2.20070296e+00  -2.25080614e+00   9.19703890e-01
C     6.183458268099999e+00   4.734336607681481e+00  -5.748968999999988e-01  6.89751140e-01   3.32272900e-02  -1.91409407e+00
C     7.441185965500000e+00   4.053270255202968e+00  -6.939263999999987e-01 -4.57364930e-01  -1.30223913e+00   1.37214608e+00
C     8.696600359000000e+00   4.700465683321408e+00  -7.215375000000002e-01 -2.30686573e+00   2.79011054e+00   4.01395480e-01
C     9.889371756799999e+00   4.040175768021993e+00  -6.998810999999989e-01  2.37769389e+00  -2.35550627e+00  -1.35076735e+00
C     1.112199421800000e+01   4.755621884495082e+00  -8.685665999999976e-01 -3.77234600e-02  -1.16718674e+00  -3.76110850e-01
C     3.736964157000000e+00   6.131718262509840e+00  -9.110052000000017e-01  2.20135752e+00   2.64071805e+00   1.41240743e+00
C     4.972858905699999e+00   6.863497029718128e+00  -6.546410999999992e-01  1.67290750e-01  -4.42109550e-01  -5.04643020e-01
C     6.227121749800000e+00   6.146730355274309e+00  -6.237239999999993e-01 -2.10175936e+00   2.13775000e-02   8.15065120e-01
C     7.437327106600000e+00   6.833880411159401e+00  -5.194146000000011e-01  9.86682190e-01   8.77961780e-01  -8.20972350e-01
C     8.659039970799999e+00   6.145663662085147e+00  -6.950372999999992e-01  2.43020932e+00   5.66065410e-01   6.02028390e-01
C     9.965575752800000e+00   6.926181478701285e+00  -7.276455000000013e-01 -2.55731054e+00  -4.74451812e+00  -6.44336500e-01
C     1.116865656940000e+01   6.169324064663760e+00  -9.322883999999974e-01 -1.07227420e+00  -1.76360070e-01   1.41634760e+00
C     1.239863521950000e+01   6.809303858146389e+00  -8.256054000000006e-01 -1.42692570e+00   3.61651331e+00  -1.06430829e+00
