32
Lattice="9.86 0 0 4.93 8.53901048131456 0 0 0 30 " PBC="1 1 1" Properties=species:S:1:pos:R:3:force:R:3 Energy="-257.00464568"
C     9.860867778599999e+00   2.546860635983664e-01  -7.981080000000063e-02 -6.00021400e-02  -5.00230750e-01   1.35628690e-01
C     1.251409951700000e+00   9.523448235108808e-01   3.444000000000000e-02 -8.21315840e-01  -3.82135550e-01  -8.41094190e-01
C     2.461375661200000e+00   2.368029847303120e-01  -1.367130000000003e-01  3.67813900e-02  -3.86249140e-01   2.62236110e-01
C     3.672053607800000e+00   9.667577339099680e-01  -8.273189999999886e-02  9.03150420e-01  -5.58461270e-01   4.05630460e-01
C     4.914207484499999e+00   2.415522969691832e-01  -1.210686000000010e-01  1.04874420e-01   1.43739902e+00  -2.54985600e-01
C     6.126833520600000e+00   9.694427403652992e-01  -1.045995000000026e-01  1.55409838e+00   6.83833800e-02   2.92047000e-03
C     7.389057575200000e+00   2.205704965880416e-01  -8.982330000000260e-02 -6.05314400e-01   1.07669393e+00   6.26485200e-02
C     8.611263291500000e+00   9.514010920726312e-01  -8.424690000000012e-02  6.34805820e-01   3.88953090e-01   1.80511860e-01
C     1.111645644760000e+01   2.359053810266754e+00   1.751370000000000e-01 -6.34803660e-01   8.24597790e-01   4.80668020e-01
C     2.481356063800000e+00   3.079514204473907e+00   3.319101000000000e-01 -4.38502410e-01  -2.39175040e-01  -1.08451722e+00
C     3.718689780900000e+00   2.380056616613676e+00   1.317492000000000e-01 -1.52319520e+00  -3.75501350e-01  -3.23300000e-05
C     4.904230347700000e+00   3.097673007990361e+00   2.967960000000000e-02  1.65876168e+00   1.39145089e+00   8.90040400e-02
C     6.147309141700000e+00   2.420264767601481e+00  -9.797700000000020e-02  3.52440610e-01  -1.18548423e+00  -2.02702260e-01
C     7.405363944599999e+00   3.131654939486674e+00  -1.663901999999986e-01 -2.94929840e-01  -2.13826904e+00   5.92233250e-01
C     8.646874900000000e+00   2.391445863401795e+00  -6.302639999999826e-02 -1.00417515e+00  -3.20598970e-01  -6.41617800e-02
C     9.864080413099998e+00   3.088130492998751e+00   1.112235000000000e-01  4.76410880e-01  -1.35166900e-02  -2.41323020e-01
C     1.229607071070000e+01   4.492788836387852e+00   3.271176000000000e-01  1.18559817e+00   1.36022163e+00  -2.31438240e-01
C     3.705464957300000e+00   5.238545024460748e+00   1.998930000000000e-01 -1.44346481e+00  -8.46961470e-01   3.07841740e-01
C     4.929486885599999e+00   4.563118773794381e+00   5.234399999999999e-02 -8.87466120e-01  -2.42827935e+00  -2.07213510e-01
C     6.130624542700000e+00   5.216956868945421e+00  -1.852277999999998e-01  1.82829432e+00   7.50010140e-01   2.42473350e-01
C     7.393429203400000e+00   4.510314728447528e+00  -1.963004999999995e-01 -3.74494000e-02   1.26036041e+00  -3.60410400e-02
C     8.647668235599999e+00   5.211593943413457e+00  -1.429502999999990e-01 -1.39809239e+00   1.34069427e+00  -6.48110400e-02
C     9.841455213400000e+00   4.531568667092667e+00   9.157530000000000e-02  6.55583260e-01  -1.47287065e+00   3.09233100e-02
C     1.106142926660000e+01   5.226959721992008e+00   2.188389000000000e-01  7.74533800e-01   1.62268450e-01  -4.51277920e-01
C     1.355285766550000e+01   6.635205218293652e+00   1.313715000000000e-01  1.41200562e+00   1.05367553e+00  -1.37409972e+00
C     4.938389380999999e+00   7.358686970578944e+00  -1.263654000000010e-01 -3.15498820e-01  -1.29442060e-01   8.32718500e-01
C     6.177908172700000e+00   6.639518272487100e+00  -2.362545000000011e-01 -1.49256390e+00  -1.43441870e-01   2.86336550e-01
C     7.397885824799999e+00   7.325732367433480e+00  -2.756580000000000e-01  4.50225270e-01   1.78900869e+00   3.25543150e-01
C     8.631681428800000e+00   6.653182653227510e+00  -2.189583000000006e-01  1.20200342e+00  -5.96965750e-01   9.18074900e-02
C     9.894255365499999e+00   7.385924450037733e+00  -1.474626000000008e-01 -2.00526886e+00  -1.62500971e+00   2.13721700e-01
C     1.107815976390000e+01   6.645851144219487e+00   2.658480000000000e-02  1.36538350e+00   4.38791000e-03   3.01612870e-01
C     1.234616059530000e+01   7.341377286264621e+00   2.722230000000000e-02 -1.63290802e+00   4.34487740e-01   2.09237790e-01
