26
Lattice="8.88768389401873 1.33226762955019e-15 0 4.44384194700937 7.69696003302603 0 0 0 30 " PBC="1 1 1" Properties=species:S:1:pos:R:3:force:R:3 Energy="-207.12533311"
C     8.311244273001991e-01   1.025324745580349e+00   3.475027200000000e+00 -1.07228501e+00   6.05879860e-01  -4.71425210e-01
C     3.223783850575344e+00   4.452807601451453e-01   3.522109500000000e+00 -6.81840200e-02   2.39988446e+00  -5.00167550e-01
C     4.605491673400537e+00   8.438688359034991e-01   3.398314800000000e+00 -1.22939061e+00   1.42536678e+00  -8.99544940e-01
C     1.002450123105841e+01   7.610854599961992e+00   3.146056500000000e+00  2.64831080e+00  -2.86545465e+00   1.14013559e+00
C     7.013285889136169e+00   2.678672169064507e-01   3.185964600000000e+00 -2.36133806e+00   1.14013286e+00  -2.18825660e-01
C     1.242379562137328e+01   6.949089295952267e+00   3.222740700000000e+00  1.29334721e+00   2.48369370e-01   3.33969070e-01
C     4.908430871532991e+00   7.294406711342991e+00   3.366870000000000e+00  1.50001899e+00   1.69368650e+00   4.73361280e-01
C     5.985408764511964e+00   6.283673631678714e+00   3.417152100000000e+00 -1.42299161e+00   5.38109153e+00   8.25392380e-01
C     7.305513295204101e+00   6.821638413599509e+00   3.433419300000000e+00  1.54444353e+00  -3.60591952e+00  -4.86790830e-01
C     8.387441272606264e+00   5.816778268377322e+00   3.275189100000000e+00 -2.69247352e+00  -1.12743325e+00   6.76877530e-01
C     9.719852445733064e+00   6.150680861134756e+00   3.188742600000000e+00  1.00202669e+00   3.13805725e+00  -5.98573060e-01
C     1.075970315026637e+01   5.208177714565216e+00   3.121279800000000e+00 -1.10410989e+00  -2.14821557e+00   1.60323560e-01
C     3.214312382493757e+00   5.563340234560712e+00   3.222651600000000e+00 -9.50671330e-01   2.24849662e+00   8.65416100e-02
C     4.215359459190849e+00   4.663210238409127e+00   3.435837300000000e+00  1.24951435e+00  -3.02656836e+00  -4.79512590e-01
C     5.574824386575538e+00   5.003398014787858e+00   3.566188800000000e+00  1.12049237e+00  -2.11033042e+00  -2.59360018e+00
C     6.547156334203667e+00   4.002281286076262e+00   3.239485500000000e+00  3.58279644e+00   1.56137942e+00   2.93843344e+00
C     8.026904198029522e+00   4.416375195693452e+00   3.315810900000000e+00 -2.05713198e+00   3.14205710e-01  -5.96114770e-01
C     9.063944972400975e+00   3.438172624869568e+00   3.378024300000000e+00 -1.20730610e+00   2.01077330e-01  -9.71478030e-01
C     1.041428775880625e+01   3.796224429721126e+00   3.179816400000000e+00  8.33263550e-01   1.12652079e+00   1.33797842e+00
C     2.562563634194153e+00   2.830321447085981e+00   3.344214000000000e+00  6.14810220e-01   6.13844520e-01  -2.77825210e-01
C     3.974700798070065e+00   3.255192409228377e+00   3.319828200000000e+00 -2.96209539e+00  -4.53362160e-01   5.55900170e-01
C     4.965950225296300e+00   2.253801591770113e+00   3.301192200000000e+00 -3.51491210e+00  -1.28999859e+00   1.15770482e+00
C     6.245066713087052e+00   2.651435090545546e+00   3.355078800000000e+00  3.56802222e+00  -7.03342020e-01  -1.54273321e+00
C     7.303407932863482e+00   1.676471939289489e+00   3.275711100000000e+00  1.01269153e+00  -5.38813660e-01   7.47957440e-01
C     8.670648917120618e+00   2.085917038987759e+00   3.423542100000000e+00  8.13475910e-01  -2.62434330e+00  -3.98584540e-01
C     2.203299986994821e+00   1.475560731623208e+00   3.522028800000000e+00 -1.40324180e-01  -1.60421151e+00  -3.99399540e-01
