32
Lattice="9.86 0 0 4.93 8.53901048131456 0 0 0 30 " PBC="1 1 1" Properties=species:S:1:pos:R:3:force:R:3 Energy="-254.54750962"
C     5.357655068500000e+00   8.039505947923850e+00  -2.308337999999992e-01 -1.11488384e+00  -4.62058820e-01  -1.19602141e+00
C     1.596127285100000e+00   3.095031806658792e-01  -3.293567999999993e-01  9.95316780e-01  -3.25486874e+00   1.66809464e+00
C     7.802162784000000e+00   8.099131381792651e+00  -2.321148000000015e-01 -1.33807055e+00   1.30163502e+00  -1.82607117e+00
C     4.093976811800000e+00   2.359583058136304e-01  -4.173077999999997e-01 -2.31950900e-01   4.79758500e-02   1.71877604e+00
C     1.024354039320000e+01   8.070494785466714e+00  -3.715158000000010e-01 -6.34188720e-01  -1.55018852e+00   8.33754440e-01
C     6.532160914900000e+00   2.026968960216200e-01  -1.963508999999988e-01  2.18831814e+00   1.59846800e-02  -1.09042119e+00
C     1.274865363400000e+01   8.098722363190658e+00  -3.798144000000008e-01 -1.64585611e+00  -3.14676458e+00   5.11165960e-01
C     9.062604544999999e+00   1.690847036790912e-01  -2.687238000000001e-01 -1.23286940e+00   3.91431957e+00   1.17589446e+00
C     1.534462253500000e+00   1.688548249779591e+00  -2.799662999999981e-01  5.72000419e+00  -6.71505300e-02  -1.02233319e+00
C     2.949076650700000e+00   2.323018075969791e+00  -4.131156000000011e-01 -7.93573306e+00   4.26254490e+00   5.46241530e-01
C     4.069368174499999e+00   1.657662478093221e+00  -3.450671999999990e-01  4.64194710e+00  -2.18155162e+00  -1.41852298e+00
C     5.343365611399999e+00   2.316310085507018e+00  -4.191657000000006e-01 -3.72662950e-01   2.12362377e+00   1.47185476e+00
C     6.535815129500000e+00   1.595751748849658e+00  -1.163051999999993e-01  6.54478880e-01   3.21933322e+00  -1.32296629e+00
C     7.767906678999999e+00   2.412942651504986e+00  -1.131225000000029e-01  8.14972990e-01  -1.51984013e+00   4.07092140e-01
C     9.007639186200000e+00   1.657186599039171e+00  -7.079429999999931e-02  4.24208850e-01   4.85403730e-01  -1.64375352e+00
C     1.025778094470000e+01   2.411136906958780e+00  -2.368142999999989e-01 -2.99938584e+00   1.00815856e+00   6.21320410e-01
C     2.861294549700000e+00   3.779573451012559e+00  -4.720599000000014e-01 -5.04826740e-01   2.72724020e-01  -7.54542360e-01
C     4.059278781600000e+00   4.537718462440363e+00  -5.974707000000024e-01  1.19919683e+00  -3.66895883e+00   6.18544570e-01
C     5.357047593899999e+00   3.788162500093972e+00  -4.785737999999995e-01 -1.37064752e+00  -1.37135210e-01   6.89360100e-01
C     6.531954545100000e+00   4.542276671624691e+00  -2.262156000000033e-01  1.65244325e+00   6.96578460e-01  -1.60363302e+00
C     7.827808150999999e+00   3.890898836173149e+00  -1.680758999999981e-01 -4.52366770e+00  -4.31345050e+00   1.56574570e-01
C     8.996563842599999e+00   4.527538595706527e+00  -2.550923999999988e-01  2.63318490e+00   2.50736664e+00   6.19813520e-01
C     1.026226808280000e+01   3.862751866708134e+00  -3.118887000000008e-01 -2.78225375e+00  -2.21828786e+00   3.09756330e-01
C     1.141948308810000e+01   4.549829597174462e+00  -4.556291999999971e-01  4.36231242e+00  -1.48914363e+00   2.05456980e-01
C     4.040179370000000e+00   5.908288392872466e+00  -5.793741000000026e-01  2.04600146e+00   1.52846962e+00   7.30744550e-01
C     5.284589264000000e+00   6.596509240671750e+00  -3.362198999999997e-01  1.00392366e+00   2.20039159e+00  -1.02777203e+00
C     6.558310867399999e+00   6.002878427563617e+00  -3.526088999999999e-01 -1.54548969e+00  -3.04864463e+00   1.12919697e+00
C     7.772916643599999e+00   6.699086324205475e+00  -2.706501000000010e-01 -3.71578420e-01  -2.19923200e-02   7.24348810e-01
C     8.972275260899998e+00   5.975610549227519e+00  -1.815159000000008e-01  6.45891140e-01  -1.54386754e+00  -1.12514545e+00
C     1.019126602560000e+01   6.623366477993866e+00  -2.748437999999993e-01  2.56506197e+00   1.80850154e+00  -9.06166760e-01
C     1.147987869400000e+01   5.938161267135698e+00  -4.416437999999978e-01 -1.58245494e+00   9.74707420e-01   1.95277000e-02
C     1.271587455700000e+01   6.625972071651733e+00  -5.573411999999998e-01 -1.36074243e+00   2.25618484e+00   7.79830890e-01
