32
Lattice="9.752 0 0 4.876 8.44547973770585 0 0 0 30 " PBC="1 1 1" Properties=species:S:1:pos:R:3:force:R:3 Energy="-257.67826821"
C     5.769726555160343e-03  -5.138837619978156e-03   2.996651971876635e+00  1.43236190e-01  -5.90624000e-03  -2.17571600e-02
C     1.231986769487774e+00   7.136373538338038e-01   2.998692423696138e+00 -8.68736640e-01  -7.96172660e-01   7.77463000e-02
C     2.437085122651327e+00   9.887815388910082e-03   3.013224138066553e+00  5.47721600e-01  -2.66647390e-01  -2.00030460e-01
C     3.661208357767836e+00   7.047348477998745e-01   2.999929356473730e+00 -8.40522600e-02   2.84007470e-01   3.20817700e-02
C     4.875973784705110e+00  -7.012769195501963e-03   2.998432436755064e+00  4.30575210e-01   9.37140550e-01  -6.69453900e-02
C     6.105146864292693e+00   7.057507019449779e-01   2.998945348215331e+00 -3.64863550e-01  -3.05218650e-01   3.36759600e-02
C     7.326664071753957e+00   3.358378614527052e-03   3.009787567049314e+00 -7.90172530e-01  -5.58075440e-01  -1.96656390e-01
C     8.537667812510438e+00   6.920896479250788e-01   2.999584648826812e+00  5.70447030e-01   3.44397310e-01   9.09655000e-02
C     1.223280651996426e+00   2.102927216596136e+00   2.999597156082891e+00  2.39584900e-02   1.08803342e+00   4.62010400e-02
C     2.441497546925950e+00   2.825980222170552e+00   2.993460738519393e+00 -2.31933630e-01  -1.01007710e+00   1.68268000e-03
C     3.657368404316179e+00   2.121794125626308e+00   2.992486399795275e+00  2.47894310e-01  -3.74191960e-01   1.81290000e-04
C     4.875666891581814e+00   2.822017116928912e+00   2.992129174993633e+00  2.06494670e-01  -2.11766730e-01   8.34119200e-02
C     6.098128543759073e+00   2.109751643268436e+00   2.993252739551139e+00 -4.57839550e-01   6.98416300e-02   6.20810500e-02
C     7.309897683428789e+00   2.804028424179909e+00   3.003878202965236e+00  9.56054720e-01   2.88495090e-01  -1.26648060e-01
C     8.542260913333172e+00   2.097523765117812e+00   3.008056999627864e+00 -3.91355230e-01   5.58978900e-01   1.14200700e-02
C     9.755640147615713e+00   2.815895067351873e+00   3.012564636141498e+00 -1.04988800e-02  -6.24316900e-02  -2.21700970e-01
C     2.440987422320993e+00   4.213070880780371e+00   2.990950507954321e+00  1.52313010e-01   7.03430980e-01   8.53845200e-02
C     3.662327508879210e+00   4.914497516638508e+00   2.993399201572276e+00 -3.99066030e-01   1.07334272e+00   8.99165900e-02
C     4.879059440870515e+00   4.232591761458438e+00   3.013220980592811e+00 -2.58386980e-01  -8.45241680e-01  -2.25941530e-01
C     6.086255684633255e+00   4.916875429054140e+00   3.004713885442138e+00  1.37611138e+00   9.07725550e-01  -4.93775600e-02
C     7.327978410500817e+00   4.216070800558948e+00   2.986516325907571e+00 -8.98046130e-01   1.26287700e-01   3.06018040e-01
C     8.534095570587176e+00   4.935341888542326e+00   3.009710326557049e+00  2.88445740e-01  -1.72721780e-01  -2.32479040e-01
C     9.760836974601261e+00   4.234382218127769e+00   2.989737595901404e+00 -5.18661640e-01  -7.71843950e-01   3.10173200e-01
C     1.097547259473072e+01   4.916140287166067e+00   3.005240474641950e+00  6.35101300e-02   7.58162840e-01  -1.76672520e-01
C     3.660185980868723e+00   6.343219744337783e+00   2.992335728740046e+00 -8.19172690e-01  -1.31776204e+00  -2.19561000e-02
C     4.864273705865165e+00   7.025211225452518e+00   2.992434487965910e+00  1.09643437e+00   9.90320880e-01   7.93722800e-02
C     6.097391932086665e+00   6.340795859857900e+00   3.003281849369164e+00 -1.81280410e-01  -7.79506610e-01  -4.95652400e-02
C     7.315551529048741e+00   7.046608914267114e+00   3.001450108779838e+00 -9.40351200e-02  -1.07098560e-01   1.37459430e-01
C     8.536672765554119e+00   6.342446722898542e+00   3.009285764801359e+00 -2.87797810e-01  -5.27148000e-03  -1.17448570e-01
C     9.753799054677557e+00   7.047634940920289e+00   2.989235623809563e+00 -4.91161500e-02  -7.60344190e-01   2.31149210e-01
C     1.096523384109906e+01   6.331379998903329e+00   3.002033470407000e+00  3.58174310e-01  -8.34821400e-02  -1.03126020e-01
C     1.218439072821874e+01   7.033838863518779e+00   2.992225850103810e+00  2.43644080e-01   3.03595210e-01   1.31384150e-01
