26
Lattice="8.88768389401873 1.33226762955019e-15 0 4.44384194700937 7.69696003302603 0 0 0 30 " PBC="1 1 1" Properties=species:S:1:pos:R:3:force:R:3 Energy="-207.24670929"
C     1.160207276963828e+00   1.484096352418077e+00   3.414691200000000e+00  2.26128740e-01   1.87661124e+00   2.06739014e+00
C     3.593539274696946e+00   8.846936658418197e-01   3.570179400000000e+00  3.30658900e-01   1.38842899e+00   7.41920030e-01
C     4.980403065141184e+00   1.286913090372727e+00   3.851833200000000e+00 -1.14968718e+00   7.73983900e-02  -8.07532560e-01
C     6.014324662439829e+00   3.499767701448844e-01   4.125966900000000e+00 -4.31649990e-01  -1.67989873e+00  -7.09135730e-01
C     7.397759362221962e+00   7.133327810619162e-01   4.021084500000000e+00 -8.82062100e-01   1.41364330e+00  -6.41667040e-01
C     1.282710654048775e+01   7.431216096487425e+00   3.801932400000000e+00 -7.75514140e-01  -1.30379898e+00   9.24116180e-01
C     8.099336997668498e-01   1.200081529125489e-01   3.501255000000000e+00  2.30503538e+00  -8.95007810e-01  -5.59172240e-01
C     6.350023730093345e+00   6.827884188785453e+00   3.398841600000000e+00 -1.78936120e-01   6.78640500e-01   9.91360790e-01
C     7.763082457873162e+00   7.193259805044756e+00   3.540612900000000e+00 -3.08676205e+00   2.83572420e+00  -2.89999280e-01
C     8.763660531499934e+00   6.306298537808498e+00   3.814548600000000e+00 -1.13437419e+00  -2.95218079e+00   1.70091230e-01
C     1.006117701343712e+01   6.615645595951823e+00   4.152570600000000e+00  2.16804279e+00   2.68956163e+00  -5.31949310e-01
C     1.108468011215235e+01   5.647609554783564e+00   4.118723700000000e+00  1.02679110e+00  -1.33970897e+00  -6.68092800e-02
C     3.567980654405468e+00   6.026157902377410e+00   3.959229300000001e+00  1.31245057e+00   8.38613630e-01  -8.27861710e-01
C     4.627027645179784e+00   5.082262606647244e+00   3.725067300000000e+00 -7.37432050e-01  -1.40304939e+00   1.03571620e-01
C     6.004742853768661e+00   5.477139208279131e+00   3.535435200000000e+00 -1.14389095e+00  -1.25092055e+00   4.25422210e-01
C     7.011585011357282e+00   4.463576264290225e+00   3.627631200000000e+00  8.18632170e-01   2.73666160e-01  -7.44397330e-01
C     8.372945637362367e+00   4.934733280421026e+00   3.736007100000000e+00  1.94556210e-01  -2.20578976e+00   2.52728610e-01
C     9.383834046354341e+00   3.916818398261558e+00   3.785842800000000e+00  1.13076050e+00  -7.33194180e-01   6.51672980e-01
C     1.078261391004738e+01   4.242258645283608e+00   3.977159400000000e+00 -5.50150030e-01   1.07571143e+00  -2.12555440e+00
C     2.919553322457332e+00   3.300738169601098e+00   3.579593100000000e+00 -1.43647621e+00  -1.02449322e+00   2.34838540e+00
C     4.285122533327970e+00   3.638154193703425e+00   3.703925100000000e+00  6.73947480e-01   1.87517044e+00  -9.19583130e-01
C     5.300286007167422e+00   2.650331500416445e+00   3.658708200000000e+00  1.59138849e+00   5.15722630e-01   5.01809500e-01
C     6.723922278622982e+00   3.030048785330048e+00   3.617579100000000e+00 -3.08273017e+00   3.17297522e+00   1.30940252e+00
C     7.722635627288931e+00   2.137145618889830e+00   3.846098400000000e+00  6.74637650e-01  -3.05787723e+00  -4.15129270e-01
C     9.072680587419109e+00   2.513756179826523e+00   3.723477000000000e+00  1.14818990e-01   7.04853500e-02  -9.69339320e-01
C     2.523127647020059e+00   1.904254619873304e+00   3.501666600000000e+00  2.02181618e+00  -9.36433520e-01  -8.79740580e-01
