32
Lattice="9.86 0 0 4.93 8.53901048131456 0 0 0 30 " PBC="1 1 1" Properties=species:S:1:pos:R:3:force:R:3 Energy="-249.75504245"
C     5.153676022699999e+00   7.868695168666332e+00  -1.322453100000001e+00 -1.83730023e+00   3.63245234e+00   2.14489820e-01
C     1.407949037200000e+00   5.200923425137439e-02  -1.253874900000000e+00  2.49262545e+00  -4.38581990e-01   9.51906190e-01
C     7.701322098999999e+00   7.796872099887270e+00  -1.142176800000001e+00 -6.50511708e+00   2.16441117e+00  -1.00554424e+00
C     3.807476073600000e+00   1.194177200023808e-01  -9.556184999999999e-01  4.13092708e+00  -3.83154987e+00  -1.16058929e+00
C     9.967401331800000e+00   7.986119285891947e+00  -1.092742800000000e+00  2.56070146e+00  -2.65484464e+00  -1.11492583e+00
C     6.286316062600000e+00   1.608097194031328e-01  -1.359898200000000e+00 -8.03785240e-01  -3.52401032e+00   2.99315274e+00
C     1.240850355120000e+01   7.815469723152291e+00  -1.060067699999998e+00  2.58574008e+00   4.96600461e+00  -3.29929452e+00
C     8.756801131300001e+00   8.426372392758319e-02  -1.417087500000001e+00  5.86694660e-01  -3.34012943e+00   2.18275598e+00
C     1.369816078800000e+00   1.456378788306042e+00  -9.960758999999975e-01  4.55578793e+00  -1.88708521e+00  -1.65511523e+00
C     2.744093166700000e+00   2.116754349880570e+00  -1.068731099999997e+00 -7.53086779e+00   2.92118620e+00   1.53086927e+00
C     3.898073106000000e+00   1.475103301266795e+00  -9.869531999999985e-01 -1.33507457e+00   4.41368970e-01  -1.16157840e-01
C     4.980046155499999e+00   2.290260723966415e+00  -1.050551400000000e+00  5.96558355e+00  -5.04770744e+00  -1.27188516e+00
C     6.260554495500000e+00   1.576301078437686e+00  -1.327772099999997e+00  1.61519482e+00  -1.08292522e+00   1.31576700e+00
C     7.571989514299999e+00   2.141500914592239e+00  -1.162696499999999e+00 -2.00238080e+00   4.17066219e+00  -6.91123160e-01
C     8.815425683999999e+00   1.504434119144757e+00  -1.319230200000000e+00 -9.13731930e-01  -2.19244068e+00   8.94785490e-01
C     1.005063876160000e+01   2.141424661228653e+00  -9.814220999999996e-01 -1.66342203e+00  -1.81561505e+00  -6.69489920e-01
C     2.638407721400000e+00   3.520637094947773e+00  -9.794184000000001e-01 -2.80081930e-01   4.05850160e+00   1.70251462e+00
C     3.862945672800000e+00   4.334825254567808e+00  -8.427326999999991e-01 -2.26411000e-03   6.30942990e-01  -1.46952312e+00
C     5.082606128700000e+00   3.596369835065207e+00  -9.721034999999993e-01 -1.20960593e+00   4.51760746e+00   4.98422010e-01
C     6.335999468700000e+00   4.286744050527338e+00  -1.032970199999998e+00 -1.53108715e+00   3.27990200e-01   2.82516370e-01
C     7.527058332399999e+00   3.644100256555158e+00  -1.022621999999998e+00  4.29238136e+00  -3.80836060e+00  -3.48464060e-01
C     8.886399640199999e+00   4.252668360695956e+00  -9.857079000000013e-01 -5.59797588e+00   5.54330490e-01  -6.52697720e-01
C     9.975817236199999e+00   3.462081342921802e+00  -7.640507999999997e-01  2.84099899e+00   5.96299108e+00  -6.17248110e-01
C     1.115745191190000e+01   4.342846715622615e+00  -7.750535999999997e-01  3.92209614e+00  -6.07481685e+00  -6.51739810e-01
C     3.936465875400000e+00   5.831690907163722e+00  -9.259029000000005e-01  2.16222564e+00  -2.63516304e+00   1.64126516e+00
C     5.260444243899999e+00   6.575957806418801e+00  -9.677159999999994e-01 -4.12496016e+00  -6.40819338e+00  -1.00413510e+00
C     6.355391574400000e+00   5.662279330163456e+00  -1.072981200000001e+00  2.12883076e+00   5.10094366e+00  -1.04882969e+00
C     7.641683100200000e+00   6.398828415576396e+00  -1.361692800000000e+00 -6.35612990e-01  -1.76085070e+00   2.06403721e+00
C     8.856905274300001e+00   5.642616294560845e+00  -1.281150900000000e+00  2.04592272e+00   2.41074333e+00   1.21267594e+00
C     1.006813863470000e+01   6.479784126844028e+00  -1.163728800000001e+00  3.20717200e-02  -5.81563950e-01   1.50987508e+00
C     1.133521168940000e+01   5.683106318284595e+00  -8.285030999999989e-01 -3.02135579e+00   3.55816243e+00  -1.15389791e+00
C     1.257602603580000e+01   6.420891169294202e+00  -8.294552999999993e-01 -2.92315877e+00   1.66553961e+00  -1.06437217e+00
