32
Lattice="9.86 0 0 4.93 8.53901048131456 0 0 0 30 " PBC="1 1 1" Properties=species:S:1:pos:R:3:force:R:3 Energy="-255.65819738"
C     4.961575959799999e+00   8.279197936069862e+00  -5.351163000000021e-01 -1.33872540e-01  -3.83376050e-01  -2.86331040e-01
C     1.256483168200000e+00   4.438439315534224e-01  -5.406419999999983e-01  1.01907981e+00  -1.65223120e-01   2.74551900e-01
C     7.450795225700000e+00   8.300633841028329e+00  -4.894338000000005e-01  8.27110980e-01  -3.77680820e-01  -3.16821060e-01
C     3.785374242700000e+00   4.857726077628424e-01  -5.436353999999994e-01 -1.73368298e+00  -1.69001000e-02  -1.41513976e+00
C     9.927143198299998e+00   8.294554236346778e+00  -7.092930000000024e-01 -4.63679930e-01  -1.60249386e+00   4.02572330e-01
C     6.214126762800000e+00   4.521771518808544e-01  -6.844919999999988e-01 -5.08661520e-01   8.36422850e-01   8.97170600e-02
C     1.237405596500000e+01   8.299629397225566e+00  -7.034577000000013e-01  2.73164900e-02   1.69894236e+00   1.94390700e-02
C     8.678632924700000e+00   4.658606600047400e-01  -5.724122999999999e-01 -4.94014660e-01   2.84326990e-01  -2.89298210e-01
C     1.241517364400000e+00   1.847459149422287e+00  -6.805598999999987e-01  1.33805736e+00   9.38537450e-01  -9.50359320e-01
C     2.462126450900000e+00   2.587895277795828e+00  -9.648921000000001e-01  1.86355369e+00  -2.16059310e-01   1.49553937e+00
C     3.712611682500000e+00   1.908377389477759e+00  -7.923074999999997e-01  1.45797932e+00  -5.99159840e-01   8.39264270e-01
C     5.016967960800000e+00   2.615331545418592e+00  -7.020723000000011e-01 -3.56027276e+00  -1.83394484e+00  -9.71895790e-01
C     6.176140077499999e+00   1.876090366171622e+00  -6.100040999999976e-01  2.42061639e+00  -1.91642230e-01   1.47375660e-01
C     7.433359343999999e+00   2.598249767293981e+00  -5.588525999999980e-01 -1.09201755e+00  -5.38658670e-01  -1.84237820e-01
C     8.652910846899999e+00   1.906636285240887e+00  -5.889066000000014e-01  2.77040000e-02  -1.94540551e+00   5.39605700e-01
C     9.890050371299999e+00   2.552714383838019e+00  -6.690143999999982e-01 -2.93935240e-01   3.42360270e-01  -4.49992090e-01
C     2.590305317000000e+00   4.041616128309760e+00  -1.056351899999999e+00 -3.49016283e+00  -1.93054463e+00  -4.40929300e-02
C     3.781132372100000e+00   4.745027619582650e+00  -9.741867000000006e-01  5.79079280e-01   6.99279810e-01  -2.22792460e-01
C     5.001960449200000e+00   3.983058156141064e+00  -8.216529000000001e-01 -8.07971480e-01   2.75503835e+00   4.76155270e-01
C     6.183054402500000e+00   4.709080093263946e+00  -6.212640000000000e-01  2.45877910e-01   1.39424348e+00   8.30657500e-02
C     7.398252271700000e+00   4.004440436113717e+00  -5.429546999999992e-01  9.90207090e-01   9.09733510e-01  -2.63710940e-01
C     8.613892657699999e+00   4.736590906448201e+00  -6.331550999999997e-01  3.18576333e+00  -1.91820756e+00  -6.15441210e-01
C     9.880201562399998e+00   3.927547415252261e+00  -8.464214999999982e-01  4.26425530e-01   3.92577872e+00   4.16456540e-01
C     1.116273933690000e+01   4.673415549752550e+00  -1.048380600000002e+00 -9.81800760e-01   1.41676485e+00   6.89986850e-01
C     3.760264175100000e+00   6.215241141888178e+00  -9.369044999999971e-01 -2.17539512e+00  -2.29028152e+00   5.22142670e-01
C     4.944617351400000e+00   6.829150653254530e+00  -6.434066999999999e-01  1.47525649e+00   2.81219937e+00   1.93972960e-01
C     6.166410574600000e+00   6.153365849538107e+00  -5.414813999999986e-01  3.03329492e+00  -8.06476740e-01  -3.61920690e-01
C     7.502672629699999e+00   6.876953827113771e+00  -5.061917999999999e-01 -2.28793238e+00  -4.33748850e-01   1.84998480e-01
C     8.755660427899999e+00   6.151251334372945e+00  -6.150834000000032e-01 -4.78018986e+00  -1.49967418e+00   3.40615000e-02
C     9.916773682799999e+00   6.796891467122556e+00  -8.133206999999985e-01  2.04397051e+00   3.84073148e+00   3.33819890e-01
C     1.113746480450000e+01   6.137783607043889e+00  -9.868835999999988e-01  9.12236300e-01  -4.73169560e-01   4.86937700e-02
C     1.235063107000000e+01   6.956666600015933e+00  -9.168473999999982e-01  9.30060210e-01  -4.63171208e+00  -4.19385690e-01
