32
Lattice="9.688 0 0 4.844 8.39005411186364 0 0 0 30 " PBC="1 1 1" Properties=species:S:1:pos:R:3:force:R:3 Energy="-257.37094439"
C     2.198706095384197e-03   1.622366969778648e-03   3.000939389454309e+00 -1.63053300e-01  -1.01779710e-01   1.96885000e-03
C     1.212304877493227e+00   7.016462737214578e-01   2.999746952845486e+00 -7.91064200e-02  -1.11362370e-01   2.37297100e-02
C     2.422439924566158e+00   2.701080712190336e-03   3.001491102088059e+00 -4.49320300e-02  -1.14456820e-01  -4.97802000e-02
C     3.631278743808970e+00   6.974850822057591e-01   2.999086719807071e+00  1.30232850e-01   3.22823910e-01   2.16984100e-02
C     4.844510781171035e+00   3.800486993985055e-03   2.998862872650303e+00 -9.31587400e-02  -2.40647390e-01   9.80930000e-04
C     6.055401691532386e+00   6.983165062399411e-01   3.002292499575201e+00  1.29749650e-01   1.07685210e-01  -4.50360300e-02
C     7.269214714985648e+00  -3.213913589410468e-03   3.000680736375567e+00 -2.71992080e-01   2.31351570e-01   3.23503100e-02
C     8.474705653522191e+00   6.975311519409272e-01   3.004089767819787e+00  2.58892140e-01   9.96000600e-02  -5.20675400e-02
C     1.210677991247427e+00   2.096947134198810e+00   3.000688880013297e+00  1.50839000e-02   6.82493300e-02  -1.54146700e-02
C     2.422284673602609e+00   2.793848407863905e+00   3.002317439964844e+00 -1.42215780e-01   2.28322490e-01   4.67597000e-03
C     3.630007683174038e+00   2.100365305075578e+00   3.001210441694223e+00  2.30188610e-01  -2.58723760e-01  -1.84602800e-02
C     4.842882335905609e+00   2.799911131071698e+00   2.997501956423985e+00  7.44207900e-02  -3.00310200e-01   3.02682100e-02
C     6.057710943010265e+00   2.098006643496802e+00   2.997945150112447e+00 -1.06607890e-01   4.46331900e-02   2.61398100e-02
C     7.270233390814446e+00   2.798025462254845e+00   2.999557205441250e+00 -2.47013610e-01   5.96799000e-02  -1.85672900e-02
C     8.475625312481487e+00   2.097355920638298e+00   2.998604544903027e+00  1.89181020e-01  -2.99049600e-02   2.43673900e-02
C     9.689320229160375e+00   2.796610982196730e+00   2.996707450882601e+00 -1.11480170e-01   4.55227600e-02   2.92049900e-02
C     2.421560925132786e+00   4.193771352039394e+00   3.002937618715099e+00  1.02813890e-01  -2.13532400e-02  -5.19148000e-03
C     3.633979178150860e+00   4.891495269171306e+00   3.001667169501521e+00 -1.58614020e-01   8.97718900e-02  -1.80377500e-02
C     4.840823122956360e+00   4.193065923661072e+00   3.000195500392751e+00  3.37521660e-01   1.86873480e-01  -1.27984800e-02
C     6.057758921568747e+00   4.893001402345938e+00   2.999012134211494e+00 -2.92371910e-01   1.66121540e-01  -6.69047000e-03
C     7.265394242524572e+00   4.198734482652678e+00   2.999349936679600e+00  2.24824580e-01  -1.58963950e-01   1.01957500e-02
C     8.478713311764349e+00   4.898371773590294e+00   3.001993057326394e+00 -7.03940000e-02  -2.13732340e-01  -4.75428700e-02
C     9.688665343849346e+00   4.196406978966319e+00   2.998773387997197e+00  8.60687500e-02   2.88675400e-02   1.92534700e-02
C     1.090332248261392e+01   4.897187572270116e+00   3.001754781763905e+00 -2.32641860e-01  -2.02507240e-01  -1.99106400e-02
C     3.632816383875430e+00   6.290036856220556e+00   2.997637091850060e+00 -1.05299640e-01   1.04151000e-01   3.81765400e-02
C     4.841563048487059e+00   6.990435972854727e+00   2.999199412920935e+00  1.46509210e-01   1.18564490e-01  -1.15292100e-02
C     6.055702163601637e+00   6.294934095154734e+00   2.997585796173686e+00 -5.00683700e-02  -1.52146730e-01   3.72376000e-03
C     7.265602265719064e+00   6.994761058956710e+00   2.996303595024185e+00 -2.45904600e-02  -6.83700600e-02   3.67380900e-02
C     8.476162979791585e+00   6.293008352481818e+00   2.998059974287376e+00 -4.89990400e-02   1.54726870e-01   6.18160000e-03
C     9.683512800931734e+00   6.992564248434784e+00   2.997596144389491e+00  3.22168440e-01   3.97795200e-02   1.04417200e-02
C     1.089966280876071e+01   6.292046044799848e+00   2.999210133696017e+00 -1.57222170e-01   2.34375580e-01   9.59828000e-03
C     1.210855290864411e+01   6.994710322900887e+00   2.999638667762425e+00  1.52105990e-01  -3.56841560e-01  -8.66689000e-03
