26
Lattice="8.88768389401873 1.33226762955019e-15 0 4.44384194700937 7.69696003302603 0 0 0 30 " PBC="1 1 1" Properties=species:S:1:pos:R:3:force:R:3 Energy="-201.88483214"
C     1.218483197544088e+01   6.395896232551317e+00   9.911400000000001e-03 -5.49220510e-01  -9.75406484e+00   3.14335710e-01
C     8.381862429054667e+00   5.916187970796787e+00  -1.088850000000008e-02 -2.40475930e-01  -7.27006200e-02  -2.13564520e+00
C     9.782148976910772e+00   5.551382468366905e+00   4.440540000000000e-02 -6.16044680e-01  -9.00359480e-01   3.14024071e+00
C     1.009966423815685e+01   4.156423917329856e+00   2.932200000000000e-01 -1.90673562e+00   1.52418553e+00  -1.89705591e+00
C     6.010668405860823e+00   5.365441463110974e+00  -4.014072000000013e-01  1.32928060e+00   1.37550847e+00  -1.59429230e-01
C     7.307153382678575e+00   4.863274472593706e+00  -2.039864999999992e-01  4.45333695e+00   1.09971673e+00   5.88270000e-01
C     7.796516055830979e+00   3.463704134015481e+00  -9.984120000000019e-02 -7.82188769e+00   2.25447102e+00  -5.07675110e-01
C     9.055928859040467e+00   3.143870198740082e+00   1.058472000000000e-01  4.78773238e+00   7.65524860e-01   8.56795480e-01
C     9.487692230493527e+00   1.828915158738058e+00  -1.392990000000083e-02 -1.04240205e+00  -3.60269851e+00  -3.86832766e+00
C     3.618249038221707e+00   4.858921610787940e+00   2.312310000000000e-02 -1.97921171e+00   1.38614149e+00   2.35111230e-01
C     4.958763512232819e+00   4.478580410294305e+00  -2.353844999999986e-01 -1.84204498e+00  -2.47634787e+00   1.71323237e+00
C     5.231725614037410e+00   3.095212249548831e+00   4.797630000000000e-02  1.96348285e+00  -2.26865122e+00  -1.22377957e+00
C     6.646925828619592e+00   2.489336958374546e+00  -1.234842000000000e-01 -1.46481160e+00   5.10949562e+00   4.54757240e-01
C     6.860950232397308e+00   1.174368140814067e+00  -1.544954999999995e-01  5.07664753e+00  -3.78888346e+00   3.14512457e+00
C     8.415397745642091e+00   7.819136185644199e-01  -1.902279000000000e-01 -6.35170900e-02   3.59326478e+00   5.39719700e-02
C     2.537190497156855e+00   3.802181568905945e+00   2.573724000000000e-01  3.15104879e+00   1.93233582e+00  -1.87556315e+00
C     2.904645076532303e+00   2.485593233985554e+00  -1.302878999999990e-01 -1.66414135e+00  -3.09714200e-02   3.92862590e-01
C     4.168679030930680e+00   2.089228117253465e+00   1.048377000000000e-01  6.43203094e+00  -1.29182499e+00  -6.28231700e-02
C     4.616828491783795e+00   6.623915286777655e-01   1.917843000000000e-01 -1.63875161e+00  -1.29647699e+00  -1.15910023e+00
C     5.971188644041462e+00   1.258292868136376e-01   3.765060000000000e-01 -2.24359159e+00   7.85561235e+00  -2.83056580e+00
C     1.081089429950763e+01   6.573454401668976e+00   2.804961000000000e-01 -1.85195630e-01  -2.87356601e+00  -1.33602315e+00
C     1.991580914278590e+00   1.521574005348152e+00  -5.536500000000011e-01 -2.86040424e+00  -1.38479730e+00   3.92418709e+00
C     2.381507157977250e+00   1.084914225284608e-01  -5.435670000000030e-01 -3.37398664e+00  -4.93548440e-01  -6.67283240e-01
C     8.087621167879133e+00   7.344215125149926e+00  -2.537988000000020e-01  2.13230875e+00   1.56818900e-01   2.36194913e+00
C     4.369707911896862e+00   7.138112856730612e+00  -3.064640999999995e-01  1.68476851e+00   3.35449298e+00  -4.87315710e-01
C     5.783460011864745e+00   6.779030505900638e+00  -5.554016999999973e-01 -1.51821439e+00  -1.72677410e-01   1.02974902e+00
