32
Lattice="9.992 0 0 4.996 8.65332583461411 0 0 0 30 " PBC="1 1 1" Properties=species:S:1:pos:R:3:force:R:3 Energy="-257.71723296"
C     2.656731357656356e-04   3.934638984073036e-04   2.999518488041340e+00 -1.21081200e-02   8.91871000e-03   7.51901000e-03
C     1.250154084705907e+00   7.212002116483561e-01   3.000398767457835e+00 -3.29630600e-02   2.45627100e-02  -4.09695000e-03
C     2.499247442569001e+00   6.269578494766137e-04   3.000096228464766e+00 -3.58732100e-02  -3.94374800e-02  -6.76379000e-03
C     3.747613272622840e+00   7.204500105081607e-01   2.999791043525251e+00  1.89169800e-02   5.93198600e-02   4.50111000e-03
C     4.996861859352488e+00  -2.356944306326276e-04   2.999936447244594e+00 -2.62602100e-02  -2.08035300e-02  -7.64931000e-03
C     6.245482561601117e+00   7.203240243206335e-01   2.998921550592315e+00 -1.89127900e-02   4.22948400e-02   2.26157000e-02
C     7.494305485429276e+00   2.523438873478811e-04   3.000922872642196e+00 -1.29286100e-02  -3.69929500e-02  -2.11585900e-02
C     8.741882509155779e+00   7.212830094698880e-01   2.999763526508462e+00  7.62022100e-02   2.14939700e-02   1.53285000e-03
C     1.249755678916377e+00   2.164044318034199e+00   3.000696224534592e+00 -6.93859200e-02  -2.65529000e-02   5.67598000e-03
C     2.496982153163400e+00   2.885588974941344e+00   3.000859218063339e+00  7.23710000e-02  -8.18964300e-02  -1.63827000e-02
C     3.746429644631318e+00   2.163275266662191e+00   2.999943918418038e+00  1.69348300e-02  -6.49572000e-03   3.11387000e-03
C     4.996386853062712e+00   2.883695169376698e+00   2.999688206785964e+00 -3.77282000e-02   2.00243000e-03   4.53510000e-03
C     6.244446964737425e+00   2.162893747351728e+00   3.000147448484078e+00  6.54379900e-02   2.29166000e-03  -1.31038200e-02
C     7.494900290529495e+00   2.885560915254552e+00   2.999886969244565e+00 -8.92485200e-02  -7.43487000e-02  -6.20387000e-03
C     8.742914347330890e+00   2.164398362685358e+00   2.999069626635889e+00 -2.33953000e-03  -5.00081100e-02   1.82961300e-02
C     9.991191804201410e+00   2.884361470521345e+00   3.001115565640681e+00  5.01945300e-02   2.73888000e-02  -2.53728300e-02
C     2.498196866797596e+00   4.325417595941928e+00   2.998854292744447e+00 -1.12541300e-02   1.03203900e-01   3.09572700e-02
C     3.746805319264957e+00   5.048324417635143e+00   3.000747640845602e+00  3.72704700e-02  -6.77933500e-02  -2.23789400e-02
C     4.996356853895821e+00   4.325645137621692e+00   2.999888045097366e+00 -4.10859100e-02   5.61467300e-02   1.97492000e-03
C     6.244264000584484e+00   5.048280125054480e+00   2.999280309367806e+00  5.14623000e-03  -7.08266800e-02   7.77450000e-04
C     7.492826904002729e+00   4.325500150653217e+00   2.999378085040892e+00  4.94936600e-02   9.99865800e-02   6.94389000e-03
C     8.742282482335829e+00   5.047766157755841e+00   3.000307163849410e+00  1.30250000e-04   2.28328000e-03  -1.12224700e-02
C     9.991296881502343e+00   4.327480938391311e+00   2.999183056130158e+00  2.46825300e-02  -4.36172200e-02   2.55837700e-02
C     1.124167970865145e+01   5.046915619249035e+00   3.000629395884002e+00 -4.44563500e-02   6.34147400e-02  -1.83561600e-02
C     3.747718779605097e+00   6.489843661925484e+00   2.999496075598597e+00 -7.31923200e-02   1.40826000e-02   1.26902400e-02
C     4.995512906947106e+00   7.211272911948087e+00   2.999801174893055e+00  3.02733700e-02  -1.49554000e-03  -9.60128000e-03
C     6.243804241302014e+00   6.488774374353889e+00   2.998789189954341e+00  8.54866400e-02   1.07446310e-01   5.99487000e-03
C     7.495045656604298e+00   7.212187195027671e+00   2.998819698245629e+00 -5.73823700e-02  -7.11409400e-02   1.27788400e-02
C     8.744182244769362e+00   6.490287701308163e+00   3.000398223178819e+00 -8.57982300e-02  -2.31557100e-02  -9.72150000e-03
C     9.991809104489354e+00   7.210119283158738e+00   3.000206192044903e+00  2.42986800e-02   7.18294000e-02   4.89351000e-03
C     1.124020035320543e+01   6.491228214963266e+00   3.000616567609003e+00  5.78531900e-02  -1.08826150e-01  -2.37474000e-03
C     1.248940821292272e+01   7.210995773039832e+00   3.000192960863932e+00  3.62249400e-02   1.67249200e-02   4.00243000e-03
