32
Lattice="9.86 0 0 4.93 8.53901048131456 0 0 0 30 " PBC="1 1 1" Properties=species:S:1:pos:R:3:force:R:3 Energy="-256.21467717"
C     4.931518390699999e+00   8.242841988879897e+00  -2.981826000000005e-01  6.55150890e-01  -2.37944876e+00   6.03554230e-01
C     1.238102452000000e+00   3.576918054581872e-01  -2.260253999999975e-01  9.87257690e-01   1.46633289e+00  -7.34568030e-01
C     7.423338872500000e+00   8.176660900495287e+00  -2.467587000000009e-01  1.19589010e-01   2.68868940e+00   2.83201360e-01
C     3.756565984900000e+00   4.197317299303128e-01  -1.724052000000000e-01 -1.42093523e+00  -2.36411916e+00   4.82492360e-01
C     9.901093028999998e+00   8.237872370170642e+00  -8.793329999999955e-02  9.06914680e-01  -5.00125900e-02  -8.32996670e-01
C     6.242415102799999e+00   4.096183820881152e-01  -1.460796000000002e-01 -2.57758074e+00   6.74119840e-01  -7.52771000e-03
C     1.236490021550000e+01   8.262669912774877e+00  -9.206490000000045e-02 -3.46534880e-01  -2.45379573e+00   2.05265460e-01
C     8.642326432699999e+00   4.041538423314392e-01  -2.195928000000009e-01  6.42752850e-01  -1.21135062e+00   1.22276800e-01
C     1.241223388500000e+00   1.820547518603414e+00  -1.737986999999990e-01  1.34551105e+00  -1.29341116e+00   1.89785883e+00
C     2.503979045000000e+00   2.487874005488872e+00   1.293345000000000e-01 -1.31696636e+00   9.78322130e-01  -1.63681483e+00
C     3.752958358800000e+00   1.811967435483005e+00  -2.642699999999110e-03 -1.97916989e+00  -3.50430440e-01  -4.62942980e-01
C     4.926043625700000e+00   2.515115925233111e+00  -1.301303999999988e-01  3.25203401e+00   4.22737670e-01   1.32126170e-01
C     6.208562468999999e+00   1.833021219722493e+00  -2.805411000000007e-01 -1.29663554e+00  -1.10090159e+00   9.06662140e-01
C     7.443170191900000e+00   2.488640894020081e+00  -2.685461999999994e-01 -1.65505219e+00   1.97523357e+00   4.46091960e-01
C     8.617951871799999e+00   1.770852441582224e+00  -1.760234999999994e-01  2.59267313e+00   2.61380621e+00  -7.04235030e-01
C     9.880212802799997e+00   2.526312531944801e+00  -1.120781999999991e-01 -1.63837670e-01  -1.39567223e+00   2.76034300e-02
C     2.469242955200000e+00   3.936871502355792e+00   1.598919000000000e-01  1.66445334e+00  -1.19552214e+00   1.20612620e-01
C     3.728718485500000e+00   4.630067433831039e+00   2.192940000000000e-02 -3.55964300e-01   1.12108281e+00   1.38925097e+00
C     4.967726627799999e+00   3.916902001667054e+00  -3.742769999999851e-02 -3.22094030e-01   1.61600123e+00  -6.75878920e-01
C     6.206737037900000e+00   4.676280729329009e+00  -1.425872999999989e-01 -2.68606450e-01  -2.22556475e+00  -3.93241240e-01
C     7.428804369100000e+00   3.932306291182870e+00  -2.295444000000018e-01  9.70905800e-02  -4.80751270e-01  -3.19788100e-02
C     8.663124870199999e+00   4.597074148968100e+00  -2.174745000000016e-01  8.04632850e-01   2.76810220e+00   8.70986890e-01
C     9.918381405100000e+00   3.922956245487479e+00   2.824530000000000e-02 -2.34877002e+00   5.61129500e-02  -9.48809750e-01
C     1.110499035220000e+01   4.623288057240653e+00   1.954713000000000e-01  9.61024750e-01   1.81100872e+00  -7.36361750e-01
C     3.741581989400000e+00   6.088618802573507e+00   7.959390000000000e-02 -8.50252000e-01  -3.87573930e-01  -1.38711495e+00
C     4.949725225800000e+00   6.774162841367522e+00  -2.343083999999998e-01  4.01977100e-02   1.00222377e+00   1.05130894e+00
C     6.216403831200000e+00   6.069653831077638e+00  -2.274254999999989e-01 -2.72362750e+00   3.35350750e-01  -8.37819000e-02
C     7.390716668100000e+00   6.785676074587810e+00  -2.741517000000009e-01  3.16068189e+00  -5.08829090e-01  -2.61779000e-01
C     8.656982238099999e+00   6.072731546624944e+00  -2.559305999999992e-01  4.16946290e-01  -5.60050290e-01   7.23277780e-01
C     9.904285253299999e+00   6.813254687515276e+00  -1.034612999999993e-01 -6.91257050e-01  -1.28083963e+00   3.43690270e-01
C     1.113811960710000e+01   6.074360619044318e+00   1.125003000000000e-01 -1.43381200e+00   4.42440340e-01  -2.78455590e-01
C     1.232659377040000e+01   6.827323475792020e+00   1.043895000000000e-01  2.10418517e+00  -7.33291090e-01  -4.29773080e-01
