32
Lattice="9.86 0 0 4.93 8.53901048131456 0 0 0 30 " PBC="1 1 1" Properties=species:S:1:pos:R:3:force:R:3 Energy="-256.75011227"
C     9.831642442800000e+00   6.952889283340000e-01   3.491810100000000e+00 -1.31028752e+00   1.32383411e+00  -2.14580000e-02
C     1.189074489400000e+00   1.418030092240362e+00   3.538527000000000e+00  7.64740060e-01   6.41470410e-01  -6.78619730e-01
C     2.432312177300000e+00   7.195012071599352e-01   3.318751200000000e+00 -8.80491920e-01   1.56186470e-01   8.51571680e-01
C     3.619505132200000e+00   1.482186068899536e+00   3.427552500000000e+00  3.05963800e-01   1.47567600e-01   1.02500900e-02
C     4.843335776500000e+00   7.715285441135272e-01   3.459293100000000e+00  1.53795538e+00  -8.69905920e-01  -2.21434010e-01
C     6.130620155000000e+00   1.414584259951262e+00   3.460694700000000e+00 -2.33700476e+00   2.31579723e+00  -5.27233900e-02
C     7.311539044000000e+00   7.390120775957919e-01   3.482157900000000e+00  3.29144557e+00  -1.10340917e+00   4.65396120e-01
C     8.591975751100000e+00   1.431489707509462e+00   3.513373800000000e+00 -4.70741150e-01   1.14325159e+00  -2.32860490e-01
C     1.105361644910000e+01   2.870338931981321e+00   3.679738500000000e+00  2.80393370e-01  -1.35138272e+00  -5.33122560e-01
C     2.417204389500000e+00   3.594110071331780e+00   3.706961400000000e+00 -6.93447620e-01   5.91178960e-01   3.19054310e-01
C     3.613017202900000e+00   2.933824767098025e+00   3.562318500000000e+00  1.80012396e+00  -2.81428122e+00  -6.01751830e-01
C     4.883704588500000e+00   3.574680236105379e+00   3.446646600000000e+00  1.28351280e-01  -9.53431000e-02   7.86387220e-01
C     6.143982673500000e+00   2.849269435962550e+00   3.420722400000000e+00 -1.17723836e+00   4.80991160e-01  -1.79786260e-01
C     7.336020043599999e+00   3.611469965027725e+00   3.399202200000000e+00  1.43770460e+00  -1.25848378e+00   7.31719490e-01
C     8.612621802300000e+00   2.895505616008605e+00   3.503939700000000e+00 -1.46622584e+00  -1.61006722e+00  -4.08915100e-01
C     9.842664098699998e+00   3.574779288626947e+00   3.576866400000000e+00 -7.81991520e-01   4.19448900e-01   9.12720740e-01
C     1.230159378970000e+01   5.012546620470990e+00   3.812516100000000e+00 -1.18993672e+00   5.29917000e-02  -5.46693270e-01
C     3.620926599100000e+00   5.727574325430558e+00   3.629271300000000e+00  2.19931287e+00  -1.13403537e+00  -1.97929140e-01
C     4.875016597400000e+00   4.977536592112885e+00   3.493549800000000e+00  2.85631280e-01   1.92065606e+00  -5.36001550e-01
C     6.117566895400000e+00   5.724374672813597e+00   3.324953100000000e+00 -1.10213014e+00  -2.03756920e-01   9.16074460e-01
C     7.333579989399999e+00   5.025875076539116e+00   3.414745200000000e+00  1.03873653e+00  -1.35184600e-02  -1.00331809e+00
C     8.608589062300000e+00   5.719325812087088e+00   3.420195300000000e+00 -6.30187850e-01  -5.11268020e-01   6.77274430e-01
C     9.802716210100000e+00   4.988207366559217e+00   3.654654300000000e+00  1.54430771e+00   1.17811434e+00  -3.15940960e-01
C     1.107476994520000e+01   5.726614113702082e+00   3.803163300000000e+00 -1.95522655e+00  -1.54966028e+00  -8.54871990e-01
C     1.350484104310000e+01   7.132622560038175e+00   3.526032900000000e+00 -8.80276000e-03   4.54450140e-01   3.33883700e-01
C     4.865809181500000e+00   7.833118747743089e+00   3.404652300000000e+00  1.32651569e+00  -1.06365790e-01   7.62369200e-02
C     6.122074591600000e+00   7.154589762228709e+00   3.310679100000000e+00 -6.52084230e-01  -1.26821311e+00  -3.85319440e-01
C     7.365363255699999e+00   7.808887768484202e+00   3.209220300000000e+00  6.44123600e-02   2.03028979e+00   9.84033150e-01
C     8.609646892400001e+00   7.139247380538874e+00   3.352757700000000e+00 -2.07106960e-01  -2.21806650e-01  -6.77650500e-02
C     9.813699559899998e+00   7.880620750702700e+00   3.486928800000000e+00  1.53748580e-01  -1.09006188e+00  -1.18578200e-01
C     1.104916234200000e+01   7.097441922250680e+00   3.626397600000000e+00  3.59687000e-01   3.41977059e+00   2.30244820e-01
C     1.229876806160000e+01   7.862099722361685e+00   3.589496100000000e+00 -1.65612614e+00  -1.07443944e+00  -3.37758070e-01
