32
Lattice="9.708 0 0 4.854 8.40737461993933 0 0 0 30 " PBC="1 1 1" Properties=species:S:1:pos:R:3:force:R:3 Energy="-257.40400675"
C     9.601351167893245e-03   1.330032009518931e-03   2.989914421376866e+00 -1.16421294e+00  -3.30893220e-01   3.93575000e-03
C     1.204496060850841e+00   7.004380071128333e-01   3.002389313904680e+00  7.29642410e-01   1.19542450e-01   8.97261400e-02
C     2.414440161790541e+00  -2.262714129074614e-05   3.013701962781775e+00  9.47205950e-01  -1.58938680e-01  -1.97854960e-01
C     3.649470530486083e+00   7.040334732347936e-01   3.003731534959352e+00 -9.19785400e-01  -3.28745310e-01   3.77380200e-02
C     4.862981229005029e+00   1.251354278306529e-03   2.995947161031166e+00 -6.04533690e-01  -2.67437520e-01   6.75614200e-02
C     6.067231463102539e+00   6.891230567714245e-01   2.996442492304509e+00 -5.07791300e-02   1.26424436e+00  -1.30546500e-02
C     7.273113025917731e+00   1.440668071321836e-02   3.006409149749219e+00  8.26964520e-01  -1.12733450e+00  -2.13791540e-01
C     8.495016615902671e+00   6.921145151417655e-01   2.988358777781468e+00  1.63542960e-01   7.03910770e-01   1.50845640e-01
C     1.218200842208189e+00   2.097270338780580e+00   3.014269447677616e+00 -7.40152860e-01   3.20886550e-01  -1.21869550e-01
C     2.425775993962432e+00   2.794884865714215e+00   3.000962879365530e+00 -3.90208250e-01   5.61878540e-01   6.47142300e-02
C     3.626339933119972e+00   2.105935700473129e+00   3.004646259289702e+00  1.15734960e+00  -4.03991980e-01   2.64624100e-02
C     4.853299491435109e+00   2.801876078235177e+00   3.012455564775669e+00 -1.68595100e-02  -1.43988000e-02  -1.97056280e-01
C     6.074047843716150e+00   2.105471397606125e+00   2.990460016682020e+00 -5.55209320e-01  -5.86880100e-01   2.13929170e-01
C     7.283585843471394e+00   2.795345529551398e+00   3.009439720789865e+00 -1.09030670e-01   6.85320800e-01  -9.18396100e-02
C     8.496802821326414e+00   2.100158726834768e+00   3.004517451372171e+00 -1.83606100e-01  -3.46962800e-01  -2.07401300e-02
C     9.699537545070131e+00   2.802838078857521e+00   3.010835885382773e+00  7.69232150e-01  -2.69878770e-01  -3.00880400e-02
C     2.426768967681731e+00   4.202598747121250e+00   2.995397064876884e+00  4.36867800e-02  -1.48745870e-01   9.99069600e-02
C     3.643958779205217e+00   4.893655722283231e+00   3.008491474410822e+00 -3.10542990e-01   6.39449350e-01  -1.28914940e-01
C     4.852569971932528e+00   4.202743071178594e+00   3.005756268324292e+00  3.24354530e-01  -6.21814600e-02   8.24012800e-02
C     6.068394095047967e+00   4.911137436896905e+00   3.003130011530075e+00 -4.20492210e-01   3.43715900e-02  -6.95205000e-03
C     7.269513046835411e+00   4.209998055108220e+00   3.010078372015477e+00  5.85322320e-01  -4.44916550e-01  -4.84672400e-02
C     8.489207125552749e+00   4.911726800819662e+00   2.999428622736279e+00  1.38396100e-01  -9.46032950e-01   9.20279400e-02
C     9.707586538502568e+00   4.196761025885301e+00   3.002727841146907e+00 -1.67952600e-01   5.58493970e-01   1.90679000e-03
C     1.092299932770695e+01   4.902590817976054e+00   2.999004743391938e+00 -2.60623510e-01   1.05393250e-01   5.03021800e-02
C     3.644841167037544e+00   6.307090430499803e+00   2.997642193472039e+00 -4.16750760e-01  -3.94372740e-01   6.91786000e-03
C     4.843563795195791e+00   7.007494791255125e+00   2.992228480399431e+00  8.11409140e-01   2.32282280e-01  -1.93466600e-02
C     6.067207011313193e+00   6.319541355209640e+00   2.992615719335466e+00 -7.56461040e-01  -9.60611880e-01   1.94843100e-02
C     7.267452216719580e+00   6.994745956780434e+00   2.993803308220421e+00  8.43981120e-01   9.86077150e-01   1.26209240e-01
C     8.486860079502719e+00   6.293023414950140e+00   3.003411630870803e+00  3.14085550e-01   1.04608476e+00  -8.19254100e-02
C     9.711570831694091e+00   7.005945620563335e+00   3.003747626839708e+00 -8.01976950e-01  -3.38045400e-02   3.13005400e-02
C     1.091136802089656e+01   6.311145868021117e+00   3.010795116466853e+00  1.11211100e+00  -2.75693260e-01  -1.53705590e-01
C     1.214606223033300e+01   7.013020891156615e+00   2.995654848140632e+00 -8.98106150e-01  -1.56114890e-01   1.60236770e-01
