26
Lattice="8.88768389401873 1.33226762955019e-15 0 4.44384194700937 7.69696003302603 0 0 0 30 " PBC="1 1 1" Properties=species:S:1:pos:R:3:force:R:3 Energy="-209.00741404"
C     1.329261556784754e-01   1.988580435782776e-01   3.677256300000000e+00  1.52787727e+00  -9.75463580e-01  -9.58436320e-01
C     7.035478929191441e+00   7.286460985564821e+00   3.613161900000000e+00 -1.75024135e+00   8.34100960e-01  -9.20743800e-02
C     3.933162161144802e+00   2.546546922885530e-02   3.591020700000000e+00  5.28454180e-01  -4.69741700e-01   5.50412070e-01
C     9.388762579964778e+00   6.725431801096529e+00   3.602870100000000e+00  6.01264700e-01   1.27043096e+00  -2.99608360e-01
C     1.075144929280433e+01   7.134494130972509e+00   3.607895400000000e+00  6.70093500e-01  -1.23959196e+00   3.50693060e-01
C     1.178102170193807e+01   6.115440483576601e+00   3.659643600000000e+00 -4.24703130e-01   5.39904220e-01  -5.88905030e-01
C     4.267659925000971e+00   6.496669528409696e+00   3.659825100000000e+00 -1.60870188e+00   1.35252001e+00   2.84381220e-01
C     5.264711410054179e+00   5.541310842228450e+00   3.667281000000000e+00  1.42831900e+00  -1.26136314e+00  -2.99085990e-01
C     6.657064367374872e+00   5.929264490130954e+00   3.660068700000000e+00  3.44284000e-03  -7.01463910e-01  -2.39147540e-01
C     7.689817989666119e+00   4.947694653233146e+00   3.643239000000000e+00  2.14281120e-01   8.16013200e-01  -1.37417100e-01
C     9.051928736170591e+00   5.386636504975984e+00   3.577713000000000e+00 -1.88316550e-01  -2.73524584e+00   6.30305750e-01
C     1.006622743833186e+01   4.343884610374110e+00   3.629996100000000e+00 -6.56604100e-02   1.40806407e+00  -7.96256310e-01
C     1.142563641778619e+01   4.745224811160790e+00   3.606231900000000e+00  3.58427180e-01  -5.34035560e-01   6.16768110e-01
C     3.555786350671039e+00   3.730041195267968e+00   3.638430000000000e+00  4.23703820e-01   8.34036020e-01  -2.07868760e-01
C     4.932417261835053e+00   4.139875299326154e+00   3.612217500000000e+00  2.73886490e-01   7.72302720e-01   4.17586610e-01
C     6.009260773085565e+00   3.209123024664815e+00   3.621643800000000e+00 -1.10724780e+00  -1.10047264e+00   4.73399980e-01
C     7.371027699491304e+00   3.575020032996550e+00   3.661138200000000e+00 -5.27239530e-01   5.43988540e-01  -4.95704380e-01
C     8.371301281009758e+00   2.598398417762828e+00   3.614664900000000e+00  1.04843080e-01  -1.44489917e+00  -2.22942530e-01
C     9.727785368121845e+00   2.980555715975541e+00   3.574468200000000e+00  2.66545700e-01  -1.06350766e+00   1.32155082e+00
C     1.840898544182675e+00   1.944286816867735e+00   3.723730500000000e+00  5.87401530e-01   4.18209470e-01  -1.82673204e+00
C     3.213632739227749e+00   2.363036925485474e+00   3.667586100000000e+00  6.35784090e-01  -9.12253790e-01   4.24037450e-01
C     4.297767128612044e+00   1.385920087843421e+00   3.677653500000000e+00 -8.19679860e-01   1.36975164e+00  -4.54519410e-01
C     5.673145854012606e+00   1.826249855418869e+00   3.666056700000000e+00 -8.83062290e-01  -1.11759696e+00  -4.39519440e-01
C     6.667534055662334e+00   7.954580360988112e-01   3.619917600000000e+00  6.75898600e-02   1.13230431e+00   1.12266170e-01
C     8.036359891701263e+00   1.190318781993037e+00   3.601754700000000e+00 -5.49928120e-01   7.83734420e-01   5.29231660e-01
C     1.518135992552988e+00   5.453270781286901e-01   3.592565700000000e+00  2.32866570e-01   1.48027536e+00   1.34758469e+00
