32
Lattice="9.86 0 0 4.93 8.53901048131456 0 0 0 30 " PBC="1 1 1" Properties=species:S:1:pos:R:3:force:R:3 Energy="-257.47631795"
C     9.817967855299999e+00   1.419108825434300e+00   3.403573500000000e+00 -5.64750090e-01  -3.24591750e-01  -2.12954910e-01
C     1.104792422180000e+01   2.133648184384517e+00   3.432610200000000e+00 -9.39494100e-02  -3.49419950e-01  -1.26908550e-01
C     2.410300121700000e+00   1.403548186636596e+00   3.465646800000000e+00  9.87389720e-01   6.29104000e-01   2.33538270e-01
C     3.662325485300000e+00   2.145812260983591e+00   3.523929900000000e+00 -1.52326750e+00  -9.32244730e-01  -4.57608950e-01
C     4.879573642900001e+00   1.433122366313238e+00   3.469801200000000e+00 -7.07712380e-01  -1.19167714e+00   7.32110420e-01
C     6.090526436999999e+00   2.119795518463022e+00   3.466706700000000e+00  9.77712450e-01  -9.91734400e-02  -6.23707550e-01
C     7.324122474600000e+00   1.424917828873739e+00   3.357522300000000e+00  3.49814250e-01  -7.94748090e-01   7.70501080e-01
C     8.567491793500000e+00   2.110365803799854e+00   3.346110300000000e+00  9.08912900e-02   9.45067430e-01  -2.65654720e-01
C     1.103760326680000e+01   3.557772909964874e+00   3.412356000000000e+00 -7.91355340e-01  -5.10036300e-02   1.48206430e-01
C     1.224193714150000e+01   4.274852795313101e+00   3.527987700000000e+00  1.46443448e+00  -8.95235570e-01  -3.23063210e-01
C     3.631322539400000e+00   3.551886970041009e+00   3.529569000000000e+00  2.68751030e-01   4.29818140e-01  -2.61586100e-02
C     4.884364074600001e+00   4.237017720727792e+00   3.467481000000000e+00 -1.27896048e+00   1.75133638e+00   6.29067760e-01
C     6.093643675999999e+00   3.514340599400031e+00   3.452723100000000e+00  4.56689690e-01   1.66949965e+00  -8.06997110e-01
C     7.317593084000000e+00   4.251694913501235e+00   3.283396200000000e+00  9.51876300e-02  -1.84021200e-01   1.05328156e+00
C     8.552806851800000e+00   3.552325875179682e+00   3.275596200000000e+00  3.56164320e-01  -7.04520620e-01   1.55642410e-01
C     9.789437698799999e+00   4.261013535638059e+00   3.315874500000000e+00  7.57558800e-02   5.09518900e-02   3.28743500e-01
C     1.227576581550000e+01   5.671195679516567e+00   3.528936300000000e+00  2.33250300e-02   1.55559925e+00  -8.48050000e-02
C     1.350910322530000e+01   6.444944280964790e+00   3.539085300000000e+00 -7.32537490e-01  -1.99059632e+00  -3.02104180e-01
C     4.853760655899999e+00   5.708341741346244e+00   3.489187500000000e+00  1.55370886e+00  -4.96928140e-01  -2.27984220e-01
C     6.113320489199999e+00   6.435688078994575e+00   3.421217700000000e+00 -6.35830430e-01  -2.55640053e+00   2.68762870e-01
C     7.337481591400000e+00   5.670344254781607e+00   3.383277900000000e+00 -1.14533023e+00   5.51320010e-01  -6.07682080e-01
C     8.544192120500000e+00   6.391884406863956e+00   3.377229600000000e+00  1.16232976e+00  -6.41724760e-01   1.13636160e-01
C     9.780347912700000e+00   5.685403739054239e+00   3.382601100000000e+00  1.12708942e+00  -3.06212950e-01  -7.54809700e-02
C     1.105215593660000e+01   6.369215468792176e+00   3.466035900000000e+00 -1.46549778e+00   1.35319043e+00   1.50679160e-01
C     1.349626427280000e+01   7.849916774549449e+00   3.465621300000000e+00 -6.67229200e-02  -3.14200480e-01   5.16551000e-03
C     1.473440665780000e+01   8.524545737807300e+00   3.421188300000000e+00  4.89914240e-01   1.08003337e+00   1.87488090e-01
C     6.117433588200000e+00   7.821640353685559e+00   3.432872100000000e+00 -1.22555710e-01   7.95059600e-01  -9.91712300e-02
C     7.363140121500001e+00   8.518276481702989e+00   3.437780700000000e+00 -7.98253150e-01   5.61435820e-01   7.15690000e-04
C     8.574454876200001e+00   7.791026805653291e+00   3.430277400000000e+00  1.96868700e-01   1.48643581e+00   3.79469700e-01
C     9.803314465600000e+00   8.536756352013489e+00   3.514110900000000e+00 -3.66959220e-01  -3.42383620e-01  -7.47984520e-01
C     1.102614821460000e+01   7.831755153159538e+00   3.496769700000000e+00  4.70798600e-01  -1.21610580e+00  -1.21714630e-01
C     1.225368429620000e+01   8.538608121826183e+00   3.444373500000000e+00  1.46856800e-01   5.32336950e-01  -4.70281900e-02
