32
Lattice="9.86 0 0 4.93 8.53901048131456 0 0 0 30 " PBC="1 1 1" Properties=species:S:1:pos:R:3:force:R:3 Energy="-249.82070689"
C     9.757637966300001e+00   4.637245411430632e-01   4.541321700000000e+00 -1.71008160e+00   6.47762518e+00   1.27442483e+00
C     1.109017797000000e+00   1.317221096216626e+00   4.829013300000000e+00  6.27713000e-02  -7.32160440e+00  -2.50882656e+00
C     2.373538787900000e+00   4.999859614870120e-01   4.544127000000000e+00 -1.39083651e+00   2.02126856e+00  -5.82412410e-01
C     3.668643378900000e+00   1.078771875655874e+00   4.364816100000000e+00 -1.24802319e+00   1.48819277e+00   2.12696423e+00
C     4.948849904300000e+00   3.603125131646040e-01   4.387750199999999e+00 -3.92329921e+00   4.55646154e+00  -1.52955287e+00
C     6.081780617000000e+00   1.174558311105379e+00   4.540134900000000e+00 -1.69694023e+00   8.40089430e-01  -1.99977940e-01
C     7.206167097399999e+00   4.453093965320000e-01   4.758717600000000e+00  4.76585674e+00  -1.90037191e+00  -2.91368824e+00
C     8.426790727400000e+00   1.141610539168299e+00   4.578033000000000e+00  2.53714200e+00   1.55939984e+00   2.26536646e+00
C     1.087753794950000e+01   2.638680017944370e+00   5.022554400000001e+00  2.07250811e+00   1.00298769e+00  -5.06998000e-03
C     2.336692165100000e+00   3.189792536169439e+00   5.001653400000000e+00  1.27768130e+00   3.80331661e+00  -3.34680710e-01
C     3.565869690200000e+00   2.486600668246094e+00   4.618582200000001e+00  8.12760190e-01   1.79881107e+00   7.16588070e-01
C     4.813556555200000e+00   3.305502020090671e+00   4.538387100000000e+00 -5.75805010e-01  -2.22905228e+00  -7.78259990e-01
C     6.084617486900000e+00   2.648665366019473e+00   4.411246800000000e+00 -2.16403458e+00  -3.96996013e+00   2.04140864e+00
C     7.282991238100000e+00   3.250011516656705e+00   4.653614700000000e+00 -1.23678976e+00   4.17048308e+00  -2.16261784e+00
C     8.470410874400001e+00   2.624199990922910e+00   4.703709000000000e+00  1.46793729e+00  -4.22580295e+00   4.89750920e-01
C     9.656991572599999e+00   3.328326624323501e+00   4.908096599999999e+00  6.10021040e-01   2.20255606e+00  -1.34093635e+00
C     1.225135211040000e+01   4.743283526692110e+00   5.085958499999999e+00 -3.06394552e+00  -2.11438777e+00  -2.35906429e+00
C     3.503305968900000e+00   5.352911748983999e+00   4.538451300000000e+00  3.78547521e+00   2.27338968e+00  -4.18289600e-02
C     4.789542475899999e+00   4.654392512985416e+00   4.427199300000001e+00  1.28145910e+00   3.57272492e+00  -7.32071180e-01
C     6.213335990799999e+00   5.426338614711415e+00   4.181358900000000e+00 -7.69591821e+00   1.72365546e+00  -1.64237050e-01
C     7.316590223400000e+00   4.680411817209128e+00   4.371281100000000e+00  6.69071560e-01   6.39604340e-01   1.24885133e+00
C     8.475998733599999e+00   5.485684225206786e+00   4.473847200000000e+00  1.06402782e+00   5.32989600e-02  -1.25314781e+00
C     9.702556604600000e+00   4.772187052485653e+00   4.629764100000000e+00  1.08194300e-02  -7.89737840e-01   2.58197886e+00
C     1.089070484560000e+01   5.495940259914105e+00   4.895243100000000e+00  2.56613478e+00  -1.94695784e+00  -3.15644680e-01
C     1.343472185030000e+01   6.835612037094640e+00   4.296500700000000e+00 -1.15688560e-01   3.99215010e-01   1.25384521e+00
C     4.754989190500000e+00   7.743503028216955e+00   4.222058100000000e+00  2.38238727e+00  -9.42329381e+00  -1.47333330e+00
C     6.068035431899999e+00   6.958137103010694e+00   3.999654300000000e+00 -2.84720221e+00  -2.27080842e+00   2.04381349e+00
C     7.183889906399999e+00   7.685810484760408e+00   4.216275900000000e+00  3.56121029e+00  -1.51551113e+00   3.70098710e-01
C     8.442753574399999e+00   6.908628517978387e+00   4.296323100000000e+00  1.29497477e+00   5.32917900e-02  -5.94715240e-01
C     9.760970054700000e+00   7.561276616628935e+00   4.222370700000000e+00 -5.55660560e-01  -2.46315199e+00   2.85547418e+00
C     1.093190574300000e+01   6.870078130485170e+00   4.661635800000000e+00  1.48564669e+00  -1.47805002e+00  -1.41397269e+00
C     1.225303910710000e+01   7.487743098660625e+00   4.536882000000000e+00 -3.48365976e+00   3.01231850e+00   1.43547312e+00
