26
Lattice="8.88768389401873 1.33226762955019e-15 0 4.44384194700937 7.69696003302603 0 0 0 30 " PBC="1 1 1" Properties=species:S:1:pos:R:3:force:R:3 Energy="-205.90610715"
C     1.314492385063086e+01   7.514114588128933e+00  -3.458804999999998e-01 -1.38557323e+00   1.22850170e+00  -2.37315820e-01
C     9.445298870634003e+00   7.258948047998386e+00  -4.193511000000001e-01 -2.67977649e+00  -2.07643795e+00   2.09504231e+00
C     1.073940803631277e+01   6.880045332364758e+00  -5.512673999999969e-01  2.94127958e+00  -2.16000928e+00  -1.01174142e+00
C     1.116183609559744e+01   5.443054452299881e+00  -5.702753999999999e-01 -2.95937536e+00   2.96074204e+00   5.07453700e-02
C     7.029873777640867e+00   6.685963021576295e+00  -1.290414000000020e-01  2.87662690e-01   8.00183510e-01   1.55484134e+00
C     8.425443009490031e+00   6.277060711499340e+00  -1.193891999999970e-01 -9.73006340e-01  -1.02588187e+00  -2.47785564e+00
C     8.771142227312517e+00   4.883227071170674e+00  -3.279137999999975e-01 -2.59209945e+00  -8.36245000e-03   1.63095410e-01
C     1.011359732710796e+01   4.513582797848333e+00  -4.613909999999990e-01 -2.61069780e-01  -2.55274709e+00   8.32813590e-01
C     1.039606707315189e+01   3.068016349766031e+00  -2.144055000000016e-01  1.78449809e+00   4.54648395e+00  -5.68938000e-02
C     4.572251294738569e+00   6.186832481790862e+00  -3.066357000000011e-01  1.67382353e+00  -4.16554429e+00  -1.18051398e+00
C     5.965611759347697e+00   5.716826007245345e+00  -2.503299000000005e-01  3.96319870e-01   2.53474440e+00   1.83520420e-01
C     6.317004294190392e+00   4.377690582461073e+00  -3.727260000000001e-01 -1.00768253e+00  -2.87268960e+00  -2.21030090e-01
C     7.639292750300351e+00   3.828768793089572e+00  -3.871944000000020e-01  2.07630471e+00   6.09481801e+00   7.45470750e-01
C     8.012085894774442e+00   2.537483136693402e+00  -3.362264999999987e-01  1.40279107e+00  -1.60133689e+00   1.26076100e-01
C     9.407473417952723e+00   2.168987942533940e+00  -6.798930000000070e-02 -3.19045265e+00  -2.19393590e+00  -1.68487131e+00
C     3.591195417463117e+00   5.135943591954073e+00  -5.403705000000016e-01  1.90293738e+00  -1.72073316e+00   2.00297346e+00
C     3.905818804077012e+00   3.667005401710277e+00  -2.731740000000009e-01 -1.64688940e-01   4.57847106e+00  -1.31611293e+00
C     5.260246414025575e+00   3.392405038108782e+00  -3.759066000000004e-01  1.09691149e+00  -3.68326377e+00   6.91027480e-01
C     5.613726532405673e+00   1.909950293325904e+00  -3.856113000000008e-01  1.26023006e+00   2.54804968e+00  -1.00787290e-01
C     7.015114353198030e+00   1.584313235035887e+00  -5.020476000000009e-01 -2.33587440e+00  -2.56061907e+00   1.73392150e-01
C     7.278674618576824e+00   1.659071267810467e-01  -5.895527999999999e-01  3.08120959e+00   1.59536141e+00   1.30162717e+00
C     2.862362231680747e+00   2.772201009173049e+00  -7.681950000000271e-02  2.27451381e+00  -3.48689808e+00   2.62138380e-01
C     3.298670764600029e+00   1.341602377443487e+00   1.203786000000000e-01  5.77260470e-01   1.49079569e+00  -1.39636709e+00
C     4.675120988572235e+00   8.611692929629301e-01  -1.988994000000019e-01 -2.07825660e+00   5.00895079e+00   2.15313020e-01
C     8.219105652568126e-01   7.872985657406085e-01  -1.075058999999996e-01  2.16536067e+00   6.54080100e-02   1.32047684e+00
C     2.283181111525364e+00   4.260424394589611e-01   1.333608000000000e-01 -3.29324725e+00  -3.34405086e+00  -2.03506446e+00
