26
Lattice="8.88768389401873 1.33226762955019e-15 0 4.44384194700937 7.69696003302603 0 0 0 30 " PBC="1 1 1" Properties=species:S:1:pos:R:3:force:R:3 Energy="-208.98497455"
C     9.256413903983264e-01   1.027685095343149e+00   3.606111000000000e+00  3.12108200e-01   2.25585391e+00  -1.76180070e-01
C     3.350476451266455e+00   4.325729251964147e-01   3.726397200000000e+00 -6.29764540e-01   8.14900500e-01  -2.55154810e-01
C     4.721420089062806e+00   8.300419399360068e-01   3.658364400000000e+00 -1.17048584e+00   2.70581184e+00   8.48105000e-03
C     1.016246994736938e+01   7.597661163804968e+00   3.543321600000000e+00  6.68758600e-01  -2.71736570e+00  -4.68070560e-01
C     7.081185883199034e+00   2.606344605358600e-01   3.458706300000000e+00  3.54352670e-01   3.04886180e-01   1.76604980e-01
C     1.256187956654340e+01   6.993632989098683e+00   3.449145300000000e+00 -5.90385050e-01  -9.59796620e-01   2.94148400e-01
C     5.023433857184435e+00   7.394834644604823e+00   3.562248300000000e+00  5.78128190e-01  -2.28833985e+00  -2.86077760e-01
C     6.059382824007584e+00   6.384554915886314e+00   3.555346200000000e+00  8.27709800e-02   7.55895000e-03  -1.12135080e-01
C     7.447816845981137e+00   6.752983377402316e+00   3.636405300000000e+00 -1.17742611e+00   7.56662500e-01  -6.46638760e-01
C     8.449419536194892e+00   5.788630177669211e+00   3.441429900000000e+00  9.80395880e-01   1.93319990e-01   7.08095390e-01
C     9.813800419328626e+00   6.183941888451596e+00   3.461889300000000e+00  4.17801750e-01   1.08322647e+00   4.37335090e-01
C     1.085532134184854e+01   5.228467593930699e+00   3.509086500000000e+00 -6.52962710e-01  -1.25287416e+00  -7.69615000e-01
C     3.322742214849454e+00   5.595448719082660e+00   3.466435200000000e+00  1.09065231e+00   3.43285020e-01   7.67194400e-02
C     4.344758626214561e+00   4.585199547295470e+00   3.460432500000000e+00  4.12166780e-01   5.48090340e-01   6.16606440e-01
C     5.737338530559461e+00   4.997900384116829e+00   3.423503700000000e+00 -1.07939501e+00   3.77860640e-01   5.30717900e-01
C     6.778525142847903e+00   4.039434666080273e+00   3.422787300000000e+00 -6.13173680e-01  -9.07723540e-01  -1.98666700e-01
C     8.125092218963225e+00   4.426141560397118e+00   3.404611500000000e+00  4.39911230e-01  -7.59666200e-01  -2.89596030e-01
C     9.145738105039360e+00   3.424030307480046e+00   3.404235300000000e+00  2.28169300e-02  -9.90708800e-02   4.71028720e-01
C     1.051533317012232e+01   3.824052019013588e+00   3.486809100000000e+00 -2.51144630e-01  -1.93759500e-01   7.01181050e-01
C     2.620001357845941e+00   2.815845158600758e+00   3.691654500000000e+00  8.13509630e-01   2.77338270e-01  -7.52916570e-01
C     4.012073508794527e+00   3.204411869369652e+00   3.656634900000000e+00 -2.23113830e-01   7.42156540e-01  -7.01796170e-01
C     5.059669829837835e+00   2.261702752149709e+00   3.609334200000000e+00  4.20641540e-01  -1.40120969e+00  -1.22096770e-01
C     6.451699497656914e+00   2.649478369366720e+00   3.438904200000000e+00 -1.82413449e+00  -1.88108450e-01   5.30056330e-01
C     7.435103010849033e+00   1.630720208266365e+00   3.436535100000000e+00  1.09596990e-01   7.55200900e-01   8.17505400e-02
C     8.788487918163449e+00   2.033185242791829e+00   3.475225500000000e+00  9.80361720e-01   7.53793100e-02  -8.58857800e-02
C     2.292838380616819e+00   1.431913503411487e+00   3.697904700000000e+00  5.28012480e-01  -4.73616770e-01   2.32104720e-01
