32
Lattice="10.092 0 0 5.046 8.73992837499256 0 0 0 30 " PBC="1 1 1" Properties=species:S:1:pos:R:3:force:R:3 Energy="-256.96134233"
C     1.116809912859394e-03   1.996649040258468e-04   2.998886410292374e+00 -7.75123000e-02   9.52406000e-03   2.24856800e-02
C     1.262531781912344e+00   7.286841812826621e-01   3.001104438329442e+00 -5.59726300e-02  -1.45726800e-02  -1.37445500e-02
C     2.522068630208233e+00   1.814507202877948e-04   3.000978508307743e+00  8.83499900e-02   1.44051000e-02  -9.26777000e-03
C     3.785722184582454e+00   7.283861886766150e-01   3.000375738528762e+00 -4.41715300e-02  -1.52013300e-02   1.14219600e-02
C     5.046862028415004e+00   2.852911062389337e-04   3.000322101240765e+00 -1.57251800e-02  -4.10937000e-03  -9.79783000e-03
C     6.308538503205503e+00   7.293262964822083e-01   2.999719758249244e+00 -3.73513600e-02  -4.50366300e-02   4.56623000e-03
C     7.569385142454454e+00   4.906091253557756e-04   2.999487408476533e+00 -5.16427000e-03   4.22474000e-03   6.28984000e-03
C     8.829330225097847e+00   7.295551677960831e-01   2.998963702098735e+00  1.11025000e-01  -4.94901200e-02   1.05946200e-02
C     1.261463926561734e+00   2.184739662877949e+00   3.000620434579182e+00 -5.96559000e-03   2.78341400e-02  -1.23868000e-02
C     2.522522036425778e+00   2.912057959581063e+00   2.999571135189943e+00  3.60996300e-02   3.86581600e-02   2.46797000e-02
C     3.785385087308546e+00   2.184810596600968e+00   3.001235621835649e+00 -6.13553200e-02  -3.20537800e-02  -2.30878600e-02
C     5.045084420372861e+00   2.912127485447609e+00   2.999201404586689e+00  4.59653000e-02   6.47288200e-02   2.90069500e-02
C     6.307176778847925e+00   2.185073116506843e+00   3.000290082083842e+00  2.75701900e-02  -5.32846000e-03  -1.79482200e-02
C     7.568926074497735e+00   2.912666897140284e+00   2.998955998455054e+00  6.42867000e-03   6.13436600e-02   2.63704000e-02
C     8.831646094859380e+00   2.185511058782445e+00   3.000742820328402e+00 -7.18669200e-02   4.09603000e-03  -3.04549700e-02
C     1.009185437206761e+01   2.914160662376197e+00   2.998834701926969e+00  2.74550400e-02  -9.25326000e-03   2.46661500e-02
C     2.523430378025143e+00   4.369131769184743e+00   3.001064601614817e+00 -3.71866300e-02   5.25931000e-03  -2.29898300e-02
C     3.783782088690689e+00   5.098134283528668e+00   2.999573808209314e+00  4.03231000e-02  -3.63090400e-02   2.71966000e-02
C     5.045770603742601e+00   4.369064675225517e+00   3.001181990649829e+00  1.12719200e-02   2.31702100e-02  -3.30363100e-02
C     6.308737991877304e+00   5.097693993688903e+00   2.998932352538639e+00 -8.64667100e-02   2.08557700e-02   1.97505700e-02
C     7.568446780822941e+00   4.370778503894291e+00   3.000380077563206e+00  5.63108500e-02  -6.77294900e-02  -2.32329900e-02
C     8.830711544100270e+00   5.098881818788361e+00   2.999255391554213e+00 -3.54115000e-02  -1.17348000e-03   1.25150700e-02
C     1.009147019665244e+01   4.371040954965237e+00   2.999767130398131e+00  3.72788800e-02  -2.75160600e-02  -9.38362000e-03
C     1.135396926828949e+01   5.098470902492046e+00   2.999927985813169e+00 -2.29944800e-02  -5.19034000e-03   2.74289000e-03
C     3.783486304183542e+00   6.554046134273751e+00   3.001131152000808e+00  2.26071600e-02   5.01284600e-02  -7.18192000e-03
C     5.045209964066778e+00   7.283391366947093e+00   3.000813534780737e+00  3.45580100e-02  -1.74583900e-02  -1.88000100e-02
C     6.307631079568605e+00   6.554745495328425e+00   2.998961618981510e+00 -2.55371200e-02   1.26715100e-02   8.90530000e-03
C     7.568366959188855e+00   7.284079508423161e+00   2.999114361682823e+00 -2.43931000e-03  -3.17858800e-02   1.23342700e-02
C     8.829841615888339e+00   6.555044809976937e+00   3.000109178776987e+00  7.68720000e-04   2.22757300e-02  -1.78223600e-02
C     1.009080350435780e+01   7.283208623153676e+00   2.999064486916379e+00  4.06068900e-02   1.09056300e-02   1.23354600e-02
C     1.135249223745161e+01   6.555021490717758e+00   2.999436444838173e+00  4.08268100e-02   1.02774400e-02   9.40349000e-03
C     1.261524322515295e+01   7.283632506255282e+00   3.001106086095983e+00 -4.23253000e-02  -1.81504500e-02  -1.61301600e-02
