2
Lattice="2.473 0 0 1.2365 2.14168082355892 0 0 0 30 " PBC="1 1 1" Properties=species:S:1:pos:R:3:force:R:3 Energy="-16.12922032"
C     0.000000000000000e+00   0.000000000000000e+00   3.000000000000000e+00 -0.00000000e+00   0.00000000e+00   0.00000000e+00
C     1.236500000000000e+00   7.138936078529722e-01   3.000000000000000e+00  0.00000000e+00   0.00000000e+00  -0.00000000e+00
