32
Lattice="9.86 0 0 4.93 8.53901048131456 0 0 0 30 " PBC="1 1 1" Properties=species:S:1:pos:R:3:force:R:3 Energy="-243.81385018"
C     9.736350867199999e+00   1.535449000669584e-01  -3.491985000000000e-01  9.10581910e+00  -9.02973190e+00  -1.18548580e+00
C     1.205077220100000e+00   6.954401542096008e-01  -5.334797999999985e-01 -6.92654270e-01   9.99660270e-01   3.95153401e+00
C     7.315965641700000e+00   8.386041194629499e+00  -3.379127999999980e-01  2.34301137e+00   6.84205827e+00  -7.14113240e-01
C     3.786569324000000e+00   7.170287366754512e-01  -1.432677000000027e-01 -4.18509506e+00  -3.92788086e+00  -1.36658637e+00
C     5.005261133500000e+00   1.217077972230120e-01  -1.637243999999995e-01 -3.02307920e-01  -6.23589865e+00   8.33808280e-01
C     6.222587333000000e+00   7.329630425717599e-01  -2.868428999999999e-01 -1.82086823e+00   4.32950305e+00   1.01564579e+00
C     7.417227447299999e+00   9.423899597031921e-02  -4.799189999999953e-02 -2.95475375e+00  -3.40997933e+00  -2.33878830e-01
C     8.591478314100000e+00   7.063852870626551e-01  -2.669081999999996e-01 -1.89775167e+00   2.09981616e+00  -1.77343150e-01
C     1.106366023950000e+01   2.106371425477519e+00  -3.557789999999983e-02  9.56045870e-01  -2.05215558e+00  -4.52687083e+00
C     2.535787405000000e+00   2.682304029294489e+00  -1.073360999999977e-01 -4.83835301e+00   5.29418209e+00   4.46486038e+00
C     3.716429720999999e+00   2.036724950469810e+00  -2.462489999999917e-02  2.26646708e+00   3.53478357e+00  -2.20020160e-01
C     5.021875627900000e+00   2.851764364044596e+00   8.307600000000000e-03 -5.74407064e+00  -9.15239980e-01  -1.87640240e-01
C     6.141968028999999e+00   2.318206258174206e+00  -3.134979000000016e-01  5.96884295e+00  -1.04315705e+01  -2.65812460e-01
C     7.462172236000000e+00   2.794902666307752e+00  -3.224085000000017e-01 -6.36907467e+00   6.22184830e-01  -9.89351400e-01
C     8.580369200000000e+00   2.060708981545615e+00  -3.709343999999994e-01  1.42840105e+00   2.54033962e+00   1.33984460e-01
C     9.727927124099999e+00   2.802565318142189e+00  -2.232048000000013e-01  7.28986335e+00  -1.60032827e+00   2.51751066e+00
C     1.230838387870000e+01   4.315898964789412e+00   5.104461000000000e-01  8.87078900e-02  -5.12282190e+00  -2.69599970e+00
C     3.666470925100000e+00   4.902597467629461e+00   4.075797000000000e-01  4.47312914e+00   3.69119964e+00  -3.41386760e+00
C     5.023304884200000e+00   4.176608491087032e+00   1.271580000000000e-02 -3.24784487e+00   7.27603732e+00   1.19790973e+00
C     6.228512847899999e+00   5.014796991292888e+00  -3.242720999999982e-01 -3.20121692e+00  -6.43764362e+00   1.29812266e+00
C     7.330420796100000e+00   4.139826788834537e+00  -4.289082000000022e-01  4.67607763e+00   3.37029460e+00   4.86865400e-01
C     8.615997816999998e+00   4.674960683698905e+00  -2.812389000000017e-01  2.32470354e+00   8.94268049e+00   1.63926936e+00
C     9.887471340399999e+00   4.144218145754087e+00   1.358265000000000e-01 -4.30941818e+00   8.90979870e-01  -2.24227527e+00
C     1.103250293530000e+01   4.929215100317508e+00   4.542786000000000e-01  2.23611228e+00   6.79098900e-01   2.02846880e-01
C     3.770468634200000e+00   6.445096019181019e+00  -4.215810000000175e-02 -2.95907917e+00  -1.98985441e+00   3.77510917e+00
C     4.998547163700000e+00   7.048447385649270e+00  -2.527839000000007e-01 -2.54131958e+00   3.54509039e+00   1.04505330e-01
C     6.239657803099999e+00   6.352126090948238e+00  -2.714303999999998e-01 -3.64028060e+00   1.22131893e+00  -1.27714765e+00
C     7.358793734900000e+00   7.059330866846658e+00  -4.548635999999995e-01  5.76558735e+00  -1.31114728e+00   9.97021480e-01
C     8.694043069399999e+00   6.368319385032405e+00  -2.446941000000002e-01 -2.68486800e+00  -2.55285760e+00  -2.70047000e-01
C     9.824383362899999e+00   7.092797639840713e+00   6.068459999999999e-02  3.26960842e+00   8.45439010e-01   2.60268230e-01
C     1.113465263390000e+01   6.360406540190904e+00   4.823202000000000e-01 -2.86902107e+00   3.32072604e+00  -3.02379526e+00
C     1.231349747190000e+01   7.250169382844388e+00   2.038578000000000e-01  2.06560059e+00  -5.02828313e+00  -8.90268500e-02
