32
Lattice="9.86 0 0 4.93 8.53901048131456 0 0 0 30 " PBC="1 1 1" Properties=species:S:1:pos:R:3:force:R:3 Energy="-253.60850213"
C     5.166046329400000e+00   7.503617375313260e+00  -1.562754000000020e-01 -7.26363530e-01  -5.75572080e-01   3.04064850e-01
C     6.346254903999999e+00   8.222969235179900e+00  -6.626789999999971e-02  3.61481687e+00  -1.50882780e-01   3.75539200e-01
C     7.637126153299999e+00   7.512472073010705e+00   4.732260000000000e-02  5.24501160e-01   2.83137929e+00  -1.23963041e+00
C     8.947071326100000e+00   8.251400297523583e+00  -4.312140000000042e-02 -3.48541505e+00  -2.12411407e+00   2.17428212e+00
C     1.013345906410000e+01   7.502419266752811e+00   1.921983000000000e-01 -2.30724567e+00  -3.03061458e+00  -1.24178895e+00
C     1.127821443110000e+01   8.137268908129160e+00   4.353480000000000e-02  4.96849198e+00  -4.89807600e-02   5.16799560e-01
C     1.254050509000000e+01   7.390722093075921e+00   2.289300000000000e-03  1.10551447e+00   3.70595020e+00  -1.24982390e-01
C     1.381811863260000e+01   8.206231579177633e+00  -7.810679999999692e-02 -1.66767709e+00  -4.45747680e-01   9.07965270e-01
C     1.483977328000000e+00   1.097282315623894e+00   8.661389999999999e-02 -3.02812780e+00   8.66801000e-02   3.89384190e-01
C     2.636327212100000e+00   1.768458017653527e+00   3.014643000000000e-01  5.24284829e+00   2.80679423e+00  -3.10363870e-01
C     3.930064714100000e+00   1.096359675541530e+00   1.281297000000000e-01  5.22964880e-01   7.57712120e-01   6.74758870e-01
C     5.203863669200000e+00   1.767576877162096e+00   2.771202000000000e-01 -2.57107322e+00   1.47587805e+00  -7.48280790e-01
C     6.351651577800000e+00   9.632104581763664e-01   1.306248000000000e-01  2.89510611e+00   5.58244787e+00   3.68695090e-01
C     7.606647069199999e+00   1.793418996918349e+00   1.810227000000000e-01  1.85848361e+00  -1.20730232e+00   1.62058580e-01
C     8.971122232499999e+00   1.103286520842907e+00   1.732329000000000e-01 -6.49323129e+00  -1.24179681e+00  -1.27184752e+00
C     1.009669792750000e+01   1.843790705129974e+00   1.865796000000000e-01  2.19788760e+00   9.55729420e-01  -7.68256100e-02
C     2.772888803700000e+00   3.258698764358638e+00   4.748718000000000e-01 -2.77769053e+00  -1.18993990e+00  -2.18167320e+00
C     3.983305509600000e+00   4.014194633175126e+00   2.248413000000000e-01 -1.26465517e+00  -4.68106714e+00   1.41321477e+00
C     5.170133496599999e+00   3.264973143869237e+00   2.958177000000000e-01  2.18695442e+00  -2.02027206e+00  -7.39086960e-01
C     6.426879976100000e+00   3.920632268395243e+00   1.717857000000000e-01 -2.43634742e+00   2.76534057e+00   3.94758700e-02
C     7.620888409499999e+00   3.243648416827218e+00   2.279358000000000e-01  9.22357710e-01  -1.04824502e+00  -1.23102670e-01
C     8.815448016900000e+00   4.059893453291676e+00   2.693721000000000e-01  2.48292489e+00  -3.20637119e+00   2.75151380e-01
C     1.007501559030000e+01   3.283300507452565e+00   2.732919000000000e-01  1.63197050e-01  -6.25038200e-02   1.95129640e-01
C     1.135593819820000e+01   3.958804121553882e+00   3.306174000000000e-01 -4.52790640e-01  -3.35344501e+00   1.08550231e+00
C     3.917448203200000e+00   5.339886940128541e+00   9.603000000000000e-04  1.69274068e+00   2.69593715e+00   1.76470980e-01
C     5.168910412899999e+00   6.078617657329016e+00  -1.039731000000010e-01 -7.08908800e-02  -4.82103920e-01  -4.17153500e-02
C     6.399432989899999e+00   5.397046990891556e+00   2.323890000000000e-02  1.81668102e+00  -9.42666450e-01   5.94747180e-01
C     7.694927741099999e+00   6.151758210035037e+00   1.219788000000000e-01 -2.02030781e+00  -1.90473209e+00   1.12812700e-01
C     8.928838115500000e+00   5.463171038686160e+00   3.236424000000000e-01 -1.44411275e+00  -1.74362130e+00  -9.07398860e-01
C     1.022394384040000e+01   6.029176530479503e+00   2.894955000000000e-01 -7.34539234e+00   4.91656993e+00   1.82478810e-01
C     1.129650694960000e+01   5.312680115717375e+00   3.403683000000000e-01  6.46895708e+00   5.23867480e-01  -9.09107700e-01
C     1.255729139490000e+01   6.011711265394234e+00   1.116915000000000e-01 -5.73106630e-01   3.55692550e-01  -3.27271000e-02
