32
Lattice="9.86 0 0 4.93 8.53901048131456 0 0 0 30 " PBC="1 1 1" Properties=species:S:1:pos:R:3:force:R:3 Energy="-257.60006853"
C     1.262668444800000e+00   7.721301174018432e-01   3.519516300000000e+00 -3.40845280e-01  -3.45450200e-02   2.83976800e-02
C     2.479360104000000e+00   1.486277791941343e+00   3.516356100000000e+00  2.24187770e-01   6.62357500e-01  -8.50836400e-02
C     3.703375376800000e+00   7.726851530830432e-01   3.549860100000000e+00  3.51227010e-01   1.04098505e+00   2.07965780e-01
C     4.950936674699999e+00   1.477793516518519e+00   3.567163500000000e+00 -5.56685500e-01   2.79063960e-01  -3.04275240e-01
C     6.158669340699999e+00   7.513438603606937e-01   3.566539500000000e+00  1.71078445e+00   1.03262107e+00   1.64733700e-01
C     7.414534829199999e+00   1.462139033995640e+00   3.544280700000000e+00  3.61206750e-01   1.07036250e+00  -4.29996300e-01
C     8.684619719500001e+00   7.719698401751336e-01   3.503967300000000e+00 -1.81194777e+00   1.73803570e-01   4.31293740e-01
C     9.893185013200000e+00   1.492332804272710e+00   3.483683100000000e+00  1.55311980e-01   4.49522140e-01   1.96197050e-01
C     2.485089996500000e+00   2.920015991690398e+00   3.485083500000000e+00  1.12774300e-02  -2.95232840e-01   3.24277760e-01
C     3.731074581800000e+00   3.622274204207859e+00   3.509244600000000e+00 -2.65643170e-01  -3.49122600e-01  -1.15548530e-01
C     4.961130386400000e+00   2.905531012042859e+00   3.521033400000000e+00 -1.26574180e-01  -3.01489170e-01   2.55218780e-01
C     6.197000189300000e+00   3.622639076125670e+00   3.539634300000000e+00 -7.09336320e-01  -1.27363636e+00  -1.29231500e-02
C     7.415027434799999e+00   2.917722157305155e+00   3.504205500000000e+00  8.51072570e-01  -1.14483315e+00   2.20719470e-01
C     8.654080686600000e+00   3.641790454220319e+00   3.492640500000000e+00 -4.65242690e-01   3.69988300e-02   5.55766140e-01
C     9.887613176499999e+00   2.935954737872156e+00   3.503026500000000e+00 -5.12115020e-01  -8.84274820e-01  -2.33708310e-01
C     1.110498606310000e+01   3.636875826738555e+00   3.513599400000000e+00  1.02340936e+00  -1.80190100e-01  -5.87926500e-02
C     3.736721699600000e+00   5.041314973728634e+00   3.511788600000000e+00 -3.62626250e-01  -2.91910900e-02   1.73690150e-01
C     4.962893699500000e+00   5.748028158793721e+00   3.521360700000000e+00 -4.54623530e-01   2.71994400e-02   1.91264830e-01
C     6.176712844899999e+00   5.002972511140604e+00   3.576364200000000e+00  4.91718460e-01   2.60630410e+00  -7.63512110e-01
C     7.402256614900000e+00   5.760746331782842e+00   3.524726400000000e+00  8.98459000e-02  -1.08013612e+00   6.99291900e-01
C     8.637002969399999e+00   5.078866980116529e+00   3.580031700000000e+00  9.22600140e-01  -1.11313888e+00  -8.61349910e-01
C     9.896860180299999e+00   5.765786055768138e+00   3.559622100000000e+00 -7.00078980e-01   4.89485070e-01   3.15955560e-01
C     1.112830688580000e+01   5.051201269282168e+00   3.548790000000000e+00 -2.88387680e-01   2.50111180e-01  -5.91277000e-02
C     1.236355674120000e+01   5.750457934225805e+00   3.552592500000000e+00  9.99253300e-02   5.44505670e-01  -3.59113710e-01
C     4.916246088799999e+00   7.179620675989362e+00   3.514745100000000e+00  2.46719633e+00  -5.56060950e-01   5.00435120e-01
C     6.183399847600000e+00   7.887687891946263e+00   3.557352000000000e+00 -6.47574930e-01  -4.12688670e-01  -5.16030830e-01
C     7.412754310400000e+00   7.152396090436397e+00   3.538585500000000e+00 -3.79129280e-01   2.08454213e+00   3.10024770e-01
C     8.631356936200000e+00   7.923732421424019e+00   3.590154900000000e+00  8.15497800e-01  -2.47287772e+00  -3.61006030e-01
C     9.892372253400000e+00   7.193138271139621e+00   3.587913300000000e+00 -3.20839100e-01   5.27550900e-02   1.25810400e-02
C     1.113897688480000e+01   7.890910856061834e+00   3.586851900000000e+00 -9.48009500e-01  -6.62829860e-01  -2.66701010e-01
C     1.237664544750000e+01   7.188450952116835e+00   3.535521600000000e+00 -1.53767299e+00  -1.03651384e+00   5.79593760e-01
C     1.357413766540000e+01   7.881929524838969e+00   3.564189600000000e+00  8.52070910e-01   1.02614387e+00  -7.40238110e-01
