26
Lattice="8.88768389401873 1.33226762955019e-15 0 4.44384194700937 7.69696003302603 0 0 0 30 " PBC="1 1 1" Properties=species:S:1:pos:R:3:force:R:3 Energy="-204.97170704"
C     1.095773079631295e+00   1.428224889256310e+00   3.835641600000000e+00 -5.19667320e-01  -2.24616086e+00   1.01428861e+00
C     3.421247611764257e+00   6.628252523754560e-01   3.767669400000000e+00  2.98267651e+00   4.50760221e+00   5.75638100e-01
C     4.835947094921524e+00   1.112123902625861e+00   3.644305500000000e+00 -8.75908530e-01  -1.32486515e+00  -9.01058270e-01
C     5.836634442515501e+00   6.164372136666520e-02   3.403500000000000e+00 -1.03861720e-01   4.64475932e+00   8.01454600e-01
C     7.244212535658409e+00   5.382848215188418e-01   3.425249700000000e+00 -2.58836299e+00  -3.30819111e+00  -3.34505940e-01
C     1.271198797045936e+01   7.256967312304266e+00   3.485764500000000e+00  9.57031890e-01   2.90907947e+00   9.25489200e-01
C     5.140960767424618e+00   7.676382669177396e+00   3.770749500000000e+00  3.52667067e+00   7.80024150e-01   8.69307250e-01
C     6.222494176110578e+00   6.687061685650977e+00   3.977788800000000e+00 -7.18250100e-01  -3.09619610e-01  -1.10095365e+00
C     7.613037289873839e+00   7.000367521246531e+00   3.764637000000000e+00 -3.40443538e+00   1.80677084e+00   6.08250860e-01
C     8.593703040976781e+00   6.068276206448773e+00   3.492035700000000e+00 -3.95186050e+00  -2.24779206e+00   1.03602454e+00
C     9.832752516637166e+00   6.463343846628605e+00   3.358390500000000e+00  7.47612256e+00  -8.97440980e-01  -1.86459839e+00
C     1.096474503959551e+01   5.476524529051135e+00   3.175173000000000e+00  8.03922330e-01   2.69783877e+00   3.15000306e+00
C     3.494547543819364e+00   5.970767268308717e+00   3.527317500000000e+00 -9.32442400e-01  -6.57023108e+00  -9.54094000e-01
C     4.571392699199611e+00   4.898723514738274e+00   3.797319300000000e+00 -3.79741434e+00   2.22154534e+00  -8.77927770e-01
C     5.902571994942173e+00   5.296255259702110e+00   4.019938800000000e+00 -1.01056224e+00  -8.17260590e-01  -1.75860340e+00
C     6.812461297444100e+00   4.239669157020716e+00   3.751203600000000e+00  3.61023894e+00   1.72093686e+00   2.77559860e-01
C     8.252758287851796e+00   4.692045821587118e+00   3.584699400000000e+00 -4.04171831e+00  -2.78378740e-01   3.92461030e-01
C     9.192895978206630e+00   3.732843273566889e+00   3.645998400000000e+00  4.22026110e+00  -1.06467943e+00   3.43945140e-01
C     1.064237541254969e+01   4.199305144079391e+00   3.535883400000000e+00 -6.62106150e-01  -4.30652984e+00  -7.17518160e-01
C     2.823902957379535e+00   3.157372359963909e+00   3.601341000000000e+00 -2.24550512e+00   7.79643010e-01   1.74934488e+00
C     4.146968375433461e+00   3.560264806679840e+00   3.650475600000000e+00  2.66821840e+00  -1.13385597e+00   2.06266700e-01
C     5.188908618815862e+00   2.507134716021515e+00   3.635201400000000e+00 -3.92966420e+00  -8.13984440e-01   3.44106910e-01
C     6.486634050228421e+00   2.858220079319520e+00   3.630994800000000e+00  2.82120500e+00   8.67963200e-01   3.49004080e-01
C     7.511277394308914e+00   1.829527605847645e+00   3.609076500000000e+00  2.47066266e+00   5.02690181e+00   9.81536130e-01
C     8.922431713718238e+00   2.341200803819564e+00   3.872775300000000e+00 -1.71465209e+00  -1.21822390e-01  -2.37346034e+00
C     2.488484921625509e+00   1.813165023367869e+00   3.967577100000001e+00 -1.04059867e+00  -2.52225274e+00  -2.74196103e+00
