32
Lattice="9.86 0 0 4.93 8.53901048131456 0 0 0 30 " PBC="1 1 1" Properties=species:S:1:pos:R:3:force:R:3 Energy="-257.10802696"
C     9.725109481199999e+00   1.837152222212507e+00   3.676297800000000e+00 -3.35521570e-01   7.69581920e-01  -3.49486780e-01
C     1.093521959040000e+01   2.599976184432827e+00   3.648189000000000e+00  2.45107610e-01  -7.39005590e-01   4.95562220e-01
C     2.293942261700000e+00   1.859602732396209e+00   3.745648800000000e+00  7.01171100e-02   1.88882580e-01  -7.45650910e-01
C     3.527550131300000e+00   2.545791637261673e+00   3.776890200000000e+00  4.84888830e-01   1.17185640e+00   7.68527160e-01
C     4.759390201500000e+00   1.818878654395202e+00   3.782229600000000e+00 -1.50564000e-03   8.42079250e-01   1.94870470e-01
C     5.997362255000000e+00   2.529227067001835e+00   3.784090500000000e+00  1.08640833e+00  -3.83364530e-01   2.64207500e-02
C     7.264234560100000e+00   1.827325443562019e+00   3.774279600000000e+00 -8.37411600e-01   8.73289660e-01  -4.08196210e-01
C     8.489853611199999e+00   2.558100193918069e+00   3.671855700000000e+00 -6.84268060e-01  -6.44102390e-01   5.77258200e-02
C     1.094727910990000e+01   4.029638714479779e+00   3.683354700000000e+00 -7.00434490e-01  -1.01157029e+00   8.04023330e-01
C     1.219229731660000e+01   4.716508605431022e+00   3.855118500000000e+00 -3.64652570e-01  -1.17886720e+00  -3.41362530e-01
C     3.556661978500000e+00   3.997977259081406e+00   3.911569500000000e+00  5.04800510e-01  -1.46137440e+00  -9.61309770e-01
C     4.834541248099999e+00   4.660284600996825e+00   3.847393800000000e+00 -2.52074176e+00   1.63656758e+00  -3.12487920e-01
C     6.027841585600000e+00   3.945833364634762e+00   3.772034400000000e+00  2.46021820e-01   2.95040960e-01   2.62285600e-02
C     7.238509475000000e+00   4.685502092136466e+00   3.704732700000000e+00 -5.16069690e-01   1.37518724e+00  -8.48569980e-01
C     8.437693077300001e+00   3.980503881936182e+00   3.603360000000000e+00  1.74950878e+00  -1.48637240e-01   1.22784105e+00
C     9.673772109399998e+00   4.696028471915580e+00   3.740064000000000e+00  9.06042930e-01   2.85012030e-01  -1.03478644e+00
C     1.217175213320000e+01   6.102601432234508e+00   3.861963000000000e+00 -6.48634790e-01   9.51822780e-01   5.59851100e-02
C     1.337401604880000e+01   6.830511088404203e+00   3.871775100000000e+00  1.70867105e+00  -7.75025950e-01  -9.35802390e-01
C     4.768363491700000e+00   6.105532276801557e+00   3.729414600000000e+00  4.74757420e-01   2.91714780e-01   1.18237932e+00
C     5.998126947299999e+00   6.863362967253593e+00   3.682792200000000e+00  5.69274000e-03  -1.85661610e+00  -7.59901730e-01
C     7.241130805300000e+00   6.167084026044542e+00   3.621618300000000e+00 -5.97184600e-01  -2.47103080e+00   1.32887641e+00
C     8.467460811699999e+00   6.842975225831545e+00   3.762745500000000e+00 -1.38108090e-01  -6.34364200e-01  -7.39783970e-01
C     9.700251780300000e+00   6.118681328259500e+00   3.793565400000000e+00 -9.52170950e-01  -5.20300630e-01  -1.53002310e-01
C     1.092373569770000e+01   6.786363977272079e+00   3.799118700000000e+00  1.04928645e+00   2.19364257e+00   9.20632820e-01
C     1.339469148280000e+01   8.237802691845127e+00   3.791281800000000e+00  1.29764552e+00   4.59050390e-01  -9.70170100e-02
C     9.731280953799999e+00   4.062038025773728e-01   3.689076900000000e+00 -1.64161944e+00   6.60296670e-01   6.78404400e-02
C     6.014812483000000e+00   8.254120911652617e+00   3.619037400000000e+00 -3.21712730e-01   6.50240860e-01   6.69512310e-01
C     2.294369692700000e+00   4.396414575456904e-01   3.681349200000000e+00  3.53023360e-01  -3.65148530e-01  -1.55575600e-02
C     8.436634014699999e+00   8.234903441616853e+00   3.741020400000000e+00  1.19303101e+00   1.72181824e+00   3.20437530e-01
C     4.750937223499999e+00   4.159390430355160e-01   3.814147200000000e+00  9.56182130e-01  -1.02461930e+00  -3.40444900e-02
C     1.095966060770000e+01   8.250574233649747e+00   3.875853600000000e+00 -1.77127943e+00  -9.18150580e-01  -9.01093420e-01
C     7.254496281800001e+00   4.184337149472480e-01   3.799804800000000e+00 -2.99870190e-01  -2.33906210e-01   4.91190110e-01
