32
Lattice="9.86 0 0 4.93 8.53901048131456 0 0 0 30 " PBC="1 1 1" Properties=species:S:1:pos:R:3:force:R:3 Energy="-255.03223011"
C     5.160799281100000e+00   7.795984640528084e+00  -9.156344999999995e-01 -1.64901299e+00   5.49871080e-01  -1.88198934e+00
C     1.410276835300000e+00   8.247838761642480e-02  -1.019380500000000e+00  2.32379860e-01  -3.50922130e+00   1.79265252e+00
C     7.586467445299999e+00   7.895499634903681e+00  -8.968337999999996e-01  3.72890320e-01  -2.38376430e-01  -1.85298371e+00
C     3.915600340600000e+00   3.984968332785440e-02  -1.085184300000002e+00 -1.99880567e+00  -1.35022490e+00   1.77811558e+00
C     1.003448310230000e+01   7.831378155846846e+00  -1.049429100000001e+00 -2.35425780e-01  -5.27841060e-01   4.04559690e-01
C     1.124320354310000e+01   8.508245193751502e+00  -9.460391999999977e-01  2.79522398e+00   1.42683374e+00  -8.68317230e-01
C     1.254138992640000e+01   7.881830472317401e+00  -1.082690699999997e+00 -1.23956746e+00  -3.20788545e+00   5.85092420e-01
C     1.379787270020000e+01   8.509001152349297e+00  -9.967625999999967e-01 -1.20996219e+00   2.76518036e+00   1.26067974e+00
C     1.350592184700000e+00   1.459291359390665e+00  -9.862716000000020e-01  4.73558628e+00   6.54230410e-01  -1.16945446e+00
C     2.726513575500000e+00   2.106690442909052e+00  -1.142455800000000e+00 -6.19177245e+00   3.63703776e+00   8.92501910e-01
C     3.876124105100000e+00   1.446725010007877e+00  -1.047259200000003e+00  2.89587747e+00  -1.76042893e+00  -1.30760015e+00
C     5.117944763100000e+00   2.101355439941357e+00  -1.146946800000002e+00  1.48377420e-01   2.52636040e+00   1.12196562e+00
C     6.309111643100000e+00   1.392899528227407e+00  -9.160383000000003e-01  1.79109061e+00   1.96584010e+00  -1.24374275e+00
C     7.569010167399999e+00   2.207463489698667e+00  -9.576086999999980e-01  4.29246110e-01  -2.25353437e+00   1.26906975e+00
C     8.817233860100000e+00   1.456715993829897e+00  -8.436057000000012e-01 -2.05189320e-01  -4.03215000e-03  -1.62297531e+00
C     1.005999861310000e+01   2.190980040038390e+00  -9.754131000000008e-01 -2.18359152e+00   3.95107740e-01   1.01857110e-01
C     2.670968202200000e+00   3.570778506046752e+00  -1.179705300000002e+00 -1.04667599e+00  -3.15751510e-01  -9.33841650e-01
C     3.876261159100000e+00   4.319608823282553e+00  -1.231325699999999e+00  5.21196130e-01  -3.80043886e+00  -1.45614580e-01
C     5.131273659000000e+00   3.565502593031579e+00  -1.205583000000001e+00 -2.77313970e-01   4.34763600e-02   9.27515280e-01
C     6.330935717799999e+00   4.308953760615504e+00  -9.999237000000001e-01  1.50071928e+00   6.62992850e-01  -1.15485866e+00
C     7.627330884199999e+00   3.665382373934881e+00  -9.156404999999985e-01 -4.94220573e+00  -4.32037741e+00  -3.65479410e-01
C     8.796958544899999e+00   4.285366537356705e+00  -9.423227999999995e-01  3.65822275e+00   3.13608391e+00  -2.03293620e-01
C     1.006105023140000e+01   3.617440953495970e+00  -1.118090100000000e+00 -2.32373922e+00  -1.42410171e+00   9.85440540e-01
C     1.122911010280000e+01   4.310258009076220e+00  -1.251698699999999e+00  3.64061566e+00  -6.75838610e-01   7.29765910e-01
C     3.858353377800000e+00   5.683870901282974e+00  -1.220567099999997e+00  8.31454100e-02   1.28114011e+00   1.42891090e-01
C     5.062255581700001e+00   6.362503038043953e+00  -1.111796099999999e+00  3.53073483e+00   2.88272392e+00   4.08065990e-01
C     6.370307437299999e+00   5.758230568515224e+00  -1.099109100000000e+00 -2.49388921e+00  -2.58522816e+00   1.10366755e+00
C     7.571487098000000e+00   6.442676405171407e+00  -9.259914000000009e-01  5.90506910e-01   1.63143876e+00   2.80315320e-01
C     8.807897327499999e+00   5.732745037836617e+00  -8.639901000000023e-01 -4.80954420e-01  -1.01182994e+00  -1.06885611e+00
C     1.001845123530000e+01   6.410281192602487e+00  -1.006809600000000e+00  1.20918830e+00   5.25380510e-01  -4.18604030e-01
C     1.127794278810000e+01   5.718986301030403e+00  -1.193000400000003e+00 -1.25669302e+00   5.13048800e-02   4.10511550e-01
C     1.251013116280000e+01   6.388508338290479e+00  -1.189045499999999e+00 -4.00202390e-01   2.85010790e+00   4.29434500e-02
