32
Lattice="9.632 0 0 4.816 8.34155668925171 0 0 0 30 " PBC="1 1 1" Properties=species:S:1:pos:R:3:force:R:3 Energy="-256.70313447"
C     1.259701540674121e-02  -4.009800301603325e-04   3.007800593777412e+00 -9.76844490e-01  -1.70916100e-02  -2.37769570e-01
C     1.191575556293820e+00   6.933437547289313e-01   2.992044201009614e+00  1.41432656e+00   3.39196980e-01   5.64006200e-02
C     2.418409325833776e+00   1.400588533216326e-03   2.991066032574001e+00 -1.44235583e+00   4.92207700e-02   3.22600000e-04
C     3.601974425997007e+00   6.919684424662559e-01   2.989595313743935e+00  1.04724787e+00   6.34035260e-01   9.20038500e-02
C     4.811835788459184e+00   1.182983655909423e-05   3.000263353063907e+00  1.45967640e-01   3.23908500e-02  -1.61870900e-02
C     6.021901886690698e+00   6.948481470362928e-01   2.994747211018190e+00 -2.82521310e-01  -8.29851600e-02   4.94293900e-02
C     7.223199314196767e+00  -5.623336556556514e-03   2.995085608365827e+00  1.76914530e-01   6.33236650e-01   7.84935000e-03
C     8.433081644724670e+00   6.860123798859848e-01   2.989254117571186e+00 -2.31490940e-01   2.77459930e-01   2.38192710e-01
C     1.195818942479401e+00   2.087237341654719e+00   2.988603386450401e+00 -2.02748500e-02  -3.76636300e-01   6.50384400e-02
C     2.395868511366141e+00   2.777696225068811e+00   2.994023969775928e+00  8.83864510e-01   3.44505710e-01  -5.04098700e-02
C     3.620765991681933e+00   2.092446999161549e+00   2.999746835428518e+00 -1.17136836e+00  -5.62863790e-01  -1.48227930e-01
C     4.818327561016438e+00   2.774586035327423e+00   2.991413795846150e+00  9.36595900e-02   2.92906640e-01   1.07702580e-01
C     6.019205140239610e+00   2.084883567400369e+00   2.999618808345208e+00 -7.02568600e-02  -3.66508270e-01  -3.78012500e-02
C     7.212798637579401e+00   2.775123968474703e+00   3.010362768759342e+00  6.20096440e-01   4.88601800e-01  -7.46030600e-02
C     8.420618411565666e+00   2.079583519029709e+00   3.013026719351410e+00  1.05465480e-01  -1.33487070e-01  -1.55824760e-01
C     9.625952731520590e+00   2.773926754924220e+00   3.001872918608602e+00 -2.28576010e-01   7.15068660e-01   1.39122500e-02
C     2.410488748226033e+00   4.175822669471556e+00   2.989903677618600e+00 -7.17805630e-01  -5.92518280e-01   1.27566600e-02
C     3.608270899521560e+00   4.855642207653717e+00   2.990298132915289e+00  7.46025500e-01   4.24660480e-01   9.77018600e-02
C     4.819577336151050e+00   4.159307431218934e+00   2.998281308601033e+00  2.82744860e-01   8.28527900e-01  -6.13288400e-02
C     6.029846539259665e+00   4.880461273274621e+00   3.002178125717780e+00 -5.48891860e-01  -1.07034517e+00  -7.32490300e-02
C     7.232778139768643e+00   4.173421850629444e+00   2.996656729633763e+00 -5.62279250e-01  -2.10578330e-01   1.90939520e-01
C     8.434899327330745e+00   4.859971332756415e+00   3.011137358111707e+00 -5.06607470e-01   7.94318940e-01  -1.33005050e-01
C     9.621353399218615e+00   4.178868510571102e+00   3.003835264401958e+00  1.15234758e+00  -8.82447840e-01   2.02570100e-02
C     1.083645941980724e+01   4.873189182908238e+00   2.996461580467399e+00 -1.60799710e-01  -2.82544400e-01   6.50829900e-02
C     3.617229742021288e+00   6.249195905970108e+00   3.002945344608418e+00 -3.68933060e-01   6.18024950e-01  -1.00574290e-01
C     4.822563783757750e+00   6.958968499800146e+00   2.992041040854068e+00 -6.73880590e-01  -6.73539220e-01   1.62657290e-01
C     6.013473124484223e+00   6.262011563188488e+00   2.997821250432305e+00  4.56298300e-01   8.40596500e-02  -2.87665300e-02
C     7.213708709064704e+00   6.957706337701825e+00   2.997083427104156e+00  1.09319486e+00  -4.30515210e-01  -3.53385400e-02
C     8.437465206766642e+00   6.257528080113619e+00   2.999379019513942e+00 -1.02008546e+00  -7.54690800e-02   1.27893840e-01
C     9.632686493627931e+00   6.948728169878557e+00   3.012926107851422e+00  2.62308000e-02   3.66247970e-01  -9.49068500e-02
C     1.083732605476760e+01   6.259864972073295e+00   3.012106726444436e+00 -4.26290100e-02  -3.20348700e-02  -3.62314600e-02
C     1.203316296811916e+01   6.961913836469012e+00   3.007245222692738e+00  7.81216190e-01  -1.13289853e+00  -2.39168400e-02
