32
Lattice="9.86 0 0 4.93 8.53901048131456 0 0 0 30 " PBC="1 1 1" Properties=species:S:1:pos:R:3:force:R:3 Energy="-253.08569872"
C     9.837524869499999e+00   1.258546822725192e-01   3.929503200000000e+00  1.93418569e+00  -1.02707258e+00   2.78479710e-01
C     1.227706955400000e+00   8.753406247329744e-01   3.782570100000000e+00 -1.88353551e+00  -2.12427851e+00   7.76739110e-01
C     2.425053343900000e+00   1.618898188387480e-01   4.177137000000000e+00 -2.40226000e+00   8.75342880e-01  -5.33450400e-01
C     3.608733279400000e+00   8.710830741076463e-01   4.204029300000000e+00  2.32024136e+00  -1.32872591e+00  -1.41160120e-01
C     4.830920508200000e+00   1.165177012631632e-01   4.340962200000000e+00  3.13571179e+00   1.97625000e+00  -1.13993021e+00
C     6.102828857600000e+00   8.379291704575792e-01   4.161840300000001e+00  7.33506440e-01   1.04235308e+00   7.67762300e-01
C     7.435011436300000e+00   1.573807089646792e-01   4.093084200000001e+00 -4.89259833e+00  -3.52914400e-02   6.92456500e-02
C     8.631969587300000e+00   8.564922107301560e-01   3.934160700000000e+00  2.66558240e-01  -1.29778888e+00  -9.32392910e-01
C     1.101915678440000e+01   2.244602037199122e+00   3.484493100000000e+00  8.81369690e-01   2.09422715e+00   9.04477270e-01
C     2.425118814300000e+00   2.941034082866079e+00   3.650829600000000e+00 -2.88595430e-01   2.35483644e+00  -3.04952780e-01
C     3.648608499800000e+00   2.227104238483925e+00   3.921359400000000e+00 -4.24303900e-02   3.18363393e+00  -9.50246700e-02
C     4.885925997199999e+00   3.034335324705485e+00   4.033019700000001e+00 -1.53257130e-01  -3.50085481e+00   4.17509810e-01
C     6.115991070200000e+00   2.328368876106874e+00   4.205137200000000e+00 -3.00899090e-01  -3.44121720e+00  -8.02975880e-01
C     7.370995189099999e+00   2.925465246618314e+00   4.164079800000000e+00  5.14205000e-01   3.87233452e+00  -1.07642727e+00
C     8.603127213899999e+00   2.235618571223638e+00   3.710675700000000e+00 -1.69284625e+00   2.90416718e+00   2.12276502e+00
C     9.753064750400000e+00   3.028653637912302e+00   3.499642500000000e+00  2.07223874e+00  -1.27707810e-01   1.03501069e+00
C     1.228940835800000e+01   4.476394192436566e+00   3.692718600000000e+00  1.49639061e+00  -3.38161690e+00   2.58991070e-01
C     3.692999748100000e+00   5.113984941567102e+00   4.069508099999999e+00 -2.62581633e+00   6.27170060e-01  -1.05688598e+00
C     4.928499554500000e+00   4.388438541937850e+00   4.091806800000000e+00 -2.05963958e+00   2.37569507e+00   1.74612834e+00
C     6.082947991700000e+00   5.091660381787980e+00   4.539781800000000e+00  1.05807951e+00  -6.70954660e-01  -1.58050487e+00
C     7.307817337700000e+00   4.477510326496407e+00   4.346668800000001e+00  4.82837242e+00  -3.99951211e+00  -2.47466510e-01
C     8.664222485400000e+00   5.168641012896962e+00   4.279194000000000e+00 -3.04867696e+00  -2.62837400e-02  -8.37479210e-01
C     9.844343059500000e+00   4.501078849322256e+00   3.779574600000000e+00 -3.05090244e+00  -2.95775810e+00  -2.17444840e-01
C     1.104300881460000e+01   5.169666035714981e+00   3.659339700000000e+00  2.13080029e+00   5.90935710e-01   1.96968397e+00
C     1.344831114880000e+01   6.545858221427325e+00   4.231017600000000e+00  3.39003547e+00  -3.88027580e-01  -1.58380168e+00
C     4.928795009400000e+00   7.210836395040678e+00   4.208588100000000e+00 -2.46862675e+00   1.19291860e+00   8.65690630e-01
C     6.113671061500000e+00   6.470053241281230e+00   4.542407100000000e+00 -1.78472130e-01   4.97359655e+00  -1.36206720e+00
C     7.316921272899999e+00   7.337502454089007e+00   4.473237900000000e+00  1.34082063e+00  -3.85339468e+00  -4.98517400e-02
C     8.621442607599999e+00   6.614189432650799e+00   4.391043300000000e+00 -1.74941896e+00  -1.71861664e+00   3.78641660e-01
C     9.843158725599999e+00   7.254577647004688e+00   4.286256900000000e+00  2.15854200e-01   3.18104860e-01  -6.50279400e-02
C     1.108914700840000e+01   6.528786006994451e+00   4.075100399999999e+00 -3.42143705e+00   1.07130354e+00  -9.54344840e-01
C     1.223190607050000e+01   7.271487705628546e+00   4.042719300000000e+00  3.94104227e+00   4.26231970e-01   1.39006381e+00
