32
Lattice="9.86 0 0 4.93 8.53901048131456 0 0 0 30 " PBC="1 1 1" Properties=species:S:1:pos:R:3:force:R:3 Energy="-248.14534939"
C     5.110250807900000e+00   8.093879463396927e+00  -1.489906800000000e+00 -2.82329036e+00   1.04292964e+00   2.45383627e+00
C     1.413919365800000e+00   2.863593028312016e-01  -1.363166399999997e+00 -2.75830061e+00  -2.83153932e+00  -1.77753395e+00
C     7.490773285900000e+00   7.980343243032961e+00  -1.372194300000000e+00  2.29663252e+00   7.38928414e+00  -5.77916100e-02
C     3.783717023199999e+00   2.572733837738064e-01  -1.406665499999999e+00 -3.00601916e+00   4.77563520e-01   1.31825420e-01
C     9.868372471099999e+00   8.167871867788433e+00  -1.329751800000000e+00  5.44939441e+00  -1.96758178e+00   1.00648405e+00
C     6.237625016200000e+00   3.554788355021904e-01  -1.374044099999999e+00 -3.31664149e+00   3.14083090e-01   4.31068210e-01
C     1.230082870300000e+01   8.180448720154111e+00  -1.201490999999997e+00  4.56292461e+00  -2.92203228e+00   1.55680130e-01
C     8.638851226399998e+00   3.131958757479552e-01  -1.379446200000000e+00  3.02138667e+00  -4.27576107e+00  -6.43124810e-01
C     1.410634999800000e+00   1.688113187195635e+00  -1.345716299999999e+00  4.46017170e-01   4.19818810e-01   3.47616649e+00
C     2.678595257300000e+00   2.299555607654105e+00  -8.041236000000005e-01 -6.03818878e+00   2.38694540e+00  -1.39679075e+00
C     3.789981179800000e+00   1.644838335984043e+00  -1.143177000000001e+00  3.24304160e+00   1.44280970e+00   8.30496670e-01
C     5.002551901299999e+00   2.471496439558547e+00  -1.012132200000000e+00 -7.33007500e-02  -2.15424990e+00  -1.39956983e+00
C     6.208135038000000e+00   1.844586284736395e+00  -1.445025000000001e+00 -9.02565830e-01  -3.56535707e+00   1.27418866e+00
C     7.425670121600000e+00   2.411344148743130e+00  -1.472942700000001e+00  5.49464216e+00   3.04501846e+00  -5.15899600e-01
C     8.740936194100000e+00   1.643557911362567e+00  -1.491570899999999e+00 -1.22578526e+00   3.80781012e+00   9.25388770e-01
C     1.001568106830000e+01   2.321365094321073e+00  -1.191857100000000e+00 -1.16726183e+00   1.72130310e+00  -4.64549160e-01
C     2.490840940100000e+00   3.714104857662399e+00  -4.761192000000030e-01  2.13686902e+00   9.04234350e-01  -9.75081900e-01
C     3.703281558900000e+00   4.544820442846684e+00  -6.142691999999990e-01  3.70878612e+00   6.74515700e-02  -8.45448430e-01
C     4.999016894100000e+00   3.843139211267356e+00  -7.530857999999974e-01  4.56555930e-01   7.87106830e-01  -1.92015867e+00
C     6.255561391500000e+00   4.541904370767765e+00  -1.162010700000000e+00  1.52648940e+00   1.34971881e+00   2.45868280e-01
C     7.615723692200000e+00   3.887633689345806e+00  -1.481110200000000e+00 -6.75572117e+00  -3.59250340e+00   1.68950331e+00
C     8.819986969300000e+00   4.435594885753231e+00  -1.240157699999997e+00  1.78617060e-01   5.84160720e+00  -1.46371480e-01
C     9.935945417499999e+00   3.797704673525162e+00  -8.281296000000005e-01  1.34039760e-01  -5.20105477e+00  -1.96882418e+00
C     1.109227292420000e+01   4.400239369031106e+00  -5.246955000000000e-01  5.27934236e+00   4.64919463e+00  -2.96545250e-01
C     3.944789835299999e+00   5.978384702952262e+00  -9.854921999999995e-01 -3.95190079e+00  -2.20861484e+00   2.63781967e+00
C     5.134131580000000e+00   6.674399191006748e+00  -1.185110400000003e+00 -1.59078054e+00   2.48851999e+00  -9.55248380e-01
C     6.299396831599999e+00   6.007075009654119e+00  -1.190014800000000e+00  3.54248552e+00  -3.69934030e+00  -7.64627000e-02
C     7.598576412700000e+00   6.688265946295533e+00  -1.288759800000001e+00 -9.11439660e-01  -6.25753265e+00  -9.21525140e-01
C     8.911817389099999e+00   5.933623210016102e+00  -1.334556300000003e+00 -4.69744613e+00  -6.45616400e-01   1.80223660e+00
C     9.926324867599998e+00   6.764553892874377e+00  -1.026283200000002e+00  5.78553256e+00  -1.53413811e+00  -5.16224590e-01
C     1.138817216510000e+01   5.960230937451992e+00  -7.211355000000026e-01 -7.65714596e+00  -2.32990671e+00   2.17440660e-01
C     1.254643898590000e+01   6.604722146341519e+00  -8.211539999999999e-01 -3.86968560e-01   5.04982925e+00  -2.40085279e+00
