32
Lattice="9.86 0 0 4.93 8.53901048131456 0 0 0 30 " PBC="1 1 1" Properties=species:S:1:pos:R:3:force:R:3 Energy="-255.32654164"
C     9.747229553099999e+00   4.987758129217864e-01   3.613233300000000e+00  3.27812220e-01  -1.41630534e+00   8.65860000e-04
C     1.116099347600000e+00   1.178803394775406e+00   3.506274900000000e+00  4.75686760e-01   2.19652813e+00  -6.61455730e-01
C     2.346117092600000e+00   4.894786237012672e-01   3.591348900000000e+00 -8.87971400e-02   7.39026800e-02   1.20095663e+00
C     3.565357463200000e+00   1.233290137527448e+00   3.678823200000000e+00  1.49686060e-01  -6.51022370e-01  -1.64712377e+00
C     4.801519910899999e+00   5.711840600890423e-01   3.669432000000000e+00  1.58489016e+00  -4.25940697e+00  -3.17984000e-02
C     6.090639531200000e+00   1.139584573541814e+00   3.571763700000000e+00 -1.12879850e-01   2.57402562e+00  -7.85250200e-02
C     7.368103842699999e+00   5.008782880821719e-01   3.530091000000000e+00 -3.97567090e+00  -1.83421484e+00   1.44552760e-01
C     8.510639920899999e+00   1.205780263634346e+00   3.542594100000000e+00  2.76452637e+00   1.87734187e+00  -3.85338210e-01
C     1.102833955030000e+01   2.647308004913572e+00   3.270557700000000e+00 -1.08522165e+00  -1.97352442e+00   5.97942430e-01
C     2.416939796400000e+00   3.360975189333362e+00   3.228801300000000e+00 -2.10910449e+00  -1.13480761e+00   5.59199400e-02
C     3.610516361800000e+00   2.591281251621463e+00   3.387166500000000e+00  5.21111640e-01   2.31809595e+00   7.90297200e-01
C     4.876745252600000e+00   3.274257951524560e+00   3.495250500000000e+00 -4.60016470e-01   1.21288509e+00   8.99125500e-02
C     6.095484784500000e+00   2.559654720775953e+00   3.551224800000000e+00  4.22316560e-01   1.97779502e+00   4.36067160e-01
C     7.314121082199999e+00   3.382401445209987e+00   3.601151400000000e+00 -6.59840870e-01  -6.50485760e-01  -5.16910530e-01
C     8.511014847399998e+00   2.653985084158408e+00   3.444421500000000e+00  7.62046330e-01  -1.08130954e+00   5.66676730e-01
C     9.752051487499999e+00   3.309344318636356e+00   3.312072600000000e+00  1.22181130e+00   1.75681925e+00   5.02895330e-01
C     1.216196228710000e+01   4.760372050635000e+00   3.206806500000000e+00  3.35416590e+00   1.13873924e+00   9.97726450e-01
C     3.608610325200000e+00   5.457025085893181e+00   3.499709100000000e+00 -1.31695344e+00  -8.83958550e-01  -7.15873310e-01
C     4.875817919599999e+00   4.738168488634381e+00   3.603414900000000e+00 -2.42440436e+00  -7.88143500e-02   1.61693200e-02
C     6.005383512900000e+00   5.545305218790137e+00   3.840760800000000e+00  3.75686930e+00  -6.62843045e+00  -1.19632724e+00
C     7.341419872600000e+00   4.813794234950501e+00   3.701137800000000e+00 -2.67088108e+00  -6.73496690e-01   6.82409890e-01
C     8.561732419600000e+00   5.513819240057129e+00   3.680676300000000e+00 -3.68660390e-01  -2.82881715e+00  -7.80519160e-01
C     9.778085683599999e+00   4.761158578890314e+00   3.415012500000000e+00 -2.47979063e+00  -4.28226460e-01  -8.80968100e-02
C     1.092560722430000e+01   5.482386373969304e+00   3.266448900000000e+00  3.32225881e+00   1.03097576e+00   2.43467140e-01
C     1.344960418920000e+01   6.874324921957293e+00   3.614887200000000e+00  1.19090672e+00   1.26541300e-01  -3.85098860e-01
C     4.847608410299999e+00   7.564107298603055e+00   3.749373600000000e+00 -2.01407620e+00   2.22380354e+00  -4.39972100e-01
C     6.053475564299999e+00   6.858954105362559e+00   3.832463700000000e+00  3.16884800e-02   5.38436346e+00   6.96890000e-02
C     7.268082967400000e+00   7.642145742330300e+00   3.790214100000000e+00  1.22275520e+00  -2.37617001e+00  -4.13309270e-01
C     8.509534910699999e+00   6.873851775386596e+00   3.712897200000000e+00  1.55324539e+00   4.14071138e+00   2.87366860e-01
C     9.784704701599999e+00   7.623551876229890e+00   3.627729600000000e+00 -1.51542603e+00   7.33714890e-01  -3.56501500e-01
C     1.102135541650000e+01   6.935022172421543e+00   3.393371400000000e+00 -1.72190585e+00  -3.18553170e-01   6.31274960e-01
C     1.225520539840000e+01   7.637462607422648e+00   3.464580300000000e+00  3.41852130e-01  -1.54869948e+00   3.82659710e-01
