32
Lattice="9.86 0 0 4.93 8.53901048131456 0 0 0 30 " PBC="1 1 1" Properties=species:S:1:pos:R:3:force:R:3 Energy="-250.47123781"
C     5.461742898000001e+00   8.103348286728094e+00  -3.147395999999993e-01 -2.14288245e+00   1.71817691e+00  -3.91084890e-01
C     1.678493288100000e+00   4.354267727529720e-01  -3.106476000000029e-01  1.46144716e+00  -9.91290103e+00   5.98753960e-01
C     7.791444273800000e+00   8.086765016035306e+00  -3.379508999999992e-01  4.11271491e+00   5.41477974e+00   7.48060450e-01
C     4.218870966800000e+00   1.331124142299952e-01  -3.377450999999994e-01 -2.48745810e-01   5.50289900e+00   6.28827730e-01
C     1.041044657850000e+01   8.002815869253805e+00  -2.221967999999990e-01 -9.39215090e-01   7.54848871e+00  -2.57173464e+00
C     6.687919137699999e+00   1.839300295688856e-01  -6.413373000000000e-01  1.36242823e+00   1.50605087e+00   3.65104404e+00
C     1.286343630970000e+01   8.023568738763979e+00  -5.095284000000007e-01 -6.20806320e-01  -2.37875800e-01   1.36016376e+00
C     9.112364957700001e+00   2.301856785588360e-01  -3.283674000000012e-01  8.85884060e-01  -1.45864789e+00  -9.46833900e-01
C     1.719514339100000e+00   1.724533518524617e+00  -3.583245000000019e-01 -1.13129380e-01   6.31530233e+00  -3.40668741e+00
C     2.976012395900000e+00   2.456656493245355e+00  -5.234408999999971e-01  2.44463908e+00   1.68919550e-01   1.24945399e+00
C     4.370988532500000e+00   1.746684565610785e+00  -3.771126000000002e-01 -5.94172843e+00  -4.04418477e+00  -4.22017390e-01
C     5.595927736599999e+00   2.368526476152637e+00  -3.553482000000017e-01 -1.28973640e+00   1.75731172e+00  -3.90717190e-01
C     6.808054708799999e+00   1.620989562834242e+00  -3.927935999999974e-01 -8.75793480e-01   1.85743153e+00  -8.78254590e-01
C     8.007238754799999e+00   2.518363737869179e+00  -3.728940000000023e-01 -3.06639358e+00  -5.37222498e+00  -4.41416820e-01
C     9.131393130799998e+00   1.610630718440744e+00  -4.385444999999990e-01  4.75910120e-01   4.59975642e+00  -1.15592118e+00
C     1.028057963110000e+01   2.335932133859324e+00  -7.766039999999990e-01  3.38169432e+00   3.19474697e+00   3.03114375e+00
C     2.983828664400000e+00   3.925099622508064e+00  -5.556353999999999e-01 -5.36471564e+00  -4.19117431e+00  -3.48284610e-01
C     4.162192827400000e+00   4.521799014422289e+00  -4.536669000000018e-01  4.32945205e+00  -9.19463800e-02  -3.23377100e-02
C     5.436212991600000e+00   3.817487084494283e+00  -4.223199000000015e-01  1.28160331e+00   1.10680238e+00  -1.50211960e-01
C     6.634977248100000e+00   4.664799005057391e+00  -5.022189000000026e-01  1.02638100e-01  -6.15121915e+00   1.28212282e+00
C     7.864900830100000e+00   3.889818907517743e+00  -4.072965000000011e-01  2.43568451e+00   2.65505041e+00  -1.32951822e+00
C     9.150355981400001e+00   4.680769260187820e+00  -5.811183000000000e-01 -2.50384764e+00  -3.60795790e+00   1.83435930e-01
C     1.032935148020000e+01   3.917985943657385e+00  -7.821041999999991e-01 -1.65313463e+00  -2.73429034e+00   7.79432550e-01
C     1.149416603120000e+01   4.641348747526691e+00  -6.098603999999987e-01  4.20082482e+00  -3.33373236e+00   4.33894500e-02
C     4.192763461600000e+00   5.904604663751394e+00  -4.386462000000009e-01  2.68478648e+00   2.66677697e+00   5.52058310e-01
C     5.455033118699999e+00   6.698341295541095e+00  -4.561577999999997e-01 -7.43298580e-01  -7.95604270e-01   7.61819230e-01
C     6.672508746499999e+00   5.999993181312530e+00  -4.194348000000012e-01  8.17284180e-01   2.92033059e+00  -4.65726050e-01
C     7.943234881899999e+00   6.761224276517911e+00  -3.409206000000005e-01 -4.25056484e+00  -3.88940335e+00  -5.89064150e-01
C     9.124431576399999e+00   6.048834869626349e+00  -4.375844999999998e-01  2.29912944e+00   6.61977000e-01   7.16705810e-01
C     1.040199724870000e+01   6.721143698346677e+00  -2.952791999999995e-01 -1.56423432e+00  -6.29016892e+00  -2.78048660e-01
C     1.156420230140000e+01   5.968689254282956e+00  -3.334383000000010e-01  1.94910908e+00   1.11074933e+00  -2.81528610e-01
C     1.288792726790000e+01   6.603541371972345e+00  -2.882733000000002e-01 -2.90700327e+00   1.40578102e+00  -1.50702382e+00
