32
Lattice="9.86 0 0 4.93 8.53901048131456 0 0 0 30 " PBC="1 1 1" Properties=species:S:1:pos:R:3:force:R:3 Energy="-254.51471295"
C     4.924474258799999e+00   8.244999882218300e+00  -4.385243999999986e-01  3.05445655e+00   3.69982559e+00  -1.24822790e-01
C     1.292044490700000e+00   4.873933119519464e-01  -4.837953000000006e-01 -2.27359330e+00   8.81442390e-01   1.07046952e+00
C     7.467563585399999e+00   8.408748387468229e+00  -5.074356000000009e-01 -1.93893229e+00  -4.08418336e+00   5.33989190e-01
C     3.738744774400000e+00   5.347217168284992e-01  -3.261518999999993e-01  7.38037720e-01  -9.22219640e-01  -1.30418098e+00
C     9.895091838599999e+00   8.357228267737149e+00  -3.967442999999982e-01  1.37702387e+00  -2.77534970e+00   1.63605998e+00
C     6.247812121700000e+00   4.722486937448280e-01  -3.436131000000024e-01 -1.84378495e+00   5.55504100e-01  -3.93971040e-01
C     1.242804010590000e+01   8.395288089078290e+00  -3.451941000000005e-01 -2.40518177e+00  -3.89736180e+00   4.98911960e-01
C     8.704488802700000e+00   5.205870073908504e-01  -4.159694999999992e-01 -9.53170900e-02  -8.63353100e-02  -5.76807490e-01
C     1.216677214300000e+00   1.899044080242910e+00  -2.058225000000000e-01  9.41863540e-01   8.69786600e-01  -1.09123003e+00
C     2.500924269100000e+00   2.646010416881031e+00  -1.113552000000020e-01 -1.50430514e+00  -9.22448080e-01   2.24280990e-01
C     3.686749937800000e+00   1.912903321202474e+00  -2.603133000000000e-01  2.76998997e+00   1.67900343e+00   9.61888060e-01
C     5.011954249400000e+00   2.577413727821733e+00  -2.192475000000016e-01 -2.10770951e+00   5.93711920e-01  -5.46611670e-01
C     6.197831929600000e+00   1.862563292719730e+00  -3.479495999999997e-01  2.17879913e+00   1.62275495e+00  -6.56839950e-01
C     7.461893395200001e+00   2.614153845093190e+00  -4.921085999999981e-01 -2.54219583e+00   2.67768200e-01   5.34644950e-01
C     8.698123581100001e+00   1.972015218981007e+00  -5.223842999999988e-01 -2.93958818e+00  -3.18235912e+00   6.12962050e-01
C     9.814039236899999e+00   2.640069144169257e+00  -2.879657999999985e-01  6.12341075e+00   1.30917356e+00   2.20438900e-02
C     2.574086701600000e+00   4.054068908853163e+00   1.142907000000000e-01 -2.48409459e+00  -3.56461050e-01  -5.89559680e-01
C     3.815249007400000e+00   4.726244272839690e+00   9.706320000000000e-02 -1.13385976e+00   1.73026103e+00  -2.17907689e+00
C     5.048313393800000e+00   3.995602474876813e+00  -2.269259999999989e-01 -3.18210833e+00   5.30135090e-01   1.32078577e+00
C     6.201629607199999e+00   4.733100415134291e+00  -4.007766000000004e-01  4.88514440e-01  -1.16858050e-01   5.53374000e-01
C     7.401408605599999e+00   4.033643254224584e+00  -4.234161000000007e-01  2.67591236e+00  -1.55346160e-01  -2.56458650e-01
C     8.642266779700000e+00   4.770978697112628e+00  -3.049904999999988e-01  5.82753330e-01  -7.11103100e-01  -5.18853260e-01
C     9.932230613200000e+00   4.062585717905915e+00  -2.587046999999991e-01 -3.09366356e+00  -3.82311600e-02   1.11102144e+00
C     1.109229841230000e+01   4.749049322738521e+00   4.657320000000000e-02  3.80973054e+00   6.53794290e-01   1.63620410e-01
C     3.658543139999999e+00   6.231687873803391e+00  -1.569171000000011e-01  2.70637779e+00  -3.53894741e+00   1.08099873e+00
C     4.918184219700000e+00   6.885130783549418e+00  -3.086804999999977e-01  1.98322140e-01  -1.98500016e+00  -3.97723180e-01
C     6.178512886500000e+00   6.119264713455494e+00  -3.736953000000014e-01 -2.35913450e-01   3.86580762e+00  -5.91150980e-01
C     7.384790315099999e+00   6.926620298449851e+00  -4.918025999999998e-01  1.53013055e+00  -7.55416050e-01   9.25940550e-01
C     8.643252336000000e+00   6.181506841695786e+00  -3.009969000000012e-01 -3.89017220e-01   9.16969340e-01  -4.52589300e-01
C     9.905729595400000e+00   6.862476532575664e+00  -2.039594999999998e-01 -1.14075667e+00   2.55392225e+00  -3.62534040e-01
C     1.114131296530000e+01   6.196002751276739e+00   4.911990000000000e-02 -3.31872068e+00  -1.26663983e+00  -1.37187356e+00
C     1.229592779000000e+01   6.887616745670460e+00  -1.681640999999985e-01  3.45341964e+00   3.06439959e+00   1.63292010e-01
