32
Lattice="9.86 0 0 4.93 8.53901048131456 0 0 0 30 " PBC="1 1 1" Properties=species:S:1:pos:R:3:force:R:3 Energy="-257.14686919"
C     4.961730268800000e+00   8.107978992111398e+00   1.308744000000000e-01  4.63020720e-01   3.78180340e-01   4.60977730e-01
C     1.280648943600000e+00   2.953160417038832e-01   2.246388000000000e-01 -5.02801210e-01  -2.14362205e+00  -1.16247894e+00
C     7.420414642999999e+00   8.080534270868259e+00   1.319031000000000e-01  1.40094131e+00   2.88652240e-01   6.70625790e-01
C     3.761025761500000e+00   2.499369221397048e-01   1.117728000000000e-01 -1.24005763e+00   5.15116570e-01  -2.57431700e-02
C     9.936460996899999e+00   8.077223611115057e+00   1.218309000000000e-01 -1.59979950e+00   1.60580896e+00  -3.20676260e-01
C     6.204204989900000e+00   3.012522763994744e-01   1.453467000000000e-01 -1.74380250e-01  -1.77773803e+00  -4.16346850e-01
C     1.236451873210000e+01   8.126457837740643e+00   7.748430000000001e-02  7.22277200e-02  -1.36385696e+00   3.81719820e-01
C     8.659572558699999e+00   2.511344329694200e-01   1.553748000000000e-01  9.31171900e-02   1.80694781e+00  -2.81904380e-01
C     1.257783061300000e+00   1.677558030951202e+00   1.172571000000000e-01  7.98248900e-02   1.07249578e+00   2.61382480e-01
C     2.488498204100000e+00   2.390792714490180e+00   5.053680000000000e-02  3.48630000e-04  -4.07159690e-01  -4.87342530e-01
C     3.712502778799999e+00   1.695073505418093e+00   3.889590000000000e-02  1.43842577e+00  -7.76379530e-01   2.76695040e-01
C     4.974832236799999e+00   2.418844815548762e+00   1.841220000000000e-02 -2.22055850e+00   1.78117570e-01   2.89178630e-01
C     6.151304413700000e+00   1.697670987016004e+00   1.423776000000000e-01  1.38954460e+00   1.30863120e-01  -2.33047050e-01
C     7.390785638800000e+00   2.384655471487890e+00   1.584768000000000e-01  1.09696388e+00  -4.06475060e-01   1.28446820e-01
C     8.633717765300000e+00   1.693430855972055e+00   1.646874000000000e-01  6.98688720e-01  -8.68326290e-01  -4.35127300e-02
C     9.882228236100000e+00   2.382580748111564e+00   1.009533000000000e-01 -3.15380710e-01   8.24673430e-01  -3.77006000e-02
C     2.504742652700000e+00   3.787910257724393e+00  -7.510140000000121e-02 -6.91567730e-01   1.62198224e+00   2.69482160e-01
C     3.706898305500000e+00   4.533220367889814e+00  -6.075690000000122e-02  1.40217152e+00  -2.28245420e-01   4.02070680e-01
C     4.966840312400000e+00   3.849844640026986e+00  -2.625299999998276e-03  2.46148700e-02  -6.61600700e-01   3.72906970e-01
C     6.208136221200000e+00   4.528297884518408e+00   1.479537000000000e-01  2.19639110e-01   5.28494600e-01  -4.59837740e-01
C     7.451714720000000e+00   3.767883972615963e+00   1.743171000000000e-01 -9.38835400e-01   2.69534102e+00  -1.39811750e-01
C     8.693820923600001e+00   4.515605840901356e+00   1.264923000000000e-01 -1.53578200e+00  -2.77167430e-01  -2.08249740e-01
C     9.898921068200000e+00   3.824998339672911e+00   1.489410000000000e-02  8.84804710e-01  -9.32745240e-01   3.72068400e-01
C     1.113757030650000e+01   4.531685907706557e+00  -6.585719999999995e-02 -2.75209480e-01   4.05107260e-01  -1.56444820e-01
C     3.733436988500000e+00   5.948388525377698e+00   4.991040000000000e-02  4.66640980e-01   8.57144080e-01  -8.69406960e-01
C     4.957434809100000e+00   6.712584365021735e+00   7.005839999999999e-02  9.39313290e-01  -2.17245294e+00   5.75916520e-01
C     6.214267415700000e+00   5.978907290393638e+00   1.421580000000000e-01 -1.67318838e+00  -1.38529078e+00  -4.57858800e-02
C     7.430762466500000e+00   6.634209228111264e+00   1.687128000000000e-01  1.16545760e-01   1.83319659e+00  -2.13627030e-01
C     8.646782511800000e+00   5.929296578795991e+00   1.177899000000000e-01  1.02685409e+00   7.77445170e-01  -1.84011480e-01
C     9.865667873100000e+00   6.691781798470569e+00   2.640630000000000e-02  1.48158663e+00  -2.08881146e+00   1.39686990e-01
C     1.112150067570000e+01   5.978554800041024e+00  -8.354729999999932e-02  6.46518370e-01  -5.28161830e-01   6.94555940e-01
C     1.240304347760000e+01   6.680038011967319e+00  -1.427100000000792e-03 -2.77423197e+00   4.98466620e-01  -9.78606000e-03
