26
Lattice="8.88768389401873 1.33226762955019e-15 0 4.44384194700937 7.69696003302603 0 0 0 30 " PBC="1 1 1" Properties=species:S:1:pos:R:3:force:R:3 Energy="-208.47243754"
C     8.913962556758777e-01   1.141769898725411e+00   3.412358400000000e+00 -1.62961039e+00  -1.05682132e+00   1.85545300e-02
C     3.242319826357183e+00   4.676533599251457e-01   3.515045700000000e+00 -4.37569300e-02   1.88307059e+00  -2.15301110e-01
C     4.589829796860367e+00   8.604761047426284e-01   3.411162000000000e+00  1.11882979e+00   2.71269830e-01   2.29583600e-01
C     1.007048019717612e+01   7.581061284047467e+00   3.349334400000000e+00 -4.25255880e-01  -5.15483310e-01  -7.96032350e-01
C     6.999993824614373e+00   2.628369456484445e-01   3.244313400000000e+00 -6.17983230e-01   1.10186895e+00   4.62992960e-01
C     1.248699345302596e+01   7.045107486873712e+00   3.250249500000000e+00  1.23065538e+00  -1.17257389e+00   3.46972130e-01
C     4.976267407657144e+00   7.478461114725969e+00   3.380707200000000e+00 -2.38304870e-01  -2.40907120e+00  -2.39877870e-01
C     5.998951061857353e+00   6.417504447230740e+00   3.427553700000000e+00 -1.43007597e+00   1.88120844e+00  -6.18308180e-01
C     7.331150974790018e+00   6.831346281406947e+00   3.484524300000000e+00  8.75708390e-01  -2.62920870e+00  -2.44776570e-01
C     8.329973730739500e+00   5.776569118271802e+00   3.370462200000000e+00  1.61765748e+00   1.30457401e+00  -1.71434550e-01
C     9.716871960967351e+00   6.191935027503551e+00   3.274524300000000e+00 -1.27465370e-01   1.04434058e+00   6.89787910e-01
C     1.078553480358788e+01   5.271295788625627e+00   3.260180100000000e+00 -1.23402982e+00  -2.30400145e+00   4.48198690e-01
C     3.270256797564429e+00   5.650589894676780e+00   3.258081300000000e+00  1.13497630e-01  -2.07560610e-01  -2.09376890e-01
C     4.296825436186019e+00   4.650261411641857e+00   3.259722000000000e+00 -4.31642560e-01  -2.31233410e-01   2.61856310e-01
C     5.676460029001154e+00   5.065724918326785e+00   3.247688100000000e+00 -8.89098980e-01  -2.00205378e+00   1.49936257e+00
C     6.656414365367127e+00   4.010488939404253e+00   3.383022900000000e+00  8.92600230e-01   5.34554310e-01  -1.97300546e+00
C     8.054168012678225e+00   4.395070856996015e+00   3.309002700000000e+00 -2.81570570e+00   9.08134190e-01   5.39971540e-01
C     9.047668601371500e+00   3.416064492636199e+00   3.286479600000000e+00 -2.43480690e-01   1.88418867e+00   4.77751360e-01
C     1.036083447275019e+01   3.858424487358759e+00   3.375255000000000e+00  3.34198436e+00   2.81434920e-01  -9.09348400e-01
C     2.510487761364023e+00   2.856589324397964e+00   3.410722200000000e+00  2.25750607e+00   2.00036768e+00   3.14820840e-01
C     3.925647004378793e+00   3.259509788048404e+00   3.379735800000000e+00 -1.07048160e-01  -3.11971500e-02  -4.05396470e-01
C     4.956807553743776e+00   2.235760995034198e+00   3.369644700000000e+00 -8.72470060e-01   8.15493500e-01  -5.05424550e-01
C     6.326993027658345e+00   2.621614142544515e+00   3.228298500000000e+00 -5.80597910e-01   5.90041840e-01   1.49596810e+00
C     7.350022279493004e+00   1.632066406575612e+00   3.266263800000000e+00  7.33425700e-02   1.16564988e+00  -2.85377560e-01
C     8.706124062930117e+00   2.087430184360057e+00   3.316392000000000e+00  2.35124220e-01  -2.23311790e+00  -4.86136500e-02
C     2.237858634857023e+00   1.500842859264149e+00   3.492987900000000e+00 -7.03796000e-02  -8.73874670e-01  -1.63546930e-01
