32
Lattice="9.86 0 0 4.93 8.53901048131456 0 0 0 30 " PBC="1 1 1" Properties=species:S:1:pos:R:3:force:R:3 Energy="-246.26965366"
C     9.539029737100000e+00   9.822202594772568e-01   4.031060399999999e+00  2.32682886e+00  -4.77210570e-01  -3.91000400e-01
C     9.764993970000000e-01   1.633358661074941e+00   3.830066700000000e+00 -1.16055000e+00   9.63070630e-01  -2.27289490e-01
C     2.231831459500000e+00   1.008924819291990e+00   4.130026800000000e+00 -8.74106740e-01  -3.02415361e+00  -2.24803763e+00
C     3.439043418900000e+00   1.731526284986898e+00   3.867269400000000e+00  3.35335300e-02  -2.50441749e+00   1.70525920e-01
C     4.731325535600000e+00   1.092663052514633e+00   3.918362699999999e+00 -4.74442360e-01  -2.75117637e+00  -1.82166564e+00
C     6.001316903799999e+00   1.677603543877061e+00   3.633162300000000e+00  8.30806000e-01  -5.52589478e+00   6.70945960e-01
C     7.205976059899999e+00   8.550863480447287e-01   3.721067100000000e+00  1.77748160e-01   7.26797586e+00  -1.84241428e+00
C     8.448506687200000e+00   1.722394069448853e+00   3.609936300000000e+00 -3.22580125e+00  -2.58371814e+00   1.95663618e+00
C     1.074014727980000e+01   3.073964701562955e+00   3.316700700000000e+00  6.42907585e+00  -4.59572403e+00   1.02370211e+00
C     2.184934144300000e+00   3.683960784426322e+00   3.194163900000000e+00  2.16007970e-01   2.17481025e+00   2.38543869e+00
C     3.425690908300000e+00   3.032780114726763e+00   3.437962200000000e+00  9.80969410e-01   4.99303100e-02   2.38700570e-01
C     4.746626135700000e+00   3.644249603848454e+00   3.599851500000000e+00 -3.03423840e-01   7.46098090e-01  -1.42086127e+00
C     6.112505116500000e+00   2.970959557433868e+00   3.472827000000000e+00 -4.30142667e+00   7.39129571e+00   2.40292131e+00
C     7.189442368199999e+00   3.854222590700081e+00   3.792227100000000e+00  8.08755740e-01   1.13597680e-01  -1.32718528e+00
C     8.429153627100000e+00   3.136527042696247e+00   3.627000300000000e+00 -1.27205991e+00  -8.46035300e-02  -1.63068290e-01
C     9.639777146499998e+00   3.784952173713911e+00   3.452778900000000e+00 -3.49770738e+00   3.72839503e+00   1.67634209e+00
C     1.211860653600000e+01   5.087898008380387e+00   3.572148000000000e+00 -4.65831211e+00   9.87480690e-01  -3.54808483e+00
C     3.398703693899999e+00   5.762510149787591e+00   3.780473699999999e+00  1.29728858e+00   2.71542824e+00   2.15523396e+00
C     4.599965537699999e+00   5.004374616661419e+00   3.869939100000000e+00  1.94167185e+00   3.35091490e+00   1.25785720e+00
C     5.668212875600000e+00   5.868741844416651e+00   4.334239500000001e+00  5.28490895e+00   8.64279800e-01  -1.06570532e+00
C     7.106935465799999e+00   5.308529473503255e+00   4.049414400000001e+00 -1.38746877e+00  -1.66872863e+00   1.63623755e+00
C     8.446041637899999e+00   5.979121107216057e+00   4.186065000000000e+00 -5.51586110e-01  -4.59412962e+00  -2.92838722e+00
C     9.604880979600001e+00   5.208353901276926e+00   3.716016000000000e+00  3.34167820e-01   1.31306317e+00  -3.58832330e-01
C     1.081577747310000e+01   5.955510401678437e+00   3.455710200000000e+00  1.75535341e+00  -4.50834065e+00   1.74600064e+00
C     1.324392789230000e+01   7.308480748390421e+00   4.127101500000000e+00  6.31286850e-01  -1.72322045e+00  -2.14856561e+00
C     1.433553845090000e+01   8.110735640864657e+00   4.451862900000000e+00  3.45990296e+00   5.46577400e-01  -7.68440610e-01
C     5.737445457200000e+00   7.436857683578523e+00   4.645608300000000e+00  2.35437027e+00  -4.48295069e+00  -3.87329221e+00
C     7.110286534699999e+00   7.881895624967364e+00   4.093284900000000e+00 -1.01254822e+00   5.92308107e+00   3.74194153e+00
C     8.469058180999999e+00   7.326889232573310e+00   4.037313900000000e+00 -1.77154551e+00   4.26806325e+00  -5.52207600e-02
C     9.636052284999998e+00   8.221958387119278e+00   3.748080600000000e+00  1.21534002e+00  -4.58821558e+00   1.29142097e+00
C     1.097436551590000e+01   7.274249904738617e+00   3.572543100000000e+00 -3.69372857e+00   6.60416748e+00  -1.54156900e-01
C     1.218845028970000e+01   8.081912552549836e+00   3.597861900000000e+00 -1.89330879e+00  -5.89574545e+00   1.98830339e+00
