32
Lattice="9.888 0 0 4.944 8.56325919262053 0 0 0 30 " PBC="1 1 1" Properties=species:S:1:pos:R:3:force:R:3 Energy="-257.90970478"
C    -1.475726993996219e-02  -6.349445788844137e-03   2.992504807305559e+00  8.87771490e-01   7.50442370e-01   1.52570710e-01
C     1.244491765376401e+00   7.162088436060127e-01   2.985865642527176e+00 -7.36880120e-01  -4.63538790e-01   1.26416980e-01
C     2.483435416789767e+00   4.002823585728653e-04   2.995663980781435e+00 -9.11969240e-01  -3.72898600e-02   2.41981900e-02
C     3.693720938579759e+00   7.042493542983149e-01   2.997846017903955e+00  1.60997267e+00   8.13066140e-01   2.56272900e-02
C     4.956625778274100e+00  -1.021159502063883e-02   3.007992892497462e+00 -7.29354130e-01   7.71439790e-01  -1.01505960e-01
C     6.186646484844650e+00   7.074846954589874e-01   3.000492622051214e+00 -3.83548750e-01   6.85380960e-01   5.01000200e-02
C     7.416329029658009e+00   6.897023798485044e-03   2.992874144987916e+00 -1.52559360e-01  -5.14975480e-01   2.47785020e-01
C     8.643420995636808e+00   7.232909127338776e-01   3.011743787721696e+00  4.64256230e-01  -5.51987790e-01  -3.17005040e-01
C     1.234882649236093e+00   2.137403219475857e+00   2.999333622108182e+00  9.28696900e-02   2.93128100e-02  -4.65980700e-02
C     2.458396818876735e+00   2.857771694102979e+00   3.009476039808169e+00  8.36496920e-01   4.59357000e-02  -2.50908750e-01
C     3.710439077100818e+00   2.147329965934562e+00   2.994958076062245e+00 -5.41473200e-01  -2.17787190e-01   1.40978210e-01
C     4.948036207042772e+00   2.869002262174158e+00   3.004277467592492e+00 -3.33362530e-01  -5.90309610e-01   2.28629400e-02
C     6.170979290840021e+00   2.151562751210581e+00   3.008259475262541e+00  4.32299420e-01  -5.73689800e-01  -1.32548940e-01
C     7.406045850476006e+00   2.861845868851544e+00   2.992774293813608e+00  7.28782360e-01  -4.10866180e-01   6.06794900e-02
C     8.665808189403172e+00   2.135587291894434e+00   2.989245526237470e+00 -1.07041182e+00   7.12094100e-01   1.17277620e-01
C     9.890019189145658e+00   2.853070745722603e+00   2.991873002389906e+00 -3.32388400e-02  -1.64780480e-01   3.50578100e-02
C     2.465298108083504e+00   4.295099427823756e+00   2.986253066029136e+00  5.54571240e-01  -9.03326970e-01   2.59128520e-01
C     3.701495654202052e+00   4.995757574188544e+00   2.994489595542444e+00  4.89074460e-01   2.66442060e-01   1.74948700e-02
C     4.955401166470755e+00   4.285108467250130e+00   3.008361280435865e+00 -1.24548892e+00   1.80931340e-01  -1.96458020e-01
C     6.164316356081408e+00   4.999911122645469e+00   2.987797579031902e+00  1.16239468e+00  -2.54727440e-01   2.20139960e-01
C     7.414182232395223e+00   4.280219405693604e+00   2.994468759591577e+00  3.57412700e-02   5.66803140e-01  -8.24903700e-02
C     8.660031895454399e+00   5.003847569325712e+00   2.994333754254825e+00 -2.62757530e-01  -7.06915470e-01   5.31529000e-03
C     9.894454217137872e+00   4.271993112717643e+00   2.998966039791840e+00 -1.40876710e-01   5.02100280e-01  -2.51714500e-02
C     1.113432059344701e+01   4.986615479835669e+00   3.004299250685714e+00 -9.11518120e-01   6.16331680e-01  -1.04529020e-01
C     3.701475952951968e+00   6.429224168983978e+00   2.995192921791016e+00  7.85177700e-02  -4.95143070e-01   1.32859970e-01
C     4.937671515161040e+00   7.142360127353489e+00   3.006284361114093e+00  9.20569900e-02  -4.85212090e-01  -1.34283130e-01
C     6.173830867330888e+00   6.411630130856928e+00   3.002691852183888e+00  2.72175310e-01   1.19404986e+00  -2.65735000e-02
C     7.422575609465557e+00   7.145600198820364e+00   3.008577475029421e+00 -3.94949410e-01  -1.01300584e+00  -1.70274020e-01
C     8.657230022466964e+00   6.422548219800542e+00   2.993320605923027e+00 -9.80335500e-02   4.46896360e-01   1.30299790e-01
C     9.893754746055945e+00   7.145079623272515e+00   3.002307762984662e+00 -9.05610800e-02  -7.89865240e-01   1.07301700e-02
C     1.112021657423189e+01   6.418667816167887e+00   3.006637194048979e+00  1.71891640e-01  -4.85659400e-02  -3.10179000e-03
C     1.235269317158468e+01   7.128293689142389e+00   3.009500563118453e+00  1.28111160e-01   6.40760630e-01  -1.88074790e-01
