32
Lattice="9.86 0 0 4.93 8.53901048131456 0 0 0 30 " PBC="1 1 1" Properties=species:S:1:pos:R:3:force:R:3 Energy="-253.09702968"
C     5.146771804199999e+00   7.663102523410734e+00  -2.648648999999992e-01  1.30546544e+00  -1.48428596e+00  -1.40709050e-01
C     6.402374770200000e+00   8.428950661582650e+00  -2.089715999999981e-01 -1.88842494e+00  -2.64625308e+00  -9.91228050e-01
C     7.599718200699999e+00   7.714641343574765e+00  -3.081065999999986e-01  1.85549387e+00  -1.57501503e+00   6.52161500e-01
C     8.843951354200000e+00   8.448966443708191e+00  -3.146225999999999e-01  1.21421137e+00  -3.12166997e+00  -9.10803750e-01
C     1.011548763650000e+01   7.643052158292750e+00  -3.031809000000010e-01 -1.26151025e+00   5.23489890e-01  -1.73764738e+00
C     1.134295321910000e+01   8.322252053860545e+00  -3.456992999999997e-01 -1.36686287e+00   2.91904245e+00   1.06838617e+00
C     1.252292791450000e+01   7.624654177092753e+00  -3.867875999999981e-01  2.91447290e+00  -1.43905172e+00  -1.39818687e+00
C     1.379287747630000e+01   8.384890136016795e+00  -2.628711000000017e-01 -4.39873540e-01  -1.02681774e+00  -1.17542720e-01
C     1.439000494300000e+00   1.231514791858551e+00  -4.796111999999972e-01  2.85298976e+00   2.88344901e+00  -7.56364390e-01
C     2.734387968700000e+00   1.922658884505559e+00  -8.365463999999996e-01 -1.46641152e+00   1.50086610e-01   1.12335340e-01
C     3.964478086100000e+00   1.263828456877386e+00  -6.989687999999994e-01 -1.23588763e+00  -1.45196574e+00   1.73336308e+00
C     5.155021321100000e+00   1.972607143187481e+00  -5.871804000000012e-01  2.83080668e+00  -3.45778468e+00   4.62745340e-01
C     6.404723816600000e+00   1.286954402790056e+00  -2.558471999999981e-01 -5.57712000e-02  -3.32447196e+00  -7.87035180e-01
C     7.669976567399999e+00   1.899439692598448e+00  -2.018273999999991e-01 -2.33060617e+00   3.87999284e+00  -8.63163000e-01
C     8.924562375799999e+00   1.307159409387832e+00  -2.263376999999984e-01 -1.43576627e+00  -3.85116704e+00   4.64546410e-01
C     1.011900174050000e+01   1.972756405090671e+00  -4.249391999999972e-01 -1.08581278e+00   8.43068570e-01  -7.11777440e-01
C     2.779146896400000e+00   3.298995464885120e+00  -1.144126800000002e+00 -2.78795285e+00   1.74247156e+00   5.66127820e-01
C     4.040118040799999e+00   4.074019282158425e+00  -1.129162500000003e+00 -2.34909779e+00  -1.94117829e+00   1.07323278e+00
C     5.219690743999999e+00   3.267830467556054e+00  -8.211191999999983e-01 -5.15874710e-01   7.18399563e+00  -1.19923899e+00
C     6.425067412299999e+00   4.084372063854482e+00  -6.731388000000003e-01 -8.49676200e-01  -4.06926976e+00   1.84642697e+00
C     7.565932960000000e+00   3.353331408712085e+00  -3.526373999999990e-01  3.60432069e+00   1.67863570e-01  -6.88153580e-01
C     8.848678188899999e+00   4.103368458908919e+00  -4.794942000000013e-01 -2.48034331e+00  -4.32186940e-01   1.69626460e-01
C     9.978949659600000e+00   3.368517868070555e+00  -7.238441999999985e-01  4.56726728e+00  -9.04131380e-01   2.35263000e-02
C     1.124081712730000e+01   4.002010062950900e+00  -1.072897500000000e+00  2.15190379e+00   2.60450230e-01   5.09669970e-01
C     3.936687084500000e+00   5.480239666734633e+00  -8.837663999999990e-01  2.61099784e+00   9.41844250e-01   7.09064430e-01
C     5.222219488900000e+00   6.179356291906398e+00  -4.784153999999994e-01 -2.79091796e+00   1.02207491e+00  -1.90231790e-01
C     6.416040828800000e+00   5.412099643955805e+00  -3.635703000000028e-01  2.98514010e-01   5.16910907e+00  -1.43696332e+00
C     7.642318380000000e+00   6.243494422033669e+00  -3.376085999999994e-01 -9.12073000e-02  -5.71906300e-01   4.70377690e-01
C     8.885064103200000e+00   5.514064992778742e+00  -4.694636999999986e-01 -2.87020700e-01   1.96825785e+00  -5.68896090e-01
C     1.013615947160000e+01   6.260241300167254e+00  -6.448653000000029e-01 -1.42796099e+00  -2.55529543e+00   8.56980250e-01
C     1.130275394980000e+01   5.409013987128752e+00  -9.638847000000013e-01  4.29613360e-01   3.39985592e+00   9.71726900e-01
C     1.255887796750000e+01   6.168264800413715e+00  -8.271938999999975e-01 -4.89078000e-01   7.97398660e-01   8.07644200e-01
