32
Lattice="9.956 0 0 4.978 8.62214892007787 0 0 0 30 " PBC="1 1 1" Properties=species:S:1:pos:R:3:force:R:3 Energy="-257.78471751"
C     1.733324722857734e-03   6.780806709119422e-03   2.986534118261926e+00 -8.86466100e-02  -4.07387820e-01   3.44993180e-01
C     1.249287026387670e+00   7.237625083340459e-01   3.005949291932871e+00 -4.83929940e-01   1.06125000e-01  -2.06684490e-01
C     2.480984245411178e+00  -1.334572495231075e-02   3.000287689417686e+00  3.21697100e-01   8.06709510e-01   1.08451300e-01
C     3.728806023721889e+00   7.112002201505270e-01   3.009095989070548e+00  9.47585200e-02  -1.18231950e-01  -7.24243700e-02
C     4.984664877644858e+00  -1.529035664293872e-03   3.003627909609644e+00 -2.16024540e-01   2.11623790e-01  -2.20555600e-02
C     6.237100651778468e+00   7.114452908798976e-01   2.989308164444558e+00 -6.39583930e-01   6.46250380e-01   1.15225110e-01
C     7.469710736059134e+00   1.098744755127896e-03   2.999225698333563e+00 -1.15530740e-01  -6.62841220e-01   1.81058800e-02
C     8.700558376207498e+00   7.083684831917960e-01   3.014471164417543e+00  8.16501250e-01   6.38327590e-01  -2.41867520e-01
C     1.235570874332084e+00   2.167723593562330e+00   2.996286795303072e+00  5.69672650e-01  -2.18204690e-01   8.05904900e-02
C     2.496018650333076e+00   2.886402278361375e+00   2.992323684480517e+00 -6.11863330e-01  -5.39656540e-01   1.32755480e-01
C     3.720605220161809e+00   2.143814458695837e+00   3.004350087188186e+00  5.53008130e-01   3.88102310e-01  -1.22362640e-01
C     4.971061996585707e+00   2.872543231927513e+00   2.991471827787230e+00  3.08240500e-02  -1.55679700e-02   1.72090940e-01
C     6.227118689847435e+00   2.163637937668289e+00   2.991925464487517e+00 -1.35680020e-01  -3.95786200e-01   1.82139100e-02
C     7.474328154594264e+00   2.879388166229623e+00   3.002505836769642e+00 -3.51741950e-01   7.71766100e-02  -5.20864200e-02
C     8.713853525278477e+00   2.154782025952368e+00   3.008026470331925e+00 -3.56619050e-01  -2.63905940e-01   3.27792200e-02
C     9.945961384387122e+00   2.873563432318507e+00   3.004257440042896e+00  2.63116960e-01   4.76157700e-02  -4.66697000e-02
C     2.494713299793136e+00   4.314371257805457e+00   3.001261980167316e+00 -2.71998720e-01   2.00116850e-01  -1.53564980e-01
C     3.734265270217834e+00   5.042949271188610e+00   2.992165304348714e+00 -1.86915930e-01  -3.70979330e-01   2.46967850e-01
C     4.964794945611334e+00   4.317858178634572e+00   3.010229604648393e+00  3.95166530e-01  -4.68030240e-01  -2.13239590e-01
C     6.214019449241088e+00   5.026810931913148e+00   3.005239260490475e+00  1.25268860e-01   1.83819330e-01  -1.12310290e-01
C     7.462551247226620e+00   4.319052486299507e+00   2.995978220055646e+00  2.77971980e-01  -3.45929590e-01   1.14441640e-01
C     8.724621187302986e+00   5.022609897072002e+00   3.001052780008153e+00 -1.22228614e+00   5.76224190e-01  -6.90985800e-02
C     9.943893466235780e+00   4.312103524750323e+00   2.998652951369122e+00  7.44460000e-01  -3.85266150e-01   2.67967900e-02
C     1.119313351071473e+01   5.018982040533168e+00   2.996602650091594e+00  3.17862190e-01   4.69763300e-01  -1.94079700e-02
C     3.740320247257355e+00   6.470030253581209e+00   3.007453892711352e+00 -3.03708070e-01  -1.47064500e-02  -1.39654290e-01
C     4.980302865129132e+00   7.178071823794207e+00   3.002168041408838e+00 -1.41091940e-01   7.61903430e-01  -1.45058460e-01
C     6.210041886815285e+00   6.465602188372761e+00   2.987716942201249e+00  4.23181470e-01  -1.09372640e-01   2.25874380e-01
C     7.453477866566982e+00   7.192523129269346e+00   3.002127949827786e+00  2.80137910e-01  -1.02806347e+00  -1.36016270e-01
C     8.702887342325429e+00   6.458268088070564e+00   2.998485609223183e+00  3.26848170e-01   6.15476790e-01   1.02161560e-01
C     9.952563238964400e+00   7.191816087739947e+00   3.006989766132411e+00  9.52746300e-02  -6.13537230e-01  -1.44171730e-01
C     1.120704520684496e+01   6.464871403385890e+00   2.990240539273067e+00 -4.68479760e-01  -1.94953200e-01   1.28134010e-01
C     1.244925011555387e+01   7.176092867035761e+00   2.996736884581396e+00 -4.16497300e-02   4.23185770e-01   2.90911300e-02
