32
Lattice="9.86 0 0 4.93 8.53901048131456 0 0 0 30 " PBC="1 1 1" Properties=species:S:1:pos:R:3:force:R:3 Energy="-257.57512538"
C     1.257657592800000e+00   2.036483979594064e-01   3.290499300000000e+00 -9.41188080e-01   7.68796100e-01  -5.64443370e-01
C     2.460778539600000e+00   9.487819213881008e-01   3.267395700000000e+00  7.02792350e-01  -3.27271000e-03   8.29096310e-01
C     3.699704350900000e+00   2.301129261895464e-01   3.340087200000000e+00 -2.74736990e-01   5.68087100e-02  -4.19929570e-01
C     4.940697064699999e+00   9.167776247189560e-01   3.322281900000000e+00 -1.30062820e-01   8.68675510e-01   6.71071930e-01
C     6.171809269700000e+00   2.079533400928984e-01   3.387919500000000e+00 -2.80285390e-01   6.16654890e-01  -6.82546010e-01
C     7.390855398300000e+00   9.344537179729752e-01   3.291547500000000e+00  5.54793410e-01  -1.20861860e-01   6.11027900e-02
C     8.636450119199999e+00   2.492391995933840e-01   3.248890800000000e+00 -4.21341230e-01  -6.09882340e-01   4.44785280e-01
C     9.866303399400000e+00   9.440294497153520e-01   3.266415000000000e+00  6.79492840e-01  -7.45904760e-01  -6.22160900e-02
C     2.471459729700000e+00   2.382279321041620e+00   3.367367400000000e+00 -7.99704300e-02  -5.98591900e-01  -2.70262500e-02
C     3.724274337000000e+00   3.072047522929986e+00   3.416989500000000e+00 -4.49748000e-01   3.59818600e-02  -6.42323700e-01
C     4.941828647600000e+00   2.362545240871816e+00   3.351190500000000e+00  2.27349090e-01  -1.08269692e+00  -1.61037090e-01
C     6.176229211899999e+00   3.054521630870310e+00   3.303325800000000e+00 -7.98867000e-02   1.18776537e+00   4.96401700e-02
C     7.407136673999999e+00   2.347339654129870e+00   3.272852400000000e+00  2.32990000e-04   4.65235780e-01   4.01545090e-01
C     8.643667885699999e+00   3.058482536271562e+00   3.352411500000000e+00 -6.14093850e-01   1.41136309e+00  -8.07522230e-01
C     9.860053145400000e+00   2.355745968387011e+00   3.302268600000000e+00  8.99055050e-01   4.35431840e-01   6.43970270e-01
C     1.109559554700000e+01   3.082230122147176e+00   3.410701800000000e+00  7.25176600e-02   8.84790200e-02  -3.72414710e-01
C     3.730196893900000e+00   4.488423865010686e+00   3.376383300000000e+00 -1.50462443e+00   3.95855790e-01   4.80572050e-01
C     4.916385065500000e+00   5.235568325407420e+00   3.369438000000000e+00  1.55264633e+00  -9.69364490e-01  -3.84671290e-01
C     6.177767667700000e+00   4.494345839558775e+00   3.303889500000000e+00 -5.53171520e-01   3.98576670e-01   4.21862180e-01
C     7.411887715000001e+00   5.221464527187709e+00   3.324630900000000e+00 -8.12102200e-02  -1.14560529e+00  -4.47129770e-01
C     8.651653302500000e+00   4.530521186677086e+00   3.342335700000000e+00 -3.30886630e-01  -2.04420051e+00   5.97532120e-01
C     9.879454470199999e+00   5.221498000108790e+00   3.441499800000000e+00 -4.64333540e-01   1.15011370e-01  -4.42735890e-01
C     1.110787154280000e+01   4.515239005011134e+00   3.464032500000000e+00 -6.38594870e-01  -1.12658069e+00  -2.54079890e-01
C     1.232364893350000e+01   5.191244542148465e+00   3.411406800000000e+00  1.64713599e+00   1.05370423e+00   4.60744690e-01
C     4.911710883200000e+00   6.656740688114317e+00   3.344123100000000e+00  1.33878895e+00  -6.71345940e-01  -4.39174860e-01
C     6.185224292699999e+00   7.316000201019110e+00   3.265246200000000e+00 -9.96316810e-01   9.93180950e-01   3.16604140e-01
C     7.412061497500000e+00   6.620041472703059e+00   3.270570900000000e+00 -6.41597520e-01   4.80643150e-01   5.69302100e-01
C     8.610481048400001e+00   7.348114650923447e+00   3.359651400000000e+00  1.08909547e+00  -6.43734200e-02  -4.20935410e-01
C     9.850545393899999e+00   6.634293764315017e+00   3.396127500000000e+00  3.99800150e-01   4.79321270e-01   3.79049390e-01
C     1.108995439450000e+01   7.340527142381233e+00   3.417382500000000e+00  5.28025010e-01  -6.05478490e-01   1.68896880e-01
C     1.234523981920000e+01   6.630455052153732e+00   3.444173100000000e+00 -8.97203130e-01  -1.23702370e-01  -7.78640860e-01
C     1.356020440080000e+01   7.362331932592437e+00   3.320383800000000e+00 -3.12473140e-01   6.03761100e-02   4.11051620e-01
