26
Lattice="8.88768389401873 1.33226762955019e-15 0 4.44384194700937 7.69696003302603 0 0 0 30 " PBC="1 1 1" Properties=species:S:1:pos:R:3:force:R:3 Energy="-206.42750676"
C     3.424848548215249e-01   4.428361286700170e-01   3.887759100000000e+00  1.49087371e+00   2.72291604e+00  -5.74538600e-02
C     7.291830350821151e+00   7.549864119593073e+00   4.016229600000000e+00 -1.34891693e+00   8.11672900e-02  -1.38399000e-03
C     4.207931041300482e+00   3.247931635923277e-01   4.033340099999999e+00 -2.15253995e+00   4.22332800e-02   3.84230740e-01
C     9.605646152709259e+00   7.041220675997763e+00   3.992986200000000e+00 -1.84085530e-01  -1.18174011e+00   5.73798400e-02
C     1.091437955829756e+01   7.359252598990937e+00   3.873650400000000e+00  5.09399894e+00   2.38565157e+00   9.68084580e-01
C     1.201324057326428e+01   6.393227234691315e+00   3.958434000000000e+00 -1.31507778e+00   1.82137609e+00  -1.73392658e+00
C     4.496777216854748e+00   6.794584830607664e+00   3.818073900000000e+00 -1.76775723e+00  -7.05509500e-01   8.44600570e-01
C     5.492216342699935e+00   5.785168315956519e+00   3.861737700000000e+00  1.08850635e+00   1.91866039e+00  -1.84455930e-01
C     6.875279537303053e+00   6.160204001901474e+00   3.973265400000000e+00 -5.52500920e-01   1.79294820e+00   4.59653930e-01
C     7.872896990082015e+00   5.228923100025273e+00   4.181837100000000e+00  2.91673291e+00   1.43570972e+00  -1.38360345e+00
C     9.240092469447053e+00   5.714439872666444e+00   4.094044800000000e+00  6.92993790e-01  -3.21371749e+00   4.28577260e-01
C     1.031831348277881e+01   4.714612769607876e+00   4.057603800000000e+00 -3.56674263e+00  -7.52294350e-01  -2.39770160e-01
C     1.163902784177630e+01   5.060533857573752e+00   3.914732400000000e+00  2.64609935e+00  -1.76338752e+00   6.39623480e-01
C     3.805134055227458e+00   4.030583008106572e+00   3.881795100000000e+00 -2.09161258e+00  -1.02409336e+00   2.75502310e-01
C     5.153069390294942e+00   4.443918459282407e+00   3.805786800000000e+00  5.34954410e-01  -1.14994856e+00   1.44035150e-01
C     6.251454469823072e+00   3.529809706141937e+00   3.779439600000000e+00  2.90465780e-01  -1.70942423e+00   1.42599427e+00
C     7.637729673376670e+00   3.893505306935492e+00   4.008035400000001e+00 -3.69823857e+00  -5.94570050e-01  -4.35817390e-01
C     8.601621343130299e+00   2.905441390921172e+00   4.021186200000001e+00 -1.77346723e+00  -5.84016080e-01  -7.52527980e-01
C     9.893020787834862e+00   3.340253515729514e+00   4.038405300000000e+00  4.05505149e+00  -2.57009158e+00   1.19413413e+00
C     2.000833749115795e+00   2.221357057973256e+00   4.178880899999999e+00  2.44885415e+00   7.78213510e-01  -2.04730850e+00
C     3.414409917864036e+00   2.605740317026644e+00   4.027758000000000e+00  1.03584820e+00   1.64913989e+00   5.15465430e-01
C     4.545256418457704e+00   1.672054423019471e+00   4.069928700000000e+00 -5.95127060e-01   2.27436215e+00  -1.30401101e+00
C     5.970157496261966e+00   2.135385478070170e+00   3.886374900000000e+00 -5.18107373e+00   1.45333010e-01   3.51235470e-01
C     6.869067665118753e+00   1.106284449959901e+00   3.901904099999999e+00  2.39968240e-01  -1.59128402e+00  -7.94056860e-01
C     8.169917872939422e+00   1.561502524290979e+00   3.846440100000000e+00  4.67463477e+00  -3.67704443e+00   1.03571494e+00
C     1.785440551343960e+00   7.681608443220165e-01   4.023794400000000e+00 -2.98184192e+00   3.46941017e+00   2.10083600e-01
