32
Lattice="9.86 0 0 4.93 8.53901048131456 0 0 0 30 " PBC="1 1 1" Properties=species:S:1:pos:R:3:force:R:3 Energy="-257.33851125"
C     4.977140265600000e+00   8.228015961153789e+00  -2.636579999999995e-01 -8.14215830e-01  -1.13250493e+00   2.07576790e-01
C     1.272492406500000e+00   3.906217308633640e-01  -2.995044000000000e-01 -4.44890860e-01   6.32456350e-01   9.61074890e-01
C     7.426382358700000e+00   8.214052715046579e+00  -2.659085999999995e-01  1.23978150e-01   2.07929065e+00   1.59773020e-01
C     3.736509413800000e+00   4.211253818307536e-01  -1.595699999999987e-01 -1.02552583e+00  -2.11102707e+00  -8.16220870e-01
C     9.858885228399998e+00   8.213345087248101e+00  -2.068307999999988e-01  1.83348030e+00   5.63555700e-01   5.87269830e-01
C     6.196236483000000e+00   3.689675687970272e-01  -2.011088999999977e-01 -8.17460870e-01   1.44447929e+00   4.49224700e-02
C     1.235287126200000e+01   8.210718829184872e+00  -1.661817000000028e-01  3.96351610e-01   2.98168960e-01   5.50095800e-02
C     8.673795411500000e+00   3.994749769290280e-01  -2.227800000000002e-01 -6.68141310e-01  -2.34154510e-01  -2.04853350e-01
C     1.248622332500000e+00   1.825423805928122e+00  -1.279797000000009e-01  9.54912190e-01  -3.66388230e-01  -1.16578403e+00
C     2.494785926100000e+00   2.525184784830708e+00  -1.360355999999996e-01 -6.84692400e-01   9.49261950e-01   9.82243040e-01
C     3.714984097099999e+00   1.805380698969047e+00  -1.398686999999974e-01  4.21424220e-01   1.75857234e+00  -3.82072000e-02
C     4.936743303300000e+00   2.550261467687533e+00  -1.532958000000022e-01  1.15426957e+00  -1.15412105e+00  -2.99560320e-01
C     6.190481447500000e+00   1.827066540764265e+00  -2.162982000000007e-01 -2.93637620e-01  -4.79382430e-01   2.44850700e-02
C     7.434041409500000e+00   2.535322298072564e+00  -2.517081000000019e-01 -9.49540850e-01   8.41546250e-01   4.23472000e-02
C     8.642457965100000e+00   1.824516621454727e+00  -2.608971000000011e-01  1.60285574e+00   2.96660490e-01   3.91488450e-01
C     9.908566317400000e+00   2.560206084682647e+00  -1.748058000000015e-01 -1.37706433e+00  -6.38499070e-01  -6.21063600e-02
C     2.488067963000000e+00   3.977368784238450e+00   1.044000000000000e-03  6.56170550e-01  -1.49083726e+00  -4.22282960e-01
C     3.733570640800000e+00   4.667073199718530e+00  -1.042049999999861e-02 -2.52294120e-01   1.10059110e-01  -8.57501440e-01
C     4.957399855399999e+00   3.957381863968333e+00  -1.634454000000005e-01  6.34109400e-02   5.60513820e-01   6.80971230e-01
C     6.197003936100000e+00   4.693630632382693e+00  -2.010347999999986e-01 -1.38375530e-01  -1.75846991e+00  -2.45067740e-01
C     7.436737084199999e+00   3.992956747869690e+00  -2.424024000000031e-01 -6.57686040e-01  -1.52559641e+00   2.09931370e-01
C     8.646000712399999e+00   4.686705921833935e+00  -1.853616000000002e-01  1.36706254e+00   4.46425250e-01  -1.94094510e-01
C     9.911669949600000e+00   3.982146531382219e+00  -1.352120999999968e-01 -1.17414206e+00  -3.92797210e-01   2.06161980e-01
C     1.112608809000000e+01   4.682918358345427e+00  -1.207769999999897e-02 -5.96876100e-02  -4.57744300e-02  -1.01050700e-01
C     3.727402668500000e+00   6.086689583935761e+00  -1.080285000000032e-01 -1.62068176e+00  -4.29388910e-01   8.40537220e-01
C     4.929623890300000e+00   6.761492572227193e+00  -1.871042999999979e-01  1.59709814e+00   2.31704304e+00  -4.83741730e-01
C     6.179894962700001e+00   6.075651034308056e+00  -2.247327000000006e-01 -3.38417500e-02   1.68056910e+00  -1.17957050e-01
C     7.400467863000000e+00   6.838474057237223e+00  -2.808029999999988e-01  1.06914620e+00  -2.38564240e+00   3.48087580e-01
C     8.664071775300000e+00   6.116598663603428e+00  -2.103323999999986e-01 -1.42981811e+00  -6.19079920e-01   4.37823900e-02
C     9.886984305700000e+00   6.794991281120443e+00  -1.474274999999992e-01 -2.85291270e-01   6.29092660e-01   3.70664200e-02
C     1.111515793490000e+01   6.097951684857833e+00  -1.387710000000197e-02 -3.64227100e-01  -9.43811400e-02  -3.84934460e-01
C     1.232190647430000e+01   6.795835106136075e+00  -4.989600000000038e-02  1.85105512e+00   2.50349930e-01  -4.29365820e-01
