32
Lattice="9.748 0 0 4.874 8.44201563609071 0 0 0 30 " PBC="1 1 1" Properties=species:S:1:pos:R:3:force:R:3 Energy="-257.79004923"
C     8.746131443931377e-04  -3.102029153252427e-04   3.000134348831982e+00 -6.47930800e-02   4.68429900e-02   2.56008000e-03
C     1.219610435009893e+00   7.040780668179122e-01   3.000770591924017e+00 -9.74876400e-02   1.61909400e-02  -1.31217100e-02
C     2.436027847947472e+00   1.044225427584142e-03   3.000265899044832e+00  1.03117330e-01  -1.01778860e-01  -4.42509000e-03
C     3.655735300723832e+00   7.025064809440572e-01   2.999622718874935e+00 -2.18484800e-02   6.25875100e-02   2.25463000e-03
C     4.874396627899003e+00  -1.420442286199683e-04   3.000125475735442e+00 -1.22412600e-02  -2.93398400e-02  -1.60775400e-02
C     6.092996447341608e+00   7.037191738082407e-01   2.998903186134696e+00 -2.72134500e-02   6.46030000e-03   2.67653400e-02
C     7.311150586713921e+00   6.491155971759528e-04   3.001001383599400e+00 -7.11431000e-03  -1.66381800e-02  -2.33233000e-02
C     8.528507921540445e+00   7.044822476352623e-01   2.999904860509135e+00  1.05213980e-01  -6.43374100e-02   1.45482300e-02
C     1.218383069010371e+00   2.111721008934691e+00   2.999177326663038e+00  1.23421800e-02  -7.07711300e-02   2.43340000e-02
C     2.437510236113693e+00   2.813178152906366e+00   3.000757362983834e+00 -4.70691400e-02   5.27426300e-02  -2.30568700e-02
C     3.654367153664563e+00   2.110588927980629e+00   2.999187260799814e+00  8.75394100e-02  -8.33699600e-02   9.97668000e-03
C     4.873533096095981e+00   2.812896529130452e+00   2.999362910019852e+00  4.41776000e-03   6.19502700e-02   8.02044000e-03
C     6.092926071748952e+00   2.111192075783251e+00   3.000475706383385e+00 -4.32300200e-02  -5.98133900e-02  -1.77573400e-02
C     7.310583161993198e+00   2.813990667688413e+00   3.000058783760952e+00  1.55582800e-02   2.57622900e-02   8.76942000e-03
C     8.529009045014766e+00   2.110414003560265e+00   3.001181419321125e+00  1.01708500e-02   2.92383100e-02  -1.33215900e-02
C     9.748002765802553e+00   2.813756814583275e+00   3.000555405257218e+00 -1.88062700e-02   6.73615000e-03  -4.82787000e-03
C     2.437885437574799e+00   4.219853093207585e+00   2.999488271870281e+00 -2.60053300e-02   5.43441300e-02  -1.01914000e-03
C     3.656204461626122e+00   4.924404621687437e+00   2.998798384706844e+00 -4.35715900e-02  -1.91732000e-02   1.37140300e-02
C     4.873803420508156e+00   4.220595172444793e+00   3.000253818735187e+00  2.85907200e-02   2.97722000e-03  -1.14430100e-02
C     6.092072600978915e+00   4.925681929936386e+00   3.000215021264335e+00 -5.89769000e-03  -6.29808500e-02  -2.91000000e-04
C     7.310100971078038e+00   4.221058940709118e+00   2.999653893361493e+00 -2.31264000e-03   8.69620000e-04   1.11840400e-02
C     8.528318054944958e+00   4.923525620735391e+00   3.000692680175089e+00  5.71424100e-02   1.29389000e-02  -1.33706500e-02
C     9.747822106419076e+00   4.220271726637448e+00   3.000302435420501e+00 -6.76923000e-03   3.59298100e-02  -6.58260000e-04
C     1.096684188414494e+01   4.923950323649612e+00   2.999097865938312e+00  7.25711000e-03   6.53152000e-03   1.03874800e-02
C     3.655433526235649e+00   6.331245183791764e+00   2.999768680242311e+00 -3.44820000e-04   1.20602300e-02  -5.57943000e-03
C     4.873698175212272e+00   7.034506559936037e+00   3.000128874872233e+00  1.40993700e-02   5.25647100e-02   2.49932000e-03
C     6.092332299335575e+00   6.332203254157505e+00   3.000489284280949e+00  2.40657500e-02  -2.19129000e-02  -7.69796000e-03
C     7.311673609845111e+00   7.034495970678019e+00   2.999294036546454e+00 -5.18689400e-02   6.16268600e-02   9.41817000e-03
C     8.529510024656293e+00   6.330617653019345e+00   2.999199113746547e+00 -1.87791700e-02  -7.41080000e-04   6.03710000e-03
C     9.747379696299234e+00   7.033898501125998e+00   2.999333204763971e+00  5.24167300e-02   4.97415300e-02   8.13891000e-03
C     1.096680640917884e+01   6.331839072300949e+00   3.000080273993907e+00  2.04390000e-04  -3.50752200e-02  -1.31907300e-02
C     1.218557363458141e+01   7.035781088616381e+00   2.999695024502967e+00 -2.67832400e-02  -3.21638800e-02   1.05536300e-02
