32
Lattice="9.86 0 0 4.93 8.53901048131456 0 0 0 30 " PBC="1 1 1" Properties=species:S:1:pos:R:3:force:R:3 Energy="-256.68386248"
C     9.815742108199998e+00   5.908435093072512e-01   3.495270000000000e+00 -9.44232860e-01  -1.03673190e-01  -8.10551750e-01
C     1.173402315200000e+00   1.281194157100457e+00   3.381629100000000e+00  7.56324540e-01  -8.11334290e-01   9.68201450e-01
C     2.400695052000000e+00   5.912830975667616e-01   3.583322400000000e+00  1.03159634e+00  -1.27867413e+00  -1.02608738e+00
C     3.642597498700000e+00   1.270704068115882e+00   3.430536900000000e+00  5.33411680e-01   6.76025600e-01   2.73770960e-01
C     4.906369819799999e+00   5.782650345295823e-01   3.482944800000000e+00 -1.12847592e+00   7.58763720e-01  -7.63621370e-01
C     6.126806750700000e+00   1.315858013973703e+00   3.422772600000000e+00  1.48723960e-01  -1.98356871e+00   3.63527650e-01
C     7.335545925499999e+00   5.430538270845688e-01   3.392147700000000e+00  1.51372448e+00   1.52611296e+00  -2.54392110e-01
C     8.593985268399999e+00   1.303259301741197e+00   3.450935400000000e+00 -1.15282850e+00  -1.04164036e+00  -5.12298220e-01
C     1.104489917380000e+01   2.662031906074341e+00   3.185540100000000e+00  5.73682280e-01   1.40631788e+00   6.06783300e-02
C     2.410575856600000e+00   3.380937688033506e+00   3.135966000000000e+00  7.80907820e-01   1.79179281e+00  -2.74043340e-01
C     3.665932667700000e+00   2.698499714301591e+00   3.233706300000000e+00 -5.99152080e-01  -4.84996700e-01   4.86862960e-01
C     4.894930149199999e+00   3.405202140213474e+00   3.315454200000000e+00  4.94172270e-01   6.59163860e-01   4.36697990e-01
C     6.143361444199999e+00   2.715739037169558e+00   3.486297300000000e+00 -9.43856560e-01   2.53973770e-01  -3.42867290e-01
C     7.366717082999999e+00   3.423923066789825e+00   3.547875900000000e+00  3.19546090e-01  -9.09188740e-01  -8.16717240e-01
C     8.589982995800000e+00   2.714937736426115e+00   3.368558100000000e+00  5.96979860e-01   2.84261600e-02   6.83814990e-01
C     9.847609381700000e+00   3.397894198874375e+00   3.204865500000000e+00 -1.93155944e+00   1.21987939e+00   2.52755010e-01
C     1.228940638600000e+01   4.862053477359479e+00   3.058962300000000e+00 -8.11404030e-01  -1.34768287e+00  -1.51439600e-02
C     3.677283154600000e+00   5.533438470535976e+00   3.189269100000000e+00 -1.35494590e-01   5.05131800e-01  -6.29094800e-02
C     4.906930607300000e+00   4.848289360976661e+00   3.345983400000000e+00 -3.37468910e-01  -1.75054537e+00   4.44807510e-01
C     6.120252167799999e+00   5.502012521046641e+00   3.633270900000000e+00 -5.19702620e-01   2.85875206e+00  -9.49551500e-01
C     7.356412298400000e+00   4.810249179359624e+00   3.595737000000000e+00  4.54299700e-02   1.52246370e+00   4.33188300e-02
C     8.564586347299999e+00   5.553925008309277e+00   3.462620700000000e+00  1.31815466e+00  -3.40142070e-01  -5.04205140e-01
C     9.791294238199999e+00   4.851303033945368e+00   3.185788800000000e+00  9.94270770e-01  -1.80332930e-01   1.07783670e-01
C     1.103453843370000e+01   5.606230887784727e+00   3.027195300000000e+00 -2.58097780e-01  -1.90419451e+00   9.50507740e-01
C     1.354838738800000e+01   6.948009238850680e+00   3.244044900000000e+00 -1.45166359e+00   1.28116330e+00   9.15396700e-02
C     4.854468456000000e+00   7.716165813115760e+00   3.463290600000000e+00  1.72027288e+00  -1.41727033e+00   4.36832690e-01
C     6.092854580199999e+00   6.995879956282818e+00   3.631205100000000e+00  1.27891723e+00  -1.55372153e+00  -5.92743800e-02
C     7.382544650800000e+00   7.670256335610668e+00   3.664461600000000e+00 -2.08345584e+00   1.38417263e+00  -2.97057520e-01
C     8.608967094699999e+00   6.985438539657978e+00   3.501368100000000e+00 -1.12518788e+00  -6.58852350e-01   4.37839670e-01
C     9.811826998000001e+00   7.708456282113787e+00   3.387231600000000e+00  6.84225450e-01  -1.37533030e-01   4.56738000e-02
C     1.101921426820000e+01   7.004031808027655e+00   3.178569000000000e+00  1.53895474e+00  -2.39065000e-02  -3.60241140e-01
C     1.230262253280000e+01   7.677923000780032e+00   3.179624100000000e+00 -9.06714410e-01   5.51179600e-02   9.64348900e-01
