32
Lattice="9.86 0 0 4.93 8.53901048131456 0 0 0 30 " PBC="1 1 1" Properties=species:S:1:pos:R:3:force:R:3 Energy="-255.31673185"
C     9.810212373700001e+00   1.883269368452472e-01   4.090027200000000e+00  5.71373080e-01  -2.45504952e+00  -4.37734260e-01
C     1.187080353700000e+00   8.411539277653511e-01   4.095884100000000e+00  2.17158800e-01   1.31692235e+00   6.98387870e-01
C     2.444151128600000e+00   1.973556595762752e-01   4.062469500000000e+00 -3.07553677e+00  -3.87456835e+00  -6.92730450e-01
C     3.597856565500000e+00   8.907413278643880e-01   4.053613800000000e+00  2.30106183e+00   1.80738979e+00   1.71854800e-02
C     4.801697292300000e+00   1.795257787435112e-01   3.973206600000000e+00  4.53546917e+00  -4.92521530e-01  -6.86221350e-01
C     6.147576150499999e+00   8.056125167850759e-01   3.989351100000000e+00 -9.14481210e-01   3.12855775e+00  -6.87853400e-02
C     7.408598073899999e+00   1.977982364894536e-01   4.095442500000000e+00 -1.51775760e+00  -2.35546161e+00  -8.76749430e-01
C     8.623503199700000e+00   9.405241005232071e-01   4.119715800000000e+00 -1.05816273e+00  -1.62939961e+00   2.75521800e-01
C     1.102861454570000e+01   2.246335200156247e+00   4.240501200000001e+00  6.65229980e-01   2.19512114e+00  -6.55922500e-02
C     2.410636594200000e+00   3.012515420445731e+00   4.271858400000000e+00 -2.92231750e-01   9.27435160e-01  -4.86445690e-01
C     3.624889333100000e+00   2.329552980690135e+00   4.101695700000000e+00  2.13035838e+00  -9.39025880e-01  -2.25404460e-01
C     4.971200305799999e+00   2.964751952985222e+00   3.930918000000000e+00 -2.54392881e+00  -1.46444028e+00   2.29713630e-01
C     6.232138764300000e+00   2.275610172905670e+00   3.899687699999999e+00 -3.32168239e+00  -1.51030143e+00   1.41858857e+00
C     7.355236444099999e+00   3.036623181783391e+00   4.140694500000000e+00  1.37699460e+00   1.46291777e+00  -1.23731172e+00
C     8.598408464400000e+00   2.334315784565565e+00   4.176330300000000e+00 -6.12212020e-01   4.28195470e-01   2.11557430e-01
C     9.806675936800001e+00   3.012149096896139e+00   4.224657900000000e+00  1.27291485e+00   4.25622030e-01  -4.68197580e-01
C     1.228524812820000e+01   4.482815015976898e+00   4.260939900000000e+00 -4.99007940e-01  -9.35151080e-01  -1.12803565e+00
C     3.669799118800000e+00   5.152100608036783e+00   4.026550500000000e+00 -5.02558990e-01  -2.57192033e+00   2.38260460e-01
C     4.925285835400000e+00   4.322760999001244e+00   3.883262400000000e+00 -2.34235009e+00   4.20893523e+00   8.66144980e-01
C     6.072076158500000e+00   5.117835010612324e+00   3.914577900000000e+00  1.80504226e+00   7.02347490e-01  -6.09173020e-01
C     7.308224654300000e+00   4.519970897668626e+00   4.047065700000000e+00  2.75498181e+00  -3.06772673e+00   2.58529600e-02
C     8.622553928200000e+00   5.182584192329545e+00   4.004924700000000e+00 -2.43880573e+00  -5.10556020e-01  -1.57710310e-01
C     9.794025753999998e+00   4.436932692525133e+00   4.060402499999999e+00  1.55985887e+00   1.09181710e-01   1.26758036e+00
C     1.101530630650000e+01   5.207967681832916e+00   4.141583700000000e+00  1.29165390e+00  -3.75325992e+00  -3.71850110e-01
C     1.348494144320000e+01   6.561362673536070e+00   4.003413600000000e+00  2.24645788e+00   2.88149400e-02   6.96486200e-02
C     4.885388183500000e+00   7.252483796244888e+00   4.001849699999999e+00  1.19928100e-01   1.55134718e+00  -6.75740320e-01
C     6.135572832999999e+00   6.529361877861223e+00   3.836670600000000e+00 -1.44890088e+00   1.94849091e+00   1.37945793e+00
C     7.367041476999999e+00   7.259485870228592e+00   3.920827800000000e+00  9.45808750e-01   1.00817210e+00   1.26923260e-01
C     8.666578187300001e+00   6.592646448500913e+00   3.911990100000000e+00 -3.06975501e+00  -4.89753770e-01  -2.34395620e-01
C     9.849130434599999e+00   7.304266319768018e+00   3.844047600000001e+00 -6.43081290e-01   4.32289040e-01   8.97983310e-01
C     1.105901381310000e+01   6.545102092049320e+00   3.924160200000000e+00  1.41233700e-01   3.80821458e+00   3.70607140e-01
C     1.228678362600000e+01   7.279945168558462e+00   4.004514300000000e+00  3.44927270e-01   5.59181410e-01   3.28663760e-01
