32
Lattice="9.86 0 0 4.93 8.53901048131456 0 0 0 30 " PBC="1 1 1" Properties=species:S:1:pos:R:3:force:R:3 Energy="-256.84545566"
C     5.124760340200000e+00   6.717126691646572e+00  -3.939564000000004e-01 -3.12420180e-01  -3.17361690e-01   5.58531760e-01
C     6.365975840700001e+00   7.402842962281968e+00  -4.683363000000007e-01 -8.88351180e-01   6.06416480e-01  -1.01078330e-01
C     7.599353972299999e+00   6.705470686171057e+00  -5.049605999999969e-01 -1.67149614e+00  -1.70463875e+00   2.88331380e-01
C     8.803568195899999e+00   7.371849086722920e+00  -4.059935999999986e-01  9.20905970e-01   1.40081323e+00  -2.99690060e-01
C     1.000541759710000e+01   6.632236716690385e+00  -3.052826999999994e-01  1.97175319e+00   1.48498103e+00   1.62780150e-01
C     1.125991811650000e+01   7.349178697019359e+00  -2.417657999999996e-01 -2.70429410e-01   1.52788066e+00  -1.41698020e-01
C     1.253210560250000e+01   6.704998137331093e+00  -1.407177000000033e-01 -1.56297779e+00  -3.56683480e-01  -2.21494790e-01
C     1.373647704380000e+01   7.434351825563062e+00  -1.731096000000001e-01  1.04174039e+00  -2.57472006e+00  -6.86519260e-01
C     1.386666079300000e+00   2.891613791202136e-01  -4.259360999999977e-01  4.62631880e-01  -5.60589230e-01   1.31918087e+00
C     2.622188465100000e+00   9.867698442610008e-01  -3.689204999999980e-01  4.78391400e-01  -3.01756660e-01  -6.90938700e-01
C     3.888131711700000e+00   2.919158931208520e-01  -4.311614999999982e-01 -2.58031108e+00  -1.67077391e+00   2.96816720e-01
C     5.054399774599999e+00   9.898455104457921e-01  -4.411226999999975e-01  3.18861291e+00   5.20870350e-01   1.63073600e-02
C     6.308846507700000e+00   2.487744212529576e-01  -3.815717999999997e-01  4.51965000e-03  -6.05276000e-03   3.32567830e-01
C     7.550446548200000e+00   9.641167887487136e-01  -3.596339999999998e-01 -5.37521510e-01   1.34326070e-01   3.44500600e-01
C     8.782422538500001e+00   2.549059431182264e-01  -1.925699999999999e-01  1.74360670e-01   2.89802123e+00  -5.04279490e-01
C     1.001934943200000e+01   9.829229346496560e-01  -2.187123000000000e-01  5.08252370e-01  -1.05534410e-01  -1.23220152e+00
C     2.623217602600000e+00   2.386273955534269e+00  -3.169700999999989e-01  1.88617740e+00   1.28471240e+00   1.66115920e-01
C     3.905316902900000e+00   3.124422995340847e+00  -4.009896000000026e-01 -2.56615229e+00   3.49017520e-01   7.28479030e-01
C     5.113111193899999e+00   2.427443855272436e+00  -4.631003999999983e-01 -3.09170640e-01  -9.37318490e-01  -5.12571010e-01
C     6.340743509099999e+00   3.119112755503544e+00  -5.672712000000004e-01 -4.88569580e-01  -8.26697500e-02   6.08097770e-01
C     7.544420214800000e+00   2.392514435173263e+00  -4.705175999999973e-01  1.95258285e+00   3.47721890e-01   1.61279310e-01
C     8.809262345900001e+00   3.127006387571467e+00  -3.878889000000001e-01 -4.65508880e-01  -5.63109730e-01  -1.10362410e-01
C     1.007618365520000e+01   2.398249917732469e+00  -2.986320000000013e-01 -2.63229664e+00   7.84198600e-01   6.01735000e-01
C     1.127859798510000e+01   3.117896629630983e+00  -2.126112000000013e-01  6.40741170e-01  -2.22942000e-03  -4.40948780e-01
C     3.837259041699999e+00   4.553499322318346e+00  -3.050561999999992e-01  2.46437633e+00   6.54633600e-01  -4.88101900e-01
C     5.114443033400000e+00   5.300263199017987e+00  -4.573152000000000e-01 -1.70327005e+00  -1.43834778e+00   4.40953390e-01
C     6.310192594899998e+00   4.534346151031497e+00  -5.530685999999996e-01  1.02212346e+00   1.19202798e+00   5.66300800e-02
C     7.555769272000000e+00   5.251226052754282e+00  -4.981059000000023e-01 -7.50096400e-02   9.62832350e-01  -3.17095150e-01
C     8.776789274000000e+00   4.567598680252608e+00  -4.174605000000007e-01  1.84301292e+00  -1.62996416e+00   4.23354660e-01
C     1.006939041100000e+01   5.245864408073889e+00  -2.724897000000013e-01 -2.13383154e+00  -1.05923301e+00  -5.90378100e-02
C     1.129488616280000e+01   4.538588929168694e+00  -1.491138000000021e-01 -7.46075080e-01   6.01904170e-01  -4.93252840e-01
C     1.250332283280000e+01   5.293320812717537e+00  -1.476341999999988e-01  3.83209060e-01  -1.43937428e+00  -2.06391740e-01
