32
Lattice="9.864 0 0 4.932 8.5424745829297 0 0 0 30 " PBC="1 1 1" Properties=species:S:1:pos:R:3:force:R:3 Energy="-258.08694769"
C     8.001417276021530e-04  -7.857915596619055e-04   3.000930487810399e+00 -5.79358800e-02   7.62872100e-02  -2.28580100e-02
C     1.232998893523917e+00   7.130193904951356e-01   2.998775743318433e+00  1.94826300e-02  -5.89991100e-02   1.60772300e-02
C     2.467044706958811e+00   3.192086900363860e-04   2.999517397770628e+00 -8.01685200e-02  -3.42273000e-03   5.76529000e-03
C     3.698607721252376e+00   7.109869348664494e-01   2.999967946379262e+00  8.30529500e-02   6.13188800e-02   4.53692000e-03
C     4.932939661212124e+00  -1.159142401733657e-04   2.999938345512023e+00 -4.75691600e-02   1.72198700e-02  -8.63163000e-03
C     6.165942851750104e+00   7.122858475104633e-01   2.998968789722704e+00 -7.03211100e-02  -1.10072400e-02   1.64025700e-02
C     7.396835612567279e+00   5.426025126568020e-04   3.000522353055542e+00  8.00311500e-02  -2.70914100e-02  -2.06872200e-02
C     8.629865327247126e+00   7.117890592349337e-01   2.999672995852460e+00  8.21696500e-02  -2.30071300e-02   9.46567000e-03
C     1.233244683872750e+00   2.136172723066967e+00   2.999240440771245e+00 -2.83519300e-02  -3.57121000e-03  -2.62875000e-03
C     2.466069587863934e+00   2.846977226326803e+00   2.999110985286265e+00  2.42837400e-02   4.79417900e-02   7.03134000e-03
C     3.700124450233770e+00   2.135877684472077e+00   3.001011755865815e+00 -8.04810300e-02  -6.17439500e-02  -2.60289400e-02
C     4.931896012808654e+00   2.846365756353333e+00   2.999079103212840e+00  2.05991900e-02   5.49116600e-02   1.76255100e-02
C     6.164592047783322e+00   2.135490058083611e+00   2.999817448983785e+00  5.48902000e-02   1.80983800e-02  -2.70185000e-03
C     7.398120749403425e+00   2.848156586631298e+00   3.001041143399497e+00 -1.17661700e-02  -6.41347900e-02  -1.31893300e-02
C     8.631615736297137e+00   2.135106574097838e+00   2.999243120320184e+00 -5.59457200e-02   3.48039000e-02   1.42351300e-02
C     9.863409598068582e+00   2.848049049786347e+00   2.999887679823883e+00  5.05714900e-02  -3.10225200e-02  -8.39415000e-03
C     2.465188948816255e+00   4.271588555781246e+00   2.998792511458710e+00  5.32486800e-02  -4.84177600e-02   1.34930600e-02
C     3.699662132137810e+00   4.982513821255929e+00   2.999428546816127e+00 -5.91631900e-02   2.56204200e-02   4.86501000e-03
C     4.931962241682831e+00   4.270810061330619e+00   2.999686601260195e+00 -8.29096000e-03  -3.32284300e-02  -1.03977000e-02
C     6.164009142972712e+00   4.981973174439055e+00   2.999229194811627e+00  2.53375800e-02   9.09598600e-02   1.83979800e-02
C     7.397108461022083e+00   4.270844241736318e+00   3.001154946878499e+00  2.29903900e-02   2.81705700e-02  -1.28201100e-02
C     8.630071546985430e+00   4.983522163365960e+00   3.000179521627514e+00  3.47550400e-02  -5.78807600e-02   6.48790000e-03
C     9.864563602191859e+00   4.271100480998378e+00   2.999946396582247e+00 -9.38866800e-02   1.85073800e-02   8.04411000e-03
C     1.109637206230197e+01   4.982188064129581e+00   3.000815566649621e+00  4.21660600e-02   8.36614700e-02  -1.72133800e-02
C     3.699392614813334e+00   6.406468138167447e+00   3.000793978978366e+00  1.54323900e-02   8.45522000e-03  -2.01086900e-02
C     4.932724626369295e+00   7.118666947014669e+00   2.999837999647509e+00 -5.26607800e-02   4.88733000e-03   1.67033800e-02
C     6.164063693975052e+00   6.408036219964672e+00   3.000360072069350e+00  5.17656700e-02  -1.05848290e-01  -5.93741000e-03
C     7.397269339817932e+00   7.119124493268178e+00   3.001020855295989e+00  1.74552900e-02  -1.96939500e-02  -1.26946500e-02
C     8.629809860474833e+00   6.405652751004528e+00   3.000263978015674e+00  3.97635700e-02   9.23412400e-02   1.97001000e-03
C     9.863707459898878e+00   7.119482540709732e+00   2.999649341657714e+00  2.38013900e-02  -7.24422100e-02   6.84041000e-03
C     1.109796774675276e+01   6.407304844208255e+00   3.000285353438987e+00 -5.56336200e-02  -2.44685000e-02  -7.30343000e-03
C     1.233100760806485e+01   7.119025805950751e+00   2.999114534631051e+00 -3.96222900e-02  -1.72052100e-02   2.36537600e-02
