32
Lattice="9.86 0 0 4.93 8.53901048131456 0 0 0 30 " PBC="1 1 1" Properties=species:S:1:pos:R:3:force:R:3 Energy="-256.47579046"
C     9.795794440800000e+00   8.529079610811761e-01   3.388927200000000e+00  1.29678630e+00  -7.27216050e-01   6.84671290e-01
C     1.220274388800000e+00   1.517368158318813e+00   3.438886500000000e+00 -1.53176054e+00   2.42723188e+00   9.13775610e-01
C     2.443543703300000e+00   8.285561548239977e-01   3.450942600000000e+00 -1.01821157e+00  -4.30722640e-01  -1.10942240e-01
C     3.630410242900000e+00   1.571191334566454e+00   3.543850800000000e+00  5.43948040e-01   3.06597300e-01   1.03112680e-01
C     4.839516061799999e+00   8.491482347668320e-01   3.491439000000000e+00  2.40460374e+00  -7.85755100e-01   6.37119510e-01
C     6.122790131800000e+00   1.499693089746051e+00   3.461693400000000e+00 -1.09161097e+00   1.74603431e+00   8.55068000e-01
C     7.353496154099999e+00   8.113037672699960e-01   3.545622900000000e+00 -2.10245570e-01   1.35039422e+00   2.06873290e-01
C     8.579399469000000e+00   1.565903723106923e+00   3.500797800000000e+00 -8.40041700e-02  -9.20566720e-01  -4.04254670e-01
C     1.106603950680000e+01   2.991552832838170e+00   3.705131700000000e+00 -9.06083830e-01  -1.64626314e+00  -7.00277580e-01
C     2.419241317600000e+00   3.708836373586344e+00   3.833136000000000e+00  3.40812000e-01  -1.31292039e+00  -4.45748200e-01
C     3.650379306500000e+00   3.005569533150985e+00   3.701537700000000e+00 -1.66093910e-01  -1.47079859e+00  -3.62472950e-01
C     4.890889521200000e+00   3.655359624993877e+00   3.598145400000000e+00  3.06561680e-01   1.73693801e+00   3.98708600e-01
C     6.122493444399999e+00   2.945999773630513e+00   3.528985500000000e+00  2.42666780e-01  -3.48517360e-01  -1.32619486e+00
C     7.353046932500000e+00   3.673608942021418e+00   3.393399000000000e+00 -1.09539710e+00   1.31170967e+00   8.65343270e-01
C     8.580251915300000e+00   2.970093530990987e+00   3.493252500000000e+00  2.25354670e-01   9.16828910e-01   1.06296970e-01
C     9.806665435899999e+00   3.701129489677620e+00   3.676456200000000e+00  4.72259100e-01  -1.83036516e+00  -8.55022300e-02
C     1.227324022580000e+01   5.094894702787490e+00   3.881935500000000e+00  1.29796317e+00   1.31021180e+00   4.31649500e-02
C     3.671645009400000e+00   5.844001940133157e+00   3.800149500000000e+00 -9.35231720e-01  -1.01714101e+00  -2.07505250e-01
C     4.888072617800000e+00   5.121034321668866e+00   3.607291800000000e+00 -8.53344230e-01  -5.33195950e-01  -4.77562350e-01
C     6.049861085500000e+00   5.862003796636988e+00   3.314042400000000e+00  2.36816878e+00  -1.58547361e+00   1.24448558e+00
C     7.303459119099999e+00   5.147359322467763e+00   3.354616500000000e+00  1.29729951e+00  -1.94951018e+00  -1.92139540e-01
C     8.597470236099999e+00   5.791671895258048e+00   3.439446000000000e+00 -1.38538417e+00   1.06782901e+00   9.11385060e-01
C     9.796694855999998e+00   5.094126533404709e+00   3.769998600000000e+00 -2.79418900e-02   1.18461740e-01  -1.51410962e+00
C     1.104790583290000e+01   5.764610746365671e+00   3.807523800000000e+00 -4.80059590e-01   1.82340418e+00   4.74816550e-01
C     1.351932336180000e+01   7.262285470204564e+00   3.724323600000000e+00  2.06355340e-01  -4.49448800e-02  -4.03901360e-01
C     4.876889948100001e+00   7.947440727851425e+00   3.427834800000000e+00 -6.61026800e-02   1.19263180e+00   6.26600500e-01
C     6.132464517300000e+00   7.259011528196428e+00   3.362116500000000e+00 -2.17317019e+00   1.42508710e-01  -4.07014530e-01
C     7.346107957499999e+00   7.932607612746617e+00   3.371801700000000e+00  1.85197191e+00   7.73396870e-01  -4.41838500e-02
C     8.592291764099999e+00   7.222051104454586e+00   3.444771300000000e+00  4.96419950e-01   3.16742850e-01   2.65433840e-01
C     9.838161579000001e+00   7.960450849608858e+00   3.606927000000000e+00 -1.37231193e+00  -1.36828590e+00  -8.16590440e-01
C     1.106080394540000e+01   7.192390424601783e+00   3.738045300000000e+00 -3.95472680e-01   2.17490240e+00   2.72658350e-01
C     1.227501221570000e+01   7.986434973109393e+00   3.787051500000000e+00  4.41255760e-01  -2.74414696e+00  -1.11111440e+00
