32
Lattice="9.86 0 0 4.93 8.53901048131456 0 0 0 30 " PBC="1 1 1" Properties=species:S:1:pos:R:3:force:R:3 Energy="-253.2893268"
C     5.037822255199999e+00   8.332142191968794e+00   1.737762000000000e-01 -3.07663780e+00  -7.44710850e-01  -1.43392064e+00
C     1.250224483900000e+00   5.355031216775240e-01  -1.314600000000610e-03  4.48263730e+00  -1.92805370e-01   1.59995983e+00
C     7.477547969300000e+00   8.389645510953107e+00   3.042495000000000e-01 -5.34995800e-01  -1.89803374e+00  -2.05286682e+00
C     3.775999699800000e+00   5.217441287009952e-01   1.499886000000000e-01  1.04757894e+00  -8.74126160e-01  -9.30469120e-01
C     9.986607477900000e+00   8.298674138123168e+00   1.153890000000000e-02 -1.90359966e+00   1.29337106e+00   1.37912037e+00
C     6.250186212499999e+00   5.036725938716472e-01   9.079050000000001e-02  1.46129825e+00  -3.43091137e+00  -7.07455790e-01
C     1.240365543850000e+01   8.220618360204650e+00   8.524799999999999e-03  1.15271204e+00   4.19705205e+00  -6.07937390e-01
C     8.710192073200000e+00   4.895496682684608e-01   3.703650000000000e-02  5.94810650e-01  -3.31107710e-01   1.19230806e+00
C     1.323356991300000e+00   1.955564302950658e+00  -2.901053999999981e-01  5.54354370e-01  -1.08656021e+00   6.75056450e-01
C     2.555685476600000e+00   2.641390556041037e+00  -5.234915999999998e-01  1.36884175e+00  -9.27234430e-01   7.11121310e-01
C     3.806376979400000e+00   1.898213319913310e+00  -1.923917999999993e-01 -3.56389520e-01   1.32070390e+00  -4.28313940e-01
C     5.062123556300000e+00   2.588085185388903e+00  -1.685657999999997e-01 -2.35963040e-01   6.10499600e-01   1.66138750e-01
C     6.332586084600000e+00   1.884413595856792e+00   1.000530000000000e-01 -2.47457772e+00   1.70024485e+00  -4.11711760e-01
C     7.524978661199999e+00   2.616648431614817e+00   1.552659000000000e-01  8.43857500e-01   1.66991441e+00  -2.25749990e-01
C     8.789597512600000e+00   1.949481026494601e+00   9.881160000000000e-02 -2.38257846e+00  -2.18136327e+00   7.66583200e-02
C     9.990780476399999e+00   2.648657595519936e+00  -1.004627999999990e-01 -1.50112270e+00   8.80590760e-01  -1.45891346e+00
C     2.569202452000000e+00   4.054767399910427e+00  -8.130044999999981e-01 -3.04404680e-01   1.63904200e-01   8.20128770e-01
C     3.808992393700000e+00   4.804476210544411e+00  -6.908645999999976e-01  1.29853373e+00  -2.38745557e+00   1.40971139e+00
C     5.034732574900000e+00   4.039659243278058e+00  -2.969535000000008e-01 -2.98591421e+00  -2.19909086e+00  -1.25546206e+00
C     6.199362546700000e+00   4.664184708643460e+00  -4.785599999999945e-02  1.79168916e+00   5.29582326e+00   1.25552372e+00
C     7.452557306299999e+00   4.091274487585886e+00   1.424766000000000e-01  1.78972140e-01  -3.79369773e+00  -8.25563120e-01
C     8.646579790200001e+00   4.780108521727739e+00  -4.838339999999874e-02  2.36210330e+00  -4.09589500e-01   9.60473900e-02
C     9.850036864400000e+00   4.030963712735960e+00  -3.637268999999996e-01  3.05595204e+00   1.61908546e+00   1.01514400e-02
C     1.117422283520000e+01   4.751733048342279e+00  -7.525529999999989e-01 -3.02973537e+00   8.10678110e-01   2.34755740e+00
C     3.841995785700000e+00   6.180564903449737e+00  -4.551659999999984e-01 -9.75258470e-01   1.29319718e+00   1.07552330e+00
C     4.983314597600000e+00   6.869826742016638e+00   9.794699999999999e-02  1.92612218e+00  -3.61188700e-02  -1.44964682e+00
C     6.202747583300000e+00   6.139430782165481e+00   1.166562000000000e-01  2.32994439e+00   6.09761890e-01   2.35924360e-01
C     7.584676031199999e+00   6.899691248049599e+00   2.578908000000000e-01 -5.32245881e+00   9.85998990e-01   2.79934760e-01
C     8.751231463800000e+00   6.180730987203573e+00   1.124946000000000e-01  1.50507500e-01   1.36819790e-01  -8.91589310e-01
C     9.989469786599999e+00   6.866982397625750e+00  -7.244219999999757e-02 -1.89432040e+00   1.55544346e+00   2.35565110e-01
C     1.110760078720000e+01   6.201321615514626e+00  -4.483713000000016e-01  5.45001894e+00  -2.20182395e+00  -1.57884947e+00
C     1.246961129560000e+01   6.905924554919790e+00  -4.202805000000005e-01 -3.07197755e+00  -1.44845937e+00   6.92018980e-01
