26
Lattice="8.88768389401873 1.33226762955019e-15 0 4.44384194700937 7.69696003302603 0 0 0 30 " PBC="1 1 1" Properties=species:S:1:pos:R:3:force:R:3 Energy="-207.67947201"
C     2.268400895337239e-01   3.691009449138236e-01   3.879711000000000e+00  3.10524589e+00  -3.04413569e+00  -1.59049040e+00
C     7.161797447371821e+00   7.434156258249284e+00   3.738132300000000e+00 -2.66461926e+00   2.07650882e+00   5.54708400e-02
C     4.044209194309484e+00   2.045513309732680e-01   3.726453600000000e+00  1.38043783e+00  -1.02453340e+00   7.22449140e-01
C     9.511900995995148e+00   6.908025090557013e+00   3.743749800000000e+00  9.29841390e-01   1.49405240e+00  -3.56464720e-01
C     1.089706679444048e+01   7.322991912411205e+00   3.768688800000000e+00 -9.61891730e-01  -3.79611780e+00   5.15651460e-01
C     1.189603210883206e+01   6.256665306811845e+00   3.862257300000000e+00 -2.29925330e-01   1.35509284e+00  -1.03331983e+00
C     4.377746555026484e+00   6.648021549834812e+00   3.847607100000000e+00 -2.04620827e+00   1.71014035e+00   6.31607200e-01
C     5.364466774140812e+00   5.703368180511291e+00   3.873182700000000e+00  2.10564125e+00  -1.85880566e+00  -6.10960090e-01
C     6.774307715995372e+00   6.110484718891686e+00   3.848208900000000e+00  2.29442180e-01  -2.48829501e+00  -4.42218180e-01
C     7.833546858462298e+00   5.115652173196584e+00   3.821953500000000e+00 -1.20606235e+00   1.23364953e+00  -6.04550700e-02
C     9.174078797317645e+00   5.574880825520893e+00   3.709235700000000e+00  1.20529840e-01  -3.88693074e+00   1.04185903e+00
C     1.017328750091542e+01   4.482186666977162e+00   3.804413700000000e+00  7.87135380e-01   2.85462638e+00  -1.38228218e+00
C     1.153866420460472e+01   4.899219121994606e+00   3.772816500000000e+00 -4.67322950e-01  -8.44130470e-01   7.95743750e-01
C     3.637801231119180e+00   3.864757161223443e+00   3.789238800000000e+00  1.67744831e+00   1.71829441e+00   6.66354400e-02
C     5.025926806056578e+00   4.284364788158124e+00   3.781951500000000e+00  1.01930995e+00   1.19488598e+00   5.00590640e-01
C     6.145344811704930e+00   3.374012690299496e+00   3.794392500000000e+00 -2.54826845e+00  -8.52753160e-01   8.85638340e-01
C     7.490154437194390e+00   3.740011067594827e+00   3.877395900000000e+00  7.91876590e-01   6.26685980e-01  -1.02842475e+00
C     8.500705114224896e+00   2.762660858124665e+00   3.785459700000000e+00  1.01388320e-01  -1.94633933e+00  -4.15332390e-01
C     9.880503329267137e+00   3.126849372238541e+00   3.694099200000000e+00 -1.73642730e+00  -1.23160639e+00   2.39537839e+00
C     1.940471444095811e+00   2.070576074012766e+00   3.957541800000000e+00  1.60293480e+00   9.02539170e-01  -3.25711627e+00
C     3.321870286621374e+00   2.516586121120754e+00   3.853531199999999e+00  3.42747590e-01  -1.94460114e+00   7.13287870e-01
C     4.431355283403688e+00   1.551868470330229e+00   3.872695500000000e+00 -1.73702807e+00   1.72089412e+00  -7.00596680e-01
C     5.787531056807376e+00   2.004447411006220e+00   3.867000000000000e+00  1.01575040e-01  -2.20306833e+00  -8.49745250e-01
C     6.786871564773000e+00   9.360168413826592e-01   3.787936200000000e+00  6.38463480e-01   3.62918090e+00   3.53050080e-01
C     8.170524857157366e+00   1.325477938907039e+00   3.771025200000000e+00 -2.31061290e+00   3.10695773e+00   6.64825600e-01
C     1.611475870889253e+00   6.901261386930650e-01   3.713744700000000e+00  9.74348770e-01   1.49780850e+00   2.38521803e+00
