32
Lattice="10.02 0 0 5.01 8.67757454592007 0 0 0 30 " PBC="1 1 1" Properties=species:S:1:pos:R:3:force:R:3 Energy="-257.43161038"
C     9.819981437051838e-03   1.187299985969568e-02   2.997319346722765e+00 -3.86934480e-01  -7.10655920e-01   1.64760290e-01
C     1.257859625839052e+00   7.298184015958118e-01   3.011233570669483e+00 -6.85952100e-02  -1.59844730e-01  -1.88195860e-01
C     2.497796127843252e+00  -2.976774103993564e-03   2.998499050763491e+00  7.91859650e-01   4.25545490e-01   1.39716260e-01
C     3.765290195541335e+00   7.231707050051177e-01   3.011867607518008e+00 -4.02628220e-01  -1.53911340e-01  -2.11852170e-01
C     5.021483304258713e+00  -1.425232169001497e-02   2.990748423872438e+00 -1.70079950e-01   1.00306727e+00   2.08875330e-01
C     6.273164021072528e+00   7.154620133539504e-01   3.002396075166055e+00 -1.19979690e-01   4.33793520e-01  -1.85931520e-01
C     7.524952185980216e+00   6.165774647374488e-03   2.995047951625682e+00 -2.57181400e-01  -4.91940240e-01   1.45915020e-01
C     8.769298233168604e+00   7.219068502363276e-01   3.003378172044575e+00  4.27973830e-01   7.74047300e-02  -1.46070980e-01
C     1.261553067973377e+00   2.172052085053847e+00   2.998778114580684e+00 -7.21340440e-01  -1.74840440e-01   2.40170800e-02
C     2.496105566626716e+00   2.886546468743645e+00   2.999785977850851e+00  3.94043380e-01   5.61286220e-01   6.57335500e-02
C     3.746553474674017e+00   2.171956418156745e+00   3.006440462453485e+00  8.46240710e-01  -2.09319390e-01  -1.54587200e-02
C     5.020683695706291e+00   2.892910661570987e+00   2.998983050138897e+00 -7.12679560e-01   1.42368240e-01   2.14332500e-02
C     6.266672065606470e+00   2.176423931802236e+00   2.990290672325997e+00  1.15386400e-02  -3.64805790e-01   1.22359680e-01
C     7.511349723920645e+00   2.906017199398715e+00   2.992201887185518e+00  6.36143540e-01  -5.46730340e-01   6.63277900e-02
C     8.776450450284084e+00   2.160003661235255e+00   2.991856217022752e+00 -8.51711800e-01   5.41288750e-01   1.71407400e-02
C     1.001066486658599e+01   2.882379401541707e+00   2.987184941354641e+00  7.63163770e-01   5.52276260e-01   1.02624340e-01
C     2.499507701094049e+00   4.340928642502693e+00   3.003396114287570e+00  6.56271230e-01  -4.16765680e-01  -7.66984100e-02
C     3.767374640824376e+00   5.052668188307433e+00   2.991633105338520e+00 -6.03370400e-01   5.66143890e-01   1.23841580e-01
C     5.012612246024478e+00   4.346691678936761e+00   3.001384463530688e+00  3.72647150e-01  -5.37046280e-01  -8.53639900e-02
C     6.268591299710098e+00   5.063312911117341e+00   3.000066066157619e+00  1.34905100e-02   4.44812310e-01   1.96977800e-02
C     7.524299858797051e+00   4.349096556500250e+00   3.008028648849652e+00 -5.51540020e-01  -3.30041280e-01  -1.65197510e-01
C     8.759111409970869e+00   5.070270201319564e+00   2.999126901423062e+00  9.22311630e-01  -7.48926400e-02  -2.33990400e-02
C     1.002594378591456e+01   4.339316837224777e+00   2.993636372762502e+00 -6.08684830e-01  -2.11162270e-01   5.03281200e-02
C     1.127894989853695e+01   5.053926059708562e+00   3.006991451881875e+00 -3.07772390e-01   2.79925280e-01  -1.35274170e-01
C     3.765966239963372e+00   6.511567272498403e+00   2.995393388339021e+00 -1.84275180e-01  -5.04240120e-01   8.11439300e-02
C     5.009764198487797e+00   7.222481130057828e+00   3.004765256470534e+00  5.96337980e-01   8.75241630e-01  -1.54024020e-01
C     6.276616274865201e+00   6.517635539196164e+00   2.993643642097152e+00 -5.91888680e-01  -5.61334770e-01   8.70844100e-02
C     7.521051782098565e+00   7.236357045107291e+00   2.993903281689493e+00 -2.18477450e-01   1.07291600e-02  -1.92975500e-02
C     8.762060265895581e+00   6.512720915327030e+00   2.990836303940986e+00  4.73690580e-01   1.34562310e-01   9.18583000e-02
C     1.002323460153497e+01   7.241666006520967e+00   2.997650919006414e+00  1.08723380e-01  -1.15183789e+00  -1.02912100e-01
C     1.127893405277720e+01   6.497539410344372e+00   2.997127598635731e+00 -4.76172200e-02   6.42223050e-01   1.09965080e-01
C     1.253381035985385e+01   7.231464600598128e+00   3.004698648406214e+00 -2.09679070e-01  -9.12989900e-02  -1.33146490e-01
