32
Lattice="9.86 0 0 4.93 8.53901048131456 0 0 0 30 " PBC="1 1 1" Properties=species:S:1:pos:R:3:force:R:3 Energy="-249.7952664"
C     4.955698611000000e+00   8.484816625307422e+00  -5.501052000000008e-01 -3.24924365e+00   2.77009485e+00   9.17042680e-01
C     1.180215525900000e+00   7.581998318750856e-01  -5.800373999999984e-01  2.63387813e+00  -4.09045065e+00   4.47920010e-01
C     2.447739823500000e+00   4.356372593613040e-02  -5.724066000000008e-01 -6.96153480e-01  -3.53817215e+00   2.35786720e-01
C     3.638430169700000e+00   6.224589394391368e-01  -2.450013000000020e-01  4.03033809e+00   2.63736592e+00  -9.60042400e-01
C     9.874294584299999e+00   8.505140238760765e+00  -1.957532999999998e-01 -3.85898830e-01   1.28513817e+00   1.22789050e-01
C     6.150834387500000e+00   7.494189966182920e-01  -3.556029000000009e-01  2.98619330e-01  -5.18434177e+00   2.62763475e+00
C     1.227219610110000e+01   8.519695323684344e+00  -3.873660000000001e-02  2.30980435e+00   9.87969980e-01  -2.70261960e+00
C     8.562712552899999e+00   7.117937255204776e-01  -4.345554000000007e-01  1.90380083e+00  -2.38960210e+00   9.53493100e-02
C     1.237495963400000e+00   2.040676633739744e+00  -1.161123000000011e-01  1.49831825e+00   2.77704316e+00  -1.18111300e+00
C     2.483450278500000e+00   2.762897344957350e+00   2.765310000000000e-02  1.02116138e+00   1.96005073e+00   2.60957038e+00
C     3.829222796600000e+00   2.090699523373261e+00  -1.109106000000004e-01 -6.16203449e+00  -1.35991052e+00   6.46874140e-01
C     4.977994831800000e+00   2.791976347416256e+00  -4.002539999999755e-02  2.89570355e+00   1.39033216e+00  -1.27461086e+00
C     6.263357742799999e+00   2.085062068654365e+00  -3.886712999999986e-01 -4.22353156e+00   3.34475040e+00   9.12648660e-01
C     7.414541336799999e+00   2.820476661134933e+00  -4.534295999999998e-01  2.43791221e+00  -6.06713380e-01  -1.65829944e+00
C     8.660593512400000e+00   2.126963676200563e+00  -6.339837000000017e-01 -5.17180040e-01  -1.43707577e+00   2.65979982e+00
C     9.907673987400001e+00   2.752641907980765e+00  -2.236653000000004e-01 -2.95192783e+00   1.88500905e+00  -8.72342000e-02
C     1.228364913200000e+01   4.222006994205000e+00   6.009975000000000e-01  1.77372591e+00  -8.91811830e-01  -2.74734580e+00
C     3.817421165400000e+00   4.993650217229274e+00   5.155377000000000e-01 -2.68051751e+00  -8.12392650e-01  -2.84507936e+00
C     4.974571144000000e+00   4.265036263475188e+00   1.621740000000000e-02 -2.08845593e+00  -2.79336242e+00   6.50323770e-01
C     6.109123235100000e+00   4.815783909782446e+00  -5.319345000000020e-01  1.95982028e+00   5.39275416e+00   2.00060082e+00
C     7.398562023600000e+00   4.205176775329130e+00  -5.448371999999999e-01 -1.21017141e+00   5.44409900e-02   7.36441730e-01
C     8.596017266499999e+00   4.889883905705998e+00  -2.363555999999996e-01  1.17474040e-01   1.17582571e+00  -8.96245770e-01
C     9.724112635199999e+00   4.127080180940517e+00   7.692990000000000e-02  5.04437101e+00   1.98840101e+00   9.00765940e-01
C     1.103808882250000e+01   4.959931628816164e+00   5.179134000000000e-01 -8.71347300e-01  -1.57741865e+00  -7.37947320e-01
C     1.353786578200000e+01   6.380822033397011e+00   8.410260000000000e-02  3.49463275e+00   3.31750380e-01   1.42443501e+00
C     4.961900551000000e+00   7.131422743675630e+00  -2.943689999999997e-01 -5.14242220e-01  -3.87471796e+00  -3.75380600e-02
C     6.173127009400000e+00   6.305512572029071e+00  -4.144271999999987e-01  7.32751530e-01   1.02211073e+00  -2.08378406e+00
C     7.481481912100000e+00   7.047357807912022e+00  -6.351507000000005e-01 -2.22879059e+00   4.46971770e-01   1.62766887e+00
C     8.688375837199999e+00   6.317613374560488e+00  -3.392184000000000e-01  7.71249990e-01   2.17323389e+00   1.53775496e+00
C     1.000006519470000e+01   7.146759745788863e+00   1.035378000000000e-01 -6.19851205e+00  -1.80682767e+00  -2.29045124e+00
C     1.106826249310000e+01   6.429211324935599e+00   4.967592000000000e-01  3.38182395e+00  -2.20409722e+00  -7.35751240e-01
C     1.236702997550000e+01   7.103121815851662e+00   2.621685000000000e-01 -2.32737869e+00   9.43651710e-01   8.46557300e-02
