32
Lattice="9.64 0 0 4.82 8.34848489248199 0 0 0 30 " PBC="1 1 1" Properties=species:S:1:pos:R:3:force:R:3 Energy="-256.91118654"
C     1.502448064352891e-03  -2.574105475932394e-03   2.999818225995248e+00  2.87748200e-02   1.94222520e-01   2.13213600e-02
C     1.205368155830215e+00   6.991866843858352e-01   3.002448435774467e+00 -4.94725300e-02  -2.51217890e-01  -3.37728400e-02
C     2.407415983932627e+00  -2.193458347142923e-03   2.999166277464056e+00  1.86161840e-01   2.02819500e-01   1.19982400e-02
C     3.615714679378637e+00   6.934823689523654e-01   2.999562319614928e+00 -1.29849030e-01   8.33368000e-03  -3.95910000e-04
C     4.822905787419065e+00   2.456275337596209e-03   3.000248216063531e+00 -1.27740390e-01  -2.18423210e-01  -2.64923300e-02
C     6.027337217823218e+00   6.942731117811515e-01   2.996491752492336e+00 -2.37453800e-02   9.55853200e-02   4.60113400e-02
C     7.230503546858666e+00   1.355314069185930e-03   3.003082105812055e+00  1.40221570e-01  -3.30031000e-02  -5.15791000e-02
C     8.437798713138177e+00   6.971397805997689e-01   3.001279434201146e+00 -9.60668600e-02  -1.79628480e-01   2.03813000e-03
C     1.206103083726302e+00   2.087720886064635e+00   3.001126932880977e+00  8.23316700e-02   1.30525560e-01  -9.36976000e-03
C     2.414547619307397e+00   2.783024399838607e+00   2.996234562943154e+00 -3.24207570e-01   9.44239600e-02   6.12882900e-02
C     3.611971179191924e+00   2.084395522342384e+00   2.999495449640939e+00  3.40663390e-01   4.75467300e-02  -1.97885800e-02
C     4.822917202049362e+00   2.778498061554908e+00   2.999823813411685e+00 -2.13776000e-01   1.15743330e-01  -6.63947000e-03
C     6.026063180549951e+00   2.085453955563118e+00   2.997180295474143e+00  5.47446000e-03  -7.89211400e-02   2.91127100e-02
C     7.229305793281169e+00   2.779247782139801e+00   3.002954248351045e+00  3.22393000e-03   3.00761710e-01  -4.32992200e-02
C     8.433508772286539e+00   2.085937391332922e+00   3.001075197995767e+00  2.56163610e-01   1.35785580e-01   2.88479700e-02
C     9.642169831351927e+00   2.784634810291256e+00   3.002754986256455e+00 -1.77186750e-01  -1.62167090e-01   6.62850000e-04
C     2.407573605704720e+00   4.177716332110262e+00   3.001165909167875e+00  3.08157440e-01  -2.84395520e-01  -5.79937900e-02
C     3.613535889844100e+00   4.871169532608527e+00   3.000156113846004e+00  1.86391550e-01  -9.26793100e-02   3.45690100e-02
C     4.822581009109178e+00   4.170805096287916e+00   3.001705486809778e+00 -2.18341280e-01   1.23443340e-01  -2.93292400e-02
C     6.025121103748162e+00   4.871813589485487e+00   2.998292898571708e+00 -4.62261800e-02  -1.56578410e-01   3.13717800e-02
C     7.226936278813968e+00   4.175313930914093e+00   3.000050159695407e+00  3.22826890e-01  -1.36301650e-01   8.29240000e-04
C     8.438831000080935e+00   4.870438383100855e+00   2.998433897727814e+00 -3.58271170e-01  -1.36783500e-01   2.70295800e-02
C     9.640626033748417e+00   4.173319525969740e+00   3.003446280163443e+00  1.12440770e-01   1.03526240e-01  -5.75846500e-02
C     1.084780324708551e+01   4.868843883300923e+00   2.997161238679727e+00 -2.36434120e-01   1.38544220e-01   6.55030300e-02
C     3.615427606760795e+00   6.262544613461171e+00   3.002561056309754e+00  8.83997000e-02  -5.20409200e-02  -3.32426500e-02
C     4.823211582772550e+00   6.955370177907844e+00   2.999446488196529e+00 -1.81644810e-01   7.22398000e-02   2.36267600e-02
C     6.024650667010648e+00   6.261111194544169e+00   3.000095289324554e+00  8.59608300e-02   3.04805600e-02  -3.00124600e-02
C     7.228904694421569e+00   6.958203024860943e+00   2.997931542528844e+00 -5.63518200e-02  -1.59861180e-01   3.81020000e-03
C     8.431394443479972e+00   6.259650321697321e+00   2.997396706139915e+00  3.03300310e-01   1.96292860e-01   3.72643000e-03
C     9.639793230897775e+00   6.958056579920628e+00   2.999557506839081e+00  6.10793300e-02  -1.07640930e-01   2.18149000e-03
C     1.084946183372089e+01   6.260866858752211e+00   3.000300087500992e+00 -2.70068160e-01   7.51800500e-02  -2.49938400e-02
C     1.205187263905338e+01   6.958745949385142e+00   3.000708656756011e+00 -2.19007000e-03  -1.58126400e-02   3.05654300e-02
