32
Lattice="9.86 0 0 4.93 8.53901048131456 0 0 0 30 " PBC="1 1 1" Properties=species:S:1:pos:R:3:force:R:3 Energy="-252.76511916"
C     1.140995009500000e+00   9.752829965830953e-01   3.986150100000000e+00  4.14332723e+00  -4.85111100e+00   2.98929480e-01
C     2.437624498800000e+00   1.550853887916133e+00   3.918173400000000e+00 -1.06367589e+00   4.04608962e+00  -1.10336124e+00
C     3.674564752600000e+00   9.209029060719487e-01   3.964525500000000e+00 -1.30112184e+00  -2.53749231e+00  -2.30106820e-01
C     4.882289629200000e+00   1.590671976905211e+00   3.844608600000000e+00  1.76545670e-01   2.27692888e+00   7.41110910e-01
C     6.034459026000000e+00   8.546704128442481e-01   4.081796100000000e+00  4.05079040e+00  -1.07629043e+00  -4.81491760e-01
C     7.309481015499999e+00   1.518368503396545e+00   4.073094299999999e+00  8.81925860e-01   2.63174366e+00  -1.61271349e+00
C     8.590062911100000e+00   8.790908727456856e-01   3.906340500000000e+00 -9.70380820e-01   2.74492218e+00  -4.36024700e-02
C     9.887852626599999e+00   1.667713491158915e+00   3.734464200000000e+00 -5.55450321e+00  -2.31442084e+00   1.57978929e+00
C     2.417926141500000e+00   3.013013671707240e+00   3.630471000000000e+00 -7.19949270e-01  -2.54992770e-01   8.37661500e-01
C     3.618661066900000e+00   3.770228187163037e+00   3.501006000000000e+00  2.55038433e+00  -2.26574471e+00   2.02789006e+00
C     4.948862623700000e+00   3.075026869076563e+00   3.779510700000000e+00 -3.54805499e+00  -2.69413203e+00  -1.85662100e-01
C     6.141966599300000e+00   3.659822368041039e+00   4.147764000000000e+00 -5.82628760e-01   2.73335519e+00  -1.80504077e+00
C     7.340566144499999e+00   2.962000939978881e+00   3.935667300000000e+00  1.74383028e+00   5.34585090e-01   1.89843108e+00
C     8.602089498200000e+00   3.766391524364269e+00   3.877684200000000e+00 -2.45259618e+00  -1.08584280e-01   2.38332940e-01
C     9.800749583799998e+00   3.027821255170712e+00   3.791273400000000e+00 -6.40190400e-02   2.58361714e+00  -4.08856380e-01
C     1.099939271020000e+01   3.765574511841542e+00   3.745692300000000e+00  2.33182142e+00  -3.01945202e+00  -1.38613798e+00
C     3.624051923300000e+00   5.141618716502268e+00   3.671463900000000e+00  3.14959940e+00   2.43733921e+00   5.67311960e-01
C     4.967826411000000e+00   5.951610720982326e+00   3.884396699999999e+00 -3.68682951e+00  -3.98664461e+00   1.47798200e-01
C     6.124863443300000e+00   5.116694540372615e+00   4.205654700000000e+00 -2.22087536e+00   1.39213517e+00  -1.48732239e+00
C     7.259969814300000e+00   5.874276404059263e+00   4.168685400000000e+00  5.11592096e+00   7.44128080e-01  -5.35888690e-01
C     8.550654561700000e+00   5.265414899518373e+00   3.973913700000000e+00  2.93037240e-01  -4.20552827e+00   2.15348180e-01
C     9.820821980200000e+00   5.897737591523377e+00   3.923370300000000e+00 -7.90721150e-01  -6.55159920e-01  -3.47084660e-01
C     1.100279938950000e+01   5.116761827775198e+00   3.649283700000000e+00  1.37077233e+00   3.74456611e+00   2.46236451e+00
C     1.230564728500000e+01   5.838878192284737e+00   3.843350700000000e+00 -2.38115557e+00  -1.47236693e+00  -1.55411945e+00
C     4.851956078699999e+00   7.360929400121096e+00   3.854501400000000e+00  8.44263280e-01  -1.06091473e+00   1.63734158e+00
C     6.079860382000000e+00   7.994893802280986e+00   4.138244400000000e+00  1.34617816e+00   3.03211185e+00  -2.08062774e+00
C     7.403342841799999e+00   7.288613801217549e+00   4.071151800000000e+00 -4.82536029e+00   9.65398560e-01   1.24630424e+00
C     8.591704650400001e+00   8.009409778536567e+00   4.067608200000000e+00  2.05280637e+00   3.35141060e-01   2.98989930e-01
C     9.862183891400001e+00   7.291870067473992e+00   4.114774800000000e+00 -1.69649156e+00  -1.46024600e-01  -1.06444059e+00
C     1.109029559980000e+01   7.942046549541104e+00   4.071842699999999e+00 -2.35000240e+00   1.51538863e+00   6.28835260e-01
C     1.227443461690000e+01   7.206914512917320e+00   4.001908500000000e+00  5.28013440e-01   3.69038579e+00  -1.97097800e-01
C     1.341385385050000e+01   8.077620675102379e+00   3.910400400000000e+00  3.62914946e+00  -4.75897676e+00  -3.02884770e-01
