32
Lattice="9.992 0 0 4.996 8.65332583461411 0 0 0 30 " PBC="1 1 1" Properties=species:S:1:pos:R:3:force:R:3 Energy="-257.70818148"
C    -1.862180794422610e-03  -1.453219345533238e-03   3.000316257202708e+00 -2.45170600e-02   1.40638150e-01  -3.38663700e-02
C     1.246568154832804e+00   7.193039295771498e-01   3.001113542167084e+00  1.26854310e-01   1.00119030e-01  -3.13538300e-02
C     2.499196954467042e+00  -2.736408414965965e-03   2.999226270505716e+00 -1.44140610e-01   6.69135200e-02  -2.00047200e-02
C     3.745260572333719e+00   7.203278062267462e-01   2.996246692708120e+00  1.13198910e-01  -7.41020000e-02   8.80169800e-02
C     4.998303935691323e+00  -4.023205718753074e-04   3.002154957628649e+00 -8.34956800e-02   1.12582810e-01  -8.05109000e-02
C     6.248021171495648e+00   7.232848949411088e-01   2.995932267131253e+00 -3.96336200e-02  -1.87530830e-01   7.60275600e-02
C     7.497170113940171e+00  -7.452480568975297e-04   3.001612008482372e+00 -2.29754510e-01   6.66844600e-02  -6.34041500e-02
C     8.739198458813066e+00   7.210026925092935e-01   2.996243186278611e+00  2.10536000e-01   7.18535200e-02   5.85628200e-02
C     1.252218226920002e+00   2.167021273062134e+00   2.997940659345087e+00 -1.72776850e-01  -2.52358000e-01   3.91996900e-02
C     2.500223970735158e+00   2.882224663379090e+00   2.998281786892290e+00 -6.45089300e-02   7.58208600e-02   3.34828600e-02
C     3.743191972077875e+00   2.160371888332474e+00   3.003360443976495e+00  2.27703500e-01   2.90349000e-02  -7.15164300e-02
C     4.994608050859098e+00   2.881450260912089e+00   3.001128703398062e+00  6.66949200e-02  -3.26118500e-02  -7.77800000e-03
C     6.247125095752850e+00   2.160384833687465e+00   2.998099411400481e+00 -1.02584550e-01   2.05037520e-01  -1.47350700e-02
C     7.493888505413624e+00   2.887994574089199e+00   2.997138187689255e+00 -3.49565000e-02  -1.46012140e-01   9.05579000e-03
C     8.739947613800597e+00   2.164969769885432e+00   2.998319943075766e+00  1.72362740e-01  -1.29723000e-03   4.27109000e-03
C     9.994319532173080e+00   2.887304807984317e+00   3.002699464783911e+00 -1.32641160e-01  -1.57188220e-01  -4.93576900e-02
C     2.500529229295846e+00   4.323085056231128e+00   2.999909615929654e+00 -2.42106900e-02   1.63479880e-01   6.71330000e-04
C     3.748318594432374e+00   5.050095999694675e+00   3.004214746163653e+00  6.74324900e-02  -2.53003650e-01  -8.73508600e-02
C     4.999497765063568e+00   4.322940958067317e+00   2.998824284338937e+00 -1.67689560e-01   1.15153320e-01   5.84726900e-02
C     6.245732011139295e+00   5.047338943166036e+00   3.000557410702417e+00 -1.04357610e-01   5.21174600e-02  -5.90466500e-02
C     7.492202516474070e+00   4.328337813298417e+00   2.998063146029763e+00  3.92440700e-02  -1.81557700e-02   3.44046800e-02
C     8.738795874289890e+00   5.046827542797113e+00   3.002121744301988e+00  2.26955360e-01   5.13097900e-02  -6.92585000e-03
C     9.990578257865620e+00   4.325664576835446e+00   3.002364727810017e+00  4.98579800e-02   1.07586090e-01  -2.71029200e-02
C     1.124336835903843e+01   5.044714881053273e+00   2.996961901264437e+00 -5.44749100e-02   1.16107810e-01   6.31777900e-02
C     3.748664069853672e+00   6.487778462832281e+00   2.996954382773601e+00 -2.25913240e-01   1.69203070e-01   6.16981000e-02
C     4.993156013064689e+00   7.212059069620204e+00   2.996469668457184e+00  9.01754600e-02  -7.65723300e-02   5.68926000e-03
C     6.241620991793744e+00   6.490863313837131e+00   2.995142890894126e+00  1.37707030e-01  -4.23421900e-02   4.81001900e-02
C     7.494681316413858e+00   7.209578548301770e+00   2.997988498678092e+00 -5.01837200e-02  -2.07072200e-02   1.55238300e-02
C     8.745011969708283e+00   6.488923794954033e+00   3.003238069738829e+00 -1.20723710e-01   2.62548500e-02  -4.84841700e-02
C     9.991910029141884e+00   7.213124654528653e+00   2.999780742960349e+00  9.66185900e-02  -1.25287450e-01   5.42004600e-02
C     1.124385940112884e+01   6.491436765938170e+00   3.001525992881899e+00 -1.82738770e-01  -1.28552260e-01  -2.81858000e-02
C     1.248586780713687e+01   7.213066293204823e+00   3.001813087046977e+00  3.33960340e-01  -1.54175920e-01  -2.09317400e-02
