32
Lattice="9.86 0 0 4.93 8.53901048131456 0 0 0 30 " PBC="1 1 1" Properties=species:S:1:pos:R:3:force:R:3 Energy="-251.13437131"
C     5.002225880399999e+00   8.445460326005103e+00  -1.842845999999980e-01 -3.56244690e+00   7.64164139e+00  -2.07028200e-02
C     1.247851132600000e+00   6.498087922758432e-01  -2.439086999999986e-01  1.60109461e+00   4.60449780e-01   5.08945860e-01
C     7.435343028100000e+00   8.509103705865163e+00  -1.330578000000031e-01 -4.34162270e-01  -2.18983471e+00  -9.47379150e-01
C     3.710942877500000e+00   6.154176713973288e-01  -1.286240999999997e-01  2.08725403e+00   4.18386762e+00   9.24254280e-01
C     9.937167219399999e+00   8.476227405445799e+00  -8.164800000000128e-02 -3.36873880e+00   2.69403200e+00  -2.36152210e-01
C     6.193169727200000e+00   8.286940598432496e-01  -1.241325000000018e-01 -1.24123590e+00  -1.24242771e+01   5.46906480e-01
C     7.368582151300000e+00   3.806238304428560e-02  -1.117743000000004e-01  2.73870654e+00  -8.35615090e-01   9.08406850e-01
C     8.626617382099999e+00   7.320899287501800e-01  -9.948240000000297e-02  4.51889270e-01  -1.70218491e+00  -4.70427430e-01
C     1.219932246800000e+00   2.089177188584886e+00  -2.220846000000023e-01  5.21700330e-01  -3.63013480e-01   1.70294943e+00
C     2.371020741100000e+00   2.898595200780479e+00   3.704040000000000e-02  3.14192259e+00  -9.34819153e+00  -1.27965745e+00
C     3.662408900900000e+00   2.174511533646452e+00   3.792810000000000e-02 -3.97039430e-01  -2.61901773e+00  -1.35040854e+00
C     4.852492857100000e+00   2.878188673535375e+00  -4.877400000001586e-03  1.54333322e+00   1.35959220e-01  -2.60095030e-01
C     6.141622337399999e+00   2.073808165182354e+00  -2.074616999999996e-01 -3.68812093e+00   1.05643601e+01   5.88434700e-01
C     7.286097286000000e+00   2.822989179578568e+00  -2.557463999999996e-01  5.78038174e+00   1.76708428e+00   9.78404410e-01
C     8.572106125600000e+00   2.140702602502464e+00  -6.603150000000113e-02  1.36103123e+00  -7.03838700e-01  -1.71067920e+00
C     9.908926453899999e+00   2.771120241269380e+00  -8.271660000000125e-02 -4.34419757e+00   2.77079780e+00   1.70068520e-01
C     2.501773954600000e+00   4.145386623948170e+00   2.100477000000000e-01 -1.14264643e+00   1.09355621e+01   9.08755030e-01
C     3.714639243600000e+00   5.024470750875576e+00   5.435460000000000e-02 -2.74665884e+00  -1.89294641e+00   1.55395608e+00
C     4.884443151799999e+00   4.382486595462976e+00   6.948510000000001e-02  4.31524026e+00  -5.22908721e+00  -9.10290530e-01
C     6.186851784300000e+00   4.974845522960113e+00  -2.325599999999994e-02  6.34854450e-01   2.07418451e+00  -2.18569811e+00
C     7.487410039899999e+00   4.260593843272967e+00  -2.592740999999990e-01 -4.21334779e+00  -2.26788350e-01   8.22331090e-01
C     8.738546524499998e+00   4.997466386402890e+00  -2.415765000000007e-01 -2.39409734e+00  -7.23266480e+00   1.07950622e+00
C     9.887218234199999e+00   4.241454249012780e+00   6.976050000000000e-02  2.80658819e+00  -4.45342250e-01  -2.81160770e-01
C     1.114330310770000e+01   4.933025206793684e+00   3.580248000000000e-01 -1.80981654e+00   1.18106316e+00  -2.07665871e+00
C     3.696692712500000e+00   6.396895781334458e+00   5.007329999999999e-02 -4.32123300e-01   2.41579854e+00  -7.32982540e-01
C     4.906671535800000e+00   7.150469860452318e+00  -2.083514999999991e-01  6.81746620e-01  -6.00955826e+00   1.00802056e+00
C     6.139827127200000e+00   6.442667695380717e+00  -2.212973999999974e-01  2.19667961e+00  -2.80056941e+00   9.69765830e-01
C     7.470586612100000e+00   7.040266842829221e+00  -1.809402000000020e-01 -5.53471836e+00   2.50716027e+00  -4.81428830e-01
C     8.581093318399999e+00   6.280896824957956e+00  -1.440192000000025e-01  4.22770575e+00   6.68161591e+00   6.13091130e-01
C     9.815144887999999e+00   7.078792040241522e+00  -4.220700000001187e-03  2.28214008e+00  -4.80861070e-01   5.36021980e-01
C     1.106898671010000e+01   6.445145118491279e+00   2.452863000000000e-01  1.49453599e+00  -3.24392338e+00  -3.93179440e-01
C     1.234928828590000e+01   7.116908048271622e+00   1.154094000000000e-01 -2.55745412e+00   1.73413775e+00  -4.82917690e-01
