32
Lattice="9.86 0 0 4.93 8.53901048131456 0 0 0 30 " PBC="1 1 1" Properties=species:S:1:pos:R:3:force:R:3 Energy="-256.72670589"
C     1.250387371100000e+00   5.123760656934920e-01   3.360207900000000e+00 -8.31995290e-01  -1.59586613e+00   3.10694870e-01
C     2.486608880200000e+00   1.164822131356083e+00   3.427344900000000e+00  7.46620950e-01   1.09056798e+00  -5.13315300e-01
C     3.717087974600000e+00   4.812453097964512e-01   3.347469000000000e+00  1.26201342e+00  -1.80285210e-01   4.42714730e-01
C     4.962503983000000e+00   1.228817062277605e+00   3.369505200000000e+00 -1.47773005e+00   4.09601600e-02  -5.05183300e-02
C     6.168440157000000e+00   4.987895607286592e-01   3.372758700000000e+00  1.90071990e-01   1.02722780e-01  -1.55277170e-01
C     7.394526867900000e+00   1.214248571107572e+00   3.355373100000000e+00  4.75166510e-01  -1.06524593e+00  -5.01129010e-01
C     8.624407558900002e+00   4.252901134121640e-01   3.360018300000000e+00  3.64207710e-01   7.58274150e-01  -2.47001340e-01
C     9.855779328399999e+00   1.160948494641936e+00   3.341179800000000e+00 -2.87859800e-01   1.11173797e+00   2.61415580e-01
C     2.526712951200000e+00   2.594875833473123e+00   3.465864900000000e+00 -3.04732860e+00  -7.83785080e-01  -9.98497600e-02
C     3.655155096100000e+00   3.355287781403157e+00   3.482518500000000e+00  3.49716763e+00   6.30807500e-01  -4.29044900e-02
C     4.929788256500000e+00   2.669668086976290e+00   3.380660700000000e+00 -1.75893730e-01  -9.89886580e-01  -6.39435100e-02
C     6.155591590999999e+00   3.362346895976869e+00   3.276560400000000e+00 -2.07758950e-01   4.49834030e-01   2.72368760e-01
C     7.386167658500000e+00   2.647846987255070e+00   3.245273400000000e+00 -1.94088570e-01  -1.55213094e+00   9.88565200e-01
C     8.618805599900000e+00   3.299494057707047e+00   3.360950100000000e+00  7.02470540e-01   1.06928924e+00  -5.54082670e-01
C     9.858731313800000e+00   2.603419113458363e+00   3.369651300000000e+00  6.00091070e-01  -9.73132140e-01   1.10735500e-02
C     1.113904713730000e+01   3.273534953507218e+00   3.411063600000000e+00 -1.57668551e+00   1.72386053e+00   1.18719980e-01
C     3.676805585499999e+00   4.779402430951148e+00   3.526216200000000e+00  5.74575570e-01   1.34402590e-01  -8.97895590e-01
C     4.957789769100000e+00   5.476390451590459e+00   3.358296600000000e+00 -2.61748773e+00  -1.20414395e+00   3.82229220e-01
C     6.125958347000000e+00   4.797413168025878e+00   3.294973800000000e+00  3.36422600e+00  -1.81640490e+00   2.05986010e-01
C     7.403579432500000e+00   5.490742137284403e+00   3.338316900000000e+00 -7.78114480e-01  -1.31744453e+00  -2.60017550e-01
C     8.611401084999999e+00   4.714932816437043e+00   3.380080500000000e+00 -9.35508600e-02   1.37198156e+00  -1.81233270e-01
C     9.831631448900000e+00   5.437337457940388e+00   3.407431800000000e+00  1.79966794e+00  -1.09122174e+00  -4.57033200e-02
C     1.109096174140000e+01   4.733796515268621e+00   3.398797200000000e+00  1.30085210e-01  -8.09266540e-01   9.01603170e-01
C     1.230887949160000e+01   5.491213063712376e+00   3.509949900000000e+00 -4.64928520e-01  -1.28307688e+00  -9.89819950e-01
C     4.990491346500000e+00   6.846122363534054e+00   3.296439900000000e+00 -2.00521781e+00   2.40482932e+00   8.49348560e-01
C     6.151638717000000e+00   7.627578361231629e+00   3.382663200000000e+00  2.47099683e+00  -1.01553295e+00  -1.05269135e+00
C     7.418893442200000e+00   6.891717520063375e+00   3.332172300000000e+00  4.27177110e-01   1.46301715e+00   3.54983660e-01
C     8.699630879299999e+00   7.599179576347559e+00   3.328461300000000e+00 -1.28280424e+00  -8.66707540e-01   6.03961540e-01
C     9.929626143499998e+00   6.836319237942595e+00   3.424294200000000e+00 -2.50108777e+00   2.03815239e+00  -6.75990300e-01
C     1.111028739070000e+01   7.605832148632317e+00   3.390252300000000e+00 -5.67407600e-02   1.00424560e-01  -5.10350600e-02
C     1.230546753720000e+01   6.892859014984342e+00   3.357712500000000e+00  1.86815649e+00  -4.83727140e-01   8.15136470e-01
C     1.358855106270000e+01   7.513352444991193e+00   3.342018000000000e+00 -8.73422290e-01   2.53699627e+00  -1.36393340e-01
