26
Lattice="8.88768389401873 1.33226762955019e-15 0 4.44384194700937 7.69696003302603 0 0 0 30 " PBC="1 1 1" Properties=species:S:1:pos:R:3:force:R:3 Energy="-207.90911373"
C     4.344204081082728e+00   7.516945837906369e+00  -3.152219999999986e-01 -2.50118748e+00  -4.66115320e-01  -1.89788620e-01
C     9.429625751187579e+00   7.296898756091903e+00  -2.555325000000011e-01 -4.90813820e-01   6.02142470e-01  -1.08028080e+00
C     1.077816775902657e+01   6.893086907500389e+00  -4.908650999999971e-01  9.15722930e-01   1.50941513e+00   1.01981184e+00
C     1.112713128982849e+01   5.502172801080704e+00  -4.401563999999993e-01 -1.55154370e+00   1.45875343e+00   2.70641280e-01
C     7.046372385218101e+00   6.726683095888607e+00  -4.124969999999806e-02 -3.68221340e-01  -2.34932330e+00  -1.48376610e+00
C     8.367577388298507e+00   6.293304760794653e+00  -2.815289999999990e-01  2.09222739e+00   2.02163059e+00   1.30325995e+00
C     8.760443011292843e+00   4.943578549917903e+00  -3.054792000000006e-01 -2.78453067e+00  -9.60675720e-01   7.38911200e-02
C     1.007153609648799e+01   4.544334462256192e+00  -2.987894999999980e-01  2.98018281e+00  -1.65044714e+00  -3.36970200e-02
C     1.048916929477205e+01   3.137557613941079e+00  -1.403790000000029e-01 -2.10810349e+00   1.71081153e+00  -8.06140620e-01
C     4.643195453824562e+00   6.141952123612735e+00  -3.519171000000014e-01  3.44335640e-01  -1.20338511e+00   7.68124180e-01
C     6.027354499327121e+00   5.710043907884510e+00  -1.920693000000000e-01 -1.59002753e+00   2.28594614e+00  -2.67176180e-01
C     6.343758666808973e+00   4.372472736287136e+00  -3.087068999999971e-01 -4.61053610e-01  -1.76703130e+00   3.62015930e-01
C     7.689739333022615e+00   3.960826767837887e+00  -2.832003000000007e-01  1.02818177e+00  -3.89481420e-01  -2.55914640e-01
C     8.011609692693536e+00   2.571228302796129e+00  -3.098291999999994e-01  2.20446876e+00   6.08252560e-01   2.43073980e-01
C     9.415978398175483e+00   2.170624008357917e+00  -1.905618000000011e-01  2.53196800e-02   1.23161180e-01   4.73870780e-01
C     3.574144929211017e+00   5.181866426398663e+00  -3.740676000000001e-01  2.86293922e+00  -2.52084475e+00  -3.10274340e-01
C     3.964898394055631e+00   3.719356968080724e+00  -3.102890999999985e-01 -1.97530970e-01   4.18401345e+00   2.72319790e-01
C     5.292992863106138e+00   3.361548156257313e+00  -3.069156000000000e-01  2.42763627e+00  -1.02399310e-01  -2.92542490e-01
C     5.647157955343781e+00   1.971677372769694e+00  -3.099536999999977e-01  1.11998561e+00   1.15003877e+00  -3.02690400e-02
C     7.042129534889790e+00   1.562818550516908e+00  -3.879027000000015e-01 -1.48711718e+00   1.49106475e+00   2.93328760e-01
C     7.413539222469597e+00   2.407960078761368e-01  -4.441101000000032e-01 -1.21940341e+00  -3.31796267e+00   2.16856800e-02
C     2.979653573700563e+00   2.809198525736452e+00  -1.462976999999981e-01 -3.01238251e+00  -3.92467736e+00   2.41143900e-01
C     3.247543252071909e+00   1.356366455264232e+00  -6.502140000000267e-02  2.38880511e+00   2.82286430e+00  -3.96570760e-01
C     4.640104180739906e+00   1.042784991530003e+00  -1.844009999999976e-01 -8.46219410e-01  -3.67413890e+00  -5.17632900e-02
C     8.396217639557744e-01   7.821380619188947e-01  -9.145230000000026e-02  3.50317275e+00   1.14145507e+00  -5.08207690e-01
C     2.285929716612350e+00   3.754969647595530e-01  -3.296339999999987e-02 -3.27484283e+00   1.21693293e+00   3.63224380e-01
