32
Lattice="9.652 0 0 4.826 8.3588771973274 0 0 0 30 " PBC="1 1 1" Properties=species:S:1:pos:R:3:force:R:3 Energy="-257.04709294"
C     9.010851489366527e-04   1.130588619386909e-03   3.000890866425536e+00 -3.50391300e-02  -1.18926600e-01  -2.26563600e-02
C     1.206574454783724e+00   6.959281732326925e-01   2.998821005314722e+00  2.34588700e-02   6.10539600e-02   1.99103600e-02
C     2.412832221258540e+00  -2.356261682298387e-04   3.000054713981974e+00  2.53576300e-02  -4.40292000e-03  -7.80311000e-03
C     3.619447859403271e+00   6.967066749486166e-01   3.000104690460330e+00 -7.20373000e-03  -2.40536000e-02  -1.45210000e-03
C     4.826629541023929e+00   5.124598472600861e-04   3.000288792897897e+00 -5.70793400e-02  -4.29445000e-03   6.80261000e-03
C     6.032321659442160e+00   6.960641378198910e-01   3.001143412697016e+00  2.83981500e-02   2.72948200e-02  -1.63709500e-02
C     7.238598896771816e+00  -6.785330402417551e-04   2.998952295639731e+00  6.50958100e-02   5.98404200e-02   1.50412800e-02
C     8.446665166628833e+00   6.956751156125714e-01   2.999570801604002e+00 -7.57703600e-02   3.40677000e-02   4.50066000e-03
C     1.205464685084382e+00   2.089055169194580e+00   2.999743341049759e+00  1.05690310e-01   4.38062400e-02   6.26510000e-03
C     2.413955897896777e+00   2.785919497978884e+00   3.001169700392170e+00 -1.39844800e-01  -3.16560000e-04  -2.42140200e-02
C     3.618362830434148e+00   2.089361414600470e+00   2.999712753799649e+00  1.26479020e-01   4.00158100e-02   7.25272000e-03
C     4.826637418396985e+00   2.787351232951952e+00   2.999564911478875e+00 -6.29147900e-02  -1.25997010e-01   1.07440500e-02
C     6.032337064425823e+00   2.089164661006310e+00   3.000726447853705e+00  2.20838900e-02   2.65683300e-02  -3.44886000e-03
C     7.239333570239175e+00   2.785251648401168e+00   3.000250094121478e+00 -3.63491000e-03   3.31909300e-02  -6.43870000e-04
C     8.446213221409488e+00   2.088590035013306e+00   2.999892495594742e+00 -6.60071000e-03   5.75751300e-02   9.24740000e-04
C     9.652700186342248e+00   2.787471382507342e+00   3.000202606443468e+00 -5.20551700e-02  -1.03020000e-01  -9.03776000e-03
C     2.411887395374211e+00   4.179309317139541e+00   2.999247560279403e+00  9.16595900e-02  -3.51622000e-03   1.57218400e-02
C     3.619806585275862e+00   4.875324760291112e+00   2.999157790869778e+00 -4.88522600e-02   1.62520100e-02   1.50928500e-02
C     4.826087216212017e+00   4.178474331998164e+00   3.000557785296369e+00  5.25308800e-02   1.13238180e-01  -1.71813900e-02
C     6.033560877958172e+00   4.877081425220094e+00   2.999697744012608e+00 -6.60029700e-02  -6.84375400e-02   1.58819900e-02
C     7.239231045343293e+00   4.179829462948418e+00   3.000025530638526e+00 -1.44022700e-02  -7.45332300e-02  -9.13155000e-03
C     8.445429763799508e+00   4.874826607266101e+00   2.998957334021803e+00  2.12882000e-02   1.04465230e-01   1.35207800e-02
C     9.651842711559089e+00   4.179273292795014e+00   2.999242037333159e+00  2.84703200e-02   3.56474800e-02   1.09814100e-02
C     1.085857167892920e+01   4.876250793569329e+00   3.000533090738117e+00 -4.60510000e-02   9.22920000e-03  -1.40368300e-02
C     3.619032833202070e+00   6.268927204252051e+00   3.000778873980661e+00  7.19279800e-02   7.63933000e-03  -1.95473000e-02
C     4.826210245537530e+00   6.966229319779071e+00   3.000025534961244e+00 -1.20252400e-02  -1.46101500e-02   1.71325800e-02
C     6.033296438787976e+00   6.269690394037251e+00   3.000883789440794e+00 -8.25465200e-02  -1.94353000e-02  -1.67040400e-02
C     7.238284327780202e+00   6.965244862368981e+00   2.999941615105240e+00  8.71755100e-02   4.53561400e-02   1.28019200e-02
C     8.445484567653484e+00   6.269417720498971e+00   3.000769591547380e+00 -1.92209000e-03  -3.83224800e-02  -1.42024200e-02
C     9.652066897622108e+00   6.966790797353060e+00   3.000539024180364e+00 -2.60883500e-02  -5.02312700e-02  -1.39530000e-03
C     1.085772484067881e+01   6.269446795425796e+00   3.000150289805499e+00  6.81528600e-02   1.52006400e-02   9.43430000e-04
C     1.206563559533512e+01   6.966470935379704e+00   2.999514082613760e+00 -7.97353800e-02  -8.03442100e-02   4.30753000e-03
