32
Lattice="9.86 0 0 4.93 8.53901048131456 0 0 0 30 " PBC="1 1 1" Properties=species:S:1:pos:R:3:force:R:3 Energy="-251.93718286"
C     5.171392618600001e+00   8.024010461776109e+00  -4.127460000000021e-01  7.42860110e-01   5.19403340e-01   5.16469880e-01
C     1.484957313400000e+00   1.814500447551792e-01  -4.830626999999978e-01  1.37807087e+00   3.26345364e+00   9.41196000e-03
C     7.691834166099999e+00   8.118405892418421e+00  -7.135493999999980e-01 -1.78030244e+00  -3.37427247e+00   1.77936743e+00
C     4.026846382200000e+00   2.481057313422688e-01  -4.964061000000015e-01 -1.10056798e+00  -8.56294640e-01  -7.01523970e-01
C     1.015795712150000e+01   8.055281086664811e+00  -4.827288000000003e-01  2.56267395e+00  -1.39152725e+00   5.35920130e-01
C     6.565518675299999e+00   1.547556463629176e-01  -4.967432999999986e-01 -4.52373357e+00   2.24467156e+00   2.76586500e-02
C     1.267745339080000e+01   7.975500855579858e+00  -3.555881999999997e-01 -1.42556489e+00   2.58976340e+00   5.30568020e-01
C     8.893337530600000e+00   2.704755478769344e-01  -3.605574000000011e-01  3.51330701e+00  -2.67603009e+00  -1.25672610e-01
C     1.549163267000000e+00   1.706170803437901e+00  -1.527422999999999e-01 -1.95225277e+00  -2.47755131e+00   1.34852069e+00
C     2.750363535100000e+00   2.248096285677642e+00   3.174522000000000e-01  1.63986696e+00   2.61759294e+00  -2.42065198e+00
C     4.041413496900001e+00   1.608670076244431e+00  -1.634075999999993e-01 -2.60996375e+00   1.35666273e+00   1.66490964e+00
C     5.216467411399999e+00   2.355905135542359e+00  -1.521752999999997e-01  2.63509620e+00  -1.92031471e+00  -1.17704701e+00
C     6.492626406799999e+00   1.660101134096205e+00  -5.070125999999995e-01 -5.47977460e-01  -2.50439819e+00   1.02001116e+00
C     7.724175015400000e+00   2.298980163737857e+00  -4.332095999999979e-01  1.29768897e+00   2.88203885e+00   5.67697350e-01
C     9.043826667999999e+00   1.671060954047285e+00  -3.159528000000016e-01 -5.96385237e+00  -7.19972360e-01  -7.86041850e-01
C     1.012290940640000e+01   2.429524385175888e+00  -1.487489999999880e-02  4.40113524e+00  -7.50209010e-01  -2.09976260e-01
C     2.773393192000000e+00   3.771790228350144e+00   5.886108000000000e-01  2.03885390e-01  -9.28674520e-01  -9.24818840e-01
C     4.068595939300000e+00   4.431959316651267e+00   4.007229000000000e-01 -2.54662617e+00   2.65563310e+00   3.44001840e-01
C     5.274146439400000e+00   3.731247177371313e+00   3.192270000000000e-02 -6.24253340e-01   1.51432212e+00   3.08478560e-01
C     6.493377393699999e+00   4.449138781055769e+00  -2.449821000000014e-01 -1.11097790e+00   2.56462890e-01   3.39655900e-01
C     7.737634112599999e+00   3.745706283817098e+00  -3.547344000000017e-01 -2.32282920e-01   5.07213540e-01   4.09183840e-01
C     8.974113312799998e+00   4.522789539637969e+00  -1.784790000000029e-01 -2.68103295e+00  -8.97140430e-01  -5.55874650e-01
C     1.013217898960000e+01   3.837323035059113e+00   1.893909000000000e-01  1.57437559e+00   1.94248900e-01   5.79368320e-01
C     1.134261822560000e+01   4.553936434264818e+00   5.853753000000000e-01  9.50846850e-01  -2.63885610e-01  -2.08723822e+00
C     3.936171061400000e+00   6.026261995422469e+00   3.213288000000000e-01  3.11330855e+00  -5.41885488e+00  -1.45521218e+00
C     5.145079877500000e+00   6.599926979616370e+00  -1.936245000000021e-01 -1.21890488e+00   1.49041033e+00   6.45845950e-01
C     6.331007202800000e+00   5.889064518578842e+00  -3.368703000000011e-01  3.19872334e+00  -8.23124450e-01  -8.22052350e-01
C     7.552067630800000e+00   6.578013402411651e+00  -6.528003000000027e-01  3.53849151e+00   2.05716918e+00   8.71568850e-01
C     8.891615481599999e+00   5.896570821131390e+00  -4.170555000000000e-01 -6.49712770e-01   1.18227612e+00   7.56245900e-01
C     1.014284583340000e+01   6.612327757585951e+00  -2.021985000000015e-01 -1.42607549e+00   2.03716630e+00  -9.57882340e-01
C     1.133886772810000e+01   6.032842071508252e+00   2.806962000000000e-01 -5.20510150e-01  -3.66946554e+00  -1.15170760e-01
C     1.258833590070000e+01   6.639525445255903e+00   1.121178000000000e-01  1.64261260e-01   1.30322652e+00   8.42789500e-02
