2
Lattice="2.479 0 0 1.2395 2.14687697598162 0 0 0 30 " PBC="1 1 1" Properties=species:S:1:pos:R:3:force:R:3 Energy="-16.12641123"
C     0.000000000000000e+00   0.000000000000000e+00   3.000000000000000e+00  0.00000000e+00  -0.00000000e+00   0.00000000e+00
C     1.239500000000000e+00   7.156256586605411e-01   3.000000000000000e+00 -0.00000000e+00   0.00000000e+00   0.00000000e+00
