32
Lattice="9.728 0 0 4.864 8.42469512801502 0 0 0 30 " PBC="1 1 1" Properties=species:S:1:pos:R:3:force:R:3 Energy="-257.54567645"
C     1.347740092241588e-02   7.034273085104707e-03   3.012651059031536e+00 -5.00482170e-01  -3.02044180e-01  -3.15303120e-01
C     1.227337385424441e+00   7.043611761868170e-01   2.991594564201745e+00 -3.52646470e-01   5.20056200e-02   1.86298850e-01
C     2.427066298169520e+00  -1.134565545539366e-02   3.000970116447625e+00  1.08485212e+00   8.96844560e-01  -6.44057900e-02
C     3.661637014149460e+00   7.081918561102033e-01   2.995715412611372e+00 -9.19470470e-01  -4.92324520e-01   1.37707690e-01
C     4.875687191361352e+00   1.178694545157706e-02   2.997742455532283e+00 -5.97638050e-01  -6.82521820e-01  -5.08887500e-02
C     6.074311676065120e+00   7.112873741006080e-01   2.996528072524525e+00  1.24302554e+00  -4.40277010e-01   1.41429900e-02
C     7.306292659875447e+00  -1.016462395605896e-02   2.993415154528344e+00 -7.27972380e-01   6.26123790e-01   7.05591800e-02
C     8.510982802497356e+00   6.921056363601152e-01   2.990707909471088e+00  4.58098550e-01   8.98956190e-01   1.49790950e-01
C     1.211366233344216e+00   2.105782459424522e+00   2.994850181613077e+00  8.37881430e-01   1.75502400e-01   8.72470000e-04
C     2.439811928145781e+00   2.816138255293929e+00   2.988611316716772e+00 -9.42436920e-01  -5.13582990e-01   1.34362750e-01
C     3.640519510254501e+00   2.107504515620867e+00   3.011649969085044e+00  7.90559630e-01   2.88440500e-01  -3.11654040e-01
C     4.860928896689832e+00   2.822478609696038e+00   2.990797889953254e+00  2.61219200e-01  -8.28129510e-01   2.84258840e-01
C     6.087722101176448e+00   2.109116049799167e+00   3.003681006187129e+00 -8.55376670e-01   3.84383220e-01  -7.93151200e-02
C     7.290698197791955e+00   2.817957585455298e+00   3.010537562753893e+00  6.74925530e-01  -2.67562820e-01  -1.54967080e-01
C     8.514857458564148e+00   2.116529619600214e+00   2.997939447975821e+00 -6.02195580e-01  -9.61157130e-01   1.18445080e-01
C     9.726848509813477e+00   2.800692643999799e+00   3.011750420969763e+00  2.25439400e-02   2.89932840e-01  -1.96252640e-01
C     2.431361263191250e+00   4.212902237581124e+00   2.990273934933739e+00  6.00929900e-01  -2.67556900e-02  -1.03764000e-03
C     3.652211211895348e+00   4.913084921189858e+00   2.999763083891406e+00 -2.99320990e-01   2.76426440e-01   8.38490500e-02
C     4.866841879884571e+00   4.219354692381265e+00   3.008839756843397e+00 -3.48295210e-01  -2.54418690e-01  -2.34608150e-01
C     6.070246277678183e+00   4.914649651421731e+00   2.990760839747741e+00  9.57162530e-01   1.76808430e-01   1.39133160e-01
C     7.299612032843700e+00   4.215911887226944e+00   2.994959051269588e+00 -5.78321140e-01   8.98399000e-02   6.86024700e-02
C     8.518377797669169e+00   4.905830359876698e+00   2.994333655543254e+00 -2.81908860e-01   3.00766560e-01   3.43460000e-03
C     9.719497934598634e+00   4.202529368079055e+00   2.998756528671718e+00  1.03101721e+00   2.91885760e-01  -1.09416200e-02
C     1.095474125853434e+01   4.907945308692752e+00   2.987387297201366e+00 -9.51507540e-01   1.20642850e-01   1.45601480e-01
C     3.647944229802742e+00   6.317240217203423e+00   3.009045343576081e+00  6.70555440e-01   1.20445300e-02  -1.16529050e-01
C     4.870196246429660e+00   7.026690309104016e+00   2.990869592376375e+00 -1.81442740e-01  -1.95830370e-01   2.72709590e-01
C     6.079432834706895e+00   6.315996084158646e+00   2.998971642519666e+00  3.12672500e-02   2.26388270e-01  -8.12683200e-02
C     7.295537971775871e+00   7.024112685702809e+00   3.005175975246936e+00  2.56915500e-01  -8.57835230e-01  -1.03367810e-01
C     8.520014250238807e+00   6.309351206788749e+00   2.993569161786725e+00 -3.04611120e-01   5.37868820e-01   1.94089400e-02
C     9.728158082336691e+00   7.018582380621643e+00   2.991473045907360e+00  6.01653600e-01   5.64098100e-02   1.04839160e-01
C     1.095713018733060e+01   6.312124659223302e+00   3.006261472041022e+00 -5.35993270e-01   2.16291240e-01  -1.35493030e-01
C     1.217304350805183e+01   7.017721201126108e+00   3.011281903036583e+00 -5.42987810e-01  -9.51217800e-02  -7.79851000e-02
