32
Lattice="9.86 0 0 4.93 8.53901048131456 0 0 0 30 " PBC="1 1 1" Properties=species:S:1:pos:R:3:force:R:3 Energy="-251.03838792"
C     5.142059315800000e+00   7.991626093750500e+00  -1.475843999999995e-01  2.43597145e+00   4.38095189e+00  -6.04565970e-01
C     1.548623086900000e+00   2.310518757819272e-01  -1.965026999999999e-01 -5.60582176e+00   9.85563750e-01   1.15779617e+00
C     7.596016165100000e+00   8.060871747606278e+00  -1.795356000000012e-01  6.94415951e+00  -3.12420640e-01  -1.09727702e+00
C     4.027097910800000e+00   2.649115286481664e-01  -3.038799000000019e-01 -4.15096184e+00  -3.84774465e+00   1.95175450e-01
C     1.007280418950000e+01   7.910657061626519e+00  -3.734427000000018e-01  3.13845730e+00   5.19035761e+00   2.91180875e+00
C     6.349859473500000e+00   9.251565287524560e-02  -7.533870000000320e-02  5.58411270e-01   4.76064675e+00  -1.96425936e+00
C     1.254673310970000e+01   7.991074900624015e+00  -1.210409999999840e-02 -1.14243684e+00   1.45587728e+00  -8.74861220e-01
C     8.818379739999999e+00   1.150706805472224e-01  -2.553519000000009e-01  7.10719100e-01   2.12284853e+00   8.70832630e-01
C     1.495468122700000e+00   1.688643886696967e+00   3.680070000000000e-02 -2.05291300e+00  -3.58987574e+00  -1.85402219e+00
C     2.678619118499999e+00   2.354003754078777e+00   1.836660000000000e-02  2.67157263e+00   1.62263610e+00   1.84377788e+00
C     3.952661221200000e+00   1.626388437600326e+00  -1.733936999999983e-01 -7.74424390e-01   2.26214709e+00   1.04094925e+00
C     5.134426689800000e+00   2.392581039455007e+00  -3.833129999999940e-02  1.17335976e+00   5.08079220e-01   1.92703700e-02
C     6.347371894100000e+00   1.729250126353350e+00  -1.278669000000008e-01  2.18407688e+00  -3.62683792e+00  -9.26818650e-01
C     7.638436547300000e+00   2.433851016395999e+00  -3.478083000000005e-01 -1.91035633e+00  -3.89551319e+00   1.17376207e+00
C     8.820700143100000e+00   1.545282268968037e+00  -3.782223000000009e-01  3.48449090e-01   1.84117660e+00   1.60884980e+00
C     1.003249098790000e+01   2.247294472593570e+00  -5.723159999999794e-02  6.52956720e-01   1.70453616e+00  -1.18763848e+00
C     2.688292468700000e+00   3.811255058475665e+00   3.863094000000000e-01  9.26885710e-01  -2.66671325e+00  -2.72788096e+00
C     3.975578819199999e+00   4.504443475621689e+00   2.904888000000000e-01 -2.32202847e+00   2.78334682e+00  -1.30302581e+00
C     5.168113281200000e+00   3.827474481931901e+00   1.236828000000000e-01 -7.12646200e-01  -3.75277670e-01  -5.99045030e-01
C     6.320553039199999e+00   4.589999408005211e+00  -1.059692999999982e-01  4.97768578e+00  -2.46330921e+00  -6.86581690e-01
C     7.606584803299999e+00   3.821112492173777e+00  -2.406186000000012e-01 -1.69569135e+00   4.42397030e-01  -4.14946200e-02
C     8.839952286100001e+00   4.452774350157733e+00  -1.626684000000012e-01  1.97655380e+00   1.35464204e+00   3.77868170e-01
C     1.001341065540000e+01   3.691528994804851e+00  -8.112539999999768e-02  2.55712383e+00  -7.86644070e-01   9.50446880e-01
C     1.129196365880000e+01   4.386217289141688e+00   1.373970000000000e-01  1.66722600e-01   3.12897833e+00   3.46516230e-01
C     4.005065099899999e+00   5.996695415465154e+00  -2.181210000000178e-02 -6.77872290e-01  -4.30741245e+00   2.54940801e+00
C     5.242625202599999e+00   6.657717038572599e+00  -4.115460000000226e-02  1.31510792e+00  -1.78497047e+00  -1.63592773e+00
C     6.571289141699999e+00   5.961921319966612e+00  -2.534486999999999e-01 -4.24069321e+00  -5.98209000e-02   2.27547534e+00
C     7.798999843899999e+00   6.641917734431980e+00  -2.034149999999997e-01 -1.39035170e-01  -1.15796910e+00   4.27425040e-01
C     9.081102397999999e+00   5.840259462619982e+00  -3.086250000000135e-02 -4.57629798e+00   2.28136786e+00  -1.25644246e+00
C     1.028885606580000e+01   6.601647675618195e+00  -2.564999999997042e-03 -6.13488450e+00  -2.00294327e+00  -1.46234919e+00
C     1.141403810030000e+01   5.905318781197836e+00   5.683350000000000e-02  1.22578116e+00  -4.07359826e+00   1.05036568e+00
C     1.259353803670000e+01   6.628042013182189e+00   7.227420000000001e-02  2.17206885e+00  -1.87450224e+00  -5.77537340e-01
