32
Lattice="9.86 0 0 4.93 8.53901048131456 0 0 0 30 " PBC="1 1 1" Properties=species:S:1:pos:R:3:force:R:3 Energy="-253.08265782"
C     9.752487151599999e+00   9.860661444073440e-02   3.940419600000000e+00  4.69409142e+00  -3.59274750e-01  -6.67479200e-01
C     1.212315150300000e+00   8.620645981891945e-01   3.902258700000000e+00 -2.38875593e+00  -1.81250811e+00  -7.94936310e-01
C     2.353477089600000e+00   3.155574244863040e-02   3.664635900000000e+00  3.12759103e+00   4.89779453e+00   1.16422958e+00
C     3.743909935400000e+00   7.227512399387279e-01   3.767424000000000e+00 -2.27517703e+00  -6.75939280e-01  -3.92698640e-01
C     5.046924760700000e+00   1.049901225052680e-01   3.796608300000000e+00 -5.74618504e+00  -1.78082917e+00   3.94337310e-01
C     6.186672283000000e+00   8.651996958869264e-01   3.839460900000000e+00  1.05561258e+00  -3.53993414e+00  -1.47554945e+00
C     7.380394628499999e+00   3.253798482414480e-02   3.708397800000000e+00  2.34852470e-01   4.02448751e+00   5.91110920e-01
C     8.583735551899998e+00   8.061784823996904e-01   3.753141600000000e+00  3.50602020e-01  -1.14821175e+00   1.15776612e+00
C     1.108998284060000e+01   2.304073683489178e+00   3.871749300000000e+00 -3.34901038e+00  -2.24371215e+00  -1.46462790e-01
C     2.423456615500000e+00   2.915185302681652e+00   3.781340699999999e+00  2.99571211e+00  -2.96621536e+00   9.88363970e-01
C     3.674276002500000e+00   2.086462893323609e+00   3.843060000000000e+00 -2.89095190e-01   4.31585230e+00  -7.05032210e-01
C     4.866501008399999e+00   2.897902260080027e+00   3.817695300000000e+00  9.75497470e-01   6.66125290e-01   6.39496300e-01
C     6.124499560000000e+00   2.244675131128830e+00   3.712308900000000e+00 -3.30605430e-01  -3.64587280e-01   5.60827790e-01
C     7.361925221600000e+00   2.865303904451789e+00   3.655884900000000e+00  1.96048257e+00   2.84596005e+00   2.09151417e+00
C     8.634168367299999e+00   2.206308588531247e+00   3.868227600000000e+00 -1.23161734e+00   2.11949324e+00  -2.04630841e+00
C     9.833053014400001e+00   3.062026652571286e+00   3.841111500000000e+00 -1.88673700e-02  -4.72701530e+00   5.84094590e-01
C     1.227766144980000e+01   4.249891645268068e+00   3.923310600000000e+00  2.48091431e+00   4.34956848e+00  -3.47443940e-01
C     3.686827733200000e+00   5.001620358831096e+00   3.833322000000000e+00 -1.27448420e+00   2.16815574e+00   6.65230500e-01
C     4.898510857500000e+00   4.367079402683597e+00   3.936525900000000e+00  1.99443606e+00  -1.88197105e+00  -2.28755894e+00
C     6.195310727600000e+00   5.096013142380160e+00   3.683847600000000e+00 -2.33314216e+00  -2.95077576e+00   1.94868182e+00
C     7.407238971500000e+00   4.303163201438702e+00   3.819771300000000e+00 -1.71006186e+00   6.52910650e-01  -2.44834210e+00
C     8.585794960800001e+00   5.053351392121033e+00   3.765295800000000e+00 -5.64841040e-01   2.34768975e+00   5.97524040e-01
C     9.823661462999999e+00   4.442160103960780e+00   3.832459800000001e+00  1.79736367e+00  -1.09010452e+00   1.14490725e+00
C     1.111750392470000e+01   5.008982949837266e+00   4.050108900000001e+00 -1.69394262e+00   4.15221070e+00  -2.10375792e+00
C     1.358779435700000e+01   6.465156545721474e+00   3.767338800000000e+00 -2.01281374e+00  -1.47141296e+00   1.06116781e+00
C     4.924197636500000e+00   7.172093794421556e+00   3.925848000000000e+00 -1.86049630e+00   1.76339311e+00  -1.64937872e+00
C     6.105995692399999e+00   6.488193258974627e+00   3.664803900000000e+00  7.66233680e-01  -2.74506240e-01   4.12903620e-01
C     7.272315766800000e+00   7.236766295824665e+00   3.541700400000000e+00  2.18513454e+00  -3.32149603e+00   1.44378894e+00
C     8.507766914099999e+00   6.489076278048364e+00   3.769239900000000e+00  1.69984066e+00   1.13517783e+00  -9.11237010e-01
C     9.783119805199998e+00   7.205618205736351e+00   3.866637600000000e+00  3.24928895e+00  -2.29689690e-01  -5.31234800e-01
C     1.112238432890000e+01   6.557238075303917e+00   3.896461500000000e+00 -3.13465595e+00  -4.82962730e+00   6.90744740e-01
C     1.233512286760000e+01   7.185784304534035e+00   3.745536900000000e+00  6.46098060e-01   2.28991660e-01   3.70730960e-01
