32
Lattice="9.86 0 0 4.93 8.53901048131456 0 0 0 30 " PBC="1 1 1" Properties=species:S:1:pos:R:3:force:R:3 Energy="-257.14192379"
C     9.875696528399999e+00   4.717280702758624e-01   9.572130000000000e-02 -3.99801080e-01   3.28163710e-01   1.48236800e-01
C     1.261258316900000e+00   1.160119100554014e+00   1.331529000000000e-01 -1.07316906e+00   7.80626160e-01  -6.18792630e-01
C     2.469903673800000e+00   4.678527257596192e-01   7.053540000000000e-02  9.38623370e-01  -5.13052200e-02   7.71584800e-02
C     3.714020775100000e+00   1.173008053752735e+00   7.784970000000001e-02 -7.95324100e-01   9.61116970e-01  -5.36583650e-01
C     4.943481972400000e+00   4.960341928269728e-01   9.926700000000000e-03 -6.59103640e-01  -2.18955354e+00   5.76084900e-02
C     6.155094203299999e+00   1.152248865374807e+00   2.957010000000000e-02  1.10338946e+00   1.73024151e+00   2.74129080e-01
C     7.379305492899999e+00   4.391921348142328e-01   1.086831000000000e-01  1.65549716e+00   2.96217542e+00  -7.39087480e-01
C     8.666326412200000e+00   1.189780975868285e+00   7.115880000000001e-02 -2.25336696e+00   4.01467120e-01   1.63498440e-01
C     1.110386655870000e+01   2.580232199010866e+00   9.775530000000000e-02 -1.52247885e+00   4.21051260e-01   5.18310520e-01
C     2.429403921000000e+00   3.307432348799779e+00   1.272747000000000e-01  1.87509679e+00  -4.31581750e-01  -5.58573490e-01
C     3.686829951700000e+00   2.600962525533372e+00   4.452990000000000e-02  1.84383450e-01  -4.76131800e-02   8.15473390e-01
C     4.941374348100000e+00   3.305293412064644e+00   4.669890000000000e-02 -1.67752369e+00   5.38948430e-01   8.78353200e-02
C     6.145920262100000e+00   2.586253909201362e+00   4.137360000000000e-02  9.84185950e-01   5.96374100e-01  -1.86864620e-01
C     7.364228764100000e+00   3.347366653721491e+00   3.186930000000000e-02  1.26216715e+00  -1.09601178e+00  -1.10700000e-01
C     8.621335429400000e+00   2.647438224823392e+00   1.526550000000000e-02 -4.52107510e-01  -1.99619598e+00   8.01718900e-01
C     9.851562847299999e+00   3.317219848002060e+00   9.475140000000000e-02  2.90115070e-01   8.36415800e-02  -7.99607780e-01
C     1.230207540140000e+01   4.715702010501081e+00   1.094352000000000e-01 -1.89069220e-01   9.12512510e-01  -4.83664700e-02
C     3.650865059400000e+00   5.452698881623594e+00   1.091823000000000e-01  1.73459671e+00  -8.62411700e-02  -1.31969330e-01
C     4.905836245900000e+00   4.744299071208497e+00   7.559639999999999e-02  1.16846426e+00  -6.51801000e-02  -4.91478270e-01
C     6.185329203099999e+00   5.453079465320687e+00  -2.276009999999928e-02 -2.30815229e+00   6.75803350e-01   6.36370940e-01
C     7.425676579899999e+00   4.760147133098958e+00   2.094750000000000e-02 -1.73436665e+00   3.98606020e-01  -1.18612580e-01
C     8.626156328499999e+00   5.503231635572871e+00   4.229280000000000e-02  4.68931530e-01  -1.66449773e+00  -4.34580980e-01
C     9.820534511900000e+00   4.733119115567242e+00   1.384470000000000e-02  2.15682964e+00   1.33542830e+00   7.20610530e-01
C     1.109843177600000e+01   5.451497955189686e+00   4.538399999999999e-02 -1.35395394e+00  -4.33506040e-01  -1.73621770e-01
C     1.354804036530000e+01   6.887075116235714e+00   1.052517000000000e-01 -1.51053701e+00  -6.15312320e-01  -7.27245900e-02
C     4.883678656699999e+00   7.594273914826799e+00   8.539500000000000e-02  1.29474580e+00  -9.78764400e-02  -3.00834580e-01
C     6.097480497799999e+00   6.891396282489119e+00  -2.242559999999827e-02  3.02239242e+00  -5.54429370e-01   4.25228890e-01
C     7.391816008799999e+00   7.609170987120103e+00  -6.872700000002396e-03 -8.60165030e-01  -1.10671579e+00   2.98619960e-01
C     8.646906106900000e+00   6.907690166116740e+00   2.545410000000000e-02 -9.20460890e-01   5.06980000e-02  -4.77718360e-01
C     9.884870568200000e+00   7.586878192459966e+00  -2.117849999999777e-02 -3.42745760e-01   8.73126010e-01   3.24939700e-01
C     1.111236237840000e+01   6.877170291029438e+00  -4.121999999998849e-03 -8.05293690e-01  -2.74137200e-01   3.77395920e-01
C     1.231356954850000e+01   7.615263656487687e+00   7.648740000000000e-02  7.18200570e-01  -2.33982283e+00   7.29812100e-02
