32
Lattice="9.86 0 0 4.93 8.53901048131456 0 0 0 30 " PBC="1 1 1" Properties=species:S:1:pos:R:3:force:R:3 Energy="-254.52991165"
C     8.359367160000000e-01   1.317802602830314e+00   3.463360800000000e+00 -1.68359510e-01  -3.88171401e+00   3.97956700e-01
C     2.072392252200000e+00   1.907273551593009e+00   3.637327500000000e+00  2.96131960e+00   9.03303700e-02   3.83862580e-01
C     3.373766324199999e+00   1.152403336074390e+00   3.722331000000000e+00 -2.61279439e+00   3.31285356e+00  -2.06293760e-01
C     4.566867292500000e+00   1.903587346158898e+00   3.864922500000000e+00 -2.94271010e-01  -7.38794480e-01   7.89298800e-02
C     5.769088859400000e+00   1.182801530262352e+00   3.719735400000000e+00  1.01002867e+00  -1.65231526e+00   3.05294140e-01
C     7.025597071999999e+00   1.822512771865386e+00   3.683844600000000e+00  2.78417330e-01   2.46131472e+00   2.07378640e-01
C     8.271206089900000e+00   1.110769597286950e+00   3.479230500000000e+00 -1.99945015e+00   5.87192340e-01   6.00046420e-01
C     9.414606643599999e+00   1.900305206700701e+00   3.441892800000000e+00  2.30354077e+00   1.61740811e+00   4.73779740e-01
C     2.157088173200000e+00   3.301018698028251e+00   3.785892900000000e+00 -2.01887244e+00   6.22789410e-01  -1.04630940e-01
C     3.332865417299999e+00   4.064652756172809e+00   3.893883900000001e+00  4.44560910e-01  -9.46886160e-01   8.73167300e-02
C     4.565007203500000e+00   3.295747652249052e+00   4.042437300000000e+00 -6.39177050e-01   1.67146470e+00  -1.68699638e+00
C     5.776910255100000e+00   4.001335310342770e+00   3.901552500000000e+00  1.30225107e+00   1.27101737e+00   9.31825640e-01
C     7.031227920800000e+00   3.336199762766270e+00   3.849661200000000e+00 -3.14005340e-01  -3.23709307e+00  -1.50172468e+00
C     8.257462334500000e+00   4.028551356885255e+00   3.677996100000000e+00 -1.55554768e+00   3.99074750e-01   6.50561960e-01
C     9.481446844100001e+00   3.329582968935423e+00   3.599588100000000e+00  4.46829520e-01  -6.82930280e-01   1.71069230e-01
C     1.075856669650000e+01   3.969037186323009e+00   3.781428000000000e+00 -8.67369940e-01   3.05482546e+00  -1.66532710e-01
C     3.254620795699999e+00   5.478687445409578e+00   3.739257300000000e+00  4.92045960e+00  -1.32061934e+00   1.74431160e+00
C     4.600775043700000e+00   6.162187415874890e+00   3.809316000000000e+00 -3.08118069e+00  -1.77604662e+00  -8.15481720e-01
C     5.773178245100000e+00   5.469100356783263e+00   3.859412400000000e+00  1.75608090e-01  -2.88892331e+00  -1.27537370e-01
C     6.929962466999999e+00   6.208279372033940e+00   3.719583900000000e+00  2.93118635e+00  -1.67739037e+00   7.88711300e-02
C     8.174054326699999e+00   5.425171417368903e+00   3.701884800000000e+00  1.65827430e+00   1.27170221e+00   3.93461500e-02
C     9.470001405400000e+00   6.070286913314624e+00   3.720312900000000e+00 -1.72086940e+00   2.96955677e+00   5.53661760e-01
C     1.072521154900000e+01   5.504702138567632e+00   3.887295300000000e+00  3.78033070e-01  -4.54788541e+00  -1.08996420e+00
C     1.197045781750000e+01   6.187659625697150e+00   3.812190900000000e+00 -2.68808651e+00   1.06491575e+00  -6.52374000e-01
C     4.670920414800000e+00   7.484252436566505e+00   3.588121500000000e+00 -3.69858628e+00   6.63872127e+00  -4.20295100e-02
C     5.809328308200000e+00   8.403265488839020e+00   3.551818500000000e+00 -1.25674490e+00  -2.82714084e+00  -2.11450630e-01
C     6.950704751799999e+00   7.599146871937421e+00   3.618414000000000e+00  3.13463939e+00   3.17786190e+00  -1.22999630e-01
C     8.269189818499999e+00   8.354225183141438e+00   3.617018700000000e+00 -6.56951990e-01  -5.78345769e+00   5.15682230e-01
C     9.454135975200000e+00   7.512539616583601e+00   3.720347400000000e+00  1.20555549e+00   2.00570481e+00  -7.61584340e-01
C     1.071858257240000e+01   8.258645904086178e+00   3.675774600000000e+00 -1.35552061e+00   8.05186770e-01   1.25009530e-01
C     1.197826634590000e+01   7.612799298063160e+00   3.641529600000000e+00 -1.48023342e+00  -1.87368157e+00   6.75721360e-01
C     1.319132661640000e+01   8.228642724523020e+00   3.552036600000000e+00  3.25731714e+00   8.12958120e-01  -5.31025540e-01
