32
Lattice="9.86 0 0 4.93 8.53901048131456 0 0 0 30 " PBC="1 1 1" Properties=species:S:1:pos:R:3:force:R:3 Energy="-257.1885657"
C     5.143416840600000e+00   6.684515015161984e+00  -2.543919000000017e-01  6.67901510e-01  -8.18507740e-01   4.63652250e-01
C     6.385919317599999e+00   7.364098312300329e+00  -2.466153000000020e-01 -1.68816950e-01   1.12419979e+00  -8.24784970e-01
C     7.598273710699999e+00   6.641694524698033e+00  -2.307063000000014e-01  7.85634210e-01   1.18473773e+00   2.76788660e-01
C     8.849710284400000e+00   7.370778038638414e+00  -2.272001999999986e-01 -7.22680290e-01  -1.10408201e+00  -3.98288730e-01
C     1.007527747190000e+01   6.677738541835160e+00  -2.967320999999998e-01  2.90451510e-01  -2.21863220e+00  -4.63700000e-02
C     1.130256587030000e+01   7.346303270630324e+00  -3.231470999999999e-01  9.95599870e-01   5.36454610e-01   4.80744740e-01
C     1.254249306320000e+01   6.629107937860407e+00  -2.871327000000008e-01  5.33758580e-01   2.15167774e+00  -4.27955800e-02
C     1.379530214890000e+01   7.373636984737224e+00  -2.234420999999998e-01 -1.53872999e+00   2.86695210e-01  -8.16470310e-01
C     1.468346072800000e+00   2.589449804653712e-01  -4.209707999999992e-01  9.72953400e-02  -7.60922170e-01   1.33008606e+00
C     2.716240737300000e+00   9.569659652024473e-01  -3.241692000000000e-01 -8.21389950e-01   5.99888500e-02  -6.53320080e-01
C     3.927030101900000e+00   2.206827845758536e-01  -2.468423999999985e-01  9.63465950e-01   1.60882787e+00  -2.62486100e-02
C     5.209264040500000e+00   9.397207504172488e-01  -2.326094999999988e-01 -2.81029391e+00  -2.62729200e-01   1.38698870e-01
C     6.396727159399999e+00   2.284764248310544e-01  -2.607230999999999e-01  1.31188993e+00   2.32348780e-01  -1.87289970e-01
C     7.627847745400000e+00   9.683019285651712e-01  -2.988992999999986e-01  1.38135160e-01  -2.10097300e-01   5.34867200e-02
C     8.866522767599999e+00   2.675529861500496e-01  -3.164568000000010e-01 -1.17661355e+00  -1.15164727e+00   1.83625760e-01
C     1.007380709940000e+01   9.500421085547393e-01  -4.057752000000008e-01  1.37393001e+00   6.50372590e-01  -3.27979590e-01
C     2.698387087400000e+00   2.386626958227512e+00  -3.952673999999980e-01 -4.03072460e-01  -5.02035900e-01   3.82085920e-01
C     3.907667083200000e+00   3.080404481706552e+00  -2.708601000000002e-01  1.92175940e+00   9.68818910e-01   4.05544280e-01
C     5.153386188000000e+00   2.345803827704938e+00  -1.775097000000017e-01  5.86163940e-01   1.27969371e+00  -3.32809380e-01
C     6.403063294000000e+00   3.083617028229338e+00  -1.584363000000018e-01 -1.42497689e+00   4.64155480e-01  -2.25426210e-01
C     7.635008274600000e+00   2.398065816666520e+00  -2.980826999999984e-01 -8.81929050e-01  -6.27438110e-01   3.14917800e-01
C     8.839606446600000e+00   3.109902151849293e+00  -3.888827999999975e-01  1.31212937e+00  -2.99439210e-01   8.89689100e-02
C     1.007107346370000e+01   2.363084650163838e+00  -4.635788999999981e-01  4.30632310e-01   1.62072802e+00   1.86834840e-01
C     1.132220437740000e+01   3.097360736377107e+00  -4.587687000000003e-01  4.28061000e-02  -7.70082160e-01  -1.18923580e-01
C     3.973449009899999e+00   4.540030570308033e+00  -2.276978999999990e-01 -3.03645280e+00  -1.36710396e+00  -8.13119950e-01
C     5.142776236400000e+00   5.256171164503459e+00  -2.177793000000001e-01  1.32943652e+00  -1.41004210e-01   6.69445750e-01
C     6.354571518200000e+00   4.517582963387895e+00  -1.273719000000000e-01  1.58098888e+00   2.36605870e-01  -7.21677450e-01
C     7.596972585100000e+00   5.253815849242761e+00  -1.991796000000008e-01  8.61073580e-01  -1.99272731e+00  -1.88420290e-01
C     8.875807436599999e+00   4.529852155205978e+00  -3.286256999999999e-01 -1.19632197e+00   1.09795280e-01   3.00774900e-01
C     1.011475784860000e+01   5.211189877437544e+00  -3.555840000000003e-01 -6.28179000e-03   1.32958651e+00  -2.01809690e-01
C     1.138318182190000e+01   4.514180082321510e+00  -4.377990000000018e-01 -2.63941670e+00   5.85237300e-02   3.47997940e-01
C     1.256551078950000e+01   5.251597585100267e+00  -3.431676000000010e-01  1.60392414e+00  -1.67676193e+00   3.02080970e-01
