32
Lattice="9.86 0 0 4.93 8.53901048131456 0 0 0 30 " PBC="1 1 1" Properties=species:S:1:pos:R:3:force:R:3 Energy="-252.43636077"
C     5.123221440700000e+00   7.741452641020499e+00  -9.004691999999999e-01 -7.03451580e-01   3.39635040e-01   8.21052000e-02
C     6.318506448300000e+00   8.464558933014985e+00  -9.445982999999991e-01  2.04601991e+00   2.87721126e+00   1.42484876e+00
C     7.574049564100000e+00   7.804129490284327e+00  -8.347626000000012e-01 -1.94857066e+00  -1.80756357e+00  -2.07331054e+00
C     8.809941897100000e+00   8.490354258993808e+00  -1.031514900000001e+00 -5.74106840e-01  -3.38094961e+00   2.33587113e+00
C     1.002778584520000e+01   7.845340377272799e+00  -8.471217000000024e-01  1.93385657e+00  -4.58402035e+00  -1.97559912e+00
C     1.131591285930000e+01   8.452246021463244e+00  -1.004430300000003e+00  7.20948320e-01  -1.68592509e+00   1.16837154e+00
C     1.256321020500000e+01   7.634582057627324e+00  -9.377217000000009e-01 -1.44527229e+00   3.62200235e+00   1.41011162e+00
C     1.375938409160000e+01   8.395164017256016e+00  -8.275149000000006e-01  3.87698690e-01   3.30110070e+00  -7.60145400e-01
C     1.464767780200000e+00   1.438380091236088e+00  -8.622282000000006e-01 -2.05992625e+00  -1.95127130e+00  -1.58289869e+00
C     2.675393123700000e+00   2.130064447076165e+00  -7.618040999999991e-01  9.09487550e-01  -5.40946325e+00  -1.18316602e+00
C     3.962579493799999e+00   1.233473213912139e+00  -8.211428999999981e-01 -1.84005830e-01   9.71109191e+00  -2.65390980e-01
C     5.269759429600000e+00   1.995615763096155e+00  -8.707239000000015e-01 -3.90246220e+00  -5.72127910e-01  -3.67500580e-01
C     6.479342521800000e+00   1.328493273171064e+00  -9.509636999999991e-01 -2.13876081e+00  -1.33915471e+00   2.75169480e-01
C     7.626426722200000e+00   2.041883879041406e+00  -8.429846999999988e-01  4.23484300e+00   3.35501767e+00  -8.99311890e-01
C     8.884133023399999e+00   1.409847158497378e+00  -8.401133999999999e-01 -6.64894160e-01  -2.28062811e+00  -1.53083384e+00
C     1.008828517830000e+01   2.195475316715481e+00  -1.125274200000000e+00  1.78965370e-01  -3.32200825e+00   2.98456645e+00
C     2.594466631400000e+00   3.459848050120862e+00  -9.468183000000003e-01  5.94421892e+00   3.23507618e+00   1.66075731e+00
C     3.959196527800000e+00   4.098755941617938e+00  -8.064804000000017e-01 -1.61924432e+00   2.09932470e+00  -1.05230680e+00
C     5.211065018799999e+00   3.418313107684675e+00  -9.288629999999998e-01 -1.58744137e+00  -1.23167122e+00   1.44424493e+00
C     6.384254752400000e+00   4.126831695735548e+00  -8.684444999999990e-01  1.22657803e+00   4.68995165e+00  -1.92388265e+00
C     7.706625349299999e+00   3.562075631955641e+00  -9.436529999999976e-01 -5.33093165e+00  -4.30738532e+00   1.07782718e+00
C     8.843893377400001e+00   4.265252471220541e+00  -9.361917000000020e-01  1.48059634e+00   1.33477302e+00  -6.08413080e-01
C     1.008358723340000e+01   3.585058634832875e+00  -1.030166399999999e+00  4.55934640e-01   3.96894370e-01   9.73944000e-02
C     1.134780764220000e+01   4.270779431143825e+00  -9.280742999999987e-01 -3.64494857e+00  -9.22087850e-01  -7.13095590e-01
C     3.940343419000000e+00   5.557981806798220e+00  -7.607292000000001e-01 -2.83875596e+00  -1.46842651e+00  -7.84961500e-02
C     5.078870371899999e+00   6.332973773562435e+00  -9.185160000000003e-01 -7.34773650e-01   5.37684610e-01   1.07380320e-01
C     6.229825854800000e+00   5.671379353631991e+00  -1.048446599999998e+00  5.40076946e+00  -4.29784057e+00   1.59244296e+00
C     7.480715691500000e+00   6.358424806638705e+00  -9.375891000000003e-01  1.13306653e+00   1.24053589e+00  -6.79847600e-02
C     8.745171557100001e+00   5.694319661456826e+00  -9.234071999999998e-01 -7.55004750e-01  -1.99633848e+00   1.12669920e-01
C     9.954440657599999e+00   6.312530955522792e+00  -8.588255999999994e-01  3.71076790e+00   4.59316732e+00  -2.01596000e-03
C     1.126262621480000e+01   5.667583080352794e+00  -8.697024000000013e-01 -4.89837320e-01  -1.10517913e+00   8.99154120e-01
C     1.252158074270000e+01   6.265487412035852e+00  -7.080821999999998e-01  8.58636980e-01   3.28574540e-01  -1.58856328e+00
