26
Lattice="8.88768389401873 1.33226762955019e-15 0 4.44384194700937 7.69696003302603 0 0 0 30 " PBC="1 1 1" Properties=species:S:1:pos:R:3:force:R:3 Energy="-207.31908613"
C     1.295058122174971e+01   7.169870359875192e+00  -6.179700000000565e-03 -5.87531000e-01   4.15202580e+00  -3.20796150e-01
C     9.210520213115426e+00   7.109263111146166e+00   6.880170000000001e-02 -9.82475050e-01  -1.30540961e+00   5.89455200e-01
C     1.057383279611756e+01   6.691736280385997e+00   1.704054000000000e-01 -7.00484080e-01   2.11529960e-01  -2.41859690e-01
C     1.091551989124815e+01   5.310437216435787e+00   2.030169000000000e-01 -2.61808406e+00   1.20017500e-02   6.38538000e-03
C     6.826174906283587e+00   6.508817486485844e+00  -7.754850000000246e-02 -4.47907390e-01  -5.30209395e+00   1.02034922e+00
C     8.167520645321900e+00   6.056079295706833e+00   1.148073000000000e-01  9.88608070e-01   4.34933367e+00  -1.19034561e+00
C     8.585359549119705e+00   4.757235301530804e+00   1.154997000000000e-01 -3.63916789e+00  -3.09163147e+00   5.63714730e-01
C     9.863634594915755e+00   4.350664323677335e+00   2.151156000000000e-01  3.33862940e+00  -2.73359381e+00  -8.74560010e-01
C     1.023211894569964e+01   2.902490376445670e+00   4.300860000000000e-02 -6.03929730e-01   2.05495276e+00  -2.31655000e-02
C     4.401516887274142e+00   5.865634568228548e+00  -9.358499999997605e-03  4.59235430e-01  -4.14241982e+00   5.31303160e-01
C     5.805168312213805e+00   5.443572303770699e+00  -4.234500000002583e-03 -5.32987830e-01   6.03864240e-01  -1.51486120e-01
C     6.164280333733542e+00   4.039077065317279e+00   8.799029999999999e-02 -4.94026500e-02   1.55479115e+00  -5.95765300e-01
C     7.582105970302707e+00   3.688553349192663e+00   9.316410000000000e-02 -2.44601875e+00   4.45087100e-02  -1.16780450e-01
C     7.842661665280345e+00   2.292772916763609e+00   4.219050000000000e-02  9.18423430e-01   3.61521730e-01   8.42041880e-01
C     9.216000044550805e+00   1.902639797659010e+00  -4.045200000000193e-03 -7.02696540e-01  -3.78515020e-01  -4.20756330e-01
C     3.295386456626661e+00   4.871309483108223e+00   1.001652000000000e-01  5.74153109e+00  -5.95392280e-01  -8.02652350e-01
C     3.710986152836046e+00   3.463548193605273e+00  -4.779780000000144e-02  1.66111141e+00   2.86379294e+00   7.19756140e-01
C     5.099626501889487e+00   3.059788607372363e+00   1.133370000000000e-02  1.08239136e+00   1.44092007e+00   2.47091380e-01
C     5.477395727215467e+00   1.702518529000609e+00   6.319469999999999e-02 -1.49922144e+00   2.66188240e-01  -1.92737320e-01
C     6.832777785426574e+00   1.257964361882296e+00   1.472817000000000e-01 -3.33689170e-01   4.28833514e+00  -9.55479890e-01
C     1.160436525415005e+01   7.650751946216698e+00   9.975810000000000e-02  3.23133370e-01  -3.17694291e+00   2.42953240e-01
C     2.714346388531395e+00   2.559864203129436e+00  -1.223733000000031e-01 -2.95151091e+00  -4.07544563e+00   2.91060350e-01
C     2.963209268792235e+00   1.106454475806964e+00  -1.855098000000019e-01  3.57019123e+00   2.63395148e+00   7.05867670e-01
C     4.394253246569066e+00   7.975024256523795e-01  -2.934750000000008e-02 -6.88212080e-01  -2.45654154e+00  -1.59584290e-01
C     5.786916297707267e-01   5.074860517155992e-01  -1.424703000000029e-01  3.04535739e+00  -3.90149690e-01   7.17008620e-01
C     2.005028245714575e+00   1.051771115395428e-01  -1.536945000000003e-01 -2.34529360e+00   2.81041811e+00  -4.31017930e-01
