32
Lattice="9.86 0 0 4.93 8.53901048131456 0 0 0 30 " PBC="1 1 1" Properties=species:S:1:pos:R:3:force:R:3 Energy="-255.44828098"
C     9.802552238300001e+00   5.754328155335760e-02  -1.776045000000011e-01  3.48198733e+00  -4.10766627e+00  -3.15593250e-01
C     1.218171941000000e+00   7.031000735606848e-01  -2.525460000000024e-01 -1.87452820e-01   9.39386700e-02   1.63471440e+00
C     7.369342110800000e+00   8.476179074646483e+00  -1.714661999999976e-01  1.27733830e+00   2.98911192e+00  -3.64643100e-01
C     3.730782183500000e+00   7.202861130032568e-01  -8.874420000000072e-02 -2.19151798e+00  -2.58917259e+00  -5.06668180e-01
C     4.955261763699999e+00   5.038383360650640e-02  -9.015570000000039e-02 -2.63400100e-02  -2.82522166e+00   1.88120880e-01
C     6.182507566900000e+00   7.215884828816664e-01  -1.538520000000005e-01 -6.10029150e-01   2.25367144e+00   7.31470820e-01
C     7.406497844600000e+00   4.042094312896639e-02  -4.859399999999781e-02 -1.48589718e+00  -1.36892210e+00  -3.67546200e-01
C     8.612013686799999e+00   7.102204128395376e-01  -1.361217000000003e-01 -2.65082320e-01   6.27594700e-01  -1.39641130e-01
C     1.108021976440000e+01   2.120335696265987e+00  -3.379710000000102e-02  3.41949840e-01  -6.10933740e-01  -1.90172005e+00
C     2.497534795500000e+00   2.769807112237765e+00  -6.224489999999960e-02 -2.09165733e+00   3.47686978e+00   2.00394848e+00
C     3.707354872800000e+00   2.084557754695416e+00  -3.965340000000239e-02  9.13301000e-01   2.26995866e+00  -1.83535830e-01
C     4.964348591799999e+00   2.851199508501344e+00  -2.777160000000123e-02 -2.03787544e+00  -7.56208640e-01  -4.16563190e-01
C     6.155449902800000e+00   2.210855697001952e+00  -1.595586000000004e-01  2.00796513e+00  -4.64931883e+00   2.06961870e-01
C     7.424658633500000e+00   2.824110266264487e+00  -1.649187000000012e-01 -2.48264579e+00   1.99633130e-01  -4.45900670e-01
C     8.609511958299999e+00   2.098253217433974e+00  -1.806570000000001e-01  3.69733650e-01   1.35454184e+00   1.11921010e-01
C     9.802252543599998e+00   2.822919501253051e+00  -1.209570000000006e-01  3.30700942e+00  -8.40502010e-01   1.00271115e+00
C     1.232187654920000e+01   4.294159754178695e+00   1.850649000000000e-01  1.17185970e-01  -3.43029228e+00  -1.12632107e+00
C     3.688975537000000e+00   4.949837749917861e+00   1.500570000000000e-01  1.81341542e+00   1.71936055e+00  -1.42150059e+00
C     4.966982592199999e+00   4.224339510307717e+00  -2.400959999999941e-02 -1.65469805e+00   3.36201414e+00   4.37206010e-01
C     6.185767529400000e+00   4.995112095823449e+00  -1.658213999999987e-01 -1.33113829e+00  -2.55633508e+00   3.80012610e-01
C     7.360742317400000e+00   4.212214969327165e+00  -2.126927999999992e-01  2.12163949e+00   1.40496244e+00   3.35647070e-01
C     8.609796370000000e+00   4.858024772215014e+00  -1.392003000000024e-01  1.38429824e+00   4.45532463e+00   3.79127140e-01
C     9.870359211800000e+00   4.213808177902523e+00   2.500830000000000e-02 -1.80804815e+00   7.20890360e-01  -7.69451380e-01
C     1.107254242330000e+01   4.964843609204679e+00   1.629822000000000e-01  1.00736282e+00  -4.35249700e-02   1.22087480e-01
C     3.731288445200000e+00   6.418599811221998e+00  -5.087639999999993e-02 -1.60641887e+00  -1.01441812e+00   1.68140037e+00
C     4.957271823300000e+00   7.092131938583692e+00  -1.329165000000003e-01 -7.14358940e-01   2.05628131e+00  -1.28477910e-01
C     6.199924221599999e+00   6.382973180917133e+00  -1.445252999999980e-01 -1.75023562e+00   5.93546220e-01  -6.25459950e-01
C     7.386061170500000e+00   7.090418671520985e+00  -2.186421000000003e-01  2.33557923e+00  -4.61500770e-01   4.70775760e-01
C     8.660820834699999e+00   6.386335416293633e+00  -1.409523000000021e-01 -1.64888514e+00  -1.80870625e+00   1.65918440e-01
C     9.850351743499999e+00   7.113033899216846e+00  -3.669600000002049e-03  1.53840362e+00   2.76064430e-01   4.57970100e-02
C     1.111318618140000e+01   6.383467760404135e+00   1.723596000000000e-01 -1.28824476e+00   1.84529798e+00  -1.03178566e+00
C     1.232132064240000e+01   7.173647296598182e+00   6.081839999999999e-02  1.16335638e+00  -2.63633890e+00  -1.53012340e-01
