26
Lattice="8.88768389401873 1.33226762955019e-15 0 4.44384194700937 7.69696003302603 0 0 0 30 " PBC="1 1 1" Properties=species:S:1:pos:R:3:force:R:3 Energy="-209.11470088"
C     1.299305070826068e+01   7.341570680592419e+00   2.066610000000000e-02 -5.36753160e-01  -2.88428505e+00   1.61520900e-02
C     9.251549494738871e+00   7.047643558233996e+00   8.844299999999999e-03 -2.14044520e-01   1.89622807e+00   1.42454600e-01
C     1.060699043390007e+01   6.671310857554386e+00   1.187277000000000e-01 -1.69992740e-01   4.01833120e-01  -3.70518630e-01
C     1.091824401078851e+01   5.294524598239365e+00   9.143670000000001e-02  9.42722090e-01   2.55630710e-01  -1.28274590e-01
C     6.869030029285005e+00   6.505741704288256e+00  -1.156371000000007e-01 -1.37730211e+00   2.49719780e-01   3.31607650e-01
C     8.215897286412863e+00   6.106055965060023e+00  -1.965539999999777e-02  3.96213720e-01  -1.39421054e+00  -1.33480640e-01
C     8.561923259929021e+00   4.705221862614474e+00   3.207570000000000e-02 -1.00717823e+00   8.23462000e-03   8.06675600e-02
C     9.914397001361053e+00   4.291839921800058e+00   3.331530000000001e-02  6.60391200e-02   1.34600323e+00  -5.31952000e-03
C     1.027701623630146e+01   2.952651464961180e+00  -6.876660000000001e-02 -7.96446010e-01  -2.09436750e+00   1.51688870e-01
C     4.429935878684497e+00   5.918294551787397e+00   3.974279999999999e-02  6.46820760e-01   7.85542590e-01  -4.60344380e-01
C     5.818485040108154e+00   5.525199565493653e+00  -4.195229999999839e-02 -3.10119920e-01  -2.49436820e-01   4.60238070e-01
C     6.152244543397790e+00   4.139021937367628e+00   5.371980000000000e-02 -5.67306530e-01  -7.98995760e-01  -5.20985650e-01
C     7.520294528543381e+00   3.720839633491303e+00   6.390120000000001e-02 -2.35709290e-01   8.46388210e-01  -2.25573380e-01
C     7.851641825556751e+00   2.347467745645591e+00   4.978830000000000e-02  7.01989060e-01  -3.79331330e-01  -2.36788260e-01
C     9.220084024207976e+00   1.953249157126667e+00  -5.480999999999980e-02  6.78265560e-01   8.99803020e-01  -6.02814500e-02
C     3.402189665099520e+00   4.938376636451228e+00   5.315490000000000e-02  5.22819340e-01  -1.25409867e+00   5.24753700e-01
C     3.751821416397628e+00   3.521163787909838e+00   6.292979999999999e-02 -1.90790030e-01   9.31934890e-01  -1.10695269e+00
C     5.096245538097049e+00   3.115451021099715e+00   5.902500000000001e-03  1.62197531e+00   1.46961042e+00   8.06157280e-01
C     5.455484253575996e+00   1.749990992408039e+00   2.940120000000000e-02  1.07617833e+00  -3.18544500e-01  -2.18012390e-01
C     6.850898084275549e+00   1.346025127646325e+00   5.673060000000000e-02 -1.62727386e+00   1.22562247e+00   1.84574570e-01
C     1.162057710060527e+01   7.689460727903570e+00   9.680279999999999e-02  2.68300310e-01  -7.71063450e-01  -1.78526900e-01
C     2.753094246160230e+00   2.531391839495261e+00  -9.238649999999993e-02 -3.43610560e-01   5.83647550e-01   3.84426400e-01
C     3.113994558574373e+00   1.155991571772842e+00  -1.588029000000013e-01 -1.19307411e+00   2.87341590e-01   3.77338120e-01
C     4.457670070666563e+00   7.607813069236536e-01  -4.522079999999917e-02  4.16474490e-01  -1.03226144e+00  -1.28079700e-02
C     6.738169104385212e-01   5.803752625948954e-01  -1.104903000000022e-01  1.39927192e+00   8.79806190e-01   2.37382150e-01
C     2.066592476628199e+00   1.986552286814871e-01  -1.622655000000002e-01 -1.67468910e-01  -8.90751380e-01  -3.95746100e-02
