32
Lattice="9.86 0 0 4.93 8.53901048131456 0 0 0 30 " PBC="1 1 1" Properties=species:S:1:pos:R:3:force:R:3 Energy="-252.31506225"
C     9.742135039000001e+00   3.286359437176816e-01   4.477772700000000e+00  4.66568554e+00  -3.68971674e+00  -1.27126728e+00
C     1.207566081300000e+00   9.641447113129833e-01   4.569278700000001e+00 -2.02961627e+00  -5.91537580e-01  -3.12671610e-01
C     2.408373674900000e+00   2.969211195038088e-01   4.229464200000000e+00 -1.09867680e+00  -2.19077483e+00   2.06864370e-01
C     3.592781426300000e+00   1.003012066875218e+00   4.219690500000000e+00  1.98091569e+00   9.99790950e-01   3.08080620e-01
C     4.817818343000000e+00   2.773924879261536e-01   4.113195299999999e+00  1.79395634e+00   1.09608924e+00   7.26429360e-01
C     6.080076759700000e+00   9.979294770573127e-01   4.266862800000000e+00 -6.90405460e-01  -1.71154662e+00  -7.69234900e-02
C     7.301597945500000e+00   1.244858788925752e-01   4.420590300000001e+00  6.43809910e-01   7.01027886e+00  -1.70011752e+00
C     8.570381069300000e+00   1.000329280562612e+00   4.406958300000000e+00 -3.12678479e+00  -5.27722277e+00   1.57565177e+00
C     1.107748504410000e+01   2.339317168393805e+00   4.842771300000000e+00 -2.29634888e+00   1.28308702e+00  -7.74654600e-02
C     2.376040023400000e+00   3.092800563220368e+00   4.744485900000000e+00  1.43636145e+00   2.99454939e+00  -1.49760330e-01
C     3.647067233900000e+00   2.431260622176787e+00   4.467913500000000e+00 -2.48881439e+00   3.11886200e-02   6.66646170e-01
C     4.822677153799999e+00   3.182034930538464e+00   4.470153300000000e+00  2.56371299e+00  -8.82355800e-01  -2.46212788e+00
C     6.039293482600000e+00   2.468951216704773e+00   4.214808900000000e+00  1.91594907e+00  -2.43396744e+00   1.90488959e+00
C     7.325502726699999e+00   3.108808902337539e+00   4.312268400000000e+00 -7.51653210e-01   1.00581283e+00  -3.45836660e-01
C     8.552021798599998e+00   2.290708595066091e+00   4.687316100000000e+00 -8.49787560e-01   7.94857545e+00  -1.29381855e+00
C     9.786318487799999e+00   3.071401119836650e+00   4.884949499999999e+00  7.58242380e-01  -8.04355880e-01  -1.79518784e+00
C     1.218477571420000e+01   4.634220893918616e+00   4.755450300000001e+00  2.71168685e+00  -2.96006307e+00  -2.10907480e+00
C     3.661096337700000e+00   5.183064682449253e+00   4.288509599999999e+00 -3.39793881e+00   2.90705021e+00   2.21908695e+00
C     4.903238727500000e+00   4.597899273550783e+00   4.250106000000000e+00 -2.74709960e+00  -3.55966932e+00   3.53072630e-01
C     6.031180082999999e+00   5.258033351908938e+00   3.897039000000000e+00  3.45753226e+00   1.66521937e+00   1.87229360e-01
C     7.272278496000000e+00   4.569485801568688e+00   3.990453300000000e+00  3.84893421e+00  -3.02531030e+00   2.01497774e+00
C     8.649942691100000e+00   5.159211639794211e+00   4.151929800000000e+00 -3.61704750e+00   1.95109146e+00  -4.20738000e-01
C     9.834895996299998e+00   4.486516079289244e+00   4.539636600000001e+00 -2.43938143e+00  -8.61508200e-02   8.06244070e-01
C     1.093221667810000e+01   5.371240051858481e+00   4.631605800000000e+00  3.13866707e+00  -4.49862933e+00   7.44525060e-01
C     1.355462620440000e+01   6.601768588006592e+00   4.268163900000000e+00 -1.38483654e+00   1.65658908e+00  -2.59436930e-01
C     4.888185219000000e+00   7.397114737881669e+00   4.186011000000001e+00 -1.04087811e+00   7.38484930e-01  -4.84559600e-02
C     6.097615727699999e+00   6.703007693988205e+00   3.881448000000000e+00 -4.61775000e-02   2.26860810e-01   1.42669318e+00
C     7.349705329200000e+00   7.375880951301262e+00   4.017693600000000e+00  8.98471650e-01  -1.54096910e-01  -3.59815590e-01
C     8.626607472800000e+00   6.615956666259740e+00   4.071924600000000e+00 -1.12964319e+00   7.18914070e-01  -3.09546560e-01
C     9.821841257700001e+00   7.398552792636606e+00   4.149450900000000e+00 -1.70923048e+00   3.16377980e-01   6.37921850e-01
C     1.099613501550000e+01   6.722769525942069e+00   4.466688000000000e+00  5.44984680e-01   6.99188500e-02  -1.43316005e+00
C     1.228099624970000e+01   7.314461471330614e+00   4.358818200000000e+00  4.85410410e-01  -7.54481710e-01   6.47091800e-01
