26
Lattice="8.88768389401873 1.33226762955019e-15 0 4.44384194700937 7.69696003302603 0 0 0 30 " PBC="1 1 1" Properties=species:S:1:pos:R:3:force:R:3 Energy="-207.38599059"
C     1.196502955396542e+01   6.039703320516606e+00  -3.913577999999980e-01  4.09243670e+00   1.57436059e+00   4.09972230e-01
C     8.316211907807611e+00   5.959210513732473e+00  -2.586918000000011e-01 -1.92741287e+00  -1.50220583e+00   1.05195479e+00
C     9.623329398664072e+00   5.530049650917357e+00  -2.096675999999995e-01  2.50733462e+00  -4.83196570e-01  -1.24360298e+00
C     1.000634715681149e+01   4.137426819371012e+00  -3.381587999999986e-01 -2.00416308e+00   8.92065500e-01   9.98923110e-01
C     5.871274371638052e+00   5.307275459194662e+00  -2.593946999999979e-01  1.63013916e+00   6.53341020e-01  -7.66900870e-01
C     7.302694209549315e+00   4.971727487291617e+00  -2.733327000000010e-01 -1.59025503e+00  -2.05546646e+00  -9.67020960e-01
C     7.693883659774631e+00   3.582303512333739e+00  -4.544706000000005e-01 -3.45783841e+00  -6.10582620e-01   1.32509358e+00
C     9.004493788218358e+00   3.169447812676575e+00  -2.588186999999991e-01 -8.37887670e-01  -2.80762132e+00  -1.35334993e+00
C     9.281505296509733e+00   1.713456678899242e+00  -2.769036000000007e-01  8.70612300e-01   1.26072048e+00   9.63125500e-02
C     3.450125521324398e+00   4.705782124335057e+00  -4.158344999999990e-01  5.54013150e-01  -2.84110063e+00  -3.70364000e-01
C     4.864043465454554e+00   4.317274911067194e+00  -4.395921000000023e-01 -4.10728440e-01  -9.57824900e-02   9.83512850e-01
C     5.272684371821977e+00   2.930128081734192e+00  -4.155560999999999e-01 -3.55286019e+00  -2.93476290e-01  -6.43553120e-01
C     6.592871823997055e+00   2.532523985346073e+00  -5.121548999999987e-01  2.25648119e+00   8.66979670e-01   8.04329660e-01
C     6.922613338714005e+00   1.144383401503597e+00  -4.301579999999987e-01 -8.74446820e-01  -5.03738770e-01   5.49415120e-01
C     8.253644698422914e+00   7.178717553612076e-01  -2.807057999999998e-01  5.55320340e-01   1.62545566e+00  -8.66592320e-01
C     2.387890739246860e+00   3.673133567346962e+00  -4.254914999999997e-01  4.54348635e+00   2.29683300e-02   2.95559600e-01
C     2.752175526089419e+00   2.243369440023852e+00  -3.795824999999979e-01  2.74263617e+00   3.44665412e+00  -4.43502500e-02
C     4.179857915159454e+00   1.889647713976372e+00  -3.558057000000012e-01  2.15097710e-01   2.29366970e+00  -1.37381210e-01
C     4.519589986490903e+00   5.485974394758367e-01  -2.575874999999996e-01  6.58417920e-01  -1.10054847e+00  -2.03305450e-01
C     5.931510645816814e+00   9.533346935717579e-02  -3.222363000000001e-01 -2.37232171e+00   5.61558212e+00  -1.45820550e-01
C     1.068468523320130e+01   6.498029042459796e+00  -3.007937999999974e-01 -1.99595903e+00  -3.31220019e+00   2.71099250e-01
C     1.773171548464650e+00   1.301776305038659e+00  -3.064362000000003e-01 -2.35377956e+00   5.84693200e-02   1.87388030e-01
C     6.542670189247017e+00   7.640890908904662e+00  -2.621934000000010e-01  1.81443193e+00   1.32041882e+00   5.18564330e-01
C     7.900523912403919e+00   7.282522528087070e+00  -1.917158999999984e-01  1.74285202e+00   9.82842780e-01  -6.36004040e-01
C     4.135667198819212e+00   7.061610461904434e+00  -3.216572999999983e-01  1.13716234e+00  -1.35929022e+00   3.14900520e-01
C     5.561416738843964e+00   6.721273364501122e+00  -2.346026999999999e-01 -3.94276909e+00  -3.64831825e+00  -4.28779930e-01
