32
Lattice="9.86 0 0 4.93 8.53901048131456 0 0 0 30 " PBC="1 1 1" Properties=species:S:1:pos:R:3:force:R:3 Energy="-257.48456024"
C     9.864866057899999e+00   2.211278378020712e-01   3.819078300000000e+00 -1.01968700e+00   5.99473540e-01  -5.59365590e-01
C     1.197170732600000e+00   9.649727391592289e-01   3.777325500000000e+00  8.00362570e-01  -1.73887919e+00   1.45668690e-01
C     2.426668264000000e+00   2.468103634524528e-01   3.796895700000000e+00  7.77337620e-01  -8.44646010e-01  -1.47586490e-01
C     3.685535037900000e+00   9.009480070911320e-01   3.803512800000000e+00  1.71625010e-01   1.11026425e+00   2.00606390e-01
C     4.935405991500000e+00   1.880834042663576e-01   3.870190500000000e+00 -1.18929948e+00   2.01027549e+00  -7.23960980e-01
C     6.134131744699999e+00   9.518669804844200e-01   3.813997500000000e+00  1.47087845e+00  -1.27502280e+00   4.25518200e-01
C     7.388176091200000e+00   2.132739121328816e-01   3.824326200000000e+00  1.47798240e-01   7.95012800e-01  -5.07488190e-01
C     8.647175679300000e+00   9.403131869643513e-01   3.791357700000000e+00 -1.70921664e+00  -2.00810270e-01  -2.56574900e-02
C     1.104875251110000e+01   2.344320345414248e+00   3.758924700000001e+00  1.47944578e+00   2.13175416e+00  -5.21069200e-02
C     2.454244219000000e+00   3.052361005048555e+00   3.789252600000000e+00 -2.38105560e-01   2.58005940e-01   1.76471300e-02
C     3.691783960800000e+00   2.347322234548491e+00   3.787418700000000e+00 -2.32092160e-01  -4.71443480e-01   5.51469500e-02
C     4.916297360800000e+00   3.078743814948401e+00   3.796106700000000e+00  9.10620200e-02  -8.61078530e-01   1.15153840e-01
C     6.156184226300000e+00   2.367239220322777e+00   3.815847300000000e+00 -4.81310840e-01   1.17300010e-01  -2.03736700e-02
C     7.389268086199999e+00   3.078188608486992e+00   3.816931200000000e+00  3.01762000e-03  -7.95091170e-01  -5.83799970e-01
C     8.613687717600000e+00   2.370843963596909e+00   3.734124900000000e+00  6.92837290e-01  -3.10369710e-01   4.96749890e-01
C     9.855024200299999e+00   3.090573845457499e+00   3.723426900000000e+00 -1.29232290e+00   7.72546000e-03   4.29445600e-01
C     1.233987740890000e+01   4.492648455055560e+00   3.836910300000000e+00 -2.17726580e+00  -7.88576640e-01  -3.20839640e-01
C     3.678662272800000e+00   5.186431528891413e+00   3.831693900000000e+00  1.07249438e+00   1.06734628e+00  -4.23935500e-02
C     4.916776951199999e+00   4.485174344572521e+00   3.807122100000000e+00 -1.16882850e-01  -8.89027400e-02   4.42110220e-01
C     6.149816687600000e+00   5.161324447157279e+00   3.871094400000000e+00 -2.27326350e-01   2.47197911e+00  -8.47941730e-01
C     7.389568323200000e+00   4.482395067441491e+00   3.799339800000000e+00 -5.37842860e-01   7.62999590e-01   5.78143280e-01
C     8.590796741600000e+00   5.230015492282380e+00   3.820680000000000e+00  8.50519910e-01  -1.93450910e-01  -2.66085330e-01
C     9.823621184899999e+00   4.517652897883726e+00   3.802467300000000e+00  1.22791815e+00  -5.66272700e-02  -1.61858650e-01
C     1.108422065660000e+01   5.222182828749286e+00   3.833820300000000e+00 -2.68628610e-01  -3.95067040e-01   1.63060050e-01
C     1.352827126250000e+01   6.617037790376614e+00   3.827325300000000e+00  6.00226780e-01  -6.97500000e-02  -3.98618590e-01
C     4.898189470799999e+00   7.354598321580911e+00   3.795565499999999e+00  3.01486040e-01  -1.12716002e+00   4.73003490e-01
C     6.123852891899999e+00   6.639767953153535e+00   3.822623700000000e+00  1.02262645e+00  -1.45736335e+00   3.10846600e-02
C     7.376216256299999e+00   7.346505645178699e+00   3.791145600000000e+00 -9.58007260e-01   5.88543030e-01   3.21478070e-01
C     8.615484061699998e+00   6.658352426342417e+00   3.815860199999999e+00 -8.99471200e-01  -1.03527483e+00   1.22608370e-01
C     9.843687714600000e+00   7.337494683589471e+00   3.845651399999999e+00  3.68574830e-01  -9.21126400e-02   2.23472780e-01
C     1.107021723810000e+01   6.650793865045730e+00   3.866058900000001e+00  3.65456150e-01  -1.73046131e+00  -5.87314400e-01
C     1.230847064670000e+01   7.314620809266170e+00   3.778560300000000e+00 -9.62077800e-02   1.61140826e+00   1.00449358e+00
