32
Lattice="9.86 0 0 4.93 8.53901048131456 0 0 0 30 " PBC="1 1 1" Properties=species:S:1:pos:R:3:force:R:3 Energy="-255.37378428"
C     5.026249277400000e+00   8.014009401921722e+00   9.430619999999999e-02 -3.85089210e-01   1.36037073e+00  -3.26212690e-01
C     1.331661872100000e+00   2.152328465270984e-01   8.049120000000000e-02  6.04076000e-03  -7.45419520e-01  -6.59211890e-01
C     7.519758382800000e+00   7.988346259825131e+00   6.593280000000000e-02 -1.02641383e+00   4.63432230e+00  -5.05250720e-01
C     3.816261333600000e+00   2.374333344839456e-01  -8.278560000000112e-02 -1.72968915e+00  -1.10340515e+00   3.53374730e-01
C     9.915751447300000e+00   8.049815778397193e+00  -9.219179999999838e-02  3.60961706e+00  -6.61283240e-01  -1.18368290e+00
C     6.300113357800000e+00   2.157582518419328e-01  -6.314460000000111e-02 -4.24481419e+00   1.58413267e+00  -1.93232270e-01
C     1.241343093830000e+01   8.082497987108345e+00  -7.368930000000162e-02  4.04225340e-01  -1.02323859e+00   2.39840290e-01
C     8.690858831700000e+00   2.548335323093560e-01   1.299813000000000e-01  2.43775729e+00  -2.92355305e+00  -7.63282900e-01
C     1.275454005400000e+00   1.640757884436070e+00  -1.911234000000022e-01  2.65840192e+00  -1.24419364e+00   5.05856000e-01
C     2.538314769500000e+00   2.336904385592577e+00  -3.760496999999994e-01 -2.42450630e-01   2.16561780e-01  -1.18203030e-01
C     3.791856305300000e+00   1.653576049237913e+00  -2.462027999999989e-01 -1.65543723e+00  -2.74660790e-01  -1.49272460e-01
C     4.962241805600000e+00   2.393688549114263e+00  -2.652575999999982e-01  4.18669734e+00  -1.76136821e+00   7.27118840e-01
C     6.264513482700001e+00   1.646546394250358e+00  -5.735759999999956e-02 -9.28136030e-01   2.17359440e-01   2.05040890e-01
C     7.513049688100001e+00   2.311944516399117e+00   9.808140000000000e-02 -1.51995617e+00   3.31421348e+00  -4.08503440e-01
C     8.745336120499999e+00   1.643202859306809e+00   1.390014000000000e-01 -7.81087200e-01   2.18429220e-01  -6.67308140e-01
C     9.941317046899998e+00   2.334082584189356e+00  -1.474487999999994e-01  3.15833110e-01   1.68620846e+00   6.79845930e-01
C     2.586466227400000e+00   3.764988564942405e+00  -5.908341000000021e-01 -7.47066440e-01  -1.50532731e+00   8.07517850e-01
C     3.822854025400000e+00   4.427972538048260e+00  -5.180922000000017e-01 -1.20622396e+00   4.43681022e+00   6.19537980e-01
C     5.039627917000001e+00   3.789854505020584e+00  -3.228317999999994e-01  2.40325890e-01  -1.39014670e-01   7.05475130e-01
C     6.242589427600000e+00   4.498271649626956e+00   1.423800000000000e-02  1.51702909e+00  -6.50196920e-01  -7.00979400e-01
C     7.502372688499999e+00   3.810040298844780e+00   7.867049999999999e-02  2.73979280e-01  -2.50688558e+00  -1.75671710e-01
C     8.780016106900000e+00   4.474548656101524e+00  -4.711529999999797e-02 -1.69990132e+00   5.49982680e-01  -1.92964680e-01
C     1.000104488430000e+01   3.784899573409354e+00  -2.388113999999995e-01 -5.67325400e-01  -1.43497681e+00  -2.12833080e-01
C     1.121584090920000e+01   4.474285569188635e+00  -4.984116000000007e-01 -5.52542480e-01   3.64003210e-01  -4.12688400e-02
C     3.751286447899999e+00   5.927653758569742e+00  -3.222996000000009e-01  8.59837220e-01  -6.80032570e-01  -2.24050460e-01
C     5.059852699700000e+00   6.593247424058495e+00  -9.281730000000010e-02 -2.85530747e+00   6.71998930e-01   7.83601000e-01
C     6.285798757700000e+00   5.906427827878978e+00   8.299350000000000e-02 -1.95272147e+00  -4.06240290e-01  -8.67154000e-01
C     7.474002756999999e+00   6.630588943838060e+00   8.817930000000000e-02  2.68198027e+00  -2.54032397e+00  -3.01783970e-01
C     8.726963292300001e+00   5.881605095193828e+00  -1.178327999999986e-01  1.41515140e-01   1.39529415e+00   2.96752710e-01
C     9.952479996599999e+00   6.611104629724796e+00  -3.155996999999999e-01 -2.04939301e+00   4.34266200e-01   1.23597916e+00
C     1.115618071140000e+01   5.902518241930710e+00  -4.829787000000003e-01  3.24598640e-01   8.79855660e-01   6.18182050e-01
C     1.231734380860000e+01   6.687917298497635e+00  -3.226920000000000e-01  4.48571683e+00  -2.36368882e+00  -8.72559800e-02
