32
Lattice="9.876 0 0 4.938 8.55286688777512 0 0 0 30 " PBC="1 1 1" Properties=species:S:1:pos:R:3:force:R:3 Energy="-258.07300572"
C     2.418558566929076e-03   1.124479375391686e-05   3.002511914660023e+00 -2.16438620e-01  -1.46299840e-01  -8.57211800e-02
C     1.230845757069486e+00   7.133912583144527e-01   2.996404267607074e+00  2.66058130e-01  -9.45225200e-02   8.54765200e-02
C     2.468866519733945e+00  -3.845593329399190e-03   3.001853235231364e+00 -1.29303160e-01   2.39767750e-01  -4.28037500e-02
C     3.703266140151785e+00   7.099241780668822e-01   2.996582879895567e+00  2.31234800e-02  -3.33586900e-02   3.00323600e-02
C     4.940620973794417e+00  -1.741589837758663e-03   2.995187273789221e+00 -2.53889270e-01   6.55414200e-02   6.69859200e-02
C     6.168450716896070e+00   7.139508636132254e-01   3.003803312355429e+00  2.39773330e-01  -1.69591750e-01  -9.99550800e-02
C     7.406514358769121e+00  -2.760742707892158e-03   3.000115995657683e+00 -9.97719700e-02   1.44350290e-01   1.73507100e-02
C     8.640178939466761e+00   7.090099341083164e-01   2.997657810570392e+00  1.05181720e-01   1.07518560e-01   2.92126400e-02
C     1.232346484138837e+00   2.136315440797166e+00   3.000137203818040e+00  1.62911450e-01   2.41433540e-01  -1.95126400e-02
C     2.469939840987539e+00   2.853666471029097e+00   3.000331098313226e+00 -5.39666700e-02  -2.70860720e-01  -1.65724600e-02
C     3.703892534634402e+00   2.133825872432650e+00   2.999804309102684e+00  3.98378000e-03   2.52839630e-01  -2.70481700e-02
C     4.940107149629333e+00   2.851603794907705e+00   2.997905284647530e+00 -1.99389720e-01  -7.75443100e-02   1.13492800e-02
C     6.168896162872198e+00   2.136534661824484e+00   2.997292541060254e+00  2.25165700e-01   1.01116830e-01   6.92271300e-02
C     7.408387857088381e+00   2.848704624628144e+00   3.002720646315268e+00 -9.89575900e-02  -1.68134600e-02  -6.46143600e-02
C     8.643558142783569e+00   2.136359578034764e+00   2.996353266490969e+00 -4.79022600e-02   4.95303800e-02   5.93171600e-02
C     9.878076973855684e+00   2.854721367317095e+00   3.000202332383052e+00 -1.41488860e-01  -1.98081440e-01  -4.04457400e-02
C     2.469761691669669e+00   4.276779521099765e+00   2.996046618595031e+00  3.32126300e-02   1.09870740e-01   3.03337700e-02
C     3.707248221456656e+00   4.990052228468587e+00   2.995853522812437e+00 -1.89281710e-01   2.77189200e-02   1.08235700e-02
C     4.939827057546120e+00   4.278166216541996e+00   2.999512694400402e+00 -1.32824900e-01  -1.33805300e-01  -3.54185900e-02
C     6.169877890240516e+00   4.986685644176303e+00   2.998657220846576e+00  2.26092290e-01   1.18519800e-01   1.34256800e-02
C     7.403593177092570e+00   4.274427641189935e+00   3.001926475830259e+00  1.55540700e-01  -1.06542000e-02  -1.38482100e-02
C     8.640251910049297e+00   4.989197369740543e+00   2.999191277738695e+00 -9.10646600e-02   3.71251500e-02   9.18556000e-03
C     9.874003209254688e+00   4.278936289471778e+00   2.997102924867173e+00  1.30343200e-01  -3.99690000e-03   3.10180100e-02
C     1.111041212832802e+01   4.991768900310896e+00   2.997956721608337e+00 -2.66458700e-02  -3.87280000e-04  -1.34393500e-02
C     3.703007607626184e+00   6.417035194268453e+00   2.996121975779416e+00  4.13309900e-02  -1.73402650e-01   7.94189000e-03
C     4.938007173513101e+00   7.124870984623524e+00   2.996999370398805e+00  1.43093200e-01   1.22189890e-01   2.39287300e-02
C     6.176840271552221e+00   6.412621734920125e+00   2.997190678396819e+00 -3.54956930e-01  -1.18848800e-02   3.79934500e-02
C     7.403749374513753e+00   7.127767009343766e+00   3.004192879681717e+00  2.46669320e-01  -1.00067760e-01  -5.39603300e-02
C     8.641793323631925e+00   6.415566938764639e+00   3.000473892608566e+00 -1.57497460e-01  -7.16959000e-02   7.32541000e-03
C     9.872722579499845e+00   7.127163851333062e+00   2.998764229225238e+00  1.38720640e-01   3.92500700e-02  -1.06805700e-02
C     1.110799669441879e+01   6.418838127986640e+00   2.999109092598565e+00  4.96878600e-02  -2.38262230e-01  -2.17360000e-03
C     1.234354141591982e+01   7.126298628078984e+00   2.999558400254739e+00  2.49124000e-03   9.44568500e-02  -1.47337600e-02
