32
Lattice="9.86 0 0 4.93 8.53901048131456 0 0 0 30 " PBC="1 1 1" Properties=species:S:1:pos:R:3:force:R:3 Energy="-255.26950542"
C     4.981611677000000e+00   8.165144251670807e+00  -7.703939999999996e-01  2.55418398e+00   9.18392630e-01   1.38421230e-01
C     1.351574635100000e+00   3.663702579793256e-01  -8.513213999999998e-01 -3.33581475e+00   1.79485896e+00   1.78404735e+00
C     7.477208538799999e+00   8.236802602937708e+00  -8.102367000000008e-01 -2.32714090e+00  -3.68979823e+00  -8.04415500e-02
C     3.709725315400000e+00   3.455459169514352e-01  -6.453803999999970e-01  4.09653232e+00   1.79687092e+00  -1.08626042e+00
C     9.908244782800001e+00   8.189657189055742e+00  -7.594902000000019e-01 -6.65599000e-02   9.97917400e-02   1.72079871e+00
C     6.212857287799999e+00   3.437129329617984e-01  -6.779177999999995e-01  1.58801337e+00   3.02911010e-01  -4.19537460e-01
C     1.242649997390000e+01   8.173480631432117e+00  -6.427988999999990e-01 -1.80673173e+00  -2.21191100e-01   2.88818300e-01
C     8.714019330799999e+00   3.424069766989872e-01  -7.313763000000009e-01 -5.50184690e-01   7.50095080e-01  -2.88712480e-01
C     1.334938596600000e+00   1.800238079907467e+00  -5.550231000000032e-01 -2.04596191e+00  -6.71363390e-01  -1.81203410e+00
C     2.560472358700000e+00   2.495377148607543e+00  -5.606214000000023e-01 -1.47768942e+00   3.58370760e-01   1.16591507e+00
C     3.773514486800000e+00   1.780616629285894e+00  -6.007823999999999e-01 -1.00414142e+00  -8.95574990e-01  -6.90434500e-02
C     4.971123742900000e+00   2.470588742744523e+00  -6.427329000000022e-01  2.67060977e+00   8.99031520e-01  -1.06642270e-01
C     6.243029380799999e+00   1.764679761686442e+00  -7.080759000000008e-01 -6.02245570e-01   7.76408920e-01  -1.67127540e-01
C     7.476799299500000e+00   2.523435995484404e+00  -7.690568999999989e-01 -5.23529560e-01  -2.46739329e+00   2.20848700e-02
C     8.721723146000000e+00   1.776087196566883e+00  -8.115539999999974e-01 -7.48385790e-01   1.47082216e+00   1.26818656e+00
C     9.894151983399999e+00   2.555046985330840e+00  -5.947247999999981e-01  2.74197987e+00  -2.15454025e+00  -1.13954112e+00
C     2.496576797900000e+00   3.895214537459846e+00  -3.708483000000022e-01  1.17114480e+00   1.39729815e+00  -8.02905930e-01
C     3.769041645700000e+00   4.577436047276091e+00  -4.110603000000026e-01 -1.27500256e+00   1.17021459e+00  -1.00866331e+00
C     4.996324571800000e+00   3.910607043141198e+00  -6.335856000000000e-01  6.87817890e-01  -2.05454810e-01   8.28184670e-01
C     6.259961810900000e+00   4.656449731390257e+00  -6.843182999999975e-01 -1.45238648e+00  -1.67467938e+00  -6.17319370e-01
C     7.460440425600000e+00   3.915443026336441e+00  -7.254968999999996e-01  2.06912943e+00   1.31171184e+00   2.52578720e-01
C     8.761238180599999e+00   4.643771606360287e+00  -6.450849000000005e-01 -5.05230269e+00   1.70811672e+00  -1.06898636e+00
C     9.955317951100000e+00   3.981046963002710e+00  -6.577719000000002e-01 -1.07571820e+00  -1.78758162e+00   1.30286950e+00
C     1.111896907140000e+01   4.694605701989403e+00  -4.438341000000001e-01  2.90268821e+00  -4.17013047e+00   2.29670290e-01
C     3.713618733600000e+00   6.008711254842296e+00  -5.403957000000013e-01  3.55231113e+00   8.13461970e-01   9.69086110e-01
C     5.020139380500000e+00   6.780325530621043e+00  -6.214520999999991e-01 -2.12549967e+00  -2.14168989e+00  -1.39809245e+00
C     6.256522889399999e+00   6.059935412470139e+00  -8.086053000000000e-01 -4.12381612e+00  -8.58538570e-01   1.36201089e+00
C     7.391036575799999e+00   6.750731625830192e+00  -8.230892999999995e-01  3.54943460e+00   3.62020532e+00  -8.67364600e-02
C     8.594611181199999e+00   6.101116327531826e+00  -6.945573000000032e-01  4.93830214e+00  -2.01762140e+00   3.81692050e-01
C     9.911023478699999e+00   6.795130637771476e+00  -6.084933000000028e-01 -1.23019396e+00  -1.34584615e+00  -2.20045890e-01
C     1.114316620160000e+01   6.029391884323808e+00  -4.050177000000019e-01 -6.83505960e-01   4.56579239e+00  -1.00366502e+00
C     1.240096740530000e+01   6.743768489734276e+00  -4.717131000000023e-01 -1.01533623e+00   5.47048870e-01  -3.38609160e-01
