26
Lattice="8.88768389401873 1.33226762955019e-15 0 4.44384194700937 7.69696003302603 0 0 0 30 " PBC="1 1 1" Properties=species:S:1:pos:R:3:force:R:3 Energy="-201.6141731"
C     3.090404114227410e-01   3.752954583459676e-01   4.005004800000000e+00 -2.61917032e+00  -7.74985900e-01   5.33471110e-01
C     7.056300284142452e+00   7.514644138978997e+00   3.557037900000000e+00 -1.87061545e+00  -2.69850785e+00   1.57649797e+00
C     3.969203985728274e+00   1.026363450336398e-01   3.643315500000000e+00 -1.57205071e+00   7.02922726e+00  -1.60564697e+00
C     9.480961590884949e+00   7.064877513558768e+00   3.575685600000000e+00  5.57877252e+00  -1.02131711e+01   4.02157220e-01
C     1.089654344313761e+01   7.266011548217917e+00   3.957832199999999e+00 -2.28097600e-02   9.57479000e-01  -1.37820092e+00
C     1.197383440476304e+01   6.226710816554293e+00   4.005965400000000e+00 -6.40082073e+00  -4.72837200e-01   6.99025900e-01
C     4.393496819579907e+00   6.626745535950286e+00   4.107336300000000e+00  8.78564480e-01   1.52587562e+00  -5.90055500e-02
C     5.367070598839186e+00   5.625046070394820e+00   4.133096700000000e+00  1.01571579e+00  -3.46414510e-01   7.85360300e-02
C     6.702056356329003e+00   6.103280980060409e+00   3.765182700000000e+00  9.50235640e-01  -1.52612354e+00  -1.47648517e+00
C     7.721226753575406e+00   5.118513056270134e+00   3.364316700000000e+00  2.16391554e+00  -2.80869893e+00   3.64680795e+00
C     9.252306235519583e+00   5.409570444050972e+00   3.333190500000000e+00 -3.68422385e+00   2.26664253e+00   1.14000489e+00
C     1.023274286203502e+01   4.328439505529910e+00   3.528128400000000e+00 -3.48595635e+00   3.59441001e+00  -6.25849920e-01
C     1.144557909171846e+01   4.741031430366846e+00   4.022110500000000e+00  2.64877032e+00   5.51493118e+00  -1.31037806e+00
C     3.618484872295511e+00   3.907241840592233e+00   4.005227100000000e+00  1.46760640e-01  -2.97936829e+00   6.25518760e-01
C     4.915985623020092e+00   4.197924078541208e+00   4.341316500000000e+00  4.79949741e+00   3.98947442e+00  -2.36772102e+00
C     5.983720769204314e+00   3.289801174246469e+00   4.116657300000000e+00  2.01205665e+00  -2.13293616e+00   4.95653930e-01
C     7.419429448255029e+00   3.572308932765183e+00   3.857972700000000e+00 -5.93932080e-01   5.28895807e+00  -2.17928826e+00
C     8.523813536666829e+00   2.676054202049503e+00   3.740176800000000e+00 -3.27320148e+00  -7.59263700e-01   1.40702956e+00
C     9.851851480463369e+00   2.957972989186722e+00   3.461508900000000e+00  3.20630960e-01   4.07213500e+00   9.94396040e-01
C     2.027644736216721e+00   2.117567169539920e+00   3.612200700000000e+00 -1.21462052e+00  -2.29502580e-01  -6.69651460e-01
C     3.356105689444420e+00   2.578695431599633e+00   3.648304500000000e+00  1.17258700e-01  -1.72859506e+00   3.15230650e-01
C     4.360559282017251e+00   1.610770380595007e+00   3.627600900000000e+00 -9.23577210e-01  -3.52533610e+00   2.14364597e+00
C     5.652861004274455e+00   1.867212691850528e+00   4.078680299999999e+00  2.27193190e+00   2.24168013e+00  -1.63971364e+00
C     6.783813757154334e+00   9.724811895247841e-01   4.031880900000000e+00 -6.11241780e-01  -1.53708676e+00   1.60166028e+00
C     8.161314417055376e+00   1.369310509916283e+00   4.166682600000001e+00  1.51262560e-01  -1.52023380e+00  -2.33292797e+00
C     1.584294178506169e+00   8.137660252261691e-01   3.711039900000000e+00  3.21684713e+00  -3.22775174e+00  -1.47673400e-02
