32
Lattice="9.86 0 0 4.93 8.53901048131456 0 0 0 30 " PBC="1 1 1" Properties=species:S:1:pos:R:3:force:R:3 Energy="-252.65531768"
C     5.013378772899999e+00   7.452068308336652e+00   4.090962000000000e-01  2.53831985e+00   1.34409990e-01  -9.65717670e-01
C     6.306511462500000e+00   8.125354426806416e+00   2.591073000000000e-01 -2.22870551e+00   3.12104758e+00   6.01326440e-01
C     7.484354869600000e+00   7.442245799191403e+00   2.306247000000000e-01  3.43605135e+00  -5.71354680e-01  -8.67629120e-01
C     8.785518036199999e+00   8.164373349804672e+00   7.125750000000000e-02 -3.88362718e+00   1.97808614e+00   4.22718800e-02
C     9.970857853399998e+00   7.494819632815715e+00  -7.308300000000045e-02  1.12731269e+00  -3.06566412e+00  -3.29499150e-01
C     1.125202676410000e+01   8.050202254011518e+00  -9.880919999999804e-02  8.89669700e-02   3.98206630e+00   2.17121197e+00
C     1.247571369890000e+01   7.416047517308030e+00   1.651500000000000e-01 -8.76689020e-01  -1.14388700e+00  -1.43451570e+00
C     1.368395262660000e+01   8.131294760227039e+00   4.010586000000000e-01 -1.38629348e+00   3.13491355e+00  -1.59240950e+00
C     1.400115217900000e+00   1.068786698360982e+00   3.678660000000000e-02 -1.11399093e+00   6.12566700e-01  -2.15310940e+00
C     2.556986010600000e+00   1.811684281895488e+00  -3.514581000000021e-01  2.93556124e+00  -2.43780758e+00   3.04972569e+00
C     3.804424403600000e+00   1.077610484840490e+00  -4.494359999999986e-02  7.94351660e-01  -1.42629474e+00  -1.76795957e+00
C     5.125265566600000e+00   1.627884130676003e+00  -1.711644000000021e-01 -3.00283847e+00   4.59592570e+00   6.05692120e-01
C     6.296040931299999e+00   9.397216043182968e-01   2.480700000000000e-02  2.80272540e+00   9.99001580e-01  -8.84662520e-01
C     7.583854150900000e+00   1.750777484114058e+00   2.434770000000000e-02 -3.06432689e+00  -3.81893800e-01  -7.94959250e-01
C     8.761698642600001e+00   1.086359042637669e+00   1.300341000000000e-01  3.62310121e+00  -1.42513423e+00  -2.60383730e-01
C     1.006857134080000e+01   1.842437528139208e+00  -2.153774999999989e-01 -4.20220049e+00  -1.69692795e+00   1.65414992e+00
C     2.588748225800000e+00   3.220791278964459e+00  -4.017723000000011e-01  1.26000333e+00   2.68290200e-02  -2.15387610e-01
C     3.811687920500000e+00   4.011652142804707e+00  -2.325945000000011e-01  1.50480926e+00  -6.48955921e+00  -1.31324708e+00
C     5.083516354600000e+00   3.144157587851280e+00  -2.095419000000014e-01  3.40580100e-02   1.78004894e+00   1.17429531e+00
C     6.307884418200000e+00   3.928933296653164e+00  -2.535989999999799e-02 -1.01933414e+00  -2.65992639e+00  -1.10991363e+00
C     7.559025290499998e+00   3.148616232173412e+00  -2.056635000000000e-01 -1.00017495e+00   3.49567252e+00   6.79261430e-01
C     8.716192869200000e+00   4.010865785329603e+00  -4.209302999999984e-01  2.09137390e-01  -2.51392251e+00   1.60928342e+00
C     9.924547997000001e+00   3.299235240299399e+00  -5.179350000000014e-01  2.86318984e+00  -3.61866891e+00   8.25610250e-01
C     1.124279203600000e+01   3.871280971935978e+00  -4.951934999999992e-01 -2.52024283e+00   2.80290056e+00   3.90387150e-01
C     3.809036418600000e+00   5.368811471887864e+00  -2.277309000000010e-01  8.51551560e-01   1.22364572e+00   1.95541095e+00
C     5.006114122100000e+00   6.076797652635309e+00   1.617681000000000e-01  1.18272244e+00  -1.86262063e+00  -3.26964820e-01
C     6.268885801100000e+00   5.347341410887476e+00   1.685295000000000e-01 -2.65424300e-02  -7.88425530e-01  -1.11434832e+00
C     7.526022637999999e+00   6.013946351387374e+00   1.156179000000000e-01 -1.36564791e+00   2.10315968e+00   1.08828236e+00
C     8.769128793499998e+00   5.411677219107359e+00  -9.257280000000279e-02 -2.77414736e+00  -2.90937398e+00  -1.40527332e+00
C     9.933900305599998e+00   6.076267294694397e+00  -1.982874000000017e-01  3.84775890e+00  -5.58198500e-01   5.50288770e-01
C     1.122231148490000e+01   5.268743576583687e+00  -2.707964999999994e-01 -1.46669211e+00   2.88538521e+00  -9.37270370e-01
C     1.241829867240000e+01   6.015347432226933e+00  -1.773014999999987e-01  8.31832610e-01   6.74000580e-01   1.07605310e+00
