32
Lattice="9.86 0 0 4.93 8.53901048131456 0 0 0 30 " PBC="1 1 1" Properties=species:S:1:pos:R:3:force:R:3 Energy="-255.07883329"
C     1.152656825900000e+00   1.015297141252794e+00   3.461304300000000e+00  7.55818910e-01  -2.28272563e+00   1.07935131e+00
C     2.443095862100000e+00   1.625641359573431e+00   3.409787100000000e+00 -8.72835860e-01   2.36869365e+00  -2.42880510e-01
C     3.657425361100000e+00   9.069449541512360e-01   3.644296200000000e+00  5.35332820e-01   3.57190114e+00  -8.02659800e-02
C     4.874591039799999e+00   1.752766475825165e+00   3.666171000000000e+00  2.01919470e-01  -4.86839404e+00  -3.82810600e-02
C     6.107217198499999e+00   9.998833734353464e-01   3.727421700000000e+00 -2.25684050e-01  -2.86862888e+00   6.35177250e-01
C     7.364656244399999e+00   1.601840831832842e+00   3.755553600000000e+00 -8.76026050e-01   3.36266223e+00  -1.41134255e+00
C     8.603432035799999e+00   9.711379047257888e-01   3.627196800000000e+00 -2.11175476e+00  -3.00454532e+00   8.24939900e-01
C     9.729017985199999e+00   1.682130585673138e+00   3.377127600000000e+00  3.96597307e+00   1.45546331e+00   9.81558050e-01
C     2.460483676300000e+00   3.126796840254287e+00   3.227631300000000e+00 -9.71419000e-02  -2.13499510e+00   9.77371840e-01
C     3.702376854600000e+00   3.873063404983573e+00   3.304340700000000e+00 -1.06315319e+00  -3.60739840e+00   6.00210060e-01
C     4.926043280600000e+00   3.098903906351053e+00   3.561405600000000e+00 -2.17853040e+00   2.63803190e+00  -4.83701460e-01
C     6.136672863899999e+00   3.772017792979436e+00   3.702228900000000e+00  4.51699800e-02   1.49039242e+00  -2.45969100e-01
C     7.322356006300000e+00   3.053842779537149e+00   3.633396600000000e+00  2.48767280e+00   5.31315840e-01   6.26575300e-01
C     8.565659361800000e+00   3.855060096847960e+00   3.538170300000000e+00 -9.41349500e-01  -1.85987848e+00   1.28240151e+00
C     9.791951012800000e+00   3.122425293839052e+00   3.442582800000000e+00 -8.41993760e-01  -5.16955950e-01  -9.10738570e-01
C     1.103812905130000e+01   3.782638101873832e+00   3.335823600000000e+00  1.43268642e+00   1.10943750e-01  -4.71583700e-01
C     3.622935130400000e+00   5.232525278242663e+00   3.376131300000000e+00  3.55249278e+00   1.37720158e+00   4.62231000e-01
C     4.931323310600000e+00   5.935336050128284e+00   3.576362100000000e+00 -2.51557911e+00   2.54496010e-01   3.22514770e-01
C     6.108818807600000e+00   5.225802344511549e+00   3.778311600000000e+00  6.86428060e-01  -2.29491050e-01  -1.43034742e+00
C     7.296636048400000e+00   6.013997243889835e+00   3.763470900000000e+00  2.03237102e+00  -3.10781169e+00   1.36703044e+00
C     8.554736503099999e+00   5.248224163620038e+00   3.789410400000000e+00 -2.99458670e-01  -4.00311200e-02  -1.76876613e+00
C     9.809865548200001e+00   5.885082265651389e+00   3.670988400000000e+00  5.95531190e-01   1.43753363e+00   4.54570030e-01
C     1.107757018520000e+01   5.194984884909020e+00   3.398845800000000e+00 -2.88771925e+00   1.41466680e-01   8.84872950e-01
C     1.227241297180000e+01   5.881554800422101e+00   3.418108200000000e+00  3.10969710e-01   3.52190542e+00  -1.45032320e-01
C     4.945162412200000e+00   7.358100511339178e+00   3.655170900000000e+00 -2.01567007e+00  -3.92895600e-02   8.91162100e-01
C     6.135359659800000e+00   8.092228958061249e+00   3.794398500000000e+00 -5.63200980e-01   2.11049968e+00  -1.92686104e+00
C     7.355479986099999e+00   7.390150235544076e+00   3.824664600000000e+00  1.04857300e-02   1.25078630e+00   3.19469670e-01
C     8.611565599099999e+00   8.092142970225714e+00   3.877620600000000e+00 -4.31231550e-01  -2.16555124e+00  -6.38492910e-01
C     9.806871361999999e+00   7.313457539868480e+00   3.844603200000000e+00  1.90743662e+00   6.02412750e-01  -1.00657478e+00
C     1.106755774960000e+01   8.035761506438265e+00   3.712043700000000e+00 -1.48095471e+00   1.63464584e+00  -1.01315200e-02
C     1.230718648030000e+01   7.368086286364804e+00   3.536017800000000e+00 -9.24703950e-01  -1.57598326e+00   1.37716316e+00
C     1.351755038590000e+01   8.056460153231891e+00   3.749388000000000e+00  1.80669917e+00   4.41327570e-01  -2.27563029e+00
