32
Lattice="10.028 0 0 5.014 8.68450274915035 0 0 0 30 " PBC="1 1 1" Properties=species:S:1:pos:R:3:force:R:3 Energy="-257.49045036"
C     2.448877334347103e-04   4.411991692613161e-04   2.999496799324711e+00 -4.84801200e-02  -2.25218000e-02   1.08626100e-02
C     1.254078465851648e+00   7.239059620825857e-01   3.000774707297739e+00 -5.22669400e-02  -2.50452600e-02  -1.72031400e-02
C     2.506165791999901e+00  -4.709525637777117e-04   2.999643834405799e+00  6.46546300e-02   4.58501700e-02   1.14345000e-02
C     3.760479310478771e+00   7.236839894158404e-01   3.000988785588180e+00 -3.13506100e-02   8.40536000e-03  -5.27625000e-03
C     5.013203803187097e+00  -3.480666525842650e-04   3.000778652791111e+00  2.23818300e-02   4.45072400e-02  -1.53212800e-02
C     6.267082451201832e+00   7.237560713232418e-01   2.999402381901257e+00 -1.00235000e-02  -3.08576300e-02   1.41513100e-02
C     7.520074736723263e+00  -9.466001105555874e-04   3.000129504962016e+00  2.27254600e-02   5.28229000e-02  -5.22855000e-03
C     8.773320164952741e+00   7.239662196573446e-01   3.000628962010351e+00  3.87393900e-02  -8.25533000e-03  -1.39841300e-02
C     1.252870920290816e+00   2.170367765385850e+00   3.000185407842284e+00  6.71619500e-02   4.33252200e-02   9.54800000e-03
C     2.508007308637895e+00   2.894874904325095e+00   2.999752304994390e+00 -8.36691700e-02   3.06929600e-02   1.14395400e-02
C     3.760543846802763e+00   2.172222226708128e+00   3.000878473407642e+00  7.16260000e-04  -6.38545600e-02  -9.77578000e-03
C     5.013186485916198e+00   2.894883936304602e+00   3.000014451230353e+00  4.89398900e-02   1.73066100e-02   1.03807900e-02
C     6.267120340821576e+00   2.170049790095434e+00   3.000190486893041e+00 -5.17099000e-03   7.11938100e-02  -1.51924000e-03
C     7.520753593742673e+00   2.895865667274728e+00   3.000774375977938e+00 -1.33254000e-02  -6.95765700e-02  -6.44360000e-03
C     8.773577566618455e+00   2.171664352382828e+00   2.999615583927329e+00  2.36413500e-02  -2.00981000e-02   2.18291900e-02
C     1.002828682960708e+01   2.894301486230146e+00   3.001217323263904e+00 -3.08576400e-02   1.16161900e-02  -2.20482100e-02
C     2.506428938433127e+00   4.343052089111076e+00   3.000249486227985e+00  4.04603800e-02  -3.29233300e-02  -1.17963300e-02
C     3.761052680113500e+00   5.067112844031943e+00   2.998979293003076e+00 -5.80088000e-02  -5.12062700e-02   1.94860200e-02
C     5.013888464257897e+00   4.343210423011504e+00   3.000495643552275e+00 -2.84235000e-03  -4.22746300e-02  -1.03610000e-02
C     6.267051869948400e+00   5.065614702556658e+00   3.000585729103495e+00  4.70312500e-02   3.34778000e-02  -2.55550000e-03
C     7.521307213788959e+00   4.341545107494412e+00   3.001210140975985e+00 -3.42139000e-02   6.05581600e-02  -1.15810200e-02
C     8.774250067205896e+00   5.066502602313688e+00   2.999511624785642e+00  2.09974700e-02  -4.47447700e-02   1.83763400e-02
C     1.002837400568010e+01   4.341935505323955e+00   2.999666024622259e+00 -4.96778900e-02  -2.12003000e-03   8.48570000e-03
C     1.128030981353552e+01   5.065579039825161e+00   2.999969112525516e+00  4.67687000e-02   8.67196000e-03  -6.37836000e-03
C     3.760222904155810e+00   6.513036536145995e+00   2.999981314378099e+00  2.42627000e-03   4.18879400e-02  -1.26759000e-02
C     5.012837153481180e+00   7.236397377074238e+00   2.999083504443153e+00  7.50241800e-02   5.05193300e-02   4.38141000e-03
C     6.268252504527505e+00   6.513818374681915e+00   2.999084584282369e+00 -6.01694900e-02  -2.92666300e-02   7.11847000e-03
C     7.521081529438604e+00   7.237759894278891e+00   2.999499895921588e+00 -6.06002000e-03  -4.11111400e-02   7.35233000e-03
C     8.774274242503255e+00   6.513084553357620e+00   3.001194146471510e+00  1.58798600e-02   4.53539600e-02  -2.83731300e-02
C     1.002809540878641e+01   7.238114733591507e+00   2.999200735153936e+00 -1.82543500e-02  -8.53084100e-02   1.78079300e-02
C     1.128095481157705e+01   6.512328058863376e+00   2.999020068519871e+00  1.75130200e-02   7.60313400e-02   5.11274000e-03
C     1.253525345810461e+01   7.237612361338864e+00   2.999549212888812e+00 -5.06906900e-02  -7.30565000e-02   2.75454000e-03
