32
Lattice="9.86 0 0 4.93 8.53901048131456 0 0 0 30 " PBC="1 1 1" Properties=species:S:1:pos:R:3:force:R:3 Energy="-256.14204225"
C     1.251314161800000e+00   1.751919747545968e-01   3.118305600000000e+00 -8.52553300e-02   1.54384544e+00   8.57653970e-01
C     2.482182529000000e+00   9.129349846128512e-01   3.286001400000000e+00  9.32097220e-01  -1.00048576e+00  -2.83156140e-01
C     3.759734643800000e+00   2.143226734000352e-01   3.245914200000000e+00 -1.43890493e+00  -1.53507920e+00   1.00623810e-01
C     4.966066302400000e+00   8.858673460725088e-01   3.342710700000000e+00 -4.19179240e-01   3.09394073e+00   1.42910190e-01
C     6.196338780500000e+00   1.962050279140952e-01   3.391862700000000e+00 -4.69132630e-01   1.13986131e+00  -6.70541330e-01
C     7.421135458300000e+00   9.131540102316632e-01   3.294647400000000e+00 -3.27993570e-01  -6.56807430e-01   1.24053140e-01
C     8.619930379400000e+00   2.108959684944112e-01   3.213850200000000e+00  1.47485602e+00  -1.07244386e+00   7.00015900e-02
C     9.862175608999999e+00   9.071035235758496e-01   3.189542700000000e+00  3.53084390e-01   7.64669500e-02   3.50691960e-01
C     2.504334152900000e+00   2.302906486146666e+00   3.530735100000000e+00 -1.04635090e-01   4.33725670e-01  -6.81305940e-01
C     3.728367272300000e+00   3.065536612829090e+00   3.517126200000000e+00 -1.33258142e+00  -2.63662700e-01   7.90010130e-01
C     4.905631059299999e+00   2.390749677877361e+00   3.393713700000000e+00  3.81370685e+00  -3.14629286e+00  -5.56577730e-01
C     6.211547337499999e+00   3.030394656759070e+00   3.305636400000000e+00 -1.37841793e+00   9.47665480e-01   6.27360630e-01
C     7.449018749499999e+00   2.311976281518104e+00   3.287184000000000e+00 -2.42793613e+00   5.81400980e-01   8.65156300e-02
C     8.607871451499999e+00   3.047273035654047e+00   3.380057700000000e+00  2.62415495e+00   3.72942430e-01   2.43694150e-01
C     9.844780301200000e+00   2.313389402362438e+00   3.413199000000000e+00  1.75895415e+00   2.44232110e-01  -4.72109880e-01
C     1.114658160700000e+01   2.994921984813158e+00   3.559903500000000e+00 -2.85660802e+00   3.31902660e-01   1.69305560e-01
C     3.721524382999999e+00   4.469197343623812e+00   3.665964900000000e+00 -1.15665117e+00   1.52217067e+00  -7.50327040e-01
C     4.892472938599999e+00   5.225491182969657e+00   3.398512500000000e+00  2.85341736e+00  -3.04769417e+00   3.83225800e-01
C     6.221935981400000e+00   4.455270900651771e+00   3.332983200000000e+00 -1.57995883e+00   1.68142427e+00  -5.55227990e-01
C     7.444042654000000e+00   5.217165647751658e+00   3.241085400000000e+00 -5.41282850e-01  -4.07114570e-01   8.37105840e-01
C     8.656694375400001e+00   4.481396857116380e+00   3.428888400000000e+00 -9.83638000e-01  -1.87272200e-01  -7.69438990e-01
C     9.891401289899999e+00   5.160124289234314e+00   3.537711300000000e+00 -7.06606080e-01  -3.19118180e-01   5.26016500e-02
C     1.107080040780000e+01   4.410488230969621e+00   3.678344400000000e+00  2.14549720e+00   9.65874770e-01   2.94928460e-01
C     1.230794525660000e+01   5.170784475307651e+00   3.777127200000000e+00  4.19101500e-01  -3.51527300e-02  -1.34300936e+00
C     4.944693470600000e+00   6.603081375477787e+00   3.245100300000000e+00  9.00783410e-01   7.38207580e-01   1.56569620e-01
C     6.210417430800000e+00   7.303756711622571e+00   3.136422900000000e+00 -1.45782119e+00   9.30450070e-01  -3.01487210e-01
C     7.442471167199999e+00   6.678529510375923e+00   3.176201100000000e+00 -1.86152820e-01  -3.80043153e+00  -3.16112300e-02
C     8.682649001300000e+00   7.287553853846666e+00   3.206017800000000e+00 -1.50821000e-03   2.37080444e+00   7.75236400e-01
C     9.869963382100000e+00   6.574066074037062e+00   3.458189100000000e+00  8.00891630e-01   1.03107985e+00  -6.54891620e-01
C     1.107982378680000e+01   7.351802307989339e+00   3.450654600000000e+00  1.16619537e+00  -2.79031228e+00   7.19667500e-01
C     1.230594017630000e+01   6.592329992772524e+00   3.560714400000000e+00  1.73341919e+00   8.99617210e-01  -4.77852470e-01
C     1.361641207030000e+01   7.327037213624929e+00   3.299325900000000e+00 -3.52189580e+00  -6.43745160e-01   7.65380880e-01
