32
Lattice="9.86 0 0 4.93 8.53901048131456 0 0 0 30 " PBC="1 1 1" Properties=species:S:1:pos:R:3:force:R:3 Energy="-255.26606785"
C     5.022863402700001e+00   8.352433186402106e+00   4.773300000000000e-02 -2.29658664e+00  -3.07125003e+00   3.88646200e-02
C     1.273861171700000e+00   4.344179740548648e-01   1.835784000000000e-01  3.60755029e+00   1.78662925e+00  -2.01577307e+00
C     7.500381461500000e+00   8.264782293187420e+00   1.115760000000000e-02 -3.42519890e-01   9.82894430e-01   1.30000197e+00
C     3.837795425700000e+00   4.533359809930952e-01  -4.321290000000033e-02 -1.74133677e+00   1.02864593e+00  -9.58379260e-01
C     9.976064968699999e+00   8.325469382229199e+00  -6.741690000000133e-02  3.23488120e-01  -2.70384976e+00   4.26425280e-01
C     6.299399050100000e+00   4.650848055125272e-01   4.395360000000000e-02 -2.90332722e+00   9.09808950e-01  -6.15604020e-01
C     1.241071717050000e+01   8.267487110147064e+00  -2.583090000000254e-02  1.27633220e+00   2.28711445e+00   5.16880420e-01
C     8.683661031700000e+00   5.171722570998984e-01   1.073874000000000e-01  7.60126130e-01  -4.50841360e+00  -1.02193701e+00
C     1.259744018100000e+00   1.863397980994150e+00  -2.790300000000201e-02  3.05688939e+00  -1.11212854e+00   7.90562220e-01
C     2.534884524800000e+00   2.531407759498217e+00  -1.483595999999991e-01 -1.96062730e-01   2.56208147e+00  -1.12925990e+00
C     3.806776901000000e+00   1.887157350704226e+00  -2.490576000000004e-01 -1.90638668e+00  -3.54293410e-01   1.98817336e+00
C     4.948233999399999e+00   2.690064794359342e+00  -1.134327000000006e-01  2.88479323e+00  -2.29089116e+00   2.60004620e-01
C     6.194462669000000e+00   1.916574241807826e+00   9.019110000000000e-02  8.03553110e-01  -2.31149760e-01  -9.76343030e-01
C     7.457186033999999e+00   2.560105665919401e+00   5.396580000000000e-02 -9.81471120e-01   2.58282180e+00   1.71749890e-01
C     8.660943246599999e+00   1.853121025711155e+00   3.111150000000000e-02  1.40184937e+00   2.72882960e+00   5.77824130e-01
C     9.939895333499999e+00   2.549872942710694e+00  -4.251839999999873e-02 -1.79587751e+00   1.43618416e+00  -5.71280030e-01
C     2.568384712900000e+00   4.023858487505657e+00  -2.790495000000028e-01 -4.68540720e-01  -1.27647723e+00   7.92549450e-01
C     3.796185190400000e+00   4.768744806580956e+00  -2.402678999999992e-01 -2.26927950e-01  -7.05156180e-01  -7.82509300e-02
C     5.027689281099999e+00   4.101217140608588e+00  -1.344369000000007e-01 -1.80030640e-01  -1.92649809e+00  -2.54972340e-01
C     6.283507047200000e+00   4.748474220382692e+00  -5.262570000000011e-02 -1.49849956e+00  -7.03884520e-01   5.61065340e-01
C     7.498133874500000e+00   4.018642347563844e+00   3.687300000000000e-02 -5.13129170e-01  -6.33635690e-01  -4.01854160e-01
C     8.716662895399999e+00   4.724138040514693e+00  -2.978519999999918e-02  1.74666303e+00  -2.59947122e+00  -5.22419180e-01
C     9.965562392500001e+00   3.958276325316113e+00  -2.073689999999999e-01 -2.91175880e-01   2.37782878e+00   1.24390869e+00
C     1.120740286910000e+01   4.749298149503908e+00  -2.311416000000008e-01 -7.58571650e-01  -8.13183090e-01  -5.07826220e-01
C     3.807046670600000e+00   6.152352098213922e+00  -2.079567000000004e-01 -6.71306130e-01   2.50156697e+00  -5.31156090e-01
C     5.054045800600000e+00   6.895165743275410e+00  -1.550306999999975e-01 -3.78904835e+00   7.25385310e-01   1.20509002e+00
C     6.156736090500000e+00   6.135652440808291e+00   1.160790000000000e-02  6.38476497e+00   1.76829558e+00  -5.41169200e-02
C     7.489307991300000e+00   6.875196840317406e+00   1.050525000000000e-01 -1.03073140e-01  -2.12174028e+00  -8.05315700e-01
C     8.774680220000000e+00   6.094927252735922e+00   1.334640000000000e-02 -2.83789499e+00   3.02907576e+00  -5.35183400e-02
C     9.950196124800000e+00   6.842478853152342e+00  -1.043886000000001e-01  1.14988903e+00   2.12218200e+00   1.53523150e-01
C     1.120702744960000e+01   6.215819830628408e+00  -2.224014000000025e-01 -1.01021056e+00  -2.84909079e+00   1.74235670e-01
C     1.242204212000000e+01   6.892084868294226e+00  -2.068626000000009e-01  1.11607840e+00  -9.28231100e-01   2.97147390e-01
