32
Lattice="9.86 0 0 4.93 8.53901048131456 0 0 0 30 " PBC="1 1 1" Properties=species:S:1:pos:R:3:force:R:3 Energy="-256.9822556"
C     4.993293213399999e+00   7.248195590571935e+00  -2.116289999999985e-01 -1.75106620e-01  -1.06884745e+00   2.83904900e-01
C     6.240308119400000e+00   7.945086095711565e+00  -1.091811000000007e-01 -6.41184240e-01  -7.40074790e-01  -9.40631520e-01
C     7.452299122199999e+00   7.223130349989153e+00  -2.552343000000015e-01 -7.09024400e-02  -4.87005190e-01   2.39916500e-01
C     8.664091347399999e+00   7.948034786810518e+00  -2.123241000000000e-01  7.24499070e-01  -3.33999670e-01   4.09266780e-01
C     9.897358899099999e+00   7.227189880961451e+00  -1.422984000000014e-01  3.13717940e-01   1.36453429e+00  -7.15767050e-01
C     1.111450505500000e+01   7.940647347283851e+00  -1.453613999999988e-01  1.70092159e+00   6.32125320e-01   1.17148810e-01
C     1.237798399180000e+01   7.193638657153749e+00  -9.920699999999982e-02 -7.45654770e-01   1.38531883e+00  -2.35940030e-01
C     1.359651754830000e+01   7.930236500316530e+00  -1.534592999999980e-01  7.81651960e-01   7.72746400e-02   2.62794160e-01
C     1.319037670400000e+00   8.017454551089984e-01   1.821570000000000e-02 -5.11051290e-01   1.30081246e+00   6.97020010e-01
C     2.553314491700000e+00   1.529204678475874e+00   1.196739000000000e-01 -9.51683100e-01   2.46844530e-01  -1.23338295e+00
C     3.781742804700000e+00   8.364031638946984e-01  -1.207919999999980e-01 -1.71834499e+00  -4.38642730e-01   3.55501540e-01
C     4.961981550900000e+00   1.553559302606511e+00  -2.344419000000002e-01  1.97983586e+00   1.01221815e+00   5.84421840e-01
C     6.214936466000000e+00   8.611211229212592e-01  -2.068542000000022e-01 -2.15871600e-02  -1.22872173e+00  -1.36072850e-01
C     7.467228345399999e+00   1.571244874162163e+00  -1.740257999999990e-01 -3.32809090e-01  -2.15487558e+00   2.01470670e-01
C     8.703085428900000e+00   8.177485000396713e-01  -9.772110000000112e-02 -1.09718010e+00   2.88828840e-01  -4.05387000e-02
C     9.917342802000000e+00   1.520929267249392e+00   3.161670000000000e-02  9.31724620e-01   3.08992010e-01  -1.73365280e-01
C     2.490089706700000e+00   2.956395591939390e+00   1.280406000000000e-01  1.36741115e+00   5.49469250e-01  -3.13637090e-01
C     3.754887319900000e+00   3.685389531659836e+00  -4.794389999999993e-02 -1.12209567e+00  -9.96356860e-01   6.59764130e-01
C     4.984505291200000e+00   3.010784733801644e+00  -2.041295999999981e-01 -1.10389157e+00  -2.43579386e+00  -1.28621660e-01
C     6.201435315900000e+00   3.661268534855932e+00  -3.152109000000003e-01  1.70879226e+00   7.03299990e-01   4.72853710e-01
C     7.454256332199999e+00   2.952152130681354e+00  -1.993851000000006e-01  7.21827500e-02   1.30481232e+00  -5.04147580e-01
C     8.705754876000000e+00   3.659307038758571e+00  -1.436811000000020e-01 -1.54687660e+00   1.21435487e+00  -1.09968590e-01
C     9.900630496400000e+00   2.971963488896002e+00   4.968270000000000e-02  4.44845010e-01  -1.43008945e+00  -1.03224920e-01
C     1.111062272930000e+01   3.688701984605238e+00   1.206927000000000e-01  1.09694632e+00  -6.09151630e-01  -3.41741420e-01
C     3.761027536299999e+00   5.075125441894508e+00  -1.487399999998473e-03  1.17611307e+00   1.49807223e+00  -1.56868802e+00
C     5.006994176400000e+00   5.803058580343024e+00  -2.698889999999992e-01 -6.32083630e-01   1.25163870e-01   9.62557810e-01
C     6.245671318499999e+00   5.081734806786238e+00  -3.529869000000012e-01 -1.78924427e+00  -1.64262150e-01   1.54197620e-01
C     7.452781473400000e+00   5.766447743690233e+00  -3.547502999999992e-01  9.98279960e-01   2.10551787e+00   3.60515540e-01
C     8.685956094599998e+00   5.099214246628902e+00  -2.502831000000008e-01  1.44186048e+00  -5.63800590e-01   2.90195870e-01
C     9.952303650499999e+00   5.839992789322692e+00  -1.493292000000004e-01 -2.43151751e+00  -1.87708245e+00   6.10584400e-02
C     1.113269680430000e+01   5.099987624808076e+00  -9.080399999998434e-03  1.31369647e+00   1.06056900e-01   2.60907260e-01
C     1.240244497560000e+01   5.783311947827814e+00  -1.414350000000297e-02 -1.16126548e+00   3.05007760e-01   1.72232070e-01
