2
Lattice="2.444 0 0 1.222 2.11656608684917 0 0 0 30 " PBC="1 1 1" Properties=species:S:1:pos:R:3:force:R:3 Energy="-16.12003882"
C     0.000000000000000e+00   0.000000000000000e+00   3.000000000000000e+00  0.00000000e+00   0.00000000e+00  -0.00000000e+00
C     1.222000000000000e+00   7.055220289497226e-01   3.000000000000000e+00 -0.00000000e+00  -0.00000000e+00   0.00000000e+00
