32
Lattice="9.936 0 0 4.968 8.60482841200218 0 0 0 30 " PBC="1 1 1" Properties=species:S:1:pos:R:3:force:R:3 Energy="-257.96500678"
C     1.659625829506799e-06  -7.932051394488203e-05   3.000001943793695e+00 -2.50328300e-02   2.25977600e-02  -1.12107900e-02
C     1.241128558562983e+00   7.178646047260905e-01   2.999556268254518e+00  6.75969000e-02  -1.91210300e-02   2.67479000e-03
C     2.484693468208815e+00   7.826594847719892e-04   2.998794768856767e+00 -7.42735500e-02  -2.50531800e-02   2.40218100e-02
C     3.725323308045261e+00   7.175949755668491e-01   3.000797644432422e+00  5.23156000e-02  -2.01116700e-02  -1.43169500e-02
C     4.968728620481493e+00  -1.188349177455074e-05   3.000150467543465e+00 -5.09280200e-02   1.36275700e-02   4.59388000e-03
C     6.210037088032632e+00   7.165399754420900e-01   2.999225215056506e+00  1.17049100e-02   3.38950300e-02   9.52944000e-03
C     7.451605057999176e+00  -5.804876129054872e-04   2.999261777107352e+00  8.94799000e-03   2.29989300e-02  -3.00558000e-03
C     8.693770646253965e+00   7.171218058154316e-01   2.998778996929747e+00 -1.25307000e-03  -2.29033300e-02   1.39432400e-02
C     1.243150450573486e+00   2.152102521108365e+00   3.000720421647300e+00 -5.30870100e-02  -1.33037100e-02  -8.68727000e-03
C     2.484626325118606e+00   2.869367066318530e+00   3.001202811121558e+00 -3.94238100e-02  -2.10852000e-02  -7.56652000e-03
C     3.724969312234520e+00   2.151288196441083e+00   3.000635536066165e+00  6.49485000e-02   2.96626700e-02  -2.62502000e-03
C     4.967528879479845e+00   2.868752490520645e+00   2.999243255609740e+00  3.11304500e-02  -2.53865400e-02   2.12461800e-02
C     6.210879835619576e+00   2.151053313056762e+00   3.000334298320452e+00 -8.45458400e-02   1.46030400e-02  -1.75967600e-02
C     7.451451134241403e+00   2.868711330060233e+00   2.999711565681751e+00  4.22425600e-02  -5.27005000e-02   9.73678000e-03
C     8.693286603232796e+00   2.150384881400527e+00   2.999855881118609e+00  6.50181100e-02   6.66144300e-02  -1.07767400e-02
C     9.937053549037428e+00   2.868997939721692e+00   2.999558380851859e+00 -6.17801600e-02  -4.31616200e-02   1.36658400e-02
C     2.482769388122124e+00   4.302881760633758e+00   3.000358388499501e+00  3.88217000e-02  -6.70550000e-03  -1.82130000e-03
C     3.725751714477838e+00   5.018251778787879e+00   3.000186736332229e+00 -2.11343900e-02   6.72904000e-02   1.04670200e-02
C     4.967313896735027e+00   4.303299111150691e+00   3.000741534936484e+00  5.61704100e-02  -4.91798300e-02  -1.42950900e-02
C     6.210578541217188e+00   5.020437488277838e+00   3.000159218699953e+00 -1.94838100e-02  -4.43440900e-02   1.31520100e-02
C     7.452385937027339e+00   4.301321022187603e+00   3.000757575680401e+00 -2.17577000e-03   1.06820440e-01  -1.32503100e-02
C     8.694708792473396e+00   5.020617071844921e+00   2.999935324367212e+00 -4.14735400e-02  -6.55265200e-02   1.26140800e-02
C     9.936563036346939e+00   4.302861285322559e+00   3.000418259965219e+00 -4.43621500e-02  -1.79182000e-03  -1.14134000e-02
C     1.117688966312687e+01   5.019753383902737e+00   2.999586998415529e+00  5.70609600e-02  -1.23350100e-02   1.03744400e-02
C     3.727085071834412e+00   6.452401286001517e+00   3.001062392305003e+00 -1.02522960e-01   5.97257100e-02  -1.78597100e-02
C     4.967292635957039e+00   7.170790540523452e+00   2.999994965549771e+00  4.53841900e-02  -1.64531600e-02   1.06842700e-02
C     6.210383477028950e+00   6.454282419170775e+00   3.000848653888784e+00 -3.10757400e-02  -1.40697900e-02  -8.96592000e-03
C     7.451439513115648e+00   7.170639782925465e+00   3.000526736118188e+00  3.45879600e-02   4.81611100e-02  -7.01333000e-03
C     8.693372447453172e+00   6.453993940072351e+00   3.000778522798214e+00  3.56532300e-02   1.23634800e-02  -1.86590000e-03
C     9.936488482756824e+00   7.171032319000459e+00   3.000993564266162e+00 -3.28349200e-02  -1.68793200e-02  -1.11294500e-02
C     1.117794085006100e+01   6.452858078855104e+00   2.999997125806618e+00 -2.13929300e-02   5.97268700e-02  -4.40000000e-07
C     1.241877050623150e+01   7.171311332930228e+00   2.999651655334471e+00  9.51970300e-02  -8.79756300e-02   6.69671000e-03
