32
Lattice="9.86 0 0 4.93 8.53901048131456 0 0 0 30 " PBC="1 1 1" Properties=species:S:1:pos:R:3:force:R:3 Energy="-256.44096024"
C     4.913543807900000e+00   8.510089278454764e+00  -1.402484999999984e-01 -5.95065080e-01  -3.16003581e+00   3.10486380e-01
C     1.210299224000000e+00   6.369418697241600e-01  -8.997030000000095e-02 -3.17912320e-01   5.72854920e-01  -1.20969378e+00
C     7.347053531499999e+00   8.440353570787538e+00  -2.175420000000017e-01  1.40829412e+00   2.18611952e+00   5.93703150e-01
C     3.718439435500000e+00   6.422696145329464e-01  -1.756311000000004e-01 -3.25992340e+00  -1.49882751e+00   4.33542300e-01
C     9.808613229599999e+00   8.454473080786533e+00  -1.527111000000012e-01  3.14209658e+00   3.57067430e-01  -5.68466620e-01
C     6.180823232399999e+00   5.979588959600256e-01  -1.869771000000000e-01 -2.28402470e+00   1.74868399e+00   7.34666500e-02
C     1.232280945310000e+01   8.432011811449627e+00  -1.869683999999978e-01 -3.86765300e-01   2.02501930e-01   8.20721570e-01
C     8.602893827699999e+00   6.426680447619433e-01  -1.089504000000012e-01  2.66901220e-01  -1.49817868e+00  -3.75313510e-01
C     1.103840365230000e+01   2.073247408364132e+00  -1.141524000000018e-01  2.05205393e+00  -9.46524570e-01   1.71566752e+00
C     2.461726381400000e+00   2.712241458476951e+00   8.741940000000001e-02 -1.89563055e+00   1.87235128e+00  -1.05971642e+00
C     3.695965833300000e+00   2.015249936843343e+00   8.508000000000000e-03 -5.81869090e-01   1.82761344e+00  -3.77958170e-01
C     4.883115256300000e+00   2.793076598916604e+00  -4.689420000000055e-02  1.76200140e+00  -2.65878332e+00  -2.85422660e-01
C     6.129541076600001e+00   2.068329023717757e+00  -1.913690999999993e-01  8.02235150e-01  -1.39822558e+00   5.64635090e-01
C     7.403062669899999e+00   2.732705965603214e+00  -1.731797999999998e-01 -2.55611717e+00   1.20882321e+00  -3.49125000e-03
C     8.580746197100000e+00   2.018752468162030e+00  -8.049150000000083e-02  1.88815948e+00   2.23060116e+00  -4.91498470e-01
C     9.836654182199998e+00   2.791366832848194e+00  -5.517389999999978e-02 -4.91858690e-01  -1.74790318e+00   5.67318500e-02
C     2.410104154199999e+00   4.173440176638533e+00   1.003893000000000e-01  1.66621274e+00  -3.68728250e-01   8.53168200e-02
C     3.691123439400000e+00   4.858571610446154e+00   1.275600000000000e-03 -1.41976244e+00   7.91277510e-01   8.58428170e-01
C     4.914637626999999e+00   4.166340501765042e+00  -3.984840000000034e-02  8.85948610e-01   1.77906142e+00  -2.95206820e-01
C     6.188663805799999e+00   4.906044068429503e+00  -1.573481999999977e-01 -2.23636924e+00  -1.84505044e+00  -3.47221820e-01
C     7.391423284999998e+00   4.174703437848944e+00  -2.222660999999988e-01  6.39656500e-02  -7.52569190e-01   4.61782430e-01
C     8.596569229299998e+00   4.867180726202194e+00  -1.840994999999985e-01  1.62852791e+00   1.92023857e+00   3.69204790e-01
C     9.872233597799999e+00   4.184015741118013e+00   1.207140000000000e-02 -2.69116606e+00   1.03705103e+00  -6.71504130e-01
C     1.104256994600000e+01   4.932142700060576e+00   1.093710000000000e-01  1.64282521e+00  -8.78377040e-01  -7.55257350e-01
C     3.678251653100000e+00   6.284629824169497e+00   1.834560000000000e-02 -9.88558670e-01   8.36712350e-01  -9.82125290e-01
C     4.876280550800000e+00   7.017671169467358e+00  -1.578737999999973e-01  8.28028900e-01   8.68314770e-01   4.00325770e-01
C     6.121846332600000e+00   6.289782519263444e+00  -2.433443999999980e-01 -4.07574590e-01   1.95683531e+00   5.10210280e-01
C     7.319603390099999e+00   7.057817924969812e+00  -2.556858000000020e-01  1.83972359e+00  -2.00206632e+00  -3.50176000e-01
C     8.589491869200000e+00   6.326039328541733e+00  -2.430069000000010e-01 -3.61126140e-01  -2.76282330e-01   4.83230470e-01
C     9.821134985899999e+00   7.063114160829928e+00  -1.550589000000002e-01 -5.51363880e-01  -1.73229162e+00  -5.13155200e-02
C     1.106361370030000e+01   6.353224890816803e+00  -3.850170000000119e-02 -1.52798586e+00  -8.71862050e-01   3.56492840e-01
C     1.226775402320000e+01   7.016214243499261e+00  -3.494069999999994e-02  2.67609872e+00   2.39598050e-01  -2.69578290e-01
