32
Lattice="10.08 0 0 5.04 8.72953607014714 0 0 0 30 " PBC="1 1 1" Properties=species:S:1:pos:R:3:force:R:3 Energy="-257.07247496"
C    -7.658473794553527e-04   5.109914900069710e-04   2.999782503168340e+00  6.82323600e-02  -5.08292000e-03   5.22610000e-03
C     1.260193537886789e+00   7.280355758938170e-01   2.999220161816186e+00 -6.02005000e-03  -1.91534400e-02   1.25797500e-02
C     2.520184257841108e+00   2.877652308894404e-04   3.000110849792293e+00 -9.99464000e-03  -2.35439300e-02  -9.24011000e-03
C     3.780737440191356e+00   7.275711298548481e-01   2.999753455572106e+00 -7.58760000e-02  -1.47470900e-02   9.42302000e-03
C     5.038945598938298e+00   5.437069856843646e-04   3.001248989087029e+00  5.57778800e-02  -5.30659500e-02  -2.03839800e-02
C     6.299099170277693e+00   7.265869447239056e-01   2.999259659292916e+00  4.80404600e-02   4.16668100e-02   2.64726100e-02
C     7.561099599696819e+00   7.611174012269851e-04   3.001030642929675e+00 -5.74863900e-02  -5.17056000e-03  -2.21237900e-02
C     8.821176890868740e+00   7.281620726106858e-01   3.000990214318619e+00 -5.50425800e-02  -5.10559000e-03  -3.10864000e-03
C     1.259526177041052e+00   2.182347912243447e+00   3.000524409784164e+00  2.92630400e-02   2.97151000e-02  -1.03244800e-02
C     2.520998425317790e+00   2.910541302364063e+00   2.999390736591021e+00 -7.92338500e-02  -6.68807300e-02   2.02233000e-03
C     3.779412901753477e+00   2.181297377008374e+00   2.999291101001859e+00  3.60519300e-02   5.90111900e-02   1.25261300e-02
C     5.039939272652418e+00   2.908852851306929e+00   3.001188688586473e+00 -1.60278100e-02   2.50658700e-02  -2.57922300e-02
C     6.299031931392563e+00   2.182084287486326e+00   3.000223241941995e+00  3.84378600e-02  -1.87915400e-02  -7.47131000e-03
C     7.559714183116871e+00   2.909749347213914e+00   2.998984077010995e+00 -6.22500000e-04  -1.36949500e-02   1.49716100e-02
C     8.820390611049293e+00   2.182899320883610e+00   3.000773507056246e+00 -3.41732000e-02  -1.47934100e-02  -5.64351000e-03
C     1.007895382646318e+01   2.909478319545661e+00   3.001012476790330e+00  4.67932900e-02   5.91112000e-02  -6.32527000e-03
C     2.518740892882749e+00   4.364196618922670e+00   2.999219453402348e+00  9.29917500e-02   3.54381500e-02   1.59863600e-02
C     3.779658058727189e+00   5.092574474829187e+00   3.000907739021978e+00  1.48870500e-02  -1.70333000e-02  -2.10488200e-02
C     5.040842004118486e+00   4.364049826099240e+00   2.999214052618891e+00 -4.37273500e-02   2.70379000e-02   2.11649000e-02
C     6.300910729335444e+00   5.091680508775130e+00   2.999169405230865e+00 -2.68350400e-02   1.42137500e-02  -5.83458000e-03
C     7.560451233103027e+00   4.364162361968441e+00   2.998963899272943e+00  2.33552000e-03   1.45274500e-02   2.78092000e-03
C     8.820579019362253e+00   5.092388040098748e+00   2.999739724413251e+00 -4.10840900e-02   1.84677700e-02  -3.13958000e-03
C     1.007915844360857e+01   4.366027650989310e+00   3.000112425791478e+00  5.45196100e-02  -5.57482600e-02   4.34639000e-03
C     1.134088377030855e+01   5.091971706341892e+00   3.000135290584935e+00 -6.44266200e-02   3.48113400e-02  -1.37214700e-02
C     3.779310090471358e+00   6.547849367252153e+00   3.000469794323884e+00  4.01074100e-02  -2.04561200e-02  -6.51510000e-03
C     5.040367645905798e+00   7.275440837144560e+00   3.000017734832372e+00 -2.78879300e-02  -3.01007800e-02  -4.91129000e-03
C     6.300603306585349e+00   6.547388157353121e+00   2.998779108827682e+00 -4.64880800e-02  -3.01131700e-02   1.31924100e-02
C     7.559366138829098e+00   7.273569552782488e+00   2.999903794427183e+00  2.16958200e-02   8.58977300e-02  -5.01232000e-03
C     8.819004376205223e+00   6.547887550610908e+00   2.999888117064158e+00  4.84162400e-02  -4.51569700e-02   4.37019000e-03
C     1.007941326285330e+01   7.274662020281973e+00   3.000550687565238e+00  1.55749900e-02   5.97096000e-03  -6.38251000e-03
C     1.134120295188718e+01   6.547769824768782e+00   2.998781453901548e+00 -7.55245800e-02  -1.95043300e-02   1.50463400e-02
C     1.259946758053232e+01   7.275458274582651e+00   2.998963369139970e+00  4.73255000e-02   7.20781000e-03   1.68699300e-02
