26
Lattice="8.88768389401873 1.33226762955019e-15 0 4.44384194700937 7.69696003302603 0 0 0 30 " PBC="1 1 1" Properties=species:S:1:pos:R:3:force:R:3 Energy="-208.69067741"
C     7.893232057795302e-01   9.130583490051751e-01   3.519994800000000e+00  4.19577000e-02  -1.45973506e+00  -9.90708800e-01
C     3.176011705259993e+00   3.273164579989626e-01   3.645569700000000e+00 -7.91245900e-02  -1.63024794e+00  -1.29063538e+00
C     4.534295637250265e+00   7.304422765430030e-01   3.504159600000000e+00  1.19368480e-01  -1.56131387e+00  -1.75236900e-02
C     9.980755650884163e+00   7.423223881070674e+00   3.314478300000000e+00  6.59024500e-01  -9.08831370e-01   4.12594120e-01
C     6.927377358767592e+00   6.134284719909249e-02   3.265087500000000e+00 -3.18007650e-01   2.00828249e+00   2.04614570e-01
C     1.240534634486033e+01   6.792082779810712e+00   3.304100100000000e+00  5.85600730e-01   3.32581080e-01  -5.12440500e-01
C     4.895239948796916e+00   7.201711298066496e+00   3.364589100000000e+00 -6.78535980e-01   7.12123230e-01   7.73844560e-01
C     5.892299432730947e+00   6.192971423171590e+00   3.391674300000000e+00 -1.29090300e-02   8.89393420e-01   3.25168280e-01
C     7.237285478784623e+00   6.619006550518522e+00   3.453816000000000e+00  1.95120162e+00  -1.00071330e-01   6.27444290e-01
C     8.291522899387026e+00   5.621478991238517e+00   3.402825900000000e+00 -5.73366940e-01  -1.93348860e-01  -7.26075700e-01
C     9.662885147090707e+00   6.012961618345176e+00   3.308133000000000e+00 -1.78916340e-01   6.13518850e-01   2.59582440e-01
C     1.070930065043219e+01   5.039163555928859e+00   3.281139000000000e+00 -6.49200500e-02  -3.93150730e-01   8.90489000e-02
C     3.207937957747704e+00   5.399445939797110e+00   3.270982500000000e+00 -2.47885071e+00   2.07476045e+00   6.14822760e-01
C     4.180249908126388e+00   4.458841171449369e+00   3.420063900000000e+00  1.20508910e+00  -2.48154859e+00  -6.29524120e-01
C     5.527208842208367e+00   4.820836975589900e+00   3.408777300000000e+00  1.91476373e+00   1.48190790e-01  -8.98151020e-01
C     6.572489921573114e+00   3.839309471972256e+00   3.266072400000000e+00 -2.45979400e-02   1.32673300e-02   1.13089190e+00
C     7.950960938788192e+00   4.216016937635728e+00   3.295686900000000e+00  6.49336760e-01   8.47238090e-01   4.35827480e-01
C     9.021286444837715e+00   3.241913305906220e+00   3.383857800000000e+00 -1.40004994e+00   6.05440030e-01  -7.27293490e-01
C     1.039245414114853e+01   3.644922900353807e+00   3.389632200000000e+00 -1.57396049e+00   1.16621721e+00   4.83982020e-01
C     2.496382918051920e+00   2.699827186737362e+00   3.593232300000000e+00  1.29602869e+00  -1.68880419e+00  -1.11355945e+00
C     3.868321976415972e+00   3.054225706480280e+00   3.439803000000000e+00 -8.69388270e-01   1.26807179e+00   1.18986010e+00
C     4.878643795594831e+00   2.089991732658041e+00   3.472146600000000e+00  1.01647210e-01  -2.54848360e-01  -4.05662680e-01
C     6.232550143299276e+00   2.455825395008730e+00   3.333385800000000e+00  4.84984690e-01   7.65724430e-01  -3.74688360e-01
C     7.258101053265960e+00   1.497579271241829e+00   3.277368600000000e+00  5.93503970e-01  -1.98266193e+00   2.25585680e-01
C     8.637651924071951e+00   1.871634056600561e+00   3.345170400000000e+00  5.17293500e-01   2.49141690e-01   6.98061660e-01
C     2.177713144850891e+00   1.296729716225389e+00   3.627074100000000e+00 -1.86717277e+00   9.60611370e-01   2.14934420e-01
