32
Lattice="9.86 0 0 4.93 8.53901048131456 0 0 0 30 " PBC="1 1 1" Properties=species:S:1:pos:R:3:force:R:3 Energy="-256.70430068"
C     4.971644548100000e+00   8.519351030781792e+00  -2.810088000000022e-01 -2.26766276e+00   1.40845100e-02  -3.12917950e-01
C     1.232171316900000e+00   7.148061176376119e-01  -3.263232000000009e-01  3.13752960e-01  -5.63990790e-01   8.11777050e-01
C     2.452729131400000e+00   2.675767245991840e-02  -2.922092999999997e-01  1.81338005e+00  -2.85801891e+00  -5.73116910e-01
C     3.737672844500000e+00   6.538795947419735e-01  -2.524911000000003e-01 -1.16185865e+00   2.53396334e+00   9.34708230e-01
C     9.904764843700001e+00   8.525479137042868e+00  -1.706316000000001e-01 -9.51438250e-01  -3.47946290e-01  -2.35171020e-01
C     6.213317158200001e+00   7.248169973540496e-01  -1.711836000000027e-01 -1.15521264e+00  -2.14786207e+00  -3.91011790e-01
C     1.234756145480000e+01   8.528607574312426e+00  -1.898705999999990e-01  4.89012130e-01  -1.10709095e+00   6.40704640e-01
C     8.642949880500000e+00   6.859792721581800e-01  -2.841798000000004e-01  3.34077350e-01   5.22034470e-01   4.21793040e-01
C     1.105639608170000e+01   2.107324379047087e+00  -1.428275999999968e-01  1.13199710e+00   2.30429300e-02  -6.37703290e-01
C     2.439799023200000e+00   2.790713940106893e+00  -4.040129999999920e-02  1.52788960e+00   4.14228120e-01   2.79350220e-01
C     3.708552813500000e+00   2.105397636722380e+00  -9.440820000000016e-02  3.14390420e-01  -9.28536960e-01  -8.66316660e-01
C     4.964323843200000e+00   2.809148468271745e+00  -1.652681999999999e-01 -1.90679050e+00   8.10440540e-01   5.69922200e-02
C     6.174892787500000e+00   2.109452983579541e+00  -2.648864999999994e-01 -1.69346070e-01   2.28302020e-01   3.00863570e-01
C     7.381297262199999e+00   2.804529034382275e+00  -3.083795999999985e-01  8.17458090e-01   5.59382370e-01   2.48392510e-01
C     8.600563909700000e+00   2.128980675866044e+00  -2.663171999999996e-01  1.43318857e+00  -1.66968737e+00  -5.17636190e-01
C     9.857809946100000e+00   2.802732853527807e+00  -2.061236999999991e-01 -1.01207622e+00   1.54704096e+00   7.77307620e-01
C     2.510506167800000e+00   4.195759271450947e+00   8.976479999999999e-02 -1.78099738e+00   2.14038763e+00  -6.58804570e-01
C     3.759899700200000e+00   4.947567397811438e+00  -4.442700000002020e-03 -1.99472269e+00  -4.83192120e-01   1.56767680e-01
C     4.958811215799999e+00   4.252946220096974e+00  -1.644752999999994e-01  9.70483310e-01  -1.42342711e+00   4.92108650e-01
C     6.207294374400000e+00   4.926747411678893e+00  -2.157147000000030e-01 -1.39289988e+00   1.59892990e+00  -9.35818630e-01
C     7.417368741100000e+00   4.208449692656009e+00  -2.841629999999995e-01 -1.06363756e+00   5.21007440e-01   1.46935060e-01
C     8.606599560799999e+00   4.919575155216322e+00  -2.162663999999985e-01  1.94612073e+00   5.49371910e-01   4.33597850e-01
C     9.865859847299999e+00   4.240534682974189e+00  -7.479840000000237e-02 -4.40241620e-01  -4.54220080e-01  -5.77567360e-01
C     1.107045269490000e+01   4.957936062066988e+00   5.464800000000000e-02  2.21910891e+00   5.35550500e-01  -6.07203300e-02
C     3.710409451500000e+00   6.366418515909452e+00  -2.494860000000187e-02 -4.48893580e-01   3.43327810e-01  -3.23227010e-01
C     4.900360987899999e+00   7.100852146866078e+00  -2.301512999999993e-01  1.63149626e+00  -5.60849390e-01  -3.15028100e-02
C     6.137932084499999e+00   6.376281243794061e+00  -3.277217999999991e-01  1.30966561e+00  -3.63888690e-01   7.28241300e-01
C     7.395859446899999e+00   7.088596788244971e+00  -3.434424000000007e-01 -8.54914230e-01   5.39285470e-01   4.98322960e-01
C     8.619201577499998e+00   6.333075729347567e+00  -2.047236000000012e-01 -5.62724720e-01   1.98596297e+00  -4.65259770e-01
C     9.826389133399999e+00   7.106874113226889e+00  -1.286966999999990e-01  1.81199240e+00  -5.27206370e-01   2.06893590e-01
C     1.109550734930000e+01   6.447832345089336e+00   4.823399999999999e-03 -1.36850793e+00  -3.49300293e+00   1.92538610e-01
C     1.233277322960000e+01   7.072927277063648e+00   3.918600000000000e-03  4.67911170e-01   2.06257716e+00  -7.40520500e-01
