2
Lattice="2.467 0 0 1.2335 2.13648467113621 0 0 0 30 " PBC="1 1 1" Properties=species:S:1:pos:R:3:force:R:3 Energy="-16.13046571"
C     0.000000000000000e+00   0.000000000000000e+00   3.000000000000000e+00 -0.00000000e+00   0.00000000e+00  -0.00000000e+00
C     1.233500000000000e+00   7.121615570454033e-01   3.000000000000000e+00  0.00000000e+00  -0.00000000e+00   0.00000000e+00
