32
Lattice="9.86 0 0 4.93 8.53901048131456 0 0 0 30 " PBC="1 1 1" Properties=species:S:1:pos:R:3:force:R:3 Energy="-255.988068"
C     5.008362645800000e+00   8.372826648961174e+00  -2.061338999999975e-01  1.80984315e+00   3.58518631e+00  -3.44556570e-01
C     1.379707778700000e+00   6.095525666590360e-01  -2.294124000000011e-01 -2.42211220e+00  -3.72952813e+00   6.18191940e-01
C     7.478469682100000e+00   8.388055034861102e+00  -9.544230000000198e-02  2.09624334e+00   7.96266960e-01  -8.24256420e-01
C     3.823742707200000e+00   5.582750402156927e-01  -2.087150999999992e-01 -1.45245676e+00  -9.02207470e-01  -6.59384400e-02
C     9.951044183399999e+00   8.319077676714604e+00  -2.231808000000015e-01  1.21338770e+00   5.07602907e+00   1.24608309e+00
C     6.258832446500000e+00   5.132311622029592e-01  -1.108323000000020e-01  4.37603600e-01   1.46035858e+00  -9.43660680e-01
C     1.244496731020000e+01   8.347964807608026e+00  -1.874792999999997e-01 -1.20278206e+00   5.09560000e-01  -5.84185800e-01
C     8.714632474900000e+00   5.220910686967976e-01  -3.286314000000026e-01  1.60602710e-01   1.36479141e+00   1.00385018e+00
C     1.382742982500000e+00   1.967559734092753e+00  -3.165177000000021e-01 -2.03682059e+00   1.84315630e+00  -3.29540590e-01
C     2.594543736599999e+00   2.670648450769499e+00  -3.807317999999995e-01  5.14858600e-02   1.97557731e+00   2.77998090e-01
C     3.815810041400000e+00   1.982529387975136e+00  -3.380864999999993e-01  1.04436344e+00  -7.64867070e-01   8.84769560e-01
C     5.053304032800000e+00   2.705585129027581e+00  -2.134298999999977e-01 -1.35338727e+00   3.55059100e-02   7.52216000e-03
C     6.261227736300000e+00   2.007462188505373e+00  -1.041002999999989e-01  7.07032020e-01  -2.45321230e+00  -6.94959070e-01
C     7.506852086499999e+00   2.698603719449238e+00  -2.050790999999990e-01 -9.22779930e-01  -3.41581950e-01   1.26037910e-01
C     8.707485503199999e+00   1.969639068534738e+00  -3.478604999999995e-01  8.21150540e-01  -8.79616820e-01   8.13992720e-01
C     9.946163236900000e+00   2.649007780339721e+00  -3.158382000000017e-01  7.67622510e-01   1.46320075e+00  -1.10298110e+00
C     2.576768424400000e+00   4.124817001602898e+00  -3.693450000000027e-01 -1.37035930e+00  -5.74783140e-01  -5.15937590e-01
C     3.814786721300000e+00   4.831523526239811e+00  -3.124935000000022e-01 -1.44185570e+00   1.38649059e+00  -1.65412000e-01
C     4.991096454700000e+00   4.129895578085877e+00  -2.015400000000014e-01  2.15998610e+00  -8.16712250e-01  -4.44151480e-01
C     6.232020937300000e+00   4.833301860562375e+00  -1.967940000000006e-01  1.09566021e+00   1.41968020e-01   5.33751800e-01
C     7.476827647000000e+00   4.111060997280037e+00  -1.611375000000024e-01 -4.41507850e-01   3.83300010e-01  -5.95809760e-01
C     8.701232340499999e+00   4.810209302180683e+00  -2.293385999999984e-01  3.38916010e-01   1.56497175e+00   3.45570640e-01
C     9.903193159699999e+00   4.110720717712409e+00  -4.024700999999986e-01  1.01179989e+00  -1.71268837e+00   9.00605320e-01
C     1.112419299800000e+01   4.812045616384406e+00  -4.144898999999995e-01  3.34216546e+00   6.14074750e-01   6.67104440e-01
C     3.866538903300000e+00   6.295633876194864e+00  -3.259632000000003e-01 -1.70702880e+00  -2.82031749e+00   6.43796590e-01
C     5.007705920499999e+00   7.021695861276897e+00  -1.213028999999999e-01  3.87963259e+00  -2.93662016e+00  -1.30817519e+00
C     6.311678496899999e+00   6.252392839464772e+00  -1.896345000000004e-01 -2.70319860e+00   5.01760580e-01   1.11801610e+00
C     7.504079010799999e+00   6.962833644164799e+00  -6.854999999999833e-02  1.57768197e+00  -2.69287180e-01  -1.40622080e-01
C     8.784676928900000e+00   6.248975356690466e+00  -6.890130000000028e-02 -1.44990648e+00  -7.00277700e-02  -8.20995440e-01
C     1.001743338750000e+01   6.991747160600602e+00  -1.248491999999999e-01 -2.88926720e-01  -4.98534662e+00  -6.39969680e-01
C     1.126715042650000e+01   6.240579460026112e+00  -2.806478999999982e-01 -2.51008047e+00  -4.56387840e-01   1.20846600e-02
C     1.249273901020000e+01   6.927798425725777e+00  -3.002253000000010e-01 -1.21197436e+00   1.01098628e+00   3.21776700e-01
