32
Lattice="9.612 0 0 4.806 8.32423618117602 0 0 0 30 " PBC="1 1 1" Properties=species:S:1:pos:R:3:force:R:3 Energy="-256.59614178"
C     1.078292840653938e-03   5.854761783042781e-04   2.998890604762448e+00 -9.18090700e-02  -6.63774800e-02   1.15703800e-02
C     1.201080372050791e+00   6.932560490145222e-01   2.999773014914446e+00  3.34325000e-02   8.73192700e-02   8.12643000e-03
C     2.401972803487970e+00  -4.090848795116254e-04   3.000663995649441e+00  5.60756200e-02  -6.39882000e-03  -1.14615700e-02
C     3.603713815929468e+00   6.937521595932495e-01   2.999393993766213e+00 -5.60102000e-03  -5.80171000e-03   8.84524000e-03
C     4.804943422573061e+00  -7.350143972374797e-04   2.999846791803519e+00  6.92207100e-02   5.67770400e-02   1.47443000e-03
C     6.007863439478799e+00   6.934579522350368e-01   3.000991469627289e+00 -6.52077900e-02  -2.67220000e-04  -1.41446000e-02
C     7.209377111811724e+00   4.922486069101827e-04   3.000089614036829e+00 -2.63685000e-02  -5.94932100e-02   9.03060000e-04
C     8.410310157988198e+00   6.927292000305200e-01   2.999712984550896e+00  4.65350800e-02   5.06916200e-02   7.03730000e-04
C     1.201035643655502e+00   2.082241462479909e+00   3.001003422919907e+00 -1.61026700e-02  -1.13500250e-01  -2.22191000e-02
C     2.402526664814398e+00   2.774031333736871e+00   2.999463178848198e+00 -1.74752900e-02   1.03526920e-01   7.58799000e-03
C     3.603431722296697e+00   2.081467979561738e+00   2.999496353201202e+00  9.46372000e-02  -1.55088500e-02  -1.66305000e-03
C     4.806764429475476e+00   2.775544550084839e+00   2.999631435400578e+00 -7.74375500e-02  -8.20087800e-02   1.40798000e-03
C     6.007582222231525e+00   2.080984069206393e+00   2.999506292030157e+00 -1.58740000e-03  -5.15612000e-03   8.60008000e-03
C     7.209178277543040e+00   2.774397566235448e+00   2.999656200880920e+00 -1.44424100e-02   8.65789000e-03   6.76507000e-03
C     8.409486595972494e+00   2.080151176406856e+00   3.000529518410371e+00  3.94259300e-02   6.00319000e-03  -1.41444100e-02
C     9.610921437241446e+00   2.774123865255399e+00   2.999168885136146e+00  2.81723900e-02   6.68554300e-02   2.20562500e-02
C     2.402329266169072e+00   4.162776568169677e+00   2.999106960035916e+00  7.52159200e-02  -6.27011600e-02   8.97430000e-04
C     3.604882874007799e+00   4.854661105420695e+00   2.999182365716294e+00 -2.81551300e-02   1.03951660e-01   7.99093000e-03
C     4.806065648610090e+00   4.161706095635196e+00   3.000431424880961e+00  6.58204700e-02   5.53925800e-02  -1.83200800e-02
C     6.008686265212246e+00   4.856525747061205e+00   2.998857332996614e+00 -6.03793900e-02  -4.89295100e-02   1.60176400e-02
C     7.210149987861142e+00   4.161859536574521e+00   2.999968988018892e+00 -6.29732100e-02   2.35601100e-02  -9.73931000e-03
C     8.409811995437106e+00   4.856967061176805e+00   2.999871838426747e+00  1.17033670e-01  -8.75235200e-02   5.35553000e-03
C     9.612957170348620e+00   4.162390871680632e+00   3.000335141367171e+00 -8.31067100e-02   6.77812000e-03  -1.23768600e-02
C     1.081438630602150e+01   4.856868537545972e+00   2.999711342651765e+00 -6.52883700e-02  -6.81962300e-02   8.64764000e-03
C     3.605229288879000e+00   6.244284680158140e+00   2.999691323001323e+00 -3.60075300e-02  -1.25853450e-01  -4.10395000e-03
C     4.805804153001193e+00   6.936593500742633e+00   3.000094563500985e+00  3.57128700e-02   7.79685600e-02  -1.08374500e-02
C     6.006850663896759e+00   6.243827208618414e+00   2.999565812686221e+00  7.14058300e-02  -5.08172600e-02   1.67470000e-03
C     7.209769334151948e+00   6.935938211887652e+00   3.000185877331595e+00 -7.95367200e-02   7.33177400e-02  -1.24915000e-03
C     8.410370989628333e+00   6.243286995694104e+00   2.999985929197895e+00  3.30509100e-02   6.98049000e-03  -3.93149000e-03
C     9.612484762591670e+00   6.936654897105958e+00   2.999518313797414e+00 -4.34793200e-02  -4.47129000e-03   1.33355700e-02
C     1.081320342285980e+01   6.242798659696234e+00   3.000979406067438e+00  8.02114400e-02   8.20358000e-02  -1.94829000e-02
C     1.201597590272970e+01   6.937085782016636e+00   2.999404270704789e+00 -7.09924400e-02  -6.81154000e-03   1.17138100e-02
