32
Lattice="9.86 0 0 4.93 8.53901048131456 0 0 0 30 " PBC="1 1 1" Properties=species:S:1:pos:R:3:force:R:3 Energy="-252.5811515"
C     1.042578849200000e+00   7.102684020784352e-01   3.193471200000000e+00  2.23737763e+00  -1.55522772e+00   1.61902000e+00
C     2.380683048100000e+00   1.217873893396961e+00   3.439140300000000e+00 -3.14358848e+00   5.62256534e+00  -2.16293090e-01
C     3.607595090300000e+00   5.848490385601864e-01   3.377771100000000e+00 -3.04090460e-01   9.77908940e-01   9.83652570e-01
C     4.756525822200000e+00   1.386744353303109e+00   3.637305600000000e+00  1.14151786e+00  -1.63280290e-01  -1.75165182e+00
C     5.956339971499999e+00   6.538867675107768e-01   3.408715200000000e+00  2.28912730e+00  -1.47700530e-01   6.73168730e-01
C     7.266886160600000e+00   1.301188250139377e+00   3.233207100000000e+00 -1.22376780e+00   8.06762010e-01   8.83208850e-01
C     8.509990048299999e+00   5.489016830216920e-01   3.325155900000000e+00 -4.60645707e+00  -1.93120300e-01  -6.13737810e-01
C     9.620239211399999e+00   1.329000831953995e+00   3.262002900000000e+00  4.33949048e+00   1.52002466e+00   1.87713652e+00
C     2.285169918300000e+00   2.690810676924770e+00   3.690114000000000e+00  3.55039541e+00   6.17286210e-01  -1.27013609e+00
C     3.542131197900000e+00   3.551901913309349e+00   3.608995500000000e+00 -1.11740705e+00  -3.23441690e+00   1.41899720e+00
C     4.798111801899999e+00   2.825221874648774e+00   3.645458400000000e+00 -1.76672560e-01   5.40913540e-01  -2.13838881e+00
C     6.035451977299999e+00   3.551460104907114e+00   3.236956200000000e+00 -8.01471210e-01  -4.41495123e+00   1.84516172e+00
C     7.291471478999999e+00   2.799263538959888e+00   3.174530100000000e+00 -3.24431889e+00  -3.76840658e+00   2.17264490e-01
C     8.457709370300000e+00   3.418791377661660e+00   3.380140500000000e+00  2.59050301e+00   2.43056547e+00   1.54257629e+00
C     9.718331076300000e+00   2.701103087816733e+00   3.681010800000000e+00 -3.50859237e+00   8.31710790e-01  -3.43071616e+00
C     1.093270460020000e+01   3.430852132233926e+00   3.672532800000000e+00  3.15002580e-01  -4.39042000e+00   8.70095720e-01
C     3.474056771900000e+00   4.961221190178853e+00   3.601722300000000e+00  2.78476665e+00  -8.60589880e-01  -7.10420540e-01
C     4.778571549700000e+00   5.616916776279608e+00   3.489686400000000e+00 -7.91925460e-01   1.80626072e+00  -3.52929530e-01
C     5.989790120099999e+00   4.896143683508678e+00   3.330478200000000e+00  1.50463250e-01   3.57996473e+00  -5.54937730e-01
C     7.219829064100000e+00   5.667488382726571e+00   3.216511800000000e+00 -9.20678710e-01  -4.58617510e-01   2.01854006e+00
C     8.362950136100000e+00   4.877876349169023e+00   3.440922000000000e+00  2.30522624e+00  -2.88871580e-01  -1.26489852e+00
C     9.605350069099998e+00   5.520880916333983e+00   3.478411800000000e+00  3.43244312e+00   1.12638412e+00   1.50470912e+00
C     1.091783695270000e+01   4.761746660542071e+00   3.653088600000000e+00 -1.90876875e+00   6.34685874e+00  -1.19890928e+00
C     1.210029222690000e+01   5.591870833860511e+00   3.522966000000000e+00 -7.50887890e-01   2.02827770e-01   1.06619790e-01
C     4.797310874100000e+00   7.104562859260267e+00   3.392623200000000e+00  2.10985217e+00  -4.00042646e+00   1.00268490e+00
C     6.048820165300000e+00   7.894920006872298e+00   3.388155900000000e+00 -1.17343225e+00  -4.56949139e+00  -1.37949384e+00
C     7.305655434099999e+00   7.098335871257831e+00   3.377190900000000e+00 -2.47965078e+00  -5.31331280e-01  -1.74871326e+00
C     8.553219739299999e+00   7.719484499538812e+00   3.234339600000000e+00 -7.21786540e-01   3.44734840e-01   2.07209341e+00
C     9.715856068399999e+00   6.996197778252883e+00   3.502243800000000e+00 -2.23592970e-01  -1.84224224e+00  -1.34500133e+00
C     1.090069184240000e+01   7.758558926105187e+00   3.502491300000000e+00  1.65702630e+00  -3.87622570e-01  -1.30042784e+00
C     1.214584971600000e+01   7.020270102697052e+00   3.338165700000000e+00 -2.07427612e+00  -1.32108672e+00   1.96874840e+00
C     1.339335841080000e+01   7.610156388929495e+00   3.420724200000000e+00  2.68173360e-01   5.37303531e+00  -1.32702211e+00
