26
Lattice="8.88768389401873 1.33226762955019e-15 0 4.44384194700937 7.69696003302603 0 0 0 30 " PBC="1 1 1" Properties=species:S:1:pos:R:3:force:R:3 Energy="-208.29709439"
C     1.226145345377379e+01   6.494556558942261e+00  -1.393358999999990e-01 -3.27969530e-01   2.18257560e+00  -1.96912300e-02
C     8.538807772796876e+00   6.359673030166933e+00  -1.750037999999989e-01  8.69570160e-01  -2.74347173e+00  -5.00936900e-02
C     9.901253495547939e+00   5.937748079476020e+00  -1.504493999999994e-01 -1.81769932e+00  -1.68096390e+00   3.68356700e-02
C     1.021324261714681e+01   4.548166547746328e+00  -1.601445000000012e-01 -7.47229290e-01  -5.98554590e-01  -2.90286920e-01
C     6.133907386150657e+00   5.726988226603353e+00  -1.181681999999995e-01 -7.75376100e-02   4.74677000e-01   1.36296200e-01
C     7.575575656772286e+00   5.358169760122631e+00  -1.354593000000008e-01 -4.02223820e+00  -1.75442724e+00  -2.45198100e-01
C     7.828055468878791e+00   3.919833143566108e+00  -1.997813999999991e-01  1.39283620e+00   2.18769631e+00   3.56221000e-01
C     9.213205402285745e+00   3.530255437097274e+00  -2.058657000000004e-01 -9.51854630e-01   2.16056950e-01   3.93594360e-01
C     9.531931877093150e+00   2.136520394826593e+00  -1.685084999999980e-01  1.05667288e+00   2.24793241e+00  -8.81754430e-01
C     3.676604770939957e+00   5.148419055679497e+00  -2.496866999999980e-01  8.28292600e-01  -7.42997560e-01   9.64235590e-01
C     5.030544002596789e+00   4.778413794931749e+00  -1.685651999999997e-01  2.64595923e+00  -1.36976314e+00  -3.88855000e-02
C     5.398365021109253e+00   3.354422849448742e+00  -1.586015999999972e-01  1.02958362e+00   1.92878986e+00  -1.15709064e+00
C     6.787129353380878e+00   2.993641548631345e+00  -2.072615999999989e-01 -1.76507000e-01  -2.07048724e+00   6.67921180e-01
C     7.159044083530453e+00   1.568047865161290e+00  -1.562483999999991e-01 -2.51545423e+00   1.22626603e+00  -6.05409780e-01
C     8.507619420219497e+00   1.218829784366563e+00  -1.763939999999984e-01 -4.25734880e-01  -2.84059298e+00   7.72199580e-01
C     2.661454805086511e+00   4.145027721339837e+00  -2.256396000000009e-01  7.42111970e-01   3.77368170e-01  -6.14339080e-01
C     3.005035910109417e+00   2.789806034940867e+00  -3.662198999999973e-01  1.57914214e+00  -1.30686077e+00   4.57694360e-01
C     4.433474241104150e+00   2.392111653211596e+00  -3.659660999999979e-01 -2.55735455e+00  -1.66790323e+00   6.25788320e-01
C     4.762303435040130e+00   9.583117788359569e-01  -3.305660999999986e-01 -1.38200834e+00   1.98164590e+00  -2.82075000e-02
C     6.072812510538974e+00   5.776986447444630e-01  -1.882077000000031e-01  3.19326469e+00  -1.01119730e-01   1.49714050e-01
C     1.087155465310347e+01   6.872947349764293e+00  -1.203095999999988e-01  2.43287318e+00   2.55748441e+00  -3.88184670e-01
C     2.005727352012089e+00   1.771917014567099e+00  -2.984591999999999e-01  7.99468580e-01  -3.73182910e-01   6.42344080e-01
C     2.370358758557042e+00   3.893882073128961e-01  -1.908584999999974e-01  2.70788930e-01   5.40902920e-01  -7.71491890e-01
C     8.188536152622152e+00   7.661500212111390e+00  -3.052278000000008e-01 -1.36132227e+00   3.18442680e+00   6.26032640e-01
C     4.413929072156098e+00   7.510531884143769e+00  -1.056230999999990e-01 -1.15476013e+00  -1.44930340e-01  -2.16887460e-01
C     5.772495276484036e+00   7.139838438199739e+00  -7.958849999999984e-02  6.77105820e-01  -1.71056701e+00  -5.21356160e-01
