26
Lattice="8.88768389401873 1.33226762955019e-15 0 4.44384194700937 7.69696003302603 0 0 0 30 " PBC="1 1 1" Properties=species:S:1:pos:R:3:force:R:3 Energy="-207.84573919"
C     3.612576429222502e-01   4.369404881958379e-01   3.664540800000000e+00 -5.63666440e-01   8.48754160e-01   5.97290460e-01
C     7.122123226531123e+00   7.585766589653007e+00   4.078798200000000e+00  6.46960470e-01  -2.14915397e+00  -8.92769770e-01
C     4.058118908429998e+00   2.200226054815695e-01   4.078288800000000e+00  4.19603700e-02   1.35129970e-01  -4.27573140e-01
C     9.556769757129370e+00   6.954620023551423e+00   4.046953200000000e+00  1.15953190e-01  -1.77522288e+00   6.25380900e-02
C     1.091291682326822e+01   7.336585975337790e+00   3.774900300000000e+00  1.12523422e+00  -7.82233500e-01  -5.67356640e-01
C     1.197651977407853e+01   6.329145424265548e+00   3.592647300000000e+00 -1.79508633e+00   1.20139780e+00   1.15576807e+00
C     4.476790815494760e+00   6.763407601279746e+00   3.496029600000000e+00 -1.39908364e+00  -7.61940080e-01   4.89676820e-01
C     5.462618088971777e+00   5.761976066902924e+00   3.528978600000000e+00  1.42100506e+00   2.48848800e-01   1.08529062e+00
C     6.819006677947611e+00   6.185922547176116e+00   3.866888100000000e+00 -9.53442880e-01  -9.80264730e-01  -4.84780300e-02
C     7.792958894760193e+00   5.143068206036242e+00   4.003643400000000e+00  2.19479814e+00   2.20737600e-02   5.81728900e-02
C     9.242408155363897e+00   5.528641876927870e+00   4.181449200000000e+00 -1.29154968e+00   1.09308260e-01  -1.28397685e+00
C     1.028448922411684e+01   4.505232135002985e+00   4.073657700000000e+00 -2.19316386e+00   2.80126329e+00   1.53297880e-01
C     1.159182481931003e+01   4.959780342902651e+00   3.813254100000000e+00  1.94981336e+00   4.11822330e-01  -4.16664960e-01
C     3.766047932321419e+00   4.015411607161039e+00   3.725663700000000e+00 -1.31406758e+00  -9.60055020e-01  -1.15117280e-01
C     5.098744844501411e+00   4.374140898434439e+00   3.558972900000000e+00  1.04867786e+00   3.23419190e-01  -9.17652300e-02
C     6.073475666865235e+00   3.337535642173321e+00   3.584411700000000e+00  2.18652765e+00   4.98144920e-01   6.22585060e-01
C     7.486267541952870e+00   3.728484792980301e+00   3.812256900000000e+00 -8.93244210e-01   1.05544909e+00   5.91187500e-02
C     8.539570822557504e+00   2.757884509578048e+00   3.910342800000000e+00 -6.54404490e-01   9.21505510e-01  -1.35551980e-01
C     9.904521450669094e+00   3.156407469054548e+00   4.078365000000000e+00  1.63257390e-01   2.00925430e-01  -8.62419750e-01
C     2.074999738087375e+00   2.233500936660589e+00   3.964536000000000e+00 -1.13114854e+00   2.59088050e-01   5.07435810e-01
C     3.420568727317978e+00   2.645037300399010e+00   3.859109700000000e+00  8.26170600e-02  -1.61628348e+00   9.88899000e-03
C     4.362642332896037e+00   1.560074122448611e+00   3.822673200000000e+00  2.23257404e+00   2.01440710e+00  -4.96946600e-02
C     5.757393409520184e+00   1.944692600600517e+00   3.621667800000000e+00 -7.54279490e-01   9.67198230e-01   4.69652670e-01
C     6.817534251999324e+00   1.016289053292331e+00   3.626736600000000e+00 -5.80744100e-02  -6.61209820e-01   4.89706540e-01
C     8.198815910377244e+00   1.407569327319802e+00   3.702528600000000e+00 -2.42102000e-03  -6.37698940e-01  -2.13528400e-01
C     1.698163362304003e+00   8.837704924558215e-01   3.947814600000000e+00 -2.05746250e-01  -1.69467346e+00  -6.55525960e-01
