32
Lattice="9.624 0 0 4.812 8.33462848602144 0 0 0 30 " PBC="1 1 1" Properties=species:S:1:pos:R:3:force:R:3 Energy="-256.72688365"
C     2.711948322732741e-03   1.061919266022392e-03   2.995208993206322e+00 -1.07817650e-01  -9.02633800e-02   3.08489600e-02
C     1.203369964156267e+00   6.924511914094167e-01   2.999214472041109e+00  1.54491760e-01   9.99793000e-02  -2.36458400e-02
C     2.408030872141400e+00  -1.401807763036384e-03   3.002700429262338e+00 -1.11215190e-01  -7.84302000e-02  -1.98903200e-02
C     3.609983806377797e+00   6.908631535676405e-01   3.003545316071117e+00 -6.44404600e-02   3.91774260e-01  -6.56917600e-02
C     4.812666806063491e+00   4.499426886515401e-03   2.996497848338471e+00 -7.62317900e-02  -3.84345570e-01   8.75995900e-02
C     6.012790990670311e+00   6.974758832418172e-01   3.001561841216875e+00  1.36042550e-01  -1.83293130e-01  -2.34653000e-02
C     7.214002160220968e+00   1.117564496422821e-03   3.002556069760546e+00  4.03706870e-01  -3.47047100e-02  -5.39842100e-02
C     8.425180028448757e+00   6.956302581155511e-01   2.997750716016816e+00 -3.64832810e-01  -2.87748700e-02   1.46765000e-02
C     1.200440087106480e+00   2.081186736041033e+00   2.995596932603089e+00  5.27882800e-02   7.33488700e-02   4.92975300e-02
C     2.403059117294417e+00   2.780013789063544e+00   3.001190093485669e+00  3.90994200e-02  -2.74966600e-01  -6.33808600e-02
C     3.608414891524356e+00   2.085936085432173e+00   2.998388965198077e+00 -6.94418800e-02  -1.94199090e-01   7.18148900e-02
C     4.810485943470748e+00   2.779290162098030e+00   3.002945672719572e+00  8.68906500e-02  -7.09705300e-02  -4.36625700e-02
C     6.015889237354590e+00   2.080987827006638e+00   3.001010968226699e+00 -1.15390240e-01   4.06475030e-01   1.69830800e-02
C     7.216674455530343e+00   2.781602380422364e+00   2.999787664693293e+00  5.51468800e-02  -2.59248030e-01   3.45998300e-02
C     8.423095793351116e+00   2.086136851586891e+00   2.999451303780769e+00 -2.74030160e-01  -1.21118600e-01  -2.61817000e-02
C     9.621250565642800e+00   2.776016062003820e+00   2.996770292704524e+00  2.61499550e-01   2.35052400e-01  -1.78070000e-04
C     2.402201962923975e+00   4.163590984379122e+00   2.996863766906707e+00  2.20010030e-01   3.52786020e-01   1.75927100e-02
C     3.610967632752656e+00   4.861603831269401e+00   2.995917534327238e+00 -4.15445220e-01   3.69768700e-02   3.01731700e-02
C     4.808890235372028e+00   4.169612433844212e+00   3.000669876092952e+00  1.63868930e-01  -1.83958480e-01  -1.89544000e-03
C     6.012008399519006e+00   4.860293773191937e+00   3.002240553628925e+00  8.96089500e-02   2.45067780e-01   1.78291600e-02
C     7.214844826630406e+00   4.167694710454470e+00   3.003860331060733e+00  1.37397630e-01   4.98944600e-02  -3.95368000e-02
C     8.423296925611638e+00   4.858906025993590e+00   3.000041396550225e+00 -2.28745470e-01   1.89962450e-01   2.95544700e-02
C     9.625259930291676e+00   4.169724650347284e+00   2.998592415269469e+00 -1.54129790e-01  -3.63160200e-01   1.08330000e-04
C     1.082373333445477e+01   4.859733621687386e+00   2.999029203148920e+00  1.99820710e-01   2.75635900e-01  -1.21200000e-02
C     3.608899584945699e+00   6.252207917629603e+00   2.998435532340275e+00  2.13845130e-01  -1.03578900e-01  -3.57540600e-02
C     4.814721673600813e+00   6.947127924988147e+00   2.998768583642544e+00 -1.63435250e-01  -4.39820700e-02   6.78370000e-04
C     6.015971198165739e+00   6.253285939591113e+00   3.002143757480387e+00 -1.20444640e-01  -2.77971370e-01  -3.48918100e-02
C     7.216600744697386e+00   6.942997310682372e+00   2.998698717151342e+00  1.97722830e-01   1.40568970e-01   5.40135100e-02
C     8.421382747473270e+00   6.249831902760622e+00   3.001651376989717e+00 -8.54384200e-02  -9.70123700e-02  -1.16142400e-02
C     9.621989665475855e+00   6.944186932976488e+00   3.002492518343923e+00  8.40544600e-02   2.88864890e-01  -4.23749500e-02
C     1.082386028746290e+01   6.253059464310718e+00   3.000057558884408e+00  2.21551050e-01  -2.23216000e-01  -1.12247700e-02
C     1.203325486934256e+01   6.943594191588017e+00   2.996234394067022e+00 -3.66506710e-01   2.26806900e-01   5.37226200e-02
