32
Lattice="9.86 0 0 4.93 8.53901048131456 0 0 0 30 " PBC="1 1 1" Properties=species:S:1:pos:R:3:force:R:3 Energy="-253.20821654"
C     7.463420019000000e-01   1.208013044094657e+00   3.982375500000000e+00  8.11930090e-01  -1.17047330e-01   1.69525590e-01
C     2.034190766800000e+00   1.884046076845733e+00   3.751905600000000e+00 -3.10584994e+00   5.05405670e-01  -7.69841720e-01
C     3.203535396200000e+00   1.158235651012440e+00   3.863666400000000e+00  1.66059179e+00   3.40864300e-01  -7.43717080e-01
C     4.423849077100000e+00   1.858901338075382e+00   3.710376300000000e+00  2.29823149e+00   2.53332230e-01  -9.63056060e-01
C     5.665812803699999e+00   1.120042450327601e+00   3.764965200000000e+00  2.04825477e+00   1.31420183e+00   1.08725710e+00
C     6.994569476100000e+00   1.790320446185471e+00   3.934257900000000e+00 -3.97520817e+00   1.56069364e+00  -1.16884887e+00
C     8.172716817700000e+00   1.207976838690221e+00   4.260600600000000e+00  2.31668746e+00  -2.46987786e+00  -2.44296056e+00
C     9.410735065299999e+00   1.963123376587974e+00   3.968742600000000e+00 -1.68821772e+00  -1.17356269e+00   9.60654140e-01
C     1.986890867800000e+00   3.282057312916782e+00   3.333481800000000e+00  1.06777320e+00  -4.10707480e-01   1.20388564e+00
C     3.284188421400000e+00   3.994019171553612e+00   3.257718600000000e+00 -9.64489680e-01  -6.21621860e-01   1.36403307e+00
C     4.544300661199999e+00   3.290617500142773e+00   3.445925100000000e+00 -2.66260687e+00  -1.52627779e+00   6.91525530e-01
C     5.780691318600000e+00   3.923245120212018e+00   3.672249900000000e+00 -1.01282196e+00  -1.85482680e-01  -7.46578640e-01
C     6.986684089000000e+00   3.179952778223021e+00   3.707121600000000e+00 -4.88087690e-01   2.20242878e+00   1.83577115e+00
C     8.118880774000001e+00   4.024748167007568e+00   3.852108600000000e+00 -4.26371370e-01   1.25998451e+00  -1.70520311e+00
C     9.323233037600000e+00   3.368101676699760e+00   3.725500500000000e+00  3.22120309e+00  -1.49670739e+00   1.61600620e-01
C     1.059381235760000e+01   4.008623782737974e+00   3.435047100000000e+00 -2.76826900e-02  -1.44364732e+00   1.68507190e-01
C     3.232037451700000e+00   5.397340903632277e+00   3.519388500000000e+00 -1.06153224e+00   4.50001630e-01  -4.04126590e-01
C     4.421858047300000e+00   6.018102885518724e+00   3.876664500000000e+00  1.96098480e+00   2.78313999e+00   9.97994320e-01
C     5.731229713199999e+00   5.306556108181328e+00   3.902532900000000e+00 -3.69501201e+00   1.53331445e+00  -3.07131500e-02
C     6.854927719099999e+00   6.064242916306775e+00   4.115772300000000e+00  1.00606836e+00   5.80569549e+00  -6.21879540e-01
C     8.040079013100000e+00   5.531581150366471e+00   3.797933400000000e+00  4.91727258e+00  -4.60824123e+00   1.41546609e+00
C     9.371699029500000e+00   6.143871921516129e+00   3.846205200000000e+00 -5.86623300e-01   8.62135680e-01  -1.35207849e+00
C     1.057966513100000e+01   5.384625377736405e+00   3.484525200000000e+00 -3.30697410e-01   3.24343400e+00   1.04509392e+00
C     1.180510192000000e+01   6.137733653832581e+00   3.541191600000000e+00  1.64199878e+00  -4.51787400e-01   4.41558910e-01
C     4.408407873400000e+00   7.558744202290882e+00   4.218207300000000e+00  2.36950090e+00  -2.93546732e+00  -1.61716240e+00
C     5.637800938100000e+00   8.310536702262194e+00   4.204326600000001e+00  2.89134162e+00   5.95028600e-02  -2.91692720e-01
C     6.986090369099999e+00   7.632807395079266e+00   4.160489400000000e+00 -5.08931940e+00  -3.30550880e+00   1.54860050e-01
C     8.191504751900000e+00   8.272023203294250e+00   3.980977200000000e+00 -3.45383500e-02   1.14964771e+00   7.45618760e-01
C     9.443414852099998e+00   7.606866905922284e+00   3.942423600000000e+00 -1.32867695e+00  -3.37558644e+00  -8.13136070e-01
C     1.066006909260000e+01   8.263285490040381e+00   3.809642700000000e+00 -1.36570983e+00   7.90752140e-01   5.12993660e-01
C     1.184383988800000e+01   7.541274753090478e+00   3.812151900000000e+00  2.33897625e+00  -4.41267000e-02   1.34320210e-01
C     1.311767897330000e+01   8.279469049652601e+00   4.088630400000000e+00 -2.70736962e+00   5.11153900e-02   5.80329040e-01
