32
Lattice="9.86 0 0 4.93 8.53901048131456 0 0 0 30 " PBC="1 1 1" Properties=species:S:1:pos:R:3:force:R:3 Energy="-256.79048745"
C     5.010197098799999e+00   7.046041177886110e+00   8.324370000000000e-02 -8.66020310e-01  -1.74180880e-01  -2.80285020e-01
C     6.212551726399999e+00   7.780291561677835e+00   2.417640000000000e-02  6.62821900e-01  -9.10464880e-01   5.24180750e-01
C     7.442707116999999e+00   7.094955703959323e+00   5.101290000000000e-02  1.96114332e+00  -1.74191241e+00   7.61367500e-02
C     8.708484222599999e+00   7.764211409482527e+00   9.121409999999999e-02 -9.14961960e-01   1.93967113e+00  -1.11645278e+00
C     9.956562036599999e+00   7.070850418934703e+00   1.182330000000000e-02 -2.12050703e+00   1.38899106e+00   8.42635150e-01
C     1.115059620460000e+01   7.802239721874998e+00   8.448360000000001e-02  1.08981544e+00  -9.17873850e-01  -5.91319890e-01
C     1.237168547310000e+01   7.059633660158279e+00   2.797500000000000e-02  8.51592360e-01   7.69961800e-02   2.50280770e-01
C     1.363850172410000e+01   7.739106120940594e+00   6.417900000000000e-02 -8.26244840e-01   4.24542580e-01  -2.76693160e-01
C     1.299573192300000e+00   6.321572059819015e-01   3.011700000000000e-03 -3.49283090e-01   1.57351305e+00  -1.05429651e+00
C     2.500672346100000e+00   1.370010710635767e+00  -1.342140000000001e-01  1.54885253e+00  -1.09756039e+00   1.19341510e+00
C     3.764590792400000e+00   6.949779375723184e-01  -2.161650000000037e-02 -1.03775760e+00  -2.69991353e+00   5.00605100e-02
C     4.977930889700001e+00   1.352659441340407e+00  -1.439819999999870e-02  7.11221070e-01   2.43540926e+00   3.79943340e-01
C     6.213952388700000e+00   6.657643603082471e-01   8.554860000000000e-02  7.90073760e-01   4.74659480e-01  -4.56544680e-01
C     7.478467167800000e+00   1.369197711447967e+00   3.735090000000000e-02 -4.19697910e-01  -1.96284362e+00   1.10046610e-01
C     8.715927191499999e+00   6.145014355728248e-01   3.562500000000000e-03 -2.48058230e-01   1.54339260e+00   2.77469270e-01
C     9.952472009999999e+00   1.363507827204723e+00  -5.179590000000189e-02 -1.33862055e+00  -4.07698390e-01  -2.07051000e-02
C     2.539368557000000e+00   2.752143400548942e+00  -8.401800000000037e-02 -1.35494364e+00   2.83446676e+00  -4.44534800e-02
C     3.768090599400000e+00   3.515724943779048e+00  -7.550999999992314e-04 -1.88368381e+00  -1.91789616e+00  -8.71708880e-01
C     4.961484902700000e+00   2.818824447997158e+00  -1.719749999999820e-02  2.62560219e+00  -1.19956538e+00   4.07403060e-01
C     6.224958810900000e+00   3.515360584201866e+00   4.842809999999999e-02 -6.35627600e-02  -4.11968630e-01  -1.97956320e-01
C     7.467428799199999e+00   2.752699973252029e+00   5.063040000000000e-02 -2.06696400e-01   2.57160280e+00  -3.51240100e-02
C     8.696985687800000e+00   3.503204363492434e+00   4.527180000000000e-02 -3.75397900e-01  -5.41649060e-01  -6.23442980e-01
C     9.926761172599999e+00   2.798248250613816e+00  -1.291106999999982e-01  1.09710200e-02  -3.17511060e-01   1.28849970e+00
C     1.114937657190000e+01   3.510144956600683e+00  -7.079670000000249e-02  3.89982070e-01   2.46380670e-01  -1.23622170e-01
C     3.709985126399999e+00   4.884461548661094e+00  -4.941390000000112e-02  2.01564186e+00   3.15864360e+00   9.89317830e-01
C     4.998190921900000e+00   5.633155754069844e+00   7.852440000000001e-02 -1.07159130e+00  -5.60380350e-01  -7.58431960e-01
C     6.242881875200000e+00   4.963307185049013e+00   5.301240000000000e-02 -2.27893550e-01  -2.03959856e+00   1.27508920e-01
C     7.499601042500000e+00   5.627349397723654e+00   4.415640000000000e-02 -3.21056727e+00   2.46547712e+00   4.90164250e-01
C     8.660991018299999e+00   4.926772772540018e+00   8.696490000000000e-02  2.66584713e+00  -4.87372700e-02  -6.76261970e-01
C     9.894004576399999e+00   5.697597872970203e+00   9.998099999999999e-03  2.89757370e-01  -2.94193352e+00   4.05322230e-01
C     1.110390294210000e+01   4.966194480662615e+00   7.950300000000000e-03  1.06602120e+00  -1.58450760e+00  -6.94157110e-01
C     1.235679805630000e+01   5.633261637799795e+00  -3.911880000000068e-02 -1.63855070e-01   3.42449250e-01   4.09071790e-01
