32
Lattice="9.86 0 0 4.93 8.53901048131456 0 0 0 30 " PBC="1 1 1" Properties=species:S:1:pos:R:3:force:R:3 Energy="-257.46920517"
C     4.931152584700000e+00   8.491224554941930e+00  -1.847451000000007e-01  7.22998920e-01   1.24607040e-01  -4.79665240e-01
C     1.235013757700000e+00   6.575552971931944e-01  -1.884036000000009e-01  7.62405190e-01   8.28133090e-01   6.17837900e-02
C     7.427979727999999e+00   8.507907475887020e+00  -1.773617999999999e-01 -1.83673145e+00  -1.86814045e+00  -7.37002130e-01
C     3.700833616700000e+00   6.395938302089336e-01  -3.037257000000011e-01  1.34424938e+00   1.79197221e+00   1.06711285e+00
C     9.879574564999999e+00   8.508151520806537e+00  -2.759117999999994e-01  4.66379600e-02  -1.28349499e+00  -2.24280230e-01
C     6.183937957099999e+00   6.762376274421769e-01  -2.249486999999988e-01  1.37849900e-02  -2.98631290e-01  -8.95849880e-01
C     1.235756329090000e+01   8.489756699040417e+00  -3.208236000000007e-01 -1.19998181e+00   2.33843830e-01   8.16498570e-01
C     8.635103440400000e+00   6.665768471554192e-01  -2.348813999999990e-01  5.67334960e-01  -6.31832330e-01   3.69893020e-01
C     1.244550251100000e+00   2.097504346214877e+00  -2.582892000000001e-01 -4.31319260e-01  -1.06165227e+00   1.17230620e-01
C     2.485077129200000e+00   2.784676347356904e+00  -3.032520000000005e-01 -2.47763650e-01   3.40995400e-01  -2.07909400e-02
C     3.729008270900000e+00   2.081243337777604e+00  -2.625624000000002e-01 -1.19141884e+00  -3.85857070e-01  -5.67520480e-01
C     4.930699123300000e+00   2.801610998330945e+00  -2.774807999999993e-01  1.08543484e+00   2.40651480e-01   3.21192600e-02
C     6.171947901299999e+00   2.101249556211406e+00  -2.446550999999992e-01  3.26865860e-01  -5.28249120e-01   2.14265660e-01
C     7.417335463600001e+00   2.790032868631008e+00  -2.322333000000008e-01 -4.34900950e-01   1.93830500e-02   3.81868160e-01
C     8.656003485199999e+00   2.069681432197579e+00  -1.559784000000022e-01 -1.59137377e+00   5.91717980e-01  -1.03273789e+00
C     9.842798145400000e+00   2.787775666600725e+00  -2.624180999999979e-01  2.26653573e+00   3.03446490e-01   4.85507810e-01
C     2.472613645500000e+00   4.206260119588728e+00  -3.837959999999967e-01  7.82806370e-01   5.21211150e-01  -7.04900000e-03
C     3.728935060400000e+00   4.913917548432693e+00  -3.980172000000017e-01 -9.56910400e-01   8.50204840e-01   6.28776000e-01
C     4.959758811099999e+00   4.233401193619198e+00  -3.060383999999985e-01 -6.72029420e-01  -9.85147540e-01   2.69169800e-01
C     6.177288718200000e+00   4.924525048811367e+00  -1.891806000000003e-01 -3.51921900e-02   7.71295520e-01  -1.24281274e+00
C     7.393051663999999e+00   4.209749415441170e+00  -2.369145000000010e-01  1.19098882e+00  -3.57799000e-02   2.23849210e-01
C     8.644899695499999e+00   4.910271305567628e+00  -2.807309999999994e-01 -4.74159370e-01   4.06854620e-01   3.88136180e-01
C     9.880209401099998e+00   4.203931702211041e+00  -2.881251000000020e-01 -3.31156200e-01   8.13272970e-01  -4.81690460e-01
C     1.111380810090000e+01   4.947342394885290e+00  -3.840059999999994e-01 -4.13301990e-01  -1.25913859e+00   1.14451810e-01
C     3.705169551700000e+00   6.344631743010360e+00  -3.138122999999986e-01  9.55875980e-01   3.60947290e-01  -4.54477810e-01
C     4.969972292100000e+00   7.083306529692193e+00  -2.608040999999979e-01 -2.00613294e+00  -9.80905880e-01   3.61199500e-02
C     6.174921184300000e+00   6.361755703846743e+00  -2.762403000000013e-01  4.06303400e-01  -6.28999030e-01   9.60569010e-01
C     7.406731773100000e+00   7.046209652562880e+00  -2.119596000000001e-01  3.22340000e-02   1.44394584e+00  -4.31778800e-02
C     8.619053874700001e+00   6.338847758871628e+00  -2.469737999999992e-01  1.52600020e+00   9.22483600e-02  -5.03003720e-01
C     9.874222507699999e+00   7.066783032072764e+00  -3.311091000000026e-01 -6.88578980e-01   2.61691030e-01   2.80318890e-01
C     1.110001332000000e+01   6.363402622798021e+00  -4.119942000000023e-01  1.45286540e-01  -3.79990800e-02   5.65918730e-01
C     1.233773315470000e+01   7.066298357837919e+00  -3.447864000000003e-01  3.35208100e-01  -1.05946300e-02  -3.23530920e-01
