2
Lattice="2.517 0 0 1.2585 2.17978594132543 0 0 0 30 " PBC="1 1 1" Properties=species:S:1:pos:R:3:force:R:3 Energy="-16.0736986"
C     0.000000000000000e+00   0.000000000000000e+00   3.000000000000000e+00  0.00000000e+00   0.00000000e+00   0.00000000e+00
C     1.258500000000000e+00   7.265953137751439e-01   3.000000000000000e+00 -0.00000000e+00  -0.00000000e+00   0.00000000e+00
