32
Lattice="9.86 0 0 4.93 8.53901048131456 0 0 0 30 " PBC="1 1 1" Properties=species:S:1:pos:R:3:force:R:3 Energy="-249.84247588"
C     4.948232914799999e+00   7.419457058802588e+00  -9.091065000000000e-01 -3.61019745e+00   1.63314095e+00   6.87048500e-02
C     6.118367231600000e+00   8.110638039974871e+00  -9.825854999999990e-01  1.82565664e+00   1.71250577e+00   3.53951700e+00
C     7.315477374500000e+00   7.459917195989658e+00  -5.802024000000010e-01  5.43473560e-01  -2.39857178e+00  -3.01740358e+00
C     8.520334963100000e+00   8.113375732124863e+00  -7.597032000000006e-01  2.88501563e+00   2.04132447e+00   4.65932280e+00
C     9.781581940999999e+00   7.319811417566648e+00  -3.516875999999982e-01 -1.52484730e-01   1.18172233e+01  -3.69152777e+00
C     1.106045332380000e+01   8.037500561312623e+00  -5.708877000000001e-01  7.05409760e-01   1.69904620e-01   7.09358000e-03
C     1.234741035030000e+01   7.407410649767929e+00  -6.092012999999987e-01 -2.09782021e+00   2.98025350e-01   8.38088190e-01
C     1.356723793320000e+01   8.182969606828017e+00  -7.144280999999992e-01  4.22894080e-01  -1.97621576e+00   1.78138530e-01
C     1.230682703400000e+00   9.145883078219889e-01  -4.801227000000026e-01 -3.24573145e+00   4.53715035e+00  -7.14636220e-01
C     2.314869175000000e+00   1.699248398421974e+00  -1.444319999999983e-01  5.52520188e+00  -2.16675070e-01  -3.84891240e-01
C     3.620101760800000e+00   1.078414005726658e+00  -3.906522000000017e-01 -1.88736680e-01  -2.75712313e+00  -1.52068292e+00
C     4.864559081400000e+00   1.724553755979454e+00  -4.381653000000014e-01  2.10072308e+00  -7.99406440e-01  -8.34429140e-01
C     6.205274504100000e+00   8.761030729787336e-01  -7.602903000000012e-01 -4.14352368e+00   3.40242087e+00   3.22997703e+00
C     7.366029249399999e+00   1.618101327929486e+00  -4.702482000000003e-01  1.18322380e+00   2.22007860e+00  -1.91025670e-01
C     8.655021774300000e+00   1.027784931739166e+00  -4.290377999999997e-01  1.24105060e-01   4.73256600e-01  -2.18731797e+00
C     9.902344953200000e+00   1.847141669012640e+00  -4.470230999999991e-01 -2.73976326e+00  -4.02541586e+00   1.57406061e+00
C     2.453418591900000e+00   3.121130694460178e+00   1.206252000000000e-01 -3.49416930e-01   1.11608707e+00  -2.06858555e+00
C     3.744496950499999e+00   3.903105266264204e+00  -2.181645000000003e-01 -3.54111359e+00  -2.74260780e-01   5.18142150e-01
C     4.955062542400000e+00   3.157544023800567e+00  -3.066959999999987e-01 -1.29773371e+00  -8.64729660e-01   1.37948900e-01
C     6.176760025000000e+00   3.850652430418394e+00  -3.085007999999974e-01 -1.69207426e+00   3.36262530e-01  -2.11193360e+00
C     7.374565445800000e+00   3.087001038082561e+00  -3.561474000000011e-01 -8.42699000e-01   1.68183107e+00  -4.12158760e-01
C     8.507052557100000e+00   3.956851164467001e+00  -3.674699999999973e-01  2.87199289e+00  -3.89752209e+00   1.42521833e+00
C     9.761502100300000e+00   3.221523157552700e+00  -8.931420000000045e-02  2.53350052e+00  -5.43628620e-01  -1.67439871e+00
C     1.108180904850000e+01   3.839441819729516e+00   7.327800000000000e-02 -1.71101228e+00   3.28212791e+00  -8.03470250e-01
C     3.544127059100000e+00   5.352850780449172e+00  -5.235827999999998e-01  5.50570711e+00  -3.67101460e+00   1.29573130e+00
C     4.844001523700000e+00   6.065128411693552e+00  -7.528836000000005e-01 -7.85717180e-01  -4.08152044e+00   3.63901910e-01
C     6.027230807900000e+00   5.263301323644364e+00  -6.264527999999991e-01  3.91885445e+00   1.04253384e+00   1.58310611e+00
C     7.358617487400000e+00   6.013146587665817e+00  -5.108232000000008e-01 -3.75685926e+00   5.84462590e-01  -1.05152222e+00
C     8.560003468600000e+00   5.344575369222690e+00  -4.324101000000020e-01 -8.74526620e-01  -4.22077190e-01   6.63406400e-01
C     9.771912731999999e+00   6.079807739219614e+00  -3.471323999999996e-01  1.34034315e+00  -1.07760066e+01   1.46598955e+00
C     1.102859586100000e+01   5.325553357136813e+00  -1.422600000000003e-01 -8.48687320e-01  -1.87599506e+00   1.87146860e-01
C     1.222620132100000e+01   5.986509656814087e+00  -3.467909999999996e-01  3.91996010e-01   2.23182725e+00  -1.07151050e+00
