32
Lattice="9.86 0 0 4.93 8.53901048131456 0 0 0 30 " PBC="1 1 1" Properties=species:S:1:pos:R:3:force:R:3 Energy="-257.27429578"
C     9.821491474200000e+00   1.176295828957850e+00   3.613689000000000e+00 -1.73655600e-02   1.08705485e+00   7.48464600e-02
C     1.200397516200000e+00   1.915759278647614e+00   3.633428100000000e+00 -5.49119160e-01   6.36931000e-01   2.80496100e-02
C     2.443338073000000e+00   1.192724885121370e+00   3.559391700000000e+00 -1.30452936e+00   1.24484874e+00   8.71066000e-02
C     3.659476635500000e+00   1.917642215848559e+00   3.488370300000000e+00 -1.70576010e-01  -5.97947080e-01   2.65640860e-01
C     4.866492923199999e+00   1.193038437586195e+00   3.512796600000000e+00  1.31929136e+00  -8.14016460e-01   2.97473660e-01
C     6.130559318800000e+00   1.862708797458309e+00   3.575276400000000e+00 -2.97211895e+00   3.29089152e+00   3.39043680e-01
C     7.324290981999999e+00   1.242839825287861e+00   3.652084500000000e+00  1.47842957e+00  -3.10281698e+00  -3.46993770e-01
C     8.559589693700000e+00   1.879965539907655e+00   3.662793300000000e+00  1.49466048e+00   1.79868265e+00   9.81160000e-04
C     1.103014600090000e+01   3.382022398534780e+00   3.701090700000000e+00  3.25008600e-02  -2.73317358e+00  -5.88295500e-01
C     2.431764700800000e+00   4.035974233305414e+00   3.623196900000000e+00 -9.59687250e-01   6.84068900e-01  -2.06940950e-01
C     3.646373484300000e+00   3.321906569294113e+00   3.505608300000000e+00  5.52397380e-01   7.11767860e-01   4.11515010e-01
C     4.887181125900000e+00   4.047527599874959e+00   3.540761100000000e+00 -5.01508410e-01  -5.45215610e-01   1.98226460e-01
C     6.114787953000000e+00   3.314004995946445e+00   3.637325700000000e+00 -9.11274000e-01  -1.92088840e-01  -7.62572100e-01
C     7.311540670899999e+00   4.038066888603749e+00   3.654763200000000e+00  1.03107146e+00   1.89168930e-01   6.43287000e-03
C     8.555352457300000e+00   3.324605067386002e+00   3.676435800000000e+00 -7.27978630e-01  -9.34949350e-01   4.83264400e-02
C     9.752560066299999e+00   4.030837249990752e+00   3.686009700000000e+00  2.20981116e+00   7.90046940e-01   2.09979980e-01
C     1.226329355640000e+01   5.458504384068736e+00   3.600641400000000e+00  1.44606281e+00   2.70108340e-01  -1.39871090e-01
C     3.641543957700000e+00   6.208310710202401e+00   3.549978000000000e+00 -5.06556060e-01  -6.24836890e-01   2.61535240e-01
C     4.863404524700000e+00   5.465597313123949e+00   3.559383600000000e+00  9.34570550e-01   9.90485510e-01  -1.42264460e-01
C     6.132297833999999e+00   6.196600567400443e+00   3.569575200000000e+00 -1.56176164e+00  -1.42078231e+00   2.83265990e-01
C     7.325788272300001e+00   5.470931974531223e+00   3.604843500000000e+00  1.19885971e+00  -4.94673520e-01  -4.61750000e-02
C     8.584255814800001e+00   6.171944003859234e+00   3.574538100000000e+00 -8.90998760e-01   1.14717860e-01   4.87283660e-01
C     9.802272165000000e+00   5.451438694456956e+00   3.664677600000000e+00 -6.73286810e-01   1.97076050e-01  -6.62823590e-01
C     1.103845660050000e+01   6.141529841721675e+00   3.592398900000000e+00  2.95825700e-02   8.27352650e-01   5.25111210e-01
C     1.350487382760000e+01   7.645772430861364e+00   3.575724600000000e+00 -1.84432790e-01  -9.14650000e-01  -2.84621380e-01
C     4.898616803199999e+00   8.305337213390818e+00   3.541522800000000e+00 -2.09531250e-01   1.15281790e-01   7.19082300e-01
C     6.129019729099999e+00   7.586256637887128e+00   3.604004100000000e+00 -5.02569700e-01   1.52824712e+00  -6.03521040e-01
C     7.335982723499999e+00   8.335677769258039e+00   3.584754000000000e+00  8.11488530e-01  -1.48611277e+00  -2.14324050e-01
C     8.563304892400000e+00   7.599162242156285e+00   3.552802200000000e+00  4.76615270e-01   1.22380000e-04   2.42781640e-01
C     9.803104694100000e+00   8.300448715281123e+00   3.579192000000000e+00  3.20094290e-01  -2.01891990e-01  -4.15927660e-01
C     1.106110669670000e+01   7.568997931465370e+00   3.596911800000000e+00 -9.14081400e-01   1.53188404e+00  -9.26650000e-02
C     1.226417928020000e+01   8.361169874974717e+00   3.606144300000000e+00  2.21939750e-01  -1.94558175e+00   2.03127600e-02
