32
Lattice="9.86 0 0 4.93 8.53901048131456 0 0 0 30 " PBC="1 1 1" Properties=species:S:1:pos:R:3:force:R:3 Energy="-256.95629665"
C     9.823361324599999e+00   1.537529103622512e-01   9.062370000000000e-02  8.18548370e-01   7.40744020e-01  -8.93416100e-02
C     1.209951708300000e+00   8.769602188507160e-01   1.843860000000000e-02 -1.14100018e+00   1.05657978e+00   2.72233280e-01
C     2.432354180900000e+00   2.104916463481832e-01   1.670019000000000e-01 -3.73348440e-01  -1.66499064e+00  -1.67251900e-02
C     3.647025920500000e+00   8.912369320326472e-01   1.271847000000000e-01  8.73682890e-01   1.45584340e-01   1.02523530e-01
C     4.889120637200000e+00   1.760918156789792e-01   1.824624000000000e-01  2.98671290e-01  -7.81973500e-02  -3.23705250e-01
C     6.127814393400000e+00   8.717404071343968e-01   1.564719000000000e-01  4.12034180e-01   2.87571370e-01  -6.73865270e-01
C     7.372174198599999e+00   1.685663857429552e-01   5.536560000000000e-02 -6.67457010e-01   2.07046600e-01   9.01003560e-01
C     8.604208461500001e+00   8.746002071342537e-01   1.207239000000000e-01 -9.01807500e-02   5.25626500e-01  -5.08686640e-01
C     1.105552460560000e+01   2.307183591105994e+00  -1.497074999999981e-01  4.01662830e-01   1.14739680e-01  -1.72301730e-01
C     2.449823142900000e+00   3.031188613953500e+00  -2.715461999999995e-01 -1.12623257e+00  -1.39196957e+00   1.01441635e+00
C     3.648177913600000e+00   2.292194212109401e+00  -2.314710000000275e-02  9.02919480e-01   6.15862990e-01  -9.35927530e-01
C     4.912494802499999e+00   2.962151397343538e+00  -3.358079999999930e-02 -9.35713110e-01   2.20385610e+00  -4.66249800e-02
C     6.130211753799999e+00   2.288372663359182e+00   7.077390000000000e-02  1.56876608e+00   4.98522580e-01   6.39092600e-01
C     7.404842942199999e+00   3.050279877414369e+00   1.184727000000000e-01 -2.03029082e+00  -1.82992249e+00   5.65613000e-03
C     8.623655536699999e+00   2.320377813929375e+00   1.230234000000000e-01 -5.31099120e-01  -3.24787480e-01  -9.02956850e-01
C     9.821093968299998e+00   3.034882589887148e+00  -1.113579000000016e-01  8.88954090e-01  -4.14765510e-01   8.73778970e-01
C     1.227797253280000e+01   4.430119757623561e+00  -3.265503000000010e-01  8.09557670e-01   1.58006543e+00   6.96094970e-01
C     3.684316686999999e+00   5.168354956045881e+00  -2.126717999999990e-01 -1.40328577e+00  -9.24895560e-01   1.85084840e-01
C     4.896339833400000e+00   4.433038903746253e+00  -8.112600000000114e-02  2.33351280e-01  -2.05753590e-01   9.83624200e-01
C     6.089467965999999e+00   5.165362374433061e+00   2.458374000000000e-01  9.54403140e-01  -1.29218853e+00  -1.67881067e+00
C     7.343595974599999e+00   4.445736924670642e+00   1.623867000000000e-01  8.38963930e-01   1.12540955e+00   4.98957250e-01
C     8.596846936199999e+00   5.173399803437465e+00   1.312392000000000e-01 -5.06733550e-01  -5.18893430e-01  -8.83942600e-02
C     9.838227246600001e+00   4.462226266248151e+00  -6.110490000000013e-02 -1.61062001e+00  -2.41555490e-01  -1.49569600e-02
C     1.103763013530000e+01   5.158463280915745e+00  -1.634916000000004e-01  1.78005612e+00   1.86330550e-01  -5.09897940e-01
C     1.350261228870000e+01   6.581899591471204e+00  -6.146310000000099e-02  1.52284996e+00  -7.41963000e-02   1.52147940e-01
C     4.912536460999999e+00   7.280739296533103e+00   9.531420000000000e-02 -1.51111859e+00  -2.31629400e-01   7.36568200e-02
C     6.127961060899999e+00   6.574333857405714e+00   2.473407000000000e-01  1.61161190e-01   8.13868650e-01  -4.23469900e-02
C     7.364908561799999e+00   7.324486184244028e+00   3.011883000000000e-01 -2.64871910e-01  -9.52208630e-01  -5.90702260e-01
C     8.586090859399999e+00   6.588525778213579e+00   2.033061000000000e-01  9.05572280e-01   5.43692240e-01   1.18263900e-02
C     9.850797119699999e+00   7.296838319941570e+00   1.081008000000000e-01 -1.11001800e+00  -3.54507590e-01   2.33933660e-01
C     1.108021922210000e+01   6.586640108529281e+00  -6.048510000000107e-02 -2.00354270e+00  -5.75216520e-01   3.41375370e-01
C     1.226786864570000e+01   7.289664868017532e+00  -1.766669999999948e-02  1.93435776e+00   4.30177700e-01  -3.90161780e-01
