32
Lattice="9.86 0 0 4.93 8.53901048131456 0 0 0 30 " PBC="1 1 1" Properties=species:S:1:pos:R:3:force:R:3 Energy="-257.23772547"
C     4.926940491300000e+00   8.373368619956340e+00  -6.436259999999905e-02  8.38860200e-01  -6.22197000e-01   4.12501600e-02
C     1.245191299000000e+00   5.484423696479728e-01  -4.782509999999718e-02 -5.44609800e-01  -9.02273720e-01  -4.85613010e-01
C     7.380452999699999e+00   8.341401980323411e+00  -8.205510000000160e-02  1.75357455e+00   1.27600840e+00   1.17093680e-01
C     3.712535809800000e+00   5.343524900153440e-01  -7.067280000000054e-02 -9.04126600e-01   1.08663100e-01   2.90486790e-01
C     9.892561861200001e+00   8.389187734601274e+00  -5.366460000000117e-02 -1.44504148e+00  -1.14229772e+00  -3.35167440e-01
C     6.170993798400001e+00   5.538489295234896e-01  -8.704860000000281e-02  4.45359020e-01  -2.36195820e-01   5.89918230e-01
C     1.233121441290000e+01   8.376392795907938e+00  -2.399129999999872e-02  5.14970740e-01   2.48327700e-01  -3.95692350e-01
C     8.648655911800001e+00   5.256058108004704e-01  -3.064590000000322e-02 -7.40747630e-01   1.82367938e+00  -2.01444370e-01
C     1.255600698200000e+00   1.958963426852432e+00  -6.532649999999762e-02 -6.09571460e-01   2.34829750e-01   1.13844018e+00
C     2.463575082100000e+00   2.663057868183513e+00   7.998660000000000e-02  4.96339450e-01   7.38003750e-01  -7.51132750e-01
C     3.671136578500000e+00   1.950793557795482e+00   2.240310000000000e-02  2.50981021e+00   3.58793430e-01  -3.92671070e-01
C     4.985680800400000e+00   2.680458236789133e+00  -2.680829999999901e-02 -3.63341098e+00  -5.42150490e-01   6.49837610e-01
C     6.161113289599999e+00   1.967021007921570e+00  -6.860370000000060e-02  2.05353510e+00   1.83367620e-01  -1.64073010e-01
C     7.418152463199999e+00   2.691028677862325e+00  -8.139059999999887e-02  7.05272000e-02  -8.28490730e-01   2.64579370e-01
C     8.661455818699999e+00   1.992441215170005e+00  -4.269210000000001e-02 -8.80223610e-01  -1.75146080e+00  -1.86429910e-01
C     9.881949986899999e+00   2.676956986322018e+00  -2.671139999999994e-02  2.32082300e-02   3.55720040e-01  -1.46954070e-01
C     2.490064810200000e+00   4.105863472381071e+00   8.547210000000000e-02 -1.84132774e+00  -1.06352196e+00   4.99685500e-02
C     3.672393038300000e+00   4.791832156166255e+00  -3.734399999999027e-03  2.67636614e+00   7.41750530e-01   8.04380300e-01
C     4.934109746600000e+00   4.083943832478910e+00   4.334940000000000e-02  6.22221890e-01   8.90485720e-01  -1.14367717e+00
C     6.176941547600000e+00   4.806397231732096e+00  -6.832649999999774e-02 -2.09206160e-01   1.25738940e-01   5.80260030e-01
C     7.432650557900001e+00   4.092485319271950e+00  -8.309489999999897e-02 -1.08568202e+00   1.24838178e+00  -2.60325910e-01
C     8.649453240700002e+00   4.840397778271255e+00  -1.025175000000011e-01  2.79297330e-01  -1.79464396e+00   6.08867740e-01
C     9.861976486300000e+00   4.098317975770418e+00   1.036800000000000e-02  1.05119489e+00   7.48520760e-01  -1.45783390e-01
C     1.111685420000000e+01   4.820100464970190e+00   1.021911000000000e-01 -1.02062691e+00  -5.02254830e-01  -4.15647400e-01
C     3.725905821900000e+00   6.220893283705101e+00  -1.182479999999941e-02 -1.57534514e+00   3.94938250e-01  -3.99036260e-01
C     4.932276526100000e+00   6.934722282373486e+00  -9.172680000000000e-02  8.07838710e-01   5.74874220e-01   6.42871520e-01
C     6.172109950399999e+00   6.242473327160471e+00  -5.310030000000054e-02  8.03336770e-01  -7.61077040e-01  -6.66331880e-01
C     7.435634588299999e+00   6.942291432043167e+00  -9.862260000000234e-02 -1.89885600e+00  -4.04380930e-01   9.25541800e-02
C     8.664476183200000e+00   6.241130823932805e+00  -9.597420000000056e-02 -1.76529043e+00  -1.35393330e-01   8.88591100e-02
C     9.838642796300000e+00   6.939378434008020e+00  -3.415890000000132e-02  2.84046134e+00   1.40574359e+00   2.67260310e-01
C     1.107772257150000e+01   6.231361427432742e+00   7.617030000000000e-02  1.38278378e+00   8.82228750e-01  -7.33375210e-01
C     1.235011199030000e+01   6.971384865429784e+00  -1.161029999999741e-02 -1.01561959e+00  -1.65371739e+00   5.96727450e-01
