32
Lattice="9.86 0 0 4.93 8.53901048131456 0 0 0 30 " PBC="1 1 1" Properties=species:S:1:pos:R:3:force:R:3 Energy="-257.04305545"
C     4.978356398000000e+00   8.185349087488373e+00  -1.915724999999995e-01 -6.57172330e-01   2.12693010e-01   9.70765200e-02
C     1.281283040200000e+00   3.690126547723616e-01  -2.114648999999993e-01 -2.62421590e-01  -3.95865700e-01   1.07725170e+00
C     7.426120082699999e+00   8.176519494481738e+00  -2.011356000000006e-01  8.93431300e-02  -1.30287910e-01  -1.91608540e-01
C     3.714540890100000e+00   3.386789301135240e-01  -8.299829999999986e-02  2.16931800e-01   7.72424750e-01  -3.23903110e-01
C     9.863617338200001e+00   8.144342539020688e+00  -8.681909999999959e-02  6.39031150e-01   2.35655135e+00   5.48022960e-01
C     6.151112784600000e+00   3.397369989021008e-01  -6.933629999999980e-02  1.54271917e+00   8.10988490e-01  -1.20690710e-01
C     1.234649731430000e+01   8.179222774419497e+00  -7.091100000000239e-03 -1.66709240e-01  -1.18224920e-01  -4.24414760e-01
C     8.651156210600000e+00   3.398818205198416e-01  -1.717809000000017e-01  1.88742780e-01   8.90113360e-01   2.81368940e-01
C     1.281753263600000e+00   1.761548335763216e+00   8.139630000000000e-02 -8.35945200e-02   7.99576130e-01  -1.20429713e+00
C     2.503619204300000e+00   2.501801900092695e+00   1.581759000000000e-01  7.05250800e-02  -1.88628010e-01   4.33563810e-01
C     3.736442168599999e+00   1.792310462577835e+00   1.576860000000000e-02 -1.16010365e+00  -1.10427742e+00   2.10136290e-01
C     4.929847958800000e+00   2.505000015687770e+00  -2.820149999999799e-02  1.92696117e+00   3.09050070e-01  -2.21428980e-01
C     6.185434113499999e+00   1.788778642453202e+00  -1.472574000000009e-01 -4.03135380e-01  -2.10703550e-01   2.71551990e-01
C     7.429945023199999e+00   2.520098523238296e+00  -1.933578000000011e-01 -7.45427300e-02  -1.08359064e+00  -1.64546320e-01
C     8.677055028900000e+00   1.788211993717750e+00  -2.185305000000000e-01 -4.86469270e-01  -2.37986850e-01   9.29572360e-01
C     9.913396731399999e+00   2.485285831412384e+00  -1.098000000002486e-03 -6.99001340e-01   1.16421720e-01  -2.23986560e-01
C     2.500374524800000e+00   3.929269904446286e+00   3.407565000000000e-01 -5.05657240e-01  -4.77871090e-01  -8.68635000e-01
C     3.732960602600000e+00   4.648345271153584e+00   2.601153000000000e-01 -3.47731900e-02  -3.27778130e-01  -1.18237787e+00
C     4.944557944900000e+00   3.941914898115594e+00   4.890000000000000e-03 -3.21372200e-01  -8.28598020e-01   3.28092980e-01
C     6.162000788200000e+00   4.623935485015246e+00  -1.897172999999981e-01  1.24394491e+00   8.73653390e-01   1.94103800e-01
C     7.414748594000001e+00   3.941979196864509e+00  -2.005707000000001e-01  2.68676310e-01  -6.29165130e-01   1.47924830e-01
C     8.667183147599999e+00   4.633802653185306e+00  -9.168120000000002e-02 -4.02832330e-01   3.44409370e-01  -2.90686960e-01
C     9.884406852400000e+00   3.921934382103337e+00   6.935910000000001e-02  2.35344330e-01  -7.21031780e-01   4.01045700e-02
C     1.110347324330000e+01   4.627421194483287e+00   2.421063000000000e-01  8.34210390e-01   4.11653760e-01   2.37838520e-01
C     3.723078959900000e+00   6.052706030027457e+00   7.413119999999999e-02  1.77711894e+00   3.49695940e-01   7.81804960e-01
C     4.984091861400000e+00   6.776766044102454e+00  -9.253979999999729e-02 -1.45396570e-01  -9.02470840e-01  -7.09548280e-01
C     6.235174855500000e+00   6.054181912598820e+00  -2.427182999999999e-01 -2.34283843e+00  -5.75232360e-01   5.78050200e-01
C     7.448588853500000e+00   6.737058364518883e+00  -2.864018999999978e-01  5.75704840e-01   1.36895666e+00   5.10998950e-01
C     8.689889544400000e+00   6.063659104160258e+00  -1.426443000000006e-01 -2.33304240e-01  -9.73215160e-01   2.18138390e-01
C     9.911815483199998e+00   6.771659886615623e+00   1.773330000000000e-02 -4.00730080e-01  -1.60731757e+00  -2.69736220e-01
C     1.113529875970000e+01   6.059645000723714e+00   2.006094000000000e-01 -4.76857760e-01  -6.16757160e-01  -2.50844170e-01
C     1.237370785770000e+01   6.743601295909078e+00   1.532649000000000e-01 -7.52341920e-01   1.51281422e+00  -4.38897170e-01
