32
Lattice="9.86 0 0 4.93 8.53901048131456 0 0 0 30 " PBC="1 1 1" Properties=species:S:1:pos:R:3:force:R:3 Energy="-253.80425907"
C     4.944877507500000e+00   8.300848170191376e+00  -1.025978100000000e+00  2.26743065e+00   2.48453850e+00  -3.00581540e-01
C     1.337023690800000e+00   5.206497691178784e-01  -1.027472700000001e+00 -3.21276358e+00  -1.55847390e-01  -1.19018852e+00
C     7.455362180500000e+00   8.355498349604005e+00  -1.181269800000003e+00  3.96865570e-01   7.35387800e-02   1.41223196e+00
C     3.722722274400000e+00   5.823299450784816e-01  -9.779508000000021e-01  4.34772700e-01  -4.90656867e+00   1.28412340e-01
C     9.885662819200000e+00   8.394096982506435e+00  -7.650191999999976e-01  9.85080200e-02  -2.39768626e+00  -9.06977380e-01
C     6.214493308300001e+00   5.290952774331223e-01  -8.573553000000018e-01 -4.87405000e-01  -2.71686121e+00   4.76926950e-01
C     1.237960389120000e+01   8.390549194432205e+00  -8.534262000000012e-01 -1.30771730e+00  -4.06492788e+00   1.79654553e+00
C     8.660315213900001e+00   4.644431842650600e-01  -1.044179699999997e+00  1.40190076e+00   3.49724107e+00   5.21319120e-01
C     1.321657521700000e+00   1.940391335228746e+00  -9.021155999999984e-01 -5.63567140e-01   1.91152957e+00   2.47959508e+00
C     2.533814665500000e+00   2.674852291018908e+00  -4.450052999999983e-01 -1.37789339e+00  -3.61998514e+00  -2.77348145e+00
C     3.690049143100000e+00   1.886460482058953e+00  -7.141959000000000e-01  2.95577642e+00   5.32406411e+00   9.28914670e-01
C     5.019483591899999e+00   2.580939399858820e+00  -7.552994999999996e-01 -2.47351159e+00   1.97801263e+00   8.87706010e-01
C     6.214603986799999e+00   1.875924794758414e+00  -9.101949000000005e-01  5.97586650e-01   3.75080415e+00  -1.07892688e+00
C     7.430789482900000e+00   2.619125000824332e+00  -1.114080300000001e+00  1.67800654e+00   2.20614800e+00   1.10898526e+00
C     8.706319656800000e+00   1.986706671901952e+00  -1.045834799999998e+00 -7.47930360e-01  -1.94751232e+00  -4.45004610e-01
C     9.931744663100000e+00   2.710918338803074e+00  -8.553339000000015e-01  2.22334400e-02  -1.54880767e+00  -5.69110200e-02
C     2.516970531700000e+00   4.038081404921564e+00  -2.379269999999991e-01 -5.67063920e-01   1.28049788e+00  -1.97780640e-01
C     3.721786905500000e+00   4.752798289899659e+00  -3.962463000000014e-01  2.83875730e+00   1.76179939e+00   4.34792480e-01
C     4.994984252699999e+00   4.051343854438681e+00  -6.246830999999986e-01 -3.38051100e-01  -2.47801710e-01  -1.33598360e+00
C     6.190878115300000e+00   4.823898873002009e+00  -9.911238000000004e-01  1.35627905e+00  -2.38831979e+00   6.87440690e-01
C     7.503301056800000e+00   4.112499478985498e+00  -1.093251299999999e+00 -3.39865591e+00  -1.88923533e+00   3.85896050e-01
C     8.685895455599999e+00   4.839561552974948e+00  -9.052055999999986e-01  6.46881750e-01  -2.46431508e+00   7.89948390e-01
C     9.914736902599998e+00   4.125450425400304e+00  -5.744022000000015e-01 -1.28061411e+00  -1.70432906e+00  -1.36321966e+00
C     1.111068509380000e+01   4.732101521688341e+00  -2.561418000000018e-01  1.57191111e+00   2.78382387e+00  -6.06314630e-01
C     3.794571207000000e+00   6.264889425131937e+00  -4.076696999999996e-01 -1.38417917e+00  -2.73429232e+00  -1.58332581e+00
C     4.961221542100000e+00   6.931126334280147e+00  -9.351078000000008e-01  5.05691200e-01  -1.91836586e+00   1.44492814e+00
C     6.228834136000000e+00   6.210263325728862e+00  -1.073181300000002e+00 -1.91224908e+00   1.15276743e+00   2.64475320e-01
C     7.438798070700000e+00   6.938220031846304e+00  -1.141942800000002e+00  4.94691060e-01  -4.50531190e-01   2.10543520e-01
C     8.640311443100000e+00   6.207842772428097e+00  -8.777438999999987e-01  7.86279860e-01   2.17280177e+00  -3.75789640e-01
C     9.858382072600000e+00   6.897955779559645e+00  -6.617375999999986e-01  2.12746992e+00   2.19844375e+00   1.43851900e-01
C     1.116153281800000e+01   6.199495804293792e+00  -3.851799000000007e-01 -2.82030837e+00  -6.49456130e-01   2.41891940e-01
C     1.236372830520000e+01   6.899565383035124e+00  -3.841377000000001e-01  1.69086801e+00   3.22883211e+00  -2.12991997e+00
