26
Lattice="8.88768389401873 1.33226762955019e-15 0 4.44384194700937 7.69696003302603 0 0 0 30 " PBC="1 1 1" Properties=species:S:1:pos:R:3:force:R:3 Energy="-208.74013276"
C     1.272642885681454e+01   6.975303371513640e+00  -1.632300000000022e-01 -8.08328610e-01   7.48828270e-01  -1.39102500e-01
C     8.963813750462302e+00   6.816205514362333e+00  -3.140532000000000e-01 -3.15152160e-01   6.55106070e-01   3.66148340e-01
C     1.033920687337236e+01   6.427718928947352e+00  -3.414543000000023e-01 -4.46193020e-01  -6.62601710e-01  -5.28541100e-02
C     1.071321803041419e+01   5.027182390976560e+00  -3.514757999999993e-01 -1.63910999e+00   5.72693820e-01  -9.67976900e-02
C     6.603493319645942e+00   6.204937117234228e+00  -1.622693999999996e-01 -1.63365511e+00   2.04490060e-01  -1.13906230e-01
C     7.921200041489033e+00   5.800235654002446e+00  -3.074460000000023e-01  2.14457905e+00   2.82049550e+00   2.49966220e-01
C     8.340205764864887e+00   4.499159156569714e+00  -3.323342999999994e-01 -2.53204753e+00  -3.41474244e+00  -3.40700010e-01
C     9.645072805286867e+00   4.075087369787235e+00  -3.782972999999998e-01  2.37424230e+00  -1.34701360e+00   6.82387650e-01
C     9.989145976884817e+00   2.652863107539913e+00  -2.371917000000003e-01 -4.54250070e-01   7.96622130e-01  -1.36889630e-01
C     4.185067788989081e+00   5.599809970574858e+00  -1.392428999999993e-01  2.87901370e-01  -1.97010990e-01  -6.54629760e-01
C     5.579446737796942e+00   5.227338065046295e+00  -1.593462000000017e-01 -7.59776270e-01  -1.03893856e+00  -1.58326840e-01
C     5.924809245709672e+00   3.824907613090523e+00  -2.541926999999973e-01 -4.24199840e-01   7.05440930e-01   1.54910280e-01
C     7.310449690394125e+00   3.440888343276953e+00  -3.133914000000004e-01 -9.84445450e-01   1.80129152e+00   3.71515950e-01
C     7.590787769956007e+00   2.088527078133932e+00  -2.536563000000029e-01  1.87991701e+00  -1.97483393e+00  -1.24325460e-01
C     8.987923500503941e+00   1.640737801745410e+00  -1.901445000000024e-01 -1.53565821e+00   1.61844899e+00  -1.52048250e-01
C     3.149859520438141e+00   4.603978975224664e+00  -2.709426000000015e-01  1.44785182e+00   1.61348140e-01   7.08730200e-01
C     3.489110501408416e+00   3.213346423602876e+00  -1.715586000000009e-01  5.02526440e-01   9.29118770e-01  -5.88085440e-01
C     4.871085887452542e+00   2.835192930058569e+00  -2.147594999999995e-01  3.36338750e-01   1.49232360e+00   6.03577920e-01
C     5.220929165672766e+00   1.488075064996785e+00  -1.511688000000007e-01 -3.67576330e-01  -6.49548760e-01  -9.57701870e-01
C     6.577375390737324e+00   1.078745496668565e+00  -2.596814999999992e-01 -1.46695440e-01   1.15183092e+00   4.02439210e-01
C     1.133766043626059e+01   7.416538840375818e+00  -2.901389999999999e-01  1.74062574e+00  -1.12069711e+00   4.88328260e-01
C     2.453326888668629e+00   2.260265806681709e+00  -1.466759999999994e-01  1.29939700e-02  -8.31448100e-01   1.73188900e-02
C     2.775056289660192e+00   8.508679895371793e-01  -9.430139999999909e-02  2.22689218e+00   2.51852260e+00  -3.98174900e-01
C     4.178650255794194e+00   5.376195732634490e-01  -1.786761000000006e-01 -3.91009800e-01  -2.74539279e+00   4.42038800e-02
C     4.041895998503843e-01   2.791360282079725e-01  -9.774990000000017e-02  1.13849418e+00  -8.68905570e-01  -3.15411160e-01
C     6.246326323293257e+00   7.588101385508507e+00  -1.027635000000018e-01 -1.65426497e+00  -1.32542775e+00   1.39427040e-01
