32
Lattice="9.86 0 0 4.93 8.53901048131456 0 0 0 30 " PBC="1 1 1" Properties=species:S:1:pos:R:3:force:R:3 Energy="-252.87313197"
C     9.828555819100000e+00   2.760724422960504e-01   4.058030100000000e+00 -1.10012388e+00  -1.26638446e+00   2.73282280e-01
C     1.138935452700000e+00   1.025215031145105e+00   3.883116600000000e+00  2.33143480e+00  -1.13162070e-01  -2.53185260e-01
C     2.380875466000000e+00   3.745187795100752e-01   4.146849300000000e+00  4.62496700e-01  -3.88068367e+00   2.39968700e+00
C     3.636561058800000e+00   9.875310970452928e-01   4.271296200000000e+00 -1.53847354e+00   4.08808740e+00  -2.31052380e+00
C     4.838445906700000e+00   2.960950556299736e-01   4.387873800000000e+00  2.48336237e+00   1.91552600e+00   4.39811400e-02
C     6.113169187500000e+00   1.037629727701767e+00   4.247226900000000e+00 -3.44330010e-01   4.04332120e-01  -8.60089780e-01
C     7.333699886999999e+00   3.244830813608384e-01   4.025740800000000e+00  8.27898170e-01  -9.24337210e-01   7.34516260e-01
C     8.637062080099998e+00   9.976408585030888e-01   3.885153900000000e+00 -2.97406018e+00   5.37086650e-01   4.54720160e-01
C     1.106478462460000e+01   2.394896306756554e+00   3.476278500000000e+00 -1.58357220e+00   1.29802918e+00   6.57237080e-01
C     2.437343143700000e+00   3.136830519128706e+00   3.524843400000000e+00 -4.30313930e-01   1.77206310e+00   8.04036540e-01
C     3.619445035500000e+00   2.537728762006037e+00   3.894257100000000e+00  2.26372060e+00  -4.56215136e+00   1.69225274e+00
C     4.874642262500000e+00   3.215626970816260e+00   4.191952800000000e+00 -9.61058540e-01  -4.18696370e+00  -5.61089460e-01
C     6.140209596599999e+00   2.511721924737625e+00   4.221708899999999e+00 -3.30053128e+00  -3.92444828e+00   2.50647960e-01
C     7.320718704000000e+00   3.143369437183976e+00   4.145183400000000e+00  4.44607364e+00   1.37498500e+00  -1.00353860e-01
C     8.595588602999999e+00   2.434541566173517e+00   3.800517300000000e+00 -5.20121240e-01  -1.34962380e-01  -2.13410300e-02
C     9.797798633699999e+00   3.153335914045918e+00   3.480641100000000e+00 -3.92162860e-01   2.08775110e-01   1.83828526e+00
C     1.233699518300000e+01   4.628159221159073e+00   3.616813500000000e+00 -3.86553386e+00  -1.09997191e+00  -1.58720350e-01
C     3.616574838800000e+00   5.285296533789272e+00   3.952481400000000e+00  2.62923676e+00  -7.81450370e-01   1.46920570e+00
C     4.820678778300000e+00   4.519099064698619e+00   4.352094000000000e+00  1.07688643e+00   5.41807353e+00  -8.70996110e-01
C     6.095695887100000e+00   5.210958555643641e+00   4.575875700000000e+00  3.27889860e-01   4.41405730e-01   1.94513620e-01
C     7.378032024600000e+00   4.535327710286173e+00   4.480181699999999e+00 -3.45452680e-01   1.05538963e+00  -2.02890572e+00
C     8.625516808899999e+00   5.323963478775541e+00   4.228055100000000e+00 -1.72101904e+00  -3.26327323e+00   6.77699650e-01
C     9.744472647799999e+00   4.583645017966414e+00   3.734336700000000e+00  3.06531473e+00   1.46618005e+00   3.96814710e-01
C     1.105764716780000e+01   5.388451708332493e+00   3.759189300000000e+00 -1.84463325e+00  -4.80462222e+00  -1.41939776e+00
C     1.347231950930000e+01   6.681021620584511e+00   4.069364700000000e+00  8.95689600e-01   1.04250929e+00   1.04659058e+00
C     4.818820464100000e+00   7.379821277687259e+00   4.418078700000000e+00  2.28750380e+00   5.74303010e-01  -1.67239579e+00
C     6.111307274400000e+00   6.638332972442371e+00   4.618924200000000e+00 -1.54750796e+00   1.63099770e+00  -7.45019090e-01
C     7.323767810399999e+00   7.396892723609189e+00   4.576192800000000e+00  4.13139480e-01   1.28777998e+00  -1.12973673e+00
C     8.623820543799999e+00   6.688229484720783e+00   4.537162200000000e+00 -1.57902817e+00   1.97519752e+00  -5.04285160e-01
C     9.813368806200000e+00   7.452917000588259e+00   4.437762600000000e+00 -1.97424490e-01  -2.03585629e+00  -1.69063345e+00
C     1.096858913350000e+01   6.728840079272511e+00   3.960177000000000e+00  2.49777789e+00   2.20016840e+00   1.89321525e+00
C     1.227061219070000e+01   7.393543467528618e+00   4.013736300000000e+00 -1.76307772e+00   2.28737774e+00  -5.00012610e-01
