32
Lattice="9.86 0 0 4.93 8.53901048131456 0 0 0 30 " PBC="1 1 1" Properties=species:S:1:pos:R:3:force:R:3 Energy="-252.3544094"
C     5.466151156100000e+00   8.151517442576507e+00  -2.089691999999985e-01 -1.82363458e+00  -3.65373693e+00  -5.46406980e-01
C     1.786357251100000e+00   2.563445956038968e-01  -1.976069999999979e-01 -1.26330615e+00  -9.35241410e-01   1.28234025e+00
C     7.933466431999999e+00   8.038843918441335e+00   1.981638000000000e-01 -1.62320209e+00   3.73417033e+00  -3.25457188e+00
C     4.180231401600000e+00   2.438548411451152e-01  -1.198829999999873e-02 -6.39810530e-01   2.16850167e+00   3.23325840e-01
C     1.033099070520000e+01   8.105111933952633e+00  -5.375400000000141e-02  1.07008851e+00  -1.84532956e+00  -6.34597880e-01
C     6.613555609300000e+00   2.964965599027432e-01   7.342200000000000e-03 -3.78462320e-01   5.37956080e-01  -1.89578084e+00
C     1.278404802670000e+01   8.194068698040024e+00  -2.366670000000006e-01  3.30501780e-01  -4.22702615e+00  -1.18933677e+00
C     9.124919498499999e+00   2.873738226663304e-01  -3.005841000000018e-01 -3.07859760e-01   9.22881050e-01   9.43030380e-01
C     1.632192009900000e+00   1.599266917903855e+00  -5.539179000000019e-01  4.91747858e+00   1.32915852e+00  -3.39546860e-01
C     2.970137955799999e+00   2.316752406249881e+00  -7.681703999999989e-01 -6.53100110e+00   4.10730286e+00  -1.17660628e+00
C     4.068710512499999e+00   1.770351116276943e+00  -3.506480999999972e-01  5.58974894e+00  -4.54567659e+00   1.15279557e+00
C     5.321717685599999e+00   2.481475724936208e+00  -4.330373999999999e-01  4.68411550e-01  -2.01497544e+00   9.79720400e-01
C     6.503397224300000e+00   1.713449541361158e+00  -1.701809999999995e-01  2.67187897e+00   1.05995491e+00  -2.28678690e-01
C     7.799066103099999e+00   2.389325370929297e+00  -3.148008000000004e-01  1.79053230e-01   1.71188800e-01   5.37114210e-01
C     9.068491408700000e+00   1.721533422582574e+00  -3.074069999999978e-01  1.51348850e-01  -1.00809521e+00  -8.60975200e-01
C     1.032966088700000e+01   2.332123137454510e+00  -5.965401000000021e-01 -8.45347910e-01   2.82274399e+00  -4.82399900e-02
C     2.983519947800000e+00   3.800276708871843e+00  -1.137270599999997e+00 -1.87015744e+00  -1.46175660e-01   1.67741082e+00
C     4.166103747099999e+00   4.543917015537899e+00  -8.957666999999994e-01  1.29878720e-01   3.08777150e-01  -7.06224200e-02
C     5.393577759999999e+00   3.871608528377990e+00  -6.124080000000021e-01 -9.95874000e-03   2.64837100e-02   5.65641660e-01
C     6.609992057400000e+00   4.540391514281022e+00  -2.918732999999989e-01  2.51365907e+00   1.03655495e+00  -1.51763159e+00
C     7.882548110200000e+00   3.809644003368403e+00  -3.389868000000007e-01 -1.62431761e+00  -2.56670190e-01   3.58605370e-01
C     9.120209869499998e+00   4.486329587300361e+00  -4.088652000000010e-01  1.34584111e+00   2.13050204e+00  -2.65871270e-01
C     1.043054268820000e+01   3.821401025337896e+00  -7.560794999999985e-01 -5.30934909e+00  -1.57477435e+00   1.16266402e+00
C     1.151251356850000e+01   4.591781243322073e+00  -1.065266399999999e+00  3.80963276e+00  -2.81435316e+00   5.82081000e-02
C     4.156891204000000e+00   5.969343513265933e+00  -7.158480000000012e-01  9.41440620e-01   1.25636305e+00   1.02923615e+00
C     5.425680342400000e+00   6.653219029412155e+00  -2.949182999999991e-01  9.22436000e-02   1.46384036e+00  -1.06108557e+00
C     6.743745225200000e+00   5.989515900843675e+00  -2.644616999999982e-01 -5.62166514e+00  -1.95798962e+00   5.87910700e-01
C     7.898595999699999e+00   6.678350447326157e+00  -1.815329999999804e-02  1.16760416e+00  -8.31675140e-01   7.56274770e-01
C     9.100764519799998e+00   5.987039246244056e+00  -1.711127999999995e-01  2.10832413e+00  -3.54705301e+00  -1.74540695e+00
C     1.034435913970000e+01   6.643697264216012e+00  -3.788936999999990e-01 -8.59212520e-01   1.76808210e+00   1.03250249e+00
C     1.151886912730000e+01   5.964048899817809e+00  -8.489891999999983e-01  6.06653600e-01   2.26813872e+00   1.45516992e+00
C     1.276315532760000e+01   6.674141996011089e+00  -6.694460999999983e-01  6.13496760e-01   2.24617212e+00   9.33408510e-01
