32
Lattice="9.86 0 0 4.93 8.53901048131456 0 0 0 30 " PBC="1 1 1" Properties=species:S:1:pos:R:3:force:R:3 Energy="-250.04222122"
C     9.805258068799999e+00   7.081486781168800e-02   3.521327100000000e+00  3.19044937e+00  -1.14747179e+00   4.01126771e+00
C     1.272749160900000e+00   6.932731241299864e-01   3.651902100000000e+00 -3.25484449e+00   5.12517632e+00  -5.82281640e-01
C     2.418056194900000e+00   1.437942893899512e-01   4.163314800000000e+00  2.28450560e+00  -8.23932010e-01  -3.29468810e-01
C     3.714655709800000e+00   8.335445593563089e-01   4.054553100000000e+00 -2.10309597e+00   2.42140504e+00  -2.12897870e-01
C     4.898193562700000e+00   1.089105529968456e-01   3.983008500000000e+00  1.19895000e-01   6.99450570e-01   2.20752485e+00
C     6.071098292999999e+00   9.058008121370208e-01   4.207344900000000e+00  2.24587154e+00  -1.55014677e+00  -2.78269686e+00
C     7.383054215600000e+00   6.216280083293280e-02   4.195684800000000e+00 -1.64652454e+00   5.84409815e+00  -1.66967079e+00
C     8.587531257500000e+00   7.928169803610056e-01   3.648293400000000e+00 -1.56356690e+00  -1.41071330e+00   3.14943825e+00
C     1.107055563330000e+01   2.284469908619299e+00   3.551270100000000e+00 -2.28299449e+00  -4.14614172e+00   5.72650000e-02
C     2.348856249900000e+00   2.981380395043451e+00   3.672955500000000e+00  5.33303555e+00   2.17269935e+00   1.56936206e+00
C     3.731747378900000e+00   2.322785985664945e+00   3.965416200000000e+00 -5.29243118e+00  -3.18909987e+00  -1.28119873e+00
C     4.885857716700000e+00   3.008531886666706e+00   3.941508000000000e+00 -1.19017210e-01   5.39358068e+00   3.86041480e-01
C     6.068830493000000e+00   2.364163383357776e+00   3.917527200000000e+00  3.35264328e+00  -5.11660848e+00   2.02730274e+00
C     7.387753294400000e+00   2.895926333054955e+00   3.985170900000000e+00 -1.46011491e+00   2.88509627e+00   1.33732564e+00
C     8.587572965300000e+00   2.183243013422671e+00   3.927380400000000e+00  1.07674120e-01  -1.27425410e-01  -2.89835646e+00
C     9.760769206500001e+00   2.940034335519081e+00   3.625860600000000e+00  1.78390631e+00  -1.46797949e+00  -3.02181120e-01
C     1.223785308020000e+01   4.446399210323470e+00   3.761427900000000e+00  2.14780498e+00  -7.43000450e-01   3.41203990e-01
C     3.702544918299999e+00   5.236393876940626e+00   3.942650400000000e+00 -2.91358843e+00  -2.73633715e+00   4.17784850e-01
C     4.896955689000000e+00   4.545639760902239e+00   4.089533400000000e+00  1.49517164e+00  -3.56475343e+00  -1.91084377e+00
C     6.202573455700000e+00   5.129392390516794e+00   4.148172600000001e+00 -6.16822350e-01  -8.77939440e-01   2.43912080e+00
C     7.431042786300000e+00   4.323132872907649e+00   4.268294400000000e+00 -2.44069841e+00  -7.74639260e-01  -2.15990816e+00
C     8.610546518800000e+00   4.996675247081918e+00   4.071293100000000e+00  3.52586830e-01   3.11069579e+00   1.04023866e+00
C     9.737020903499999e+00   4.320606179706617e+00   3.568494600000000e+00  2.50171564e+00   2.35248604e+00   2.60468978e+00
C     1.101907396040000e+01   5.095338389772030e+00   3.771654000000000e+00 -1.12257976e+00   7.71360690e-01  -1.39786747e+00
C     1.351067022580000e+01   6.597336158446634e+00   4.099879500000000e+00  3.20694580e-01   9.04675420e-01   1.39801339e+00
C     4.946641165699999e+00   7.290814218828140e+00   4.159500600000000e+00 -1.33855127e+00  -9.60816410e-01  -2.18728044e+00
C     6.220151962299999e+00   6.522169725504233e+00   4.374668100000000e+00 -2.28610434e+00   2.23763420e+00  -8.50728310e-01
C     7.376988343599999e+00   7.305225592205341e+00   4.529300700000000e+00  2.03258844e+00  -3.11019970e+00  -1.61517586e+00
C     8.647423904800000e+00   6.444042817628416e+00   4.399271400000000e+00 -1.28556596e+00   1.85393758e+00  -2.38051084e+00
C     9.792743214500000e+00   7.206902216742228e+00   3.991089300000000e+00 -3.76201170e-01   1.85763120e-01   1.25164358e+00
C     1.101097633680000e+01   6.547277917309730e+00   3.894793200000000e+00  1.03502628e+00  -1.63355732e+00   1.82622592e+00
C     1.220964667680000e+01   7.256124574143245e+00   4.317268200000000e+00  1.79913220e+00  -2.57729722e+00  -3.50338160e+00
