32
Lattice="9.796 0 0 4.898 8.48358485547236 0 0 0 30 " PBC="1 1 1" Properties=species:S:1:pos:R:3:force:R:3 Energy="-257.88610863"
C     9.074657513364903e-03  -1.071281902506741e-02   3.001918193050421e+00 -7.41806850e-01   7.04549130e-01   3.33348500e-02
C     1.223664289460604e+00   7.055018532945018e-01   3.002530825914209e+00  3.54729900e-02  -2.69204530e-01  -7.52005000e-02
C     2.441381394163428e+00  -2.888422312802230e-03   2.987306512341016e+00  3.74851670e-01   1.80211030e-01   2.73201910e-01
C     3.666956039139927e+00   7.016295419256298e-01   3.007873973012657e+00  3.32188400e-02   1.38053760e-01  -1.90315600e-01
C     4.888248554818661e+00   4.490246531130079e-03   3.000814568440573e+00  5.10710090e-01  -4.65795710e-01  -4.39694100e-02
C     6.120278581047274e+00   7.096561335798488e-01   2.990539019479320e+00 -2.03079950e-01  -4.46994700e-02   7.41978900e-02
C     7.343996184925777e+00  -1.788661787143358e-03   2.990805924324706e+00 -6.98242600e-02   8.73058000e-02   3.95969700e-02
C     8.565003720867157e+00   7.134411506757924e-01   3.006986595357899e+00  5.62235040e-01  -5.82069310e-01  -1.40906870e-01
C     1.230955791174073e+00   2.112338159442929e+00   3.003975214948599e+00 -1.04041110e-01   6.45345640e-01  -5.97657600e-02
C     2.451490357988157e+00   2.836466884722146e+00   2.999458502750161e+00  2.69376530e-01  -8.76677540e-01   5.79972700e-02
C     3.684150615038838e+00   2.110649233691053e+00   3.000717828250217e+00 -7.72799480e-01   6.83409080e-01   5.37368500e-02
C     4.896444912415213e+00   2.829876367429593e+00   3.006450673052168e+00  3.38504810e-01  -3.59108480e-01  -1.33802000e-02
C     6.121838041269420e+00   2.122864457372983e+00   2.998411781487683e+00  2.90263950e-01  -1.18137130e-01   6.58441400e-02
C     7.357849584774756e+00   2.818526438271125e+00   3.006004458400897e+00 -9.26808560e-01   1.15741328e+00  -1.68660230e-01
C     8.566645954329827e+00   2.129733346475027e+00   2.997836674658276e+00  9.29887280e-01  -4.89599250e-01   7.96987200e-02
C     9.807464675171309e+00   2.829653428024126e+00   2.995001418514096e+00 -3.70231910e-01   6.28212700e-02   2.91292300e-02
C     2.447919947608024e+00   4.242180142598516e+00   3.006001692101645e+00 -1.83499680e-01   1.21918170e-01  -6.43893900e-02
C     3.664688154503433e+00   4.942861075923878e+00   2.990542350106099e+00  8.24823660e-01   5.34106690e-01   2.29917250e-01
C     4.902576196823688e+00   4.234368041714113e+00   3.010797496261283e+00 -5.82720350e-01   5.64039540e-01  -1.93517370e-01
C     6.122775811647172e+00   4.952449910069685e+00   2.996607435862639e+00  8.07417500e-02  -3.99535490e-01   6.85239100e-02
C     7.347445797700268e+00   4.253267743022866e+00   2.991326168657448e+00  3.31536480e-01  -8.40662640e-01   1.36793580e-01
C     8.577508085523311e+00   4.951516468008241e+00   2.999271057234507e+00 -3.86963430e-01   7.33949600e-02  -9.07014500e-02
C     9.804244183605272e+00   4.250615528401031e+00   2.992888317684266e+00 -2.55483560e-01  -5.24392250e-01   1.51092450e-01
C     1.101820471944811e+01   4.955175766664789e+00   3.014309037261504e+00  2.77879970e-01  -4.32943200e-01  -1.38326310e-01
C     3.678352307605225e+00   6.373603103159465e+00   2.996469104479680e+00 -4.11783410e-01  -8.77620740e-01  -9.42525900e-02
C     4.906865603725250e+00   7.063833555861766e+00   2.997654496298297e+00 -5.66658700e-02   1.07916620e-01   2.69167100e-02
C     6.129315972942332e+00   6.354113070466144e+00   3.001314602763915e+00  1.13674320e-01   5.97733160e-01  -2.11671300e-02
C     7.360320018711001e+00   7.074623510529442e+00   3.005951938530230e+00 -1.07293430e+00  -3.40279250e-01  -1.54572730e-01
C     8.563788599717071e+00   6.366779461539159e+00   3.000647996692745e+00  9.34218990e-01  -1.78311930e-01   3.48921700e-02
C     9.796521304446825e+00   7.067443630789422e+00   2.997665754848063e+00 -2.43619210e-01   2.34969840e-01   7.79474500e-02
C     1.101713448684981e+01   6.354190474060866e+00   3.007543981366094e+00  2.15305700e-02   6.04847650e-01  -1.06606420e-01
C     1.223763367534376e+01   7.064169953244035e+00   2.989168041864652e+00  4.53334980e-01   3.01001310e-01   1.22910600e-01
