26
Lattice="8.88768389401873 1.33226762955019e-15 0 4.44384194700937 7.69696003302603 0 0 0 30 " PBC="1 1 1" Properties=species:S:1:pos:R:3:force:R:3 Energy="-208.98558036"
C     6.832825160985921e-01   7.729897631056378e-01   3.444751500000000e+00 -6.25514750e-01   1.77738531e+00   1.03822575e+00
C     3.056245232084735e+00   1.842312795244677e-01   3.425814300000000e+00  1.35922497e+00   8.80943290e-01   6.63403250e-01
C     4.446511672292865e+00   5.658300863174034e-01   3.559414200000000e+00 -4.05264440e-01   3.05646130e-01  -3.97697300e-01
C     9.930330842987463e+00   7.291217322015360e+00   3.693009600000000e+00 -6.99025020e-01   1.45033120e-01  -9.18937600e-02
C     6.844662084448660e+00   1.616153788379190e-02   3.707012400000000e+00  1.17746990e-01  -3.43202950e-01  -1.58236320e-01
C     1.231186359705769e+01   6.727576789917690e+00   3.648459900000000e+00 -4.19209990e-01  -1.15828120e-01   2.30504010e-01
C     4.778274606992696e+00   7.119318958516561e+00   3.527997600000000e+00  1.20987101e+00  -1.25641416e+00  -1.93175910e-01
C     5.844646293530523e+00   6.117553760922438e+00   3.501337800000000e+00 -5.88895720e-01   9.52714930e-01   8.39662800e-02
C     7.218433145837796e+00   6.509007370489785e+00   3.489625800000000e+00 -1.64051671e+00   4.20982020e-01   1.65909940e-01
C     8.226829137230006e+00   5.540239656301075e+00   3.619673700000000e+00 -8.43835460e-01  -6.07226230e-01  -2.10401490e-01
C     9.561753391873610e+00   5.905033382382110e+00   3.718505400000000e+00  1.17148801e+00   1.22405852e+00  -3.29020320e-01
C     1.057584101159000e+01   4.935405071092445e+00   3.680229000000000e+00  8.13028540e-01  -4.27661810e-01   2.99608700e-01
C     1.194417678075844e+01   5.359833688941916e+00   3.671889000000000e+00  1.02162767e+00  -1.28979564e+00  -6.84873620e-01
C     4.116736252631450e+00   4.370161647068528e+00   3.541280100000000e+00 -5.44139080e-01  -4.36586610e-01   3.22250870e-01
C     5.503563203620788e+00   4.764411870093175e+00   3.550809600000000e+00 -1.24787725e+00  -1.35079855e+00   2.01933800e-02
C     6.496528442641874e+00   3.734492193314116e+00   3.594916800000000e+00  5.41180800e-01   1.13371082e+00  -6.12998820e-01
C     7.864855901837441e+00   4.176722109412171e+00   3.594060900000000e+00 -3.31085800e-01  -1.70297293e+00   3.68759120e-01
C     8.870950116381469e+00   3.152646118627088e+00   3.584333400000000e+00  6.15161260e-01   1.35493595e+00   4.45426690e-01
C     1.023856571650995e+01   3.554970144844803e+00   3.615233700000000e+00  9.18953440e-01  -5.15297780e-01  -1.29092308e+00
C     2.394847084269141e+00   2.564769090908553e+00   3.376184100000000e+00 -2.42771360e-01   1.00028735e+00   1.76217672e+00
C     3.779424562465933e+00   2.959038710272476e+00   3.466492800000000e+00 -3.55813920e-01   4.14036450e-01  -2.57660340e-01
C     4.791762197193442e+00   1.941787306067593e+00   3.504266100000000e+00  3.39979540e-01   8.62348690e-01   1.14837060e-01
C     6.170261477266417e+00   2.354093057930613e+00   3.558466200000000e+00 -6.40485840e-01   2.01370360e-01   6.92375740e-01
C     7.202252180783002e+00   1.388618795969140e+00   3.672692400000000e+00 -7.87231770e-01  -9.15121600e-02  -5.03517490e-01
C     8.547545340741204e+00   1.795731331930319e+00   3.607868100000000e+00  4.48250960e-01  -1.48163475e+00  -6.73663450e-01
C     2.033252153139118e+00   1.197808770767830e+00   3.420104400000000e+00  8.15153920e-01  -1.05452127e+00  -8.03575620e-01
