32
Lattice="9.86 0 0 4.93 8.53901048131456 0 0 0 30 " PBC="1 1 1" Properties=species:S:1:pos:R:3:force:R:3 Energy="-256.60587877"
C     1.191747979100000e+00   3.734378261734120e-01   3.407675100000000e+00 -1.16725870e-01  -2.19377317e+00   4.23878590e-01
C     2.436988972500000e+00   1.010096029969426e+00   3.504169500000000e+00  6.28120420e-01  -3.67528500e-02  -7.27676260e-01
C     3.687573001300000e+00   2.967482899316936e-01   3.439686300000000e+00 -7.64187930e-01   5.72800790e-01   6.71577130e-01
C     4.895645837300000e+00   9.975354871137656e-01   3.479043000000000e+00 -5.38639500e-02   2.52827092e+00  -4.50118770e-01
C     6.119848647299999e+00   2.908891625007368e-01   3.447934800000000e+00  3.85404280e-01   2.68617997e+00   9.96296150e-01
C     7.357653080800000e+00   1.019374604147099e+00   3.515415600000000e+00  1.98378990e-01   3.61149890e-01  -9.75572700e-02
C     8.594321050700000e+00   3.110419103543752e-01   3.433075200000000e+00 -7.56638580e-01  -1.43258512e+00   8.46764400e-01
C     9.798987897600000e+00   1.011914241470933e+00   3.464017200000000e+00  1.01125963e+00   2.19534313e+00  -4.08476960e-01
C     2.442544244400000e+00   2.394752851380489e+00   3.543047100000000e+00  2.83446600e-02   2.35927953e+00   4.88623160e-01
C     3.663676108100000e+00   3.156549826810380e+00   3.608692500000000e+00 -8.27707930e-01   5.18118210e-01  -2.77815310e-01
C     4.854822824399999e+00   2.475325075687464e+00   3.503625600000000e+00  3.58779508e+00  -1.62697811e+00   1.45219380e-01
C     6.187418734300000e+00   3.190191991079694e+00   3.495075000000000e+00 -2.98793034e+00  -2.55737121e+00   6.48777770e-01
C     7.381259104000000e+00   2.471144888497085e+00   3.622362300000000e+00 -1.89773350e-01  -2.32213510e+00  -1.61961605e+00
C     8.605515010100000e+00   3.143667192479414e+00   3.517760700000000e+00 -4.77447500e-02   6.72707300e-01   8.40575710e-01
C     9.836437903100000e+00   2.465346814991060e+00   3.499871400000000e+00  3.76001900e-02  -1.59398078e+00   5.13878600e-02
C     1.108215888130000e+01   3.135813352200329e+00   3.552593400000000e+00 -5.77933740e-01   8.09365920e-01   4.74243000e-02
C     3.663128631599999e+00   4.594885942142495e+00   3.665326200000000e+00 -6.18026700e-01   6.04612510e-01  -5.79869580e-01
C     4.901000704699999e+00   5.306847373828801e+00   3.531999600000000e+00  5.01114390e-01  -1.68440512e+00  -3.20030590e-01
C     6.170872273900000e+00   4.546945802555157e+00   3.461317200000000e+00 -1.56082965e+00   3.66589742e+00   4.73108230e-01
C     7.370259041499999e+00   5.308020292308333e+00   3.498682800000000e+00 -1.00399790e-01  -2.00536480e-01   2.37226270e-01
C     8.572134966100000e+00   4.546137670603328e+00   3.563167200000000e+00  1.03975530e+00   2.20573474e+00  -7.64837900e-01
C     9.814813690599999e+00   5.283820821998119e+00   3.538785300000000e+00 -1.05961180e-01  -7.13552000e-01   5.99960590e-01
C     1.104305949500000e+01   4.591891311167160e+00   3.611521500000000e+00  4.90261480e-01  -1.31449696e+00  -1.60015560e-01
C     1.224874113310000e+01   5.321316556306952e+00   3.664451100000000e+00  1.38166801e+00  -3.17881870e-01  -2.05662010e-01
C     4.891486100500000e+00   6.712994920645613e+00   3.414654000000000e+00  1.66017952e+00   2.22190670e-01   6.22182290e-01
C     6.134662459199999e+00   7.493584550339888e+00   3.393997800000000e+00 -3.07223080e-01  -1.88331968e+00   2.88768810e-01
C     7.358289248000000e+00   6.750926827609764e+00   3.508450500000000e+00  7.22872260e-01  -2.16039000e-02  -8.10668080e-01
C     8.638359409600000e+00   7.445351266522770e+00   3.482422800000000e+00 -1.44128643e+00  -1.95367433e+00   1.99499720e-01
C     9.852884974699998e+00   6.689204383547286e+00   3.547061400000000e+00 -1.11026298e+00   1.62309455e+00   3.32744700e-02
C     1.104517732440000e+01   7.473233355882694e+00   3.602980800000000e+00  2.05235230e-01  -2.84079781e+00  -9.91425380e-01
C     1.225297018570000e+01   6.752339265333262e+00   3.589255200000000e+00  1.77113684e+00  -1.35537139e+00   4.32068790e-01
C     1.354261238600000e+01   7.371359374471893e+00   3.507733800000000e+00 -2.08263002e+00   3.02447029e+00  -6.32843860e-01
