26
Lattice="8.88768389401873 1.33226762955019e-15 0 4.44384194700937 7.69696003302603 0 0 0 30 " PBC="1 1 1" Properties=species:S:1:pos:R:3:force:R:3 Energy="-209.66485872"
C     0.000000000000000e+00   0.000000000000000e+00   3.399999900000000e+00 -0.00000000e+00   0.00000000e+00  -0.00000000e+00
C     6.836679926836680e+00   7.104886157855507e+00   3.399999900000000e+00 -0.00000000e+00   0.00000000e+00  -0.00000000e+00
C     8.204015920425034e+00   7.499602046961969e+00   3.399999900000000e+00  0.00000000e+00  -0.00000000e+00   0.00000000e+00
C     9.229517948111781e+00   6.512812362680615e+00   3.399999900000000e+00 -0.00000000e+00   0.00000000e+00  -0.00000000e+00
C     1.059685385282329e+01   6.907528251787077e+00   3.399999900000000e+00 -0.00000000e+00  -0.00000000e+00   0.00000000e+00
C     1.162235583607162e+01   5.920738490536122e+00   3.399999900000000e+00  0.00000000e+00   0.00000000e+00   0.00000000e+00
C     4.102007939659974e+00   6.315454379642585e+00   3.399999900000000e+00  0.00000000e+00  -0.00000000e+00   0.00000000e+00
C     5.127509922908301e+00   5.328664618391631e+00   3.399999900000000e+00 -0.00000000e+00   0.00000000e+00   0.00000000e+00
C     6.494845916496654e+00   5.723380507498092e+00   3.399999900000000e+00  0.00000000e+00  -0.00000000e+00   0.00000000e+00
C     7.520347944183401e+00   4.736590823216739e+00   3.399999900000000e+00  0.00000000e+00   0.00000000e+00  -0.00000000e+00
C     8.887683937771754e+00   5.131306712323200e+00   3.399999900000000e+00  0.00000000e+00   0.00000000e+00   0.00000000e+00
C     9.913185921020080e+00   4.144516951072246e+00   3.399999900000000e+00 -0.00000000e+00   0.00000000e+00  -0.00000000e+00
C     1.128052182573159e+01   4.539232840178707e+00   3.399999900000000e+00 -0.00000000e+00  -0.00000000e+00   0.00000000e+00
C     3.418339918979920e+00   3.552443078927753e+00   3.399999900000000e+00 -0.00000000e+00   0.00000000e+00   0.00000000e+00
C     4.785675912568275e+00   3.947158968034215e+00   3.399999900000000e+00  0.00000000e+00  -0.00000000e+00  -0.00000000e+00
C     5.811177895816600e+00   2.960369206783261e+00   3.399999900000000e+00 -0.00000000e+00   0.00000000e+00   0.00000000e+00
C     7.178513933843374e+00   3.355085172859323e+00   3.399999900000000e+00  0.00000000e+00  -0.00000000e+00  -0.00000000e+00
C     8.204015917091700e+00   2.368295411608369e+00   3.399999900000000e+00 -0.00000000e+00  -0.00000000e+00  -0.00000000e+00
C     9.571351910680052e+00   2.763011300714830e+00   3.399999900000000e+00  0.00000000e+00   0.00000000e+00   0.00000000e+00
C     1.709170003928380e+00   1.776221539463877e+00   3.399999900000000e+00 -0.00000000e+00   0.00000000e+00  -0.00000000e+00
C     3.076505997516733e+00   2.170937428570338e+00   3.399999900000000e+00 -0.00000000e+00  -0.00000000e+00   0.00000000e+00
C     4.102007891888221e+00   1.184147667319384e+00   3.399999900000000e+00 -0.00000000e+00   0.00000000e+00  -0.00000000e+00
C     5.469343929914992e+00   1.578863633395446e+00   3.399999900000000e+00  0.00000000e+00  -0.00000000e+00  -0.00000000e+00
C     6.494845913163321e+00   5.920738721444924e-01   3.399999900000000e+00 -0.00000000e+00   0.00000000e+00   0.00000000e+00
C     7.862181906751673e+00   9.867897612509539e-01   3.399999900000000e+00  0.00000000e+00   0.00000000e+00  -0.00000000e+00
C     1.367335993588353e+00   3.947158891064615e-01   3.399999900000000e+00  0.00000000e+00   0.00000000e+00  -0.00000000e+00
