26
Lattice="8.88768389401873 1.33226762955019e-15 0 4.44384194700937 7.69696003302603 0 0 0 30 " PBC="1 1 1" Properties=species:S:1:pos:R:3:force:R:3 Energy="-208.60363206"
C     6.455447881382178e-01   7.336398246482658e-01   3.754835100000000e+00 -5.17285540e-01   6.58237510e-01  -1.05692286e+00
C     3.062007028658870e+00   1.612737107821873e-01   3.876386100000000e+00 -8.03256030e-01  -8.63398250e-01  -1.27534097e+00
C     4.426406042664427e+00   5.514849540310913e-01   3.733703100000000e+00 -1.09691314e+00   8.28881770e-01  -1.30373720e-01
C     9.854011368208543e+00   7.277852551528069e+00   3.518882700000000e+00  1.23510632e+00  -1.72532228e+00   4.10510750e-01
C     1.123546758068217e+01   7.644663419924166e+00   3.465203700000000e+00 -4.71879400e-02   9.90075500e-02   1.04617020e-01
C     1.227288181551808e+01   6.647071898906312e+00   3.484246200000000e+00 -9.34636940e-01   1.34349000e-03  -1.95936300e-01
C     4.735068998135277e+00   7.058050079103357e+00   3.582331800000000e+00 -1.19142670e-01   4.45420100e-02   6.74452800e-01
C     5.729577405735059e+00   6.066424779683156e+00   3.620414100000000e+00  1.34464075e+00  -1.71455110e-01   7.10360000e-01
C     7.115992145956374e+00   6.477295510318183e+00   3.678888600000000e+00  3.13507660e-01  -1.93455860e-01   2.59799410e-01
C     8.140432584240180e+00   5.489427251027826e+00   3.566239500000000e+00  1.22311409e+00  -9.65300730e-01  -1.09980490e-01
C     9.553857617912106e+00   5.855699332221823e+00   3.513787800000000e+00 -1.22210091e+00   9.42627940e-01   1.42575770e-01
C     1.059882220685104e+01   4.870339204326842e+00   3.514893000000000e+00 -2.40319550e+00  -3.83836030e-01  -3.09511940e-01
C     3.044584771854211e+00   5.232632880820533e+00   3.480707100000000e+00  1.07471887e+00   1.88636534e+00   1.00670430e+00
C     4.049985080513673e+00   4.262658283299118e+00   3.682746600000000e+00 -6.13028100e-02   6.44075790e-01  -1.00051176e+00
C     5.402447312926135e+00   4.666798869053514e+00   3.702037800000000e+00  2.48641500e-01   1.21522239e+00  -1.62248129e+00
C     6.414734687847913e+00   3.721383731595824e+00   3.482218800000000e+00  1.84353684e+00  -1.09492447e+00   1.56839109e+00
C     7.822212350081895e+00   4.073381338596584e+00   3.503106600000000e+00 -9.87216230e-01   1.75270975e+00   2.12620940e-01
C     8.857967209922354e+00   3.114619980325275e+00   3.621178500000000e+00 -7.12146450e-01  -4.15506090e-01  -8.52567230e-01
C     1.021775942628705e+01   3.486762840812556e+00   3.604261800000000e+00  8.10141740e-01   4.11697910e-01   9.68858910e-01
C     2.357670569098912e+00   2.511426771843044e+00   3.812764500000000e+00 -1.14012059e+00   8.59637000e-03  -1.32457306e+00
C     3.700511217114622e+00   2.900888100276225e+00   3.654919200000000e+00  7.23641000e-03   4.03536620e-01   1.37257249e+00
C     4.722785460239153e+00   1.967261241952481e+00   3.683244000000000e+00  1.21802180e+00  -2.26588568e+00  -1.20801470e-01
C     6.093079452762802e+00   2.335847952966700e+00   3.576189000000000e+00 -3.64789720e-01   1.53639240e-01  -7.02977790e-01
C     7.103947642289336e+00   1.341651791926879e+00   3.497908200000000e+00  1.50737015e+00  -7.07255900e-02   4.08032180e-01
C     8.502035155452834e+00   1.737116826153061e+00   3.588446700000000e+00 -1.17830070e-01  -8.66891690e-01   5.90784040e-01
C     2.020453088402943e+00   1.131575198196076e+00   3.857508600000000e+00 -2.98911600e-01  -3.37819200e-02   2.71699180e-01
