26
Lattice="8.88768389401873 1.33226762955019e-15 0 4.44384194700937 7.69696003302603 0 0 0 30 " PBC="1 1 1" Properties=species:S:1:pos:R:3:force:R:3 Energy="-208.85318011"
C     1.231701947568241e+01   6.550353592500537e+00  -1.073955000000026e-01 -1.31932333e+00   3.96747200e-01   2.81098400e-02
C     8.487650753115872e+00   6.309213992328662e+00  -9.595290000000034e-02  1.74156232e+00   1.04630130e-01  -6.58718000e-03
C     9.880949759450967e+00   5.931674716194748e+00  -9.103769999999756e-02  7.33070090e-01  -3.24825300e-01  -4.91787160e-01
C     1.025830935139670e+01   4.528600028684465e+00  -1.760421000000001e-01 -1.36554879e+00   1.50317259e+00  -5.97663700e-02
C     6.111799361354645e+00   5.732412428275695e+00  -9.642029999999835e-02  7.32363830e-01   1.15574182e+00  -2.73022190e-01
C     7.461611819170742e+00   5.333912636648885e+00  -7.089600000000118e-02  6.03724200e-01  -6.49284310e-01   1.18222520e-01
C     7.817154546844949e+00   3.936644073967632e+00  -6.365939999999881e-02 -3.23141750e-01   1.06901737e+00  -4.32481510e-01
C     9.179189036503583e+00   3.578085424298098e+00  -1.461933000000002e-01  1.36674927e+00  -7.76401660e-01  -2.44824150e-01
C     9.558702869718326e+00   2.189371647842188e+00  -2.375459999999983e-01 -3.64801650e-01   8.91790290e-01   9.00702660e-01
C     3.756417061064545e+00   5.185363540188294e+00  -2.114192999999993e-01 -5.64457530e-01  -1.13083647e+00  -5.87803040e-01
C     5.108784061415186e+00   4.775254962535437e+00  -2.343708000000007e-01 -3.39818440e-01  -1.10599143e+00  -2.65514630e-01
C     5.445076821232423e+00   3.371274573738424e+00  -4.046622000000006e-01  7.29418300e-02   1.12177144e+00   1.19771302e+00
C     6.782632318621274e+00   2.952813716878612e+00  -1.784661000000014e-01  7.50001250e-01   1.46750248e+00  -5.63499050e-01
C     7.147992248645577e+00   1.617831956574531e+00  -1.816089000000005e-01  9.38738130e-01  -1.74310907e+00   1.58484140e-01
C     8.552981714405963e+00   1.212827848874369e+00  -9.284489999999934e-02 -1.29677695e+00   2.10607800e-02  -6.25452040e-01
C     2.732395809093112e+00   4.174638465362449e+00  -3.591087000000002e-01 -1.73563680e-01   4.24032980e-01   7.95726410e-01
C     3.059842657151643e+00   2.796843288526695e+00  -4.461557999999997e-01  3.46533700e-01   2.34587600e-01   3.26003130e-01
C     4.431214947434942e+00   2.413737416959886e+00  -4.748240999999993e-01 -5.87160380e-01  -1.45882281e+00   1.21295750e-01
C     4.776895678868847e+00   1.010527801740276e+00  -3.780207000000004e-01 -7.57799440e-01  -3.31624200e-02   5.01856370e-01
C     6.119396461352615e+00   6.303089829111191e-01  -2.540702999999986e-01  1.16682750e+00  -6.03484420e-01   2.38378760e-01
C     1.091666627021437e+01   6.941691901606634e+00  -1.452990000000014e-01 -4.08245300e-02  -5.02501610e-01   9.98031600e-02
C     2.038075144091111e+00   1.832415582220501e+00  -2.940266999999999e-01  2.31702210e-01  -1.72971114e+00  -4.21286570e-01
C     2.375345949070557e+00   4.107844477130910e-01  -2.235267000000007e-01  1.53152505e+00   1.18316075e+00   1.09928520e-01
C     8.222121332469644e+00   7.689494286649301e+00  -2.142540000000004e-01 -1.96950543e+00   1.38751341e+00  -5.05316920e-01
C     4.454440824000955e+00   7.532543342559162e+00  -6.467909999999932e-02 -5.89900380e-01   3.04340060e-01  -3.46123860e-01
C     5.813246506962887e+00   7.148884136535796e+00  -1.155296999999997e-01 -5.23117110e-01  -1.20693826e+00   2.27240400e-01
