64
Lattice="9.86 0 0 4.93 8.53901048131456 0 0 0 30 " PBC="1 1 1" Properties=species:S:1:pos:R:3:force:R:3 Energy="-515.78665395"
C     5.016246307399999e+00   6.798923922397006e+00  -5.046420000000040e-02 -4.69675130e-01   8.59069500e-02  -1.34719740e-01
C     6.251835149600000e+00   7.502504742247715e+00  -1.416437999999971e-01 -4.73627560e-01   1.07960680e+00   3.25153390e-01
C     9.764876340199999e+00   1.735879557919707e+00   3.379109100000000e+00  1.20515737e+00  -1.62998005e+00   5.82458470e-01
C     1.101284066560000e+01   2.404573567333538e+00   3.507487200000000e+00 -9.89746840e-01   1.53365949e+00  -6.73206870e-01
C     7.487954657000000e+00   6.801374447624556e+00  -2.102499000000009e-01 -1.55652922e+00   4.32212340e-01   2.06080100e-02
C     8.679688043300001e+00   7.540157935909799e+00  -1.455857999999992e-01  5.31107930e-01  -5.50929550e-01  -1.26291180e-01
C     2.370026162900000e+00   1.724783369971262e+00   3.491987400000000e+00  1.34895327e+00  -1.90485050e-01   6.78363480e-01
C     3.640630576600000e+00   2.421660810424856e+00   3.580994400000000e+00 -6.56937040e-01  -6.31610520e-01  -4.71272500e-01
C     9.872945736300000e+00   6.806636612832857e+00  -2.326529999999849e-02  2.70100140e+00   1.29697334e+00   1.58963480e-01
C     1.114627432010000e+01   7.520432992481209e+00   4.340850000000000e-02  2.65141570e-01   9.13642200e-02  -1.14204650e-01
C     4.879484114099999e+00   1.738799472553343e+00   3.514941600000000e+00 -1.79476660e-01  -8.07201020e-01   7.96114500e-02
C     6.089162651100000e+00   2.474034916594041e+00   3.406600800000000e+00 -7.83874500e-02  -2.52168340e-01   1.49820660e-01
C     1.239563511730000e+01   6.812702896658059e+00   1.332981000000000e-01 -8.20125710e-01  -9.56985930e-01  -5.93801570e-01
C     1.361959123010000e+01   7.515487880732032e+00   7.447079999999999e-02  8.06692840e-01   2.22879450e-01  -2.00130680e-01
C     7.314696265299999e+00   1.733401451688306e+00   3.368435700000000e+00  3.07759400e-02   4.82300400e-01   2.79714490e-01
C     8.567514570100000e+00   2.439084234358772e+00   3.322112100000000e+00 -1.05457696e+00  -3.23892560e-01  -1.87150770e-01
C     1.320817942700000e+00   4.121321813833224e-01  -2.772720000000106e-02  3.61079640e-01  -6.36566640e-01   4.53404850e-01
C     2.566529751100000e+00   1.133137022898681e+00  -1.110960000000105e-02 -1.24613660e+00  -5.82396130e-01  -6.27462890e-01
C     1.098058757030000e+01   3.839446089234756e+00   3.508640400000000e+00  1.53936687e+00   8.95504650e-01  -8.78464700e-02
C     1.223795754690000e+01   4.553218218093344e+00   3.619965000000000e+00  2.24819970e-01  -2.09334150e-01  -7.12372600e-02
C     3.786786687699999e+00   4.189816632497496e-01  -1.632938999999993e-01 -7.08845700e-01  -6.33568600e-02   6.60543580e-01
C     5.003302296600000e+00   1.110460912058097e+00  -1.600403999999997e-01  1.37492991e+00   3.00616810e-01   1.79013430e-01
C     3.660841259500000e+00   3.814419957319972e+00   3.621665700000000e+00 -2.83691456e+00   1.91809092e+00   1.42966840e-01
C     4.824168873200000e+00   4.580207724687796e+00   3.575866800000000e+00  1.95300314e+00   1.37770900e-01  -6.83377730e-01
C     6.266176125199999e+00   4.077929124277008e-01  -7.833270000000070e-02 -1.26422529e+00  -1.25157550e-01   4.87671100e-02
C     7.484876956599999e+00   1.134248716673072e+00  -5.393580000000142e-02 -8.32397200e-02   4.49900210e-01   2.49892100e-02
C     6.058178685700000e+00   3.904455796161721e+00   3.385758600000000e+00  1.46345044e+00  -1.10219487e+00   9.75495000e-03
C     7.349894789099999e+00   4.552638077721333e+00   3.235893000000000e+00 -1.39791357e+00   2.21895330e-01   4.89176030e-01
C     8.694029166800000e+00   4.084782534088256e-01   4.166309999999999e-02  1.08129173e+00   9.42987500e-02   2.88482520e-01
C     9.957537585000001e+00   1.122935040127701e+00   1.061640000000000e-01 -9.71713350e-01  -4.60099080e-01  -9.14662320e-01
C     8.572957142200000e+00   3.842946485800823e+00   3.235041600000000e+00 -3.25733800e-01   9.59857630e-01   1.57070160e-01
C     9.783322181699999e+00   4.600176969206219e+00   3.312559500000000e+00  3.88832700e-01  -8.83576410e-01   7.84597150e-01
C     2.502505320100000e+00   2.540763184770210e+00   5.687100000000000e-02  1.51942482e+00   3.45152950e-01  -1.91639640e-01
C     3.755246076000000e+00   3.250225248089019e+00  -8.326830000000029e-02  1.12149390e-01  -1.66476630e-01   3.40359660e-01
C     1.225154832440000e+01   5.996811631397787e+00   3.626771100000000e+00  9.87892340e-01  -4.11628500e-01  -1.72717750e-01
C     1.352673034170000e+01   6.707190442881728e+00   3.548503500000000e+00 -2.22534792e+00   2.00550910e-01   3.35424700e-01
C     5.013945772200000e+00   2.533367291623168e+00  -1.715291999999984e-01 -1.45588927e+00   1.02154830e-01  -3.39282810e-01
C     6.224988045800000e+00   3.244613068841144e+00  -2.870315999999988e-01  1.08515176e+00   2.67923840e-01   6.17627480e-01
C     4.872459012000000e+00   6.005819433553139e+00   3.527316000000000e+00 -1.62513780e-01  -6.40657520e-01  -3.92231790e-01
C     6.102114254100000e+00   6.681286329909391e+00   3.355143000000000e+00  5.39430670e-01   4.29650840e-01   6.15705230e-01
C     7.485655797999999e+00   2.586816203041471e+00  -1.447922999999989e-01 -7.29748990e-01  -1.81602482e+00  -2.04144680e-01
C     8.705210357500000e+00   3.274851156582606e+00  -5.062500000000014e-02  1.98126970e-01   1.83807290e-01  -2.58232900e-02
C     7.352625713300000e+00   5.961266890203425e+00   3.279609600000000e+00 -7.71919160e-01   1.31085316e+00  -1.26425360e-01
C     8.545362305299999e+00   6.727986861345349e+00   3.319362900000000e+00  9.86681260e-01   6.41369800e-02   4.88726590e-01
C     9.934163025300000e+00   2.548998718817751e+00   8.853840000000000e-02 -1.36021757e+00  -7.10554640e-01   1.16032960e-01
C     1.112288492110000e+01   3.238829853213355e+00   1.501527000000000e-01  1.85138787e+00   1.01761284e+00  -3.83296370e-01
C     9.797847391399999e+00   6.024792773279280e+00   3.401955900000000e+00 -6.03903700e-02   7.65527100e-02   8.33035700e-02
C     1.103987540520000e+01   6.742531955626667e+00   3.599071800000000e+00 -8.65395470e-01  -2.15500665e+00  -9.01963120e-01
C     3.759627169800000e+00   4.679330949262570e+00  -4.219529999999949e-02  7.64094880e-01  -9.36844700e-01  -1.69954900e-02
C     5.004653116600000e+00   5.373027693702469e+00  -1.403424000000015e-01  8.36704300e-02   3.45779240e-01  -2.65489030e-01
C     1.347298042510000e+01   8.124279877727615e+00   3.463852800000000e+00 -2.33012150e-01   6.33327170e-01   3.07106350e-01
C     9.770391186099999e+00   2.992256276521512e-01   3.422595600000000e+00  4.15050380e-01  -1.16124810e-01  -6.19320400e-02
C     6.242033471499999e+00   4.657922369137638e+00  -3.159053999999983e-01 -1.09696970e+00   7.42616920e-01   6.88419540e-01
C     7.454072443200000e+00   5.386073423133603e+00  -2.574956999999998e-01  1.37785902e+00  -2.52905140e-01   2.23786510e-01
C     6.098378694499999e+00   8.115906011710296e+00   3.420711600000000e+00 -8.96160640e-01  -1.28264300e-02  -3.56956760e-01
C     2.381433344800000e+00   3.083694562444496e-01   3.443583600000000e+00  2.78253800e-02   1.42533410e-01  -5.91866500e-02
C     8.704106185400001e+00   4.697578473097910e+00  -1.052717999999970e-01  2.14270590e-01  -2.35010010e-01   1.19798020e-01
C     9.944590517599998e+00   5.413606608525315e+00   5.451210000000000e-02 -1.15885280e+00  -1.31825737e+00  -4.22862710e-01
C     8.543796783800000e+00   8.166931125003851e+00   3.443320800000000e+00  6.95198530e-01  -1.26969624e+00  -7.77629800e-02
C     4.879983030099999e+00   2.998190888805112e-01   3.531984600000000e+00 -1.71320395e+00   9.47536340e-01  -5.28773000e-01
C     1.116805841250000e+01   4.664162507216211e+00   1.433310000000000e-01 -6.96720610e-01   4.25855950e-01  -2.19895710e-01
C     1.239696488620000e+01   5.352595890986344e+00   9.538800000000000e-02 -1.41941620e-01   1.76155883e+00   2.53053320e-01
C     1.100750561680000e+01   8.130427709102898e+00   3.525218400000000e+00  6.65374840e-01   7.69470130e-01   5.22781050e-01
C     7.280896135999999e+00   3.214655658374160e-01   3.500249100000000e+00  1.89511517e+00  -4.67345670e-01  -6.03974310e-01
