64
Lattice="9.86 0 0 4.93 8.53901048131456 0 0 0 30 " PBC="1 1 1" Properties=species:S:1:pos:R:3:force:R:3 Energy="-514.79931083"
C     4.954254268900000e+00   8.415693250081718e+00  -3.209426999999998e-01  1.32296026e+00   2.07166750e-01   1.39364420e-01
C     1.285079830400000e+00   5.779902491723360e-01  -3.158384999999981e-01 -1.48180700e-02   9.95689250e-01  -1.30917250e-01
C     9.772372405199999e+00   1.238738880114736e-01   3.860987700000000e+00  2.59741437e+00  -1.06692310e-01  -3.48779890e-01
C     1.207349605000000e+00   8.232796440780912e-01   3.792227100000000e+00 -7.09268520e-01  -3.47339130e-01  -1.21033910e-01
C     7.478287814400000e+00   8.403261048553571e+00  -3.201701999999997e-01 -2.64429679e+00   7.63125570e-01   5.40055680e-01
C     3.725579209400000e+00   5.981059377204911e-01  -2.982374999999990e-01  1.30370099e+00   4.99203390e-01  -1.17556123e+00
C     2.463807285100000e+00   8.151399177281360e-02   3.826231200000000e+00 -2.22327072e+00   7.86473900e-01   1.85048960e-01
C     3.656192170900000e+00   8.287004641011096e-01   3.833880300000000e+00  3.05419960e-01  -4.80725770e-01  -1.42294910e-01
C     9.896388330000001e+00   8.427578784158934e+00  -3.938039999999994e-01 -5.05657580e-01  -1.18366209e+00   3.57849600e-02
C     6.180971477500000e+00   5.748027219502568e-01  -4.205529000000006e-01  8.09781190e-01   1.52254274e+00   1.14246333e+00
C     4.884357172600000e+00   1.344668720723328e-01   3.882192900000000e+00  1.46203995e+00  -1.21385464e+00   2.94298300e-02
C     6.172195732400000e+00   7.982287490329153e-01   3.864703800000000e+00 -2.27926736e+00   9.58913720e-01  -5.48221060e-01
C     1.236966890590000e+01   8.400072496650234e+00  -3.425133000000002e-01 -8.86999370e-01   1.56141410e+00  -1.02053320e+00
C     8.670917474700000e+00   5.886465073008520e-01  -3.000642000000013e-01 -4.24852100e-01   2.07930690e-01  -3.60011270e-01
C     7.378751903200000e+00   1.383847408607664e-01   3.771364200000000e+00 -7.13841030e-01  -2.15912640e+00   3.40307530e-01
C     8.556548278100001e+00   8.584606234260056e-01   3.754037100000000e+00  2.22593561e+00  -5.85311780e-01   3.25882790e-01
C     1.283410532400000e+00   2.037769783792142e+00  -3.898256999999994e-01 -1.48460448e+00  -1.13995468e+00  -3.29317180e-01
C     2.490604398699999e+00   2.734665326947955e+00  -5.516369999999995e-01 -1.52188190e-01   6.57180440e-01   6.69064520e-01
C     1.107234142720000e+01   2.253726653017840e+00   3.658152000000000e+00 -6.11866480e-01  -7.24663310e-01   3.39249470e-01
C     2.446940226800000e+00   2.952554659635381e+00   3.618123900000000e+00 -8.35101650e-01   4.86179190e-01   4.00180510e-01
C     3.710057203000000e+00   2.029455520067976e+00  -4.505021999999990e-01 -4.14890670e-01  -3.79845830e-01   2.91837100e-01
C     4.909860161199999e+00   2.756417516854602e+00  -4.239831000000009e-01  1.77756412e+00  -1.68004500e-02   3.33574580e-01
C     3.637088667400000e+00   2.232810688407499e+00   3.757764600000000e+00  2.17275703e+00   6.30037320e-01   1.62527930e-01
C     4.930398541199999e+00   2.918549416640457e+00   3.868289100000000e+00 -1.13025443e+00   3.02643690e-01  -4.23589100e-01
C     6.138306961700000e+00   2.035945253422881e+00  -3.190347000000031e-01  1.42532983e+00  -7.27835060e-01  -7.22781040e-01
C     7.401259275899999e+00   2.742841258702345e+00  -3.104454000000025e-01  2.14801440e-01  -2.00565610e-01   1.71875000e-01
C     6.176610103700000e+00   2.220203607944722e+00   3.836315100000000e+00 -1.47784430e+00  -1.01403090e-01   3.72053530e-01
C     7.356164911000000e+00   2.954593433777586e+00   3.798655200000000e+00  1.04665717e+00   1.71190242e+00   4.58307200e-01
C     8.676090967400000e+00   2.015496458075900e+00  -3.484064999999994e-01 -1.81749764e+00   6.52811080e-01   6.32422080e-01
C     9.868217077499999e+00   2.759425212515972e+00  -3.868149000000010e-01  2.05054144e+00  -8.49406670e-01  -4.80876730e-01
C     8.609751556299999e+00   2.262459925986260e+00   3.743214600000000e+00 -1.06181542e+00   5.80472700e-01  -3.32559100e-02
C     9.823484919700000e+00   2.969498361960531e+00   3.703402800000000e+00  9.83152330e-01  -3.06196340e-01  -2.63335210e-01
C     2.488651280600000e+00   4.182776730697364e+00  -6.161571000000023e-01  8.67767380e-01  -2.06561134e+00  -9.20986300e-02
C     3.695459029300000e+00   4.858844261050780e+00  -5.536643999999988e-01  2.05551396e+00   1.53566679e+00   2.85590000e-04
C     1.227226497320000e+01   4.379796977941986e+00   3.626439900000000e+00  1.09247974e+00  -1.72133210e-01   3.72801120e-01
C     3.661046643300000e+00   5.078638049245561e+00   3.713339100000000e+00  4.82988210e-01  -3.71235200e-01   4.99292460e-01
C     4.964937923999999e+00   4.184589050281640e+00  -4.333361999999994e-01 -8.50358470e-01  -1.32150980e-01  -2.82762550e-01
C     6.199043378499999e+00   4.907922053004370e+00  -3.527850000000008e-01 -1.44323640e-01  -5.99011380e-01   1.05189264e+00
C     4.920638373699999e+00   4.336335207790987e+00   3.889765800000000e+00 -1.11256619e+00   1.42718274e+00  -8.75644080e-01
C     6.129370991600000e+00   5.124448388838980e+00   3.913107600000000e+00 -4.52445170e-01  -2.27325621e+00   1.87841310e-01
C     7.427595237299999e+00   4.180574776064887e+00  -2.586981000000002e-01  8.37602700e-01  -5.84630690e-01  -8.38339480e-01
C     8.717205441899999e+00   4.873708970494364e+00  -3.469769999999990e-01 -2.46128259e+00   3.96845230e-01  -4.20459800e-02
C     7.340678548499999e+00   4.418817779522546e+00   3.911238300000000e+00  1.65492880e+00  -1.96559291e+00  -9.90875970e-01
C     8.627838247300001e+00   5.076064391486889e+00   3.829021200000000e+00 -2.47794515e+00   7.26251210e-01   4.83249520e-01
C     9.924419718399999e+00   4.176307064017088e+00  -5.074740000000020e-01 -3.69201260e-01  -3.29528060e-01   5.19964860e-01
C     1.116831718820000e+01   4.890076118831904e+00  -6.308496000000012e-01 -2.50672331e+00  -1.24444912e+00   5.06653060e-01
C     9.826616357100001e+00   4.392835961554841e+00   3.719088900000000e+00 -1.04282590e-01  -1.43829496e+00   3.08307530e-01
C     1.103538289340000e+01   5.077920174634508e+00   3.733134900000000e+00  1.69288415e+00   5.56115610e-01  -8.17800100e-01
C     3.708173351399999e+00   6.296518432290486e+00  -5.472554999999986e-01  1.04941093e+00  -2.36652840e-01   6.16468680e-01
C     4.977710370799999e+00   6.995193078279806e+00  -3.640308000000019e-01 -2.08284078e+00   5.29486660e-01   3.65775100e-02
C     1.353381322340000e+01   6.515740619123736e+00   3.753235500000000e+00  6.10051420e-01  -4.77701050e-01   7.03706280e-01
C     4.914933870700001e+00   7.223025063989935e+00   3.928571400000000e+00 -1.64076185e+00   7.44517930e-01  -1.15366054e+00
C     6.193134083299999e+00   6.335147634850434e+00  -2.229941999999987e-01 -1.60770610e-01  -1.93365809e+00  -1.25727436e+00
C     7.421345180499999e+00   6.992230297813561e+00  -2.676630000000024e-01  5.22318550e-01   1.05286920e+00   1.73557060e-01
C     6.130363992200000e+00   6.506567160165072e+00   3.898628100000000e+00 -5.52481860e-01   1.45477779e+00   4.17522530e-01
C     7.341890638299999e+00   7.207388257218749e+00   3.898898100000000e+00  1.75785275e+00  -6.69587900e-02  -3.39214800e-02
C     8.631139818999999e+00   6.308087425249210e+00  -3.471617999999985e-01  1.72278781e+00  -1.68254242e+00  -1.21408400e-01
C     9.876121198600000e+00   6.973901909548974e+00  -4.569416999999980e-01 -2.76012580e-01   1.52149204e+00   3.68054760e-01
C     8.589993250199999e+00   6.485565805449931e+00   3.904657200000000e+00  4.38542390e-01   1.24753686e+00  -3.30132090e-01
C     9.815897501799999e+00   7.234122788960267e+00   3.881820900000000e+00  7.66003770e-01  -5.48925190e-01  -4.11507850e-01
C     1.109261822140000e+01   6.260600792508462e+00  -5.510730000000024e-01  1.50552116e+00   2.56762946e+00  -3.82955090e-01
C     1.234815818200000e+01   7.018894980449351e+00  -5.497040999999996e-01 -4.10668610e-01  -1.31904317e+00   6.50187250e-01
C     1.108470355010000e+01   6.485278638527490e+00   3.761234400000000e+00 -1.18916222e+00   2.21113275e+00   6.37396470e-01
C     1.231722879170000e+01   7.235596365998801e+00   3.767815800000000e+00 -5.81997110e-01  -4.92030590e-01  -3.76261370e-01
