64
Lattice="9.86 0 0 4.93 8.53901048131456 0 0 0 30 " PBC="1 1 1" Properties=species:S:1:pos:R:3:force:R:3 Energy="-514.58461992"
C     4.943597531600000e+00   8.475653583941543e+00  -1.907153999999984e-01 -1.33016320e-01  -1.97018023e+00  -5.60032450e-01
C     1.238213327700000e+00   6.440318955158089e-01  -2.214603000000004e-01  7.27081080e-01  -6.10249640e-01   5.51423300e-01
C     9.868518103299998e+00   1.914232674354000e-02   3.685083000000000e+00 -8.26666150e-01   2.91877166e+00   3.11962590e-01
C     1.212356167900000e+00   8.272860624052024e-01   3.673750500000000e+00  1.10561900e-01  -2.31374597e+00   3.61547290e-01
C     7.376430908500000e+00   8.412385920542604e+00  -1.501908000000007e-01  2.07426563e+00   2.40857427e+00  -1.04507839e+00
C     3.723218676099999e+00   6.137513688922617e-01  -3.098516999999994e-01 -1.00281806e+00  -1.94886990e-01   6.11977570e-01
C     2.464569019399999e+00   9.330593829516960e-02   3.849022500000000e+00 -1.36282327e+00   7.81772250e-01  -5.57232620e-01
C     3.664269630800000e+00   8.372069409511808e-01   3.806265600000000e+00  7.28491380e-01  -1.81180774e+00   1.61008340e-01
C     9.905184140199999e+00   8.472173937170943e+00  -3.463031999999977e-01 -1.44346688e+00  -1.07399283e+00  -1.20705410e-01
C     6.183482523700000e+00   6.261394237362263e-01  -3.325269000000013e-01  8.64626340e-01   7.08790590e-01  -4.10782000e-02
C     4.901679269900000e+00   8.189756412357521e-02   3.848048400000001e+00 -4.64473100e-01   6.13453800e-02  -2.90599800e-01
C     6.128257945500000e+00   7.899386507084072e-01   3.828376200000000e+00 -4.73386810e-01   3.47174690e-01  -4.07966900e-02
C     1.233509777390000e+01   8.424543422103609e+00  -3.959730000000015e-01  6.86879180e-01   1.17306424e+00   3.43446470e-01
C     8.635383267199998e+00   5.965378338359441e-01  -2.552453999999997e-01  2.51583630e-01   7.50500390e-01   2.19523840e-01
C     7.352655046800000e+00   1.610561552455856e-01   3.823331100000000e+00  1.09556116e+00  -3.61188900e+00  -5.55066320e-01
C     8.610587487100000e+00   7.723752723927241e-01   3.717993000000000e+00  6.39842590e-01   1.02863967e+00   6.78123000e-03
C     1.302229969300000e+00   2.064622153878284e+00  -3.612888000000005e-01 -2.17173837e+00  -4.16203840e-01  -5.30840470e-01
C     2.505555264600000e+00   2.728036920062854e+00  -5.625690000000034e-01  3.51771660e-01   2.01467585e+00   4.34540460e-01
C     1.103774214490000e+01   2.228910324590550e+00   3.578014200000000e+00  1.23155001e+00   5.12998650e-01   2.10232350e-01
C     2.454647493000000e+00   2.938968069280443e+00   3.630217200000000e+00 -1.90080981e+00   4.60747930e-01  -2.04950020e-01
C     3.730540712100000e+00   2.036780027087405e+00  -4.132080000000009e-01  2.84235080e-01  -4.00811350e-01  -2.59385780e-01
C     4.969639566400000e+00   2.758246060558789e+00  -3.820212000000005e-01 -4.93982380e-01  -3.59009640e-01   1.99835200e-02
C     3.636462853200000e+00   2.242590246330034e+00   3.714415800000000e+00  2.56970922e+00  -2.97643040e-01   1.08558470e-01
C     4.919479330700000e+00   2.931968556999882e+00   3.754338300000000e+00 -6.67719760e-01   5.96287400e-02  -1.19851220e-01
C     6.211636323999999e+00   2.078874701660557e+00  -2.569163999999979e-01 -1.18200694e+00  -1.90646739e+00  -7.69369800e-02
C     7.421007919199999e+00   2.756043508195578e+00  -1.706018999999976e-01  1.29089658e+00  -1.25710680e-01  -3.53604480e-01
C     6.158059302500000e+00   2.177225231176996e+00   3.795206400000000e+00 -1.61842553e+00   2.99175665e+00   3.45518930e-01
C     7.355555365800000e+00   2.943778093883827e+00   3.838797300000000e+00  1.11579307e+00  -1.02185208e+00  -9.65040160e-01
C     8.666347167500000e+00   2.011322675143381e+00  -1.860432000000003e-01 -7.96560700e-02   1.95456898e+00  -7.63086470e-01
C     9.897060387600000e+00   2.789258551160682e+00  -3.823149000000008e-01 -1.08080640e-01  -2.21186512e+00   9.49035250e-01
C     8.595677638799998e+00   2.216404175231646e+00   3.698463000000000e+00 -9.45347900e-02  -2.64529810e-01   2.37254340e-01
C     9.805266794900000e+00   2.930868732450058e+00   3.588546300000000e+00  2.14042620e-01   5.61401400e-01   8.07095000e-03
C     2.478717675700000e+00   4.194448447952163e+00  -7.097106000000011e-01 -7.11031800e-02  -1.72961891e+00   2.80913900e-01
C     3.694014588600000e+00   4.876519415013647e+00  -6.182322000000013e-01  1.45498221e+00   1.33744030e-01   1.26196440e-01
C     1.232605585810000e+01   4.367466219858342e+00   3.644805000000000e+00 -1.40002085e+00  -1.23733907e+00  -1.08161920e-01
C     3.629901713400000e+00   5.101520974919969e+00   3.765891000000000e+00  2.53808245e+00   6.22181100e-02  -2.43965950e-01
C     4.914959408100000e+00   4.158044938473826e+00  -4.392759000000019e-01  1.79131042e+00   1.60914103e+00   4.62491650e-01
C     6.179652653200000e+00   4.916919010616413e+00  -2.522435999999999e-01 -6.86704200e-01  -1.58862679e+00  -4.57885730e-01
C     4.910946535999999e+00   4.363238982720217e+00   3.767583300000000e+00 -3.52495900e-01   1.87138990e-01   7.62194550e-01
C     6.160083609799999e+00   5.062112587653721e+00   3.929709900000000e+00 -1.15237165e+00   3.19024620e-01  -9.16890970e-01
C     7.416378008300001e+00   4.170160769663689e+00  -2.108868000000008e-01 -1.83962890e-01   9.35582170e-01  -7.07696000e-03
C     8.649873375300000e+00   4.878948507324892e+00  -3.187947000000015e-01 -1.03955230e-01   1.20961017e+00   4.31298600e-02
C     7.381611500400000e+00   4.368993934223319e+00   3.838968900000000e+00  2.54428860e-01  -2.37910120e-01   8.14347470e-01
C     8.620583062100000e+00   5.104586052731765e+00   3.848114400000000e+00 -6.18529140e-01  -1.58254424e+00  -8.34492070e-01
C     9.875388354100000e+00   4.189018661968140e+00  -4.602183000000011e-01  4.23156700e-01   2.37634930e-01  -5.18456110e-01
C     1.111635903080000e+01   4.900955501304263e+00  -7.035032999999977e-01 -1.13827292e+00  -5.95553490e-01   8.00258680e-01
C     9.823457804700000e+00   4.368752365616839e+00   3.615316800000000e+00 -3.63315310e-01  -7.96018120e-01   6.64384120e-01
C     1.106902851650000e+01   5.009687588982076e+00   3.621567600000000e+00  3.58908500e-01   2.58751220e+00   4.61173290e-01
C     3.774252557100000e+00   6.291055941896325e+00  -5.558477999999987e-01 -1.41235850e+00   1.13403928e+00   5.71038400e-01
C     4.963333406199999e+00   7.001446537214729e+00  -2.674763999999996e-01  1.32905610e-01   1.85244048e+00  -3.53152410e-01
C     1.350173336830000e+01   6.544130011096278e+00   3.798723000000000e+00  9.83185720e-01  -1.75875708e+00  -2.46485630e-01
C     4.929337802400000e+00   7.164394424842055e+00   3.807334500000000e+00 -1.42051773e+00   1.07030775e+00  -1.92667500e-02
C     6.197951777900000e+00   6.337646832437721e+00  -2.067576000000031e-01 -1.62399410e-01  -1.56960076e+00   9.67102800e-02
C     7.434662885300000e+00   7.015741780049402e+00  -1.587585000000011e-01 -8.24262110e-01   4.13470610e-01  -4.72297900e-02
C     6.129842102400000e+00   6.488558557842961e+00   3.920788200000000e+00  1.62286604e+00  -8.45236950e-01   1.01524700e-01
C     7.372553956499999e+00   7.206911780433965e+00   3.949164600000000e+00 -7.47851660e-01   6.17604930e-01  -2.88586980e-01
C     8.654201274400000e+00   6.336966017132151e+00  -3.096467999999994e-01 -1.08770610e-01  -1.69599521e+00   1.05477120e-01
C     9.863600033899999e+00   7.030966664955033e+00  -4.342830000000006e-01  1.55279176e+00   2.61537090e-01  -1.52432460e-01
C     8.589662841599999e+00   6.507039367444616e+00   3.910664400000000e+00  6.01839110e-01  -3.35878320e-01  -2.17157930e-01
C     9.822133458800000e+00   7.183105104605830e+00   3.814463700000000e+00  1.10188671e+00   6.70455270e-01   4.08029810e-01
C     1.108766485320000e+01   6.298096099866771e+00  -6.412037999999995e-01  1.85563613e+00   2.00131522e+00   3.90526930e-01
C     1.240859140380000e+01   7.047972189716058e+00  -5.806011000000026e-01 -2.50077105e+00  -2.29956743e+00  -1.07589650e-01
C     1.107974712530000e+01   6.448081171854723e+00   3.758307600000000e+00 -6.78324270e-01   1.31686299e+00  -4.48360840e-01
C     1.229331000930000e+01   7.248177231699405e+00   3.763399500000000e+00 -9.30627650e-01  -4.46025200e-01   4.65267210e-01
