64
Lattice="9.86 0 0 4.93 8.53901048131456 0 0 0 30 " PBC="1 1 1" Properties=species:S:1:pos:R:3:force:R:3 Energy="-515.20666064"
C     4.999081230600000e+00   7.779752579336337e+00  -1.762976999999992e-01 -2.05294934e+00  -3.43571460e-01  -2.21499460e-01
C     6.198650851899999e+00   8.472333360496606e+00  -2.418476999999974e-01  1.13955603e+00   1.33813183e+00   1.26803281e+00
C     9.794490850200001e+00   7.575321666456545e-01   3.454097400000000e+00  9.44132370e-01   2.30848800e-02  -1.05644400e-01
C     1.184569800500000e+00   1.481864575154964e+00   3.514027500000000e+00 -2.99621390e-01  -9.99487960e-01  -4.54595430e-01
C     7.430932403600000e+00   7.759510001092449e+00  -2.382434999999994e-01  8.86377750e-01   9.37213670e-01  -4.53797990e-01
C     8.678646186399998e+00   8.487844558423630e+00  -1.762344000000020e-01 -7.51648670e-01   5.97371140e-01  -9.85364700e-02
C     2.406996430100000e+00   7.496097581124151e-01   3.339730500000000e+00  4.86176750e-01   1.08464454e+00   4.08377930e-01
C     3.656821238900000e+00   1.479179568699633e+00   3.426151200000000e+00 -2.90236240e-01  -1.34102326e+00   3.30595780e-01
C     9.906941142899999e+00   7.796014697844974e+00  -2.115815999999988e-01  9.62415000e-02  -8.77635360e-01   6.76540740e-01
C     1.113924049190000e+01   8.498270775609814e+00  -2.012961000000004e-01 -1.97989110e-01  -3.84606830e-01   3.47446400e-01
C     4.923853325300000e+00   7.894823259883560e-01   3.470107500000000e+00 -2.25396730e+00  -1.21763813e+00  -6.85146240e-01
C     6.108531733700000e+00   1.514369684788761e+00   3.484635300000000e+00  1.72915767e+00  -2.27756952e+00  -1.07942680e-01
C     1.234784207040000e+01   7.785876757652593e+00  -9.892920000000061e-02  1.60570914e+00   6.39512290e-01  -7.33367090e-01
C     1.360361231130000e+01   8.512479518268325e+00  -1.532397000000003e-01  8.99506000e-03  -1.68381081e+00   1.85503660e-01
C     7.367035117299999e+00   7.592989733040711e-01   3.536695500000000e+00 -1.67101330e+00   5.18857600e-02  -3.54532280e-01
C     8.565189877900000e+00   1.467222563104698e+00   3.473534400000000e+00  1.21060651e+00   2.84733490e-01   4.63864310e-01
C     1.284921873200000e+00   1.373459702358744e+00  -1.768980000000298e-02 -2.53469960e-01  -6.32937980e-01  -5.89406010e-01
C     2.502862202800000e+00   2.092370436943987e+00   4.585530000000000e-02  5.69598350e-01  -5.95652900e-01   3.91833020e-01
C     1.105908879840000e+01   2.888828878324189e+00   3.711091200000000e+00 -9.86054360e-01   6.74733840e-01  -3.28286390e-01
C     2.406401822800000e+00   3.615280242284110e+00   3.779990100000000e+00  1.06636881e+00  -1.37904854e+00   5.18887000e-03
C     3.761700432000000e+00   1.391459594890165e+00  -4.579409999999839e-02 -1.45123829e+00  -1.29025622e+00  -2.42022950e-01
C     4.972069119700000e+00   2.079652178564761e+00  -8.317770000000024e-02  1.01322055e+00  -2.94737260e-01  -2.56515730e-01
C     3.635384218500000e+00   2.858696503532470e+00   3.613242900000000e+00  4.24593740e-01   2.12352131e+00  -2.65394860e-01
C     4.875032521300000e+00   3.583257672132538e+00   3.508915800000000e+00 -3.12666830e-01   1.40746637e+00  -1.33712420e-01
C     6.231759499399999e+00   1.360814110958702e+00  -2.298770999999995e-01 -1.75329357e+00   9.14826950e-01   4.62627320e-01
C     7.425538539900000e+00   2.070688096143066e+00  -2.332937999999984e-01  1.65389657e+00   1.26499899e+00   1.39857380e-01
C     6.099144915099999e+00   2.892206142359134e+00   3.367713600000000e+00  8.92609690e-01   1.20919872e+00   9.43563990e-01
C     7.370767373799999e+00   3.581447658081093e+00   3.412675800000000e+00 -9.94550890e-01   1.23284147e+00  -4.69366490e-01
C     8.666005173400000e+00   1.363699613380104e+00  -1.617573000000014e-01  4.09326170e-01   1.13401279e+00   2.41057780e-01
C     9.913941644299998e+00   2.092557014322975e+00  -4.137000000000057e-03 -8.18689770e-01  -1.57419316e+00  -4.63387810e-01
C     8.587492310500000e+00   2.899399063227066e+00   3.509196000000000e+00  8.32571480e-01   1.18153100e-02  -8.53812300e-02
C     9.832184594899999e+00   3.637318318261628e+00   3.648786000000000e+00 -6.63490290e-01  -8.94610090e-01  -1.44492910e-01
C     2.486879833000000e+00   3.504479920877936e+00   1.857414000000000e-01  1.43733153e+00   1.12812000e-03  -7.60829460e-01
C     3.734573205600000e+00   4.213771460157459e+00   5.803500000000000e-02 -1.36894610e-01  -4.79132000e-02  -4.28754920e-01
C     1.228031295170000e+01   5.012709032450319e+00   3.918269400000000e+00  3.78611590e-01   6.12961070e-01  -7.90003190e-01
C     3.667605860400000e+00   5.723967874354329e+00   3.701284200000000e+00 -9.54072770e-01   6.93672660e-01  -1.24323700e-02
C     4.948983112900001e+00   3.480847099303173e+00  -5.228969999999933e-02  1.92417877e+00   1.58649319e+00  -7.65413460e-01
C     6.233219025900000e+00   4.211156046637540e+00  -2.838446999999995e-01 -2.24458496e+00   3.33677320e-01   8.27101130e-01
C     4.881243483200000e+00   5.058305726001528e+00   3.502980300000000e+00  4.13759960e-01  -2.39678680e+00   2.14048660e-01
C     6.112579312999999e+00   5.752290747435232e+00   3.340639200000000e+00  6.46000360e-01  -1.06412291e+00  -3.36203610e-01
C     7.467377527200000e+00   3.531947526669162e+00  -2.642957999999993e-01 -1.14606406e+00  -1.55432304e+00  -1.17979800e-02
C     8.675856545900000e+00   4.233550113961969e+00  -1.833890999999994e-01  8.63525630e-01  -4.06008680e-01   3.22599890e-01
C     7.383082168700000e+00   5.011885701059838e+00   3.328360200000000e+00 -1.56253154e+00   3.33620890e-01   4.90484460e-01
C     8.573913660800001e+00   5.753838016134209e+00   3.435116400000000e+00  1.17572129e+00  -2.49475020e-01  -3.51617800e-02
C     9.885154240399999e+00   3.474879953389645e+00   3.636510000000000e-02  1.03181396e+00   2.63821158e+00  -3.05837980e-01
C     1.115346142200000e+01   4.216253579723785e+00   1.334754000000000e-01 -2.25647283e+00  -7.89468500e-02   1.35864920e-01
C     9.841402413099999e+00   5.075343869782587e+00   3.651124800000000e+00 -1.86896714e+00  -1.82385429e+00   3.60487950e-01
C     1.103617617970000e+01   5.715412383584104e+00   3.906467400000000e+00  1.19180888e+00   3.00981049e+00  -1.21657270e+00
C     3.733938714599999e+00   5.629770463365047e+00  -1.296284999999990e-01  1.31511910e-01   7.05210700e-01   1.29912446e+00
C     4.974231466999999e+00   6.347284215835763e+00  -1.704477000000004e-01 -4.62230250e-01   2.95151200e-01  -7.42568990e-01
C     1.352215387200000e+01   7.144171657102480e+00   3.576937500000000e+00 -5.43635950e-01   1.64750270e-01   2.50733890e-01
C     4.883623835100000e+00   7.858766178060398e+00   3.395281800000000e+00 -8.41679220e-01   7.20456690e-01   8.04726500e-02
C     6.182434356400000e+00   5.649246238467832e+00  -3.038910000000001e-01  1.74876676e+00  -9.58211910e-01   9.23730300e-02
C     7.454945003899999e+00   6.352963938656535e+00  -3.448628999999990e-01 -1.36596999e+00  -4.25875500e-02   5.02335370e-01
C     6.091092548900000e+00   7.156081100409041e+00   3.254660100000000e+00  1.45999693e+00   5.17510410e-01   2.97524210e-01
C     7.345776069899999e+00   7.886908878020172e+00   3.202898400000000e+00 -6.67002490e-01  -7.20302460e-01   7.38655960e-01
C     8.674530967499999e+00   5.659298788555413e+00  -2.432328000000012e-01  7.37066730e-01  -5.79169300e-01   4.86871130e-01
C     9.910819869699999e+00   6.361648795435533e+00  -8.894100000000194e-02 -2.28605490e-01   8.91260800e-02  -4.11824390e-01
C     8.564304006200000e+00   7.165763569782418e+00   3.358992900000000e+00  6.66425890e-01   6.39678190e-01  -2.53379120e-01
C     9.815093073699998e+00   7.875458235746701e+00   3.460359300000000e+00  2.26081670e-01   7.65738510e-01   8.67537980e-01
C     1.112815193590000e+01   5.637430211935922e+00   8.512620000000000e-02  8.21783000e-01   9.64301690e-01  -9.25048800e-01
C     1.237994036370000e+01   6.388109822671377e+00  -4.951439999999963e-02 -9.54486050e-01  -2.10776414e+00   4.40581730e-01
C     1.104115232450000e+01   7.201982209683862e+00   3.727496700000000e+00 -3.44882890e-01  -2.37808376e+00  -2.09276650e-01
C     1.227926059390000e+01   7.861729727037587e+00   3.631676700000000e+00  5.50224670e-01   1.12314764e+00   1.31205990e-01
