64
Lattice="9.86 0 0 4.93 8.53901048131456 0 0 0 30 " PBC="1 1 1" Properties=species:S:1:pos:R:3:force:R:3 Energy="-514.92929802"
C     4.967844602699999e+00   7.735081002180531e+00  -1.945526999999991e-01  1.31645947e+00   7.38025920e-01  -2.73755970e-01
C     6.236758667300000e+00   8.451175741889681e+00  -2.122175999999989e-01 -1.39872646e+00   4.66092030e-01   8.38141420e-01
C     9.810224501499999e+00   8.065485631138936e-01   3.415249800000000e+00  8.97317500e-02  -1.34059802e+00   2.60019300e-02
C     1.171282316600000e+00   1.502936376706565e+00   3.465310200000000e+00  3.43100310e-01   1.29677043e+00   3.94583780e-01
C     7.467343510199999e+00   7.758163740700173e+00  -2.626361999999993e-01 -1.81727224e+00  -9.44153650e-01  -5.25706680e-01
C     8.640756769999999e+00   8.480362165100425e+00  -2.245130999999994e-01  1.69020719e+00  -9.10001130e-01   3.18423680e-01
C     2.406614552300000e+00   8.198830818794616e-01   3.384734700000000e+00 -2.22249830e-01  -1.58664553e+00  -2.83220180e-01
C     3.668474970100000e+00   1.434354203965082e+00   3.450217500000000e+00 -2.55852360e-01   2.56934571e+00   3.48098290e-01
C     9.868824847900001e+00   7.748620457197620e+00  -2.080380000000019e-01  1.34977360e+00   6.96947900e-02   2.27008700e-01
C     1.110850706910000e+01   8.456780748368752e+00  -2.017334999999996e-01  5.61380200e-01   7.12508800e-01   1.95546310e-01
C     4.890050040800000e+00   7.423136006077792e-01   3.438221700000000e+00  1.40685831e+00   1.58943149e+00   2.25348310e-01
C     6.147145416400000e+00   1.495034547188582e+00   3.492709200000000e+00 -1.81011712e+00   8.68913230e-01  -4.06866250e-01
C     1.236407843380000e+01   7.759907748200608e+00  -1.388856000000018e-01 -7.53217240e-01  -3.94429190e-01  -1.35136580e-01
C     1.360814855220000e+01   8.457612021038981e+00  -1.776446999999983e-01 -4.55728090e-01   6.71064370e-01   1.61979760e-01
C     7.355744727100000e+00   7.801700227192873e-01   3.559059000000000e+00  5.08049450e-01   6.03346280e-01  -5.10206540e-01
C     8.598020571999999e+00   1.508459750245448e+00   3.470361300000000e+00 -8.28491970e-01  -7.42306820e-01   4.03730560e-01
C     1.286318542200000e+00   1.330975051176971e+00   1.627470000000000e-02  2.99329730e-01   2.89745860e-01  -8.48472790e-01
C     2.526838715500000e+00   2.073817814264196e+00   5.949660000000000e-02 -1.06842039e+00  -3.89357680e-01   3.16197220e-01
C     1.101841689000000e+01   2.921536191726152e+00   3.712472700000000e+00  1.06490895e+00  -5.50145730e-01  -5.94898400e-02
C     2.443044787300000e+00   3.572657515302876e+00   3.842254800000000e+00 -1.04663680e+00   1.67343096e+00  -4.34616130e-01
C     3.716411923700000e+00   1.327206017341204e+00  -8.625209999999939e-02  1.07476637e+00   1.73087694e+00   6.58813000e-02
C     4.967578481299999e+00   2.042462909342055e+00  -1.225449000000012e-01 -3.07107740e-01   1.03838096e+00  -1.95277940e-01
C     3.683273301799999e+00   2.884709147328008e+00   3.634602300000000e+00 -1.31531477e+00  -3.58620020e-01   6.58149400e-02
C     4.863980348700000e+00   3.656319495161934e+00   3.553196100000000e+00  1.25948018e+00  -2.39810442e+00  -6.34466580e-01
C     6.186982330699999e+00   1.357878484545783e+00  -2.217365999999998e-01  1.50338720e+00  -1.93407840e-01   2.09858710e-01
C     7.469288641700000e+00   2.105512059462812e+00  -2.158605000000016e-01 -1.83394043e+00  -1.34854490e+00  -2.80765900e-01
C     6.109302687100000e+00   2.969238605261729e+00   3.388839300000000e+00  1.97817300e-01  -2.79455506e+00   9.16332580e-01
C     7.354235801999999e+00   3.621753666128998e+00   3.397559100000000e+00  1.42760540e-01   2.08399730e-01  -2.87772640e-01
C     8.693944814500000e+00   1.375892893395020e+00  -1.736634000000024e-01 -8.34302710e-01  -1.24033251e+00   1.92843260e-01
C     9.908825290299998e+00   2.042737694699302e+00  -3.078570000000269e-02  7.97160010e-01   1.30081140e+00   3.93652060e-01
C     8.593489162499999e+00   2.907611029605683e+00   3.505024500000000e+00 -8.78380620e-01   8.31674110e-01  -1.97126400e-02
C     9.784311484800000e+00   3.640757917073077e+00   3.702123300000000e+00  1.06717021e+00   2.08354100e-02  -6.34011330e-01
C     2.518903781900000e+00   3.501189583969678e+00   1.996041000000000e-01 -5.16567330e-01  -3.93715510e-01  -8.73507900e-01
C     3.747154910700000e+00   4.216438107740259e+00   5.937600000000000e-02  9.23223000e-03   8.54497400e-02  -6.96140450e-01
C     1.228203214130000e+01   5.051320730038784e+00   3.950142300000000e+00  4.61201270e-01  -3.75290110e-01  -6.99762210e-01
C     3.668483055299999e+00   5.747498057023122e+00   3.757426500000000e+00 -3.13366960e-01   2.21064830e-01  -3.18547660e-01
C     4.980090377600000e+00   3.496459569894491e+00  -1.308888000000010e-01 -1.98012317e+00  -1.00273813e+00   4.11101240e-01
C     6.153580644000000e+00   4.203529429427328e+00  -3.192333000000005e-01  2.67889224e+00  -2.44118930e-01   6.98642600e-02
C     4.899027373600000e+00   5.022110056038275e+00   3.525126300000000e+00 -8.36683060e-01   2.52626664e+00   4.61810770e-01
C     6.134398556299999e+00   5.722441013890401e+00   3.334859400000000e+00 -8.04000310e-01   1.47880570e+00  -5.36524390e-01
C     7.414991544399999e+00   3.513392086115912e+00  -2.906241000000023e-01  1.01467911e+00  -3.12457840e-01   3.58535130e-01
C     8.680463975999999e+00   4.205166016175925e+00  -1.816451999999984e-01 -4.50069330e-01  -1.41702610e-01   2.83063200e-02
C     7.352330357000000e+00   5.031089850239253e+00   3.287209200000000e+00  1.21760543e+00   4.79569330e-01   1.03241200e+00
C     8.595217817700000e+00   5.766527754218432e+00   3.443294400000000e+00 -1.04353328e+00   6.88142560e-01  -6.51042280e-01
C     9.905706720200000e+00   3.501650946705912e+00   4.490970000000000e-02 -1.22771608e+00  -1.67057037e+00  -7.09678720e-01
C     1.110242798470000e+01   4.191495999688597e+00   1.310862000000000e-01  2.39570530e+00   4.62714520e-01   2.87470610e-01
C     9.797197568100000e+00   5.064884094285215e+00   3.678539100000000e+00  8.53645810e-01   8.65245070e-01   7.09752910e-01
C     1.104130924640000e+01   5.832613461855980e+00   3.905494500000000e+00 -2.66106490e-01  -4.28620345e+00  -5.18290820e-01
C     3.739431523400000e+00   5.648795549494698e+00  -9.388799999999975e-02  1.41807330e-01  -1.25937615e+00   7.74020890e-01
C     4.996168980999999e+00   6.320014885867884e+00  -2.130486000000005e-01 -4.94446780e-01   2.16226950e-01  -4.78572200e-01
C     1.350688245750000e+01   7.178115504612052e+00   3.635073900000000e+00  3.86499520e-01   4.64104100e-01  -2.33428020e-01
C     4.869026400900000e+00   7.910275367858064e+00   3.391578000000000e+00  4.65000530e-01  -9.95144070e-01   6.57295000e-03
C     6.236936393799999e+00   5.602553904481934e+00  -3.736362000000000e-01 -1.10787602e+00   1.48862680e+00   5.98026110e-01
C     7.467712175599999e+00   6.337999578960649e+00  -3.907559999999997e-01  4.95678330e-01  -8.27782530e-01   6.82075580e-01
C     6.124385183999999e+00   7.176419059399991e+00   3.232161600000000e+00 -1.76176908e+00  -8.04435800e-02   1.02372957e+00
C     7.307452320499999e+00   7.927922599256660e+00   3.251006400000000e+00  1.82477820e+00  -4.04451570e-01   1.39581190e-01
C     8.719938485999998e+00   5.616069108709259e+00  -2.520188999999995e-01 -1.22074425e+00   2.92514250e-01   4.45347600e-02
C     9.937899718799999e+00   6.318394352458989e+00  -1.112738999999969e-01 -1.05180707e+00   8.35381830e-01  -4.22501270e-01
C     8.569473850700000e+00   7.217365578624001e+00   3.351512100000000e+00  8.00366600e-02  -1.01808759e+00   3.72257180e-01
C     9.821203463600000e+00   7.894519271110472e+00   3.493749600000000e+00 -6.83024060e-01  -8.78500120e-01   4.18075740e-01
C     1.115563180520000e+01   5.612806523585061e+00   3.317490000000000e-02 -1.65886249e+00  -4.38218830e-01  -2.13754000e-02
C     1.233323965690000e+01   6.321115137368230e+00  -3.509280000000103e-02  2.76777942e+00   1.45938276e+00  -2.53679050e-01
C     1.102963175260000e+01   7.191726772707277e+00   3.792083700000000e+00  6.13325270e-01   1.97537976e+00  -1.11712979e+00
C     1.227560677370000e+01   7.908659445514828e+00   3.678055800000000e+00  1.29920980e-01  -6.73091620e-01   3.97183520e-01
