64
Lattice="9.86 0 0 4.93 8.53901048131456 0 0 0 30 " PBC="1 1 1" Properties=species:S:1:pos:R:3:force:R:3 Energy="-515.21210632"
C     5.009102737399999e+00   7.292690154040491e+00  -1.757756999999991e-01 -1.99954722e+00   1.90381460e-01  -2.80450210e-01
C     6.190306580400000e+00   8.014233977897348e+00  -2.421459000000006e-01  1.68061609e+00  -3.31332400e-02   7.73610900e-01
C     9.811543621600000e+00   1.287005978413355e+00   3.501563400000000e+00 -7.21845310e-01  -1.41504130e+00   3.00643490e-01
C     1.190963369600000e+00   1.928186100599158e+00   3.578325300000000e+00  2.57323650e-01   1.42925395e+00  -5.68937690e-01
C     7.442433945699999e+00   7.324026870870310e+00  -2.547288000000023e-01  8.44257000e-02  -1.10872903e+00   1.39261150e-01
C     8.698587444799999e+00   7.989468456582413e+00  -1.647122999999979e-01  7.85224200e-02   9.29808280e-01  -9.20005640e-01
C     2.399542713800000e+00   1.238757153597163e+00   3.438426900000000e+00  1.62814624e+00  -4.72489760e-01   4.19070680e-01
C     3.633999628000000e+00   1.973603047979763e+00   3.482763300000000e+00 -6.21111250e-01   4.66804390e-01   3.02905930e-01
C     9.943011487900000e+00   7.256185628068176e+00  -2.840747999999991e-01 -1.20314569e+00   1.10523976e+00   1.07239707e+00
C     1.115870344170000e+01   7.989909838034124e+00  -2.488583999999996e-01  2.64605510e-01  -2.78103830e-01   3.58883220e-01
C     4.851363887100000e+00   1.249588119880100e+00   3.564561900000000e+00  4.52647330e-01   5.13938080e-01  -5.64144010e-01
C     6.084170335900000e+00   1.967218686014182e+00   3.585180300000000e+00  5.96701640e-01  -2.58372530e-01  -6.23071840e-01
C     1.239916302530000e+01   7.310806433284754e+00  -1.859736000000005e-01  5.41325980e-01  -6.74774410e-01  -3.50222510e-01
C     1.363754678310000e+01   8.034674575794266e+00  -1.540382999999999e-01 -9.39243970e-01  -9.27625450e-01  -1.47910100e-01
C     7.336098627799999e+00   1.211856025761181e+00   3.591111600000000e+00 -1.15190180e-01   6.98213140e-01  -4.46855300e-02
C     8.569862729099999e+00   1.950515698394463e+00   3.529377000000000e+00 -5.44043190e-01   9.48807740e-01   3.15058370e-01
C     1.245561985700000e+00   8.825563447588889e-01  -1.168656000000006e-01  1.33053236e+00   3.33465710e-01  -3.19187840e-01
C     2.488485435400000e+00   1.603784481398299e+00  -1.223733000000031e-01  1.52193742e+00  -1.15567304e+00   8.35992990e-01
C     1.108471025490000e+01   3.359060828573850e+00   3.697562400000000e+00 -2.59439392e+00  -6.65669190e-01  -3.10080800e-01
C     1.222225367280000e+01   4.115524508838142e+00   3.748168200000000e+00  3.18309470e+00   6.12099460e-01  -2.38680240e-01
C     3.772085526300000e+00   9.071222240088007e-01  -9.786809999999946e-02 -1.07038459e+00  -1.49439250e+00  -3.89607710e-01
C     5.011546784900000e+00   1.586251758130239e+00  -1.032149999999987e-01 -8.66318890e-01   5.79885080e-01  -1.19975810e-01
C     3.620339041700000e+00   3.417226006260467e+00   3.557531400000000e+00 -9.38048600e-02  -6.83565670e-01   3.75738600e-01
C     4.854727823299999e+00   4.115517421459444e+00   3.515032800000000e+00 -4.85946000e-01   5.48556130e-01   9.31118000e-02
C     6.223625788200000e+00   8.580650110704672e-01  -1.961607000000001e-01 -7.67624200e-02   1.04758317e+00  -3.31543860e-01
C     7.439678026400000e+00   1.593886060449883e+00  -2.727539999999991e-01  1.43715430e-01   2.23829810e-01   7.60171130e-01
C     6.077360132500000e+00   3.417511379990708e+00   3.459152100000000e+00  4.37811830e-01  -2.18829099e+00   1.01423857e+00
C     7.319613693800000e+00   4.075953026471726e+00   3.540411600000000e+00  7.99618250e-01   8.47751670e-01  -5.65716750e-01
C     8.654633487500000e+00   9.122476796593160e-01  -1.635644999999997e-01  1.33102037e+00  -9.71772070e-01  -1.37386390e-01
C     9.905349245900000e+00   1.590132567613190e+00  -8.208719999999659e-02 -1.07219980e+00   1.25876902e+00  -5.89538700e-01
C     8.580403217000001e+00   3.394245394306166e+00   3.556113300000000e+00 -3.51911180e-01  -1.34072849e+00   4.58480000e-03
C     9.845931554800000e+00   4.054504227607434e+00   3.626628300000000e+00 -1.16777511e+00   1.56353917e+00   6.31876200e-02
C     2.546613290600000e+00   2.996082436337391e+00  -1.160790000000134e-02 -1.08676992e+00   1.45277575e+00  -3.00563360e-01
C     3.786018692300000e+00   3.737795146777692e+00  -7.344330000000099e-02 -1.12124118e+00  -9.62891810e-01  -9.17054300e-02
C     1.224455876760000e+01   5.546056053981643e+00   3.861051900000000e+00  1.05242601e+00  -7.51777000e-03  -9.85522200e-01
C     3.683584680600000e+00   6.250503241835653e+00   3.687788700000000e+00 -2.88186778e+00  -1.27621674e+00   2.38678700e-01
C     4.997631514800000e+00   3.022929597627139e+00  -1.042062000000001e-01  9.98089360e-01  -7.08706180e-01  -4.36294990e-01
C     6.241002066199999e+00   3.706266643772492e+00  -2.477960999999986e-01 -9.67711010e-01   1.00480066e+00   3.86369870e-01
C     4.846632960500000e+00   5.548931053420155e+00   3.559561200000000e+00  2.42649871e+00  -1.22470788e+00  -1.99174990e-01
C     6.107641178500000e+00   6.253240592425226e+00   3.468481800000000e+00 -5.82010860e-01  -1.02393862e+00  -6.67250800e-02
C     7.483841903100000e+00   3.019427322478767e+00  -2.758886999999994e-01 -1.84514776e+00  -4.41887360e-01   9.75941000e-02
C     8.666470220299999e+00   3.746018726210561e+00  -2.079279000000014e-01  1.26031731e+00  -3.81826780e-01   1.89557240e-01
C     7.323987984200000e+00   5.491881326672541e+00   3.497949600000000e+00 -2.50282200e-01   8.28597660e-01  -2.16902800e-01
C     8.550732110599998e+00   6.192187606784379e+00   3.502456200000000e+00  1.50438861e+00  -1.61729840e-01   1.28547750e-01
C     9.901380891699999e+00   3.019229046655421e+00  -1.147722000000009e-01  1.06187413e+00   6.16683050e-01   6.03984660e-01
C     1.115926989870000e+01   3.722054164078650e+00   7.157400000000000e-03  1.95091400e-02   9.38257030e-01  -2.61274000e-01
C     9.808964639999999e+00   5.508836385881628e+00   3.601633800000000e+00  4.95359700e-02  -9.56512130e-01   9.06520610e-01
C     1.101697925270000e+01   6.254835167242262e+00   3.812716500000000e+00 -3.12177690e-01  -6.42073510e-01  -1.20621621e+00
C     3.730768231599999e+00   5.138535023647625e+00  -1.963371000000009e-01  8.49935880e-01   7.90048410e-01   6.91327800e-01
C     4.943443370500000e+00   5.877424224882610e+00  -2.057805000000030e-01  1.14076413e+00  -1.00534873e+00  -1.71828350e-01
C     1.355356566280000e+01   7.626476999659919e+00   3.575845500000000e+00 -1.95691470e+00   2.05044965e+00   7.23530170e-01
C     4.855677242700001e+00   8.408137592048595e+00   3.501753300000000e+00  2.24096147e+00  -1.42708733e+00  -7.45858400e-01
C     6.168132574300000e+00   5.134356288089028e+00  -2.420441999999987e-01  1.51134212e+00   9.36434740e-01  -2.94485600e-01
C     7.421977305100000e+00   5.880261738065115e+00  -2.825148000000013e-01 -2.61316390e-01  -1.11995770e-01   4.00619480e-01
C     6.113415687500000e+00   7.658026679411108e+00   3.393933300000000e+00  4.85485160e-01   1.19095849e+00   6.27346800e-01
C     7.398184878600000e+00   8.351804288280253e+00   3.384897000000000e+00 -1.62254249e+00  -4.62032550e-01   3.06277560e-01
C     8.652368793400001e+00   5.158480444326810e+00  -1.999647000000024e-01  8.56031190e-01   5.65030400e-01  -2.59820240e-01
C     9.928201324200000e+00   5.852972170642397e+00  -1.785159000000007e-01 -4.86505230e-01   2.06762500e-02   3.46119920e-01
C     8.622457645299999e+00   7.603107179607940e+00   3.481962300000000e+00 -1.85844998e+00   1.44075808e+00  -3.83957450e-01
C     9.808679883200000e+00   8.368000229457669e+00   3.551719500000000e+00 -7.17549500e-02  -2.28549280e-01   1.55142620e-01
C     1.118394780250000e+01   5.203174393690072e+00   1.389300000000000e-03 -1.82941950e+00  -2.99414702e+00  -1.26792498e+00
C     1.238937968680000e+01   5.865147433345199e+00  -1.678604999999997e-01  1.72347560e-01   1.33772620e+00   5.81269060e-01
C     1.101575173200000e+01   7.667167946300262e+00   3.652282200000000e+00  1.42659197e+00  -6.03541390e-01   7.43937310e-01
C     1.228603249120000e+01   8.307367277742333e+00   3.659367300000000e+00 -2.70360260e-01   1.82677805e+00  -5.74258830e-01
