64
Lattice="9.86 0 0 4.93 8.53901048131456 0 0 0 30 " PBC="1 1 1" Properties=species:S:1:pos:R:3:force:R:3 Energy="-514.88613171"
C     4.990290103900000e+00   7.946095833700825e+00   1.331043000000000e-01 -5.11114310e-01   5.75890680e-01  -3.65134450e-01
C     1.302056926300000e+00   1.562844707992568e-01   7.614269999999999e-02 -1.70913710e+00  -1.57907646e+00   2.74686870e-01
C     9.815742108199998e+00   5.908435093072512e-01   3.495270000000000e+00 -9.12490910e-01  -1.04335300e-01  -7.91862220e-01
C     1.173402315200000e+00   1.281194157100457e+00   3.381629100000000e+00  7.48399970e-01  -8.08365370e-01   9.74235390e-01
C     7.419133138799999e+00   7.986947911468926e+00   1.698981000000000e-01  2.16648231e+00  -1.10027086e+00  -1.23618080e-01
C     3.758156156400000e+00   1.389935723079904e-01   9.904380000000000e-02 -1.79194372e+00   5.54868100e-01   7.29617000e-02
C     2.400695052000000e+00   5.912830975667616e-01   3.583322400000000e+00  1.03506145e+00  -1.27968704e+00  -1.02683153e+00
C     3.642597498700000e+00   1.270704068115882e+00   3.430536900000000e+00  5.47912030e-01   6.75092070e-01   2.82709400e-01
C     9.893880784099998e+00   7.939500814346701e+00   8.992649999999999e-02 -2.28399900e-02   2.18536407e+00  -3.07535550e-01
C     6.176855962800000e+00   1.287370252600432e-01   5.011140000000000e-02  1.43430385e+00   4.71227630e-01   7.67823000e-03
C     4.906369819799999e+00   5.782650345295823e-01   3.482944800000000e+00 -1.13310586e+00   7.66600720e-01  -7.45639430e-01
C     6.126806750700000e+00   1.315858013973703e+00   3.422772600000000e+00  1.66604330e-01  -1.98116870e+00   3.59638170e-01
C     1.236857582630000e+01   7.983041228784222e+00  -1.868789999999976e-02  9.64143000e-03  -1.10534342e+00   7.83650130e-01
C     8.691971877799999e+00   1.110513683142864e-01   1.252596000000000e-01 -9.06875840e-01   1.98569884e+00  -7.31161440e-01
C     7.335545925499999e+00   5.430538270845688e-01   3.392147700000000e+00  1.52164936e+00   1.52455735e+00  -2.08855040e-01
C     8.593985268399999e+00   1.303259301741197e+00   3.450935400000000e+00 -1.15918604e+00  -1.04564475e+00  -5.02118290e-01
C     1.279819421800000e+00   1.528044995462586e+00  -1.154873999999992e-01 -5.53329550e-01   1.75102423e+00  -3.73754560e-01
C     2.496571917200000e+00   2.244048538539808e+00  -2.302742999999978e-01  5.22624620e-01   1.10631080e+00   8.81842870e-01
C     1.104489917380000e+01   2.662031906074341e+00   3.185540100000000e+00  5.71282140e-01   1.41374391e+00   8.67942500e-02
C     2.410575856600000e+00   3.380937688033506e+00   3.135966000000000e+00  7.86943190e-01   1.78963524e+00  -2.52304420e-01
C     3.706494637100000e+00   1.577575269581511e+00  -2.154900000000737e-03  2.37187833e+00  -1.22268484e+00  -3.39991690e-01
C     4.995433425000000e+00   2.277480130810685e+00   6.656250000000000e-02 -2.62990202e+00   2.77076730e-01  -5.21276290e-01
C     3.665932667700000e+00   2.698499714301591e+00   3.233706300000000e+00 -6.02454830e-01  -4.67787600e-01   5.21724360e-01
C     4.894930149199999e+00   3.405202140213474e+00   3.315454200000000e+00  4.94520730e-01   6.51788890e-01   4.80228790e-01
C     6.183866028400000e+00   1.562174054109469e+00   1.120503000000000e-01  1.56373710e+00  -1.26548100e-01   4.48007500e-02
C     7.443955787400000e+00   2.312231170980931e+00   1.148778000000000e-01 -3.90575090e-01  -2.67629976e+00   8.21930100e-02
C     6.143361444199999e+00   2.715739037169558e+00   3.486297300000000e+00 -9.41854390e-01   2.78732210e-01  -3.18468580e-01
C     7.366717082999999e+00   3.423923066789825e+00   3.547875900000000e+00  3.31027100e-01  -9.23085200e-01  -8.20711250e-01
C     8.673758337899999e+00   1.592352197997361e+00   1.085343000000000e-01  5.88918030e-01  -1.48757531e+00  -9.09314640e-01
C     9.913248683500001e+00   2.266403924146763e+00  -1.267391999999994e-01 -7.54511030e-01   3.72928860e-01   1.20217961e+00
C     8.589982995800000e+00   2.714937736426115e+00   3.368558100000000e+00  6.12165250e-01   5.04298000e-02   7.18183290e-01
C     9.847609381700000e+00   3.397894198874375e+00   3.204865500000000e+00 -1.92868538e+00   1.22091413e+00   2.98252360e-01
C     2.537890000700000e+00   3.682317878809970e+00  -2.658992999999974e-01 -2.31292958e+00   3.85604470e-01   3.31915840e-01
C     3.737187338100000e+00   4.421748538699491e+00  -1.580754000000013e-01  4.82468360e-01  -1.65489097e+00   4.81381800e-01
C     1.228940638600000e+01   4.862053477359479e+00   3.058962300000000e+00 -7.94565270e-01  -1.34403347e+00   4.94085600e-02
C     3.677283154600000e+00   5.533438470535976e+00   3.189269100000000e+00 -1.46722880e-01   4.95623080e-01  -1.76113900e-02
C     4.968156425200000e+00   3.696645057543838e+00   2.173590000000000e-02  8.52094780e-01   5.56862160e-01   5.10660520e-01
C     6.214744343900000e+00   4.396571778639841e+00   2.451789000000000e-01 -8.03848220e-01   4.37348550e-01  -1.37643074e+00
C     4.906930607300000e+00   4.848289360976661e+00   3.345983400000000e+00 -3.30750770e-01  -1.72973991e+00   4.85283950e-01
C     6.120252167799999e+00   5.502012521046641e+00   3.633270900000000e+00 -5.26860680e-01   2.85384270e+00  -9.31981560e-01
C     7.451216987200000e+00   3.689203993031357e+00   1.362114000000000e-01 -5.98429800e-02   2.08311364e+00   4.71088260e-01
C     8.680078400699999e+00   4.438809481638532e+00   6.352920000000001e-02 -1.43449330e-01  -1.08661724e+00   1.60022440e-01
C     7.356412298400000e+00   4.810249179359624e+00   3.595737000000000e+00  4.70593000e-02   1.53391113e+00   5.01340400e-02
C     8.564586347299999e+00   5.553925008309277e+00   3.462620700000000e+00  1.32779406e+00  -3.58252180e-01  -4.75248120e-01
C     9.903849885000000e+00   3.715238582083829e+00  -8.322390000000013e-02 -6.26406260e-01  -9.66664410e-01  -3.86967430e-01
C     1.110614840920000e+01   4.406003030324896e+00  -1.696646999999984e-01  2.56298636e+00   7.80808300e-01  -4.87759370e-01
C     9.791294238199999e+00   4.851303033945368e+00   3.185788800000000e+00  1.00053167e+00  -1.79249530e-01   1.71602300e-01
C     1.103453843370000e+01   5.606230887784727e+00   3.027195300000000e+00 -2.47271820e-01  -1.89457420e+00   1.02478005e+00
C     3.709544285800000e+00   5.816908001440535e+00  -5.519699999999972e-02  1.18661111e+00   6.41815000e-01  -8.47755100e-02
C     4.931612553700000e+00   6.531242765699653e+00   8.684399999999999e-02  1.91381321e+00  -3.02170830e-01   6.51282060e-01
C     1.354838738800000e+01   6.948009238850680e+00   3.244044900000000e+00 -1.45227794e+00   1.28577803e+00   1.55203190e-01
C     4.854468456000000e+00   7.716165813115760e+00   3.463290600000000e+00  1.69211795e+00  -1.40733923e+00   4.44556830e-01
C     6.202535445400000e+00   5.830338498683899e+00   2.441007000000000e-01 -6.01770010e-01  -3.18368900e-01  -3.74914100e-01
C     7.437018587200000e+00   6.542063826730432e+00   2.632905000000000e-01 -4.52195520e-01   8.16917550e-01  -4.55144030e-01
C     6.092854580199999e+00   6.995879956282818e+00   3.631205100000000e+00  1.28082512e+00  -1.54675379e+00  -5.30797800e-02
C     7.382544650800000e+00   7.670256335610668e+00   3.664461600000000e+00 -2.07266128e+00   1.38349622e+00  -2.89821700e-01
C     8.683730199599999e+00   5.851623860887605e+00   1.433382000000000e-01 -1.31346883e+00  -4.25777740e-01  -1.02815740e-01
C     9.871292904499999e+00   6.568363893618727e+00   1.361310000000000e-02  2.15241922e+00  -1.80115823e+00   5.37094100e-02
C     8.608967094699999e+00   6.985438539657978e+00   3.501368100000000e+00 -1.11829006e+00  -6.49320650e-01   4.49359200e-01
C     9.811826998000001e+00   7.708456282113787e+00   3.387231600000000e+00  7.07486100e-01  -1.38975990e-01   6.95691600e-02
C     1.113883366830000e+01   5.851936986401906e+00  -1.207476000000014e-01 -1.45868549e+00  -9.50292060e-01   2.17855950e-01
C     1.237134860620000e+01   6.525720160671712e+00  -8.364569999999816e-02 -9.51713170e-01   1.78424338e+00  -2.06961060e-01
C     1.101921426820000e+01   7.004031808027655e+00   3.178569000000000e+00  1.53394983e+00  -1.23347900e-02  -2.88109970e-01
C     1.230262253280000e+01   7.677923000780032e+00   3.179624100000000e+00 -9.01269970e-01   4.18891400e-02   1.00653249e+00
