64
Lattice="9.86 0 0 4.93 8.53901048131456 0 0 0 30 " PBC="1 1 1" Properties=species:S:1:pos:R:3:force:R:3 Energy="-514.81897468"
C     4.938304683599999e+00   8.507801421376858e+00  -2.661824999999993e-01 -1.22612564e+00   2.09609031e+00   3.03777540e-01
C     1.210359419300000e+00   7.143521838404953e-01  -2.773634999999999e-01  1.16656866e+00  -9.61998050e-01   4.16796870e-01
C     2.620718980000000e-02   2.392681970558880e-02   3.512478600000000e+00 -1.61045521e+00  -1.28463074e+00   1.42285000e-01
C     1.214965370400000e+00   7.245271833383583e-01   3.573884400000000e+00  7.99429140e-01   1.11463726e+00   1.02172640e-01
C     2.462484171700000e+00   1.855842920691760e-02  -2.814779999999999e-01 -9.37640900e-01  -2.35274892e+00   2.70648570e-01
C     3.667415661000000e+00   6.672526244448065e-01  -1.403940000000006e-01  2.32116204e+00   1.91381389e+00  -5.43514010e-01
C     2.415129056700000e+00   2.844967738653040e-02   3.505815900000000e+00  2.77970745e+00   1.22471250e-01  -2.41802300e-01
C     3.725350210899999e+00   7.049481715988712e-01   3.497913600000000e+00 -2.07677682e+00   5.81462940e-01   1.34413700e-02
C     9.861403521700000e+00   8.520916402182984e+00  -1.219575000000006e-01 -2.28095000e-01   8.88630470e-01   7.35373600e-02
C     6.154990032399999e+00   7.386030589938001e-01  -1.851401999999993e-01  2.26117540e-01  -3.06735141e+00   9.79572140e-01
C     9.857458683600001e+00   8.518607539139298e+00   3.409877700000000e+00  4.30765920e-01   1.20991053e+00   3.74190450e-01
C     6.129829087200000e+00   7.300975214348816e-01   3.494010600000000e+00  1.49781566e+00   6.06872050e-01  -4.46511520e-01
C     1.230211020720000e+01   8.523351471801567e+00  -7.070309999999935e-02  1.04469174e+00   5.63339920e-01  -8.76430930e-01
C     8.606220394499999e+00   7.106689670600520e-01  -2.170154999999987e-01  5.94651830e-01  -1.12585019e+00  -9.28227900e-02
C     7.401887259300000e+00   1.782834381087760e-02   3.529378200000000e+00 -5.18100780e-01   1.32262340e-01  -5.29541480e-01
C     8.665379211300001e+00   7.112976090115896e-01   3.547202700000000e+00 -1.86161961e+00   1.12017001e+00   4.02623100e-01
C     1.235352744500000e+00   2.103038137346546e+00  -7.804799999999901e-02  6.35443530e-01   7.37213150e-01  -7.93718390e-01
C     2.470137109300000e+00   2.839753221123218e+00  -1.055339999999916e-02  7.26852930e-01  -1.45698921e+00   4.77314610e-01
C     1.109087650170000e+01   2.142475557248427e+00   3.679278000000000e+00 -1.36853642e+00   5.48490050e-01  -3.05933120e-01
C     2.434230292400000e+00   2.859282365041502e+00   3.656776500000000e+00  2.46195627e+00  -1.04636560e+00  -1.35400160e-01
C     3.745474766700000e+00   2.118756064717292e+00  -9.151740000000075e-02 -2.29472861e+00  -4.68552440e-01   3.69678320e-01
C     4.944184793200000e+00   2.824492899324096e+00  -7.477590000000234e-02  9.63832220e-01   4.46519040e-01  -3.72987940e-01
C     3.723105286100000e+00   2.129964540653550e+00   3.565131300000000e+00 -1.42990228e+00   3.05748040e-01  -2.37631680e-01
C     4.925021242300000e+00   2.882758068823433e+00   3.455916600000000e+00 -1.37180378e+00  -5.84535580e-01   3.95391560e-01
C     6.208292896600000e+00   2.106697017947122e+00  -1.949286000000008e-01 -2.04339414e+00   2.13511488e+00   1.14372890e-01
C     7.402226985600000e+00   2.836518046222661e+00  -2.271815999999980e-01  1.04077831e+00  -2.97375070e-01  -5.52086290e-01
C     6.129309169400000e+00   2.197315217303606e+00   3.444727500000000e+00  1.45852013e+00  -2.54298087e+00   5.44327560e-01
C     7.390488211899999e+00   2.849971854964635e+00   3.520563000000000e+00 -1.43319600e-02   8.09296240e-01  -2.07275460e-01
C     8.639024022899999e+00   2.129162215228849e+00  -2.935890000000008e-01 -1.86556000e-01  -7.11102840e-01   9.89933430e-01
C     9.883959405599999e+00   2.801886381418925e+00  -1.341938999999996e-01 -1.37402598e+00   1.14732047e+00   2.57043400e-02
C     8.624787859100000e+00   2.162107767023204e+00   3.624463500000000e+00 -3.31966710e-01  -1.47927804e+00  -5.65874610e-01
C     9.834797692100000e+00   2.865666727007084e+00   3.650991300000000e+00  1.26753196e+00   7.41601400e-01  -1.87974820e-01
C     2.454991409800000e+00   4.219058132325837e+00   2.014539000000000e-01  6.57126780e-01   2.42780473e+00  -4.43633480e-01
C     3.741161608300000e+00   4.988368583077079e+00   1.761615000000000e-01 -2.03133129e+00  -1.03756698e+00  -1.16789978e+00
C     2.491788535400000e+00   4.262356038865724e+00   3.637201200000000e+00 -9.96967690e-01   1.63095032e+00  -1.66063940e-01
C     3.723029364099999e+00   5.014917049780238e+00   3.528939600000000e+00 -2.20431777e+00  -8.53728330e-01   2.59243900e-01
C     4.933675610800000e+00   4.273221758921315e+00  -4.407180000000110e-02 -3.37178550e-01  -1.78240958e+00  -2.17860000e-03
C     6.144302581200000e+00   4.918259976822192e+00  -2.688668999999990e-01  9.98921350e-01   2.42377929e+00   9.53036790e-01
C     4.883435016100000e+00   4.280693820041839e+00   3.466878300000000e+00  2.77375242e+00   8.76945960e-01  -1.85000580e-01
C     6.150961532200000e+00   4.981553171862467e+00   3.408038700000000e+00  6.68313400e-02  -5.27771580e-01  -3.76415100e-02
C     7.391307627200000e+00   4.243391238150064e+00  -2.656832999999992e-01 -3.36118950e-01   1.89903870e-01   2.26783850e-01
C     8.614520295999998e+00   4.961496573266833e+00  -1.433868000000018e-01 -1.31272410e-01  -1.04705935e+00  -3.86122380e-01
C     7.409862964000000e+00   4.276091037222805e+00   3.447173100000000e+00 -1.22372315e+00   3.01095410e-01   1.13541140e-01
C     8.605744304400000e+00   5.023539657172837e+00   3.465856800000000e+00  1.23554152e+00  -4.39197080e-01   2.43750400e-02
C     9.810077636799999e+00   4.220369724335565e+00  -1.595760000000013e-02  2.66526033e+00   1.05248623e+00   2.78943390e-01
C     1.107397118660000e+01   4.969453735572726e+00   1.746216000000000e-01 -4.71508340e-01  -8.19499960e-01  -2.38008010e-01
C     9.855583262299998e+00   4.303918220745343e+00   3.545378400000000e+00  3.04908960e-01  -1.85292210e-01   6.87286570e-01
C     1.111691809280000e+01   4.999691054803245e+00   3.610238700000000e+00 -7.85263990e-01   1.24594060e-01  -5.46731540e-01
C     3.696854712300000e+00   6.392945635086410e+00  -1.444380000000223e-02  1.45703493e+00   3.64646000e-01   7.78818820e-01
C     4.947720687800000e+00   7.130856948841226e+00  -1.689459000000006e-01 -4.16290070e-01  -2.55655895e+00  -1.00135910e-01
C     1.353867617540000e+01   6.423261940163869e+00   3.494626200000000e+00 -7.12085000e-03   2.85371820e-01  -4.74444700e-02
C     4.898716635700000e+00   7.132703680637735e+00   3.470338200000000e+00  1.53399045e+00  -4.32970780e-01  -4.22944380e-01
C     6.164765187100000e+00   6.367788173190444e+00  -2.188124999999985e-01  7.53552680e-01   4.85377600e-01  -8.28562160e-01
C     7.432371865000000e+00   7.088039447030942e+00  -3.009194999999991e-01 -1.39867905e+00   2.49237500e-01   4.52821010e-01
C     6.149269260400000e+00   6.384319953650039e+00   3.380652600000000e+00 -3.05050900e-02   2.04522452e+00   5.78601220e-01
C     7.384624815000000e+00   7.175354244793135e+00   3.404563800000000e+00 -2.83330210e-01  -2.33557429e+00   1.43606040e-01
C     8.646369772200000e+00   6.353796577568440e+00  -1.845092999999984e-01  8.75846330e-01   2.40916124e+00   5.64312070e-01
C     9.913792659700000e+00   7.123335873800547e+00  -7.874399999998616e-03 -2.59696341e+00  -1.12862819e+00  -6.34958290e-01
C     8.641631647799999e+00   6.445194047021329e+00   3.430170300000000e+00 -1.46476904e+00  -1.82180020e-01  -4.20063280e-01
C     9.878369820900000e+00   7.113538554736214e+00   3.390843000000000e+00 -1.05611036e+00   6.12677130e-01   5.98683300e-01
C     1.109506793840000e+01   6.418644043296284e+00   1.675122000000000e-01  1.14823380e+00  -1.70892087e+00  -5.34034220e-01
C     1.234977635590000e+01   7.096449433062589e+00   6.223350000000000e-02 -1.22725045e+00   8.76726370e-01  -2.28084400e-02
C     1.108850581260000e+01   6.453319257053469e+00   3.498355500000000e+00  1.44435440e-01  -3.03152380e+00  -4.63166200e-02
C     1.229139199280000e+01   7.116026736999981e+00   3.468846000000000e+00  1.82704625e+00   1.89193068e+00   6.63038630e-01
