64
Lattice="9.86 0 0 4.93 8.53901048131456 0 0 0 30 " PBC="1 1 1" Properties=species:S:1:pos:R:3:force:R:3 Energy="-514.23275394"
C     5.106693418499999e+00   6.730804734803749e+00  -4.583448000000026e-01 -4.31282940e-01  -1.34763040e+00   7.56553640e-01
C     6.343130960200000e+00   7.421000057996324e+00  -4.373781000000001e-01 -2.70594960e-01  -1.35732393e+00  -2.27250590e-01
C     9.732975641299998e+00   1.896167116831988e+00   3.764256000000000e+00 -1.81738092e+00  -2.63228060e-01  -3.67894470e-01
C     1.093412710240000e+01   2.596165394835813e+00   3.809182200000000e+00  4.12942680e-01  -3.63560870e-01  -6.69036540e-01
C     7.557916188400000e+00   6.669120545508221e+00  -4.669692000000012e-01  1.05115553e+00   1.06996480e+00   1.30214930e-01
C     8.824716712699999e+00   7.399977953485718e+00  -4.122920999999984e-01 -9.41686540e-01  -1.20336375e+00   2.82780790e-01
C     2.284694962100000e+00   1.873746407794862e+00   3.783201000000000e+00  9.93065650e-01  -1.36389430e+00   4.78005040e-01
C     3.495962191599999e+00   2.564043857552778e+00   3.850904100000000e+00  1.20647779e+00   1.56879237e+00  -1.42401190e-01
C     1.006348042560000e+01   6.670925521543484e+00  -3.316979999999994e-01 -1.28820050e+00   1.31864000e-03   5.24300600e-02
C     1.127409886710000e+01   7.407869706971333e+00  -2.866403999999996e-01 -4.73178300e-01  -1.03651792e+00  -2.89029380e-01
C     4.704251355999999e+00   1.816425311294194e+00   3.781007100000001e+00  2.30795449e+00   1.02168177e+00   5.40609700e-01
C     5.993572120300001e+00   2.515146836451049e+00   3.735714300000000e+00 -1.19342530e-01   3.99266530e-01  -2.37844200e-02
C     1.251197468700000e+01   6.697122693355494e+00  -2.576289000000003e-01 -7.09493200e-02  -5.08083660e-01   6.96453280e-01
C     1.374377645110000e+01   7.387507753360935e+00  -2.192031000000014e-01 -5.04094100e-01   1.75109932e+00  -6.10001640e-01
C     7.253748548700000e+00   1.805782715582446e+00   3.714903300000000e+00 -3.94983260e-01   1.48470970e-01  -1.86780780e-01
C     8.498783468099999e+00   2.573075483547369e+00   3.671295600000000e+00 -1.70147931e+00   5.04660180e-01  -2.43664140e-01
C     1.373516684700000e+00   2.677851618450008e-01  -3.507293999999987e-01  3.85065490e-01   1.40016401e+00   3.50720340e-01
C     2.619930574400000e+00   9.598242281804176e-01  -3.407543999999980e-01 -3.63747510e-01   1.93243574e+00  -3.97739100e-02
C     1.092358316350000e+01   3.999899390340453e+00   3.742976700000000e+00  8.68950120e-01   8.11976630e-01   4.80454580e-01
C     1.215619226440000e+01   4.724645257737205e+00   3.901825500000000e+00  3.20195660e-01   3.88960760e-01  -4.96131940e-01
C     3.833436812700000e+00   2.725026235747816e-01  -3.699534000000000e-01  2.29443463e+00   8.81416750e-01  -6.83269230e-01
C     5.109232072700000e+00   1.048406812828575e+00  -4.658930999999988e-01 -2.15016082e+00  -1.81774921e+00   3.49746430e-01
C     3.539156928900000e+00   4.047078960264340e+00   3.926528700000000e+00 -6.62450000e-03  -2.37999862e+00  -3.42579180e-01
C     4.797487565299999e+00   4.721468318888120e+00   3.849986400000000e+00 -5.77487980e-01  -2.24160953e+00  -4.48949510e-01
C     6.292693954300000e+00   2.727248086274712e-01  -4.035326999999995e-01  2.83558610e-01   3.96774610e-01   1.21504120e-01
C     7.525582881999999e+00   9.350537542394048e-01  -3.740133000000014e-01  6.26112330e-01   1.55798175e+00   5.52306940e-01
C     6.025779908900000e+00   3.961179418099103e+00   3.721554300000000e+00 -1.71876018e+00  -3.16021630e-01   1.38491770e-01
C     7.198599300900000e+00   4.716010866510143e+00   3.609085800000000e+00  1.34010611e+00  -1.83666514e+00  -3.97435940e-01
C     8.752087311799999e+00   3.043981332504112e-01  -1.591023000000007e-01  1.58653480e+00  -2.14621313e+00  -1.31782201e+00
C     9.999004801000000e+00   9.926546741135024e-01  -2.648466000000020e-01  6.38138600e-02   3.01106010e-01   4.09472520e-01
C     8.464930291999998e+00   4.012003693866168e+00   3.530909100000000e+00 -2.51652440e-01  -8.06704010e-01   9.95203740e-01
C     9.707214074199999e+00   4.708718124609700e+00   3.609601800000000e+00 -9.14575070e-01  -3.15364160e-01   3.40731630e-01
C     2.648140576700000e+00   2.424890008018078e+00  -3.040002000000008e-01 -1.15927382e+00  -1.62608370e-01   2.22779740e-01
C     3.844218180400000e+00   3.189846246545359e+00  -3.623195999999993e-01  1.50142763e+00  -1.83438500e+00  -3.72175400e-02
C     1.219479214310000e+01   6.159522732264501e+00   3.877657200000000e+00 -1.79282981e+00  -8.23899850e-01   8.98813000e-03
C     1.341957698890000e+01   6.837846013016418e+00   3.893668200000000e+00 -4.44190800e-02  -2.01200600e-01  -1.08863993e+00
C     5.100122418700000e+00   2.465051877569081e+00  -5.108099999999993e-01 -5.81737380e-01  -6.00598490e-01   7.05404910e-01
C     6.351097544400000e+00   3.114286079829725e+00  -4.912376999999992e-01  2.12383300e-02   6.61279520e-01  -4.85044230e-01
C     4.762418848400000e+00   6.100370018015874e+00   3.743886900000000e+00 -4.26131650e-01   1.34205988e+00   9.29407780e-01
C     5.936435244400000e+00   6.827725833965837e+00   3.665766300000000e+00  1.77923179e+00   2.36389632e+00  -4.77851900e-02
C     7.583095867600000e+00   2.342093456871168e+00  -4.595325000000017e-01 -1.95224258e+00   1.50753251e+00   4.70999590e-01
C     8.779622495700000e+00   3.065247481934238e+00  -3.296789999999987e-01 -1.81642950e-01   1.81163904e+00  -2.66448910e-01
C     7.148517501500000e+00   6.102297187291104e+00   3.615141300000000e+00  1.69198034e+00   1.96739285e+00   4.41655060e-01
C     8.422183741000000e+00   6.800869621324980e+00   3.726082500000000e+00  3.36828260e-01   3.25974890e-01  -5.70538600e-01
C     9.999423998899999e+00   2.426307996098386e+00  -2.530274999999982e-01  2.10776406e+00  -1.18163414e+00  -7.84216000e-03
C     1.125432207350000e+01   3.144885026154071e+00  -2.286207000000005e-01  4.90475600e-01  -6.50781990e-01  -5.75078700e-02
C     9.655224709900001e+00   6.110777961719632e+00   3.730359000000000e+00  1.57110587e+00   3.54252480e-01  -2.41943840e-01
C     1.093062044270000e+01   6.846495176731611e+00   3.796525800000000e+00 -1.14657146e+00  -2.39945164e+00   2.00150700e-01
C     3.894758519100000e+00   4.598207361048901e+00  -2.740437000000000e-01 -1.53263528e+00  -1.09262788e+00  -8.39202090e-01
C     5.055078586300000e+00   5.297839742453658e+00  -5.253405000000022e-01  2.99988267e+00   1.62401270e-01   8.71907850e-01
C     1.341876965210000e+01   8.245015337827269e+00   3.775926900000000e+00 -4.93835790e-01   4.19237980e-01   1.76225960e-01
C     9.675004510800001e+00   4.934671954964752e-01   3.743886300000000e+00  1.91865692e+00  -1.29670587e+00   1.54002990e-01
C     6.312852280600000e+00   4.556359122318203e+00  -5.200967999999975e-01 -3.17184650e-01  -3.20804200e-01  -1.75255770e-01
C     7.531368187700000e+00   5.253230927024880e+00  -4.790321999999989e-01  1.75686024e+00  -4.60077970e-01   1.85135070e-01
C     5.996546487900000e+00   8.332748717883190e+00   3.712286400000000e+00  3.19796390e-01  -2.90338291e+00  -8.11463600e-02
C     2.370114262000000e+00   4.083698079757296e-01   3.739817400000000e+00 -2.46101967e+00   1.64148340e+00  -7.61359000e-03
C     8.797197304799999e+00   4.499380867088307e+00  -3.636072000000006e-01 -1.04514028e+00   1.13601573e+00  -5.15548700e-02
C     1.002636842090000e+01   5.232079798065921e+00  -2.798228999999992e-01  3.89078000e-01   6.40615940e-01  -2.00453900e-02
C     8.530772512599999e+00   8.229272732716236e+00   3.759581700000000e+00 -3.46512300e+00  -9.14617900e-01   3.03150010e-01
C     4.773836580499999e+00   3.959300921183608e-01   3.849025500000000e+00 -3.75102430e-01   1.16980490e+00  -9.46185940e-01
C     1.129534687130000e+01   4.570238515342500e+00  -1.955549999999988e-01 -1.03366239e+00  -1.09243728e+00  -1.66582760e-01
C     1.252945843900000e+01   5.261721350535249e+00  -1.939293000000006e-01 -1.24604976e+00   1.65265247e+00  -2.53701540e-01
C     1.088122736430000e+01   8.209176427721870e+00   3.790019100000000e+00  3.29934158e+00   1.90790634e+00   1.97876880e-01
C     7.239155600799999e+00   3.522010509393376e-01   3.747072300000000e+00 -7.03420470e-01   2.01661016e+00   2.67528770e-01
