64
Lattice="9.86 0 0 4.93 8.53901048131456 0 0 0 30 " PBC="1 1 1" Properties=species:S:1:pos:R:3:force:R:3 Energy="-514.2882582"
C     5.015239798600000e+00   7.147371907450175e+00  -1.228872000000010e-01 -2.40497661e+00   1.29298771e+00   1.78563600e-01
C     6.189297507999999e+00   7.874284719536435e+00  -1.193247000000000e-01  2.53082644e+00   3.15386430e-01   9.28103760e-01
C     9.789848022699999e+00   1.408658613628666e+00   3.364423200000000e+00  4.51030000e-04  -3.82934030e-01   2.53112920e-01
C     1.104139073930000e+01   2.111499613611388e+00   3.409283100000000e+00 -1.81917670e-01  -1.30506910e+00   1.95627020e-01
C     7.463856866299999e+00   7.195720724079087e+00  -1.968953999999989e-01 -2.61850960e-01  -1.05105821e+00   1.42688510e-01
C     8.691475969099999e+00   7.877384294950570e+00  -9.609090000000009e-02  3.33393700e-01   4.94905950e-01  -7.69443630e-01
C     2.380063790800000e+00   1.360506194240794e+00   3.437240100000000e+00  2.15698698e+00   1.35012977e+00  -1.24774010e-01
C     3.665096441100000e+00   2.105646121927348e+00   3.491378100000000e+00 -1.47880031e+00  -1.91862657e+00   6.48948780e-01
C     9.957600935500000e+00   7.146927964295320e+00  -1.519235999999999e-01 -1.91578459e+00   1.20068387e+00   1.15999345e+00
C     1.113772141100000e+01   7.910533331364665e+00  -2.352299999998309e-03  1.00032830e+00  -1.99923531e+00  -1.02153035e+00
C     4.887785494599999e+00   1.350123099057533e+00   3.514627500000000e+00 -6.81052120e-01   3.74370130e-01  -8.74477240e-01
C     6.119406771400000e+00   2.061001698824869e+00   3.406988100000000e+00 -6.06390920e-01   2.61506710e-01   6.33443450e-01
C     1.238165748270000e+01   7.222356801029771e+00  -2.871599999999930e-02  3.69233750e-01  -1.15758932e+00   3.79197970e-01
C     1.362563693840000e+01   7.889802492501530e+00  -7.328069999999798e-02  1.56716610e-01  -4.64348500e-02   3.02363820e-01
C     7.338990467199999e+00   1.374782053521677e+00   3.455196000000000e+00  9.60240720e-01  -2.14031898e+00  -5.77490720e-01
C     8.551305962599999e+00   2.090742901546499e+00   3.293118900000000e+00  2.21599610e-01   8.69071500e-01   1.06074387e+00
C     1.263300175000000e+00   7.295114037555344e-01   1.784085000000000e-01  6.52479180e-01   1.17529800e+00  -2.25372172e+00
C     2.479562135400000e+00   1.507995911196174e+00   1.037610000000000e-02  1.62646568e+00  -2.58262910e+00   8.55534740e-01
C     1.108393762530000e+01   3.512725957908367e+00   3.519465900000000e+00 -2.06168438e+00  -1.51273380e-01  -3.70270090e-01
C     1.225057386060000e+01   4.255597753631224e+00   3.602616600000000e+00  1.81930730e+00  -1.78655301e+00   4.09606900e-01
C     3.745668318499999e+00   7.974816710060200e-01  -9.925859999999886e-02 -1.47899552e+00  -2.31842171e+00   1.82137870e-01
C     4.963628614600000e+00   1.414376078875760e+00  -2.051514000000019e-01  1.11828078e+00   3.89969128e+00   2.73256070e-01
C     3.645773749800000e+00   3.493877373125339e+00   3.650436600000000e+00  9.66996600e-02   1.46514035e+00  -4.65603780e-01
C     4.900729702600000e+00   4.196825623079690e+00   3.662664300000000e+00 -1.11234662e+00   3.36493490e-01  -1.62835853e+00
C     6.222838368599999e+00   7.433314506569952e-01  -1.095275999999998e-01 -1.96606581e+00   1.13330664e+00  -2.58692010e-01
C     7.409949288300000e+00   1.456123898843214e+00  -9.916680000000255e-02  2.32886145e+00   6.99657920e-01   2.42940700e-02
C     6.107074129899999e+00   3.494237463197281e+00   3.378426900000000e+00 -3.82610060e-01   1.57886750e-01   1.14246234e+00
C     7.306500978400000e+00   4.244867462281846e+00   3.343008300000000e+00  1.29390316e+00  -1.22646440e+00  -9.24294380e-01
C     8.671278695800000e+00   7.658324263926336e-01  -3.446669999999941e-02 -4.91069200e-02  -2.67529460e-01   2.80949920e-01
C     9.909792359099999e+00   1.453715385547225e+00   1.023147000000000e-01 -5.99867950e-01   6.82132370e-01  -3.02292690e-01
C     8.555799706899998e+00   3.532703143706537e+00   3.321175500000000e+00  4.51757010e-01  -8.13006170e-01   2.61973780e-01
C     9.829541671199999e+00   4.186444748039154e+00   3.478100700000000e+00 -1.26197964e+00   1.03978213e+00  -6.77585370e-01
C     2.562946380600000e+00   2.885745953980489e+00   9.557760000000000e-02 -4.84652420e-01   1.72128085e+00  -3.19436570e-01
C     3.797352318600000e+00   3.667070536306778e+00   1.894530000000000e-02 -1.51059201e+00  -2.50004146e+00  -1.25057035e+00
C     1.221011902010000e+01   5.646009184984969e+00   3.645050400000000e+00  2.55540238e+00   4.33856510e-01   1.64959290e-01
C     1.350118751870000e+01   6.324222824842322e+00   3.599667000000000e+00 -1.20029238e+00   5.99248290e-01   4.13165560e-01
C     4.970515824600000e+00   2.914562552647345e+00  -2.528109000000001e-01  9.23766220e-01  -9.89897590e-01   1.21284204e+00
C     6.212935724099999e+00   3.610468424488526e+00  -2.588523000000009e-01  1.03646063e+00   6.20005620e-01  -1.76338100e-01
C     4.822821701400000e+00   5.630879680826400e+00   3.556838400000000e+00  3.60269133e+00  -5.49421990e-01  -3.42672590e-01
C     6.102657934500000e+00   6.386615325057167e+00   3.349174800000000e+00 -1.55920513e+00  -1.26628596e+00   1.13225730e-01
C     7.475262667800000e+00   2.876351676210813e+00  -1.511868000000014e-01 -2.46796204e+00   7.96192100e-02  -4.17009500e-02
C     8.681977781800001e+00   3.569942195360341e+00  -3.055319999999995e-02  2.36867230e-01   1.18781702e+00  -8.17878940e-01
C     7.328908617200000e+00   5.640077902915456e+00   3.236443200000000e+00 -8.44744990e-01   1.25093139e+00   1.60235582e+00
C     8.550989998899999e+00   6.341042455345197e+00   3.410355900000000e+00  6.42019350e-01  -7.16076140e-01  -3.55917420e-01
C     9.914763820399997e+00   2.883336928343872e+00   1.976610000000000e-02  1.59981666e+00  -2.91643460e-01   8.78890970e-01
C     1.119594761970000e+01   3.572885677662902e+00   7.846290000000000e-02 -1.74243497e+00   2.08428464e+00   1.78316390e-01
C     9.795117748999999e+00   5.612295207637518e+00   3.501749400000000e+00 -1.69172390e-01   6.18700190e-01   4.50305830e-01
C     1.101569991770000e+01   6.339199736883613e+00   3.655525200000000e+00 -1.07926466e+00   1.14309282e+00  -5.41998510e-01
C     3.725757083800000e+00   5.060035729524776e+00  -5.396819999999991e-02  2.05024657e+00   6.74652580e-01   6.46863090e-01
C     4.980883861100000e+00   5.759181301942068e+00  -1.228425000000009e-01  4.85899900e-01  -8.63104570e-01  -1.09069215e+00
C     1.358494767640000e+01   7.740836209853947e+00   3.582062400000000e+00 -3.92558540e+00   3.28693980e-01  -1.17202780e-01
C     1.470737339720000e+01   8.514987681816615e+00   3.464370900000000e+00  2.58140566e+00   3.54444090e-01  -7.32844490e-01
C     6.227802730700000e+00   5.078963897885478e+00  -3.012507000000006e-01 -7.91790550e-01  -2.27264672e+00   8.96666820e-01
C     7.475981609700000e+00   5.743686584305269e+00  -2.837129999999988e-01 -8.87478570e-01   1.03845619e+00   5.12705940e-01
C     6.079110972700000e+00   7.801751717426066e+00   3.333287100000000e+00  1.10949103e+00  -5.05301900e-02   6.71535960e-01
C     7.347748513600000e+00   8.496937067562945e+00   3.381065100000000e+00 -1.31359477e+00  -5.90751110e-01  -2.57897100e-02
C     8.647598328199999e+00   4.996562190583163e+00  -1.272774000000005e-01  2.85662683e+00   9.19171600e-01  -2.44081080e-01
C     9.950809712600000e+00   5.739021125149312e+00  -9.327689999999933e-02 -1.69498206e+00  -1.12855641e+00   2.80520150e-01
C     8.551084457700000e+00   7.750604240112334e+00   3.476717400000000e+00  4.37377860e-01   5.42115210e-01  -8.03040540e-01
C     9.786588898300000e+00   8.455091902876019e+00   3.472448100000000e+00  8.99163910e-01   1.08175157e+00   1.17649459e+00
C     1.117187235910000e+01   5.050244131597465e+00   6.142440000000000e-02  3.17039330e-01  -1.27357178e+00  -4.10688290e-01
C     1.239920872640000e+01   5.797114745928106e+00   3.589349999999999e-02 -1.38562422e+00  -5.45509510e-01  -1.93990670e-01
C     1.103989029380000e+01   7.788723492966416e+00   3.625574100000000e+00  3.23483100e-01  -1.48236235e+00  -4.63974920e-01
C     1.232181329730000e+01   8.431591692134010e+00   3.595126200000000e+00 -1.24481769e+00   2.28202399e+00  -3.27310150e-01
