64
Lattice="9.86 0 0 4.93 8.53901048131456 0 0 0 30 " PBC="1 1 1" Properties=species:S:1:pos:R:3:force:R:3 Energy="-515.23111422"
C     4.954698560499999e+00   8.164683742835619e+00  -2.847261000000003e-01  1.89425940e-01   3.06140407e+00   1.04146900e-01
C     1.257498649600000e+00   3.897812360618176e-01  -2.836290000000012e-01 -8.26927000e-03  -7.87341500e-01   3.95554620e-01
C     9.813048060399998e+00   3.111234579044592e-01   3.615786600000000e+00  6.93598990e-01   7.85202050e-01  -5.98111420e-01
C     1.202520522100000e+00   1.051902854499297e+00   3.581751300000000e+00 -1.56062180e-01  -2.60476583e+00  -3.88074300e-02
C     7.438895733999999e+00   8.272789579484831e+00  -2.520872999999995e-01 -6.11311720e-01  -3.19426925e+00  -2.61993770e-01
C     3.725475235700000e+00   3.891730023453272e-01  -1.754120999999991e-01  1.15955301e+00   1.89781587e+00   4.23867750e-01
C     2.417051066500000e+00   2.932951140935816e-01   3.490485600000000e+00  1.21335473e+00   1.32177641e+00   2.82011020e-01
C     3.678739082200000e+00   1.026458567241307e+00   3.553134900000000e+00 -1.13237077e+00  -2.59498520e-01  -4.58708290e-01
C     9.925024678700000e+00   8.219239480792341e+00  -1.459241999999996e-01 -2.10831677e+00  -8.65554400e-02  -3.58235570e-01
C     6.182864597500000e+00   4.086764438420664e-01  -1.805366999999976e-01  1.61641199e+00  -1.16716170e+00   8.11386200e-02
C     4.919641971400000e+00   3.326506448849584e-01   3.520160700000000e+00 -1.23507331e+00   5.41256480e-01  -2.85954010e-01
C     6.148868057000000e+00   1.039818873818525e+00   3.495059100000000e+00  1.76513680e-01  -8.94816500e-01   1.32502890e-01
C     1.236933287710000e+01   8.236044253416980e+00  -1.428879000000016e-01 -3.24177170e-01   2.38772360e-01   1.92692250e-01
C     8.681439770899999e+00   3.926562355003288e-01  -2.226903000000000e-01 -6.44948680e-01   3.88030790e-01   6.43624900e-02
C     7.361016770500000e+00   2.948801252188792e-01   3.524707800000000e+00  7.59628810e-01  -1.66793980e-01   2.07829760e-01
C     8.585935120699999e+00   1.025299738129066e+00   3.621374100000000e+00  1.13741320e-01  -3.95720390e-01  -4.43040270e-01
C     1.248302227600000e+00   1.780924716784013e+00  -1.510451999999987e-01 -5.70826220e-01   1.67246971e+00   9.64789600e-02
C     2.446143933200000e+00   2.542029263854080e+00  -2.114309999999975e-02  1.97703443e+00  -1.43776744e+00  -1.12851010e-01
C     1.110148965780000e+01   2.435853841304083e+00   3.646983900000000e+00 -1.72599376e+00   1.21431958e+00   3.19753540e-01
C     2.430899535100000e+00   3.163383938457943e+00   3.684015900000000e+00  6.43381350e-01   7.24277480e-01  -4.94341760e-01
C     3.697939262999999e+00   1.848420812782544e+00  -5.263530000000216e-02  1.37863055e+00  -1.55080740e+00  -9.12450820e-01
C     4.995929580200000e+00   2.512984844387617e+00  -1.503756000000003e-01 -2.93377451e+00   9.21236280e-01   2.91079820e-01
C     3.640785477200000e+00   2.440694947905615e+00   3.569687400000000e+00  1.83311959e+00   8.75576490e-01   2.70043800e-01
C     4.913507523100000e+00   3.170601451676058e+00   3.500208900000000e+00 -9.63940560e-01  -7.37206140e-01   7.49478300e-02
C     6.187984796899999e+00   1.800259000483143e+00  -2.602221000000000e-01  6.75390390e-01   1.24384237e+00   4.15469100e-01
C     7.406747697000000e+00   2.558484961730298e+00  -2.764983000000001e-01  1.38830883e+00  -1.88357772e+00   5.00570330e-01
C     6.160843470700000e+00   2.460550111244025e+00   3.480293400000000e+00 -1.50643616e+00  -3.38883200e-01   1.55627520e-01
C     7.351765231100000e+00   3.163159533262529e+00   3.529300800000000e+00  2.14550050e+00   4.40372200e-01   3.12374600e-02
C     8.682277131399999e+00   1.852569576414357e+00  -1.955483999999998e-01 -2.54335416e+00  -2.15222118e+00  -9.38817760e-01
C     9.873710182099998e+00   2.510044777689249e+00  -1.696437000000017e-01  1.37621970e+00   1.54826206e+00   6.85404700e-01
C     8.621484709799999e+00   2.444177497939778e+00   3.596282700000000e+00 -8.36894370e-01   6.80022610e-01   2.14602480e-01
C     9.860721604100000e+00   3.149710079415900e+00   3.658350300000000e+00 -6.92181070e-01   9.11454980e-01  -1.22167390e-01
C     2.544026075900000e+00   3.935303996201978e+00   6.986670000000000e-02 -2.33751787e+00   1.37932760e+00  -1.69306000e-03
C     3.748498039900000e+00   4.676493521470171e+00  -8.745300000001066e-03 -4.73815010e-01  -9.71684370e-01   3.54406330e-01
C     1.227609868910000e+01   4.610886766930444e+00   3.685801200000000e+00 -4.06108000e-01  -1.18963902e+00  -4.87169680e-01
C     3.648996885200000e+00   5.264024663222125e+00   3.589470600000000e+00  9.70916610e-01   1.24632065e+00  -2.64991250e-01
C     4.975691831600000e+00   3.949619049540964e+00  -1.195790999999993e-01 -4.20933590e-01  -7.05814550e-01   2.41246000e-01
C     6.187151676199999e+00   4.622621502082584e+00  -1.482165000000002e-01  4.83618430e-01   2.69320528e+00  -8.02771270e-01
C     4.878817578100000e+00   4.581245129071010e+00   3.479184000000000e+00  1.66109606e+00  -6.06508200e-02   3.96746890e-01
C     6.159619992600000e+00   5.318013240102763e+00   3.445866000000000e+00 -2.27099023e+00  -6.01599300e-01  -1.23091130e-01
C     7.423357853000000e+00   3.947106360317120e+00  -2.431248000000004e-01  4.44031000e-01   1.08776264e+00   1.55257600e-01
C     8.676949329699999e+00   4.694729261471049e+00  -2.152086000000004e-01 -1.13054238e+00  -1.95191800e+00   4.52820880e-01
C     7.361617096599999e+00   4.592398699169881e+00   3.511533900000000e+00  3.80315200e-01  -3.10265630e-01  -1.29281600e-01
C     8.604296462000001e+00   5.284609655786261e+00   3.549548100000000e+00 -4.52835870e-01   8.38172080e-01  -5.59092770e-01
C     9.864180689299999e+00   3.947024300426407e+00  -5.421690000000012e-02  2.07130926e+00   3.95663710e-01  -3.26928570e-01
C     1.114544233330000e+01   4.656720418022473e+00   9.988500000000000e-02 -9.74231080e-01  -1.90218750e-01  -6.95985390e-01
C     9.824059363300000e+00   4.613573481187871e+00   3.637613100000000e+00  7.22167800e-01  -1.91779849e+00  -1.07005060e-01
C     1.104236160420000e+01   5.330119336820679e+00   3.613274100000000e+00  3.70041930e-01   3.72057350e-01   3.97909210e-01
C     3.669665466500000e+00   6.089804785739074e+00  -3.621599999998892e-03  2.71323624e+00   6.84112000e-02  -8.13282310e-01
C     4.927139466100000e+00   6.791698126338725e+00  -2.376570000000022e-01 -1.63113350e-01  -1.67888102e+00   9.59662490e-01
C     1.356060910450000e+01   6.692152391525401e+00   3.552362100000000e+00 -1.04314832e+00  -4.54591550e-01  -6.23967300e-02
C     4.890819909600000e+00   7.437725930164130e+00   3.504655500000000e+00  6.32852980e-01  -1.48059200e-01   1.32412910e-01
C     6.157894048899999e+00   6.088419587459009e+00  -2.171789999999980e-01  1.73753333e+00  -8.43895160e-01  -2.48991020e-01
C     7.444312423600000e+00   6.791802899997315e+00  -2.863818000000009e-01 -2.35434415e+00   1.31498515e+00   2.38018170e-01
C     6.115899569400000e+00   6.734819179800712e+00   3.406263900000000e+00  1.17931373e+00  -2.46879600e-01   3.23776150e-01
C     7.369627360599999e+00   7.427615570975600e+00   3.397911300000000e+00 -5.62167350e-01  -3.54626630e-01   1.14604850e-01
C     8.651038580799998e+00   6.091629999229174e+00  -2.392824000000005e-01  7.11005720e-01   4.11459600e-01   2.38228120e-01
C     9.886802240799998e+00   6.789805454665833e+00  -1.481681999999971e-01  3.84437340e-01   4.59359860e-01   5.66683950e-01
C     8.611914002199999e+00   6.708053993011571e+00   3.412679400000000e+00 -1.28570499e+00   4.04310670e-01   7.53621820e-01
C     9.784119313400000e+00   7.468891269053614e+00   3.498942600000000e+00  2.79870567e+00  -8.66350740e-01  -9.25511600e-02
C     1.109871579330000e+01   6.084018752237826e+00   5.382420000000000e-02  1.04124715e+00   7.34366300e-02  -3.69095870e-01
C     1.235576438320000e+01   6.824009998165360e+00   2.897370000000000e-02 -1.77477733e+00  -3.37222160e-01  -3.21495220e-01
C     1.105885127100000e+01   6.770612833150566e+00   3.553343400000000e+00 -6.39247910e-01  -1.99767359e+00  -1.38112240e-01
C     1.233307933330000e+01   7.365115393838603e+00   3.527804700000000e+00 -1.32234076e+00   3.27955597e+00   3.44154610e-01
