64
Lattice="7.10842262195238 0 0 0 7.10842262195238 0 0 0 7.10842262195238 " PBC="1 1 1" Properties=species:S:1:pos:R:3:force:R:3 Energy="-512.07609305"
C     7.035858349126289e+00   4.458950015805740e-02   7.084356202209276e+00  2.03929297e+00  -9.64048380e-01   1.43498743e+00
C     1.774199518580265e+00   1.750963151298878e+00   7.064786572567963e+00 -1.01064518e+00   6.18389020e-01   5.21853610e-01
C     2.125261978082360e-02   1.800086972077781e+00   1.776043372323667e+00 -1.11738522e+00  -3.41281080e-01   6.43083960e-01
C     1.790792567333679e+00   2.057540035781620e-02   1.736738913299354e+00 -6.35292010e-01  -8.50456270e-01   8.74070020e-01
C     8.702921427999344e-01   9.310675212637317e-01   9.016720612032458e-01  5.97454480e-01  -1.55145377e+00  -1.41754842e+00
C     2.649086616845994e+00   2.626542823180473e+00   8.117515813236388e-01  1.01565168e+00   4.59707530e-01   2.10795798e+00
C     8.908017902485156e-01   2.668072431737526e+00   2.702700757109725e+00  9.45296620e-01  -2.00502530e-01  -8.99284870e-01
C     2.655682948700449e+00   8.498020435135581e-01   2.660626074706171e+00  1.36234779e+00   1.81400273e+00  -4.23298540e-01
C     3.586963509390102e+00   7.092191247789492e+00   7.080567626205494e+00  4.43456490e-01   5.97063750e-01  -5.65131870e-01
C     5.350326522023082e+00   1.768151459362491e+00   3.354507284913720e-02 -1.52836185e+00   3.60471030e-01  -1.45799968e+00
C     3.561946340073952e+00   1.731149773845926e+00   1.734839329522611e+00 -8.85307650e-01   1.02318150e+00   3.77933740e-01
C     5.322920922706613e+00   7.082042979320275e+00   1.824287952308702e+00  1.69148323e+00  -1.31680940e-01  -1.53538917e+00
C     4.479275341855785e+00   8.583867433432798e-01   8.733575789705832e-01 -9.70912910e-01  -1.80422050e-01   8.75110360e-01
C     6.206500413404756e+00   2.639995868409954e+00   8.751857941842209e-01 -8.43625800e-02   1.15689415e+00   1.93196417e+00
C     4.374124782175923e+00   2.678240888126983e+00   2.651225754465031e+00  1.66168483e+00  -8.79697530e-01   3.88679430e-01
C     6.222840046891768e+00   9.020272690815672e-01   2.655603618704010e+00 -2.97052130e-01  -6.56554810e-01   1.30034370e-01
C     7.064347485302726e+00   3.514671775439643e+00   2.279777760573300e-02  1.27535777e+00   1.21968043e+00  -3.67501080e-01
C     1.721981970108686e+00   5.333903222401834e+00   7.097911395471805e+00  1.00836408e+00   2.99278540e-01   3.55694270e-01
C     3.137622202354900e-02   5.283137427081938e+00   1.812898837586938e+00  4.06399810e-01   1.35080211e+00  -3.72508330e-01
C     1.814944925953879e+00   3.476235965659493e+00   1.813175284142630e+00 -7.58815420e-01   2.92408039e+00  -1.47691452e+00
C     8.886839778973390e-01   4.437024228402803e+00   9.294629370257192e-01  2.15277130e-01  -1.72106393e+00  -9.63777190e-01
C     2.664241773871834e+00   6.260277478714937e+00   8.281027304552937e-01 -6.85568800e-01  -8.08057610e-01   8.83896140e-01
C     9.703394237124459e-01   6.184755322104819e+00   2.669825155502939e+00 -2.49742305e+00   1.06077878e+00  -2.14994680e-01
C     2.693139786517373e+00   4.474941407668597e+00   2.675617809095977e+00 -1.57340880e+00  -1.25744151e+00   6.09711510e-01
C     3.551184188227273e+00   3.565596088583966e+00   7.078635201516247e+00  1.81047950e-01  -4.97403530e-01   1.40398104e+00
C     5.365707869056691e+00   5.340735198466143e+00   7.104701502926882e+00  2.46540050e-01  -1.14829535e+00   7.57873600e-01
C     3.492269865889618e+00   5.395628357211890e+00   1.753788464953423e+00  2.26094661e+00  -1.91528040e+00   7.37140270e-01
C     5.307449654126861e+00   3.557732964734400e+00   1.797286893323537e+00 -3.01299480e-01   4.04768900e-02  -9.79799260e-01
C     4.409839487777137e+00   4.475345308241865e+00   9.018813331651786e-01  6.02451720e-01  -5.11122310e-01  -9.49333510e-01
C     6.286860988955404e+00   6.170772343969017e+00   9.480670296225570e-01 -2.45370260e+00   2.08424838e+00  -1.93360452e+00
C     4.461599324916214e+00   6.188678958138381e+00   2.681843863216157e+00 -1.04034940e+00   7.85059090e-01   1.11128040e-01
C     6.221089668905818e+00   4.441799098045109e+00   2.646810784259975e+00 -4.99060500e-02  -1.03684249e+00   1.83868380e+00
C     6.921328936641599e-03   7.093929399288535e+00   3.512556095615253e+00  1.24612699e+00   1.29989590e-01   3.15185500e-01
C     1.787206723543020e+00   1.800071688969149e+00   3.576805715634575e+00 -6.48396000e-03  -1.57056831e+00   1.00665430e-01
C     7.077708192122373e+00   1.813331314019139e+00   5.289930377906062e+00 -4.50549940e-01  -8.81288440e-01   2.07266670e-01
C     1.744691816526610e+00   4.296074728313680e-02   5.364832822232168e+00  5.73700240e-01  -1.22836070e+00  -2.10149738e+00
C     9.025437670691363e-01   8.902412911249287e-01   4.416743685415264e+00 -1.31203695e+00   5.87680570e-01   9.84826940e-01
C     2.654491505985111e+00   2.657958994539147e+00   4.539811592982645e+00  1.84167290e-01   7.03641080e-01  -3.58791083e+00
C     7.875916166912352e-01   2.662385906894205e+00   6.218523172918867e+00  3.62120221e+00  -2.20484680e-01  -9.73569200e-02
C     2.681788204267042e+00   8.604265762983150e-01   6.189883480351340e+00  1.15835660e-01   1.38953510e+00   8.57422760e-01
C     3.593419592066265e+00   7.100659938162055e+00   3.535499951305826e+00 -1.59088846e+00   5.35374680e-01   1.35739534e+00
C     5.299081761187050e+00   1.777937553699219e+00   3.539193700951857e+00  9.60836820e-01   7.29529130e-01  -8.16634200e-01
C     3.590825586483775e+00   1.807157648973669e+00   5.314273100084026e+00 -4.20259350e-01  -1.69786739e+00   1.69880125e+00
C     5.404040180203493e+00   1.266465007669680e-02   5.286449525517501e+00 -1.79651423e+00   1.84733500e-02   6.81837140e-01
C     4.482483728405321e+00   9.273328981876362e-01   4.453991322354480e+00 -1.05570625e+00  -1.74161758e+00  -1.44775459e+00
C     6.184395635920247e+00   2.666350203105152e+00   4.380894346289627e+00  6.33869290e-01   1.04009256e+00   1.27543119e+00
C     4.479981350390403e+00   2.664524760176336e+00   6.225222221480181e+00 -1.43649422e+00   4.07825850e-01   4.85786510e-01
C     6.160803278834051e+00   9.524696311722539e-01   6.204831924447389e+00  2.49727231e+00  -2.11339158e+00  -3.63158530e-01
C     3.301698813269740e-02   3.566628871306425e+00   3.548026413646790e+00 -1.53059555e+00  -2.89766830e-01   2.28146140e-01
C     1.782405126231662e+00   5.348955307299684e+00   3.642574192315112e+00  6.46280260e-01  -8.41394080e-01  -2.63042885e+00
C     5.457775803409799e-03   5.306761700985698e+00   5.309115015378276e+00 -1.70447400e-01   4.38788780e-01   7.75100640e-01
C     1.782654631865624e+00   3.549170656435932e+00   5.376302262129539e+00 -1.29112919e+00   4.89954700e-02  -1.57745140e-01
C     8.971411526252577e-01   4.431107746087724e+00   4.483634226606369e+00  5.82981500e-01   1.06540500e-01  -9.52243850e-01
C     2.633211589861427e+00   6.264864330578945e+00   4.457165943896572e+00  2.00589300e+00  -4.07791570e-01   1.21292328e+00
C     8.195416305886706e-01   6.254498615461783e+00   6.186255199277640e+00  1.18728536e+00  -5.88419950e-01   1.33623216e+00
C     2.658972158015176e+00   4.428024965365883e+00   6.238632047500133e+00 -2.13727450e-01   1.85361772e+00  -9.42470100e-02
C     3.530253579991136e+00   3.556137479277341e+00   3.575438268375165e+00 -9.73567100e-02   6.54796750e-01   2.00707310e-01
C     5.322386369325590e+00   5.278838039828683e+00   3.604662699787414e+00  1.50511970e-01   1.14295770e+00  -2.17096245e+00
C     3.578979044766414e+00   5.401439634872192e+00   5.380805518943536e+00 -1.57937483e+00  -2.19030211e+00  -1.67598278e+00
C     5.299321812618928e+00   3.558846001548240e+00   5.332922970922537e+00  1.32439426e+00  -2.98983410e-01  -2.78807830e-01
C     4.385716842363488e+00   4.452956336021009e+00   4.483318257220910e+00  1.63076349e+00  -3.23641320e-01  -4.35764900e-01
C     6.268200384398737e+00   6.183148107750437e+00   4.389098461172274e+00 -1.18943477e+00   8.22147090e-01   1.24281962e+00
C     4.534463642308714e+00   6.215334903205345e+00   6.185736995268641e+00 -1.41700933e+00   1.10359041e+00   1.14167795e+00
C     6.253483319458968e+00   4.397286653188252e+00   6.213142381332432e+00 -1.86456662e+00   1.53043468e+00   2.60724010e-01
