64
Lattice="7.10842262195238 0 0 0 7.10842262195238 0 0 0 7.10842262195238 " PBC="1 1 1" Properties=species:S:1:pos:R:3:force:R:3 Energy="-502.37233548"
C     7.078724412220128e+00   7.063123841432919e+00   2.316684690816340e-02  1.60175101e+00   1.64199130e-01  -1.06972526e+00
C     1.741896144994390e+00   1.785026285988561e+00   3.874616351173880e-02  1.60913392e+00  -1.83003012e+00  -2.12691810e-01
C     7.056068092224533e+00   1.746249840596461e+00   1.694139487137991e+00  2.78015425e+00  -2.94698450e-01   3.92735249e+00
C     1.740955487429085e+00   6.709654327863239e-02   1.838181577572171e+00  1.51198586e+00  -2.12870663e+00  -2.63139160e+00
C     8.946189421112293e-01   8.911225222771298e-01   8.574622218973226e-01 -2.55032415e+00  -6.56317120e-01   2.09355086e+00
C     2.676360639259767e+00   2.620653992629387e+00   8.960516446902903e-01 -1.15103663e+00   2.31197506e+00  -1.30649241e+00
C     1.072008277993032e+00   2.704675974503144e+00   2.617043127191106e+00 -6.34145969e+00  -1.58990396e+00  -2.24407000e-02
C     2.747432425720182e+00   8.869051662209102e-01   2.591218014559967e+00 -4.82109600e+00  -1.10136683e+00   5.27703960e+00
C     3.579498599375709e+00   5.154103989083399e-02   1.629463717182600e-03  1.01354440e-01  -2.53332948e+00   4.25738436e+00
C     5.348715398036259e+00   1.925420760439514e+00   4.011467703454120e-02  1.14244920e-01  -5.18298590e+00   3.30192120e-01
C     3.517128233044437e+00   1.807256953637671e+00   1.801552160148216e+00  2.64649586e+00  -1.17860226e+00  -1.30065660e+00
C     5.367241511236956e+00   7.093642361183139e+00   1.766678452027174e+00 -3.99441838e+00   1.68395367e+00   4.60742010e-01
C     4.454517843217944e+00   9.081059656008339e-01   9.577576578434982e-01  4.22125180e-01   1.48025787e+00  -3.25746085e+00
C     6.234017970377490e+00   2.680929862235677e+00   1.008377943752363e+00 -7.07640830e-01   2.46747823e+00  -4.57691703e+00
C     4.356389409907475e+00   2.697617808431068e+00   2.631238718247471e+00  2.39701826e+00   1.83259221e+00   2.70200445e+00
C     6.112328883545710e+00   9.406349605206684e-01   2.601757459525962e+00  4.40472642e+00  -1.84597709e+00   1.83466728e+00
C     4.729432604919360e-02   3.488124233817634e+00   4.319383246084660e-02 -1.37666231e+00   3.95141240e+00  -1.30884536e+00
C     1.866760137705167e+00   5.404056245238614e+00   7.095346463337831e+00 -1.83764363e+00  -2.55375981e+00  -8.37449050e-01
C     8.232640982620859e-02   5.304351590296386e+00   1.735564388629851e+00 -3.06812575e+00   1.24459232e+00   1.10847042e+00
C     1.740622813250469e+00   3.615967224280000e+00   1.662611926796863e+00  3.40012184e+00  -1.67812449e+00   2.51417109e+00
C     9.289032909128466e-01   4.511861346325031e+00   7.907255069717145e-01 -3.14424600e-02  -1.96341185e+00   2.00225946e+00
C     2.706894371034394e+00   6.240296200319701e+00   8.975970157678783e-01 -1.28033234e+00   1.99096140e-01   4.91578800e-01
C     8.860457579261521e-01   6.203554896323706e+00   2.720753804785060e+00 -4.13314490e-01   3.38910592e+00  -3.18666967e+00
C     2.620737587679398e+00   4.387269748369053e+00   2.631075295611438e+00  7.39904730e-01   4.31585168e+00   1.25126200e-01
C     3.570464789404856e+00   3.474028373930626e+00   7.102703680749531e+00 -5.91695300e-02   3.01631061e+00   4.09364000e-01
C     5.302269320058310e+00   5.293086019959759e+00   1.098890341983538e-01  1.45145329e+00   2.90065368e+00  -4.45968579e+00
C     3.554911773964974e+00   5.317665523695195e+00   1.743924249052102e+00 -1.12642044e+00   7.94413950e-01   1.63141127e+00
C     5.347803458498340e+00   3.647499476180058e+00   1.845408924102603e+00 -2.13248737e+00  -4.15942662e+00  -2.25776943e+00
C     4.483465046148012e+00   4.499705730392153e+00   9.519177332400371e-01 -1.71207122e+00  -3.99153088e+00  -9.07481000e-01
C     6.174317101076933e+00   6.225753504986800e+00   8.745385012204439e-01  2.64083045e+00  -8.74202630e-01   2.16031150e+00
C     4.357149087032874e+00   6.253000302141939e+00   2.623484353263993e+00  1.90563668e+00  -1.63557643e+00   1.52503984e+00
C     6.204765176358988e+00   4.402768028954760e+00   2.655825046068623e+00  2.89145089e+00   2.60455598e+00   4.51606290e-01
C     7.079850599615815e+00   7.042560169972425e+00   3.593850646813942e+00 -3.99210970e-01   3.90780173e+00  -2.56623697e+00
C     1.854577012176749e+00   1.780015843220628e+00   3.495437876598673e+00 -1.41846360e-01   3.64720100e-01   1.35877786e+00
C     7.082812039563533e+00   1.854464912352031e+00   5.307138376300331e+00  1.15360328e+00  -3.36967776e+00   1.29357910e+00
C     1.719002119346382e+00   7.090117507658559e+00   5.233068968021064e+00  2.77390420e-01   6.78976890e-01   6.47598198e+00
C     8.159596253462263e-01   9.711333634348737e-01   4.431365142070794e+00  2.71248944e+00  -2.87278035e+00  -1.49660157e+00
C     2.797792116855798e+00   2.616393346279411e+00   4.467679585288456e+00 -4.81637862e+00   1.54968330e-01   9.58592980e-01
C     9.302699562457678e-01   2.648289265080709e+00   6.239554365335078e+00 -2.56274688e+00  -2.00638300e-02  -5.13129900e-02
C     2.628962459156095e+00   8.289647688664212e-01   6.427861882940069e+00 -9.03957200e-02   2.74330298e+00  -8.68699669e+00
C     3.447282222980614e+00   7.021564164248185e+00   3.631248982312703e+00  4.30827842e+00   3.00596698e+00  -3.36391519e+00
C     5.337539180571964e+00   1.857296552502708e+00   3.493297743800470e+00 -2.44847008e+00  -2.50322615e+00   8.98032760e-01
C     3.617713976970412e+00   1.713808208190627e+00   5.357227307618352e+00 -1.96325388e+00   9.73027590e-01   8.07046770e-01
C     5.236308276208997e+00   2.922393382266540e-02   5.325047976007196e+00  4.39850911e+00  -3.68071472e+00   1.60893775e+00
C     4.387416466211929e+00   8.073452123099532e-01   4.465364940714933e+00  6.47555780e-01   2.36525563e+00  -7.75735180e-01
C     6.217872396828006e+00   2.698924976266659e+00   4.410350583363514e+00  6.56674600e-01  -9.50748010e-01   4.45802750e-01
C     4.453188070598420e+00   2.688861084773942e+00   6.195461815002384e+00  5.96089900e-01  -2.52565032e+00   1.42931660e+00
C     6.284172299183616e+00   8.111612979092739e-01   6.241572659769575e+00 -3.50009104e+00   4.39082653e+00  -1.92466644e+00
C     7.638803356946060e-02   3.499130915402442e+00   3.508308386594445e+00 -9.26656490e-01   2.74923190e+00  -2.09317700e-02
C     1.773439343865282e+00   5.437392188294272e+00   3.519799933686163e+00  1.80809030e+00  -5.40568586e+00   1.36068244e+00
C     1.672043168676400e-03   5.263096295768241e+00   5.291794490653931e+00 -7.34791960e-01   1.64600936e+00   1.74750940e-01
C     1.803133784181166e+00   3.473244670336771e+00   5.430044069663525e+00  1.45962165e+00   2.38325206e+00  -4.80122635e+00
C     9.272278357013126e-01   4.499670330447505e+00   4.291305047819886e+00 -1.47727893e+00  -3.36507100e+00   5.50705134e+00
C     2.685587656157432e+00   6.152123326141221e+00   4.544135646462391e+00 -2.78379194e+00   2.37760815e+00  -3.90369457e+00
C     8.656265296132974e-01   6.166612708304471e+00   6.289861454143305e+00  3.19021230e-01   1.61396572e+00  -4.76443025e+00
C     2.688596509284026e+00   4.394552256259017e+00   6.189826044296570e+00  3.89373960e-01   9.19811920e-01   2.10562796e+00
C     3.465908280603348e+00   3.624405064098393e+00   3.612029655738104e+00  3.10111976e+00  -2.50458482e+00  -2.09281982e+00
C     5.286877452559224e+00   5.392471151305217e+00   3.449744509491956e+00  1.04687812e+00  -3.59588760e+00   2.04964762e+00
C     3.581402519290250e+00   5.312620605077554e+00   5.334408702334343e+00  1.82572900e-01  -1.44968587e+00   2.18174873e+00
C     5.300571331147071e+00   3.481732766703087e+00   5.324643577844344e+00  1.60226453e+00   4.99630011e+00  -1.02588968e+00
C     4.471867867896161e+00   4.431523730979446e+00   4.439582194282609e+00 -1.48493753e+00   1.51402802e+00  -8.70576640e-01
C     6.200127072767891e+00   6.146534328856246e+00   4.301295153885808e+00 -7.60779480e-01   2.28568725e+00   5.60854077e+00
C     4.406677803564213e+00   6.188291691274043e+00   6.330689390303538e+00  8.37258730e-01   1.17005918e+00  -3.60306339e+00
C     6.191067885728283e+00   4.515427641953486e+00   6.230006474240346e+00  5.60560390e-01  -5.19344943e+00  -2.86808060e-01
