26
Lattice="8.88768389401873 1.33226762955019e-15 0 4.44384194700937 7.69696003302603 0 0 0 30 " PBC="1 1 1" Properties=species:S:1:pos:R:3:force:R:3 Energy="-208.80488514"
C     4.149773818773427e-01   5.841131372942643e-01   3.863261100000000e+00  1.04838022e+00  -6.73372640e-01  -8.49773100e-01
C     7.277524957074858e+00   7.628301915018795e+00   3.804266100000000e+00  2.47741500e-02   1.25822793e+00  -1.50198920e-01
C     4.193549968882804e+00   3.369437386348863e-01   3.810051600000000e+00 -2.89217160e-01  -2.96743850e-01  -5.15705600e-02
C     9.623568878273588e+00   7.018796968403163e+00   3.859319100000000e+00  1.25116083e+00   2.92768444e+00  -8.09518700e-02
C     1.099691663457066e+01   7.429313100089608e+00   3.886911899999999e+00  7.94687640e-01   2.85254750e-01  -3.40934970e-01
C     1.206505097104900e+01   6.478382398044019e+00   3.849399600000000e+00  4.71544000e-03   1.48528365e+00   2.54364330e-01
C     4.551849839011877e+00   6.880644078885491e+00   3.858645600000000e+00 -2.32019870e-01   3.82291700e-01  -2.84416820e-01
C     5.590830528130962e+00   5.879293208649783e+00   3.791636700000000e+00 -1.34054821e+00   1.22478525e+00   6.56052430e-01
C     6.928356030110734e+00   6.267548808294266e+00   3.847628700000000e+00  5.49072220e-01  -6.99509470e-01  -8.11633210e-01
C     7.929701332965925e+00   5.252226185303300e+00   3.777813000000000e+00  5.76313070e-01   1.42533309e+00   7.30594300e-01
C     9.286314335982222e+00   5.710409051668334e+00   3.823281900000000e+00 -3.90991000e-03  -3.46567501e+00   2.31978260e-01
C     1.033636281342315e+01   4.727591152701661e+00   3.870006900000000e+00  4.87631200e-02   3.63041660e-01  -1.02281885e+00
C     1.172408902028744e+01   5.151040871174517e+00   3.817203900000000e+00 -7.76260040e-01  -2.92750413e+00   3.65976630e-01
C     3.866307272504547e+00   4.149010128459358e+00   3.797594700000000e+00 -4.74337280e-01  -1.03857845e+00   2.88533300e-02
C     5.233034726367171e+00   4.528667838902329e+00   3.799477500000000e+00 -1.33015900e-01  -1.49416850e+00  -1.97672020e-01
C     6.222572074584416e+00   3.492118616510230e+00   3.799600800000000e+00  7.14046340e-01   3.44207980e-01   2.42146550e-01
C     7.613061728982387e+00   3.887488901158442e+00   3.815176800000000e+00 -1.75486767e+00  -3.00293700e-02  -4.72001530e-01
C     8.610383666239573e+00   2.906274586844420e+00   3.784807800000000e+00  7.76792170e-01   1.74166865e+00   5.59994500e-02
C     9.973513385713952e+00   3.363563220393167e+00   3.760565700000000e+00  8.68446350e-01  -1.64940877e+00   7.37630840e-01
C     2.118551033446965e+00   2.352143033107013e+00   3.783518700000000e+00  1.74688118e+00  -6.23063600e-02  -5.34196500e-01
C     3.534478039025264e+00   2.740732603847196e+00   3.793242300000000e+00 -9.75323640e-01  -1.28061130e-01  -2.17264290e-01
C     4.563469638001565e+00   1.698254336174388e+00   3.771953400000000e+00 -2.45814941e+00   1.32598054e+00   4.42693780e-01
C     5.885634467045195e+00   2.098492409254374e+00   3.822330300000000e+00  9.85335140e-01   7.86161830e-01  -3.03763530e-01
C     6.899689069000861e+00   1.105668154370300e+00   3.838949700000000e+00  1.33562970e-01   8.67943570e-01   2.98389880e-01
C     8.250091625153585e+00   1.576539613283988e+00   3.829595700000000e+00  1.02622904e+00  -2.91669692e+00   1.04047180e-01
C     1.832413871665986e+00   9.395559036044532e-01   3.734849700000000e+00 -2.11151079e+00   9.64189550e-01   1.16846921e+00
