26
Lattice="8.88768389401873 1.33226762955019e-15 0 4.44384194700937 7.69696003302603 0 0 0 30 " PBC="1 1 1" Properties=species:S:1:pos:R:3:force:R:3 Energy="-208.26165965"
C     1.041959175692530e+00   1.322834494954336e+00   3.798081000000000e+00  7.11333580e-01  -1.98075783e+00  -9.84427610e-01
C     3.407684872880598e+00   7.363160576506969e-01   3.636008100000000e+00  1.87318370e-01  -9.59200980e-01  -5.07694640e-01
C     4.763765814650541e+00   1.117099294558854e+00   3.478129800000000e+00  8.09836810e-01  -2.01212286e+00   4.48462780e-01
C     5.798139528377204e+00   1.009358556542119e-01   3.385476600000000e+00  6.40560940e-01   1.17784273e+00  -5.02471280e-01
C     7.194698271061008e+00   5.367722149337463e-01   3.457613400000000e+00 -2.43779970e-01  -1.91418290e+00   4.90149160e-01
C     1.267550838301303e+01   7.190794545716748e+00   3.556518600000000e+00 -9.38639700e-02   2.84468560e+00   1.58215520e-01
C     5.168860406944618e+00   7.602437435381985e+00   3.801183900000000e+00 -1.73286076e+00   6.17583970e-01  -5.38561740e-01
C     6.160377309024962e+00   6.612499771417961e+00   3.842218200000000e+00  7.41510360e-01   2.40776610e-01  -4.95952370e-01
C     7.527107029279345e+00   7.041985368976742e+00   3.699272700000000e+00 -6.65655300e-02  -1.01747194e+00  -4.37432150e-01
C     8.523344402451247e+00   6.029698119143208e+00   3.464617200000000e+00  3.56497590e-01  -5.53136620e-01   3.62652040e-01
C     9.892560630015019e+00   6.439916224537292e+00   3.241974600000000e+00  7.69105770e-01  -2.03663217e+00   1.70752101e+00
C     1.097077959914693e+01   5.389989300765053e+00   3.380626800000000e+00 -1.48769058e+00   2.83261255e+00  -1.00966314e+00
C     3.432680065115331e+00   5.852530955595075e+00   3.468870000000000e+00 -4.81122300e-01  -1.32741906e+00   7.64694800e-01
C     4.428213933690152e+00   4.872929847133738e+00   3.698086200000000e+00  4.04962920e-01  -9.80680280e-01  -3.51949300e-01
C     5.792183983614375e+00   5.234841138653141e+00   3.795988500000000e+00  5.58404100e-01   1.81357980e-01   4.17611530e-01
C     6.800681161264304e+00   4.230101296916223e+00   3.830146500000000e+00  1.35968173e+00   7.07549660e-01  -1.25302332e+00
C     8.195383755559316e+00   4.593914815137438e+00   3.603531000000000e+00 -6.40632920e-01   2.15929974e+00   5.19399150e-01
C     9.225362909584398e+00   3.633552258271088e+00   3.612016800000000e+00  1.22133055e+00   8.73551300e-01  -9.23020380e-01
C     1.062989737089582e+01   4.041014236217630e+00   3.451696200000000e+00 -1.93033122e+00   3.63834400e-02   1.29410458e+00
C     2.739656068473974e+00   3.078529165653407e+00   3.653355000000000e+00  5.47096950e-01   2.78124280e-01  -1.01352895e+00
C     4.083961317933165e+00   3.491460064610064e+00   3.684028800000000e+00  1.70152306e+00  -1.42900606e+00  -1.51409660e-01
C     5.142396569347632e+00   2.427955703344904e+00   3.623775000000000e+00 -1.01984728e+00   3.68337251e+00   3.72934870e-01
C     6.496956606250589e+00   2.868299325448406e+00   3.701275500000000e+00 -3.84943950e-01  -9.49574670e-01  -2.75665200e-02
C     7.533226951747886e+00   1.896021489607614e+00   3.626941500000000e+00  1.87968170e-01  -3.73084220e-01  -1.85129400e-02
C     8.919585032956096e+00   2.263317805272804e+00   3.686866500000000e+00 -1.46303663e+00   6.42787510e-01   3.23674780e-01
C     2.404965000813851e+00   1.719113020886088e+00   3.644289600000000e+00 -6.52455800e-01  -7.42658310e-01   1.35579381e+00
