26
Lattice="8.88768389401873 1.33226762955019e-15 0 4.44384194700937 7.69696003302603 0 0 0 30 " PBC="1 1 1" Properties=species:S:1:pos:R:3:force:R:3 Energy="-207.69654697"
C     1.241989166147973e+01   6.477349004190392e+00  -1.247496000000012e-01 -1.95908967e+00  -8.56414560e-01   4.45207650e-01
C     8.627431001622702e+00   6.337544962807086e+00   1.002078000000000e-01 -9.85681200e-02   7.82568790e-01   7.42104050e-01
C     9.992759844613561e+00   5.953029162101981e+00   2.987541000000000e-01  7.92204520e-01  -1.83169581e+00  -1.86993063e+00
C     1.036987324769445e+01   4.517484079009138e+00   1.473909000000000e-01 -1.48079135e+00   8.62973470e-01   1.49168380e-01
C     6.236349452494494e+00   5.666873506346648e+00  -2.789028000000009e-01  6.24097380e-01   3.31117620e+00  -1.65036350e-01
C     7.616184062171527e+00   5.367987771428098e+00  -7.077989999999801e-02 -1.03699450e-01  -2.16809156e+00  -6.90178600e-02
C     7.965073914051436e+00   3.942333743791408e+00  -3.521939999999901e-02 -1.00777731e+00   1.27307835e+00   2.87589640e-01
C     9.298071007237574e+00   3.504833378722988e+00   4.429920000000000e-02  1.92696059e+00   1.46848165e+00  -7.69571640e-01
C     9.643091161596521e+00   2.148058522759564e+00  -2.458556999999999e-01  4.51628080e-01  -3.35113050e-01   1.36972861e+00
C     3.895143763401860e+00   5.027128666195551e+00  -9.400079999999988e-02 -7.57391630e-01   5.09925609e+00  -7.23355710e-01
C     5.239423993547814e+00   4.696402454903299e+00  -2.726498999999976e-01 -6.58639830e-01   8.16425310e-01   2.80876990e-01
C     5.554945747347321e+00   3.378341152741966e+00  -2.146581000000012e-01  1.05418810e+00  -2.82093277e+00   9.39300500e-01
C     6.907013366074422e+00   2.981002678444483e+00  -6.269100000000094e-02  8.38625600e-01   1.74557234e+00  -6.50798110e-01
C     7.256362089140800e+00   1.658841975371173e+00  -1.931729999999732e-02  6.08361330e-01  -4.12696770e+00  -9.03721340e-01
C     8.629228887827448e+00   1.150778035896522e+00  -2.274690000000028e-01 -1.67467660e+00   2.44560760e+00   1.21508410e-01
C     2.857590301773387e+00   4.139857596318085e+00  -2.091000000028487e-04 -1.69340285e+00  -1.83580104e+00   6.48189660e-01
C     3.188401138180771e+00   2.756657152331664e+00  -1.213080000000133e-02 -1.41049243e+00  -1.30806009e+00  -1.23301933e+00
C     4.558047306941599e+00   2.380056982291012e+00  -9.480179999999905e-02 -1.53538688e+00   3.59608850e-01   5.34420680e-01
C     4.833046821413969e+00   1.016447687638550e+00   7.651620000000001e-02  1.58007355e+00  -6.10101190e-01  -4.28102750e-01
C     6.234377983194072e+00   6.485460830366009e-01   2.630700000000000e-02 -1.26421000e-01  -1.36902628e+00   7.24818010e-01
C     1.103006902830137e+01   6.918891812666567e+00   1.034562000000000e-01  7.97092950e-01   4.17891800e-01  -1.24064010e-01
C     2.120169969103629e+00   1.732815226101095e+00  -1.727448000000003e-01  8.37996350e-01   1.67859239e+00   6.04195700e-02
C     2.429913706249124e+00   3.503075085173735e-01  -2.232836999999996e-01  1.36373946e+00   1.05702041e+00   6.82533710e-01
C     3.811126751245146e+00   2.997765810724220e-02   8.986680000000000e-02 -2.41450190e-01  -1.12638239e+00  -1.25166626e+00
C     4.476246045383254e+00   7.490818276175733e+00  -3.519471000000003e-01  1.36045885e+00  -1.03920536e+00   4.55435340e-01
C     5.856441761593556e+00   7.094669290081286e+00  -3.925751999999996e-01  5.12360560e-01  -1.89046145e+00   7.46982800e-01
