32
Lattice="9.86 0 0 4.93 8.53901048131456 0 0 0 30 " PBC="1 1 1" Properties=species:S:1:pos:R:3:force:R:3 Energy="-252.21779201"
C     1.136805988500000e+00   7.959649719645623e-01   3.974362500000000e+00 -1.09594697e+00  -4.66381274e+00  -1.62886300e+00
C     2.362273836500000e+00   1.396323842210097e+00   3.654350700000000e+00 -1.22830676e+00  -1.28779375e+00  -6.62800300e-01
C     3.526091837300000e+00   7.093131429760376e-01   3.418990500000000e+00  2.54712050e+00  -3.45367394e+00   1.10483605e+00
C     4.727395734000000e+00   1.429267088471623e+00   3.448480500000000e+00  2.11732380e+00  -3.31933640e-01  -4.94530070e-01
C     5.948639015700000e+00   6.802774333002648e-01   3.590916300000000e+00  8.16921700e-01   1.00720501e+00   4.15490000e-01
C     7.158632875499999e+00   1.435884906983727e+00   3.809221500000000e+00  2.95910525e+00  -3.87643883e+00  -1.62615410e-01
C     8.506430341800000e+00   6.914805296599199e-01   3.880628700000000e+00 -2.86433284e+00   9.84755500e-01  -1.32126370e+00
C     9.755344086599999e+00   1.430383991042406e+00   3.815600700000000e+00 -1.85226814e+00  -3.46812282e+00   1.35128561e+00
C     2.386396178600000e+00   2.695617712874486e+00   3.245777700000000e+00 -1.51217341e+00   4.72315746e+00   1.13231653e+00
C     3.598843995200000e+00   3.561763360342387e+00   3.235152600000000e+00 -2.41432236e+00  -4.02639940e-01  -2.98872560e-01
C     4.840036275399999e+00   2.874462847092637e+00   3.382731300000000e+00 -3.40181139e+00  -2.12897977e+00   7.87662700e-02
C     6.003634841900000e+00   3.499924614957171e+00   3.597499200000000e+00  2.82703436e+00   2.86742876e+00  -3.62691650e-01
C     7.237397809300000e+00   2.777111552582567e+00   3.775931400000000e+00 -9.67199840e-01   4.90830513e+00   3.76258160e-01
C     8.469435030200000e+00   3.612093483572974e+00   3.801091500000001e+00  2.85601900e-01  -4.68949009e+00  -2.65326207e+00
C     9.637695799099999e+00   2.743479122785201e+00   3.579896700000000e+00  2.41132096e+00   4.91463684e+00   3.78136860e-01
C     1.093600020660000e+01   3.340835933116282e+00   3.323061900000000e+00  5.78045470e-01   3.85089192e+00  -4.98786590e-01
C     3.463820267800000e+00   5.004945961852637e+00   3.281872500000000e+00  3.35282839e+00  -2.10654127e+00   1.69084660e-01
C     4.767974810499999e+00   5.635832050734485e+00   3.474885300000000e+00 -2.56055967e+00   2.96064544e+00  -1.25455100e-01
C     5.994381724900000e+00   5.000500979947273e+00   3.524210700000000e+00 -6.22232460e-01  -4.02444908e+00   1.31167752e+00
C     7.162081755599999e+00   5.645453039232406e+00   3.765953099999999e+00  5.34082382e+00   2.92828709e+00  -2.54060809e+00
C     8.509180985999999e+00   4.938976982488349e+00   3.428933400000000e+00 -2.24912873e+00   1.50289018e+00   3.22597568e+00
C     9.792683413599999e+00   5.604466301269035e+00   3.397149600000000e+00 -2.95288249e+00   4.24873310e-01  -8.62341260e-01
C     1.094330331140000e+01   4.850430347074313e+00   3.248623500000000e+00  6.61757560e-01  -6.06986520e-01   8.59289820e-01
C     1.210829253230000e+01   5.693580012369049e+00   3.325837800000000e+00  8.75146500e-01  -2.18693498e+00  -1.84976580e-01
C     4.752045240999999e+00   7.077267314530213e+00   3.660040200000000e+00 -6.03390500e-02   5.66791580e-01  -2.59053260e-01
C     6.006416249300000e+00   7.736087409955704e+00   3.895991700000000e+00 -3.24682250e-01   4.61227615e+00  -1.98744240e-01
C     7.259080343699999e+00   7.137275808409147e+00   3.773355000000000e+00  7.35941950e-01  -3.43803019e+00  -6.91930210e-01
C     8.555448937400000e+00   7.773520126367195e+00   3.472094400000000e+00 -2.48102436e+00   1.04782326e+00   1.11421906e+00
C     9.783169400999999e+00   7.043177193771118e+00   3.400044600000000e+00 -1.64637522e+00   1.82784540e-01   6.39191450e-01
C     1.095887230070000e+01   7.786935851122428e+00   3.562280700000000e+00 -1.88053300e+00   1.09306703e+00  -7.10731770e-01
C     1.212543399440000e+01   7.072747616283149e+00   3.540272100000000e+00  1.89079995e+00   1.92385093e+00  -6.85599710e-01
C     1.333616725560000e+01   7.890509010228645e+00   3.549137400000000e+00  2.71434683e+00  -3.83384260e+00   2.18659791e+00
