32
Lattice="9.86 0 0 4.93 8.53901048131456 0 0 0 30 " PBC="1 1 1" Properties=species:S:1:pos:R:3:force:R:3 Energy="-255.64976396"
C     4.968888431600000e+00   8.534937030440620e+00  -6.259260000000211e-02 -4.00152160e-01  -1.58204510e+00   2.68080830e-01
C     1.298745248100000e+00   6.694779759659992e-01  -2.817299999999889e-02 -1.90039129e+00   6.56675040e-01  -1.24952466e+00
C     7.449093685499999e+00   8.517976079314302e+00  -3.566969999999969e-02 -8.52117760e-01   7.38096280e-01   3.07419800e-02
C     3.727718582900000e+00   7.333986174963448e-01  -5.176110000000023e-02 -1.26483012e+00  -1.90693938e+00   3.78009460e-01
C     9.826066119800000e+00   8.488364925722282e+00  -2.201129999999907e-02  1.88439155e+00   6.45891130e-01   4.07561400e-02
C     6.124863541900000e+00   6.040455880202743e-01  -5.027699999999413e-03  1.46920273e+00   4.80751500e+00  -8.38606990e-01
C     1.234342646660000e+01   8.497234737468276e+00  -6.347219999999965e-02 -1.03848014e+00   1.69802550e+00   8.78411070e-01
C     8.668122854899998e+00   7.010726563024184e-01  -1.571429999999907e-02 -1.09352297e+00   5.10705600e-01  -3.15812200e-01
C     1.234043533700000e+00   2.082722294392740e+00  -1.774847999999984e-01 -1.96401370e-01   1.17103029e+00   3.13745607e+00
C     2.426680194599999e+00   2.799244411576413e+00   7.633470000000001e-02  1.13146260e-01   2.67209036e+00  -1.76236778e+00
C     3.642612880300000e+00   2.127882217557897e+00   2.028900000000000e-02  1.41664437e+00   8.18517840e-01  -8.96238600e-02
C     4.853424429900000e+00   2.893894646291449e+00  -4.911299999999841e-03  1.48550206e+00  -1.26910075e+00   2.31667690e-01
C     6.073971004000000e+00   2.170582991094918e+00  -7.228829999999675e-02  2.44793563e+00  -2.05165304e+00   3.30284520e-01
C     7.381524091500000e+00   2.888785756321265e+00  -1.187126999999997e-01 -9.37869520e-01  -1.58523674e+00   1.19462722e+00
C     8.632881982400001e+00   2.153785903579710e+00   2.587710000000000e-02 -7.31589870e-01  -3.67717350e-01  -1.09656153e+00
C     9.873679911900000e+00   2.850528769228140e+00   1.677900000000000e-02  3.71205180e-01  -1.04557297e+00  -1.10655297e+00
C     1.233118291020000e+01   4.323604311676250e+00   4.464750000000000e-02  4.12988600e-01  -3.60814029e+00   5.41853420e-01
C     3.685276311500000e+00   5.014988606688060e+00  -4.857540000000071e-02  6.36954590e-01  -4.35871920e-01   1.85275439e+00
C     4.935227328300000e+00   4.298376402943823e+00   5.602020000000001e-02 -9.39303530e-01   4.50130550e-01  -8.74196090e-01
C     6.178518506700000e+00   4.997626578239496e+00   4.347600000000000e-02 -2.83800250e-01  -7.24815090e-01  -1.19934559e+00
C     7.413277679200000e+00   4.313278598643414e+00  -8.453579999999761e-02  5.92206620e-01  -1.29700493e+00   1.86026740e-01
C     8.686722610999999e+00   4.968675148597160e+00  -1.007219999999975e-01 -7.22130280e-01   1.55879063e+00   8.83242490e-01
C     9.931861997099999e+00   4.268502845559753e+00   1.473210000000000e-02 -1.94652783e+00  -8.24048800e-02   2.39552020e-01
C     1.112912659690000e+01   4.999350262894988e+00   1.619574000000000e-01 -5.80962530e-01  -1.15698212e+00  -1.35146951e+00
C     1.350909666840000e+01   6.425597701090568e+00   7.399920000000000e-02  1.34484392e+00  -9.63832790e-01  -1.53182613e+00
C     4.900206284500000e+00   7.065120145171889e+00  -8.844810000000081e-02  6.29784740e-01   2.55800134e+00   7.86737960e-01
C     6.149134227699999e+00   6.384216375452916e+00  -1.001703000000020e-01 -1.70067800e-02   1.13488522e+00   9.74168430e-01
C     7.376131410999999e+00   7.120326299556870e+00  -2.630579999999938e-02  1.69047990e+00  -9.90561680e-01  -6.66360530e-01
C     8.653064120600000e+00   6.437228516485167e+00  -4.072169999999886e-02 -1.16048382e+00  -2.87625017e+00  -4.83014300e-02
C     9.886483269799999e+00   7.077502991219460e+00  -1.373399999998526e-03 -1.43087558e+00   7.87424630e-01   8.10521200e-02
C     1.110147541010000e+01   6.372118476185062e+00   7.084800000000001e-02 -7.35917050e-01   1.68221666e+00   1.35845000e-01
C     1.228213601640000e+01   7.106318565205059e+00   4.026780000000000e-02  1.73707670e+00   5.41331400e-02  -4.07183000e-02
