32
Lattice="9.86 0 0 4.93 8.53901048131456 0 0 0 30 " PBC="1 1 1" Properties=species:S:1:pos:R:3:force:R:3 Energy="-254.84575388"
C     1.173024775800000e+00   9.750294733619440e-01   3.571665000000000e+00 -1.14309234e+00   1.81273490e+00  -1.07373110e+00
C     2.377733182600000e+00   1.695403282002830e+00   3.574804800000000e+00  1.98827869e+00  -5.87768130e-01  -4.00764800e-01
C     3.595470001800000e+00   9.913900466614144e-01   3.244549200000000e+00  9.10918450e-01  -8.06261580e-01   1.41405280e-01
C     4.852875622299999e+00   1.645179469452719e+00   3.268781700000000e+00 -2.18572258e+00   4.63930009e+00   6.67103380e-01
C     6.058165571899999e+00   1.006346550467659e+00   3.212956500000000e+00  1.87384211e+00   2.01828226e+00  -7.77521450e-01
C     7.317149876999999e+00   1.757804321228155e+00   3.194383800000000e+00  1.36056312e+00  -1.84058352e+00   6.14885510e-01
C     8.584002412800000e+00   9.559591304767504e-01   3.294363900000000e+00 -8.20481950e-01   2.82299318e+00  -3.00580350e-01
C     9.780893417200000e+00   1.704312031636614e+00   3.533525400000000e+00  2.28679520e-01  -1.80136800e-02   1.54772080e-01
C     2.453268769200000e+00   3.097447663503794e+00   3.770449200000000e+00 -7.15971520e-01   6.44520750e-01   3.04519620e-01
C     3.638134123200000e+00   3.860035436694237e+00   3.721728000000000e+00  6.79718340e-01   3.18134380e-01  -1.12671279e+00
C     4.844408643100000e+00   3.162094718655673e+00   3.437711700000000e+00  1.09604901e+00  -1.56340867e+00  -1.92347070e-01
C     6.093744149399999e+00   3.875378672285120e+00   3.263963700000000e+00  2.09582700e-01  -1.95589055e+00  -2.87632320e-01
C     7.377629933800001e+00   3.188434918893224e+00   3.189983700000000e+00 -2.09371278e+00  -1.82286436e+00   7.67917930e-01
C     8.577665390800000e+00   3.881112788602650e+00   3.363009600000000e+00  1.89637960e+00  -1.12875202e+00  -2.27898480e-01
C     9.816302057599998e+00   3.137148084928457e+00   3.622739700000000e+00  5.54867900e-02   3.30211790e-01  -1.99009270e-01
C     1.111868041990000e+01   3.837362399897426e+00   3.811948800000000e+00 -3.46823299e+00  -4.34323710e-01  -8.09574770e-01
C     3.608272423000000e+00   5.328880155619821e+00   3.627298500000000e+00 -7.62693770e-01  -1.06632521e+00  -4.90770610e-01
C     4.826782364800000e+00   5.919220034088961e+00   3.302009400000000e+00  1.94797736e+00   2.97405469e+00   1.19608390e-01
C     6.092490105300000e+00   5.246562984521258e+00   3.140266500000000e+00 -4.20405000e-02   1.40858556e+00   4.80753030e-01
C     7.346225143600000e+00   5.957069539601981e+00   3.002767500000000e+00 -7.14653030e-01   2.19579995e+00   1.06102540e-01
C     8.602053903599998e+00   5.271817022625753e+00   3.163299300000000e+00 -1.38265237e+00   4.66363280e-01   6.30126080e-01
C     9.813838832400000e+00   5.953124175199802e+00   3.344935500000000e+00  5.46262460e-01   1.06631431e+00  -8.23856450e-01
C     1.101903225260000e+01   5.246783547161956e+00   3.682170600000000e+00  1.31306395e+00   2.58621926e+00  -6.85825210e-01
C     1.222437727030000e+01   6.103229476455311e+00   3.591081600000000e+00  3.86885660e-01  -1.82341466e+00   7.29680110e-01
C     4.878776215400000e+00   7.386673577427144e+00   3.276765000000000e+00  9.99130120e-01  -1.09665948e+00  -7.20307940e-01
C     6.103933029700000e+00   8.181472632900768e+00   3.216643800000000e+00  2.97112800e-02  -3.21115396e+00   1.26052750e-01
C     7.332850743800000e+00   7.474627263953450e+00   2.981711100000000e+00 -4.41407470e-01  -3.50286900e+00   4.83062700e-01
C     8.583898981399999e+00   8.089898662101255e+00   2.984488500000000e+00 -6.92552620e-01   1.80793253e+00   7.47461800e-01
C     9.823780966200001e+00   7.387736342671485e+00   3.055248300000000e+00 -1.13385580e-01  -5.00903150e-01   1.37512089e+00
C     1.099299943690000e+01   8.177801370734997e+00   3.213065100000000e+00  1.30128595e+00  -1.94073423e+00   1.86302290e-01
C     1.225427205080000e+01   7.551881058007686e+00   3.425861700000000e+00 -6.48994710e-01  -4.74015265e+00  -1.04217985e+00
C     1.354286450620000e+01   8.067831126537582e+00   3.222190500000000e+00 -1.59822088e+00   2.94863162e+00   1.52383810e+00
