32
Lattice="9.86 0 0 4.93 8.53901048131456 0 0 0 30 " PBC="1 1 1" Properties=species:S:1:pos:R:3:force:R:3 Energy="-253.44084656"
C     1.154362162200000e+00   8.314717999523936e-01   3.855348600000000e+00  2.06084790e+00   2.24162841e+00  -9.15123230e-01
C     2.461533421200000e+00   1.554010247749960e+00   3.859990800000000e+00 -2.81103923e+00   1.14062906e+00   3.85949730e-01
C     3.623144261000000e+00   7.839423013790368e-01   3.697593300000000e+00  1.57731324e+00   5.90367382e+00   8.39108140e-01
C     4.867101531699999e+00   1.599081109035810e+00   3.796027200000000e+00  3.21461200e-01  -3.19752893e+00  -7.26220340e-01
C     6.145294201399999e+00   9.379785361090144e-01   3.687407100000000e+00 -2.09341406e+00  -1.95074125e+00  -1.31648835e+00
C     7.372026890200000e+00   1.590483606334022e+00   3.696277200000000e+00  1.29268322e+00  -1.72237727e+00   3.01304200e-02
C     8.595855562500001e+00   8.260818911473129e-01   3.838777200000000e+00  7.64654990e-01   4.58271785e+00  -1.73879425e+00
C     9.820108214799999e+00   1.615036506288005e+00   3.808728600000000e+00 -2.60749000e-03  -6.20241990e-01   1.87138080e+00
C     2.470048665100000e+00   3.080239422633974e+00   4.038352200000000e+00 -1.89159113e+00  -3.18362386e+00  -9.79620800e-02
C     3.649211438800000e+00   3.770432354903615e+00   4.068101400000000e+00  1.96359646e+00  -2.52277553e+00  -2.05586670e-01
C     4.905836936100000e+00   2.968838467230636e+00   3.852148800000000e+00 -3.17313355e+00   1.59443666e+00   5.83526310e-01
C     6.082758876900000e+00   3.586793676372306e+00   3.612750600000000e+00  3.56253822e+00   4.68839774e+00  -8.36738490e-01
C     7.374192885699999e+00   2.929885550783391e+00   3.471259200000000e+00  5.91694620e-01   4.54995926e+00   2.99241172e+00
C     8.630974121700000e+00   3.799559858942047e+00   3.832336200000000e+00 -1.83717476e+00  -2.34714112e+00  -1.69124378e+00
C     9.841333590300000e+00   3.072560290509310e+00   3.989871600000000e+00  2.46462450e-01  -1.56005910e-01  -8.27993680e-01
C     1.109369813790000e+01   3.828721945972924e+00   4.052469600000000e+00 -6.70020220e-01  -2.85177786e+00  -6.75772730e-01
C     3.615451143900000e+00   5.140569272114276e+00   4.120734600000000e+00  3.45201443e+00   1.04073092e+00  -2.43528931e+00
C     4.873990664400000e+00   5.773673283578201e+00   3.717826200000000e+00 -7.02883120e-01   3.18539545e+00   1.20240542e+00
C     6.084965594200000e+00   5.148911799963131e+00   3.540272700000000e+00  1.47625582e+00  -3.12249024e+00   8.00985320e-01
C     7.324340775000000e+00   5.914711948896150e+00   3.528171300000000e+00  5.64736760e-01  -2.27237715e+00  -2.44324120e-01
C     8.605691454799999e+00   5.212600692749049e+00   3.743103600000000e+00 -1.55388433e+00  -4.25356690e-01  -4.17316010e-01
C     9.823785255299999e+00   5.911338271245607e+00   3.774902100000000e+00  7.21002720e-01   7.44533970e-01  -1.18083233e+00
C     1.110135649850000e+01   5.207195072164686e+00   3.823398900000000e+00 -1.84020451e+00   2.92855420e-01   1.60103034e+00
C     1.232802780880000e+01   5.856240562293721e+00   3.902140500000000e+00 -1.36899501e+00   3.99011657e+00  -8.06856450e-01
C     4.933026822800000e+00   7.252217635288226e+00   3.720081300000000e+00 -2.45872219e+00  -1.48035911e+00  -4.57364280e-01
C     6.119300382000000e+00   7.940977806989427e+00   3.699287400000000e+00 -4.07839960e-01   2.40949480e+00  -5.51287910e-01
C     7.325437404199999e+00   7.314687669718229e+00   3.443444100000000e+00  5.87817710e-01  -1.60857325e+00   1.33276159e+00
C     8.551966138899999e+00   7.997565744050283e+00   3.503876100000000e+00  1.49575110e-01  -1.95530764e+00  -9.78668700e-02
C     9.769860225099999e+00   7.322468843018129e+00   3.547453800000000e+00  3.41751714e+00  -5.68802270e-01  -2.59758580e-01
C     1.107470442550000e+01   8.055500368453938e+00   3.432246600000000e+00 -4.61282770e-01  -1.19557998e+00   2.76308996e+00
C     1.234202067710000e+01   7.347901261051551e+00   3.660737100000000e+00 -2.31665216e+00  -2.40539619e+00  -6.66496600e-01
C     1.355992457400000e+01   8.027024049354710e+00   3.637868700000000e+00  8.39272500e-01  -2.77811368e+00   1.74653630e+00
