32
Lattice="9.86 0 0 4.93 8.53901048131456 0 0 0 30 " PBC="1 1 1" Properties=species:S:1:pos:R:3:force:R:3 Energy="-254.94096244"
C     1.959503929000000e-01   1.244764859810472e-01  -1.070886000000009e-01 -2.38425133e+00  -1.54659887e+00   7.72054340e-01
C     1.336818011200000e+00   8.800213687176912e-01  -1.329737999999985e-01  3.32634615e+00  -1.19505974e+00   4.65095980e-01
C     2.602219253600000e+00   7.476911278476640e-02  -3.017826000000028e-01 -4.30964100e-01   5.07951469e+00   1.22398557e+00
C     3.868684784400000e+00   7.840937834249520e-01  -1.426652999999973e-01 -1.33862911e+00   2.08838700e-02  -4.23856720e-01
C     5.063887017299999e+00   5.900857575172560e-02  -2.021976000000016e-01  1.64595152e+00   1.81479413e+00  -8.56143000e-03
C     6.334695237200000e+00   7.838919212172047e-01  -2.399178000000006e-01 -5.48520690e-01  -8.22239400e-02   8.03979370e-01
C     7.571281122599999e+00   1.010371583837616e-01  -5.023949999999999e-02 -3.24715440e-01  -3.22174250e-01   3.76110020e-01
C     8.799068042600000e+00   7.964060118558544e-01   2.266050000000000e-02  2.20545560e-01  -5.34187670e-01  -9.37045620e-01
C     1.372479067600000e+00   2.271894934835927e+00   2.346072000000000e-01  2.05900757e+00  -1.29740423e+00  -1.13305645e+00
C     2.681064398500000e+00   2.896766315515873e+00   3.322740000000000e-01 -1.98628342e+00   2.78605336e+00   1.06621520e+00
C     3.890007921800001e+00   2.201329918470883e+00   1.141614000000000e-01 -9.19309110e-01  -1.06000088e+00  -3.84346790e-01
C     5.093546341000000e+00   2.891333540878182e+00   3.866130000000000e-02  1.12136280e+00   2.10456942e+00  -1.09472521e+00
C     6.323341644400000e+00   2.200186032626982e+00  -2.537306999999984e-01  1.12868545e+00   1.48682527e+00   1.68728538e+00
C     7.609090377199999e+00   2.973366619098075e+00  -9.529050000000083e-02 -2.39405043e+00  -1.65259521e+00  -1.32312111e+00
C     8.805948202699998e+00   2.175270139337495e+00   6.981600000000000e-03  1.31542650e-01   4.21050046e+00   3.16420990e-01
C     1.003015466090000e+01   2.963345834129481e+00   1.989828000000000e-01 -6.63999620e-01   4.07649760e-01   4.76425110e-01
C     2.671099488100000e+00   4.380883396245355e+00   6.045752999999999e-01 -1.68591403e+00  -4.73931710e-01  -2.11457316e+00
C     3.882579841499999e+00   5.085715864252223e+00   3.435420000000000e-01 -9.37642980e-01  -7.30888940e-01  -3.41377040e-01
C     5.060068239300000e+00   4.374399896368102e+00   3.904530000000001e-02  1.03101903e+00  -1.95781224e+00   9.43100920e-01
C     6.272363669600000e+00   5.078889693884406e+00  -1.167282000000007e-01  9.46481670e-01   1.19782220e-01  -1.26997061e+00
C     7.526758588400000e+00   4.407669674390382e+00  -2.317593000000002e-01  1.42623896e+00  -1.72307077e+00   1.67342606e+00
C     8.778270837599999e+00   5.102880556168595e+00  -7.612439999999765e-02  6.04229710e-01   1.13745990e-01  -1.14919450e-01
C     1.004839664690000e+01   4.406571643032759e+00   2.970936000000000e-01 -2.44478955e+00   4.25763000e-01  -1.27710526e+00
C     1.122061955820000e+01   5.191028932133844e+00   4.606305000000000e-01  2.03538693e+00  -2.76017737e+00  -1.57277050e-01
C     3.849063384400000e+00   6.469055628686851e+00   1.403847000000000e-01  6.23823180e-01   2.75682373e+00   9.32477720e-01
C     5.107036398600000e+00   7.202872572306611e+00  -5.326110000000028e-02 -1.57192687e+00   5.65940580e-01  -6.01954410e-01
C     6.288474268700000e+00   6.493918067770734e+00  -2.399618999999973e-01  7.65598130e-01   7.53655680e-01   4.01091560e-01
C     7.510126986899999e+00   7.278888807571981e+00  -3.669815999999990e-01  1.11315975e+00  -5.00527758e+00  -1.37274000e-03
C     8.792371081299999e+00   6.510670410871026e+00  -2.884035000000011e-01 -9.37746690e-01   1.97184580e-01   1.28331588e+00
C     1.001214280730000e+01   7.209378871341847e+00  -8.384549999999891e-02 -1.04297252e+00   2.84339150e-01  -8.10111560e-01
C     1.122742764170000e+01   6.596472266756372e+00   1.963983000000000e-01  9.90570390e-01  -2.36354806e+00   8.91106300e-01
C     1.248613069030000e+01   7.247254335446725e+00   2.182140000000000e-01  4.41766430e-01  -4.23074450e-01  -1.31871580e+00
