32
Lattice="9.86 0 0 4.93 8.53901048131456 0 0 0 30 " PBC="1 1 1" Properties=species:S:1:pos:R:3:force:R:3 Energy="-255.19952037"
C     1.106385423500000e+00   8.803017044317496e-01   3.769832700000000e+00  1.89694714e+00   1.01564227e+00  -6.11025260e-01
C     2.396187898100000e+00   1.607744959849028e+00   3.739934400000000e+00 -1.08386644e+00  -5.48594630e-01   5.44200010e-01
C     3.656667965200000e+00   8.474006408819953e-01   3.649745100000000e+00 -1.88590470e+00   3.94557665e+00  -9.37510370e-01
C     4.879619984900000e+00   1.574019454837430e+00   3.412837800000000e+00 -1.86282862e+00  -9.15950280e-01   2.29505939e+00
C     6.062508556800000e+00   8.507740623622240e-01   3.549339600000000e+00  3.27175740e-01  -2.55429830e-01  -7.68273320e-01
C     7.282952439000000e+00   1.588453883542926e+00   3.636409200000000e+00 -3.51156690e-01  -1.04350141e+00   2.50434270e-01
C     8.500576854200000e+00   8.595253526427568e-01   3.705411900000000e+00 -1.65822306e+00   1.09086690e-01  -1.97052870e-01
C     9.670711466800000e+00   1.541265433048141e+00   3.825849000000000e+00  3.83673127e+00   4.45424420e-01  -5.30484170e-01
C     2.362742531600000e+00   3.066147066688306e+00   3.812799600000000e+00  1.16699200e-01  -3.91784637e+00  -9.11841000e-02
C     3.577831447800000e+00   3.710507287157070e+00   3.786216000000000e+00  1.36878056e+00  -6.32657400e-02  -1.37340995e+00
C     4.831177558400000e+00   2.949453120248835e+00   3.607259100000000e+00 -1.44289040e+00   2.54897789e+00   1.58456590e-01
C     6.000426595099999e+00   3.709990591632925e+00   3.648878100000000e+00  2.43139358e+00  -1.33310340e-01  -6.94124070e-01
C     7.271630891200000e+00   2.996611001086102e+00   3.672105600000000e+00 -5.12561550e-01   1.55875310e-01   1.27502400e-01
C     8.528504860500000e+00   3.663453155297135e+00   3.733999500000000e+00 -1.54091722e+00   1.04798954e+00  -1.30665846e+00
C     9.714850989300000e+00   2.933098268086387e+00   3.758766000000000e+00  1.62189052e+00   2.16517094e+00   7.48497580e-01
C     1.099236188930000e+01   3.708682927568018e+00   3.785831100000000e+00 -1.51860545e+00  -2.86824593e+00  -3.06612860e-01
C     3.523632753299999e+00   5.118831000794711e+00   3.663072300000000e+00  3.63434619e+00   6.11688900e-01   5.13635290e-01
C     4.801104114699999e+00   5.843555264494948e+00   3.607980000000000e+00 -2.01699270e-01   1.80024140e+00  -1.82490400e-02
C     6.038161308099999e+00   5.135988605332385e+00   3.557472300000000e+00  2.29190680e-01   3.28303370e-01   7.70672020e-01
C     7.320912748800000e+00   5.828978405094645e+00   3.544846800000000e+00 -1.65376757e+00   1.75563072e+00  -4.31535990e-01
C     8.523082649300001e+00   5.098154982378858e+00   3.517492800000000e+00  5.50535700e-01  -1.33249880e+00   1.51758943e+00
C     9.772605643499999e+00   5.722354086763715e+00   3.572676600000000e+00 -1.29744068e+00   4.50090498e+00  -8.44671940e-01
C     1.101361437980000e+01   5.057668715819720e+00   3.652772400000000e+00 -1.70286100e+00   2.91106054e+00   1.41250200e-01
C     1.219719477860000e+01   5.826211253358496e+00   3.659014800000000e+00  2.47187770e-01   1.67831477e+00   8.67299760e-01
C     4.830232428100000e+00   7.336315360852077e+00   3.630451200000000e+00  8.45832750e-01  -2.87859540e+00  -9.60787700e-01
C     6.121221405800000e+00   8.032567916518746e+00   3.553782600000000e+00 -3.14028017e+00  -7.42200440e-01   1.25105140e+00
C     7.316780619999999e+00   7.327885564316118e+00   3.552594000000000e+00 -2.71983610e-01  -2.76033085e+00   1.10944880e-01
C     8.525591181199999e+00   8.032977618241576e+00   3.619166700000000e+00 -1.31209900e-01  -2.91414893e+00  -9.46719430e-01
C     9.680142951200001e+00   7.259689781798854e+00   3.485358600000000e+00  3.27868414e+00  -2.44717903e+00   1.14072184e+00
C     1.091614009600000e+01   7.958609668169159e+00   3.568635900000000e+00  2.63096083e+00   9.00655500e-02   7.77059730e-01
C     1.223740168940000e+01   7.292667440272615e+00   3.781272599999999e+00 -2.90188353e+00  -1.91337622e+00  -2.55686376e+00
C     1.344478156460000e+01   7.997669322247405e+00   3.620150400000000e+00  1.41723780e-01  -3.75479750e-01   1.36078851e+00
