32
Lattice="9.86 0 0 4.93 8.53901048131456 0 0 0 30 " PBC="1 1 1" Properties=species:S:1:pos:R:3:force:R:3 Energy="-255.83214622"
C     4.928626008999999e+00   8.483964090501098e+00  -9.645539999999997e-02  1.00530682e+00  -1.34183390e+00  -8.11576450e-01
C     1.228140598200000e+00   6.386281535137505e-01  -9.187650000000147e-02  1.54491924e+00   8.92160470e-01   1.39947900e-02
C     7.440939218999999e+00   8.489082031822392e+00  -5.801309999999660e-02 -2.30423906e+00  -1.94838121e+00  -1.33916745e+00
C     3.708956334000000e+00   6.130975368598081e-01  -3.168317999999992e-01  9.58865110e-01   1.60153212e+00   1.92125298e+00
C     9.878323380299999e+00   8.483445174834230e+00  -2.785262999999993e-01  8.99089460e-01  -1.41708600e+00  -4.94722300e-01
C     6.190627523400000e+00   6.371951367749968e-01  -1.894646999999985e-01  4.73919000e-03   9.42457840e-01  -1.32754912e+00
C     1.237772196230000e+01   8.437737217976466e+00  -3.482765999999984e-01 -1.77087723e+00   2.15912758e+00   1.39036176e+00
C     8.635923989599998e+00   6.369241085823616e-01  -1.811037000000013e-01  7.34515390e-01  -7.28461500e-01   5.91768770e-01
C     1.244570907800000e+00   2.069553859381008e+00  -2.618843999999996e-01 -1.95950150e-01  -1.27902855e+00   2.54872600e-01
C     2.498919139500000e+00   2.712431109899711e+00  -3.799524000000005e-01 -1.00806314e+00   2.96866764e+00  -1.76582300e-01
C     3.747163094500000e+00   2.052985019615930e+00  -2.731143000000031e-01 -1.66773130e+00  -3.08044980e-01  -1.02072463e+00
C     4.918447038000000e+00   2.819378373606995e+00  -2.809617000000024e-01  2.36299541e+00  -1.83802558e+00   2.58518410e-01
C     6.176195786499999e+00   2.116748543353444e+00  -1.856600999999998e-01  3.33899990e-01  -2.26682590e+00   9.47862400e-02
C     7.439111865199999e+00   2.781046926342484e+00  -1.626474000000009e-01 -1.02429056e+00  -1.17814129e+00   7.88920010e-01
C     8.681918966900000e+00   2.026095675614410e+00  -3.349319999999878e-02 -2.88141635e+00   1.58922038e+00  -1.83417706e+00
C     9.832942730299999e+00   2.764636058271287e+00  -2.561340000000030e-01  3.31928921e+00  -6.17488770e-01   7.12659800e-01
C     2.472304830300000e+00   4.203213400649463e+00  -5.616623999999995e-01  1.67966332e+00  -1.45087182e+00   3.65398870e-01
C     3.745498972999999e+00   4.877795826300196e+00  -5.474250000000005e-01 -1.06806022e+00   1.34512373e+00   1.02928879e+00
C     4.974131979599999e+00   4.208714487370994e+00  -3.274623000000005e-01 -1.23995204e+00   2.51146200e-01   2.70896170e-01
C     6.177631155999999e+00   4.899777459418441e+00  -8.342880000000008e-02 -3.56195350e-01   6.09277580e-01  -2.08177733e+00
C     7.379469070300000e+00   4.179265233417675e+00  -1.663797000000002e-01  2.44245973e+00   6.35476220e-01   3.69097800e-01
C     8.651052927099999e+00   4.868529377517405e+00  -2.677952999999995e-01 -5.94573880e-01   9.79765140e-01   6.67476220e-01
C     9.886405671599999e+00   4.151226794775861e+00  -3.238671000000011e-01 -1.46365080e-01   2.83274456e+00  -1.05133240e+00
C     1.114108840380000e+01   4.961096776796159e+00  -5.542911000000004e-01 -2.08267448e+00  -4.03122435e+00   5.87614370e-01
C     3.716633034200000e+00   6.306296965531764e+00  -3.991712999999990e-01  1.47760242e+00   1.00405047e+00  -4.19058330e-01
C     4.991578658000000e+00   7.060475008860873e+00  -2.441994000000030e-01 -2.95489371e+00  -6.75714970e-01   1.18829460e-01
C     6.179398659599999e+00   6.331483972403991e+00  -2.080215000000010e-01  3.27502230e-01  -5.93471680e-01   1.36187488e+00
C     7.396751974099999e+00   7.009167766661060e+00  -9.298170000000283e-02  1.16977751e+00   2.10168781e+00  -2.36632620e-01
C     8.618564325700000e+00   6.314338749431513e+00  -2.068790999999983e-01  1.77599633e+00  -3.63307370e-01  -9.25385050e-01
C     9.882241448499999e+00   7.043069516848965e+00  -4.034109000000008e-01 -1.83921525e+00   1.54529750e-01   8.07415540e-01
C     1.107364787720000e+01   6.331634429768648e+00  -5.805792000000025e-01  2.28995709e+00   2.03790653e+00   1.06282879e+00
C     1.237063962290000e+01   7.056783167679845e+00  -4.328898000000017e-01 -1.19208066e+00  -2.06696615e+00  -9.49171200e-01
