32
Lattice="9.86 0 0 4.93 8.53901048131456 0 0 0 30 " PBC="1 1 1" Properties=species:S:1:pos:R:3:force:R:3 Energy="-253.04479826"
C     1.071280027400000e+00   6.730123577937760e-01   3.888602700000000e+00 -6.55416200e-02   3.19376200e+00  -5.74784590e-01
C     2.337001867700000e+00   1.320056986987138e+00   3.749215800000000e+00 -4.40455530e-01   1.44330492e+00  -2.55447608e+00
C     3.515832458000000e+00   5.540909250804927e-01   3.400194300000000e+00 -7.63869620e-01   4.51459131e+00   1.64806701e+00
C     4.677149124700000e+00   1.405016725658946e+00   3.420962400000000e+00  1.56865171e+00  -9.30177820e-01  -1.07391761e+00
C     5.881687840900000e+00   7.123228026098184e-01   3.443631900000000e+00  5.26585752e+00  -8.43407100e-02   2.06931343e+00
C     7.259884623900000e+00   1.296749928662188e+00   3.757538100000000e+00 -4.83530358e+00   4.99256376e+00  -1.16207238e+00
C     8.459028293199999e+00   7.050631920700369e-01   3.881487900000000e+00  1.75706862e+00  -2.41158742e+00  -1.76807798e+00
C     9.699784169799999e+00   1.388794057378728e+00   3.775585200000000e+00  1.70905990e-01   2.20961362e+00   1.34860755e+00
C     2.314273039400000e+00   2.780521435637546e+00   3.396282000000000e+00  1.30002268e+00  -2.93543898e+00   4.42469440e-01
C     3.528553780700000e+00   3.490727417549372e+00   3.204424800000000e+00  1.16920511e+00   9.05944020e-01   1.76322978e+00
C     4.794097450799999e+00   2.808765920602241e+00   3.345069300000000e+00 -1.14867932e+00   3.92517550e-01   4.14341640e-01
C     6.093764904699999e+00   3.490379367482207e+00   3.541427400000000e+00 -3.44731138e+00  -2.28953617e+00  -6.43771560e-01
C     7.256544548900000e+00   2.762926889933610e+00   3.709225200000000e+00  2.28540101e+00  -9.72353810e-01   2.90824900e-01
C     8.482248395999999e+00   3.519963196240691e+00   3.672114000000000e+00 -4.08481540e-01   1.39211229e+00  -6.36152120e-01
C     9.745141352999999e+00   2.852487532842147e+00   3.662803800000000e+00 -1.80064712e+00  -2.72880478e+00  -6.09842370e-01
C     1.096473101410000e+01   3.456947092090492e+00   3.317188800000000e+00 -5.18602280e-01  -7.35451470e-01   1.58156202e+00
C     3.506221620200000e+00   4.932095393942516e+00   3.381854700000000e+00  3.88499810e-01  -5.26414900e-02  -1.24460501e+00
C     4.768344511200000e+00   5.611968846656973e+00   3.411155400000000e+00  6.22200090e-01   1.05293093e+00   7.65410090e-01
C     6.052778265099999e+00   4.836059448606786e+00   3.520154400000000e+00 -1.38186146e+00   5.94123163e+00  -2.89091700e-01
C     7.261699406200000e+00   5.698087499831126e+00   3.540895500000000e+00 -3.93779113e+00  -2.05242545e+00   5.47917590e-01
C     8.415606973100001e+00   5.021224133700976e+00   3.476623200000000e+00  4.84616479e+00  -4.07849072e+00   3.92509000e-02
C     9.721256538300000e+00   5.607797283867178e+00   3.342969900000000e+00  2.87484120e-01   1.32934157e+00   5.12586630e-01
C     1.094320919770000e+01   4.817860767911391e+00   3.309496500000000e+00 -9.73117470e-01   4.87049411e+00  -9.95229300e-02
C     1.210356466230000e+01   5.629043878963305e+00   3.398864100000000e+00  2.49172296e+00   1.40284770e+00  -3.94855530e-01
C     4.729414223899999e+00   7.124525870301039e+00   3.532140600000000e+00  2.18820072e+00  -1.75751284e+00   1.09663842e+00
C     5.944376389799999e+00   7.885796842685362e+00   3.831325800000000e+00  1.81909898e+00  -7.15012054e+00  -1.68894613e+00
C     7.240740891600000e+00   7.053308900485848e+00   3.674509200000000e+00 -8.04117830e-01   3.58858599e+00  -9.52120090e-01
C     8.502974263900001e+00   7.729435350011576e+00   3.383476500000000e+00  4.70539000e-03  -1.61831458e+00   1.65652192e+00
C     9.821801374000000e+00   7.081522474232607e+00   3.387580500000000e+00 -3.33087862e+00  -2.06320424e+00  -3.83427570e-01
C     1.097271268410000e+01   7.875020184509077e+00   3.496943100000000e+00 -1.07439562e+00  -2.45100016e+00  -1.21347531e+00
C     1.220088404550000e+01   7.141751786922553e+00   3.462331500000000e+00 -2.38054532e+00  -2.24586342e+00   2.58012220e-01
C     1.338541203960000e+01   7.833427432971940e+00   3.575736900000000e+00  1.14640996e+00  -6.72576790e-01   8.54385410e-01
