32
Lattice="9.86 0 0 4.93 8.53901048131456 0 0 0 30 " PBC="1 1 1" Properties=species:S:1:pos:R:3:force:R:3 Energy="-255.39564732"
C     1.284792115600000e+00   8.024244772223680e-01   3.788613600000000e+00 -3.32932320e+00   4.91158605e+00  -2.31609510e-01
C     2.443516686900000e+00   1.628788155715521e+00   3.814281600000000e+00  8.87068390e-01  -5.33885093e+00  -3.32352660e-01
C     3.681583051300000e+00   8.685648345269896e-01   3.772732200000000e+00  4.02715450e-01   2.20111991e+00  -1.11850910e-01
C     4.915781140500000e+00   1.587517410263585e+00   3.691048800000000e+00  9.05663500e-02  -2.05095625e+00   7.34894280e-01
C     6.133970681599999e+00   7.804911749034400e-01   3.766274100000000e+00 -1.10520669e+00   3.96363558e+00  -2.09485990e-01
C     7.305019661299999e+00   1.579934085836506e+00   3.797152200000000e+00  1.65001542e+00  -4.16146910e-01   7.45070400e-02
C     8.557684396599999e+00   8.847789637967280e-01   3.773224200000000e+00  7.70537820e-01  -1.90433970e+00  -7.18043480e-01
C     9.840045627800000e+00   1.504009559543691e+00   3.704138700000000e+00 -2.99004000e-03   2.01703111e+00   9.67324980e-01
C     2.413547562000000e+00   2.962172317919214e+00   3.726926100000000e+00  1.99674300e+00   3.30316943e+00  -5.75912080e-01
C     3.692485204000000e+00   3.680054614082247e+00   3.605365500000000e+00 -1.38936518e+00   1.93182804e+00   7.59101350e-01
C     4.882940980800000e+00   2.992609108434546e+00   3.714873600000000e+00  2.17244349e+00   1.01522376e+00   5.34854710e-01
C     6.119955135300000e+00   3.794832491960110e+00   3.933114000000000e+00 -1.02550566e+00  -2.59298931e+00  -1.78200292e+00
C     7.325845115200000e+00   3.015846659214189e+00   3.839772900000000e+00 -3.10799180e-01   8.74220900e-02   2.97105510e-01
C     8.565016144700000e+00   3.692184876199820e+00   3.764256600000000e+00  1.21858564e+00  -3.20299880e-01  -5.71956510e-01
C     9.825684932200000e+00   2.982275881072488e+00   3.739039800000000e+00 -4.32363860e-01  -1.84004122e+00  -7.84841300e-02
C     1.106670234530000e+01   3.644169849490571e+00   3.740534100000000e+00 -1.32475870e+00   3.48273125e+00  -6.52483330e-01
C     3.749566617400000e+00   5.170400902956890e+00   3.623186100000000e+00 -4.98804599e+00  -3.58694911e+00   4.00001600e-02
C     4.876433085000000e+00   5.886157497851030e+00   3.727566000000000e+00  2.61999398e+00   9.58232870e-01   6.68549510e-01
C     6.102186330700000e+00   5.189474063715542e+00   3.866911200000000e+00  1.89952472e+00  -4.25993130e-01  -3.34667800e-02
C     7.406509775200000e+00   5.839134362599138e+00   3.846668100000000e+00 -2.88069406e+00   1.37474900e+00  -6.28498360e-01
C     8.584764393600000e+00   5.106718841379355e+00   3.640308000000000e+00  6.47652340e-01   1.02297449e+00   2.16801120e+00
C     9.799546663799999e+00   5.871573209511610e+00   3.754042500000000e+00  1.67453309e+00  -2.14601241e+00  -8.73295970e-01
C     1.107260611890000e+01   5.141823481973578e+00   3.684356100000000e+00 -1.17634004e+00  -1.84533939e+00   4.34101930e-01
C     1.230460089250000e+01   5.813165609317466e+00   3.675729600000000e+00  8.01650670e-01   1.03550487e+00   8.83374250e-01
C     4.847777213500000e+00   7.295802025629718e+00   3.781235400000000e+00  2.21405508e+00  -7.78971600e-02  -7.13668490e-01
C     6.130799360499999e+00   8.008363322802243e+00   3.791225400000000e+00 -6.07148320e-01  -3.71236165e+00   4.70060180e-01
C     7.323693318100000e+00   7.281843817538690e+00   3.851368799999999e+00  3.84165434e+00  -5.04298970e-01  -2.07646880e-01
C     8.648546909499998e+00   8.027432641006177e+00   3.828124800000000e+00 -3.33699294e+00  -2.15058849e+00  -1.15076070e-01
C     9.841795136900000e+00   7.275244870239746e+00   3.808336500000000e+00 -1.50434308e+00  -5.02576530e-01  -3.32450060e-01
C     1.104835949150000e+01   7.942341572353189e+00   3.768789900000000e+00  1.70820403e+00  -3.99559380e-01   1.04294293e+00
C     1.228569168030000e+01   7.237695254774785e+00   3.880127400000000e+00 -3.91248700e-01  -9.42092800e-01  -2.27536445e+00
C     1.349501160910000e+01   7.929110204834218e+00   3.719040900000000e+00 -7.90818150e-01   3.45208477e+00   1.36882058e+00
