32
Lattice="9.86 0 0 4.93 8.53901048131456 0 0 0 30 " PBC="1 1 1" Properties=species:S:1:pos:R:3:force:R:3 Energy="-251.89340939"
C     1.242721664800000e+00   8.835978478671345e-01   3.816962400000000e+00 -5.05479538e+00  -2.83304540e-01   9.37002800e-02
C     2.342458342400000e+00   1.672677047170730e+00   3.961350000000000e+00  5.18505329e+00  -1.93821263e+00  -1.27192609e+00
C     3.610626005000000e+00   9.140281487345009e-01   3.662281800000000e+00  9.39087790e-01  -1.66976002e+00   2.81169900e-01
C     4.951594829699999e+00   1.469681115002100e+00   3.782103300000000e+00 -2.74531611e+00   3.91979419e+00  -5.56912990e-01
C     6.210923544600000e+00   8.543667656315792e-01   3.577154100000000e+00 -2.12139076e+00   1.57533322e+00   3.88861800e-02
C     7.402851172900000e+00   1.653669124452145e+00   3.657931200000000e+00 -2.29602760e+00   3.77592600e-02  -9.16488060e-01
C     8.586245513500000e+00   9.373352924495560e-01   3.728956500000000e+00  1.45285852e+00  -3.98328969e+00  -2.59746110e-01
C     9.797748988599999e+00   1.498758921999539e+00   3.905344200000000e+00  3.11161330e+00   6.21539072e+00   7.59354430e-01
C     2.445086349600000e+00   3.046291988740000e+00   4.146201900000000e+00  1.26492620e-01   7.20255530e-01   5.40650480e-01
C     3.756253324300000e+00   3.682737315004748e+00   4.165419900000000e+00 -4.07210944e+00   1.47239266e+00  -1.98806680e-01
C     4.852702283499999e+00   2.956698043690591e+00   3.894396300000000e+00  4.76611397e+00  -8.19245050e-01  -1.42176585e+00
C     6.074316153300000e+00   3.783376384719932e+00   3.502335300000000e+00 -1.31395619e+00  -3.86192972e+00   1.69549727e+00
C     7.299047459300000e+00   3.108315005971375e+00   3.514524900000000e+00  2.54484553e+00  -3.38383237e+00   1.02405120e+00
C     8.570672235099998e+00   3.718308783301913e+00   3.693993600000000e+00  1.71914953e+00   2.04539569e+00   1.30788859e+00
C     9.853244371699999e+00   3.134227657954193e+00   4.062635999999999e+00 -1.52662527e+00  -4.68448495e+00  -1.84308980e+00
C     1.111076387520000e+01   3.795513136485470e+00   4.129048800000000e+00 -1.79557672e+00   2.53966125e+00   3.97909900e-02
C     3.742479150800000e+00   5.137220186813916e+00   4.120318200000000e+00 -4.10700676e+00   1.14030650e-01  -1.20186396e+00
C     4.830290552799999e+00   5.822556898433476e+00   3.763568999999999e+00  4.80188839e+00  -1.41445170e+00  -6.06157160e-01
C     6.060639544499999e+00   5.121468530351773e+00   3.503794500000000e+00  2.23272250e+00   3.41142113e+00  -2.17437410e-01
C     7.402597770900000e+00   5.876884730200485e+00   3.367594500000000e+00 -3.03677191e+00  -1.37759635e+00   1.53796461e+00
C     8.613875254800000e+00   5.141314471558865e+00   3.700772100000000e+00 -1.42195068e+00   2.43521825e+00  -1.80289599e+00
C     9.794532656599999e+00   5.968769008640838e+00   3.769790700000000e+00  1.93453439e+00  -2.90652527e+00  -3.28206440e-01
C     1.108976789260000e+01   5.305663440025748e+00   3.997446900000000e+00 -4.52900840e-01  -2.05955348e+00  -1.35426580e-01
C     1.235144521020000e+01   5.976855451565399e+00   3.901691100000000e+00 -1.37582739e+00  -3.20412959e+00   1.10718067e+00
C     4.903119322899999e+00   7.172352867999519e+00   3.679324800000000e+00  5.40356360e-01   5.61331692e+00  -2.27325270e-01
C     6.098251746999999e+00   8.045170300525758e+00   3.582914100000000e+00  8.07347850e-01  -3.38620598e+00  -3.69282100e-02
C     7.289681741099999e+00   7.313261228017544e+00   3.389865600000000e+00  1.64701517e+00  -1.07408389e+00  -1.50863380e-01
C     8.519817461000001e+00   7.994426889187939e+00   3.344493300000000e+00  5.59565860e-01   2.88279325e+00   1.43535370e+00
C     9.787028703599999e+00   7.319538681571917e+00   3.422446500000000e+00 -6.52341460e-01   7.12150250e-01   5.67660550e-01
C     1.101921974050000e+01   8.018291288726919e+00   3.457283400000000e+00  2.34125087e+00  -8.30506760e-01   4.73178310e-01
C     1.227831181540000e+01   7.345633043697749e+00   3.630580800000000e+00  2.22630181e+00  -1.28359331e+00   1.39551000e-01
C     1.361435956340000e+01   7.913750488953109e+00   3.662455800000000e+00 -4.96360122e+00   4.46579232e+00   1.33961830e-01
