32
Lattice="9.86 0 0 4.93 8.53901048131456 0 0 0 30 " PBC="1 1 1" Properties=species:S:1:pos:R:3:force:R:3 Energy="-253.72700645"
C     5.058865861599999e+00   8.496318330863563e+00  -4.575491999999990e-01 -6.64851960e-01   1.20433000e-03   1.02126208e+00
C     1.379480998700000e+00   5.729226026227704e-01  -2.750040000000027e-01 -2.01696300e-02   4.02321006e+00  -8.88785030e-01
C     7.580845963499999e+00   8.531074238269783e+00  -5.790246000000003e-01 -2.10244324e+00  -3.94305517e+00   9.26571680e-01
C     3.864144895300000e+00   6.092414051171449e-01  -5.873865000000009e-01  2.41852696e+00   3.63196201e+00   2.10732256e+00
C     1.008419342620000e+01   8.435161425465173e+00  -4.643729999999984e-01 -1.86552475e+00  -4.08271490e-01  -6.37712900e-01
C     6.378615769100000e+00   6.305730487576520e-01  -3.512853000000007e-01 -3.72673935e+00  -6.24094170e-01  -5.59427360e-01
C     1.247900191030000e+01   8.431438331505790e+00  -3.498342000000001e-01  9.67397450e-01   3.31204659e+00   5.18518500e-01
C     8.737682788499999e+00   7.258096573223496e-01  -3.356837999999982e-01  1.38467404e+00  -5.71259733e+00  -4.86520420e-01
C     1.303896062800000e+00   2.037645114239135e+00   8.463300000000000e-03  3.76844740e-01  -1.74207760e-01  -3.53728820e-01
C     2.538106674200000e+00   2.810055140404512e+00   1.775211000000000e-01  1.77727616e+00  -3.34220467e+00  -2.61534810e+00
C     3.837457819300000e+00   2.148883572273038e+00  -2.561838000000023e-01 -3.32925065e+00  -2.67614563e+00   4.57573330e-01
C     4.973889374300000e+00   2.899603828698377e+00  -3.458211000000020e-01  3.58639749e+00  -4.76653162e+00   1.13309120e-01
C     6.272836210099999e+00   2.028871878701668e+00  -3.544964999999998e-01 -2.67688130e+00   1.26205714e+00  -7.19816060e-01
C     7.438628675900000e+00   2.690595835421094e+00  -3.713559000000011e-01  1.80610152e+00   5.03391858e+00   2.87781980e-01
C     8.682803063800000e+00   2.065238414264626e+00  -2.675400000000003e-01  8.39113860e-01   1.45944465e+00  -4.80926500e-02
C     9.904019624900000e+00   2.762641003862740e+00  -8.923949999999792e-02  1.97844886e+00  -2.52883810e-01   5.22248740e-01
C     2.611859622099999e+00   4.191361254103223e+00   2.022825000000000e-01  1.42926740e-01   1.66492491e+00   3.09368730e-01
C     3.865631142400000e+00   4.922102019197563e+00   4.875090000000000e-02 -1.17399897e+00   1.87613230e+00  -6.06680300e-02
C     5.044074924899999e+00   4.249744176557079e+00  -2.616768000000000e-01  1.78232057e+00   2.49138037e+00   1.05282600e-02
C     6.349047157399999e+00   4.991611443087069e+00  -4.711557000000006e-01 -3.27297459e+00  -2.97949920e+00   1.24274845e+00
C     7.490384111699999e+00   4.183852389847530e+00  -4.278921000000011e-01  2.07787897e+00   3.22474180e-01   1.60574800e-01
C     8.798593185000000e+00   4.913411868232068e+00  -3.342549000000012e-01 -2.48198634e+00  -1.14925723e+00  -9.99532400e-02
C     9.967740811599999e+00   4.176556232342895e+00  -5.041559999999734e-02  1.46693554e+00   1.32121366e+00   1.75219600e-02
C     1.125480324150000e+01   4.916627744968940e+00   1.321941000000000e-01 -1.37670917e+00  -1.38776256e+00  -6.73205890e-01
C     3.859427920600000e+00   6.408058915125067e+00  -2.228399999999908e-03 -1.10266726e+00  -2.22756940e+00  -1.92029289e+00
C     5.024970533999999e+00   7.058256915498588e+00  -4.548243000000021e-01 -3.77182050e-01   1.18483249e+00   1.61232503e+00
C     6.248559657600000e+00   6.378648513669432e+00  -4.495977000000018e-01  2.56334280e+00  -1.49792400e-02  -1.09000486e+00
C     7.510226770099999e+00   7.031036172500341e+00  -5.743985999999985e-01  1.31778105e+00   2.22029636e+00   6.14193100e-02
C     8.768957328099999e+00   6.333071801402746e+00  -4.734455999999980e-01  2.47274160e-01  -5.47772020e-01  -7.61810200e-02
C     1.005971193360000e+01   6.980494879540583e+00  -4.340778000000007e-01 -7.74318810e-01   1.77831876e+00   7.07218330e-01
C     1.128305278240000e+01   6.294608597206530e+00  -1.071741000000017e-01 -1.91108766e+00   1.07591519e+00  -3.89749500e-01
C     1.244824827450000e+01   7.082296023191990e+00  -1.322216999999988e-01  2.12354484e+00  -2.45250027e+00   5.43193900e-01
