32
Lattice="9.86 0 0 4.93 8.53901048131456 0 0 0 30 " PBC="1 1 1" Properties=species:S:1:pos:R:3:force:R:3 Energy="-254.98359669"
C     1.326281911000000e-01   1.044103236936760e-01  -9.396600000000177e-02  2.09032788e+00  -4.48489500e-01   4.39076670e-01
C     1.446507208100000e+00   8.135179326874600e-01   2.461830000000000e-02 -4.23031151e+00   1.64015824e+00  -1.63556140e-01
C     2.590879168999999e+00   1.692274759343168e-01  -2.307734999999980e-01  1.50178308e+00  -4.82516436e+00  -4.31872090e-01
C     3.798771369800000e+00   8.226858412893120e-01  -2.455298999999975e-01  2.34563371e+00   9.28790630e-01   8.63022500e-01
C     5.081566934000000e+00   1.674648533910352e-01  -1.564751999999991e-01 -1.08806349e+00  -2.10906247e+00  -9.97125290e-01
C     6.295362514000000e+00   8.245879912638368e-01  -1.818330000000010e-01  2.34100464e+00   7.66956140e-01   1.03082522e+00
C     7.543749734800000e+00   7.047621065605121e-02  -2.782110000000060e-02 -6.22038250e-01   1.27691320e+00  -1.77051700e-02
C     8.779748457199998e+00   7.985158305652529e-01  -2.225699999999975e-02  4.21344710e-01   1.52293253e+00  -3.98031470e-01
C     1.473850565700000e+00   2.232100157345458e+00   3.056385000000000e-01 -2.46082267e+00   3.56859290e-01  -4.62981770e-01
C     2.654195701300000e+00   2.967978076534671e+00   4.281525000000000e-01  1.21923317e+00  -2.01613930e+00  -1.67929794e+00
C     3.863419741600000e+00   2.190688603610707e+00  -6.449999999997402e-03 -2.41014100e-01   3.37820383e+00   1.85146486e+00
C     5.122519852400000e+00   2.927684108491543e+00   3.179190000000000e-02 -9.97258320e-01  -4.54929680e-01  -8.86665200e-01
C     6.369474365899999e+00   2.272785126678467e+00  -1.412505000000017e-01 -1.07994165e+00  -1.90979284e+00   1.64766720e-01
C     7.590783167300000e+00   2.957761492055770e+00  -9.666029999999992e-02  8.59471750e-01   3.14908020e-01  -3.12322260e-01
C     8.867337400800000e+00   2.288146038021043e+00  -2.684280000000072e-02 -1.68818951e+00  -2.11961360e+00   4.24412420e-01
C     1.006974670210000e+01   2.976261770601319e+00   2.132265000000000e-01 -5.41397770e-01   4.47872780e-01   6.53471390e-01
C     2.589558027600000e+00   4.374915396430779e+00   5.481639000000000e-01  2.10632152e+00   3.43775640e-01  -4.63483820e-01
C     3.831734631600000e+00   5.078566748508053e+00   3.450999000000000e-01  5.67373520e-01   2.29249240e-01  -6.63154930e-01
C     5.054100572899999e+00   4.336614262653472e+00   6.696210000000000e-02 -5.74590600e-02   1.67859420e+00   4.93117090e-01
C     6.265541437000000e+00   5.079020511524960e+00  -1.506723000000001e-01  1.67402600e+00  -4.11936470e-01   9.96348100e-02
C     7.532352757999998e+00   4.357625778791085e+00  -1.786382999999994e-01  6.93691490e-01   1.64342998e+00   7.15717730e-01
C     8.797962638000000e+00   5.114981529480223e+00  -6.136199999999903e-02 -2.15401728e+00   3.70280610e-01  -6.03191260e-01
C     9.961019052399999e+00   4.456651487866178e+00   3.376065000000000e-01  2.07142005e+00  -3.05804790e+00  -9.36522960e-01
C     1.124181698060000e+01   5.082941625137376e+00   4.862520000000000e-01 -2.20410225e+00   1.18390967e+00  -8.29395690e-01
C     3.866833963800000e+00   6.525573289691455e+00   1.939077000000000e-01  5.42446320e-01  -1.53520386e+00  -4.98407210e-01
C     5.102948984899999e+00   7.196655745726647e+00  -1.566492000000004e-01 -8.08991560e-01   1.31248272e+00   1.46405979e+00
C     6.355887631000000e+00   6.519040434333627e+00  -2.123196000000007e-01 -2.45998127e+00  -1.71671772e+00  -2.26520130e-01
C     7.556991320400000e+00   7.191729163630211e+00  -3.387005999999992e-01 -1.44723726e+00   3.71613289e+00  -4.89923200e-02
C     8.748999356999999e+00   6.548817671679483e+00  -3.149933999999988e-01  3.39479894e+00  -1.51831823e+00   1.97123241e+00
C     9.997311395299999e+00   7.274628012122672e+00  -9.489839999999816e-02  3.48745520e-01  -1.84376787e+00  -3.78030000e-02
C     1.119889033670000e+01   6.466018729609639e+00   2.015649000000000e-01  1.47376513e+00   3.00804441e+00   3.07758730e-01
C     1.248980733640000e+01   7.212470078525712e+00   2.098521000000000e-01 -1.57056147e+00  -1.52310210e-01  -8.21531670e-01
