32
Lattice="9.86 0 0 4.93 8.53901048131456 0 0 0 30 " PBC="1 1 1" Properties=species:S:1:pos:R:3:force:R:3 Energy="-254.87629055"
C     5.013173290500000e+00   8.343506675626523e+00  -3.136949999999992e-01 -4.76469838e+00  -3.59570933e+00   1.34778650e-01
C     1.211281477200000e+00   4.897429914657280e-01  -3.459341999999985e-01  4.66618919e+00   1.61661110e-01  -2.25734860e-01
C     7.386441224200000e+00   8.296188859122966e+00  -3.553569000000003e-01  2.10215970e+00   1.69560708e+00   2.96792470e-01
C     3.744048123300000e+00   4.933822323421992e-01  -3.088082999999990e-01 -1.56276374e+00  -4.02503360e-01  -7.58979500e-02
C     9.907750057299999e+00   8.283588268308153e+00  -3.048543000000024e-01 -1.31292679e+00   5.43465544e+00  -2.83695020e-01
C     6.183914342400000e+00   4.846113877276672e-01  -3.627863999999974e-01  2.04388058e+00   4.48303920e-01   5.93950870e-01
C     1.235316366030000e+01   8.357651204926222e+00  -3.372449999999994e-01  1.66841546e+00  -1.72983781e+00  -9.18400000e-05
C     8.717065627099998e+00   5.391678941953303e-01  -2.991174000000001e-01 -2.13184015e+00  -2.72580054e+00  -5.52680350e-01
C     1.263471640400000e+00   1.905937367233099e+00  -3.393513000000006e-01  4.89255460e-01  -9.30939280e-01   1.05800033e+00
C     2.433945387700000e+00   2.583898679330769e+00  -1.409994000000019e-01  4.32917099e+00   1.72829331e+00  -7.07184890e-01
C     3.744379764400000e+00   1.947859809964869e+00  -2.063780999999985e-01 -2.53979738e+00  -3.71351012e+00  -3.24871300e-01
C     4.941696819400000e+00   2.572830157776278e+00  -2.403210000000016e-01  3.53994104e+00   2.20751880e+00   6.02491930e-01
C     6.293101270899999e+00   1.900221780568311e+00  -3.088562999999986e-01 -5.40677952e+00  -1.45576920e-01  -3.89752680e-01
C     7.449137858299999e+00   2.628203847546878e+00  -3.827003999999974e-01  2.27931866e+00  -2.67407780e-01   6.52277210e-01
C     8.687474534600000e+00   1.896074297788070e+00  -3.393636000000022e-01  1.55731750e+00   2.80692299e+00  -2.02658600e-02
C     9.990403331399998e+00   2.636950270591437e+00  -2.776721999999978e-01 -6.03453425e+00   4.54366830e-01  -5.57254160e-01
C     2.505173386800000e+00   4.003088966925048e+00  -9.331620000000029e-02 -3.58547000e-02   1.64255290e+00  -5.94295000e-02
C     3.800577475299999e+00   4.779016980018080e+00  -1.794086999999998e-01 -3.71631373e+00  -5.19215026e+00   1.25450457e+00
C     4.957180914100000e+00   4.002438379716577e+00  -1.420233000000017e-01  2.27639993e+00   4.15350280e-01  -1.70332071e+00
C     6.209810498500000e+00   4.697145630656679e+00  -3.511085999999999e-01 -4.08453800e-02   1.72068131e+00   1.75830538e+00
C     7.477197840700001e+00   4.044436478081200e+00  -3.367478999999989e-01 -2.16044532e+00  -3.34615290e-01  -7.85220390e-01
C     8.669600228000000e+00   4.761111785112884e+00  -3.376638000000014e-01 -3.09081400e-01   1.63682406e+00   6.32617290e-01
C     9.845929089799998e+00   4.053603191221584e+00  -2.170412999999982e-01  4.69480450e+00  -4.45172400e-01   3.82129680e-01
C     1.114637962490000e+01   4.749854551426785e+00  -6.224759999999918e-02 -2.09425196e+00   7.07514380e-01  -4.53426250e-01
C     3.696719975400000e+00   6.106293700366059e+00  -1.885833000000012e-01  8.36909230e-01   5.45420458e+00  -1.16825890e+00
C     4.929261880399999e+00   6.842392950706913e+00  -2.904111000000000e-01  1.90994758e+00   1.73172347e+00   6.09748130e-01
C     6.206688575999999e+00   6.170410568357235e+00  -2.524607999999979e-01 -1.33387774e+00  -1.58982717e+00  -1.35635694e+00
C     7.444315332300000e+00   6.882341601166231e+00  -3.445694999999986e-01 -1.76624678e+00   5.96396900e-01   2.85586120e-01
C     8.657111946400001e+00   6.214611731425698e+00  -3.040509000000000e-01  8.06380000e-01  -1.05445068e+00   1.46657230e-01
C     9.875264216700000e+00   6.968408337156666e+00  -2.135240999999972e-01 -3.08671530e-01  -5.79885686e+00   2.70576940e-01
C     1.106108850500000e+01   6.205120279716759e+00  -5.355210000000099e-02  3.25417758e+00  -4.61707400e-02  -1.82721149e+00
C     1.234076387220000e+01   6.907937370470136e+00  -2.933550000000018e-01 -9.35338630e-01  -8.70048820e-01   1.81223629e+00
