32
Lattice="9.86 0 0 4.93 8.53901048131456 0 0 0 30 " PBC="1 1 1" Properties=species:S:1:pos:R:3:force:R:3 Energy="-255.50476156"
C     4.895847622199999e+00   8.380263614748625e+00  -4.596528000000006e-01  3.67924500e+00   1.17968060e+00  -2.79890310e-01
C     1.241825834500000e+00   5.736513217771335e-01  -4.435479000000022e-01  1.76097660e-01  -6.77941100e-02  -7.80526860e-01
C     7.444438040000000e+00   8.404839399250694e+00  -5.099909999999994e-01 -2.65859389e+00   4.28392220e-01  -4.39623400e-02
C     3.693761630300000e+00   6.130269192431383e-01  -5.604041999999971e-01  2.29490664e+00  -2.47132020e+00   1.66134548e+00
C     9.874808290299999e+00   8.396742453343244e+00  -3.555416999999998e-01  6.42115590e-01  -2.81715730e-01  -2.46524630e-01
C     6.201695767800000e+00   5.337612489297089e-01  -3.067029000000012e-01 -3.39178890e-01   1.56850390e-01  -1.33019633e+00
C     1.238090230530000e+01   8.386164327160619e+00  -4.071852000000007e-01 -1.59842834e+00   1.28467121e+00   1.08575651e+00
C     8.651455658800000e+00   5.874431045539056e-01  -4.989254999999986e-01 -1.95803000e-01  -1.57917365e+00   4.00613800e-01
C     1.251000318000000e+00   2.010622561674126e+00  -4.144506000000021e-01  1.87347484e+00  -8.27357440e-01   1.42646727e+00
C     2.540191571200000e+00   2.713023973397338e+00  -1.269974999999981e-01 -1.92848786e+00  -4.24270390e-01  -2.53908884e+00
C     3.748781712100000e+00   1.992500817463156e+00  -3.802401000000017e-01 -5.63438640e-01   1.05207829e+00   8.24137730e-01
C     5.007719823100000e+00   2.657771366795345e+00  -3.401217000000010e-01  1.72142100e-01  -7.18370830e-01  -1.72037540e-01
C     6.233978048699999e+00   1.932932168014047e+00  -4.137863999999993e-01  1.03274340e-01   9.29903310e-01   2.02636810e-01
C     7.480822623199999e+00   2.653342267449474e+00  -4.772852999999984e-01 -2.71974325e+00   1.98312226e+00  -2.14752460e-01
C     8.693769750200000e+00   1.988075816842315e+00  -5.022509999999976e-01 -1.98786367e+00  -1.60057023e+00  -2.20362470e-01
C     9.859027015199999e+00   2.662970172545883e+00  -4.369632000000010e-01  2.32073560e+00   2.07102454e+00   5.23393810e-01
C     2.511963574400000e+00   4.161499395163510e+00  -1.143356999999980e-01  4.38887500e-01  -3.31943504e+00   4.15947080e-01
C     3.750887068600000e+00   4.778503187757500e+00  -1.693967999999977e-01  1.04156558e+00   3.33257034e+00   1.64075380e-01
C     5.020170390199999e+00   4.047523074199405e+00  -2.897043000000004e-01 -3.74901446e+00   1.35465135e+00   1.09589550e-01
C     6.153710943900000e+00   4.785787561427673e+00  -4.454652000000010e-01  2.22125474e+00   2.20485395e+00  -5.01592380e-01
C     7.374129830999999e+00   4.114853171834205e+00  -5.227322999999977e-01  2.27614459e+00  -1.12606822e+00   6.63283190e-01
C     8.614214734599999e+00   4.850700009025270e+00  -4.069008000000025e-01  4.65054380e-01  -5.62950480e-01   1.55025540e-01
C     9.809664354899999e+00   4.062612274228508e+00  -2.844794999999998e-01  2.21337359e+00   2.19998891e+00  -1.52216000e-01
C     1.112644719120000e+01   4.780129356913310e+00  -1.292793000000003e-01 -2.44957648e+00   5.28166980e-01  -6.08872980e-01
C     3.743459875699999e+00   6.296942735721237e+00  -1.664865000000013e-01  6.91742990e-01  -2.08234753e+00  -1.17016580e+00
C     5.003291154799999e+00   6.976720124567794e+00  -4.277238000000025e-01 -2.41683985e+00  -8.43394570e-01   5.78730110e-01
C     6.211638197400000e+00   6.245009071712611e+00  -5.438556000000005e-01 -8.35575070e-01  -3.70740200e-01   1.04738235e+00
C     7.418036016599999e+00   6.979753522650709e+00  -4.989813000000005e-01  1.44032167e+00  -1.59144060e-01  -4.90519000e-03
C     8.671437934800000e+00   6.297000715602397e+00  -3.549108000000025e-01 -7.04704280e-01  -1.65197383e+00  -4.44418820e-01
C     9.928121951199998e+00   6.950639083298310e+00  -2.453138999999993e-01 -1.85651907e+00   6.79279650e-01  -8.32037750e-01
C     1.111376767490000e+01   6.177100626898000e+00  -2.035458000000006e-01  1.26949488e+00   3.25057910e+00   9.21637120e-01
C     1.235522686530000e+01   7.031247598399824e+00  -1.712745000000027e-01  6.83935050e-01  -4.54918657e+00  -6.38471010e-01
