32
Lattice="9.86 0 0 4.93 8.53901048131456 0 0 0 30 " PBC="1 1 1" Properties=species:S:1:pos:R:3:force:R:3 Energy="-254.36965039"
C     5.112503324900000e+00   8.428904294755744e+00  -8.033789999999996e-02 -1.37923982e+00   2.94071455e+00  -3.16041760e-01
C     1.395666040800000e+00   6.302411374202944e-01  -7.131780000000276e-02 -2.56566040e-01   1.78141045e+00  -4.21233440e-01
C     7.579203879100000e+00   8.538501298805079e+00  -6.722939999999866e-02 -1.31842218e+00  -2.34834722e+00  -7.00188870e-01
C     3.843056771000000e+00   6.762940703014496e-01  -2.029287000000011e-01  1.63552395e+00   2.43367401e+00   1.58628659e+00
C     9.996589101000000e+00   8.491511380303953e+00  -8.028420000000125e-02  7.78867750e-01   2.52065906e+00  -1.50063627e+00
C     6.333625082100000e+00   7.033561584849800e-01  -1.438547999999997e-01 -1.46917549e+00  -1.17829297e+00  -2.15496550e-01
C     1.247873426060000e+01   8.508293268380505e+00  -2.690355000000011e-01  7.35359250e-01   4.73274663e+00   1.48682045e+00
C     8.815464088700001e+00   6.810889808562840e-01  -9.063000000000088e-02 -6.04163860e-01  -2.58048787e+00  -6.89412930e-01
C     1.363970725700000e+00   2.081842093192462e+00  -2.334930000000028e-01  8.39947260e-01  -4.41307010e-01  -1.58750790e+00
C     2.602587623200000e+00   2.835182886544008e+00  -5.153460000000010e-01 -7.13778280e-01  -1.47795845e+00   1.87947225e+00
C     3.856945271200000e+00   2.173131885723198e+00  -2.436155999999983e-01 -2.61588111e+00  -2.53993920e+00  -1.20074251e+00
C     5.001140146499999e+00   2.902656012604348e+00  -2.411102999999990e-01  4.59854744e+00  -2.96595710e+00   5.46041690e-01
C     6.333905944200000e+00   2.104720407801211e+00  -1.277121000000001e-01 -2.65612294e+00   1.17883750e+00  -4.99461670e-01
C     7.538811896099999e+00   2.758172539678556e+00  -1.849412999999984e-01  8.81251170e-01   4.33579444e+00   5.55986670e-01
C     8.780902225100000e+00   2.070192150414388e+00  -1.289651999999997e-01 -5.37625280e-01   3.56365030e-01  -5.99691240e-01
C     9.985213323200000e+00   2.746254557361515e+00  -3.534560999999989e-01  1.06641424e+00   3.04592203e+00   1.92933005e+00
C     2.608500320100000e+00   4.233411952772403e+00  -6.379170000000016e-01 -2.65462880e-01   1.56271140e+00   5.99526170e-01
C     3.857457744700000e+00   4.945737573255679e+00  -4.529069999999997e-01 -2.40330454e+00   1.33035260e+00   1.70961900e-02
C     5.061196765600000e+00   4.262292337847544e+00  -3.125537999999999e-01  1.66179569e+00   1.33452777e+00  -2.65057200e-02
C     6.339880167499999e+00   4.992589757517762e+00  -2.204700000000024e-01 -2.98396679e+00  -5.94756060e-01  -3.57021970e-01
C     7.555062852300000e+00   4.370561781937552e+00  -1.641951000000006e-01  8.23915480e-01  -5.39921339e+00   3.30739760e-01
C     8.808995731500000e+00   4.999939625398317e+00  -7.748189999999866e-02 -2.16113730e-01  -1.40773252e+00  -9.09405960e-01
C     1.000221970330000e+01   4.227762714219044e+00  -2.588834999999996e-01  1.42450968e+00   8.19998260e-01  -1.79285526e+00
C     1.124343318250000e+01   5.023303382752855e+00  -5.854941000000018e-01 -1.07477870e+00  -1.87499010e+00   1.53535369e+00
C     3.761342070300000e+00   6.365954506079968e+00  -2.637387000000011e-01  1.11593982e+00   8.24046260e-01  -1.82644098e+00
C     5.038390634900000e+00   7.044614223844797e+00  -2.463557999999999e-01 -3.04877891e+00   9.29914070e-01   9.72304560e-01
C     6.196432105400000e+00   6.378204655904682e+00  -2.327003999999988e-01  6.53984447e+00  -1.30146080e-01   8.87314580e-01
C     7.536930509499999e+00   7.089798910140347e+00  -9.044550000000129e-02 -1.03005025e+00   2.51604080e-01  -9.30248500e-02
C     8.793295259099999e+00   6.397042993875134e+00  -7.484639999999843e-02 -1.48031138e+00   3.79100680e-01  -5.87714010e-01
C     9.983475794000000e+00   7.110244631443554e+00  -2.394038999999992e-01  8.72994680e-01   7.34899000e-02   6.78007360e-01
C     1.122300912920000e+01   6.472976913079477e+00  -4.616384999999994e-01 -1.04167001e+00  -2.46733969e+00   9.21680400e-02
C     1.241388287140000e+01   7.190998395113333e+00  -3.968987999999989e-01  2.12050132e+00  -5.42540104e+00   2.26933830e-01
