64
Lattice="7.10842262195238 0 0 0 7.10842262195238 0 0 0 7.10842262195238 " PBC="1 1 1" Properties=species:S:1:pos:R:3:force:R:3 Energy="-509.87269231"
C     3.364722088218660e-02   4.995195201413300e-02   2.425571508509500e-02 -1.44537800e+00  -2.16607523e+00  -7.72946530e-01
C     1.788903290769735e+00   1.763446323346086e+00   3.494145138861000e-03 -8.86530840e-01   7.02582660e-01  -5.54186650e-01
C     7.096518997649000e+00   1.779621041428313e+00   1.786264644293191e+00  3.76310760e-01   2.80651610e-01  -1.10212740e+00
C     1.764988779970400e+00   5.586608854974680e-02   1.816430657365685e+00  2.28516300e-02  -1.80851055e+00   7.10705900e-02
C     8.907992312163724e-01   8.949144392395428e-01   8.788204728382794e-01  5.29127520e-01   8.47258030e-01   1.49574583e+00
C     2.689835080841334e+00   2.682851339954089e+00   8.384496793367395e-01  1.75357160e-01  -5.78583540e-01   1.05022577e+00
C     9.222264206301067e-01   2.703498890801499e+00   2.551007729241186e+00  1.80026310e-01  -9.11111890e-01   3.41286796e+00
C     2.713897446831165e+00   8.299541191266728e-01   2.685584883872610e+00 -1.28444469e+00   2.81097402e+00  -9.51523000e-03
C     3.545602796954501e+00   6.961065019087400e-03   2.881491518511060e-02 -1.06298460e-01  -8.80350040e-01   1.99499500e-02
C     5.318716859400692e+00   1.716394607760914e+00   1.299952786632500e-02  1.21406139e+00   2.81127379e+00  -3.97786980e-01
C     3.584477622915662e+00   1.751478156517697e+00   1.759080898846692e+00 -6.39425930e-01   1.26413655e+00   6.04606770e-01
C     5.318350420214632e+00   4.669572578036340e-02   1.764281491919710e+00  7.49990990e-01  -2.08375433e+00   1.54078495e+00
C     4.488036259482255e+00   8.701984537898028e-01   8.636506013776160e-01 -2.18472071e+00   3.52399750e-01   8.93619800e-01
C     6.191912935009349e+00   2.632996702245624e+00   9.019917980526935e-01  1.94384320e-01   1.01063337e+00  -3.17054260e-01
C     4.399467090742711e+00   2.750957421413214e+00   2.657452377259020e+00  4.06901420e-01  -2.09908335e+00   1.09157620e-01
C     6.184834509932806e+00   9.047985587242005e-01   2.672365919000006e+00 -5.27599660e-01   1.29095898e+00  -1.23414518e+00
C     7.104663401781639e+00   3.571961894292854e+00   7.089822579204056e+00  5.91699050e-01  -2.72273278e+00   1.94489337e+00
C     1.783158832282061e+00   5.325854355469208e+00   7.065708606066003e+00 -3.38969940e-01   4.52216570e-01   2.55282818e+00
C     3.164143727150120e-02   5.304014153474616e+00   1.736014280697471e+00  2.42256890e-01   6.39275960e-01   2.52529540e+00
C     1.801574338426790e+00   3.598479296202955e+00   1.705107356735294e+00  3.93732450e-01  -1.84220158e+00   1.23153472e+00
C     9.071488875792773e-01   4.411139333937430e+00   8.856029031969261e-01 -2.76685330e-01   2.06926040e+00  -2.29006066e+00
C     2.617142858360464e+00   6.275999603528948e+00   9.573652729148742e-01  1.60844901e+00  -1.67919269e+00  -2.47647961e+00
C     9.207331542903233e-01   6.240361668892031e+00   2.737695948173342e+00 -2.34049011e+00  -1.73420690e-01  -2.65991378e+00
C     2.638024134143619e+00   4.477550980696625e+00   2.646149203366731e+00  1.37514963e+00  -5.93636470e-01   4.01209470e-01
C     3.611152689639474e+00   3.567914927126836e+00   7.082705555392685e+00 -4.99098700e-01  -8.87651200e-01   7.70578260e-01
C     5.377047153735889e+00   5.380485711009862e+00   7.100910296806732e+00 -9.78540100e-02  -1.63193048e+00   8.56904030e-01
C     3.554074330696112e+00   5.366442453450242e+00   1.787416848515667e+00 -4.22939530e-01  -9.62531600e-02  -6.04501690e-01
C     5.284673343957441e+00   3.579544804122739e+00   1.778861861892497e+00  2.11497647e+00  -7.72730830e-01  -8.98720540e-01
C     4.501253731586110e+00   4.475489182715694e+00   8.552815710901852e-01 -1.77753439e+00   3.03140660e-01   1.07341693e+00
C     6.282677113569725e+00   6.226196359716026e+00   9.547119830877329e-01 -1.87711090e+00   1.06908094e+00  -2.61204147e+00
C     4.408396335816824e+00   6.254560245485897e+00   2.684775021283514e+00  1.48972790e+00  -2.15827413e+00  -8.15129130e-01
C     6.242804051820037e+00   4.390874998153465e+00   2.632886877116145e+00 -6.06972300e-01   2.25044792e+00   4.19731750e-01
C     7.030683488543156e+00   5.642239370398800e-02   3.526215285100713e+00  3.52382384e+00  -8.47595540e-01   8.76700560e-01
C     1.849924123066601e+00   1.831254846234338e+00   3.544824211424932e+00 -5.03218890e-01  -4.54819220e-01  -3.88957490e-01
C     7.063726422418417e+00   1.884473971453075e+00   5.315678577404452e+00  1.12243775e+00  -3.86953583e+00   1.47183550e-01
C     1.725324848014193e+00   7.181141783402600e-03   5.383959312807351e+00 -1.82413030e-01  -5.90481750e-01  -2.78703808e+00
C     8.776429626312764e-01   1.020141174756618e+00   4.358423485040188e+00 -8.85010220e-01  -2.91885293e+00   3.03165809e+00
C     2.737517455681354e+00   2.677178960871781e+00   4.592529432238220e+00 -1.14920468e+00  -9.67154380e-01  -4.96585732e+00
C     8.576915396110437e-01   2.646457211318856e+00   6.207122329299780e+00  1.08775120e+00   1.48595224e+00   6.63112690e-01
C     2.635507326030782e+00   8.412586436192588e-01   6.240128299377417e+00  2.19070200e-02   3.06662710e-01   1.20863919e+00
C     3.485500870449723e+00   6.992882745239877e+00   3.596161097418121e+00  1.76770498e+00   3.07307970e+00  -5.46640200e-01
C     5.268071196423074e+00   1.825842919756827e+00   3.511437158810638e+00  4.33572520e-01  -1.82871119e+00   1.81325586e+00
C     3.544432181917440e+00   1.662649103847165e+00   5.423745793969527e+00  8.09249200e-01   2.72807063e+00  -2.41998863e+00
C     5.371840660672095e+00   7.060113566621801e+00   5.310931217357685e+00 -1.60994242e+00   1.37445742e+00   2.91128940e-01
C     4.381471479122145e+00   7.985394405367496e-01   4.454047905398536e+00  1.28194246e+00   1.65928829e+00   1.05075240e-01
C     6.187920418360600e+00   2.636382301771077e+00   4.438426151511919e+00 -5.07397500e-01   2.81100868e+00  -1.66219815e+00
C     4.459899274562415e+00   2.597995113601649e+00   6.242679654424187e+00 -2.63463450e-01   1.17496906e+00  -7.52313770e-01
C     6.222042481873803e+00   9.514381279658657e-01   6.239120253965674e+00  7.76181370e-01  -2.98954368e+00  -1.63568303e+00
C     1.622469029324520e-02   3.560687296259499e+00   3.526971763435934e+00 -1.34043181e+00  -2.90674368e+00  -1.77566270e+00
C     1.734676262307708e+00   5.266105575400191e+00   3.556298982639268e+00  8.46744320e-01   2.10887874e+00   6.64460660e-01
C     7.107952255675235e+00   5.261608929419232e+00   5.317781462068127e+00 -5.60304000e-02   7.32353000e-01  -1.03029185e+00
C     1.756185567229340e+00   3.505673863003020e+00   5.316543601353080e+00  1.36383499e+00   1.01747327e+00   1.71342410e+00
C     8.829009206748379e-01   4.322294074063323e+00   4.371987421662541e+00  7.74796250e-01   3.46598859e+00   2.96354217e+00
C     2.614045718624930e+00   6.190693769445793e+00   4.475455986382058e+00 -4.97245740e-01  -1.36633946e+00   9.14455570e-01
C     8.252321361486592e-01   6.164520841695857e+00   6.218648849830789e+00  1.84244930e+00   1.87442423e+00  -4.39110690e-01
C     2.726735471335564e+00   4.460771975607472e+00   6.251526655048586e+00 -2.82795264e+00  -1.36961461e+00  -7.49492820e-01
C     3.581911837770973e+00   3.647927047800651e+00   3.563638713331323e+00 -1.15015489e+00  -2.13807044e+00   1.20542104e+00
C     5.379271805679045e+00   5.331796428105719e+00   3.525409758649415e+00 -1.59753128e+00   2.42573730e-01  -1.24919450e-01
C     3.528281277050990e+00   5.307942765404011e+00   5.393862411780404e+00  1.83151227e+00   1.74910879e+00  -2.09529750e+00
C     5.333309882365743e+00   3.565572062115510e+00   5.295895979421445e+00  2.49375000e-03  -1.84430034e+00   1.95923874e+00
C     4.478587033293490e+00   4.482537539164555e+00   4.483243547699173e+00 -7.32759560e-01   1.12606180e-01  -1.57776609e+00
C     6.228740393087498e+00   6.215658194266102e+00   4.351376550275852e+00  4.25941500e-01  -3.17805140e-01   3.65686702e+00
C     4.438196833798197e+00   6.215069901210072e+00   6.239203493594554e+00  7.39975820e-01   1.90892780e-01  -9.16787800e-02
C     6.248117029054677e+00   4.376151819970242e+00   6.250286946143659e+00 -1.69704740e+00   3.20003503e+00  -2.40269893e+00
