64
Lattice="7.10842262195238 0 0 0 7.10842262195238 0 0 0 7.10842262195238 " PBC="1 1 1" Properties=species:S:1:pos:R:3:force:R:3 Energy="-505.30013112"
C     6.163613735885320e-02   7.101120919368962e+00   2.130536427666400e-02 -3.46523686e+00   1.76979337e+00  -1.58960874e+00
C     1.755743565510828e+00   1.784178251169995e+00   7.069869450162394e+00  2.14543176e+00  -9.74615830e-01  -3.98791740e-01
C     9.186214551826001e-04   1.758695124751105e+00   1.729799244632352e+00 -1.65350460e-01   8.68161170e-01   6.11968330e-01
C     1.748676798247382e+00   8.428812121665000e-03   1.701526062335112e+00  3.54541072e+00  -3.95285270e-01   2.04434722e+00
C     8.979048815515507e-01   8.897500991218865e-01   8.377009491821750e-01  3.83074380e-01   3.86254630e-01   5.41554620e-01
C     2.701731026095904e+00   2.621690258478930e+00   8.894823959260174e-01 -1.44282442e+00   1.79082566e+00  -5.62044600e-01
C     8.811084608269788e-01   2.641021898130925e+00   2.654214419671383e+00  8.55861170e-01  -2.71748500e-02   1.92940615e+00
C     2.675420194947141e+00   8.794474357133634e-01   2.705746289697037e+00 -9.03849500e-02   9.17001520e-01  -2.63862196e+00
C     3.565564456103307e+00   7.089245233118859e+00   7.078244522609052e+00  2.99226550e-01  -1.81747000e-03  -1.88410000e-03
C     5.277462844388618e+00   1.803199181669270e+00   7.008168412905020e+00  1.79319270e+00  -1.39449701e+00   5.40474874e+00
C     3.615019671544754e+00   1.745646833105607e+00   1.700742714162388e+00 -3.34071407e+00  -4.09200200e-01   3.29942884e+00
C     5.365311219074495e+00   7.018908386473126e+00   1.779097577186576e+00  8.73593080e-01   1.96245712e+00   7.78929770e-01
C     4.430174196945040e+00   7.882266120838798e-01   9.407584338215778e-01  1.18962828e+00   1.58472454e+00  -2.87258443e+00
C     6.128448582436858e+00   2.733048674717065e+00   9.148276189460797e-01  2.53118077e+00  -4.48084877e+00  -2.82401879e+00
C     4.379120297256353e+00   2.694777140583663e+00   2.587135505280849e+00  7.58626200e-01  -2.08242172e+00   2.69022468e+00
C     6.333890526262002e+00   8.497895326897470e-01   2.619622276170320e+00 -3.97028907e+00   9.05461710e-01   7.15295950e-01
C     2.721203696852680e-02   3.516952512837270e+00   3.684778816684160e-02 -2.39312097e+00   4.99341140e-01  -2.83213520e-01
C     1.661938474837844e+00   5.334164101511988e+00   1.379517361018160e-02  3.58021823e+00  -9.83324570e-01   1.49275707e+00
C     4.743166077421200e-02   5.176797628297750e+00   1.827695659028504e+00 -2.53480017e+00   5.67092968e+00  -3.33174720e-01
C     1.786900492696550e+00   3.523956725981661e+00   1.832121789457073e+00  7.42727520e-01  -8.71166570e-01  -1.58524479e+00
C     8.669503311578199e-01   4.377604852637996e+00   9.893131542855236e-01  1.88962706e+00  -5.48873810e-01  -3.97757299e+00
C     2.694567157779468e+00   6.160386227678935e+00   8.465506510071702e-01 -2.10754144e+00   2.35162320e+00   9.10597470e-01
C     9.956296986256555e-01   6.248223086720167e+00   2.622691693057636e+00 -3.70369471e+00  -2.58527537e+00   2.23190518e+00
C     2.682679245042459e+00   4.432397356119444e+00   2.613022816609912e+00 -1.71967832e+00  -1.34890042e+00   4.96116107e+00
C     3.630342942765557e+00   3.597722107025473e+00   7.012224336683541e-02 -4.68001013e+00  -5.27469800e-01  -2.61041238e+00
C     5.346531264102038e+00   5.361124215982863e+00   3.376223516017820e-02  5.85420370e-01  -1.10573308e+00  -1.61606196e+00
C     3.551901428069631e+00   5.277962282161899e+00   1.809731466635919e+00  1.12253462e+00   2.27781225e+00  -1.03090469e+00
C     5.203530841918594e+00   3.498303352841021e+00   1.710839659820288e+00  3.65255285e+00   4.07079038e+00   2.32274302e+00
C     4.455490986274622e+00   4.472308732267053e+00   8.755187526997418e-01 -1.08249570e-01   1.08790420e-01   1.56510760e+00
C     6.239070210670429e+00   6.250644215464540e+00   8.296826484668149e-01  6.31525400e-01  -2.31445925e+00   2.63539767e+00
C     4.517987242770495e+00   6.194662046373408e+00   2.754777203392297e+00 -2.13335049e+00   3.97961360e-01  -2.31790172e+00
C     6.162259083786626e+00   4.390255641290584e+00   2.621146108727370e+00  9.64057710e-01  -3.90314290e-01   2.76814508e+00
C     8.678004985031719e-02   2.753305333404600e-02   3.556520196751202e+00 -2.41599769e+00  -2.67318345e+00  -3.20036136e+00
C     1.802592619967105e+00   1.751363568745063e+00   3.638882575195868e+00  1.84392390e-01   1.44873936e+00  -3.47083744e+00
C     8.226790750804600e-03   1.840028345768847e+00   5.228071533666524e+00 -1.97302142e+00  -2.36460542e+00   2.68197631e+00
C     1.751065868005737e+00   3.646585261946900e-02   5.344812092091392e+00  7.78041550e-01  -7.45102400e-01  -1.92074986e+00
C     8.685176672613037e-01   9.021614761006327e-01   4.369569278455669e+00  1.23698768e+00   1.10717890e-01   4.43220192e+00
C     2.701339138756864e+00   2.693662539916847e+00   4.548630586421922e+00 -2.55157905e+00  -1.60684420e-01  -3.89893992e+00
C     8.471650319742168e-01   2.588823186979289e+00   6.217326612139242e+00  1.64627363e+00   3.92291537e+00  -3.61735220e-01
C     2.693382681318298e+00   9.237359652576900e-01   6.084075675916033e+00 -1.08668384e+00  -7.95431950e-01   4.68776731e+00
C     3.578468162432714e+00   6.977165596321701e-02   3.556053955311556e+00  3.40365760e-01  -2.21729802e+00  -3.80975200e-02
C     5.293513520496125e+00   1.862796978841838e+00   3.477297039903981e+00  1.41929752e+00  -3.46579823e+00   1.03630595e+00
C     3.593802522792805e+00   1.857180543045550e+00   5.283415010985249e+00 -1.46208391e+00  -2.58575427e+00   3.71549161e+00
C     5.389767960351283e+00   4.903034502145000e-03   5.321087518344462e+00 -1.53638342e+00   1.10335012e+00  -1.12902235e+00
C     4.396538278454819e+00   9.649804549834540e-01   4.426990689874672e+00  3.36556380e+00  -9.73582810e-01  -1.30571764e+00
C     6.154040752058740e+00   2.641724921128044e+00   4.445625917362586e+00  1.02843317e+00   3.03965192e+00  -2.12002592e+00
C     4.372906043117723e+00   2.626270641678353e+00   6.317186159610360e+00  1.00991744e+00   3.80839025e+00  -4.59631765e+00
C     6.166546315637201e+00   1.036792583659742e+00   6.158286399636987e+00  2.97384689e+00  -4.98404355e+00  -4.03860220e-01
C     7.092818281748801e+00   3.511753128196097e+00   3.568341574652488e+00 -8.26898840e-01   9.20286170e-01  -2.06307440e-01
C     1.750765181728911e+00   5.331903409866150e+00   3.610392301671812e+00  3.08140842e+00   8.56305320e-01  -2.00508615e+00
C     7.090821099329487e+00   5.372367536956690e+00   5.328917374776166e+00  3.33246300e-01  -2.43003459e+00   2.13513630e+00
C     1.798601809339785e+00   3.572727755745933e+00   5.323499903729012e+00 -1.80519190e-01   2.58034680e-01   3.97155395e+00
C     8.884686637761792e-01   4.442368838118102e+00   4.582975427900036e+00 -4.05789660e-01   3.07846620e-01  -5.54793637e+00
C     2.734365723260098e+00   6.287179517373006e+00   4.410685887658500e+00 -3.56313712e+00  -1.40536724e+00   2.08600145e+00
C     8.417864439987938e-01   6.207224761669734e+00   6.251416190161072e+00  9.48427590e-01   1.83445757e+00  -1.50720606e+00
C     2.660225088586177e+00   4.588320037615334e+00   6.267705496015933e+00 -1.54777402e+00  -5.07133751e+00   5.22026400e-02
C     3.530457449551877e+00   3.483290008846450e+00   3.637338625802804e+00  1.68874250e-01   3.55490656e+00  -4.22328970e+00
C     5.334945246073700e+00   5.282918629833694e+00   3.620716148179744e+00 -6.02857310e-01  -5.15068900e-02  -2.52176890e+00
C     3.479045782952727e+00   5.417771235841643e+00   5.401316730245093e+00  3.76984059e+00  -6.26655250e-01  -2.55706819e+00
C     5.286296125757361e+00   3.586419786143898e+00   5.306575744649959e+00  8.92656790e-01  -1.48174008e+00   3.17125819e+00
C     4.372344690983422e+00   4.431501410532420e+00   4.478844216023882e+00  1.18155727e+00   5.08820570e-01   4.69541640e-01
C     6.265057253168851e+00   6.148154978129380e+00   4.375168725121896e+00  1.40364000e-03   3.38859122e+00   2.48632543e+00
C     4.513549312360377e+00   6.228379498471081e+00   6.219200961015684e+00 -1.68653167e+00   6.80609040e-01  -1.63779910e-01
C     6.219922323743162e+00   4.419986903235639e+00   6.278314319186699e+00 -2.02935670e-01   1.19715119e+00  -1.98942369e+00
