64
Lattice="7.10842262195238 0 0 0 7.10842262195238 0 0 0 7.10842262195238 " PBC="1 1 1" Properties=species:S:1:pos:R:3:force:R:3 Energy="-506.42829222"
C     4.076943384206940e-02   7.776877357916939e-02   7.078538455884389e+00 -2.17640950e-01  -4.83447656e+00   2.27697136e+00
C     1.799839883307510e+00   1.697366284502114e+00   3.431797164060980e-02 -2.34643290e-01   3.33896857e+00   1.84951818e+00
C     7.037330219113986e+00   1.883698726882138e+00   1.750251598194616e+00  1.89543313e+00  -3.64547894e+00   9.63033680e-01
C     1.742137049436981e+00   7.078645082223689e+00   1.884292991013170e+00 -1.34133450e-01   7.27005950e-01  -3.73498036e+00
C     8.846394986792376e-01   8.746093721939652e-01   9.243721690821799e-01 -6.25911020e-01   1.03600884e+00   3.31180080e-01
C     2.728268189420889e+00   2.680496319540083e+00   9.167435520948485e-01 -2.03020696e+00  -4.49245300e-02  -2.14145127e+00
C     9.094552152983362e-01   2.644449863855194e+00   2.664307882202200e+00 -1.84731982e+00   2.59290660e+00  -1.10369092e+00
C     2.715388296307258e+00   8.840013755806402e-01   2.597817971709958e+00 -2.84645408e+00  -6.09848900e-02   4.37455595e+00
C     3.423798766928956e+00   3.953057794785580e-02   7.090534203392544e+00  3.90750956e+00  -2.87161661e+00   3.33409549e+00
C     5.318743871406649e+00   1.774524515662452e+00   7.095543295560179e+00 -1.00454092e+00  -1.40316362e+00  -2.47196050e-01
C     3.525305335921127e+00   1.790541000257157e+00   1.812125299037430e+00  2.79572053e+00   6.31419440e-01  -2.13709084e+00
C     5.343427797870373e+00   8.741547174831900e-02   1.799562299404199e+00 -1.57781022e+00  -1.69635253e+00  -8.14658300e-01
C     4.433626686727347e+00   8.851095786670982e-01   9.034911065517038e-01 -1.29503540e+00   1.90221272e+00  -7.79644210e-01
C     6.149393194265557e+00   2.667467576056790e+00   7.952397107565455e-01  3.74232998e+00   7.29142920e-01   1.67490564e+00
C     4.439236867111729e+00   2.681869027032231e+00   2.639331870653021e+00  3.80403390e-01  -6.38554320e-01   1.35039507e+00
C     6.166209518573465e+00   9.598375823021102e-01   2.703255782747894e+00  2.11192191e+00  -7.71753790e-01  -1.03653320e-01
C     7.097333480712800e+00   3.517279287025111e+00   7.046388766395558e+00  2.05176016e+00   2.36221901e+00   1.99066685e+00
C     1.834137524859427e+00   5.255730192828266e+00   3.715174431807280e-02 -1.41903761e+00   2.84988366e+00  -3.15932674e+00
C     7.016301017056110e+00   5.404103445164812e+00   1.783019649367162e+00  2.32281094e+00  -1.32967447e+00   2.96613600e-02
C     1.753600020669767e+00   3.626227876910839e+00   1.736775663844299e+00  1.43024189e+00  -3.45248308e+00   1.50329156e+00
C     9.114681784158678e-01   4.448982514523750e+00   8.456328114784758e-01 -2.73886953e+00   2.48639320e-01   1.62390534e+00
C     2.622134534892680e+00   6.204867466560490e+00   8.812915737936701e-01  4.80527270e-01  -1.49161580e-01   2.11572220e+00
C     8.043742470759242e-01   6.243119879037043e+00   2.755424212019169e+00  1.12793706e+00  -3.62146540e-01  -2.95314667e+00
C     2.638676331919004e+00   4.412588030467385e+00   2.689356968335913e+00  1.92210000e-03   3.12012602e+00  -3.23614447e+00
C     3.579986166083216e+00   3.579132302358101e+00   6.990463606853838e+00  1.36427891e+00  -1.99570138e+00   4.19593383e+00
C     5.297833237838073e+00   5.263146339063486e+00   2.693352897027520e-02  4.32397350e-01   5.31499364e+00  -6.06493270e-01
C     3.584027162174233e+00   5.347201446186651e+00   1.788124207650583e+00 -8.59275840e-01  -3.80048420e-01  -1.42178031e+00
C     5.416315430889067e+00   3.560332941391892e+00   1.699705382049451e+00 -4.66602376e+00  -1.01195074e+00   1.85607177e+00
C     4.484191740192455e+00   4.441620534468894e+00   8.867213424119570e-01 -1.69564397e+00  -9.12913930e-01  -1.84078320e-01
C     6.157185376057376e+00   6.301500856425521e+00   9.075081472584919e-01  1.96062336e+00  -1.84883710e+00  -9.00324290e-01
C     4.451319195207396e+00   6.261470840704383e+00   2.614223926780014e+00  2.23113770e-01  -1.22078499e+00   1.86643617e+00
C     6.171962720420962e+00   4.385233753962233e+00   2.666609376193877e+00  3.28546655e+00   1.81279638e+00  -1.93976624e+00
C     4.764782790608620e-02   9.694786648173899e-02   3.607466261668742e+00 -3.28781150e+00  -1.75831684e+00  -1.03360400e-01
C     1.800834564884727e+00   1.847780933646671e+00   3.566301528444774e+00  7.99241990e-01  -2.29764058e+00  -7.33011770e-01
C     1.584638004140880e-02   1.826849756736724e+00   5.418181178574137e+00  1.73856458e+00  -1.63060226e+00  -1.67724429e+00
C     1.794578015631508e+00   7.082162258651839e+00   5.209070222413681e+00 -6.22352140e-01  -3.01059140e-01   4.61456119e+00
C     9.231380758311217e-01   9.085085866580307e-01   4.476382000596766e+00 -4.32444460e-01   2.18418750e+00  -6.74846280e-01
C     2.784826425081144e+00   2.690022316693145e+00   4.412588314804291e+00 -3.13811647e+00  -7.40969390e-01   8.96493920e-01
C     1.067202557796554e+00   2.703692382065215e+00   6.298067701552738e+00 -6.00493330e+00  -2.99651072e+00  -1.31376308e+00
C     2.613685605935001e+00   8.595309150481950e-01   6.288617622353258e+00  2.65339440e-01   1.44804536e+00  -4.99635046e+00
C     3.503654075799774e+00   7.070903796737831e+00   3.543922436931360e+00  2.59528303e+00   7.22665940e-01  -5.48898160e-01
C     5.290152658281389e+00   1.686365431823855e+00   3.659548394689411e+00  2.79783520e-01   3.59279216e+00  -1.47535481e+00
C     3.532130843320851e+00   1.763387323438341e+00   5.348329268519540e+00  1.44986721e+00  -1.00355321e+00  -3.62756030e-01
C     5.311899597771208e+00   7.089013214204543e+00   5.380830327338479e+00  8.76948300e-02  -1.38991570e+00   1.99942520e+00
C     4.426135262296581e+00   7.947396332252286e-01   4.561203751099499e+00 -1.30066361e+00   2.00847544e+00  -3.31428878e+00
C     6.229296129567929e+00   2.674263370249962e+00   4.486115137184974e+00 -2.96536420e-01  -1.92842798e+00   2.55917910e-01
C     4.478903073763175e+00   2.640747370849341e+00   6.130157020729349e+00 -2.32928304e+00  -7.37698010e-01   3.75284505e+00
C     6.250012347777848e+00   8.440148634059376e-01   6.288553220044321e+00 -1.41978635e+00   3.50682100e+00  -2.76961855e+00
C     7.071675060592100e+00   3.527144995695183e+00   3.549700802594931e+00  5.98267650e-01  -9.28435620e-01  -2.83210980e-01
C     1.714636410510083e+00   5.302557211174420e+00   3.464535359858521e+00  1.97555850e-01  -7.16048370e-01   3.62405677e+00
C     4.334545511533119e-02   5.267732337916778e+00   5.332720238709414e+00 -1.59752134e+00   1.92644094e+00  -4.82824900e-01
C     1.866810465337316e+00   3.486997904253494e+00   5.386698330211289e+00 -5.82660430e-01   2.21987817e+00  -3.56356007e+00
C     8.553212360884047e-01   4.341236669745326e+00   4.388781709860327e+00  1.63618659e+00   2.37573657e+00   2.31787088e+00
C     2.612510086086332e+00   6.188741583341662e+00   4.340490711875582e+00  1.16939484e+00  -7.61550540e-01   1.18758836e+00
C     9.215386807416217e-01   6.178523581246544e+00   6.179361095599632e+00  2.64434120e-01   5.36049120e-01   5.21632310e-01
C     2.711207975132889e+00   4.432801825366522e+00   6.169630660212019e+00 -2.30100850e-01   3.23773900e-01   1.81760760e-01
C     3.556444847471430e+00   3.634392042458362e+00   3.497807895784407e+00  2.33186937e+00  -2.56822284e+00   2.07510512e+00
C     5.386063761324002e+00   5.310115241525135e+00   3.467485213077369e+00 -1.82759860e+00   2.33219326e+00   3.35352071e+00
C     3.572352431031597e+00   5.305623144934652e+00   5.253301031566333e+00 -1.03068437e+00   1.93809286e+00   1.37596506e+00
C     5.332229046706372e+00   3.481713502877787e+00   5.380616363817617e+00  2.00399136e+00   4.64137048e+00  -3.98155163e+00
C     4.538078630632115e+00   4.494640694938497e+00   4.405223420296161e+00 -2.72484474e+00  -1.75430447e+00   2.94991220e-01
C     6.206161554898461e+00   6.244669657336655e+00   4.511220664194290e+00  1.70226815e+00  -1.08002667e+00  -2.47074469e+00
C     4.299886548859429e+00   6.236868447848110e+00   6.297608852872617e+00  3.76557423e+00  -1.69980443e+00  -3.07773276e+00
C     6.232901948026151e+00   4.496966144314404e+00   6.232372583793639e+00 -3.86456750e-01  -3.52441258e+00  -4.88999540e-01
