64
Lattice="7.10842262195238 0 0 0 7.10842262195238 0 0 0 7.10842262195238 " PBC="1 1 1" Properties=species:S:1:pos:R:3:force:R:3 Energy="-511.98527428"
C     7.069229407789689e+00   7.060294547061706e+00   7.104697237873310e+00  1.17066327e+00   1.45560269e+00  -9.85852010e-01
C     1.757402742434562e+00   1.796691705097565e+00   8.142129437400400e-03 -4.80076080e-01  -4.73244690e-01  -6.92834170e-01
C     7.084478964667922e+00   1.736375530735019e+00   1.771989154566576e+00  3.15876950e-01   9.37736730e-01  -1.36523420e-01
C     1.769136046979587e+00   7.081838470001498e+00   1.703607977152058e+00  1.27464645e+00   9.38043580e-01   1.69078505e+00
C     8.594288380993718e-01   8.742865076385647e-01   8.239971188026604e-01  2.81439410e-01  -1.80239930e-01   2.01654855e+00
C     2.614229329181204e+00   2.668819384786435e+00   9.058678076547008e-01  3.59393610e-01  -1.14985580e-01  -2.51813860e-01
C     8.295649329882278e-01   2.645767196735132e+00   2.707791169632133e+00  1.77575496e+00  -4.05444920e-01  -1.44273030e+00
C     2.681580496158086e+00   8.897863520772487e-01   2.639311256227422e+00 -7.63619690e-01  -4.39269870e-01   6.39297430e-01
C     3.575161963987926e+00   5.784500232292860e-02   7.033913484697457e+00  5.65548520e-01  -1.82842610e+00   2.85513271e+00
C     5.339222241795701e+00   1.830148775674666e+00   1.705808176121400e-02 -6.18329320e-01  -9.95691770e-01  -7.26201950e-01
C     3.536145040658591e+00   1.810790905943203e+00   1.744687267136133e+00  1.73526950e-01  -1.70464284e+00   9.86863920e-01
C     5.354679506782892e+00   7.039393509863668e+00   1.755670135505164e+00 -1.85249734e+00   2.87544988e+00  -1.26322770e-01
C     4.444375048234144e+00   9.566402848918604e-01   8.629380530941871e-01  7.27694300e-02  -2.44389797e+00  -2.20019760e-01
C     6.169283982440842e+00   2.661343456716981e+00   9.485167084374982e-01  2.74225977e+00   7.59206600e-02  -1.63099521e+00
C     4.409941564725959e+00   2.618283191517165e+00   2.662937875910647e+00  9.84910670e-01   1.84590216e+00   9.03236920e-01
C     6.216889728485017e+00   8.816756418678285e-01   2.632017659198171e+00  7.12079780e-01  -1.86808581e+00   1.36433282e+00
C     7.103860718699388e+00   3.569314220119582e+00   1.615907955246260e-02 -1.04483031e+00  -3.02716490e-01   9.22178280e-01
C     1.820033490286406e+00   5.377076369352856e+00   8.438053071071001e-03 -3.37462100e-01  -2.62785493e+00  -1.25377331e+00
C     3.956085982821700e-02   5.373313454754734e+00   1.785054151005232e+00 -1.63758464e+00  -2.89341066e+00  -4.71040940e-01
C     1.737295005200916e+00   3.540117582639778e+00   1.810652007365209e+00 -3.57197540e-01   1.85202670e-01  -6.25289680e-01
C     8.775713808154930e-01   4.433665498714853e+00   8.864620271547794e-01  8.31793780e-01   1.22498095e+00   5.78119510e-01
C     2.721978372749807e+00   6.202925587669158e+00   8.520903869233886e-01 -1.19045776e+00   1.14076285e+00   3.13101950e-01
C     9.071200273834400e-01   6.200559051610508e+00   2.636278803137730e+00  5.70461750e-01   1.53849606e+00   6.52359610e-01
C     2.610177528287804e+00   4.430458818186744e+00   2.681383095261928e+00  1.15138101e+00   3.43896150e-01  -2.52624490e-01
C     3.499079805843804e+00   3.503168144029471e+00   7.097550714108067e+00  2.11880962e+00   9.71880100e-01   4.76839240e-01
C     5.280839984891154e+00   5.224639302888684e+00   3.571257307442760e-02  2.01507784e+00   3.39889644e+00  -1.40278429e+00
C     3.531644982634774e+00   5.283580281811163e+00   1.765613681402925e+00  4.97628090e-01   3.93846560e-01  -4.51035530e-01
C     5.352551458303142e+00   3.519989586401665e+00   1.823288010498747e+00 -1.37958145e+00   1.21085332e+00  -2.43635250e-01
C     4.454807653608161e+00   4.366445482135310e+00   8.800751805149355e-01 -2.05967316e+00   1.72942230e-01   1.50007888e+00
C     6.208295503368985e+00   6.172094155155206e+00   8.969853360014273e-01  2.36676050e-01   4.98300300e-02  -6.94483440e-01
C     4.418745346140830e+00   6.186269984796688e+00   2.595250054038484e+00  9.32220870e-01   5.35274380e-01   2.26474077e+00
C     6.243056827328404e+00   4.476248717672640e+00   2.701266988267271e+00 -3.41792910e-01  -1.26116338e+00  -1.03319604e+00
C     2.956641762449700e-02   7.041180496226110e+00   3.536199206838956e+00 -9.80054420e-01   2.72460264e+00   1.24209536e+00
C     1.756538713665102e+00   1.750718337223846e+00   3.565275925229161e+00  2.16260170e-01   9.26032900e-01  -1.38216170e-01
C     7.088156293857701e+00   1.777564077174764e+00   5.373549596554170e+00  7.74186660e-01   4.93488790e-01  -8.42021800e-01
C     1.832202327885358e+00   1.872294542304420e-02   5.293300765407109e+00 -6.76447450e-01   7.52131030e-01   2.93002712e+00
C     9.206182110965581e-01   9.071038201798665e-01   4.510500296645980e+00 -1.06560462e+00  -1.30264944e+00  -2.66908002e+00
C     2.602403686226347e+00   2.694920943973266e+00   4.449702810987834e+00  1.48973797e+00  -1.29398286e+00  -3.91717970e-01
C     8.324486778767094e-01   2.717522671283139e+00   6.233052788754146e+00  1.19167762e+00  -2.24803560e+00   7.22433110e-01
C     2.688770239132858e+00   9.177213156262294e-01   6.242837674659030e+00 -5.53191760e-01   9.37286040e-01  -2.36030992e+00
C     3.620155293635026e+00   7.106657243242323e+00   3.583602007417331e+00 -9.64303350e-01   6.81493410e-01  -2.46594427e+00
C     5.387633869712308e+00   1.785890528010701e+00   3.546736661446618e+00 -1.72825603e+00  -8.53730660e-01   2.57832600e-02
C     3.591675611660674e+00   1.834837277982140e+00   5.280836643932522e+00 -1.09435736e+00  -1.38573925e+00   1.58455874e+00
C     5.320839576563477e+00   4.211200162230880e-02   5.335830884447926e+00  1.55346093e+00  -1.87751889e+00   6.09719420e-01
C     4.505095620759541e+00   8.836780134356564e-01   4.452054135022077e+00 -1.28133698e+00   1.67534207e+00  -1.23352135e+00
C     6.238004231614334e+00   2.693328088632576e+00   4.449839150533686e+00 -1.73920670e-01  -7.70141520e-01  -1.51362930e-01
C     4.447476737360155e+00   2.698488234780887e+00   6.204283296389579e+00  1.07320810e-01  -5.40837040e-01  -3.42735810e-01
C     6.213331962963707e+00   9.044068135536123e-01   6.235360324905051e+00 -4.12715230e-01  -4.63484030e-01   3.50539860e-01
C     2.525345328403820e-02   3.557363326758160e+00   3.574253720829768e+00 -1.17493032e+00   1.10575618e+00   3.63826960e-01
C     1.773208462298585e+00   5.381911518418981e+00   3.562869368751160e+00  9.66061260e-01  -1.17784660e+00   5.05967560e-01
C     7.107017995690287e+00   5.319412773975190e+00   5.376359698184308e+00 -2.39250530e-01   1.34979569e+00  -6.48275350e-01
C     1.719881715561381e+00   3.536193093595502e+00   5.372444450089438e+00  1.58354630e+00   2.00425051e+00  -1.67416051e+00
C     8.638959841264584e-01   4.497509156718347e+00   4.467450622995867e+00  1.17637704e+00  -1.54837980e+00  -8.99422400e-02
C     2.750125807050900e+00   6.287033083867033e+00   4.482283839561247e+00 -1.99546509e+00  -2.23614243e+00  -1.91498163e+00
C     9.467266654533297e-01   6.240323070157205e+00   6.212649625476413e+00 -1.50275447e+00  -7.61914740e-01   2.67202500e-02
C     2.712017197963949e+00   4.387201791848805e+00   6.202256329679485e+00 -2.19591388e+00   2.38262804e+00   4.72118700e-01
C     3.505975970964371e+00   3.530878339255207e+00   3.545119353132115e+00  6.21287370e-01   1.08513523e+00   4.59910060e-01
C     5.300244485875004e+00   5.338078852017275e+00   3.520498336208578e+00  1.21394182e+00  -1.36068000e-03   7.71873960e-01
C     3.595055524448032e+00   5.337966823276784e+00   5.325311200896814e+00 -8.27087860e-01  -7.41859350e-01  -2.01588410e-01
C     5.361104312399526e+00   3.593446319735316e+00   5.307661271868259e+00 -1.04556338e+00  -6.10776300e-01   5.77167510e-01
C     4.454511090216455e+00   4.471505978100577e+00   4.405946560129293e+00 -6.16138820e-01  -1.14882428e+00   3.52284890e-01
C     6.203152488519188e+00   6.217456838441641e+00   4.467907054812297e+00  5.78935330e-01   2.32356710e-01  -9.41042940e-01
C     4.448636618679060e+00   6.206832305656884e+00   6.199398032943983e+00  4.00156800e-01   5.52664860e-01   1.08246796e+00
C     6.218852506138852e+00   4.430133465683427e+00   6.250326397889199e+00 -8.02742700e-02   3.23209690e-01  -5.29614960e-01
