64
Lattice="7.10842262195238 0 0 0 7.10842262195238 0 0 0 7.10842262195238 " PBC="1 1 1" Properties=species:S:1:pos:R:3:force:R:3 Energy="-511.20238172"
C     1.290590994041960e-02   7.053976012363241e+00   5.492969603801420e-02 -1.71636725e+00   1.08521671e+00  -2.84812049e+00
C     1.708678272838451e+00   1.738884946088332e+00   2.001703376101520e-02  2.27791754e+00   1.14933910e+00   6.27945120e-01
C     2.087601555041600e-03   1.790087340725549e+00   1.811200919759925e+00 -4.40464640e-01  -9.99652360e-01  -3.75376360e-01
C     1.772808755694662e+00   7.048484045047029e+00   1.801927698115230e+00  3.17704170e-01   2.72489721e+00  -1.28736369e+00
C     8.536951133298536e-01   8.496611545772298e-01   8.923186565513974e-01  5.33221070e-01   5.43665100e-02   1.34853309e+00
C     2.643330002955639e+00   2.647391115882672e+00   9.349094815213894e-01  2.45270090e-01   9.36910350e-01  -3.06197606e+00
C     9.109632671571691e-01   2.605394697212164e+00   2.669166133641839e+00 -4.30684260e-01   3.35779894e+00  -2.13127490e-01
C     2.674165487270485e+00   9.527459355594933e-01   2.667751628624685e+00  3.06411440e-01  -2.79251939e+00  -2.32891990e-01
C     3.523045639454455e+00   6.931138559857200e-03   3.614341456942580e-02  3.04383490e-01   7.72675590e-01  -1.33505464e+00
C     5.363675642113860e+00   1.820581052080825e+00   7.046470228918783e+00 -2.21219890e-01  -1.86534061e+00   2.71072144e+00
C     3.545772261749762e+00   1.844788572060556e+00   1.781227758193112e+00 -6.25623100e-01  -1.65212386e+00   1.02867869e+00
C     5.287231594174153e+00   6.099524197543399e-03   1.760399155821571e+00  1.27070722e+00   1.32144037e+00   8.53968400e-01
C     4.387832308935200e+00   9.342950294701167e-01   9.355579118327858e-01  1.46100499e+00  -4.28040850e-01  -2.00130692e+00
C     6.278741819723066e+00   2.712526445360446e+00   9.475670231754661e-01 -1.58401767e+00  -1.36436712e+00  -2.85674482e+00
C     4.421335157753973e+00   2.690280850023834e+00   2.679584664339068e+00  1.61581759e+00  -1.36741110e+00  -3.02957790e-01
C     6.204605450102716e+00   9.261703867523614e-01   2.725035349897539e+00 -5.05231510e-01  -9.25301280e-01  -1.52318545e+00
C     1.452606162397000e-03   3.610766844459660e+00   2.665978361517900e-02  6.62610550e-01  -1.05192806e+00  -8.55857700e-01
C     1.812852988261040e+00   5.301035084638800e+00   7.058247676768278e+00 -1.23168273e+00   7.11118700e-01   8.90979500e-02
C     7.095144513051197e+00   5.378070837677395e+00   1.763787030042263e+00  3.54147700e-02   1.76403640e-01  -1.49747800e-02
C     1.770769278160758e+00   3.569378622428520e+00   1.742447758589702e+00  6.48970210e-01  -1.08114469e+00   1.27901954e+00
C     9.208689962465917e-01   4.475884837518723e+00   8.546366239058726e-01 -1.04000074e+00  -3.04592400e-02   1.07738353e+00
C     2.641345900033945e+00   6.200117547481580e+00   8.221037193535972e-01  4.02254660e-01   1.76351910e-01   2.72364537e+00
C     8.769830166752356e-01   6.255017317060363e+00   2.687461507444290e+00 -6.85673860e-01  -1.34815135e+00  -1.10518020e-01
C     2.700100638283781e+00   4.422069528894847e+00   2.628540289936693e+00 -2.04331913e+00   1.21836824e+00   8.74886750e-01
C     3.622643241552026e+00   3.543170152565485e+00   7.097549932181579e+00 -3.53751256e+00  -1.58900911e+00  -1.49845751e+00
C     5.269642513243224e+00   5.257201209805249e+00   1.749532083657020e-02  1.76192096e+00   2.97560170e+00  -8.50472580e-01
C     3.525697010007489e+00   5.314964749604952e+00   1.744356156810493e+00  1.02960325e+00  -7.16594500e-02  -1.52505070e-01
C     5.314175146020322e+00   3.514584128588738e+00   1.729122949304286e+00  5.19541560e-01   1.94913300e+00   2.71190426e+00
C     4.393598874617222e+00   4.378830060360779e+00   8.601956947316174e-01  2.20592271e+00   1.55976727e+00   1.47020984e+00
C     6.163274664126346e+00   6.274818183689504e+00   8.691910481360964e-01  8.09330270e-01  -3.06498432e+00   1.20577534e+00
C     4.467954325822720e+00   6.210213142539182e+00   2.629334798332931e+00 -1.90391812e+00   5.44012870e-01   6.49293140e-01
C     6.221961588024388e+00   4.495879835169617e+00   2.634874178828019e+00  2.28165500e-02  -1.43030057e+00   2.41439450e-01
C     2.684495802443000e-03   7.965833448001780e-02   3.588204853232233e+00 -6.81819880e-01  -3.00677958e+00  -4.31387610e-01
C     1.778639652601396e+00   1.753512587071541e+00   3.566433745105506e+00  8.40585600e-01   1.28939371e+00  -6.72583630e-01
C     3.083306745115480e-02   1.751295896561720e+00   5.361284795249848e+00 -3.38793860e-01   6.20510350e-01  -6.09799250e-01
C     1.794389500263625e+00   3.836842193371200e-02   5.339949931019311e+00 -6.79045750e-01  -2.12685787e+00  -5.74182650e-01
C     9.436882412886369e-01   8.680361427130249e-01   4.420442553125581e+00 -1.73563067e+00   1.44692681e+00   2.18160413e+00
C     2.673970361069566e+00   2.659817562717372e+00   4.432855067451946e+00  8.74273750e-01  -1.17861430e-01  -7.90666950e-01
C     9.028748773947760e-01   2.667478096522268e+00   6.275892621768517e+00 -7.14914820e-01  -4.54129390e-01  -1.25663445e+00
C     2.625454665845804e+00   9.177473324530186e-01   6.221279748126677e+00  1.37512453e+00  -6.01768390e-01   3.42101200e-01
C     3.581431237317635e+00   3.780635895714860e-02   3.537011983881327e+00 -8.87560080e-01  -1.58954547e+00   2.82838710e-01
C     5.277832411280632e+00   1.724772807913524e+00   3.624001376777803e+00  2.86987736e+00   2.95197512e+00  -2.34469342e+00
C     3.566072708320636e+00   1.785472694929097e+00   5.290378492868027e+00 -4.78444730e-01  -5.69672670e-01   1.83014739e+00
C     5.319594891762715e+00   7.098550229412665e+00   5.378566934492045e+00 -8.07849390e-01  -1.06966525e+00  -4.61819690e-01
C     4.453810484083027e+00   8.675631482718902e-01   4.457852972942796e+00 -1.18652017e+00  -3.66103920e-01   7.04536880e-01
C     6.276149733414683e+00   2.657447970036995e+00   4.452017810982490e+00 -1.68100569e+00  -1.90307800e-02  -1.06473342e+00
C     4.490125069469143e+00   2.650312322158361e+00   6.169307937825071e+00 -7.66411190e-01   1.27095577e+00   5.72480400e-02
C     6.185260304447744e+00   8.264349523401894e-01   6.227779974107309e+00  2.56717865e+00   2.26591949e+00   6.46416870e-01
C     1.474492995643980e-02   3.593783614388635e+00   3.501197120605397e+00  1.16345080e-01  -2.17247427e+00   2.19867409e+00
C     1.752552381344032e+00   5.322909833567326e+00   3.526997780262723e+00  1.13789978e+00  -3.12203100e-02   1.98265564e+00
C     2.887931749404780e-02   5.376669269989409e+00   5.344052414965992e+00 -2.05757500e+00  -2.77232563e+00  -4.02657490e-01
C     1.836074783276055e+00   3.498176396413028e+00   5.321255419286747e+00 -1.67225545e+00   1.45838444e+00   1.75975791e+00
C     9.027493426513068e-01   4.390197210056647e+00   4.528511404627857e+00 -1.80672080e-01   1.86483659e+00  -4.08534473e+00
C     2.654274414758296e+00   6.235786972430704e+00   4.450545087984078e+00  8.25664410e-01  -4.51731000e-01  -8.77458540e-01
C     8.724827453987398e-01   6.174480026123383e+00   6.188819278400899e+00  2.00427015e+00   2.69396886e+00   2.03487759e+00
C     2.699689273866762e+00   4.448791795544855e+00   6.194764905248720e+00 -8.05871500e-02  -2.21864111e+00   5.56238220e-01
C     3.598542276827368e+00   3.573266929601660e+00   3.524927665427326e+00 -2.18166946e+00  -3.32931310e-01   4.08012670e-01
C     5.323683158864156e+00   5.345994720362681e+00   3.543494794226540e+00  5.03450930e-01   4.04324800e-02   2.75372900e-02
C     3.535782937610328e+00   5.305825237389739e+00   5.342803536195884e+00  1.32307594e+00   1.56032756e+00  -1.49104397e+00
C     5.347072499400324e+00   3.556681557944676e+00   5.236926424640032e+00  1.10022771e+00   3.48613300e-02   2.89139445e+00
C     4.456556538825359e+00   4.427065043975277e+00   4.399987000773137e+00 -3.44998100e-01   1.14352970e+00   6.02015440e-01
C     6.171569553565850e+00   6.216947733213597e+00   4.506853320420789e+00  2.11848544e+00   8.03160910e-01  -2.27055707e+00
C     4.434055822200916e+00   6.202496736532494e+00   6.257682335784827e+00 -1.07302852e+00  -3.40496000e-03  -4.80094840e-01
C     6.223394646024579e+00   4.477453168801373e+00   6.218811064034977e+00 -5.72499620e-01  -1.15837974e+00  -7.72323100e-02
