64
Lattice="7.10842262195238 0 0 0 7.10842262195238 0 0 0 7.10842262195238 " PBC="1 1 1" Properties=species:S:1:pos:R:3:force:R:3 Energy="-508.28533825"
C     7.819584761017900e-02   6.740746568403119e-02   1.323124111846914e-01 -4.72799242e+00  -1.68014339e+00  -4.33534919e+00
C     1.804863832078421e+00   1.785511720169281e+00   7.100518338383464e+00 -3.40006150e-01   1.46815680e-01  -5.76893200e-02
C     7.095657314659004e+00   1.841529147036608e+00   1.847836663680012e+00  9.54061580e-01  -1.11834790e-01  -3.54715441e+00
C     1.761262687001449e+00   9.933814467194019e-02   1.769901126506178e+00  4.26049100e-01  -3.43509197e+00   1.42361836e+00
C     8.822055036899233e-01   9.577530373687951e-01   8.818860511773806e-01  1.88583131e+00   1.41876137e+00   2.70490799e+00
C     2.721279543722035e+00   2.673290795867094e+00   8.401107755345811e-01 -8.77333770e-01  -4.84649500e-01   1.99554111e+00
C     9.077157842832221e-01   2.752733389720595e+00   2.638425262432065e+00  9.39899310e-01  -1.74871126e+00   7.57564540e-01
C     2.663511809952986e+00   9.002023237423347e-01   2.735334743431657e+00 -6.05802460e-01  -7.43152230e-01  -1.83065708e+00
C     3.537310395462914e+00   6.998052132337594e+00   3.256290209573180e-02 -5.49595100e-01   2.84557699e+00   1.41382050e-01
C     5.297809780043427e+00   1.701536085211006e+00   6.128775356624700e-02  8.49081370e-01   2.34814753e+00  -1.72741611e+00
C     3.473760102060947e+00   1.691354691492380e+00   1.772905501326521e+00  3.83350478e+00   2.31770971e+00  -8.80858800e-02
C     5.311761907625058e+00   1.770921327320600e-03   1.847263724816840e+00 -4.37625620e-01   4.02466160e-01  -1.60595420e-01
C     4.391862286971157e+00   7.959658361271786e-01   9.269426457857982e-01  9.07018570e-01   9.23274750e-01  -1.18020260e-01
C     6.194968988062140e+00   2.688277483276840e+00   8.697481352168258e-01  8.42231030e-01  -1.14194787e+00   1.21118360e+00
C     4.478786495632207e+00   2.665368387772878e+00   2.602947622725229e+00 -2.84165655e+00   1.52483653e+00  -5.07875520e-01
C     6.260136731947061e+00   9.179146647214934e-01   2.657568813221535e+00 -2.11982795e+00   4.34921510e-01   1.13500902e+00
C     9.561432639822701e-02   3.518260036093992e+00   7.089171660944742e+00 -4.32852106e+00  -4.37481080e-01   1.02525454e+00
C     1.714746875397597e+00   5.338267367385157e+00   7.070103032929687e+00  1.95313283e+00  -6.54849060e-01   2.27580455e+00
C     5.655532120698199e-03   5.358087071334241e+00   1.770567896547933e+00  9.57874200e-02  -1.65634388e+00   1.54043900e-02
C     1.897662796613771e+00   3.590247031966733e+00   1.736826702318711e+00 -3.47782761e+00  -5.44534460e-01   9.26902400e-02
C     9.191861482755328e-01   4.379307177687034e+00   8.532979657580742e-01 -1.10466000e-02   2.87691289e+00   5.89314820e-01
C     2.597610334685228e+00   6.217181387065116e+00   9.103950198529264e-01  1.20358262e+00  -4.41205400e-02  -4.89883100e-01
C     8.972828945723005e-01   6.193922770420929e+00   2.637457379608126e+00 -2.73328920e-01   1.72234538e+00   4.17980270e-01
C     2.691661447865091e+00   4.517756147951118e+00   2.629777653062157e+00  2.81216210e-01  -3.71575124e+00   3.41974290e-01
C     3.600360895670469e+00   3.571027989729039e+00   7.106707997379830e+00 -1.71627790e-01   2.33391500e-02  -9.73615720e-01
C     5.418137106353893e+00   5.401881494422252e+00   7.085880390187455e+00 -1.73851668e+00  -1.55163057e+00   8.69386060e-01
C     3.587997074039051e+00   5.332943158842777e+00   1.777253083685139e+00 -1.97765729e+00   1.92752128e+00  -7.96610980e-01
C     5.278294529835158e+00   3.596784292829216e+00   1.704623983997134e+00  2.41593830e+00   9.24995000e-03   3.30575120e-01
C     4.486603130397838e+00   4.538832549935193e+00   8.133811872092738e-01 -8.62139240e-01  -2.11714973e+00   2.18580527e+00
C     6.226742357657469e+00   6.286786777023251e+00   1.000834556752246e+00  7.63850900e-01  -8.88801780e-01  -3.40782301e+00
C     4.362411167961556e+00   6.210173548625189e+00   2.713472931832299e+00  3.40901171e+00   3.72797160e-01  -4.35748970e-01
C     6.197884649768185e+00   4.483557739978977e+00   2.632954549299487e+00 -8.30382700e-02  -1.30441170e+00  -2.25638620e-01
C     1.103234299046620e-02   7.051341986361400e-03   3.520661758844612e+00 -4.16380700e-02  -6.85000000e-02   5.71585860e-01
C     1.836588224641898e+00   1.809637990878466e+00   3.557898662065673e+00 -1.93729893e+00  -1.13870800e-02   9.49738710e-01
C     7.065622096562718e+00   1.795507228636394e+00   5.337018630783502e+00  1.86886099e+00  -1.13222092e+00  -8.72346240e-01
C     1.739624577461943e+00   7.028953014140543e+00   5.368907512246405e+00  7.54819230e-01   2.88081645e+00  -1.06734149e+00
C     8.987640055094038e-01   8.738851660974396e-01   4.388090060339400e+00  6.44647000e-03   6.31459020e-01   2.49080890e+00
C     2.763845631381310e+00   2.651982019547572e+00   4.442105399975804e+00 -3.54603363e+00   7.44557500e-02   9.72549720e-01
C     9.006091387688772e-01   2.645835011086927e+00   6.223328608778440e+00  4.60011070e-01  -1.02703930e-01  -1.50620056e+00
C     2.700151605673967e+00   8.694813561158972e-01   6.275130172358296e+00 -2.27410937e+00  -1.56901929e+00  -5.83108980e-01
C     3.536284578994622e+00   7.069213058417664e+00   3.652784730566480e+00 -1.93379240e+00  -3.68363400e-02  -3.50599712e+00
C     5.333564008474408e+00   1.905630485360077e+00   3.476188125975261e+00  7.79292360e-01  -5.42871736e+00   2.88775227e+00
C     3.548918591769826e+00   1.720027651477769e+00   5.432701908881143e+00  9.65031870e-01   1.38617637e+00  -3.41734961e+00
C     5.309583318260481e+00   7.087793906472534e+00   5.364679209219351e+00  5.36732680e-01   4.30077400e-01  -1.53350653e+00
C     4.343954290797178e+00   8.100510333802562e-01   4.469140792642224e+00  4.08106520e+00   3.14046583e+00   1.58727494e+00
C     6.225021692878071e+00   2.641767429495311e+00   4.451187120715116e+00 -1.07373107e+00   3.13121978e+00  -1.67632134e+00
C     4.462556900527354e+00   2.634457127672903e+00   6.239642225438661e+00 -2.44983420e-01   1.41796780e-01   3.73867300e-02
C     6.212519399174015e+00   9.265502608571742e-01   6.200004665730374e+00 -5.28435030e-01  -2.02077326e+00   2.46647494e+00
C     7.085245679131717e+00   3.603209240614302e+00   3.514515745563134e+00  2.94663220e-01  -2.23368728e+00  -5.09585990e-01
C     1.749033569978679e+00   5.272425602867408e+00   3.532073549434534e+00  1.90774653e+00   2.65293543e+00  -1.47949407e+00
C     4.485151661583060e-02   5.249659955331917e+00   5.244741922058044e+00 -2.62072838e+00   2.87919817e+00   2.48175349e+00
C     1.742660229341814e+00   3.569120942108545e+00   5.354453814364707e+00  2.51644736e+00  -1.47915395e+00  -2.30111252e+00
C     8.896493016891349e-01   4.389798925137248e+00   4.315810766128526e+00  3.95948190e-01   1.32115623e+00   4.89742464e+00
C     2.637044167001226e+00   6.172715146955290e+00   4.424897757002666e+00 -1.11439398e+00  -5.10845630e-01   2.46235895e+00
C     8.243195568527036e-01   6.251508457486679e+00   6.288867483408351e+00  1.70946939e+00  -2.04878367e+00  -2.36971720e+00
C     2.684635482947483e+00   4.435915740979439e+00   6.235545499314302e+00 -2.02102502e+00   5.62396990e-01  -1.01405372e+00
C     3.555527505532319e+00   3.551994548405953e+00   3.496011668472559e+00  8.32079790e-01   1.84818330e-01   1.89971807e+00
C     5.332603376241541e+00   5.309798205876284e+00   3.513202962073672e+00 -1.53077377e+00   1.51589104e+00   2.10309669e+00
C     3.539078118000056e+00   5.308336074427576e+00   5.327240213543203e+00 -4.67038360e-01   3.06788000e-03   5.92297560e-01
C     5.322190603366634e+00   3.585462281616984e+00   5.297310697691277e+00 -6.95244500e-02  -2.95141039e+00   2.32396077e+00
C     4.380140284818097e+00   4.426891314126445e+00   4.483610982064401e+00  2.94653289e+00   2.18281010e-01  -2.78209241e+00
C     6.236107704459318e+00   6.234297331386457e+00   4.401294595114087e+00 -8.49307160e-01  -1.60999262e+00   1.13571174e+00
C     4.391905435096460e+00   6.201921949479440e+00   6.244431454094659e+00  2.94373563e+00  -4.50448030e-01  -1.37644503e+00
C     6.218527935562022e+00   4.355621060506479e+00   6.254209373745374e+00  1.94752920e+00   3.46501647e+00  -2.68139357e+00
