64
Lattice="7.10842262195238 0 0 0 7.10842262195238 0 0 0 7.10842262195238 " PBC="1 1 1" Properties=species:S:1:pos:R:3:force:R:3 Energy="-511.84392927"
C     2.843091819517820e-02   1.573897177562060e-02   1.546664810504840e-02 -1.08113938e+00  -3.61614610e-01  -4.87879220e-01
C     1.825336586813605e+00   1.769998440811845e+00   7.074358063625794e+00 -7.96550940e-01   4.74491700e-02   1.13500696e+00
C     7.075894762427784e+00   1.809703032945439e+00   1.772549724774390e+00  1.88970646e+00  -4.47493050e-01  -1.08713250e-01
C     1.723292478902909e+00   5.368401605808540e-02   1.818072845159358e+00  8.92229650e-01  -2.51904965e+00  -9.49612650e-01
C     9.388213886576278e-01   8.731389238907920e-01   8.436404627865421e-01 -2.19031574e+00   1.98325217e+00   1.80717430e+00
C     2.676390992224354e+00   2.700669454261833e+00   9.017190478767639e-01  3.31774280e-01  -1.74174588e+00  -3.46860240e-01
C     9.203924475941467e-01   2.668488487713474e+00   2.652194063794327e+00 -1.66240461e+00  -6.11978600e-02   9.67753320e-01
C     2.632134237329140e+00   8.830025000340778e-01   2.710278904296454e+00  1.21035936e+00   1.11864408e+00  -1.70529068e+00
C     3.524779170478795e+00   7.035742197500679e+00   3.363790884855440e-02  5.55899940e-01   1.40120883e+00  -1.41813358e+00
C     5.284382396219605e+00   1.709967740701719e+00   7.051497376479873e+00  1.14006900e-01   2.84542203e+00   2.30613941e+00
C     3.543786026301282e+00   1.767525776003478e+00   1.824177913926545e+00  2.99723110e-01  -1.36627100e-02  -2.26195547e+00
C     5.392274319082869e+00   2.851401565560600e-02   1.769737774954370e+00 -1.88597456e+00  -8.71073960e-01   8.86523300e-01
C     4.438364592572030e+00   8.604901966807640e-01   8.934479716530367e-01 -6.84931450e-01  -2.92977790e-01  -1.02818200e-02
C     6.212335788617740e+00   2.658275390429963e+00   8.881434534413142e-01 -4.30123830e-01   4.28635700e-02  -1.73060140e+00
C     4.462777474881253e+00   2.656785109627680e+00   2.621218188132736e+00 -5.06917630e-01   1.15392700e-01   1.21044377e+00
C     6.200357598913457e+00   9.528033005300367e-01   2.703790336128918e+00  1.61261430e+00  -1.62416103e+00  -1.37722236e+00
C     7.105429049982039e+00   3.564345503792429e+00   7.089825280404651e+00  1.08121759e+00  -1.38076827e+00   1.35667340e+00
C     1.731394374668281e+00   5.293906545182785e+00   1.850208673224080e-02  9.32982180e-01   2.03295301e+00  -4.15274520e-01
C     7.071449368173915e+00   5.285917246831715e+00   1.775098591873243e+00  8.85751430e-01   2.06635594e+00  -1.53086400e-01
C     1.830277864629445e+00   3.533516132721037e+00   1.806548599323587e+00 -2.25851918e+00   1.23499601e+00  -1.78491988e+00
C     8.868000326503604e-01   4.466452529375792e+00   8.899429506275672e-01 -6.16813260e-01  -2.34096266e+00   5.74379630e-01
C     2.566113624898270e+00   6.211835426749518e+00   9.019594547297722e-01  3.31524240e+00   3.24411200e-02   9.12303710e-01
C     8.269915418313354e-01   6.233564097593204e+00   2.695876173804941e+00  4.29311270e-01  -2.40979750e-01  -1.23189543e+00
C     2.672938147020916e+00   4.457333560501952e+00   2.620523766326988e+00  1.05149132e+00  -6.51145420e-01   1.72896527e+00
C     3.514015810200269e+00   3.616630866615803e+00   2.201997400265260e-02  2.35531659e+00  -1.69354165e+00   2.04502900e-02
C     5.386253058618371e+00   5.359168831088552e+00   7.059221601751444e+00 -1.94543451e+00  -8.21519140e-01   2.14461859e+00
C     3.617275884884342e+00   5.334023567996791e+00   1.819865944765253e+00 -2.16767584e+00   1.02727017e+00  -1.48914606e+00
C     5.297474689001120e+00   3.549981656372648e+00   1.709403687366822e+00  1.10521978e+00  -3.43305090e-01   1.25732391e+00
C     4.463341741468828e+00   4.487260588405961e+00   8.928765966428411e-01 -7.19587380e-01  -4.96402300e-01  -1.29849814e+00
C     6.224678924739334e+00   6.215230053971700e+00   8.926553114466806e-01  9.75643040e-01   8.60009760e-01  -4.89729300e-01
C     4.495553629655585e+00   6.233222537886313e+00   2.693594512312374e+00 -6.59780300e-01   1.45470370e-01  -6.41914850e-01
C     6.182047084170825e+00   4.417652141826100e+00   2.600837558554708e+00  7.65150030e-01   6.92570000e-04   2.66063986e+00
C     5.840280024592000e-03   7.963907065471759e-02   3.582897420567236e+00 -7.26879010e-01  -2.79483927e+00  -7.60564140e-01
C     1.785378223992477e+00   1.800725237344831e+00   3.571928271453862e+00  7.30246700e-02  -3.49193360e-01  -9.91504300e-02
C     2.390079154367840e-02   1.777782163580745e+00   5.375696979943445e+00  2.29922490e-01   3.84873760e-01  -1.44585933e+00
C     1.767600343356762e+00   7.053233466536356e+00   5.330272097959086e+00 -3.50546050e-01   1.34696709e+00  -8.51162260e-01
C     9.270187059078322e-01   8.692485552750921e-01   4.415347022538886e+00 -1.14241290e+00   1.74568263e+00   2.47325519e+00
C     2.719135998880974e+00   2.691974218460371e+00   4.424733978945500e+00 -1.38633906e+00  -8.28789950e-01  -7.03235700e-02
C     9.452256509328907e-01   2.662045484534933e+00   6.208162220444860e+00 -6.08747860e-01   4.28637240e-01   3.67836200e-01
C     2.660043681640914e+00   8.342982894424334e-01   6.176044021268235e+00  1.29480200e-01   5.94542650e-01   1.82473053e+00
C     3.564214282310864e+00   2.305638202064860e-02   3.517576845595984e+00 -6.36096640e-01  -1.11415265e+00   1.68801987e+00
C     5.315845127746439e+00   1.761075308981185e+00   3.565652316206890e+00  1.08849850e-01   2.05321247e+00   7.74261480e-01
C     3.485417915157747e+00   1.757475461597965e+00   5.340411765236933e+00  2.95736505e+00   3.34785350e-01  -1.36368531e+00
C     5.358776232907251e+00   3.323116490623800e-03   5.317238023158827e+00 -1.27985159e+00   3.00913900e-01   3.15081260e-01
C     4.428705170326390e+00   8.913280978593003e-01   4.437567098638292e+00 -5.18195800e-02  -1.34371660e-01   1.57762250e-01
C     6.225922116771346e+00   2.678452221531476e+00   4.528881611277907e+00 -6.56197880e-01  -7.18913370e-01  -2.42407216e+00
C     4.394656465734625e+00   2.659042957904470e+00   6.203750591198435e+00 -3.70628600e-02  -3.37587040e-01   1.58438705e+00
C     6.205241298506076e+00   9.243597293425949e-01   6.220214266660165e+00  1.24016172e+00  -2.15040698e+00  -1.42709020e-01
C     7.055962247811721e+00   3.543322486062231e+00   3.559263621377165e+00  1.81120073e+00  -2.49939020e-01  -1.56894690e-01
C     1.735789512374226e+00   5.287367720467326e+00   3.506891251460922e+00  8.97982750e-01   1.94217827e+00   1.04448850e+00
C     7.098832007285322e+00   5.316836041859666e+00   5.370236929444798e+00  5.93354340e-01   1.04155110e-01  -1.39930585e+00
C     1.867669944716300e+00   3.571879436590462e+00   5.333492000153267e+00 -2.43080422e+00  -5.16815980e-01  -8.51758960e-01
C     8.989946027391966e-01   4.407985753326292e+00   4.421023879927444e+00 -5.45784920e-01   1.03219828e+00   9.62394210e-01
C     2.622527488495114e+00   6.237804698191391e+00   4.396372367870867e+00  1.51877683e+00  -1.86072884e+00   7.47766540e-01
C     8.549135680511477e-01   6.228091820607649e+00   6.238017950869990e+00  8.32610560e-01  -1.41983926e+00  -5.20122110e-01
C     2.690426217266414e+00   4.457340740008798e+00   6.244557984017296e+00 -1.35936060e+00   1.07094903e+00  -9.40659330e-01
C     3.603984769522145e+00   3.552423115205713e+00   3.490946633018905e+00 -1.21893149e+00  -2.60759000e-02   1.68715965e+00
C     5.389061027721724e+00   5.330068868156380e+00   3.580225080167473e+00 -1.90311674e+00  -9.53643800e-02  -8.01595760e-01
C     3.546830563709428e+00   5.360137780175885e+00   5.313390305078848e+00  9.51061600e-02  -1.32420101e+00  -4.23899280e-01
C     5.300417220544669e+00   3.548545470666502e+00   5.389154361310725e+00  1.65325520e-01  -3.62019980e-01  -1.45293926e+00
C     4.418919431410793e+00   4.399217869445653e+00   4.439337877797160e+00  1.70081490e+00   2.04539779e+00   1.87607200e-02
C     6.239292135624626e+00   6.238315225103960e+00   4.467809527253951e+00  3.93124230e-01  -5.07346600e-01  -3.62107890e-01
C     4.475332441996922e+00   6.188778547139287e+00   6.179989480159240e+00 -8.47709690e-01   1.24678175e+00   9.93789070e-01
C     6.214284704847466e+00   4.412934281733206e+00   6.259757355431832e+00  2.21845020e-01   1.09013257e+00  -1.64386032e+00
