64
Lattice="7.10842262195238 0 0 0 7.10842262195238 0 0 0 7.10842262195238 " PBC="1 1 1" Properties=species:S:1:pos:R:3:force:R:3 Energy="-511.66637733"
C     7.103235248593055e+00   7.061215585380579e+00   7.077527567103599e+00  3.49525710e-01   2.23202568e+00   2.19559831e+00
C     1.843136930064799e+00   1.802353563714394e+00   2.776116261592180e-02 -2.34525380e+00  -1.85940218e+00  -1.00695752e+00
C     7.086686414228337e+00   1.787266149956123e+00   1.780153320114099e+00  9.18297170e-01   4.06432390e-01  -2.84725580e-01
C     1.768698523567326e+00   3.294760992792620e-02   1.810606655628893e+00 -8.17382790e-01  -2.67124411e+00   2.13339200e-01
C     8.958872979593160e-01   8.615816949740650e-01   9.281107017907165e-01 -3.67291810e-01   1.43282119e+00  -1.26313835e+00
C     2.702287615587050e+00   2.669693294263338e+00   8.680932944308898e-01 -5.78856330e-01   2.26640850e-01   1.97853105e+00
C     8.917484899730471e-01   2.661097434210103e+00   2.671774782574927e+00  3.06229100e-01  -5.00433600e-02   1.68168320e-01
C     2.632724307490826e+00   8.460571843088898e-01   2.723243814144620e+00  1.99091313e+00   2.77546489e+00  -2.99133326e+00
C     3.462681269986546e+00   7.064160320535141e+00   3.551972156874700e-02  2.80793569e+00   8.66081420e-01  -1.20741539e+00
C     5.308117348263559e+00   1.736742751847568e+00   7.097448210653887e+00  3.83470730e-01   2.17623668e+00  -3.46736410e-01
C     3.554487898724144e+00   1.809613111399296e+00   1.798776889788915e+00  7.13867200e-02  -1.57670961e+00  -9.16929730e-01
C     5.342362387488087e+00   5.209322215995560e-02   1.776603302773445e+00 -2.16691450e-01  -1.33727143e+00   1.48416400e-01
C     4.423313005263762e+00   9.054682432192306e-01   8.840260418071316e-01 -6.12094920e-01  -8.83785960e-01   7.69598480e-01
C     6.239354405406777e+00   2.678451297436535e+00   8.175206349535783e-01 -1.40497290e+00  -1.10125170e+00   2.33387152e+00
C     4.448100856866191e+00   2.667441701398453e+00   2.653447918460269e+00  3.62756640e-01  -2.90109470e-01   5.75582540e-01
C     6.192485163030260e+00   9.666178801339709e-01   2.716865213275015e+00  1.09148076e+00  -2.72879221e+00  -2.03632172e+00
C     9.498985147106000e-04   3.569578440188368e+00   7.090658458619941e+00  6.38904200e-01  -6.94233380e-01   5.50009040e-01
C     1.771940035366272e+00   5.351996290496521e+00   7.095006893989273e+00 -6.40978640e-01  -1.41635569e+00   9.78901270e-01
C     7.073301041182200e+00   5.322051846957092e+00   1.718222396469194e+00  5.31062230e-01   1.50274512e+00   2.44003980e+00
C     1.826762536391177e+00   3.518812360531567e+00   1.830309070604747e+00 -2.47795604e+00   1.44486423e+00  -2.99174886e+00
C     8.159551470399757e-01   4.480663048119661e+00   9.056861874567599e-01  3.54320354e+00  -1.98263342e+00  -1.77151179e+00
C     2.617160558332788e+00   6.164167055502061e+00   9.276057194477918e-01  1.09264223e+00   2.54065088e+00  -6.41390280e-01
C     8.408009322867569e-01   6.231852176173629e+00   2.694501049449102e+00  4.09200830e-01  -6.30564310e-01  -1.55681271e+00
C     2.665235602438336e+00   4.460820952639324e+00   2.606359025824793e+00  8.50108400e-01  -1.20265531e+00   2.52751776e+00
C     3.549536242611278e+00   3.587980866835477e+00   2.065288216437420e-02  9.35450670e-01  -1.50974829e+00  -5.94161620e-01
C     5.352942208294563e+00   5.371663732033084e+00   2.902226787293600e-03 -1.48349113e+00  -1.94245702e+00  -9.80186500e-02
C     3.585500382762228e+00   5.338771781054273e+00   1.761495487842254e+00 -1.46210531e+00  -5.70767500e-01   5.68554420e-01
C     5.313875739259569e+00   3.554953002816171e+00   1.758029065551611e+00  5.20330440e-01  -1.88116510e-01  -8.30866740e-01
C     4.410010942930731e+00   4.440919430745883e+00   8.893361045884979e-01  1.95976424e+00   8.06361150e-01  -2.55176530e-01
C     6.235051606110665e+00   6.216653942106712e+00   8.773778895517766e-01 -1.02244555e+00   1.15404826e+00  -3.54003200e-02
C     4.460407740032423e+00   6.204708664399159e+00   2.661779629528945e+00  2.20618630e-01   1.52101707e+00  -4.64881190e-01
C     6.222238034580079e+00   4.445346911774751e+00   2.568020246013407e+00 -5.98462490e-01  -1.96648650e-01   3.81523355e+00
C     5.334871176309999e-04   4.184308999459420e-02   3.565963238612289e+00 -2.35649180e-01  -4.02464700e-01   3.85272690e-01
C     1.826318828651236e+00   1.804238646308992e+00   3.548210521792648e+00 -1.80582704e+00  -8.71228460e-01   7.44334450e-01
C     6.362009811209519e-02   1.739871381895309e+00   5.389785802492060e+00 -1.68326179e+00   1.38045373e+00  -1.20432856e+00
C     1.758992185732395e+00   7.085103084173959e+00   5.316214197048869e+00  4.29374230e-01   8.64374530e-01  -6.63061130e-01
C     9.553161990104329e-01   9.159104449637844e-01   4.443357122114960e+00 -2.17742808e+00  -4.67595790e-01   7.18381130e-01
C     2.704842027255547e+00   2.679938592701318e+00   4.401732118526348e+00 -4.63362360e-01  -4.38749930e-01   1.29345112e+00
C     9.348611442475734e-01   2.675586389867997e+00   6.250826617588968e+00  1.33651380e-01  -2.22458330e-01  -5.01274830e-01
C     2.657524598832839e+00   8.193185682868549e-01   6.178138731245897e+00 -3.22557240e-01   2.03608446e+00   2.03967996e+00
C     3.561375107232209e+00   7.101526525963659e+00   3.485580058277709e+00 -5.08301090e-01  -4.41499840e-01   3.40428040e+00
C     5.312718274804353e+00   1.755527327294728e+00   3.574258341304471e+00 -1.13487160e-01   1.58766100e+00   1.23643495e+00
C     3.512332038134270e+00   1.740568931407010e+00   5.319551601468960e+00  1.91888461e+00   1.15830285e+00   3.61366890e-01
C     5.329924709345646e+00   7.093850424713226e+00   5.358765783525999e+00 -3.40811340e-01   4.72540940e-01  -1.74275930e-01
C     4.458584571798846e+00   8.903912077579843e-01   4.503865721477829e+00 -1.01974733e+00  -9.47784860e-01  -2.71562425e+00
C     6.202825856499800e+00   2.619233090031875e+00   4.481182247307826e+00  6.73901620e-01   1.77294234e+00  -4.04902930e-01
C     4.425191121604193e+00   2.692918856742343e+00   6.209299781316739e+00 -2.10757710e-01  -1.06095927e+00   4.79024360e-01
C     6.200625870783136e+00   8.697902170787362e-01   6.253372356981870e+00  1.39276118e+00  -4.98942210e-01  -1.02679373e+00
C     7.072144785158829e+00   3.530068192329205e+00   3.554498205936943e+00  1.25724475e+00   2.33269600e-01   9.27992000e-02
C     1.740347504042397e+00   5.273176820969889e+00   3.518246316838336e+00  2.66435440e-01   2.29260775e+00   6.13031530e-01
C     3.531464357616000e-03   5.323894918774005e+00   5.323363990688518e+00  2.90952180e-01   1.18443870e-01   7.45248880e-01
C     1.845790575313071e+00   3.564812171737432e+00   5.340766830946801e+00 -1.58634514e+00  -7.30172210e-01  -2.72613480e-01
C     8.974241389297599e-01   4.431406939595800e+00   4.471657245333930e+00 -3.43551350e-01  -4.85220230e-01  -1.20673742e+00
C     2.594219688179714e+00   6.240777724867979e+00   4.376650475817035e+00  2.59629765e+00  -2.19837084e+00   1.24934939e+00
C     8.894103165206506e-01   6.259268438124029e+00   6.225270843090902e+00 -5.92009600e-02  -2.34830320e+00  -1.33693847e+00
C     2.716652387101772e+00   4.415044416987953e+00   6.243796316533563e+00 -1.76845365e+00   2.33444931e+00  -1.54390718e+00
C     3.597335124498040e+00   3.538835649704487e+00   3.533355695622503e+00 -7.53059580e-01   1.34276566e+00  -3.24843920e-01
C     5.370723145552006e+00   5.376475067883431e+00   3.579516157179580e+00 -1.32896743e+00  -2.08371476e+00  -2.69287853e+00
C     3.568022051055720e+00   5.337548634774049e+00   5.292059848070335e+00 -8.56182030e-01  -2.17571750e-01   4.04837830e-01
C     5.309869858776294e+00   3.608392275883449e+00   5.347741970642677e+00  6.71312220e-01  -2.65513781e+00  -6.14335810e-01
C     4.455580339146955e+00   4.439852811931752e+00   4.390913454719839e+00  4.33917740e-01   1.11715078e+00   1.54516877e+00
C     6.214454453979632e+00   6.214594632073698e+00   4.448838497881469e+00  9.39410470e-01   1.09016987e+00   7.17481750e-01
C     4.419132968426299e+00   6.218215662556326e+00   6.225504070437064e+00  3.61980230e-01  -2.21348520e-01   3.98192400e-02
C     6.232323038087978e+00   4.416223846469063e+00   6.241818042518417e+00 -7.00107760e-01   2.25644252e+00  -1.35454324e+00
