64
Lattice="7.10842262195238 0 0 0 7.10842262195238 0 0 0 7.10842262195238 " PBC="1 1 1" Properties=species:S:1:pos:R:3:force:R:3 Energy="-500.40438103"
C     7.084343193795881e+00   7.078750286878464e+00   7.076840040467792e+00 -7.19182140e-01   1.98885542e+00   2.08066144e+00
C     1.779697314803026e+00   1.833229139532817e+00   7.104750479958733e+00 -1.91745734e+00  -3.14925243e+00  -2.48467092e+00
C     2.382885430676400e-02   1.728843303958415e+00   1.797327766753602e+00 -3.81710770e-01   1.30836186e+00  -5.81921090e-01
C     1.862905950960603e+00   4.228089774376000e-04   1.691858181066555e+00 -1.28504314e+00  -1.22657539e+00   3.57717662e+00
C     9.060363483550210e-01   8.320729266570162e-01   9.393764142957973e-01 -4.91129370e-01   2.18318835e+00  -2.76784956e+00
C     2.655368400999514e+00   2.657112665742010e+00   7.428256854837494e-01  8.89035250e-01   7.48909540e-01   6.88125331e+00
C     8.594978608830119e-01   2.620549072311515e+00   2.695775945045999e+00  2.08071523e+00   1.39590054e+00  -1.19205432e+00
C     2.584940140038888e+00   8.136777506009801e-01   2.733231645515303e+00  2.38804340e+00   4.22298035e+00  -5.18942616e+00
C     3.589103500019853e+00   5.137299678009720e-02   5.674298356415000e-03  2.51272179e+00  -5.03077940e-01  -2.57884738e+00
C     5.408097312413858e+00   1.760020845569735e+00   1.470657290798228e-01 -2.33859939e+00   1.08053082e+00  -5.77983982e+00
C     3.575166086873045e+00   1.840536740154629e+00   1.730478098992562e+00 -1.28195423e+00  -2.63598333e+00   3.15584830e-01
C     5.294910254456729e+00   7.080974014726680e+00   1.753183467104235e+00  2.32165288e+00  -1.49879651e+00   1.78363015e+00
C     4.496870820367071e+00   9.225817706768806e-01   8.892854926194435e-01 -2.24469349e+00  -1.89422095e+00   1.67003822e+00
C     6.282101331337505e+00   2.665095140007365e+00   9.079571152311712e-01 -2.09024306e+00  -3.27680120e-01   1.63597593e+00
C     4.403496926610216e+00   2.651584445470436e+00   2.658725566834488e+00  1.08909556e+00  -2.13100600e-02   2.01088507e+00
C     6.172541772527588e+00   8.915798781885008e-01   2.598395957553191e+00  1.79965707e+00  -2.27488733e+00   1.48063450e+00
C     7.037980710867942e+00   3.538822641291093e+00   7.096550132540076e+00  2.97520528e+00   6.16736900e-01   1.13233628e+00
C     1.727989226980622e+00   5.335543562005626e+00   2.265816818547620e-02  2.33286328e+00  -6.57896850e-01   2.63691400e-02
C     4.748994983969600e-02   5.293843493474146e+00   1.730800181621474e+00 -1.36888144e+00   3.12000596e+00   4.14792494e+00
C     1.866161963941694e+00   3.435325998302226e+00   1.854878480380063e+00 -3.15976494e+00   4.46799499e+00  -3.27595624e+00
C     8.261157130803252e-01   4.455161439801959e+00   9.646066941220944e-01  4.21377538e+00  -4.03319336e+00  -4.11582186e+00
C     2.786940256715654e+00   6.256958200772528e+00   8.249015234126030e-01 -4.50445583e+00   7.21166380e-01   7.55211540e-01
C     1.045800803309163e+00   6.183865489761248e+00   2.727663120487474e+00 -4.55847090e+00   1.10426164e+00  -3.88281345e+00
C     2.647548212022574e+00   4.606765754556199e+00   2.582633954488281e+00 -1.02174011e+00  -6.66928587e+00   4.66566412e+00
C     3.538521457424683e+00   3.579785068807295e+00   4.542296271025240e-02  1.25204577e+00  -5.69693540e-01  -9.17695800e-01
C     5.375377527430903e+00   5.337718810411572e+00   6.963531641736539e-02 -1.90144908e+00  -1.71185443e+00  -2.77625737e+00
C     3.511266201246627e+00   5.420896169509620e+00   1.754865533148806e+00  1.21341274e+00  -1.50741815e+00   2.04693464e+00
C     5.312238385193277e+00   3.532581730567637e+00   1.899545462344678e+00  1.57323560e-01   2.67670589e+00  -3.80794479e+00
C     4.284870432580036e+00   4.501877708923694e+00   9.980553056762783e-01  6.28087223e+00  -3.13311835e+00  -3.38235579e+00
C     6.294830881312722e+00   6.104796443516427e+00   8.930003542806554e-01 -2.00054918e+00   5.45690946e+00  -8.69610300e-01
C     4.426072281672168e+00   6.104088800044607e+00   2.749910919435098e+00 -4.08484820e-01   4.14801982e+00  -2.31095767e+00
C     6.196993893329673e+00   4.581091838074188e+00   2.588153644652711e+00 -2.15941490e-01  -5.94305031e+00   4.57101780e+00
C     3.088609628390000e-02   7.033139661811044e+00   3.488334785295638e+00  1.68785490e-01   2.10339346e+00  -6.06415630e-01
C     1.698744110058549e+00   1.765217457926086e+00   3.564559111892160e+00  1.62418987e+00  -2.50194752e+00   4.39843060e-01
C     7.087636739248405e+00   1.769845822978194e+00   5.270974631642213e+00 -1.63440308e+00  -1.61460050e-01   1.24027300e-01
C     1.761945735331005e+00   3.765260377587800e-03   5.463703588116844e+00  2.48629016e+00   1.96022010e+00  -5.49914226e+00
C     8.952270676663704e-01   8.273016823102459e-01   4.429966204499178e+00 -1.70053797e+00   1.48236841e+00   2.19185739e+00
C     2.577698718831668e+00   2.653459149768008e+00   4.384291816880856e+00  8.78637770e-01  -4.68473240e-01   2.04162597e+00
C     7.495190473069676e-01   2.708725713953985e+00   6.163319305020399e+00  4.24328268e+00  -2.02888763e+00   7.15136520e-01
C     2.768894743968296e+00   8.395528354431374e-01   6.166332067779434e+00 -3.69748727e+00   3.72579372e+00   2.47107519e+00
C     3.539068663797971e+00   7.102274545275963e+00   3.437809752249881e+00  4.44314200e-01   6.32845330e-01   5.91634130e+00
C     5.353539173626191e+00   1.737143951220241e+00   3.534645092401545e+00 -1.78522244e+00   5.20340080e-01  -1.16206342e+00
C     3.557393821891200e+00   1.814548986813945e+00   5.311024124441329e+00  4.05570000e-04  -1.57597334e+00   8.24949960e-01
C     5.344642414043451e+00   1.739168003477060e-02   5.241125725302798e+00 -1.23380840e-01  -3.51675030e-01   2.04863770e+00
C     4.448780706405568e+00   9.008980961483802e-01   4.467358071333355e+00 -3.50513900e-02   5.02321930e-01  -3.65111292e+00
C     6.219721155383016e+00   2.644710316459991e+00   4.297694169154968e+00  7.03893190e-01   2.13813586e+00   3.84321583e+00
C     4.455665711302621e+00   2.677806208083770e+00   6.286144459955308e+00  4.88130580e-01  -3.46189140e-01  -1.97438560e-01
C     6.107562828347453e+00   9.183912844581644e-01   6.176472019394185e+00  4.59034358e+00  -8.04342940e-01   1.13273616e+00
C     7.858432290636200e-02   3.667797292634563e+00   3.466053221340569e+00 -3.35456938e+00  -1.89084862e+00   1.32579637e+00
C     1.788184344905948e+00   5.347395932629535e+00   3.678329629177938e+00  3.62682519e+00   2.57918291e+00  -4.76772561e+00
C     1.801906941521180e-02   5.395801162965782e+00   5.224331366020786e+00 -2.82637060e-01  -9.36297210e-01   4.75165142e+00
C     1.700324596743880e+00   3.528769838937662e+00   5.272385511363830e+00  1.60931973e+00   1.63200822e+00   2.05023755e+00
C     9.104189041529296e-01   4.556753452034022e+00   4.435159760233803e+00 -5.25644890e-01  -4.49274517e+00   5.73548480e-01
C     2.678419949292781e+00   6.362055802703871e+00   4.445481545299173e+00 -1.48880960e-01  -5.47759983e+00   2.43457153e+00
C     8.905901014228920e-01   6.329051894068794e+00   6.284946193154254e+00 -1.63997100e-02  -5.28236839e+00  -2.39143908e+00
C     2.733055996392363e+00   4.357164654478412e+00   6.261176054418332e+00 -4.55599970e+00   4.58890872e+00  -2.36421052e+00
C     3.538779706418468e+00   3.471085558050172e+00   3.611224342539484e+00 -7.57152650e-01   3.28507323e+00  -2.48826189e+00
C     5.227119715877707e+00   5.242772604655399e+00   3.739963065336196e+00  2.80777468e+00   2.32755519e+00  -7.19181426e+00
C     3.622585307907673e+00   5.368284885509119e+00   5.385636758377218e+00 -3.48125227e+00  -1.06781280e+00  -6.47680950e-01
C     5.315039103705557e+00   3.513510330267761e+00   5.364956579869983e+00  5.08191480e-01   2.30233450e-01  -7.46300320e-01
C     4.314674200435815e+00   4.377033690880479e+00   4.516330198373547e+00  4.16108580e+00  -1.80837220e-01   5.98128930e-01
C     6.263889836921969e+00   6.196903616362399e+00   4.319889934449014e+00 -2.79500585e+00   3.29826400e-01   4.24882498e+00
C     4.510373055881082e+00   6.256872828616862e+00   6.165706882010006e+00  5.35596260e-01  -1.00397129e+00   2.67923242e+00
C     6.269012237346167e+00   4.386570848257055e+00   6.229741756581977e+00 -3.60591304e+00   3.04069874e+00  -1.59001272e+00
