64
Lattice="7.10842262195238 0 0 0 7.10842262195238 0 0 0 7.10842262195238 " PBC="1 1 1" Properties=species:S:1:pos:R:3:force:R:3 Energy="-510.44715527"
C     1.004029152961900e-02   3.620511567776739e-02   5.878658398317380e-02 -1.00524598e+00  -9.42740910e-01  -1.62602253e+00
C     1.791080600618241e+00   1.787630598783850e+00   7.079375685900573e+00  2.95343000e-03  -8.22172570e-01   4.14181080e-01
C     1.199041619118980e-02   1.785071282303746e+00   1.835045839101810e+00 -6.51893100e-01  -6.37290900e-02  -2.44891615e+00
C     1.779123594013366e+00   2.714870092298260e-02   1.756303780297511e+00  3.00518140e-01  -2.30521653e+00   2.89076440e-01
C     8.739622213986404e-01   8.802731500849026e-01   8.937322374736106e-01  1.41145988e+00   2.13760092e+00   2.72228570e-01
C     2.697389343728060e+00   2.651520825087987e+00   8.697466424480755e-01 -1.08659272e+00  -1.40593490e-01   5.34316100e-01
C     9.249096369164781e-01   2.690828198565574e+00   2.655341175740880e+00 -1.03347540e-01  -1.28056269e+00   1.85042649e+00
C     2.687927180210126e+00   8.103405594335688e-01   2.666746071160860e+00 -8.69245720e-01   2.99390397e+00  -8.35315890e-01
C     3.577479238677820e+00   7.059683222716386e+00   7.088059192804712e+00 -3.00946150e-01   7.15767590e-01  -1.14038598e+00
C     5.272295660901913e+00   1.719802385564942e+00   7.071595090837625e+00  5.93486170e-01   2.36076439e+00   1.86090776e+00
C     3.540028087598992e+00   1.628822892883407e+00   1.710330057002660e+00  4.33475700e-01   4.27277141e+00   1.21547337e+00
C     5.318676625728664e+00   7.094216863899287e+00   1.813602713594771e+00  1.67552915e+00  -8.16346010e-01  -1.48393442e+00
C     4.435167366246006e+00   7.852640347885423e-01   8.545781215877100e-01  4.72995120e-01   1.73339883e+00   4.64221530e-01
C     6.106100910151423e+00   2.684900769279661e+00   9.323882661865278e-01  2.84097543e+00  -2.38063551e+00  -8.55391920e-01
C     4.401682643904913e+00   2.664049491039963e+00   2.592304536957434e+00 -5.20263930e-01  -1.03184681e+00   1.90946305e+00
C     6.273259093356260e+00   8.312315737557130e-01   2.645268185467208e+00 -1.99485652e+00   2.88029350e+00   6.33350300e-01
C     7.083437794006771e+00   3.487664887547929e+00   6.736246936884659e-02 -5.34621100e-02   6.16210200e-01  -1.08092369e+00
C     1.687747380265409e+00   5.353111602005598e+00   7.088694117113130e+00  1.74506860e+00   3.08945000e-03   2.28543258e+00
C     1.468948426000380e-02   5.223853324599590e+00   1.851906946472224e+00  6.09726840e-01   3.11925370e+00  -1.72388369e+00
C     1.821312224431518e+00   3.570069063517600e+00   1.805070118502854e+00 -5.31352430e-01  -1.18274831e+00  -9.69128260e-01
C     9.107833529806569e-01   4.389603443515199e+00   9.475692267864784e-01 -1.62339974e+00   7.48468990e-01  -1.94506308e+00
C     2.648305756621187e+00   6.227065933055131e+00   8.522840203555574e-01 -3.68220460e-01  -2.04574040e-01   2.87957370e-01
C     9.729060618678492e-01   6.193956180007242e+00   2.657942787335573e+00 -2.59193307e+00  -1.65203880e-01   5.11188740e-01
C     2.643844226247970e+00   4.505982680818291e+00   2.654992649779821e+00  1.68396946e+00  -3.44629680e+00   6.72299270e-01
C     3.538833375009249e+00   3.607247962010082e+00   1.177389363818460e-02  2.28599000e-02  -1.03091165e+00  -6.88195970e-01
C     5.402397565904463e+00   5.406271585148137e+00   1.089820705562680e-02 -1.25985370e+00  -2.89008249e+00   1.45677040e-01
C     3.512130727605671e+00   5.322466267995837e+00   1.759948055322106e+00  1.44910010e+00   1.66717800e+00  -2.32406040e-01
C     5.240726303035779e+00   3.563170410449117e+00   1.779244223945227e+00  1.59981008e+00   4.37270340e-01  -8.45871250e-01
C     4.437815822345765e+00   4.475506527266887e+00   8.560967649962468e-01 -3.21788230e-01   5.51726660e-01   1.15704863e+00
C     6.275671123319678e+00   6.213938524665871e+00   9.716264036277967e-01 -8.88792550e-01  -3.39742780e-01  -1.62622245e+00
C     4.445445576680716e+00   6.225280581629892e+00   2.660874371908287e+00 -4.63313300e-01  -4.03986420e-01   5.22387750e-01
C     6.193399235094965e+00   4.405063694039889e+00   2.667206981283541e+00  2.10645940e-01  -2.79679640e-01   1.73875756e+00
C     4.610956525111820e-02   1.725754409993120e-02   3.511070577456125e+00  5.09929640e-01  -1.99784322e+00   7.90210390e-01
C     1.855567215447715e+00   1.789012902646536e+00   3.551353226517177e+00 -1.71863690e+00   3.96593200e-02  -2.11217100e-02
C     7.093390509769712e+00   1.816650591961548e+00   5.297942352125291e+00 -9.48270970e-01  -1.21962664e+00   5.56830080e-01
C     1.788860853486694e+00   3.551929506338980e-02   5.392900997621048e+00 -8.68174120e-01  -1.21305297e+00  -4.17726294e+00
C     8.865333957178841e-01   9.211448030442475e-01   4.375440337950207e+00  7.99478030e-01  -6.45613600e-02   2.42019613e+00
C     2.687981062053586e+00   2.698840172784803e+00   4.518259282104163e+00 -6.25833080e-01  -2.97100020e-01  -2.27149177e+00
C     8.595276451737898e-01   2.604191667767955e+00   6.238700714862642e+00  2.99448740e-01   2.62052403e+00  -4.06046680e-01
C     2.711703645442181e+00   9.046821227616848e-01   6.139328378677900e+00 -1.05801425e+00  -9.41386280e-01   4.02489842e+00
C     3.546200117707260e+00   2.171672869368340e-02   3.553774355261548e+00  1.06847217e+00  -2.15314523e+00   2.07871970e-01
C     5.320452451867592e+00   1.807417888325787e+00   3.464505717736195e+00  1.91225220e-01  -6.82962750e-01   2.42654919e+00
C     3.572982237275729e+00   1.772761697936918e+00   5.347893806549840e+00  5.69064970e-01   1.57834864e+00  -1.54510912e+00
C     5.426546085976448e+00   7.093975959456695e+00   5.302847448069995e+00 -2.66158169e+00   1.22558330e+00  -8.43518190e-01
C     4.443054516564027e+00   9.285809239470296e-01   4.387570861151236e+00  8.85275190e-01  -8.83768020e-01   7.82152180e-01
C     6.147384282948919e+00   2.702910384492789e+00   4.458479722565201e+00  1.91408727e+00  -5.73959560e-01  -1.10103387e+00
C     4.424739025925561e+00   2.669837097652941e+00   6.238704340158177e+00 -5.14273100e-01   8.22212480e-01  -7.49158170e-01
C     6.177804848635436e+00   9.446654361462083e-01   6.193581423966716e+00  2.55552252e+00  -2.20852469e+00   3.82838980e-01
C     1.472950467935440e-02   3.505970497478953e+00   3.615217072440911e+00 -8.03935760e-01   1.55907023e+00  -1.97491037e+00
C     1.808504623975933e+00   5.283683780444511e+00   3.555204356640014e+00 -9.24768410e-01   2.64341663e+00   7.93437920e-01
C     7.075986532163808e+00   5.288093632585280e+00   5.293908962046476e+00  2.11729932e+00   1.19077960e+00   1.56037251e+00
C     1.736108467297186e+00   3.593346872902863e+00   5.344483825134800e+00  1.62909893e+00  -1.53404847e+00   2.01892797e+00
C     9.115531951504030e-01   4.421570091121565e+00   4.476287885081277e+00 -1.50168006e+00   4.52618220e-01  -1.65953701e+00
C     2.688229430339929e+00   6.196394297881676e+00   4.417782794633855e+00 -9.41201370e-01   1.52619204e+00   1.84266799e+00
C     8.792031192279139e-01   6.252358838084710e+00   6.227127989584603e+00 -1.51367204e+00  -1.61001800e-01  -1.49885200e-02
C     2.604021563214658e+00   4.547031333500874e+00   6.266667026555377e+00  1.00385550e+00  -3.42109948e+00  -1.54561551e+00
C     3.536195936964551e+00   3.579442513921237e+00   3.583608760418820e+00  3.99913160e-01  -2.43611170e-01  -1.03260765e+00
C     5.346576615838353e+00   5.342148068546094e+00   3.555989126497262e+00 -1.00115906e+00  -4.80436000e-02  -5.79889590e-01
C     3.515722542471332e+00   5.356942046618611e+00   5.359952108177050e+00  1.76854668e+00   5.78493430e-01  -6.60696380e-01
C     5.302044054145482e+00   3.634854587518245e+00   5.341360739656703e+00 -5.50241620e-01  -3.10231264e+00   3.31197330e-01
C     4.406566130244852e+00   4.503039367348253e+00   4.459931191379979e+00  8.83564480e-01  -1.16256953e+00   3.14921500e-02
C     6.283172499542112e+00   6.200020304260138e+00   4.383242826954823e+00 -1.01017611e+00   5.94955890e-01   1.33621950e+00
C     4.514255249810769e+00   6.246525382145833e+00   6.198778889333782e+00 -1.04796912e+00  -8.34165390e-01   7.62328000e-03
C     6.218835374840338e+00   4.373271842545749e+00   6.250931395738387e+00  6.80264150e-01   3.39903260e+00  -1.76293740e-01
