64
Lattice="7.10842262195238 0 0 0 7.10842262195238 0 0 0 7.10842262195238 " PBC="1 1 1" Properties=species:S:1:pos:R:3:force:R:3 Energy="-502.91092043"
C     7.084024381041373e+00   7.107388131256111e+00   7.073409231374476e+00  6.41265140e-01   5.42448270e-01   1.07330006e+00
C     1.841784623745570e+00   1.789049439938803e+00   3.999411818690600e-02 -1.49746082e+00   3.99510140e-01  -9.75492850e-01
C     8.282151146169160e-02   1.789451279069511e+00   1.752014060499019e+00 -4.17143960e+00   2.87884081e+00   3.47938293e+00
C     1.671814064215357e+00   7.082017246830390e+00   1.786832749428982e+00  3.08372661e+00   1.72618267e+00   1.93978593e+00
C     8.930661071898904e-01   1.004704026605443e+00   9.570220782707805e-01  2.03146250e+00  -5.38244321e+00  -4.70955447e+00
C     2.726762696594198e+00   2.810280549135745e+00   9.678285155903832e-01  9.76576930e-01  -5.48464017e+00  -4.21280537e+00
C     9.766255440037642e-01   2.666839191497182e+00   2.648461502160791e+00 -2.03290084e+00  -2.34080230e-01   2.48683040e-01
C     2.657157733141421e+00   8.745918854743200e-01   2.726127416864649e+00  3.14324890e-01   8.68145540e-01  -1.72530803e+00
C     3.398663455628862e+00   8.063652451675599e-03   4.751760160368780e-02  5.02462505e+00  -3.82134269e+00   1.58262800e-02
C     5.358730170328672e+00   1.705193795154353e+00   2.689578324616300e-02 -1.48387714e+00   7.26889920e-01  -2.90426404e+00
C     3.626938221583256e+00   1.844664103580480e+00   1.784024709241403e+00 -2.74353488e+00  -2.74535629e+00  -8.24619490e-01
C     5.432456881553431e+00   7.083890031853856e+00   1.772719900411913e+00 -3.08337063e+00   4.82538900e-01   1.38901005e+00
C     4.496190686490789e+00   7.733771172306998e-01   8.262686152508814e-01 -1.71934597e+00   3.81267779e+00   2.22693703e+00
C     6.160998547203422e+00   2.632016735103231e+00   8.318329463093650e-01  2.35335033e+00   5.40558740e-01   1.08933655e+00
C     4.407374002475615e+00   2.778139389754058e+00   2.547412289079991e+00  1.46958096e+00  -3.40285090e+00   4.84126622e+00
C     6.271828665472437e+00   9.326726030913277e-01   2.751958002981205e+00 -1.47889367e+00  -1.32110385e+00  -2.76388706e+00
C     7.098689056906434e+00   3.472518616050364e+00   6.982453196487587e+00  1.34531624e+00   7.55184970e-01   5.12896477e+00
C     1.710171539178235e+00   5.408824504047884e+00   7.090694213985720e-02  1.15416055e+00  -3.19013601e+00  -1.93037995e+00
C     7.100448462589110e+00   5.228437475263002e+00   1.787429643676383e+00 -8.72754710e-01   1.27731834e+00  -5.32743900e-02
C     1.886832830415296e+00   3.585341864937801e+00   1.764701741865005e+00 -4.58824523e+00   9.70311660e-01   2.08474605e+00
C     8.392926671752454e-01   4.403899192246280e+00   9.002905392670487e-01  2.61825255e+00  -1.15962270e-01  -1.43585031e+00
C     2.681827656012583e+00   6.176049636922105e+00   1.061109502263595e+00 -3.71067014e+00   3.15877017e+00  -5.76509817e+00
C     7.906072939035440e-01   6.229415124562588e+00   2.647162580095439e+00  2.48705417e+00  -2.06669212e+00   4.25022760e-01
C     2.752133865356824e+00   4.458644993391116e+00   2.603659033661038e+00 -1.48034630e+00   3.47960750e-01   3.31900451e+00
C     3.555141731436732e+00   3.674884034565572e+00   8.074450145635380e-02  8.91205600e-02  -8.93005940e-01  -3.43262279e+00
C     5.409840795229865e+00   5.439826609788943e+00   6.964841937278084e+00 -1.87924563e+00  -2.10676806e+00   4.81318773e+00
C     3.601675100844454e+00   5.357687506898771e+00   1.792067391846350e+00  1.08862769e+00   8.22957490e-01   1.39101485e+00
C     5.234182147003355e+00   3.598306490449063e+00   1.684024415002410e+00  5.21710059e+00  -1.87856400e-02   9.36679480e-01
C     4.506739301321964e+00   4.606570344018375e+00   8.374325351440438e-01 -1.28908736e+00  -1.92544565e+00  -3.53489100e-01
C     6.269669482101612e+00   6.189466855701581e+00   9.009733743439260e-01 -6.33757840e-01   8.09117490e-01  -1.32132110e+00
C     4.411975000100637e+00   6.264164861793136e+00   2.751538179541268e+00  2.76787252e+00  -1.68893112e+00  -2.28567810e+00
C     6.247986234078470e+00   4.323091710165514e+00   2.662559068069227e+00 -2.30441205e+00   2.51017311e+00  -4.86618700e-02
C     7.099584149482745e+00   7.075426459545579e+00   3.560071706860606e+00  7.39694640e-01   2.95610886e+00   9.15492600e-02
C     1.789119102480479e+00   1.806211375754495e+00   3.556673667595568e+00  1.52500100e+00  -1.04691943e+00  -2.59913990e-01
C     6.874356479968641e-02   1.722359569518260e+00   5.388458304567775e+00 -2.45578619e+00   1.31602557e+00  -3.44059294e+00
C     1.634563299570188e+00   7.100794429518025e+00   5.336944845356706e+00  4.06779607e+00  -1.78419399e+00  -2.03287348e+00
C     9.768047473380144e-01   9.561552061322717e-01   4.447224957030954e+00 -4.66299184e+00  -2.57755183e+00  -4.26630570e-01
C     2.671187697950741e+00   2.627017168221906e+00   4.439272195972151e+00  2.83327704e+00   9.10315530e-01  -3.07188500e-02
C     9.302121647698671e-01   2.582643337606140e+00   6.170396450580871e+00  1.08437897e+00   2.84861578e+00   1.89679219e+00
C     2.555669859300740e+00   6.563994218272297e-01   6.182780033627173e+00  2.87102378e+00   8.47123531e+00   3.31961140e+00
C     3.543544979690238e+00   7.097807257080423e+00   3.630798379402821e+00 -8.40619010e-01   1.55321427e+00  -2.86606513e+00
C     5.224663969115175e+00   1.679328022345828e+00   3.625081075089554e+00  6.64632782e+00   7.08257826e+00  -4.70946304e+00
C     3.546965126149624e+00   1.660114027088195e+00   5.363769473292443e+00 -1.65779249e+00   2.71854684e+00  -2.91453240e-01
C     5.266486018178814e+00   3.019835639541500e-02   5.306020079253753e+00  2.08396543e+00   5.32275500e-02  -1.43982891e+00
C     4.429091015506204e+00   9.126441247698943e-01   4.397218127994195e+00 -2.97050421e+00  -3.40619978e+00   4.51840696e+00
C     6.162989971800415e+00   2.688482987774784e+00   4.544675175739249e+00  8.00216690e-01  -3.21031009e+00  -1.79275058e+00
C     4.399200951399818e+00   2.671411613263271e+00   6.274069240282262e+00 -2.76806130e-01  -1.38176608e+00   5.36564110e-01
C     6.224694705437551e+00   8.625075670203199e-01   6.128558123229433e+00 -5.64602010e-01  -1.12764570e-01   3.87717380e+00
C     7.070488238351466e+00   3.404168075937338e+00   3.555844967686529e+00  1.40703857e+00   3.95357277e+00  -2.41583680e-01
C     1.779275572088981e+00   5.338221802396163e+00   3.505679905162248e+00  2.95420960e-01   1.65374350e-01  -6.33772820e-01
C     1.681852791892000e-03   5.326064480441856e+00   5.289265313885735e+00  3.75507260e-01  -1.39982876e+00   4.53519570e-01
C     1.867521307599316e+00   3.554408710896157e+00   5.250000946364998e+00 -3.09803296e+00  -2.26152760e-01   2.47178898e+00
C     9.451384305873431e-01   4.403428543584611e+00   4.365876737241485e+00 -1.81755951e+00   3.53795470e-01   1.15704291e+00
C     2.641395445739606e+00   6.256756392654347e+00   4.417134719743590e+00 -1.52914420e+00  -2.43688391e+00   1.25251936e+00
C     8.392734033499452e-01   6.214558876707919e+00   6.187506850332569e+00 -5.54074930e-01   1.84588530e-01   1.79656481e+00
C     2.614556103369046e+00   4.511612551533331e+00   6.198317552705743e+00  1.11120844e+00  -1.31742440e+00   1.81313249e+00
C     3.637544059216522e+00   3.566750851838584e+00   3.571495510684756e+00 -2.22414106e+00   3.22321240e-01  -1.21737139e+00
C     5.347538954092649e+00   5.369999721381968e+00   3.601427940989957e+00 -3.38631680e-01  -1.86813574e+00  -1.29753813e+00
C     3.506910373117770e+00   5.331725557132198e+00   5.315867519277692e+00  4.46315790e-01   1.55088997e+00  -8.20977500e-02
C     5.258317942998850e+00   3.542602118513920e+00   5.407800464685247e+00  2.25903388e+00   1.16486374e+00  -7.81089210e-01
C     4.461193220731934e+00   4.488114807552207e+00   4.485480923718818e+00 -4.94775770e-01  -1.48148807e+00  -3.97631190e-01
C     6.220180928158078e+00   6.266842888930995e+00   4.406295370427257e+00 -4.64021900e-01  -1.98943871e+00   2.27057182e+00
C     4.399312198213821e+00   6.262113228856553e+00   6.130822298002355e+00  2.51243040e-01  -1.03221049e+00   2.34981136e+00
C     6.279646721922592e+00   4.420030406782073e+00   6.288058829251099e+00 -2.54248044e+00   1.48537175e+00  -5.55245523e+00
