64
Lattice="7.10842262195238 0 0 0 7.10842262195238 0 0 0 7.10842262195238 " PBC="1 1 1" Properties=species:S:1:pos:R:3:force:R:3 Energy="-508.33216011"
C     7.053067200531274e+00   1.056566793704058e-01   4.288077752866180e-02  3.25184760e-01  -4.30829872e+00  -2.74612682e+00
C     1.746976108135547e+00   1.724685658652203e+00   7.025799007024049e+00  4.75629860e-01   3.57171258e+00   2.28581019e+00
C     7.098486751198668e+00   1.734959675117568e+00   1.765348679407651e+00  1.50632609e+00   1.97375877e+00  -4.41268800e-01
C     1.822206321828661e+00   7.097951273722704e+00   1.735116273667886e+00 -8.57647110e-01   9.87414320e-01  -9.99664050e-01
C     8.981317824015810e-01   9.080434114817779e-01   8.170890115320919e-01 -5.60297470e-01  -7.53898570e-01   2.34687030e+00
C     2.594844020938429e+00   2.640077330933180e+00   8.774776918053614e-01  2.55499257e+00  -1.59335380e-01  -5.63290040e-01
C     8.865175439354416e-01   2.602968947993089e+00   2.720051990219788e+00 -6.51294490e-01   2.47126398e+00  -1.42306971e+00
C     2.684214664328379e+00   8.985496865674109e-01   2.580416339883520e+00 -8.40275950e-01  -2.14386739e+00   4.07831566e+00
C     3.649679913734517e+00   2.448759183095940e-02   7.048291406794027e+00 -2.87671497e+00  -4.04677720e-01   2.01204519e+00
C     5.320554813153319e+00   1.772630121034222e+00   7.092638438656516e+00 -8.88220000e-03   6.63961060e-01   1.94637417e+00
C     3.513875845358882e+00   1.688640766820290e+00   1.745606244012446e+00  2.02716735e+00   4.10155710e+00  -1.11805408e+00
C     5.327387002470306e+00   7.061888468665789e+00   1.785313892767766e+00  2.21471490e-01   4.69817460e-01  -3.12002230e-01
C     4.490561384449558e+00   8.388582714689372e-01   8.776677710262202e-01 -1.72933053e+00   9.89334000e-01  -2.01701600e-02
C     6.207182253302467e+00   2.657840568218298e+00   9.295962910340703e-01  1.01729627e+00  -7.08157010e-01  -2.09847263e+00
C     4.394298272318804e+00   2.661329026619063e+00   2.657835450154011e+00  8.57187060e-01  -2.34550850e-01  -8.95852200e-01
C     6.212301312768033e+00   8.944602110341248e-01   2.557959624395095e+00  3.57602730e-01  -2.35024111e+00   3.42259474e+00
C     7.069664301085581e+00   3.513349893169228e+00   2.450060024435400e-02  1.84081075e+00   1.18714977e+00  -3.28249500e-01
C     1.789210303542693e+00   5.309665420541742e+00   5.861974930428240e-02 -1.50993481e+00  -3.49208160e-01  -2.48327932e+00
C     6.087425662244160e-02   5.265034122858679e+00   1.817386740208075e+00 -1.40615491e+00   2.47260707e+00  -7.42065250e-01
C     1.776566765481178e+00   3.549930475729783e+00   1.814998594544660e+00 -1.11816060e-01  -3.26246948e+00  -7.91205600e-02
C     9.319427102567062e-01   4.336289634107163e+00   9.185907467968817e-01 -2.19998314e+00   3.19721000e+00   2.08381350e-01
C     2.662287810662048e+00   6.252417553655551e+00   8.001839030256604e-01  1.71378652e+00  -7.61821730e-01   3.01124804e+00
C     1.005591513169550e+00   6.214812363058548e+00   2.641139969030644e+00 -2.64445015e+00  -8.68897020e-01   7.30238600e-02
C     2.630902703110224e+00   4.375766330211559e+00   2.714211070437160e+00  1.10579490e+00   4.15884195e+00  -1.09534537e+00
C     3.584556597490971e+00   3.573316688560000e+00   7.088292988824684e+00 -2.34893880e+00  -1.75023759e+00   6.09011530e-01
C     5.296318788398882e+00   5.222893474293212e+00   7.105582876247537e+00  1.74321677e+00   5.27193692e+00  -4.78687190e-01
C     3.543904665874809e+00   5.367638800977187e+00   1.810060799855903e+00 -9.49898400e-02  -2.36702846e+00  -1.63078876e+00
C     5.398996256765020e+00   3.557635934765638e+00   1.738696075299318e+00 -4.38429340e+00   2.99650620e-01   2.90097316e+00
C     4.412156904635482e+00   4.411566265799986e+00   8.722552758748997e-01  1.29196370e+00   9.81245020e-01   1.29985771e+00
C     6.194732775178477e+00   6.245299250328110e+00   9.076427096986885e-01  1.42691802e+00  -2.56595463e+00  -4.61522420e-01
C     4.457718339418372e+00   6.181293093783522e+00   2.685985301318795e+00 -6.46703340e-01   1.19896948e+00   6.45063230e-01
C     6.167910350853752e+00   4.471164062972555e+00   2.746057941122379e+00  3.12991198e+00  -1.40389970e+00  -3.28557135e+00
C     6.950558770455040e-02   7.023462752845760e+00   3.538163335093088e+00 -2.40768096e+00   1.14930805e+00  -1.30660370e+00
C     1.758945554480007e+00   1.732657043778271e+00   3.587109160969586e+00  1.46485100e-01   1.22638752e+00  -1.35443571e+00
C     7.011087557738150e+00   1.810573317126805e+00   5.316142046559277e+00  3.27672850e+00  -1.29494950e-01  -1.19159088e+00
C     1.865216828070138e+00   2.882621757707640e-02   5.343494617043000e+00 -3.72590756e+00   4.63270700e-01   7.81896990e-01
C     8.419359341264924e-01   8.387468114022555e-01   4.378797006195597e+00  1.89732419e+00   1.22195237e+00   3.61575688e+00
C     2.587155906453768e+00   2.723498437842868e+00   4.479840674706753e+00  1.76766289e+00  -2.77327071e+00   3.11513290e-01
C     8.414527746410110e-01   2.726013326681598e+00   6.202585307478339e+00 -3.70224930e-01  -3.97172596e+00   5.91436380e-01
C     2.736483322358596e+00   9.406474713444796e-01   6.252134425182597e+00 -9.72257070e-01  -1.03142653e+00  -2.39508547e+00
C     3.619276479346515e+00   1.529419777228720e-02   3.580160535690083e+00 -1.02933566e+00   1.12992976e+00  -1.12422478e+00
C     5.354860416138571e+00   1.786006679636311e+00   3.449046746727577e+00 -4.66501930e-01   9.31878910e-01   2.11126826e+00
C     3.596790690409574e+00   1.837925887610530e+00   5.360993634259333e+00 -1.51134920e+00  -5.58496560e-01  -1.27098720e+00
C     5.355166860237719e+00   7.987727389671380e-02   5.244557956080638e+00 -1.90559270e-01  -2.76837082e+00   2.76193623e+00
C     4.476810140891168e+00   9.578045023485641e-01   4.434583835833131e+00 -7.88503900e-02  -3.80998580e-01  -1.77117606e+00
C     6.244482492569071e+00   2.706565677572445e+00   4.382634985736587e+00 -2.13771706e+00  -1.04519338e+00   9.36608780e-01
C     4.493891964783933e+00   2.667821148997909e+00   6.221158976026363e+00 -2.44452500e+00   2.05376000e-03   1.12979059e+00
C     6.169338646210790e+00   9.545012894412761e-01   6.212386471671021e+00  1.45192977e+00  -1.35800038e+00  -6.00662650e-01
C     1.008955289837560e-02   3.654185516327978e+00   3.588615364638538e+00 -3.91294420e-01  -3.71294047e+00  -2.80797920e-01
C     1.837492344914936e+00   5.394099690927459e+00   3.560107817647516e+00 -3.36326940e-01  -1.65913260e+00   1.75081159e+00
C     1.660740776710600e-03   5.345490875367375e+00   5.349009046974691e+00 -1.08416665e+00  -9.58142180e-01   1.93496000e-03
C     1.723508290613652e+00   3.562162649374280e+00   5.400554991677134e+00  1.00058636e+00   1.40460697e+00  -2.47425232e+00
C     8.753076325479278e-01   4.451829011277702e+00   4.498647073011356e+00  1.12834396e+00   2.06944015e+00  -1.21968101e+00
C     2.726069554304523e+00   6.357279013787458e+00   4.501982415988886e+00  1.29436290e-01  -4.98300008e+00  -1.96770476e+00
C     8.251963096986544e-01   6.174942002509456e+00   6.224020684804723e+00  2.84239282e+00   3.10403007e+00   1.70605020e+00
C     2.648740578832852e+00   4.458075253318123e+00   6.203997679968706e+00  5.35780050e-01   5.57406000e-03   2.31278877e+00
C     3.477611161099558e+00   3.569556332994020e+00   3.595463903327551e+00  1.59565646e+00  -1.26740771e+00  -5.10563600e-01
C     5.294558600789718e+00   5.279141285137652e+00   3.589029785677284e+00 -1.41382070e-01   1.22456783e+00   3.12619420e-01
C     3.562541741552605e+00   5.357431532600225e+00   5.422551650053593e+00 -7.26193970e-01   2.45808380e-01  -3.83764532e+00
C     5.282224136943721e+00   3.479349881272411e+00   5.327044376500022e+00  3.03343996e+00   3.40010165e+00  -1.32600791e+00
C     4.400125259593096e+00   4.416496880981897e+00   4.477667558827592e+00 -2.01625220e-01   4.80489180e-01   3.86976630e-01
C     6.209042243165216e+00   6.155290270586883e+00   4.444617445445486e+00  7.06013800e-01   2.58454086e+00  -7.88200660e-01
C     4.439829140884428e+00   6.258585176541794e+00   6.192707016900229e+00  2.16749977e+00  -1.63245757e+00   2.04514280e-01
C     6.249505019655459e+00   4.455862827861874e+00   6.214845701560636e+00 -2.16874723e+00  -2.03726488e+00   8.74835930e-01
