64
Lattice="7.10842262195238 0 0 0 7.10842262195238 0 0 0 7.10842262195238 " PBC="1 1 1" Properties=species:S:1:pos:R:3:force:R:3 Energy="-511.40651483"
C     3.941826487045980e-02   9.582935618248200e-03   3.045497045199700e-02 -4.89840810e-01   1.97230960e-01  -1.49811016e+00
C     1.767174548841824e+00   1.764322294265549e+00   2.597225697937260e-02  1.05681533e+00  -4.20532350e-01   3.10212330e-01
C     7.089375601589710e+00   1.820504778706112e+00   1.756705903765124e+00 -7.29858470e-01  -8.27603240e-01   2.73998910e-01
C     1.711932650882339e+00   7.085500587166869e+00   1.799607793308967e+00  2.75818738e+00  -6.88744500e-02  -7.30239170e-01
C     8.956341670298178e-01   8.732287032684826e-01   9.254151879332125e-01 -1.20024020e+00   1.22177985e+00  -6.90099770e-01
C     2.666834499938253e+00   2.634371471180332e+00   8.862089673095074e-01  2.02035490e-01   1.41733120e+00  -1.02437500e-02
C     8.705582110586010e-01   2.679245450411642e+00   2.653856866013597e+00 -3.36365800e-02   2.25233290e-01   8.28524360e-01
C     2.682613421048998e+00   8.858096872109420e-01   2.613917980270449e+00 -9.77191410e-01  -9.49179340e-01   1.80304787e+00
C     3.573618796521350e+00   7.063178363034414e+00   7.077458259983054e+00 -1.72901828e+00   8.88694270e-01   1.50976162e+00
C     5.279079655113537e+00   1.751280186947730e+00   7.055959333358446e+00  8.73886420e-01   7.54943110e-01   2.36410342e+00
C     3.568787699256120e+00   1.704168973865228e+00   1.748454233535149e+00 -7.46967010e-01   2.24196922e+00   2.01767400e-02
C     5.389574682340246e+00   7.078850728890085e+00   1.804692092587922e+00 -1.99004147e+00   1.66056210e+00  -1.82861754e+00
C     4.411522051411290e+00   8.204440448402797e-01   8.824429250054314e-01  1.71947982e+00   8.44495470e-01  -5.95741440e-01
C     6.146089554852912e+00   2.689116916904036e+00   8.685833490863125e-01  2.34970172e+00  -1.25095677e+00  -9.23935880e-01
C     4.433949835619652e+00   2.641461838406877e+00   2.636579773751461e+00 -5.23430240e-01   5.43809400e-02   1.00347041e+00
C     6.188280602134756e+00   8.944253797632868e-01   2.643455040109525e+00  1.52420011e+00   1.19510588e+00   8.96742690e-01
C     7.094421728639196e+00   3.566400335519193e+00   7.080393967440887e+00  4.76838360e-01  -3.97718270e-01   1.68403713e+00
C     1.753004619191116e+00   5.278096844602095e+00   7.490500335825000e-03  4.34632360e-01   3.46119808e+00   5.62202300e-01
C     7.067943920643089e+00   5.290408774748388e+00   1.821912672890229e+00  1.11004351e+00   1.60130356e+00  -5.84402510e-01
C     1.764625041984935e+00   3.604230010102535e+00   1.801950871572972e+00  1.70246570e-01  -2.99469789e+00  -7.02414310e-01
C     8.884528830779628e-01   4.460835240568790e+00   9.417897237752874e-01 -1.37564800e+00  -8.62905000e-01  -1.86242594e+00
C     2.622123374669167e+00   6.220423822959003e+00   8.756429368429132e-01  1.48554082e+00  -1.37923515e+00   6.74717130e-01
C     8.688892955958775e-01   6.193467049446760e+00   2.693249469478399e+00 -1.67303730e-01   2.06732800e-01  -5.42793950e-01
C     2.647277025699621e+00   4.410145078865570e+00   2.676411180144595e+00  1.40780200e+00   1.81704205e+00  -1.00674000e-03
C     3.556593840009546e+00   3.573953389974073e+00   7.066477239803904e+00 -5.42862010e-01  -6.57810880e-01   8.87737400e-01
C     5.327568338331343e+00   5.315633794341946e+00   3.715956358295480e-02  1.16864208e+00   1.35753170e+00  -2.34533971e+00
C     3.580023485301970e+00   5.284872095453896e+00   1.787744475714223e+00 -6.94653880e-01   1.69597301e+00  -8.47571580e-01
C     5.303675792557904e+00   3.539174934716140e+00   1.742420604415293e+00  6.84588730e-01  -4.77322530e-01   1.85662794e+00
C     4.475170512129639e+00   4.402712441089871e+00   8.492291046503861e-01 -1.82416184e+00   1.22271863e+00   1.58494833e+00
C     6.235356770693741e+00   6.284220209952074e+00   8.886283900324506e-01  2.08693070e-01  -3.87395399e+00   5.49348740e-01
C     4.529861009746490e+00   6.231895537551611e+00   2.662754620775504e+00 -3.45946603e+00  -1.58305561e+00   2.32525500e-02
C     6.207254972465869e+00   4.400912304145583e+00   2.728731516407260e+00 -8.92115250e-01   1.40676602e+00  -2.06879050e+00
C     1.839929894115560e-02   5.882575139181000e-02   3.489736708404755e+00 -8.61148400e-01  -1.58515733e+00   2.84269957e+00
C     1.811200990844151e+00   1.777175317541676e+00   3.522240397340062e+00 -5.83912040e-01   1.88546882e+00   1.19997460e-01
C     6.572284060731740e-02   1.839669086089632e+00   5.373725458929789e+00 -1.92286317e+00  -1.60798205e+00  -1.38511397e+00
C     1.883129626567181e+00   7.374704131345200e-03   5.281341626275447e+00 -4.34930889e+00   4.54265260e-01   8.05348980e-01
C     9.116394914010097e-01   9.672014816310729e-01   4.408658281190371e+00  2.08443980e-01  -2.21264846e+00   7.33439160e-01
C     2.657544715668853e+00   2.729537682616594e+00   4.460684328756567e+00  1.16046077e+00  -2.25051741e+00  -1.25897851e+00
C     9.634865488856347e-01   2.661084354712483e+00   6.266734201149135e+00 -2.64167170e+00   1.44647169e+00  -1.13428532e+00
C     2.645323062489835e+00   8.882382797990650e-01   6.239195887582351e+00  2.09111827e+00  -3.81628420e-01  -9.01176710e-01
C     3.545798705081908e+00   7.099794629876523e+00   3.513763958786843e+00  1.33304394e+00  -3.73551500e-02   1.58846780e-01
C     5.281671954674599e+00   1.751062740299784e+00   3.596058451795487e+00  2.03735286e+00   1.35466488e+00  -1.84809844e+00
C     3.544105478813825e+00   1.768074332977064e+00   5.363276219846841e+00 -4.55613860e-01   8.20243690e-01  -1.48819762e+00
C     5.348640546346071e+00   1.101094663838000e-04   5.361034863110529e+00  1.13827463e+00  -2.84156950e-01  -1.20977669e+00
C     4.471900282303308e+00   8.745699204484242e-01   4.459996091278499e+00 -2.49550225e+00  -1.98570110e-01   4.18928060e-01
C     6.181111402501354e+00   2.704085193499196e+00   4.451431721537471e+00  7.49180400e-01  -1.91563788e+00   1.47927637e+00
C     4.404006884848974e+00   2.660846009302034e+00   6.193742074317928e+00  5.15258530e-01  -8.45542900e-02   7.52748110e-01
C     6.240595678164682e+00   9.143675618341134e-01   6.249572194249217e+00  5.61867520e-01  -6.18492790e-01  -1.15776388e+00
C     7.055060757655053e+00   3.558951419455695e+00   3.623257338182167e+00  1.82246190e+00  -6.73841680e-01  -1.96853331e+00
C     1.757284245029487e+00   5.278016519426490e+00   3.566283401967094e+00  1.49802100e-01   1.37442809e+00  -2.51440040e-01
C     3.213255819031700e-02   5.282097820273763e+00   5.312272079116496e+00 -9.56145030e-01   3.02697037e+00   4.49315690e-01
C     1.765528095994580e+00   3.575530251363868e+00   5.312195521404878e+00  2.00141849e+00  -3.84464390e-01   2.45893158e+00
C     9.066000462687870e-01   4.413226224650209e+00   4.491186428050534e+00 -1.63865355e+00   3.98167950e-01  -1.95436135e+00
C     2.648708946352194e+00   6.202971579163510e+00   4.377146217210553e+00  1.58575838e+00   9.99369440e-01   8.41722980e-01
C     9.511170405161204e-01   6.236754570917738e+00   6.195876520378035e+00 -1.82113111e+00  -8.85079920e-01   2.89405100e-01
C     2.667392013524339e+00   4.544697069680919e+00   6.231412591318809e+00  1.69688190e-01  -3.46866308e+00  -1.09541716e+00
C     3.571181887078762e+00   3.604640521508840e+00   3.550587791569455e+00 -6.97303670e-01  -2.42813521e+00   3.34000630e-01
C     5.315227903410344e+00   5.345930460222196e+00   3.571200866567157e+00  1.08511592e+00  -1.25641696e+00   4.29715100e-02
C     3.535594635495125e+00   5.422180519308602e+00   5.317888017323201e+00  1.00571960e+00  -2.94020623e+00  -1.38554470e-01
C     5.297119552207025e+00   3.545578486149141e+00   5.359495747444846e+00  6.66032540e-01   7.08125450e-01  -1.19144016e+00
C     4.458674564429215e+00   4.438978049444136e+00   4.463081075611353e+00 -1.52001204e+00   1.52465129e+00  -4.49936100e-01
C     6.211081862867572e+00   6.192171752676943e+00   4.408933661482670e+00  1.69649898e+00   1.74776608e+00   1.44588857e+00
C     4.463513480959327e+00   6.218510022337020e+00   6.199543115849657e+00 -4.78270560e-01   2.20061900e-01   9.28011470e-01
C     6.222341959718784e+00   4.454397426538761e+00   6.186219017406503e+00  1.71566160e-01  -5.03300700e-01   1.71980731e+00
