64
Lattice="7.10842262195238 0 0 0 7.10842262195238 0 0 0 7.10842262195238 " PBC="1 1 1" Properties=species:S:1:pos:R:3:force:R:3 Energy="-504.00036115"
C     1.588042938575860e-01   7.058221233436131e+00   4.519535101796000e-02 -4.16220056e+00   1.25094905e+00  -1.38370210e+00
C     1.803721224226483e+00   1.841024377946362e+00   3.406171300515880e-02  1.31922900e+00  -1.52274306e+00   1.00517757e+00
C     7.102476353394144e+00   1.763290009132673e+00   1.771133726988485e+00 -4.90791920e-01  -9.59239210e-01   3.01607600e-01
C     1.751842605345425e+00   4.573424053678220e-02   1.836034549604026e+00  4.02190420e-01  -2.40261814e+00  -6.03538160e-01
C     9.262255481118926e-01   8.371651873693056e-01   9.414372170975616e-01 -4.40445150e-01   3.74602594e+00  -1.59778060e+00
C     2.690760170961101e+00   2.746824300165041e+00   1.011323816254544e+00 -1.62610068e+00  -1.05557194e+00  -4.05098881e+00
C     8.541799077525376e-01   2.656496152248177e+00   2.626943098458206e+00 -1.38146020e-01   9.94216390e-01   1.69921616e+00
C     2.627228359457947e+00   8.500456491567456e-01   2.706292856312289e+00  5.81383100e-01   3.36084278e+00  -9.62981660e-01
C     3.440518132352327e+00   7.093202349822961e+00   7.304423156901260e-02  2.45432508e+00  -2.81416820e-01  -3.92997670e-01
C     5.305749035099253e+00   1.840541716050463e+00   7.087987824241607e+00  5.95712610e-01  -5.49256615e+00   1.52537588e+00
C     3.590295724661680e+00   1.850204621423186e+00   1.825484370919875e+00 -1.74817716e+00  -2.44741123e+00  -9.24292800e-01
C     5.235392355954410e+00   4.388477113951060e-02   1.747639466134445e+00  3.60790827e+00  -3.09848620e-01  -4.46308100e-02
C     4.361515009121852e+00   8.616044419264489e-01   8.796840751023832e-01  1.16523687e+00   3.02036764e+00   1.19409023e+00
C     6.192124908171878e+00   2.651790163221059e+00   8.717515019638203e-01  1.83203145e+00   1.05157980e-01   2.11946860e-01
C     4.499667202741552e+00   2.729027155704026e+00   2.604236664083140e+00  8.36090430e-01  -3.15161751e+00   2.23001484e+00
C     6.239905876833636e+00   8.614946167969699e-01   2.718286115872527e+00 -1.77502914e+00   1.52925012e+00  -2.17325339e+00
C     7.463132908737999e-04   3.514110494389568e+00   2.837319780350380e-02  1.44546938e+00   2.99563767e+00  -2.45058954e+00
C     1.830797063817610e+00   5.279082853903716e+00   6.698543863308180e-02 -1.27173570e-01   4.44324900e-01  -1.25321994e+00
C     6.994972123900573e+00   5.313680399805970e+00   1.703565753121695e+00  1.92017075e+00   2.53792560e+00   1.09290842e+00
C     1.682129096279239e+00   3.622310922794540e+00   1.765363749263605e+00  2.34271587e+00  -2.52522905e+00   4.69016060e-01
C     8.774245918883899e-01   4.502291774541309e+00   8.589825002430620e-01 -1.74705286e+00  -3.36228719e+00   1.52839669e+00
C     2.671355954314156e+00   6.142378247403010e+00   9.961305580834608e-01 -7.67815640e-01   2.23955921e+00  -1.10288894e+00
C     8.158746086116913e-01   6.298907917106423e+00   2.681609285269697e+00  1.50270520e-01  -2.28185150e+00  -1.65656918e+00
C     2.633926768261225e+00   4.395035557912951e+00   2.588951778344485e+00  1.00048366e+00   1.07611083e+00   2.01095292e+00
C     3.583214456216088e+00   3.594149484900886e+00   3.427560544179460e-02 -2.10547187e+00  -2.03501462e+00  -1.78720700e+00
C     5.238198050362524e+00   5.385920313355530e+00   7.010415882884785e+00  2.76398206e+00  -8.57149440e-01   3.30663276e+00
C     3.584381517041840e+00   5.261053335107253e+00   1.826823882078388e+00  5.84271530e-01   1.34809551e+00  -1.72265066e+00
C     5.389394412742602e+00   3.574396813377109e+00   1.735874244771857e+00 -2.82682294e+00  -5.73446770e-01   1.56217090e-01
C     4.450281152252198e+00   4.416981959741486e+00   8.543591110867877e-01  1.52518565e+00   2.36150802e+00   7.91544940e-01
C     6.168269823785646e+00   6.340289243967622e+00   7.551115988032526e-01 -3.72275920e-01  -4.23246075e+00   4.24491288e+00
C     4.483109340680108e+00   6.264351031381555e+00   2.679836089247138e+00 -2.66477419e+00  -4.37232180e-01  -1.53116225e+00
C     6.157177201371362e+00   4.421074705149177e+00   2.638439621445758e+00  2.83870245e+00   2.48652452e+00   8.64571160e-01
C     7.042625496376303e+00   3.196615001678280e-02   3.608446868569172e+00  2.60586981e+00  -1.91208374e+00   4.24441810e-01
C     1.740597151844811e+00   1.795929824361153e+00   3.557381453235841e+00  1.31634450e+00  -1.10827602e+00  -1.10968398e+00
C     8.624371936363820e-02   1.777837040603372e+00   5.426053898794240e+00 -1.77352030e-01  -1.82949664e+00  -2.00671977e+00
C     1.889477874472198e+00   7.018737215656436e+00   5.334554069576922e+00 -2.64204149e+00   9.12706800e-01   5.43515730e-01
C     9.332439070172972e-01   8.643413268036013e-01   4.464623532235667e+00 -1.10643666e+00   5.13587000e-03   1.34019039e+00
C     2.709094214582605e+00   2.673814615529962e+00   4.347208384504161e+00 -1.38546754e+00  -4.80063780e-01   2.17800014e+00
C     1.036866653423442e+00   2.656029057797817e+00   6.173729589947389e+00 -3.67955708e+00   1.33799688e+00   1.85438203e+00
C     2.683556353309541e+00   9.296903354653329e-01   6.314960157066906e+00 -1.48024220e+00  -2.11387807e+00  -3.14665074e+00
C     3.486933359776105e+00   7.102813790215915e+00   3.502702186926730e+00  3.33794568e+00  -5.21864450e-01   2.04937481e+00
C     5.429110947026198e+00   1.723804498584228e+00   3.608273849562600e+00 -2.35502217e+00   2.92533384e+00  -3.38230280e-01
C     3.471079800227850e+00   1.752468573041342e+00   5.300098834295519e+00  3.23593659e+00   8.87623560e-01   1.70882584e+00
C     5.287208918305995e+00   7.081019579715674e+00   5.353955300686366e+00 -1.01073885e+00   1.03355227e+00   1.30071450e+00
C     4.403696886538516e+00   9.182760569274941e-01   4.429470320937207e+00  6.89126980e-01  -1.84647821e+00   5.79381130e-01
C     6.342593154822990e+00   2.658926379773503e+00   4.540208029712162e+00 -3.74498499e+00  -1.28191658e+00  -3.88744050e-01
C     4.411703387272326e+00   2.592553047412229e+00   6.249507223266471e+00 -4.34510010e-01   3.93857543e+00  -1.99761936e+00
C     6.257166051049937e+00   8.197332025782796e-01   6.267388957956665e+00  6.65571690e-01   2.61091990e+00  -1.10097575e+00
C     7.080334754280463e+00   3.521618197108133e+00   3.602346491360913e+00  4.42356790e-01   1.77070454e+00  -1.87795032e+00
C     1.795990672458780e+00   5.364695842928281e+00   3.334523518570566e+00 -2.12846192e+00  -1.15035949e+00   6.72210013e+00
C     7.085796866221671e+00   5.364062340304387e+00   5.338160243456274e+00  2.19512866e+00  -1.19724938e+00   6.96010970e-01
C     1.826185474642885e+00   3.586724097716261e+00   5.188611613439511e+00 -1.16884418e+00   3.02408410e-01   3.61980421e+00
C     8.313836939997810e-01   4.473753945669926e+00   4.432137685441136e+00  1.79415715e+00  -5.22798030e-01  -2.37947126e+00
C     2.709654713706192e+00   6.088942030957458e+00   4.337049524485241e+00 -1.39678478e+00   3.91338916e+00   7.17452720e-01
C     1.016417640819810e+00   6.113046692061879e+00   6.351355849555116e+00 -2.87113433e+00   4.38383455e+00  -5.19158309e+00
C     2.634300458038358e+00   4.515777092009484e+00   6.144276978169039e+00  2.06506003e+00  -4.54413821e+00   1.26484801e+00
C     3.630134950319696e+00   3.492913035968276e+00   3.530305116055130e+00 -1.20368346e+00   2.09633231e+00  -2.06923909e+00
C     5.363903538143057e+00   5.496450527274208e+00   3.545916704897401e+00 -1.62482087e+00  -7.55889153e+00  -9.47718550e-01
C     3.537292268985233e+00   5.256466412159019e+00   5.229677610673287e+00  8.87721950e-01   1.42975557e+00   1.36906742e+00
C     5.329810548078370e+00   3.525971181867942e+00   5.409563922168816e+00  1.53602072e+00   9.61450690e-01  -3.31685418e+00
C     4.504327058105868e+00   4.405608838970617e+00   4.320357384320505e+00 -1.03866036e+00   9.64897080e-01   4.48701293e+00
C     6.144308681733924e+00   6.187349256603083e+00   4.505442440699171e+00  3.09994385e+00   3.74526089e+00  -9.48468200e-02
C     4.289643667285140e+00   6.187623854968893e+00   6.289194399764645e+00  1.88685226e+00   1.57647439e+00  -4.78305130e+00
C     6.245604343826959e+00   4.542436235866628e+00   6.209561655606059e+00 -2.70483738e+00  -4.28782532e+00   9.15921920e-01
