64
Lattice="7.10842262195238 0 0 0 7.10842262195238 0 0 0 7.10842262195238 " PBC="1 1 1" Properties=species:S:1:pos:R:3:force:R:3 Energy="-502.63016724"
C     7.071739462901037e+00   9.430950434209980e-02   7.070256503774053e+00  1.05286425e+00  -2.58287408e+00   1.04208795e+00
C     1.749241846761445e+00   1.639526542411924e+00   2.242913480865980e-02 -8.90566430e-01   3.91067616e+00  -1.91229747e+00
C     7.306747611098000e-03   1.803759396455952e+00   1.773179602102748e+00 -1.13010690e+00   3.47728230e-01  -9.63675860e-01
C     1.791041930799189e+00   7.085097184183184e+00   1.763721916891064e+00 -8.91303650e-01   4.67203340e-01   9.63103350e-01
C     8.452224422406232e-01   8.732262153205655e-01   9.589806619552692e-01  1.46115174e+00  -2.73064680e-01  -3.09013998e+00
C     2.631132091908172e+00   2.615007559289642e+00   7.546631995043830e-01  2.79724706e+00   1.10270290e-01   2.82955692e+00
C     9.257135284305740e-01   2.709814511046690e+00   2.569629948315705e+00  1.79379979e+00  -2.32502783e+00   2.29675786e+00
C     2.654870811416114e+00   7.925681522832709e-01   2.684548262601935e+00  1.92662702e+00   3.52416870e+00  -2.15254895e+00
C     3.614948445150101e+00   5.881359598912980e-02   7.087935292998446e+00 -1.80220519e+00  -1.44131518e+00  -1.17455311e+00
C     5.334789500534097e+00   1.702564318542989e+00   1.972274506454720e-02  9.19319670e-01   5.44144608e+00  -2.69695022e+00
C     3.610542858062904e+00   1.670956006520897e+00   1.675376947800954e+00 -2.38598120e+00   3.63458114e+00   2.53163661e+00
C     5.294430720266784e+00   7.065740949388924e+00   1.764739558673343e+00  4.45206779e+00   1.22040762e+00  -1.03495140e-01
C     4.563334642948297e+00   8.799945710024247e-01   8.112269797342828e-01 -4.85748006e+00  -2.83793209e+00   3.54420298e+00
C     6.070770983466630e+00   2.700532972547530e+00   8.625635813905655e-01  4.34167008e+00  -2.29061178e+00   1.41253667e+00
C     4.342916318926206e+00   2.722822284683254e+00   2.728116140261047e+00  5.73654880e-01  -2.27106947e+00  -2.09842179e+00
C     6.239205910458246e+00   9.117751201045994e-01   2.584314101258745e+00 -3.01280044e+00   2.01800960e-01   1.91156758e+00
C     7.075832848066764e+00   3.492786363877187e+00   1.147441579320400e-02 -7.35198600e-02   6.98403640e-01   3.79082650e-01
C     1.677785139216157e+00   5.288068824190336e+00   2.181887672673280e-02  2.03238320e+00   2.40183515e+00  -1.00193736e+00
C     7.583450070004120e-02   5.221041588032249e+00   1.872669156176494e+00 -1.01784000e-01   2.98310073e+00  -2.07777255e+00
C     1.847252493509100e+00   3.512242969598841e+00   1.690916599406310e+00 -1.55225375e+00   1.09825291e+00   1.95575330e+00
C     8.948677369029294e-01   4.337396131172192e+00   9.232376648320281e-01 -7.77546620e-01   2.41762200e+00  -1.60897943e+00
C     2.662339062389139e+00   6.294103902931375e+00   8.659095870020258e-01  1.86557580e-01  -1.44208068e+00  -4.79507120e-01
C     1.000166933699775e+00   6.224119847300272e+00   2.675225495251579e+00 -3.38738555e+00  -1.57082253e+00   1.47928743e+00
C     2.574521467173206e+00   4.565484016695906e+00   2.713764519328171e+00  4.55035909e+00  -4.23298142e+00  -1.68056034e+00
C     3.544396853057018e+00   3.621732865867082e+00   7.023349373504971e+00  1.35380838e+00  -3.25707676e+00   4.28556885e+00
C     5.409004631477075e+00   5.390067296027811e+00   7.993961476309121e-02 -8.42718140e-01  -2.90353327e+00  -8.57667260e-01
C     3.526848574471929e+00   5.463229029822733e+00   1.803712480866660e+00 -3.31123540e-01  -3.58384957e+00  -8.33062830e-01
C     5.252287441584947e+00   3.502080342115932e+00   1.824566744643859e+00  9.77339250e-01   2.64198434e+00  -8.09459510e-01
C     4.440790697212235e+00   4.490013325065557e+00   9.498185449561251e-01 -8.62281050e-01  -1.85909610e-01  -1.19162337e+00
C     6.332111714585574e+00   6.183332713485878e+00   9.942612561870794e-01 -2.77914892e+00   7.78365200e-01  -3.17369668e+00
C     4.464084784885297e+00   6.228168378319266e+00   2.645264275834768e+00 -8.06704320e-01  -3.50522220e-01   1.68950888e+00
C     6.279137616694547e+00   4.379382598051031e+00   2.689697675032090e+00 -1.58821479e+00  -3.97439700e-01  -3.76727780e-01
C     7.107540038247500e+00   9.492992746837339e-02   3.458358211685967e+00  1.62143597e+00  -2.94750514e+00   1.56347676e+00
C     1.933244787964669e+00   1.842329057834036e+00   3.522607191947254e+00 -4.94641242e+00  -1.13785240e+00   1.05906092e+00
C     7.016991315976738e+00   1.947203313126659e+00   5.270327196509983e+00  7.39109660e-01  -4.08248732e+00  -3.06625630e-01
C     1.721996755627736e+00   5.293244253447280e-02   5.349662453181922e+00 -2.38060060e-01  -1.19539550e+00  -3.47492859e+00
C     7.976680190077637e-01   1.005235949870097e+00   4.396184065755664e+00  2.69457618e+00  -7.73329050e-01   2.61245820e-01
C     2.692903360381031e+00   2.715026690848579e+00   4.576358623788434e+00  1.37718671e+00  -8.90652340e-01  -3.80035994e+00
C     8.053637395046283e-01   2.614865035416111e+00   6.245921024054681e+00  2.66136700e+00   8.08625690e-01   2.58549200e-01
C     2.630820174323606e+00   9.049464139146963e-01   6.134773514715682e+00  8.81336060e-01  -1.12102625e+00   4.65184834e+00
C     3.514988882172721e+00   7.068042301212150e+00   3.528689300509378e+00  1.12765960e+00  -6.14677290e-01   2.95755899e+00
C     5.234767170184981e+00   1.774909578915777e+00   3.502213127450474e+00  7.87193450e-01  -1.40944580e-01   2.16222667e+00
C     3.597818355067747e+00   1.773404796931349e+00   5.421187401584362e+00 -1.45992107e+00   6.32462300e-02  -3.00640047e+00
C     5.458970444915317e+00   7.021823550589588e+00   5.312003593994138e+00 -3.50927515e+00   2.96968495e+00  -9.43687980e-01
C     4.376480229095286e+00   8.229673216177010e-01   4.510939668248121e+00  2.45676884e+00   4.64577190e-01  -3.24505223e+00
C     6.081785342147869e+00   2.698489087791601e+00   4.370471124033468e+00  3.70605568e+00   2.61183080e-01   2.54324850e-01
C     4.491232917134470e+00   2.604068620972403e+00   6.253203531944645e+00 -1.84729798e+00   3.54464055e+00  -5.07738310e-01
C     6.180148140152118e+00   1.052541222890126e+00   6.132368308837979e+00  2.07078824e+00  -5.94331480e+00   1.51159609e+00
C     8.366862218531700e-02   3.496873351462556e+00   3.503237522234242e+00 -2.65870639e+00   8.98928450e-01   1.72058497e+00
C     1.799812444796197e+00   5.243413286786139e+00   3.704056503408469e+00 -2.42060066e+00   3.52397697e+00  -2.45710311e+00
C     7.076486254273995e+00   5.255535990722287e+00   5.205155329739942e+00  2.38778116e+00   6.66503130e-01   3.82998965e+00
C     1.817936861034637e+00   3.527773806760148e+00   5.412203066234945e+00 -2.60866511e+00   2.59189780e-01   8.26630760e-01
C     9.005605882423827e-01   4.339912441695446e+00   4.534652228760823e+00  8.36446090e-01   6.23942530e-01  -3.30907253e+00
C     2.613193987426602e+00   6.204930447184902e+00   4.471185743661546e+00  2.11568773e+00   8.06895410e-01   1.61177120e+00
C     8.071190223021848e-01   6.247085312595610e+00   6.110825238908903e+00  5.71483500e-01  -7.12459940e-01   3.57727055e+00
C     2.646179485247093e+00   4.476999224932861e+00   6.278264844565264e+00  2.58908130e-01   2.17777750e-01  -1.27625977e+00
C     3.503469967653916e+00   3.670884978168013e+00   3.638818812644967e+00  9.19155360e-01  -1.58557986e+00  -7.45903010e-01
C     5.358788743731061e+00   5.235742303599992e+00   3.539268694810498e+00  3.07357980e-01   3.76067845e+00  -8.12042290e-01
C     3.602088526704033e+00   5.386277867013315e+00   5.486690023258912e+00 -1.90790062e+00   4.00565000e-02  -4.46840969e+00
C     5.353511521862200e+00   3.616108326469007e+00   5.355415015271383e+00 -2.49389148e+00  -3.53171491e+00  -2.11488340e+00
C     4.458997144647710e+00   4.539148234983747e+00   4.492189924071800e+00 -9.47790960e-01  -1.87118064e+00   1.13034442e+00
C     6.335116089405917e+00   6.131763879662600e+00   4.302196075368667e+00 -3.61148729e+00   2.66198526e+00   1.73856993e+00
C     4.494989718489140e+00   6.263335593210288e+00   6.249720831366202e+00  1.82806733e+00  -8.42016030e-01   1.29720221e+00
C     6.278837143670400e+00   4.320264548321087e+00   6.174922525431477e+00 -1.03393273e+00   5.89885147e+00   2.01997790e+00
