64
Lattice="7.10842262195238 0 0 0 7.10842262195238 0 0 0 7.10842262195238 " PBC="1 1 1" Properties=species:S:1:pos:R:3:force:R:3 Energy="-503.26509786"
C     7.104536445353646e+00   7.022048461081284e+00   7.081692107579752e+00  1.27325349e+00   1.32861356e+00   1.14644450e-01
C     1.754054817548995e+00   1.886896521881972e+00   4.979364744238560e-02  2.28912820e-01  -5.74716080e+00  -6.38298930e-01
C     1.821533296375000e-03   1.700559103606113e+00   1.661041747324331e+00 -1.22774120e+00   1.42862068e+00   2.29840769e+00
C     1.760241491007860e+00   1.681127732784760e-02   1.787761891349642e+00  2.52511818e+00  -2.54927187e+00  -1.09919120e-01
C     9.122776144996071e-01   7.921828757772670e-01   8.957321921777476e-01 -1.63737620e+00   2.88450989e+00  -2.32182423e+00
C     2.591711907763604e+00   2.635231874654257e+00   9.884197677306420e-01  8.54729650e-01   2.97348329e+00  -2.12635639e+00
C     7.970018887240437e-01   2.727789721494336e+00   2.592274397245525e+00  1.27392674e+00  -3.31264502e+00   2.10607554e+00
C     2.699980648109956e+00   8.332638717827709e-01   2.629575418438618e+00 -1.32010772e+00   2.41701156e+00   7.08448800e-02
C     3.503484184499156e+00   4.597585582163600e-03   8.542866762602899e-02  1.49717819e+00   2.36594187e+00  -1.15858030e+00
C     5.317468691472847e+00   1.774997723356265e+00   6.980161441034899e+00 -2.77537370e-01   2.04060650e+00   5.62236271e+00
C     3.532265974434857e+00   1.752700734124111e+00   1.711134375022114e+00  1.71418950e-01   2.06210674e+00   4.57826767e+00
C     5.224661552251484e+00   7.105302520059404e+00   1.746998215329895e+00  4.19830384e+00   2.45540132e+00  -2.64894495e+00
C     4.433664787872591e+00   1.001260777772541e+00   9.023954142890569e-01  2.93721250e-01  -3.80568513e+00  -3.25424239e+00
C     6.269856504700745e+00   2.659083760250310e+00   8.464241210845342e-01 -8.08570030e-01  -4.68832130e-01   2.35730200e-02
C     4.472846057932899e+00   2.668219220664629e+00   2.759791769045350e+00 -8.45609330e-01   1.09928747e+00  -3.33556441e+00
C     6.166449712173795e+00   8.442093498488207e-01   2.537150001511949e+00  2.08706013e+00   9.85388630e-01   3.53911701e+00
C     4.404535040649640e-02   3.585753158270594e+00   3.025117197548160e-02 -1.74034797e+00  -3.84402300e-01  -6.22088510e-01
C     1.991983745516289e+00   5.338122568816388e+00   2.561918162783720e-02 -4.01893440e+00   6.94839920e-01   8.78499760e-01
C     7.073642316552186e+00   5.327585185292953e+00   1.827778329983575e+00  2.84130835e+00   2.24166294e+00  -3.59464952e+00
C     1.662944956396609e+00   3.641013751381570e+00   1.821805620045572e+00  3.89423926e+00  -2.86583124e+00   3.39540850e-01
C     9.370411552966750e-01   4.507078444165164e+00   9.583058593959525e-01 -2.00505070e+00   5.00230510e-01  -4.23936963e+00
C     2.814159259938348e+00   6.258808594264741e+00   1.052499780786251e+00 -3.71046479e+00  -2.58641253e+00  -4.42585977e+00
C     9.310272875917026e-01   6.194865560513019e+00   2.591968450735960e+00 -1.66215771e+00   1.08235707e+00   2.90492369e+00
C     2.604271495353978e+00   4.461300771166174e+00   2.710447800417906e+00  3.44909304e+00  -1.84040377e+00  -1.14917661e+00
C     3.510731932202508e+00   3.481760844972436e+00   5.201879697512420e-02  1.45803147e+00   1.45998800e-02  -6.34289870e-01
C     5.228100749283493e+00   5.291063460471690e+00   4.802883935851820e-02  1.18937824e+00   1.45870290e-01  -1.01566575e+00
C     3.616097806003529e+00   5.228273981542742e+00   1.827783305879409e+00 -1.10443051e+00   2.68746312e+00   3.26067180e-01
C     5.443233321329578e+00   3.516069931084771e+00   1.846535680172100e+00 -2.19847053e+00   3.02218520e-01  -1.20780436e+00
C     4.459405594611456e+00   4.318234596073494e+00   9.711857525095828e-01 -5.12223850e-01   1.71318987e+00  -1.35261844e+00
C     6.149502166384322e+00   6.212631498998732e+00   8.784754300043046e-01  1.14865537e+00  -1.34416888e+00  -3.21681880e-01
C     4.495519224890104e+00   6.257494246922302e+00   2.587726144116344e+00 -2.90205835e+00  -2.94552845e+00   3.45872696e+00
C     6.319296223780881e+00   4.516133295066973e+00   2.696629808771114e+00 -4.40065098e+00  -3.26246041e+00   1.36630118e+00
C     8.559464929420601e-03   7.045242177826951e+00   3.479497096704871e+00 -6.01122660e-01   1.47156959e+00   2.13239392e+00
C     1.795822842600722e+00   1.780394508893595e+00   3.415221815279890e+00 -1.32000003e+00   9.85950550e-01   3.90699234e+00
C     4.613828327850299e-02   1.752126657913320e+00   5.349189387656561e+00 -1.74118997e+00  -4.11243060e-01  -4.39261940e-01
C     1.903330128716019e+00   1.019212743678220e-02   5.278756008631648e+00 -2.95018436e+00   1.89154320e-01   4.01762700e-02
C     9.147689033752386e-01   8.380794016024637e-01   4.423974799409685e+00 -3.22427300e-01   1.30345833e+00  -1.67641873e+00
C     2.596768484194341e+00   2.711703076768371e+00   4.439699909761196e+00  1.41285724e+00  -7.31681760e-01  -5.08224690e-01
C     9.137748615560578e-01   2.640918044076447e+00   6.273696687852747e+00 -2.19914414e+00   3.60921590e+00  -2.06024844e+00
C     2.605119245835639e+00   9.366249571522740e-01   6.255589260744369e+00  2.53128214e+00  -1.11604683e+00  -3.89097160e-01
C     3.589726197841365e+00   7.095664067660493e+00   3.479190723689948e+00 -3.60157000e-03  -6.71407500e-02   1.92490894e+00
C     5.353356131743727e+00   1.786102216836325e+00   3.523737786564965e+00 -4.04709950e-01  -9.19643760e-01   1.35342236e+00
C     3.502882030019015e+00   1.738683137970150e+00   5.316582910930169e+00 -1.41776540e-01   3.15326379e+00  -1.25812160e-01
C     5.235656931444326e+00   7.952860576720280e-02   5.455222813425827e+00  7.82039300e-01  -3.49474219e+00  -5.16273926e+00
C     4.434073948678598e+00   9.715906482620182e-01   4.390308385786424e+00 -7.17170130e-01  -3.68498500e+00   1.78778469e+00
C     6.179744879336886e+00   2.648754724593866e+00   4.469648476185745e+00  3.37218053e+00   9.27669590e-01  -8.09460720e-01
C     4.375011060308185e+00   2.622862437368969e+00   6.217609385191066e+00  8.64014700e-01   1.37577575e+00  -1.33816368e+00
C     6.136848960868043e+00   8.735309533982850e-01   6.232631401461233e+00  4.78117850e+00  -4.70769030e-01  -5.70649160e-01
C     7.090952960569088e+00   3.550017909328009e+00   3.593785462578516e+00  1.20752397e+00   4.83952720e-01  -5.84064920e-01
C     1.834302369179984e+00   5.353745886555981e+00   3.507457934912188e+00 -3.32822084e+00   6.23453970e-01   2.36826790e+00
C     7.073471643325079e+00   5.231042356732101e+00   5.292309993462333e+00  5.87300470e-01   4.46091284e+00   2.13780085e+00
C     1.737146439168158e+00   3.664489032747216e+00   5.334957330392155e+00  1.60062479e+00  -4.77264498e+00   1.00061888e+00
C     9.211490680978196e-01   4.517202472913247e+00   4.499471365698372e+00 -1.84753517e+00  -3.10720335e+00  -3.52129686e+00
C     2.688239382131597e+00   6.155028040876432e+00   4.411107843625222e+00  1.62790330e+00   3.78161167e+00  -9.64268490e-01
C     1.187102028149523e+00   6.194964438671663e+00   6.144016099058884e+00 -8.09212312e+00  -7.32405200e-01   3.20754399e+00
C     2.703424536700893e+00   4.394675089801891e+00   6.207581106895675e+00  4.53349370e-01   9.03728030e-01   1.96559390e+00
C     3.559659062927515e+00   3.605673517483978e+00   3.604338768968621e+00 -1.13615350e+00  -2.16574017e+00  -1.16774432e+00
C     5.302761293987841e+00   5.412629855929048e+00   3.501127458063721e+00  2.15292027e+00  -1.57703389e+00   1.64567969e+00
C     3.499370753581641e+00   5.335666111211594e+00   5.326563278457101e+00  3.17638542e+00  -8.63790200e-01  -8.80840000e-03
C     5.392899291599620e+00   3.638355627827047e+00   5.290175902823357e+00 -5.35266238e+00  -4.04560216e+00  -1.73286310e-01
C     4.447232207622027e+00   4.491590541876482e+00   4.384287125321928e+00  2.67370950e-01   6.91102250e-01   1.90222354e+00
C     6.199076590073107e+00   6.187222939933126e+00   4.453578038663353e+00  1.43589880e-01   1.66358128e+00  -1.86278800e-02
C     4.328394522355808e+00   6.238606172841796e+00   6.276705043389758e+00  1.34752767e+00  -1.96559110e-01  -3.53211880e-01
C     6.089432796455143e+00   4.405270335885453e+00   6.241823800340739e+00  5.83967409e+00   2.43611095e+00   1.03815263e+00
