76
Lattice="10.7446858958278 0 0 5.37234294791388 9.3051709414712 0 0 0 30 " PBC="1 1 1" Properties=species:S:1:pos:R:3:force:R:3 Energy="-612.20397408"
C     1.279398223530635e-01   8.027021964852539e-02  -3.595787999999978e-01  6.79701040e-01   1.42630170e-01  -4.95431310e-01
C     1.255851792359766e+01   8.561347398741015e+00  -2.606120999999995e-01  1.75101327e+00  -4.63862800e-02  -5.28051100e-01
C     1.400554431419477e+01   8.380199541776820e+00  -3.146693999999997e-01 -1.08228026e+00   8.63411000e-03  -6.46411000e-03
C     1.459148529112463e+01   7.082830456897662e+00  -1.858140000000006e-01 -1.05163489e+00   3.29334000e-03   8.32669400e-02
C     8.352344891262652e+00   9.058609313206667e+00  -2.092710000000011e-01 -1.45338100e-02   2.55842740e-01   1.16103860e-01
C     9.771056724405796e+00   8.907599509141491e+00  -1.736772000000002e-01 -1.15765153e+00  -1.51880470e+00  -3.29779580e-01
C     1.029754311010002e+01   7.581866309151316e+00  -1.764197999999979e-01  9.97053250e-01  -3.66342220e-01   4.83347210e-01
C     1.173036771210881e+01   7.431174276673742e+00  -1.735223999999995e-01 -5.13068600e-01  -1.32410805e+00  -1.52986470e-01
C     1.230680630372243e+01   6.096277623496984e+00  -1.231818000000011e-01  4.49561500e-01   8.69935300e-01   8.74057200e-02
C     1.374709787147399e+01   5.921710476473266e+00  -9.887999999999764e-02 -8.06703310e-01   4.57397570e-01   2.90816460e-01
C     6.084399409063963e+00   8.102002473976803e+00  -2.603013000000018e-01 -5.75693560e-01  -7.80924500e-01   3.44446170e-01
C     7.490109688757242e+00   7.950981410654792e+00  -1.985124000000020e-01  6.73694870e-01  -1.24542079e+00   5.17891410e-01
C     8.060173082162382e+00   6.633578013586685e+00  -3.496529999999964e-02 -7.45590080e-01   4.22605670e-01  -8.84044690e-01
C     9.453058236148273e+00   6.424729500199496e+00  -8.296590000000137e-02  7.85132370e-01  -1.30177470e-01   8.98112000e-02
C     1.002940614261290e+01   5.084875424152743e+00  -7.545389999999941e-02  2.85201250e-01   1.32930242e+00  -2.01675790e-01
C     1.144991206968419e+01   4.970875541725777e+00  -8.997989999999945e-02 -2.77569000e-02  -8.43438470e-01   2.45609180e-01
C     1.202465788975769e+01   3.647609886965470e+00  -6.824310000000011e-02 -4.33848210e-01   2.87288620e-01  -8.02526500e-01
C     5.238059679985295e+00   6.943690608038680e+00  -1.349823000000008e-01  1.02053686e+00  -8.33844230e-01  -3.88867910e-01
C     5.811514472324483e+00   5.600016014907382e+00  -5.394030000000072e-02 -6.27032460e-01   2.48350057e+00   4.05388420e-01
C     7.203588939759220e+00   5.509377973797508e+00  -3.378209999999982e-02  1.37712566e+00  -1.61950058e+00   2.92004810e-01
C     7.801956038485571e+00   4.197802498340833e+00  -4.283669999999873e-02 -1.52896446e+00  -1.93290626e+00  -6.95536580e-01
C     9.190747467143561e+00   3.930086868139341e+00  -1.390859999999989e-01 -5.02084540e-01   2.63061480e+00   3.25216190e-01
C     9.720043427030353e+00   2.667143193669807e+00  -3.174396000000002e-01  2.40812421e+00  -1.50108424e+00   3.21569870e-01
C     1.118475857913092e+01   2.507520058124021e+00  -2.557691999999996e-01 -8.02676900e-01   3.51582770e-01  -5.97649500e-02
C     3.570776630038345e+00   4.621407378145017e+00   2.522760000000000e-02 -9.53334290e-01   2.15283110e-01  -4.86107560e-01
C     4.980990276209461e+00   4.480525508234358e+00   4.376760000000000e-02 -6.96168510e-01  -4.62287540e-01  -5.60901760e-01
C     5.526885002938579e+00   3.183852543193221e+00  -6.126839999999945e-02 -1.08240460e-01  -6.56068270e-01   2.57824200e-01
C     6.925341867521343e+00   3.012301481226287e+00  -1.390853999999990e-01  1.02452578e+00   1.13018728e+00  -2.92870900e-02
C     7.475852188972525e+00   1.712683243479221e+00  -3.290742000000009e-01  7.62272910e-01  -1.04928920e-01   1.06902000e-01
C     8.900764189390832e+00   1.518902128136627e+00  -4.120433999999982e-01 -1.04661771e+00   7.40628410e-01   1.02202470e-01
C     9.453007628677684e+00   2.200858100211706e-01  -4.471274999999970e-01  7.58299640e-01  -4.31330500e-02   6.88076180e-01
C     2.689348356280053e+00   3.480214700443759e+00  -5.578560000000010e-02  4.18442160e-01   3.88632370e-01   5.99313200e-01
C     3.242538993352419e+00   2.177129821262997e+00  -9.106590000000025e-02  6.74169700e-01   3.64997860e-01  -2.80728650e-01
C     4.671942165030068e+00   2.051385138178982e+00  -1.108290000000025e-01 -2.82775750e-01  -1.46860229e+00  -2.13400900e-01
C     5.232405718817855e+00   7.061308061771990e-01  -2.270879999999984e-01  5.12713630e-01   2.36046233e+00   2.43185730e-01
C     6.645188795451667e+00   5.649350728507330e-01  -3.322481999999987e-01 -5.68896100e-01  -1.53679490e-01   5.54305080e-01
C     1.030630002910853e+00   1.209373805367954e+00  -3.447402000000004e-01 -2.77369368e+00   1.57176940e-01   5.03016050e-01
C     2.394109530313059e+00   1.037048274023684e+00  -2.176106999999980e-01  1.69438094e+00   4.38028190e-01   2.36682700e-02
C     1.598993355995868e+01   9.233590261182083e+00   3.345177900000000e+00 -9.86855340e-01  -5.25277160e-01   1.65957510e-01
C     1.173579512157405e+01   8.752300765686652e+00   3.356006700000000e+00 -9.24518230e-01  -1.69561230e-01  -4.66313140e-01
C     1.313931192736427e+01   8.873593761941262e+00   3.267292800000000e+00 -1.67372950e-01   1.34745214e+00   2.24041340e-01
C     1.397180503344704e+01   7.758375910608757e+00   3.388973700000000e+00  9.51417970e-01  -1.39194764e+00   1.00411300e-01
C     7.517580412304053e+00   8.261005326827728e+00   3.462960000000000e+00 -1.72617892e+00   1.96453320e-01   7.23148460e-01
C     8.909062041694256e+00   8.404650181145604e+00   3.527605200000000e+00  1.14881434e+00   7.29148720e-01  -2.89924920e-01
C     9.770957013720643e+00   7.267446630226323e+00   3.574848000000000e+00 -1.20075174e+00   1.08522380e-01  -2.31755760e-01
C     1.114614341364519e+01   7.434322122951036e+00   3.444731700000000e+00  1.33941505e+00   2.36091770e-01   1.07391869e+00
C     1.198994352876454e+01   6.280046654063265e+00   3.668912100000000e+00  4.56488030e-01   1.52076373e+00  -5.26010420e-01
C     1.339187586944852e+01   6.444125291558541e+00   3.621322500000000e+00  9.66539130e-01   8.76880180e-01  -9.99131000e-02
C     4.665427608245469e+00   7.922314412229676e+00   3.374160000000000e+00 -1.02217737e+00   4.29868660e-01   1.45087970e-01
C     5.500392206978955e+00   6.799914457758844e+00   3.542890200000000e+00  2.65338950e-01   1.77590700e-01  -2.95303740e-01
C     6.909882950682718e+00   6.984220396688363e+00   3.551716500000000e+00  1.36365138e+00  -1.55232473e+00   1.17191540e-01
C     7.784895518766691e+00   5.817803354654663e+00   3.682449000000000e+00 -1.11519302e+00   5.46579070e-01  -3.24818650e-01
C     9.202269369898136e+00   5.966306438720311e+00   3.696894000000000e+00 -4.16326740e-01  -2.08912300e-02  -8.01130000e-02
C     1.003446071147740e+01   4.816482377506818e+00   3.772357200000000e+00  8.33615910e-01   6.55818250e-01  -5.62554180e-01
C     1.146652507323534e+01   5.002574723153399e+00   3.823685100000000e+00 -1.01035521e+00  -1.82703497e+00  -1.66692010e-01
C     1.231525114332896e+01   3.834136132732984e+00   3.846923100000000e+00  1.50286330e-01   2.26300350e-01  -3.47792510e-01
C     3.524547995017601e+00   5.333137477883652e+00   3.785130000000000e+00  2.98873600e-01  -1.50087430e-01  -3.61289730e-01
C     4.923738506753619e+00   5.520209937185344e+00   3.672546600000000e+00  1.06132237e+00  -1.64550011e+00   1.04230573e+00
C     5.792573256509098e+00   4.329033044952525e+00   3.795210300000000e+00 -1.35848169e+00   2.02164889e+00  -1.21992917e+00
C     7.187644792905349e+00   4.515532864034569e+00   3.693510900000000e+00  1.22086521e+00  -6.82578740e-01   1.81309060e-01
C     8.072049237211083e+00   3.367486927936001e+00   3.581721600000000e+00 -7.40478000e-01   4.37057040e-01  -1.64790600e-02
C     9.470193700051306e+00   3.538690255664907e+00   3.599126100000000e+00  9.29209900e-02  -7.03815090e-01   8.86134820e-01
C     1.029482266307700e+01   2.374007232235876e+00   3.598290600000000e+00  6.79218890e-01  -2.47420660e-01  -1.24497911e+00
C     1.171064326241475e+01   2.532918336101333e+00   3.643461900000000e+00  1.09249552e+00   2.77426320e-01   1.17742428e+00
C     3.025014062945798e+00   4.003912884705079e+00   3.888293100000000e+00 -2.59515005e+00  -6.54971760e-01  -7.71421650e-01
C     3.808755198247636e+00   2.824831411970329e+00   3.729997500000000e+00 -4.08175800e-01   1.01268054e+00   3.23227160e-01
C     5.194783523479582e+00   3.050787296027289e+00   3.683455200000000e+00  1.70306382e+00  -1.04100556e+00  -1.30559500e-01
C     6.089470041233891e+00   1.954190859728203e+00   3.468304500000000e+00 -2.92631300e-02  -1.42340562e+00   1.56828590e-01
C     7.523038282953818e+00   2.065824437185127e+00   3.446302500000000e+00 -8.75130790e-01  -3.02343380e-01  -5.07710050e-01
C     8.333095893919660e+00   8.837246461525690e-01   3.260719200000000e+00  8.16254560e-01   8.79314310e-01   6.94857700e-01
C     9.770610605047228e+00   1.059494393468571e+00   3.344060100000000e+00 -1.32830904e+00   6.39916700e-01   3.87455260e-01
C     1.834966390975523e+00   1.371557072594462e+00   3.625171200000000e+00 -1.94855451e+00   7.37247440e-01  -5.48751920e-01
C     3.212263476998270e+00   1.519736988073364e+00   3.623868300000000e+00  2.13133046e+00   1.04673694e+00   1.33427750e-01
C     4.112437896799434e+00   4.246071397661314e-01   3.517682400000000e+00 -1.96511350e-01  -5.95937050e-01  -3.80341700e-01
C     5.532276041642045e+00   6.306277186529451e-01   3.376555500000000e+00 -4.19321120e-01  -7.10392680e-01   6.88431590e-01
C     1.249445746158071e+00   9.310167816794780e-02   3.480543300000000e+00  1.87299342e+00  -4.82354800e-01  -2.53686780e-01
