76
Lattice="10.7446858958278 0 0 5.37234294791388 9.3051709414712 0 0 0 30 " PBC="1 1 1" Properties=species:S:1:pos:R:3:force:R:3 Energy="-612.88183675"
C     5.452639760603874e+00   9.285645062351213e+00  -2.930421000000010e-01 -1.40536687e+00   1.75447391e+00  -9.28025600e-02
C     1.250094354494767e+01   8.478668442542961e+00  -4.385402999999997e-01 -2.54376700e-01   1.45514702e+00   1.98518000e-02
C     1.392716634332235e+01   8.391421019620205e+00  -4.682348999999988e-01 -8.25863120e-01  -3.32413952e+00   4.59799820e-01
C     1.448364163087435e+01   7.045069701016305e+00  -3.283503000000003e-01 -9.97046360e-01   8.34289900e-02   3.33564230e-01
C     8.224922640429391e+00   8.961567639559304e+00  -1.844988000000001e-01  1.58651800e-02   1.18339216e+00   3.27342800e-02
C     9.632288515049570e+00   8.841082332142285e+00  -2.303616000000019e-01  2.48658150e-01  -1.05562232e+00  -1.43505380e-01
C     1.020770867161016e+01   7.547574241841263e+00  -2.378930999999973e-01  3.19350400e-01  -9.64648870e-01   6.01799380e-01
C     1.163574904105168e+01   7.370263186010759e+00  -2.462927999999991e-01 -3.37553870e-01  -4.89839530e-01  -2.16573770e-01
C     1.218692934739216e+01   6.061138878683099e+00  -6.938279999999963e-02  6.73403500e-01   5.47938400e-02  -5.68216800e-02
C     1.361713332050993e+01   5.894762050069061e+00  -1.116119999999974e-01 -2.25297430e-01   9.39148520e-01  -8.79469400e-02
C     5.987070713329134e+00   8.018546815160388e+00  -3.013404000000008e-01  9.54074600e-02  -1.39590715e+00  -4.95816600e-02
C     7.380029414690011e+00   7.842397882128581e+00  -2.565315000000012e-01  7.21058040e-01  -5.94552010e-01   5.40572480e-01
C     7.954591446911193e+00   6.541663861334100e+00  -1.614737999999996e-01 -6.97166300e-01  -1.86100030e-01  -3.32006370e-01
C     9.352963535922209e+00   6.383925395110503e+00  -1.045061999999994e-01  7.37794350e-01   1.11661521e+00  -4.68150430e-01
C     9.923063246365693e+00   5.103184929856252e+00  -3.573629999999994e-02  6.69700340e-01  -1.38249323e+00   5.66595150e-01
C     1.134957760179227e+01   4.926003681160362e+00   8.444580000000000e-02 -2.00773230e-01  -1.14694535e+00  -6.68592540e-01
C     1.192435302347542e+01   3.566490198261832e+00   1.119990000000000e-01 -5.32486780e-01   1.06234460e+00  -3.97877470e-01
C     5.134937127272608e+00   6.878736420602267e+00  -2.808504000000021e-01  2.29997640e-01  -4.75982460e-01  -3.58118500e-02
C     5.699975177358890e+00   5.560509981164517e+00  -1.786242000000016e-01 -4.25607160e-01   1.18571294e+00   1.12296000e-01
C     7.099060552343376e+00   5.393655145919293e+00  -1.656060000000004e-01  5.65347790e-01   2.12578020e-01   1.90568420e-01
C     7.657743604230674e+00   4.092991193061990e+00  -1.412195999999994e-01  8.27139710e-01  -1.96136620e-01  -6.24811000e-02
C     9.085732506626737e+00   3.939241574465241e+00  -6.987000000000165e-02 -7.75568900e-02  -3.32724950e-01  -3.43714070e-01
C     9.664181805036254e+00   2.619567901791194e+00  -1.454501999999991e-01 -2.71476200e-01  -1.12854260e-01   2.82782300e-01
C     1.106690876896597e+01   2.407279080604068e+00  -2.225370000000026e-02  1.72807300e-01   1.93614730e+00   4.56588600e-02
C     3.436369903582649e+00   4.603819209292777e+00   3.078510000000000e-02 -2.59987140e-01  -5.16932700e-01  -3.54946190e-01
C     4.840230754215389e+00   4.466909716856402e+00  -5.299169999999975e-02  6.60606720e-01  -2.60001642e+00  -4.34583680e-01
C     5.426437662121274e+00   3.106285940961312e+00  -1.476006000000005e-01 -1.53009565e+00   7.47342960e-01   4.16291320e-01
C     6.820165897886309e+00   2.943671006854898e+00  -2.259591000000007e-01  7.02178290e-01  -3.22914170e-01   1.46273170e-01
C     7.417816057445982e+00   1.634833577947318e+00  -3.347237999999990e-01 -8.32487040e-01  -2.39845510e-01  -4.31103440e-01
C     8.834199087367161e+00   1.462693963918429e+00  -3.205811999999995e-01 -3.13354260e-01   1.19975294e+00   1.67927600e-02
C     9.403851013025761e+00   1.722207551194858e-01  -4.225622999999992e-01  7.72444260e-01   7.84938790e-01   4.10474640e-01
C     2.598201454407500e+00   3.424346174964871e+00   7.875720000000000e-02 -3.05052050e-01   2.41194690e-01   3.16249920e-01
C     3.152182685468388e+00   2.107403849116842e+00   2.566800000000000e-02 -6.87167400e-02   3.51981770e-01  -4.13418070e-01
C     4.554473737491139e+00   1.957591062241389e+00  -1.205967000000001e-01  7.81995460e-01   2.10744940e-01  -4.19958000e-02
C     5.106816780016282e+00   6.488719951081654e-01  -2.645640000000000e-01  1.45373159e+00   1.03174602e+00  -3.59771310e-01
C     6.550241390729427e+00   4.901498792645000e-01  -4.555682999999995e-01 -5.53226210e-01   1.17889180e-01   1.13666939e+00
C     8.947275624544466e-01   1.130512853858292e+00  -1.056738000000017e-01  7.01251600e-02  -6.03403110e-01  -2.05302610e-01
C     2.297129338465397e+00   9.639882591297270e-01  -6.878910000000005e-02  3.74515960e-01   2.72532390e-01   5.66708100e-02
C     1.072033430504653e+01   4.196632093940000e-05   3.402007200000000e+00 -1.15871059e+00  -2.95661280e-01   1.71598800e-01
C     1.184885129757157e+01   8.776372033236211e+00   3.602445600000000e+00 -6.28045150e-01   7.20491010e-01  -8.15429920e-01
C     1.325241892572610e+01   8.972258071297141e+00   3.500849700000000e+00 -3.04780000e-04   6.09685940e-01   1.82562120e-01
C     1.410254798318113e+01   7.846088499026804e+00   3.554283300000000e+00  1.51371250e-01  -5.07521330e-01  -2.62922690e-01
C     7.555105260788072e+00   8.311679240629362e+00   3.521124600000000e+00  1.26420582e+00   2.13502370e-01   4.34054090e-01
C     8.986710233500350e+00   8.483891341939874e+00   3.554647200000000e+00  4.96987150e-01  -6.40020930e-01   2.29143800e-01
C     9.877378131281199e+00   7.316924736510456e+00   3.638138400000000e+00 -1.10063867e+00   1.57267989e+00  -6.24599950e-01
C     1.128341977708763e+01   7.469316079305093e+00   3.582920700000000e+00 -2.42844620e-01   1.11212182e+00   5.44065790e-01
C     1.212538953496391e+01   6.355676664119141e+00   3.592514100000000e+00  5.01898700e-02  -7.70312340e-01   1.40355300e-02
C     1.353591988075193e+01   6.533574969287668e+00   3.607462200000000e+00  3.73839000e-03   1.51562490e-01   2.13888900e-02
C     4.771544973535632e+00   7.995095644202272e+00   3.531397200000000e+00  7.39430600e-02   7.22331400e-02   1.40207210e-01
C     5.600617025351270e+00   6.839498282730766e+00   3.694918200000000e+00 -2.61593600e-02   2.30075390e-01  -7.48900430e-01
C     7.003639253249516e+00   7.017229746184339e+00   3.683474400000000e+00  8.60638660e-01  -6.04015070e-01  -4.19411990e-01
C     7.896435995647733e+00   5.877153223737333e+00   3.699559800000000e+00 -1.13316311e+00   1.22300760e-01  -1.27210370e-01
C     9.298654521040657e+00   6.039403488194608e+00   3.636701100000000e+00 -2.65335680e-01  -6.21958270e-01   3.49089280e-01
C     1.012299746052770e+01   4.883371296085077e+00   3.614100000000000e+00  6.18098620e-01  -5.40293700e-02  -5.61873810e-01
C     1.153049409797528e+01   5.059900717556619e+00   3.573199200000000e+00  7.22443150e-01  -9.27712450e-01  -2.02512530e-01
C     1.238366148398567e+01   3.891488739925093e+00   3.492935400000000e+00 -5.41852720e-01   1.13710327e+00   6.68837170e-01
C     3.621278695258666e+00   5.391919824590691e+00   3.669405900000000e+00  3.80830460e-01  -3.49509480e-01  -8.52212200e-02
C     5.049736979258270e+00   5.527648583886489e+00   3.687080100000000e+00 -2.94074690e-01   2.81981500e-02   8.76999360e-01
C     5.907333271073215e+00   4.381453353236178e+00   3.780649500000000e+00  2.80081980e-01   7.97343560e-01  -1.01409329e+00
C     7.340912042585323e+00   4.561482728653383e+00   3.703362900000000e+00 -5.53201500e-01  -6.76141100e-02   4.34348430e-01
C     8.182225407599971e+00   3.408932438457890e+00   3.632001600000000e+00 -7.83290960e-01   2.07001800e-01  -3.41080900e-01
C     9.584843205520940e+00   3.563847064456326e+00   3.525663000000000e+00 -2.57505520e-01   6.22747820e-01   6.20993700e-01
C     1.042690246663077e+01   2.431119579914314e+00   3.456645900000000e+00 -1.76851640e-01   4.80033700e-02  -7.49040080e-01
C     1.182153330973483e+01   2.588694926491333e+00   3.402541500000000e+00  1.20458764e+00   1.81613460e-01   7.18738280e-01
C     3.030047034991646e+00   4.095869840743988e+00   3.654365700000000e+00  9.08154690e-01  -9.59397070e-01  -6.44888860e-01
C     3.895438811320758e+00   2.941138046273320e+00   3.643070700000000e+00  4.77601520e-01   9.70252460e-01  -1.64232470e-01
C     5.325495206177699e+00   3.097237778842675e+00   3.681485700000000e+00 -3.22843080e-01  -6.49839080e-01   3.25884190e-01
C     6.164367163662149e+00   1.940991288646394e+00   3.624055800000000e+00 -2.61887000e-02  -3.18412180e-01  -1.87192110e-01
C     7.578163893963767e+00   2.115835450608994e+00   3.580840500000000e+00  3.89786070e-01   3.98602000e-02  -2.27740700e-01
C     8.437756118631496e+00   9.955352079607714e-01   3.438803100000000e+00  3.32950800e-02  -1.02420019e+00   3.81238590e-01
C     9.861668970707964e+00   1.141561999935867e+00   3.377167500000000e+00 -5.68008080e-01  -3.79985320e-01   3.78222220e-01
C     1.959510892584186e+00   1.458768577557390e+00   3.453049500000000e+00 -1.23846620e+00   3.86475020e-01  -5.16404690e-01
C     3.351177061954722e+00   1.652676150173058e+00   3.525057900000000e+00  2.35422940e-01  -9.54692380e-01   2.75198580e-01
C     4.190578302666607e+00   4.905768935589366e-01   3.557891100000000e+00 -2.27840250e-01  -6.70726920e-01  -3.19630220e-01
C     5.600806024376251e+00   6.099312504999065e-01   3.563254200000000e+00  7.26101870e-01   8.83717040e-01   5.01322570e-01
C     1.366703416683072e+00   1.659017065858412e-01   3.420555300000000e+00  7.43950740e-01  -3.07054370e-01   2.54927340e-01
