76
Lattice="10.7446858958278 0 0 5.37234294791388 9.3051709414712 0 0 0 30 " PBC="1 1 1" Properties=species:S:1:pos:R:3:force:R:3 Energy="-612.1688718"
C     5.836266253104300e-02   5.372061287080800e-03  -2.666243999999978e-01 -8.96844770e-01  -1.95822900e-01   4.88902280e-01
C     1.251508564680582e+01   8.466584654508567e+00  -6.446100000000143e-02 -1.75904294e+00   2.17461579e+00  -9.15248280e-01
C     1.391513465894525e+01   8.339748847080129e+00  -1.070105999999988e-01 -8.32425200e-02  -9.39340500e-01  -4.00492700e-01
C     1.448398298954539e+01   7.043468467200950e+00  -1.713552000000007e-01  3.16603420e-01  -4.46795980e-01   3.37197860e-01
C     8.230838395868783e+00   9.038351025553192e+00  -2.273577000000024e-01  2.01187707e+00  -3.58455582e+00   4.06019660e-01
C     9.663420006805943e+00   8.830879863568542e+00  -1.256849999999972e-01 -8.31236420e-01  -2.30382500e-01  -4.86579030e-01
C     1.020949674851421e+01   7.509073631818465e+00  -1.858025999999988e-01  5.92036020e-01   7.57354440e-01   9.76998960e-01
C     1.163416683232948e+01   7.352391767755104e+00  -1.471950000000000e-01  7.52995230e-01  -4.26871430e-01  -6.60561140e-01
C     1.223822775500796e+01   6.049921960373475e+00  -2.950707000000001e-01 -1.96244632e+00  -4.21833760e-01   1.28180858e+00
C     1.362589330175392e+01   5.888611611232849e+00  -2.302482000000019e-01  1.42674998e+00  -3.89447100e-02   6.50441300e-01
C     5.990328555817444e+00   8.018781212416366e+00  -1.806128999999999e-01  1.45769163e+00   1.14318996e+00  -2.42438150e-01
C     7.414209281283071e+00   7.869154994218261e+00  -1.747745999999992e-01 -1.08872400e+00   9.12316130e-01   3.13083510e-01
C     7.943366312381175e+00   6.592684764960086e+00  -6.232560000000120e-02  1.47250179e+00  -1.72480483e+00  -9.69288230e-01
C     9.361255424924956e+00   6.385183082014752e+00  -1.263122999999986e-01  2.05612290e-01  -1.60924610e-01  -6.59227280e-01
C     9.947668308459544e+00   5.080544797597267e+00  -2.501375999999986e-01 -8.27043650e-01  -7.53674630e-01   1.01053392e+00
C     1.134915764574387e+01   4.893414274028909e+00  -2.172720000000012e-01  1.18069733e+00   1.02656370e-01  -7.10293170e-01
C     1.192348630338730e+01   3.559972205173490e+00  -1.965891000000006e-01  3.33981720e-01   1.78249252e+00   2.88857100e-02
C     5.176753671922235e+00   6.921356988110459e+00  -1.211357999999976e-01 -1.90555906e+00  -2.67953106e+00  -3.92157350e-01
C     5.726347417942717e+00   5.589267332799460e+00  -1.457853000000000e-01 -4.41635440e-01   4.82634100e-02   3.92555310e-01
C     7.134454031208842e+00   5.421644820951683e+00  -1.553427000000021e-01 -7.47085630e-01   4.45479640e-01   3.74849070e-01
C     7.682723064904713e+00   4.122306761901622e+00  -2.024118000000001e-01  2.23811400e-02  -1.15450994e+00   1.06087000e-02
C     9.085107004737068e+00   3.911926338222580e+00  -2.130696000000007e-01  6.15455340e-01   6.87815040e-01  -1.50434680e-01
C     9.643600090577653e+00   2.595916297451030e+00  -2.210754000000001e-01  8.60231670e-01   4.66146720e-01   3.38934000e-01
C     1.108151713646875e+01   2.435845024872774e+00  -1.959213000000020e-01 -9.36999270e-01  -3.05864920e-01  -5.01353950e-01
C     3.469194704113431e+00   4.570686287126718e+00  -1.070873999999975e-01 -1.11231054e+00   8.83389370e-01  -7.84946780e-01
C     4.866413404816509e+00   4.445462228356797e+00  -1.063335000000016e-01  1.04290438e+00  -1.11162013e+00  -6.61700990e-01
C     5.440223147854404e+00   3.099294872982381e+00  -2.112173999999989e-01 -1.24607988e+00   1.36028042e+00   3.36136620e-01
C     6.834419851924679e+00   2.958415143261037e+00  -2.329386000000007e-01  7.45047000e-01  -3.17841220e-01   5.16367800e-01
C     7.402818141355898e+00   1.627736989329927e+00  -1.597662000000000e-01  2.02384580e-01   1.25011570e+00  -6.39565450e-01
C     8.820473771875070e+00   1.443489114667072e+00  -1.766772000000003e-01 -4.78680390e-01   8.06187040e-01  -1.83930690e-01
C     9.384183778784115e+00   1.560849373475600e-01  -1.943394000000005e-01  4.71154290e-01   3.73209440e-01   2.38085000e-01
C     2.609781915700232e+00   3.438034732779577e+00  -1.692035999999995e-01 -3.65837710e-01  -7.06877030e-01   6.17874800e-02
C     3.172639492953398e+00   2.121656207238802e+00  -2.086838999999969e-01 -1.60929829e+00   5.36137990e-01  -3.97010520e-01
C     4.545901788250407e+00   1.979795340293545e+00  -2.344575000000013e-01  1.99467761e+00  -8.67879510e-01   8.59194150e-01
C     5.113530059766602e+00   6.562187997721330e-01  -1.153274999999994e-01  1.28046081e+00   9.70783710e-01  -1.05797324e+00
C     6.551725769086511e+00   5.304429443654692e-01  -1.718292000000012e-01 -4.10916210e-01  -2.66099730e+00   1.28017104e+00
C     8.841282521546735e-01   1.127963981434407e+00  -2.641181999999986e-01  1.06245992e+00   7.38014450e-01  -8.04717900e-02
C     2.317906552483945e+00   9.604798374785094e-01  -2.964437999999987e-01 -1.28928487e+00   3.27705288e+00   6.41270270e-01
C     1.607610980896360e+01   9.282857977551265e+00   3.484912200000000e+00 -1.08577463e+00   1.07764465e+00   7.85775200e-01
C     1.184220828806704e+01   8.788680727252224e+00   3.541664700000000e+00 -1.88183360e+00   9.91270260e-01  -8.83275620e-01
C     1.322412005551355e+01   8.953808057512438e+00   3.521721300000000e+00  1.69448227e+00   6.14346850e-01   2.08234340e-01
C     1.408269325417052e+01   7.829523712874544e+00   3.560687100000000e+00 -9.64199800e-02  -8.77471060e-01  -5.13780690e-01
C     7.578622315987691e+00   8.290782525197695e+00   3.504557100000000e+00  7.35281290e-01   2.23648428e+00   6.52495750e-01
C     9.001936527889239e+00   8.478505881206639e+00   3.597896700000000e+00 -7.89099600e-02  -6.30589900e-01  -1.46144780e-01
C     9.866584288443207e+00   7.304418307611969e+00   3.596356800000000e+00 -1.29908203e+00   1.99287786e+00  -7.07061390e-01
C     1.123132357654376e+01   7.503792388999758e+00   3.442202100000000e+00  2.29614596e+00  -9.50181590e-01   1.40892203e+00
C     1.211574102191943e+01   6.339787712532253e+00   3.518208900000000e+00 -1.95334982e+00   8.73492580e-01   2.01547670e-01
C     1.348744678829354e+01   6.505515877680064e+00   3.557990700000000e+00  1.94408456e+00   9.18008450e-01   2.33419790e-01
C     4.764477011703753e+00   7.983896312665725e+00   3.533731500000000e+00 -8.09628890e-01   4.24001060e-01  -9.01325700e-02
C     5.603531252784498e+00   6.861682647717110e+00   3.580821300000000e+00  3.16478980e-01  -8.60455360e-01  -6.22974070e-01
C     7.030024441179851e+00   7.021698833683402e+00   3.556873200000000e+00 -5.53585580e-01  -1.39264792e+00   1.88343020e-01
C     7.879590208476564e+00   5.872655011053228e+00   3.643535400000000e+00 -3.02497830e-01  -2.37238870e-01  -6.81066400e-01
C     9.307141587262779e+00   6.022864570417562e+00   3.608667600000000e+00 -1.22122328e+00  -5.13021650e-01   5.36386600e-01
C     1.013180074285586e+01   4.882495214241075e+00   3.685126500000000e+00  2.78981730e-01  -6.31080590e-01  -1.02241925e+00
C     1.154914612056967e+01   5.051051313889261e+00   3.651991800000000e+00  3.32266800e-02  -7.48568790e-01  -2.82320420e-01
C     1.240473261888702e+01   3.893228899942582e+00   3.659880000000000e+00 -1.11971344e+00   7.68851950e-01   6.43619410e-01
C     3.603216448473330e+00   5.380022791337064e+00   3.650695500000000e+00  7.35637230e-01  -9.37430300e-02  -2.74530310e-01
C     5.024311345502235e+00   5.558038062504306e+00   3.562182300000000e+00  1.60763470e-01  -3.92759360e-01   1.22316655e+00
C     5.885932757825607e+00   4.405701139878467e+00   3.638916600000000e+00 -9.80681680e-01   7.36667100e-02  -1.43248399e+00
C     7.282562273677360e+00   4.565265280640493e+00   3.594655200000000e+00  1.19152382e+00   5.86948020e-01   3.75047330e-01
C     8.152029670538631e+00   3.432399800413441e+00   3.548490000000000e+00 -5.32866000e-01  -4.55084190e-01  -1.05512900e-02
C     9.550075497162291e+00   3.570193842399371e+00   3.587550900000000e+00  1.02392287e+00   7.53209830e-01   1.15396258e+00
C     1.041862250422937e+01   2.432729374486934e+00   3.703428300000000e+00 -1.60520929e+00   3.98778860e-01  -1.41506042e+00
C     1.179089150703835e+01   2.614417768831032e+00   3.643842300000000e+00  2.68704018e+00  -1.20013307e+00   7.02230540e-01
C     3.063413958649512e+00   4.066762800785121e+00   3.743106600000000e+00 -1.72245850e-01  -3.14453710e-01  -1.36732613e+00
C     3.879319794703866e+00   2.913381931031523e+00   3.606439800000000e+00  1.49629110e+00   4.90249180e-01   4.44322800e-02
C     5.320601162920537e+00   3.099022417577258e+00   3.486399600000000e+00 -9.29322700e-01  -1.46290390e-01   1.42243994e+00
C     6.170941622070641e+00   1.960694429801588e+00   3.516409500000000e+00  7.01065320e-01   7.47394300e-02  -4.09035900e-01
C     7.600640433780830e+00   2.124338794969094e+00   3.509063700000000e+00 -3.21276630e-01  -5.46539220e-01   2.72505140e-01
C     8.456766422777218e+00   9.653223414873948e-01   3.546138600000000e+00 -1.70422626e+00   3.16326560e-01  -1.16424710e-01
C     9.842169138672638e+00   1.140596216244004e+00   3.592380900000000e+00  1.08809129e+00  -1.14880174e+00  -1.78342890e-01
C     1.938769673263404e+00   1.437322019574878e+00   3.659995800000000e+00 -2.24158946e+00   1.19921944e+00  -8.30810640e-01
C     3.317786446264446e+00   1.603143608638926e+00   3.612121200000000e+00  9.76700080e-01   8.06440250e-01   3.32158180e-01
C     4.182712386736364e+00   4.915395134926796e-01   3.631731300000000e+00  1.07528997e+00  -1.01984197e+00  -9.01775570e-01
C     5.623396135523277e+00   6.623864531745838e-01   3.533277600000000e+00 -8.62750770e-01  -1.05561095e+00   5.80442840e-01
C     1.345440005627549e+00   1.660831574191712e-01   3.518349300000000e+00  1.29975185e+00  -1.45056741e+00   2.54772740e-01
