76
Lattice="10.7446858958278 0 0 5.37234294791388 9.3051709414712 0 0 0 30 " PBC="1 1 1" Properties=species:S:1:pos:R:3:force:R:3 Energy="-612.81054075"
C     5.461005465598755e+00   9.284095751389703e+00  -2.140763999999997e-01 -9.85411860e-01   1.33116827e+00   2.30302370e-01
C     1.248978712268398e+01   8.522684878743862e+00  -2.671349999999961e-02  8.70848130e-01  -1.99663364e+00  -5.45576440e-01
C     1.391468515501062e+01   8.333180233861873e+00  -3.861180000000175e-02  1.38579010e-01   3.64498010e-01  -4.20319920e-01
C     1.451085786653561e+01   7.043314280518474e+00  -1.029084000000005e-01 -1.75894573e+00  -1.16216000e-02  -2.73075610e-01
C     8.250727830214844e+00   8.961843630929383e+00  -2.228910000000006e-01 -4.57514430e-01   2.41250517e+00   3.76595280e-01
C     9.646113326333094e+00   8.834857265835137e+00  -1.115226000000007e-01  8.11188110e-01  -2.56324980e-01  -6.73431060e-01
C     1.023105144800448e+01   7.543933035400731e+00  -1.529699999999998e-01  1.48671700e-02  -8.47490670e-01   2.21020640e-01
C     1.165546844074337e+01   7.362609682912608e+00  -1.492427999999997e-01 -8.71162780e-01  -5.87505100e-02   2.25582770e-01
C     1.218572363246389e+01   6.039061337059145e+00  -2.403081000000000e-01  1.46582295e+00   6.12909370e-01  -1.76936300e-01
C     1.365115642213571e+01   5.910364867649544e+00  -2.459559000000020e-01 -1.85443319e+00   1.69204960e-01   1.08652687e+00
C     6.026184539687475e+00   8.017652867388183e+00  -1.362677999999988e-01 -1.56292957e+00  -6.07500430e-01  -1.73663730e-01
C     7.397089128557447e+00   7.864808921079025e+00  -1.520021999999983e-01  1.32128939e+00  -1.33813181e+00   2.45454710e-01
C     7.972444279768338e+00   6.557461250038938e+00  -8.544870000000060e-02 -8.25918780e-01  -4.65316510e-01  -9.01219380e-01
C     9.361954850253616e+00   6.393218748483409e+00  -1.774701000000007e-01  9.61143950e-01   3.36181140e-01   2.43065130e-01
C     9.910296947813606e+00   5.086978671940311e+00  -2.368538999999998e-01  1.42454738e+00  -2.98954980e-01  -2.70796180e-01
C     1.134364508464287e+01   4.890684509081951e+00  -3.081816000000011e-01 -2.40605340e-01   1.96256650e-01   8.36731420e-01
C     1.190863736236722e+01   3.564055314181962e+00  -2.483559000000000e-01  5.17209370e-01   9.82130470e-01  -8.15380960e-01
C     5.149160244062445e+00   6.886562534621354e+00  -1.111368000000006e-01  9.45204230e-01   4.37154210e-01  -7.99474000e-03
C     5.706144668555812e+00   5.601071407395396e+00  -1.524090000000022e-01  3.45206040e-01  -9.66410900e-01   3.00653070e-01
C     7.114992557702179e+00   5.411091919640339e+00  -1.611359999999991e-01  5.65487820e-01  -4.36504450e-01   3.25085790e-01
C     7.673826518702942e+00   4.073451543760211e+00  -1.928516999999985e-01  5.64754060e-01   1.12552959e+00   1.03696640e-01
C     9.104646162322791e+00   3.935168328937966e+00  -2.361429000000008e-01 -8.62769760e-01  -5.62649440e-01   2.52367980e-01
C     9.689354777503347e+00   2.624208204435553e+00  -2.368746000000002e-01 -1.78268057e+00  -6.19523000e-01   5.79483100e-02
C     1.106376820472425e+01   2.418858807528641e+00  -2.768879999999996e-01  1.04933258e+00   1.15106552e+00   1.52282150e-01
C     3.425531416574742e+00   4.623050206074474e+00  -1.747127999999982e-01  1.15170053e+00  -1.68272878e+00  -6.16628120e-01
C     4.863192900111702e+00   4.467132668752124e+00  -1.347161999999997e-01 -5.09201470e-01  -1.64082000e+00  -7.25977010e-01
C     5.427648265881627e+00   3.123672094552446e+00  -2.191110000000016e-01 -2.73314030e-01   1.65040100e-01   1.06376629e+00
C     6.841189809893121e+00   2.931077388504702e+00  -1.654026000000002e-01 -3.61184750e-01   6.63316450e-01  -4.61506170e-01
C     7.412637924693626e+00   1.639269445986125e+00  -1.559315999999988e-01  4.49482800e-02  -9.74396120e-01   4.36826970e-01
C     8.832234475273774e+00   1.463252739433376e+00  -1.648263000000014e-01  1.50888820e-01   3.75277250e-01  -2.39489460e-01
C     9.409421541707186e+00   1.438302133229988e-01  -1.452627000000000e-01 -2.33681210e-01   8.36829270e-01   2.79610370e-01
C     2.593657043229525e+00   3.434592750048870e+00  -2.644211999999975e-01 -1.26176890e-01   5.44551000e-01   3.24977920e-01
C     3.165178060723861e+00   2.131180049695892e+00  -2.885547000000024e-01  3.71745280e-01   3.05739300e-02   5.52560180e-01
C     4.596603113670744e+00   1.951131226471422e+00  -1.792206000000007e-01 -1.03572749e+00   1.59455379e+00  -7.45410390e-01
C     5.137565062550030e+00   6.640029474702805e-01  -1.410806999999998e-01  3.13102580e-01  -5.56163190e-01   3.98128130e-01
C     6.553117850591716e+00   4.805538286809156e-01  -7.914689999999780e-02 -5.93017000e-02   1.73259778e+00  -2.04689850e-01
C     9.108651673779451e-01   1.143902715685824e+00  -2.827479000000004e-01 -7.08404940e-01  -7.05156930e-01   4.48573200e-02
C     2.299283809158635e+00   1.001429196285877e+00  -2.936027999999986e-01  1.43470129e+00  -1.06868807e+00   1.57556470e-01
C     1.604581231972679e+01   9.303458788547040e+00   3.580894500000000e+00  1.12971859e+00  -9.44566300e-01  -4.87046520e-01
C     1.182758718811147e+01   8.806773422472832e+00   3.490436100000000e+00  7.00666300e-01  -1.07404217e+00  -3.94803000e-02
C     1.326495609385137e+01   8.995279715564667e+00   3.510824700000000e+00 -1.69602758e+00  -5.62159500e-01   1.11734400e-01
C     1.409296479782692e+01   7.839285116345732e+00   3.552237300000000e+00  6.34333800e-02   5.29830100e-02  -6.31590940e-01
C     7.594737464517658e+00   8.323793270469309e+00   3.550425000000000e+00 -6.63407330e-01  -1.24336925e+00   1.44424790e-01
C     8.996375024743971e+00   8.473321691320837e+00   3.593123400000000e+00  1.55239400e-02   9.89496800e-02  -3.27728590e-01
C     9.839428330469836e+00   7.342793483930494e+00   3.557772900000000e+00  8.53862410e-01  -1.25914196e+00   4.74114000e-03
C     1.128323233604211e+01   7.472794817461012e+00   3.475778400000000e+00 -1.19040325e+00   1.03219673e+00   6.18551710e-01
C     1.210554538946892e+01   6.335193935742594e+00   3.545508000000000e+00  1.15884888e+00   1.69165930e-01   4.88983830e-01
C     1.355432799897639e+01   6.531785398812487e+00   3.564647700000000e+00 -2.04683668e+00  -5.27086800e-01   1.43157190e-01
C     4.748092601345133e+00   8.002216426264107e+00   3.496982100000000e+00  7.22777460e-01  -5.96516320e-01   7.69315410e-01
C     5.611282684086476e+00   6.848643125575470e+00   3.538846500000000e+00 -4.16646750e-01   2.82378000e-03  -5.19424600e-01
C     7.034280841052276e+00   6.997282065136841e+00   3.539291700000000e+00 -5.20923680e-01   6.60586090e-01  -1.77159800e-02
C     7.873719043483657e+00   5.854452514815528e+00   3.565260000000000e+00 -1.14084600e-01   5.32209170e-01   2.66859170e-01
C     9.277572910070564e+00   6.014154837366013e+00   3.614002200000000e+00  5.53122920e-01   5.04664830e-01  -3.69976710e-01
C     1.013013563888194e+01   4.868790930687481e+00   3.657242400000000e+00 -2.29710500e-01   5.30608880e-01  -9.21632600e-02
C     1.153308474919263e+01   5.032097983408413e+00   3.696236700000000e+00 -4.66663480e-01   1.31775479e+00  -7.58866820e-01
C     1.234552289904305e+01   3.910315892287995e+00   3.691200600000000e+00  1.28904678e+00  -7.01715170e-01   3.83774360e-01
C     3.607363950954159e+00   5.367301785196699e+00   3.631455300000000e+00  1.87544140e-01   6.29883590e-01  -4.66840210e-01
C     5.020844250256022e+00   5.537676487453399e+00   3.531036000000000e+00  2.35289470e-01   2.85284680e-01   8.91443050e-01
C     5.870946929507160e+00   4.411849624628782e+00   3.587231400000000e+00  9.43910750e-01  -4.76750620e-01  -6.83726010e-01
C     7.296740585126993e+00   4.574478609543315e+00   3.580742100000000e+00 -3.87606900e-02  -9.71451390e-01  -3.93978630e-01
C     8.151227848353344e+00   3.423447946814033e+00   3.526292400000000e+00 -3.19889600e-02   2.77962000e-03   7.36450830e-01
C     9.587623124380418e+00   3.563775321588378e+00   3.613632300000000e+00 -1.45948018e+00   6.96874500e-02   2.20670850e-01
C     1.040981137828050e+01   2.419160108963679e+00   3.702969300000000e+00  7.27101830e-01   1.08233670e-01  -7.72731000e-01
C     1.184051965323100e+01   2.597751928522364e+00   3.693957300000000e+00 -1.77933167e+00  -3.49225230e-01   4.70401550e-01
C     2.994988844049689e+00   4.082049056450225e+00   3.689820300000000e+00  2.13632689e+00  -1.48104890e-01  -6.87273330e-01
C     3.899858745312582e+00   2.966360456519866e+00   3.588204600000000e+00 -3.00493930e-01  -1.05186190e+00   2.48477530e-01
C     5.329718942204988e+00   3.101254076723798e+00   3.521580000000000e+00 -6.18788410e-01  -4.86667470e-01   4.00621520e-01
C     6.164501472235900e+00   1.918273644313478e+00   3.497329800000000e+00 -6.91201110e-01   9.31517000e-01   4.03695510e-01
C     7.574465626800416e+00   2.115374937699174e+00   3.547008600000000e+00 -2.81088450e-01   4.35523390e-01  -5.16516640e-01
C     8.419147665738432e+00   9.975020419423593e-01   3.550650000000000e+00  1.07101014e+00  -9.66758020e-01   7.64608200e-02
C     9.843109567306033e+00   1.121156690581541e+00   3.613923600000000e+00 -5.13440640e-01   1.11226748e+00   1.65181320e-01
C     1.916811027306721e+00   1.463835522289348e+00   3.708132600000000e+00  1.34014331e+00  -9.80133290e-01  -1.12498895e+00
C     3.355561699653364e+00   1.638670286029299e+00   3.614043300000000e+00 -7.33820140e-01  -3.79199020e-01   2.96240090e-01
C     4.185352087444847e+00   4.613813614244302e-01   3.588045900000000e+00 -6.48625790e-01   9.50207940e-01  -1.72177000e-01
C     5.573468320040881e+00   6.001891087325640e-01   3.531993000000000e+00  1.53119338e+00   1.44194091e+00  -2.55140830e-01
C     1.359528384056200e+00   1.267251689459626e-01   3.567200100000000e+00 -2.72882780e-01   1.82687235e+00   8.28907010e-01
