64
Lattice="9.86 0 0 4.93 8.53901048131456 0 0 0 30 " PBC="1 1 1" Properties=species:S:1:pos:R:3:force:R:3 Energy="-513.59059815"
C     4.986673258700000e+00   8.355844179528447e+00  -5.283966000000007e-01 -1.16973600e+00   4.18764570e-01   8.45167600e-02
C     1.288342307200000e+00   5.365656307515504e-01  -5.166816000000019e-01 -1.33219188e+00   1.26361047e+00  -8.84046770e-01
C     1.215346360800000e+00   8.585271423176447e-01   3.780108300000000e+00 -1.71974680e+00   2.53194023e+00   6.09711600e-01
C     2.403722614300000e+00   1.596382269383501e+00   3.820856700000000e+00  1.29202643e+00  -1.61654756e+00   3.51465100e-02
C     7.417741005400000e+00   8.391349641274600e+00  -6.151544999999992e-01  1.87280520e+00  -1.09572873e+00   8.72930620e-01
C     3.736521443000000e+00   5.470628071148240e-01  -4.820087999999991e-01 -1.42756099e+00   8.92535510e-01   4.97349640e-01
C     3.623314444600000e+00   8.514225148180753e-01   3.764726700000000e+00  2.83750856e+00   2.27968116e+00  -1.06924610e-01
C     4.911225968399999e+00   1.625137472565007e+00   3.740508600000000e+00 -6.93943310e-01  -2.19331797e+00  -7.90804800e-02
C     9.876216347600000e+00   8.384864433595251e+00  -3.471117000000028e-01  5.44539010e-01  -7.26847590e-01  -4.83292950e-01
C     6.202985800900000e+00   5.425758132778985e-01  -4.028052000000031e-01 -8.70480160e-01  -1.31602710e-01   3.22960800e-01
C     6.167898843000000e+00   8.602733699608048e-01   3.649887900000000e+00 -2.72675780e+00   1.89203674e+00   7.87580540e-01
C     7.354565964100000e+00   1.612357904090534e+00   3.713549400000000e+00  1.22323360e+00  -1.89195396e+00   1.74944710e-01
C     1.234132387090000e+01   8.410481550425354e+00  -3.826578000000005e-01  1.27895487e+00  -3.59782853e+00   6.56509730e-01
C     8.661188168999999e+00   5.194391082120240e-01  -5.423186999999992e-01  4.29237660e-01   1.59646047e+00   7.17349470e-01
C     8.593646429500000e+00   8.843971846381672e-01   3.740684400000000e+00  3.21195570e-01  -4.54335260e-01   8.97462620e-01
C     9.826045463100000e+00   1.577428398601255e+00   3.881031300000000e+00 -3.63663850e-01   6.61027960e-01  -1.25915060e+00
C     1.294446978300000e+00   1.981274409604890e+00  -4.497971999999990e-01 -1.09960048e+00   5.33749410e-01   1.61012757e+00
C     2.501155781900000e+00   2.700175922058815e+00  -1.518632999999987e-01 -4.14287830e-01  -1.76409611e+00  -1.16865740e+00
C     2.404787099900000e+00   2.990111874819670e+00   3.906982500000000e+00  1.63522611e+00   6.87969960e-01  -1.77691580e-01
C     3.644699700000000e+00   3.728757543475765e+00   3.903575400000000e+00  6.38436050e-01  -1.24009000e-01  -6.87733360e-01
C     3.695862697700000e+00   1.976942740368596e+00  -2.955261000000000e-01  2.26477089e+00  -1.08518531e+00  -3.70527010e-01
C     4.973806846100000e+00   2.625328079597423e+00  -3.419625000000011e-01 -1.51463502e+00   2.59518346e+00   7.71142130e-01
C     4.916629051199999e+00   3.038368982476027e+00   3.801585300000000e+00 -1.23249436e+00  -8.35584390e-01  -1.64890690e-01
C     6.152045639199999e+00   3.711104505550042e+00   3.704068500000000e+00 -8.92888310e-01   1.05690089e+00   8.66457650e-01
C     6.200109688200000e+00   1.942516097206485e+00  -4.459461000000005e-01 -9.83962800e-02   1.12282894e+00  -6.47346840e-01
C     7.406341070600000e+00   2.682013361377750e+00  -5.928143999999982e-01  1.58906395e+00   1.59055250e-01   1.09962108e+00
C     7.358206226800000e+00   2.994129564640614e+00   3.804884100000000e+00  7.55273830e-01   1.84275965e+00  -1.24419827e+00
C     8.607685787699999e+00   3.742901475044732e+00   3.761064600000000e+00 -1.15512119e+00  -2.76265926e+00   6.34582910e-01
C     8.660611457599998e+00   1.972323050308811e+00  -5.301314999999995e-01  7.57481130e-01   6.26029840e-01  -3.56260160e-01
C     9.929700389299999e+00   2.739861485605244e+00  -3.951764999999980e-01 -1.10252662e+00  -1.83005290e+00  -4.34111630e-01
C     9.802832163700000e+00   3.038273260168546e+00   3.834868500000000e+00  1.30100858e+00  -2.60155305e+00   2.01582660e-01
C     1.105883490340000e+01   3.675502126034939e+00   3.865834800000000e+00 -1.06938267e+00   2.40210575e+00   2.00330590e-01
C     2.493084139400000e+00   4.066476774201441e+00   2.764140000000000e-02 -1.63587200e-01   2.95364278e+00  -3.99032320e-01
C     3.731197536000000e+00   4.843836352401447e+00  -1.143972000000026e-01 -2.98085090e-01  -2.46224546e+00   1.14659967e+00
C     3.663033088200000e+00   5.156541747387431e+00   3.810057599999999e+00 -1.01539328e+00  -9.58387150e-01   6.41667270e-01
C     4.904290592300000e+00   5.831623534371034e+00   3.776388600000000e+00 -5.45435190e-01   1.94218935e+00  -5.91069140e-01
C     4.932497833799999e+00   4.096280824040205e+00  -2.421779999999991e-01  2.37458183e+00   2.47890700e-02  -1.22580634e+00
C     6.206941879400000e+00   4.856344124172341e+00  -4.705019999999998e-01 -5.85969880e-01  -2.56379344e+00   4.31007480e-01
C     6.108152567399999e+00   5.148850148307465e+00   3.703806600000000e+00  2.24452707e+00  -1.36819622e+00  -8.52162100e-02
C     7.377462905400000e+00   5.816851302410949e+00   3.657888900000000e+00 -1.18195279e+00   1.75303526e+00   6.12598970e-01
C     7.471014437499999e+00   4.124825626003482e+00  -5.442743999999990e-01 -1.96959595e+00  -3.84028630e-01  -1.41720000e-03
C     8.678591759200000e+00   4.850591563592174e+00  -4.484451000000007e-01  3.89720300e-02  -1.32030423e+00   6.99225040e-01
C     8.621238061900000e+00   5.100359584104585e+00   3.731315700000000e+00 -2.02023897e+00   2.76148949e+00  -8.71296580e-01
C     9.792641557899998e+00   5.842454415263866e+00   3.667437300000000e+00  2.66636094e+00  -3.61690740e-01   1.01201581e+00
C     9.927981347599999e+00   4.174887197354473e+00  -2.297400000000032e-01 -2.85355710e+00  -2.81669067e+00  -8.63495290e-01
C     1.109072628460000e+01   4.796483099004396e+00   1.883280000000000e-02  3.58213617e+00   2.31258258e+00  -1.59798120e-01
C     1.104583045080000e+01   5.122168985381448e+00   3.842933700000000e+00 -7.79701300e-02   1.04171620e-01  -9.40259090e-01
C     1.226853661140000e+01   5.840571648843132e+00   3.804908100000000e+00  3.66719780e-01   1.58287664e+00  -5.19361880e-01
C     3.750749718800000e+00   6.245402549315529e+00  -8.784720000000235e-02 -4.02648390e-01   2.06083830e-01  -1.40945052e+00
C     4.937076176899999e+00   6.942289724241071e+00  -4.548086999999974e-01  1.24249480e+00   6.56754500e-02   7.54966270e-01
C     4.906659309400000e+00   7.274936526571313e+00   3.730283400000000e+00 -5.07999800e-01   9.66823400e-02   5.12277100e-01
C     6.130932717000000e+00   8.033484835464087e+00   3.715519200000000e+00  1.55905900e-02  -3.59820674e+00   6.67490300e-02
C     6.194499151000000e+00   6.244978160494673e+00  -5.493416999999994e-01 -3.54969420e-01   7.30138230e-01   1.79207960e-01
C     7.437375815000000e+00   6.962953531871938e+00  -6.034083000000017e-01 -1.12017249e+00   7.97249000e-03   3.14763200e-01
C     7.341456798299999e+00   7.271287209662476e+00   3.708481200000000e+00  2.33131018e+00  -2.56194250e-01  -4.91454840e-01
C     8.655287649199998e+00   7.992664949765495e+00   3.702321600000000e+00 -3.74659460e+00  -8.62544600e-01  -8.39474300e-02
C     8.628805118899999e+00   6.233783261585079e+00  -4.006469999999993e-01  1.27307799e+00   1.77650686e+00  -5.04778750e-01
C     9.859752070300001e+00   6.962629134863803e+00  -2.732349000000021e-01  1.52037454e+00  -2.53660300e-01   3.74820590e-01
C     9.842579401300000e+00   7.258459054218371e+00   3.650314200000000e+00 -1.08727010e-01   4.14658290e-01   3.26890850e-01
C     1.105561112710000e+01   7.994317504463690e+00   3.708804300000000e+00  2.21808080e-01  -9.02990100e-02  -1.07038956e+00
C     1.115011045170000e+01   6.259652364614449e+00  -6.020669999999839e-02 -3.15804217e+00  -1.57694384e+00  -7.12131000e-03
C     1.235354874260000e+01   6.897293835467235e+00  -9.323969999999804e-02  1.11081090e+00   4.29630190e+00  -9.23591710e-01
C     1.227168574750000e+01   7.321268087364431e+00   3.671497800000000e+00  7.87234570e-01  -3.10251779e+00   1.38274453e+00
C     1.351613508150000e+01   7.975441338676812e+00   3.789973500000000e+00  4.72429890e-01   1.13469186e+00  -1.31252330e+00
