76
Lattice="10.7446858958278 0 0 5.37234294791388 9.3051709414712 0 0 0 30 " PBC="1 1 1" Properties=species:S:1:pos:R:3:force:R:3 Energy="-610.28052615"
C     9.862332293892000e-02   5.934205273908080e-02  -4.018646999999973e-01  1.96580320e+00   8.02060860e-01   1.63010253e+00
C     1.257230104549989e+01   8.570723009825031e+00  -2.325389999999992e-01  1.13546006e+00   1.08973726e+00  -2.43099230e-01
C     1.400016966113730e+01   8.416069579974881e+00  -2.368881000000016e-01 -1.02628105e+00   9.91816750e-01  -5.68210550e-01
C     1.452784876068986e+01   7.109798424160843e+00  -1.364097000000015e-01  1.87532407e+00   6.97920440e-01  -6.17787530e-01
C     8.289878349675533e+00   9.045224476171441e+00  -2.151527999999985e-01  1.37414667e+00  -2.13160879e+00   3.36928880e-01
C     9.740777877199019e+00   8.833637730131739e+00  -2.152878000000022e-01 -1.16069818e+00   9.46485150e-01   4.18065650e-01
C     1.034226765026506e+01   7.559481603834634e+00  -1.378716000000004e-01  6.96983640e-01   1.19331959e+00  -4.47584280e-01
C     1.178032024036878e+01   7.432148435019451e+00  -1.430330999999967e-01 -1.77964578e+00  -1.13193568e+00  -1.02179480e-01
C     1.234040122961510e+01   6.103580228598986e+00  -1.458830999999989e-01 -1.30035217e+00   1.57769983e+00   3.07472060e-01
C     1.370659212478074e+01   5.994178031133473e+00  -1.232186999999989e-01  1.53671479e+00  -2.97256463e+00   3.67606120e-01
C     6.067700501749048e+00   8.042825215815069e+00  -3.078411000000010e-01 -1.84160780e-01   2.41780110e-01   1.33078350e-01
C     7.494418791314008e+00   7.816251003149147e+00  -2.532834000000008e-01 -4.00343620e-01   1.95996599e+00   5.10550900e-02
C     8.086658088224729e+00   6.509503422582982e+00  -1.614639000000011e-01 -3.56164420e-01   2.59881115e+00   6.86384040e-01
C     9.510547355715648e+00   6.458259753164692e+00  -1.068558000000017e-01 -7.03230360e-01  -1.94294060e+00   2.23973700e-02
C     1.009300743047791e+01   5.183027949106922e+00  -7.227420000000251e-02 -5.24124730e-01  -2.17620671e+00   1.22153250e-01
C     1.149637144683464e+01   4.979034873916225e+00  -1.289651999999997e-01 -7.49117180e-01   1.58654590e-01  -3.45899900e-02
C     1.205622609927247e+01   3.678060128349526e+00  -1.409358000000012e-01 -1.60901436e+00  -4.49037160e-01   1.14010160e+00
C     5.206716034405828e+00   6.943537072718170e+00  -1.880751000000025e-01  1.29416581e+00  -2.57113823e+00   5.61124750e-01
C     5.860404888383234e+00   5.565541938453742e+00  -3.919349999999966e-02 -4.03255117e+00   1.89069639e+00  -7.17668580e-01
C     7.232328664434251e+00   5.397600073139306e+00   1.661340000000000e-02  8.80943790e-01   7.87035100e-02  -7.45593300e-01
C     7.826358348356489e+00   4.114717650586377e+00  -5.273100000000142e-03 -2.80877973e+00  -8.91398030e-01  -5.55414020e-01
C     9.210581781250955e+00   3.999349070565847e+00  -4.757640000000052e-02  4.12905100e-02   2.47327766e+00  -3.86033730e-01
C     9.705742626161458e+00   2.754303334089145e+00  -2.323491000000004e-01  3.92897468e+00  -3.07798782e+00  -4.76770020e-01
C     1.118178708252184e+01   2.553590796913346e+00  -1.690214999999995e-01 -1.46887770e+00  -4.70075130e-01  -7.88891000e-03
C     3.552156734054799e+00   4.631744492542263e+00  -5.741729999999734e-02 -1.76647259e+00   1.65392016e+00   2.53350210e-01
C     4.919047376889679e+00   4.449031971084509e+00  -8.740350000000063e-02  2.57732965e+00   8.42381880e-01   7.27165520e-01
C     5.481261454904294e+00   3.148898226867367e+00  -1.204749000000014e-01  1.03856490e+00   8.19845500e-02  -1.09709210e-01
C     6.896679665755081e+00   2.961922541343451e+00  -1.902554999999992e-01  1.64224436e+00   1.94386576e+00   2.15721620e-01
C     7.477393567888309e+00   1.699942324273045e+00  -4.215228000000018e-01  5.93535540e-01   6.03813040e-01   9.57053030e-01
C     8.931959826922029e+00   1.586087044202487e+00  -4.431998999999998e-01 -2.17367407e+00   2.40581520e-01   8.90384310e-01
C     9.455059756237725e+00   2.830780952165946e-01  -3.899316000000006e-01  2.88993630e-01  -1.73235575e+00  -1.56393520e-01
C     2.678209716471530e+00   3.511282153816266e+00   5.530950000000000e-02  1.44623278e+00  -4.15096850e-01  -1.19166008e+00
C     3.245534880398486e+00   2.197306130360489e+00   2.616810000000000e-02 -7.03480660e-01  -5.79746300e-01  -4.34318240e-01
C     4.644863998582613e+00   2.037267798087361e+00  -1.317498000000015e-01 -6.37259080e-01  -2.59130508e+00   2.77295480e-01
C     5.182610815100043e+00   6.568961231648557e-01  -2.201439000000001e-01  1.57968787e+00   3.31021372e+00  -2.00933860e-01
C     6.628374114146181e+00   5.918324138664782e-01  -3.281051999999995e-01 -9.46085410e-01  -2.52744421e+00   1.38459090e-01
C     9.429247851023586e-01   1.214584701094354e+00  -1.337471999999984e-01  5.52258490e-01  -3.40307000e-02  -1.26465407e+00
C     2.374042325138783e+00   1.038413342600582e+00  -6.146850000000015e-02 -1.38532180e-01   3.67564380e-01  -3.59948560e-01
C     1.593379010485342e+01   9.248887403897188e+00   3.357333900000000e+00  1.70405364e+00  -3.09737230e-01   3.24630260e-01
C     1.173732704516624e+01   8.726827208876436e+00   3.345811500000000e+00 -1.44948930e+00   4.37916600e-02   1.35035114e+00
C     1.312315568041074e+01   8.934899391852101e+00   3.325844100000000e+00  1.36367013e+00   2.74241690e-01   7.88262400e-02
C     1.397342952250826e+01   7.802798424469479e+00   3.398543700000000e+00  1.32266888e+00  -2.36048497e+00   8.05680460e-01
C     7.484365364781384e+00   8.231083246946227e+00   3.490532100000000e+00 -2.02357371e+00   1.12864723e+00  -7.14150860e-01
C     8.860721592383296e+00   8.428930163679345e+00   3.530217300000000e+00  1.95969377e+00   4.57205000e-03   2.63241400e-02
C     9.746035681797323e+00   7.270346493698064e+00   3.606731400000000e+00  1.60768050e-01   1.62263212e+00   3.92435600e-02
C     1.117185012838437e+01   7.432869864922429e+00   3.577645500000000e+00  2.85889390e-01   4.61494250e-01  -1.19395488e+00
C     1.206282876248145e+01   6.318542611500592e+00   3.598087800000000e+00 -1.85835873e+00  -4.02022170e-01   5.43680870e-01
C     1.344792530855215e+01   6.432813925763877e+00   3.606539400000000e+00  2.60379190e-01   2.63528406e+00  -6.08619670e-01
C     4.671851372434213e+00   7.899300025995484e+00   3.417988800000000e+00 -1.77881335e+00   2.20023928e+00  -2.29677970e-01
C     5.504656772812664e+00   6.771469852919195e+00   3.551022900000000e+00 -4.04028850e-01   2.43649170e-01   3.86771120e-01
C     6.889371130405901e+00   6.935790145703783e+00   3.502653600000000e+00  2.41605714e+00  -7.36490210e-01   8.23218090e-01
C     7.782084870105540e+00   5.784068294877078e+00   3.661107600000000e+00 -1.26003716e+00   1.87460822e+00   1.66350360e-01
C     9.178673072640006e+00   5.998703321865015e+00   3.707879400000000e+00 -1.68863020e-01  -1.56600385e+00  -4.39546300e-01
C     1.001946650230395e+01   4.841169926527732e+00   3.692588400000000e+00  1.12335993e+00   4.49392220e-01   3.05302640e-01
C     1.145841562899917e+01   5.052020540494371e+00   3.691795500000000e+00 -7.02720690e-01  -2.94656151e+00  -2.70095560e-01
C     1.226322671728690e+01   3.837554201174374e+00   3.674270400000000e+00  1.86513956e+00   1.14244481e+00   6.35978880e-01
C     3.524741506810661e+00   5.302066767701317e+00   3.763744200000000e+00  1.68804499e+00   9.86298410e-01  -1.53518890e-01
C     4.958671414657981e+00   5.508098885000096e+00   3.812580600000000e+00 -3.89706100e-02  -2.77075777e+00  -1.53388885e+00
C     5.853314631328113e+00   4.304872819968780e+00   3.706145400000000e+00 -2.97656899e+00   2.01337814e+00   9.86865580e-01
C     7.212204028913838e+00   4.493625327883689e+00   3.746526600000000e+00  1.67329982e+00  -1.35959020e-01  -1.12785842e+00
C     8.042645490947431e+00   3.360628923901511e+00   3.583804800000000e+00  1.31106383e+00  -4.20753770e-01   3.13803580e-01
C     9.486702318978930e+00   3.516621833108475e+00   3.634445400000000e+00 -5.38261770e-01   6.64988000e-01  -9.34566830e-01
C     1.037243158305613e+01   2.403868177144301e+00   3.447213600000000e+00 -2.37890978e+00  -7.06903190e-01   1.43042738e+00
C     1.172981495174269e+01   2.514156971296976e+00   3.646676100000000e+00  2.38943013e+00   1.06754638e+00  -1.09695660e+00
C     2.987233061149922e+00   4.014097208195490e+00   3.741244200000000e+00 -1.46342491e+00  -9.80961920e-01   1.03045340e-01
C     3.861292897935142e+00   2.884254884955134e+00   3.718654200000000e+00 -7.79419300e-01   6.44958730e-01  -1.31590220e-01
C     5.274522093927522e+00   3.018523849033865e+00   3.661600800000000e+00 -7.83511520e-01  -3.99230190e-01   4.17457800e-02
C     6.062071575699756e+00   1.844484104017825e+00   3.517065300000000e+00  6.08989210e-01   7.93347730e-01  -1.98967850e-01
C     7.472580109775398e+00   2.065744319663334e+00   3.419282700000000e+00 -6.51515100e-02   4.34604100e-02   7.64717380e-01
C     8.331711226247727e+00   9.618283428511342e-01   3.374711400000000e+00  6.60757270e-01  -1.27592006e+00  -3.94143940e-01
C     9.770348488434696e+00   1.117197340346570e+00   3.417618300000000e+00 -1.48160843e+00  -8.96167880e-01  -8.66396810e-01
C     1.909502008446676e+00   1.387661438888611e+00   3.557445300000000e+00 -4.10970497e+00   6.36849720e-01   7.18130400e-02
C     3.268093993126690e+00   1.608510459030280e+00   3.639819300000000e+00  1.17101971e+00  -1.07875439e+00  -4.12280540e-01
C     4.073638245056809e+00   4.572246485138228e-01   3.520305000000000e+00  4.98747570e-01  -2.03643777e+00   3.93905020e-01
C     5.492191916423504e+00   5.386021835042082e-01   3.481250400000000e+00  1.29048780e-01   1.20430492e+00  -5.73398260e-01
C     1.243718076445357e+00   1.165553615222178e-01   3.401858100000000e+00  1.71909721e+00  -1.13066618e+00   6.92493690e-01
