76
Lattice="10.7446858958278 0 0 5.37234294791388 9.3051709414712 0 0 0 30 " PBC="1 1 1" Properties=species:S:1:pos:R:3:force:R:3 Energy="-612.74449242"
C     1.441500076298165e-01   6.812771598550060e-02  -1.839009000000011e-01 -7.03766270e-01   1.12312082e+00   1.22953960e-01
C     1.260861555884070e+01   8.527780483402315e+00  -2.471579999999918e-02 -1.59962396e+00   1.20195293e+00   1.13326200e-02
C     1.400438286737241e+01   8.410047459445931e+00   6.585900000000000e-03 -1.42131000e-03  -1.12103073e+00  -5.78770980e-01
C     1.458014250228401e+01   7.106779454501069e+00  -3.990629999999840e-02 -1.48289899e+00  -6.89272050e-01  -3.37782320e-01
C     8.347621043830145e+00   9.071931247286336e+00  -1.914456000000015e-01  1.60083582e+00  -7.27352930e-01   1.15415260e-01
C     9.807247996199337e+00   8.897017761800234e+00  -1.561950000000003e-01 -2.41611320e+00   3.30799040e-01   1.54002270e-01
C     1.034354111043793e+01   7.603466402454337e+00  -8.695529999999962e-02 -7.15315200e-02  -1.27914921e+00  -9.64658550e-01
C     1.173781694911985e+01   7.393780795889387e+00  -1.143720000000030e-01  1.27551366e+00   7.93133890e-01   5.40155430e-01
C     1.233530421924128e+01   6.098658816740529e+00  -1.979399999999991e-01 -2.29930834e+00   6.61166640e-01  -3.24374710e-01
C     1.369835922410358e+01   5.939930931690881e+00  -1.515224999999987e-01  2.74631510e+00   9.96812290e-01   5.97407200e-02
C     6.077559986701177e+00   8.103254577778490e+00  -1.500872999999991e-01  1.36314009e+00  -1.62509431e+00   2.27491360e-01
C     7.541975093447984e+00   7.908103462118400e+00  -1.569803999999984e-01 -1.97231484e+00   1.14692336e+00  -2.81203480e-01
C     8.099738024158235e+00   6.613859053640893e+00  -1.660794000000010e-01 -3.05228970e-01   1.08712510e-01   7.46041970e-01
C     9.494458477942706e+00   6.446145909428163e+00  -1.704302999999996e-01  6.42299390e-01   3.61787020e-01   4.19111930e-01
C     1.007116901755645e+01   5.142714505681594e+00  -1.845746999999989e-01 -4.03039470e-01   2.62381770e-01  -5.86789070e-01
C     1.146265182886210e+01   4.998089258553482e+00  -3.475839000000001e-01  9.94242560e-01  -2.03825082e+00   1.26207226e+00
C     1.205000315326320e+01   3.645318860828333e+00  -3.139821000000005e-01 -1.70498472e+00   1.76074655e+00  -1.37177080e-01
C     5.215987516422079e+00   6.954644096958992e+00  -1.009551000000002e-01  1.57752556e+00  -4.67773690e-01   4.91854280e-01
C     5.807383409213081e+00   5.639150120967773e+00  -3.612359999999981e-02  7.40001740e-01   9.08034920e-01  -7.09370220e-01
C     7.254951493149841e+00   5.491866665657231e+00  -3.576389999999918e-02 -1.48513500e+00  -5.42405920e-01  -3.99976030e-01
C     7.801203212067987e+00   4.188354120820067e+00  -4.373520000000042e-02  5.07958100e-02  -1.02993779e+00  -2.88989960e-01
C     9.219675868502996e+00   4.003217788435861e+00  -1.334787000000013e-01 -6.41911330e-01   9.99986300e-02  -1.31783950e-01
C     9.750948044743945e+00   2.695231224359035e+00  -2.124294000000013e-01  9.72930060e-01  -1.91244860e-01  -3.63370080e-01
C     1.117904009612465e+01   2.526275653722394e+00  -3.038148000000014e-01 -2.36653210e-01  -2.59408230e-01   4.13572710e-01
C     3.547673943650461e+00   4.661599202986160e+00  -2.388611999999988e-01  1.35538830e-01  -2.68716080e-01   6.65245690e-01
C     4.972143101839401e+00   4.516717040088394e+00  -1.475991000000008e-01 -2.40093350e-01  -1.07025441e+00   4.12566360e-01
C     5.553865822531780e+00   3.191759984406323e+00  -1.158402000000009e-01 -1.31096419e+00   2.49930580e-01  -3.22154700e-02
C     6.939151206457171e+00   3.015938407288186e+00  -8.168969999999831e-02  1.08237718e+00   8.91893530e-01  -1.65439210e-01
C     7.502793790462191e+00   1.712235013395041e+00  -1.586882999999979e-01 -2.57082330e-01  -4.89609560e-01   9.39023950e-01
C     8.910648602014250e+00   1.548019403783528e+00  -2.036909999999992e-01 -2.18545340e-01  -1.49922520e-01   5.62727670e-01
C     9.442106929938417e+00   2.280292622458110e-01  -1.140906000000008e-01  1.99258312e+00   1.12564728e+00  -2.39987380e-01
C     2.692433477942521e+00   3.512558544114105e+00  -2.374937999999993e-01  1.00918446e+00   2.61716670e-01  -6.37312880e-01
C     3.271549806452707e+00   2.233419312675211e+00  -2.361708000000000e-01  2.20147090e-01  -1.50813826e+00   4.34276860e-01
C     4.691027574530232e+00   2.053795084400732e+00  -1.515138000000000e-01 -3.68743390e-01  -1.81612400e-02  -5.11862560e-01
C     5.236507878724187e+00   7.304358196207696e-01  -1.642401000000007e-01  1.32488485e+00   6.31627670e-01   8.55246840e-01
C     6.657930327502753e+00   5.528697090548008e-01  -3.725550000000055e-02  1.82735410e-01   5.33834000e-03  -1.07900843e+00
C     9.955434459981205e-01   1.219722458177166e+00  -2.582346000000015e-01  3.00828200e-02  -1.13917960e-01   6.69461300e-02
C     2.418766542963238e+00   1.063257032389869e+00  -2.268237000000006e-01 -1.54683780e-01   6.79774500e-01  -2.29330490e-01
C     1.595590460247908e+01   9.209475538484236e+00   3.721609200000000e+00 -3.59407230e-01   6.91875060e-01  -1.53697655e+00
C     1.173577330986167e+01   8.735070566760474e+00   3.465861300000000e+00 -1.34521495e+00  -1.51629100e-02   8.16892350e-01
C     1.311945504941649e+01   8.921602767837388e+00   3.548433300000000e+00  9.29537850e-01  -6.93655630e-01   3.92216310e-01
C     1.395831502657616e+01   7.769981971167090e+00   3.591164400000000e+00  3.56320140e-01  -1.07493903e+00  -6.27624080e-01
C     7.468442492405596e+00   8.214753602463620e+00   3.580337400000000e+00  9.31174250e-01   1.90108779e+00  -8.52002350e-01
C     8.915777953892622e+00   8.413407556672365e+00   3.535042200000000e+00 -1.49692890e+00  -3.47549180e-01   2.79364710e-01
C     9.753987179150760e+00   7.263120842359736e+00   3.521611200000000e+00 -2.70780750e-01   4.03840460e-01   2.21816760e-01
C     1.114269356361985e+01   7.428737438507976e+00   3.552862800000000e+00  1.54903850e+00  -4.40548100e-01  -6.67774080e-01
C     1.200118488777027e+01   6.252986751711198e+00   3.564937800000000e+00 -8.60693530e-01   1.34316028e+00  -1.48303730e-01
C     1.339027496497285e+01   6.420090314175650e+00   3.547629000000000e+00  1.15775584e+00   1.80402033e+00   4.40252200e-01
C     4.646838012276161e+00   7.906661625881246e+00   3.541887300000000e+00 -9.30449740e-01   8.09600680e-01   1.06700090e+00
C     5.479312046541457e+00   6.782051041950197e+00   3.478237200000000e+00  9.12456790e-01  -8.56854040e-01   1.51615650e-01
C     6.913665832247532e+00   6.935470978340541e+00   3.439668600000000e+00 -6.42520700e-01  -1.48876250e-01   8.10551570e-01
C     7.766205459984218e+00   5.805564263317281e+00   3.478742400000000e+00  4.02592370e-01  -4.58981680e-01  -1.05107920e-01
C     9.197177839314133e+00   5.959796820285815e+00   3.540163800000000e+00 -1.40300137e+00  -2.47408000e-03  -2.33274020e-01
C     1.000776306808110e+01   4.813475876776104e+00   3.580759800000000e+00  1.30067786e+00  -6.02682110e-01   1.68178080e-01
C     1.144476198056203e+01   4.969410256457855e+00   3.588803400000000e+00 -1.06905955e+00  -8.75380250e-01   5.25551760e-01
C     1.227355880724834e+01   3.809966416474881e+00   3.684434100000000e+00  2.53830000e-01   6.62404130e-01  -1.06960550e+00
C     3.508728970031038e+00   5.307072298305071e+00   3.570848400000000e+00  3.59360660e-01  -8.85864240e-01  -6.98733700e-01
C     4.934213769654677e+00   5.464579624082520e+00   3.533990400000000e+00 -5.63258970e-01   6.58378990e-01  -7.72044760e-01
C     5.789607562030410e+00   4.346319540162892e+00   3.425196300000000e+00 -1.27140100e-01  -1.00915343e+00   5.56388490e-01
C     7.201515322827378e+00   4.493546792240956e+00   3.460105500000000e+00  1.00791870e-01   1.01005448e+00  -1.45077130e-01
C     8.048100299361714e+00   3.372921706075218e+00   3.510885000000000e+00 -3.30247100e-02  -1.24034929e+00  -1.24312900e-01
C     9.458417524304906e+00   3.491707889278591e+00   3.609443100000000e+00 -1.38977430e-01   9.32993170e-01  -4.54726210e-01
C     1.029884439900937e+01   2.343507859549256e+00   3.635613900000000e+00 -1.07310930e-01   7.31349560e-01   6.23701070e-01
C     1.169897437235706e+01   2.514869189080724e+00   3.720780600000000e+00  1.24562205e+00  -2.62683710e-01  -5.53978260e-01
C     2.946933612425946e+00   3.984803227352439e+00   3.509823900000000e+00 -4.02381890e-01   4.26004340e-01   1.37353012e+00
C     3.790387157701586e+00   2.860389261683351e+00   3.527552700000000e+00  1.49606617e+00  -3.38194700e-01  -3.29689170e-01
C     5.237883896923971e+00   3.023369609852579e+00   3.450061800000000e+00 -1.66071532e+00   8.78362240e-01   3.24689900e-02
C     6.066314974502244e+00   1.897293182343351e+00   3.452836500000000e+00  3.70821080e-01  -7.33111440e-01  -2.88600000e-02
C     7.471011170740280e+00   2.064435454318913e+00   3.465051600000000e+00  5.65064700e-01  -7.54242600e-02   8.65937020e-01
C     8.305742770960025e+00   9.190916468096115e-01   3.638517000000000e+00  2.98979730e-01   1.31420220e-01  -1.19785943e+00
C     9.725860009018888e+00   1.065543778148374e+00   3.660646200000000e+00 -7.09982900e-02  -1.13247319e+00   4.94130820e-01
C     1.847743111872931e+00   1.384470974928413e+00   3.668047200000000e+00 -1.36830571e+00  -1.13583560e-01  -5.44919500e-02
C     3.253172310583065e+00   1.541586739112706e+00   3.587538300000000e+00 -7.01117870e-01   1.06593198e+00   6.66407600e-02
C     4.084853924263236e+00   4.241885931772502e-01   3.556385100000000e+00  1.49655554e+00  -1.13428821e+00  -2.36609870e-01
C     5.524661443915003e+00   5.788169921175720e-01   3.501542700000000e+00 -1.14160581e+00   4.95705200e-02  -2.99194310e-01
C     1.244625465169613e+00   9.053047333380700e-02   3.621526200000000e+00  8.72771690e-01  -1.07214596e+00   7.23511320e-01
