64
Lattice="9.86 0 0 4.93 8.53901048131456 0 0 0 30 " PBC="1 1 1" Properties=species:S:1:pos:R:3:force:R:3 Energy="-515.7885782"
C     4.920623337199999e+00   8.291539367916604e+00  -3.038289000000027e-01  1.60312321e+00   1.65284734e+00   2.55963300e-02
C     1.248172815100000e+00   4.677809126814824e-01  -3.013103999999984e-01 -1.56354900e-01   6.02570920e-01   8.96738500e-02
C     9.809624914899999e+00   2.505872531778616e-01   3.758644200000000e+00  1.36505487e+00  -8.94934540e-01   1.13430100e-02
C     1.224415638100000e+00   9.381014124698216e-01   3.739048200000000e+00 -5.47253850e-01   6.97098940e-01   5.58342000e-02
C     7.435454150300000e+00   8.331500485331224e+00  -2.998908000000000e-01 -1.40842224e+00  -1.11732992e+00   1.58709520e-01
C     3.712621394600000e+00   5.037539706415216e-01  -3.106413000000003e-01  9.08774480e-01  -1.31044870e-01  -8.85826760e-01
C     2.455008319700000e+00   2.172133846178296e-01   3.808984500000000e+00 -6.02702350e-01   3.46360000e-03   1.67067750e-01
C     3.687690483200000e+00   9.206762807338096e-01   3.823257600000000e+00 -5.69892070e-01   8.76813450e-01  -3.06030670e-01
C     9.887219466700000e+00   8.319185695197177e+00  -4.049976000000015e-01 -3.89751880e-01  -5.14821360e-01   2.76965020e-01
C     6.188001164499999e+00   4.965360304728824e-01  -3.955395000000017e-01 -3.92567640e-01  -7.60748010e-01   3.59257390e-01
C     4.916312841000000e+00   2.548372040838624e-01   3.835377900000000e+00  7.10650000e-01  -1.51525755e+00   1.11165240e-01
C     6.172712544299999e+00   9.380462504621208e-01   3.834123300000000e+00 -1.63077588e+00   3.39624720e-01  -2.45609970e-01
C     1.236090144320000e+01   8.356311007231387e+00  -3.878267999999991e-01 -1.21010801e+00  -1.78776332e+00  -5.01994880e-01
C     8.647275659699998e+00   4.929595513234392e-01  -3.134111999999973e-01  8.59280000e-03   3.02909670e-01  -2.56441840e-01
C     7.372304794300000e+00   2.097704415230424e-01   3.833560799999999e+00  3.73597950e-01   1.75849680e-01  -3.76131730e-01
C     8.573613275900000e+00   9.423985841037767e-01   3.735438900000000e+00  1.41310227e+00  -1.06237200e-02   4.99812260e-01
C     1.223961535800000e+00   1.895593380717837e+00  -3.589050000000000e-01  9.31063790e-01   4.14493000e-03  -6.23905100e-01
C     2.474974819700000e+00   2.634096960239545e+00  -5.287269000000023e-01 -3.72024050e-01  -1.64550987e+00   9.17391900e-01
C     1.111699608540000e+01   2.391566092669354e+00   3.707169600000000e+00 -2.16850236e+00  -1.84705409e+00   8.92589600e-02
C     2.461593172800000e+00   3.068769567586923e+00   3.739610700000000e+00  2.02876930e-01   6.83765300e-01   1.00750640e-01
C     3.702147215200000e+00   1.921541042643622e+00  -4.458602999999997e-01  7.02195460e-01  -5.30893700e-02   4.31992900e-01
C     4.971799843099999e+00   2.611784013514676e+00  -4.027839000000029e-01 -1.66563229e+00   1.44514890e-01  -1.37151380e-01
C     3.670958358999999e+00   2.337770497425563e+00   3.772680600000000e+00  8.35641950e-01   8.21734230e-01   1.82714010e-01
C     4.901639139700000e+00   3.072142903677047e+00   3.808543200000000e+00  2.03169590e-01   9.50670000e-04  -9.39008000e-02
C     6.160926294700000e+00   1.887505486161495e+00  -3.135369000000026e-01  1.45919798e+00   1.08798834e+00  -3.94370250e-01
C     7.411326434500000e+00   2.610659425834460e+00  -3.081920999999994e-01 -7.74231500e-01   1.39733830e-01  -1.52725000e-03
C     6.139390477099999e+00   2.371891956353119e+00   3.791965800000000e+00  3.00603090e-01  -8.14477010e-01   3.87663980e-01
C     7.368867598300000e+00   3.060606358958148e+00   3.804686100000000e+00  6.04924030e-01   1.33018803e+00  -3.81429500e-02
C     8.643687753600000e+00   1.925523466351285e+00  -3.404547000000022e-01 -1.33575140e+00  -1.82660860e+00   6.10425620e-01
C     9.839765751700000e+00   2.578235095239804e+00  -3.643784999999973e-01  2.12177704e+00   2.33070680e+00  -5.64982000e-01
C     8.624995017700000e+00   2.353988896200542e+00   3.753688800000000e+00 -8.51348220e-01   9.37879070e-01  -1.67158740e-01
C     9.857155389999999e+00   3.088140654421223e+00   3.719800500000000e+00  3.35389750e-01  -3.01794570e-01  -5.80586500e-02
C     2.507123842700000e+00   4.030213389885082e+00  -5.789343000000002e-01 -1.00422500e+00   6.34686710e-01  -6.73546700e-02
C     3.723838130600000e+00   4.746680003500635e+00  -5.282112000000012e-01  4.87056610e-01   9.88883210e-01  -1.90971560e-01
C     1.228600503110000e+01   4.489352055449862e+00   3.782990400000000e+00  1.57306618e+00   6.93706150e-01  -2.35505470e-01
C     3.682157544200000e+00   5.204660096123488e+00   3.784400700000000e+00 -3.60113230e-01  -7.82167290e-01   5.00725530e-01
C     4.980251440700000e+00   4.031765098869508e+00  -4.474164000000016e-01 -2.20405889e+00  -1.49449100e-01   4.20768000e-03
C     6.162531551999999e+00   4.729313022425991e+00  -3.730182000000006e-01  1.66068135e+00   1.47066952e+00   6.70543680e-01
C     4.913868448400000e+00   4.502571382964055e+00   3.839688300000000e+00  2.79589000e-02  -2.33914100e-02  -4.83681350e-01
C     6.145325506899999e+00   5.254625005875845e+00   3.844591800000000e+00 -1.36132310e-01  -2.45145629e+00   1.50608360e-01
C     7.395949764499999e+00   4.027560319328947e+00  -3.000539999999994e-01  6.33665860e-01   1.79057920e-01  -3.90815990e-01
C     8.639624694100000e+00   4.749993566517399e+00  -3.605897999999996e-01 -1.12199730e-01  -5.76249820e-01  -1.95135430e-01
C     7.365451897100000e+00   4.506888962833057e+00   3.853215600000000e+00  6.83244180e-01  -4.36114970e-01  -5.32223360e-01
C     8.627632469100000e+00   5.198683386518222e+00   3.798033600000000e+00 -1.15045907e+00   1.96194150e-01   4.03248760e-01
C     9.865451347500001e+00   4.020464913960695e+00  -4.883289000000026e-01  6.12737800e-02  -5.11083400e-02   6.42470660e-01
C     1.110907658270000e+01   4.715606800534229e+00  -5.850780000000029e-01  2.57194460e-01   1.24818728e+00   3.12627690e-01
C     9.860432607500000e+00   4.517157122935257e+00   3.737131500000000e+00 -5.49612150e-01  -8.47858570e-01   2.98023500e-01
C     1.107828907780000e+01   5.230127524099878e+00   3.792073200000000e+00  7.07422800e-02  -1.03852193e+00  -3.88776230e-01
C     3.696578287200000e+00   6.208713324546533e+00  -5.235648000000026e-01  9.41171440e-01  -1.29774887e+00   5.06346670e-01
C     4.952170210000000e+00   6.910835169066629e+00  -3.572117999999982e-01 -8.40786760e-01  -2.07900211e+00  -1.91648050e-01
C     1.357106647260000e+01   6.609638140064960e+00   3.822138000000000e+00 -1.06480765e+00   8.63992480e-01  -9.71850800e-02
C     4.909286112000000e+00   7.346440834089157e+00   3.827951099999999e+00  2.92967970e-01   7.45700910e-01  -3.48723520e-01
C     6.183281182500000e+00   6.166004865900080e+00  -2.927486999999971e-01 -5.70655240e-01   4.36975030e-01  -5.93776180e-01
C     7.405326624499999e+00   6.890461517011873e+00  -2.959692000000018e-01  5.87412040e-01  -3.52988400e-02   1.65300670e-01
C     6.144992189600000e+00   6.643546038340411e+00   3.832512300000000e+00 -6.24021470e-01   8.18161770e-01   3.29264760e-01
C     7.356222246900000e+00   7.341046655778836e+00   3.884983200000000e+00  1.34320419e+00  -9.84368700e-02  -4.64839320e-01
C     8.637185970999999e+00   6.165781229215608e+00  -3.532454999999999e-01  3.32584520e-01   4.70456990e-01  -2.22248620e-01
C     9.877195839999999e+00   6.876231512217267e+00  -4.557101999999986e-01  1.58893280e-01   4.37257130e-01   2.51762000e-01
C     8.596268844399999e+00   6.610921382559894e+00   3.874026600000000e+00  5.48569590e-01   1.26974892e+00  -3.70704080e-01
C     9.832447215999998e+00   7.358251310264254e+00   3.832319700000000e+00  4.12499490e-01  -5.94037200e-01   8.03031800e-02
C     1.112907177530000e+01   6.169972090169087e+00  -5.462603999999978e-01 -1.65853862e+00  -5.76366320e-01  -1.24249040e-01
C     1.232001542490000e+01   6.910381833000245e+00  -5.399381999999981e-01  1.37071986e+00   4.93690260e-01   5.30147620e-01
C     1.108394659790000e+01   6.628000684371466e+00   3.800155500000000e+00 -8.86166500e-02   1.39819899e+00   3.61775530e-01
C     1.233979774010000e+01   7.330085298805869e+00   3.833772000000000e+00 -1.04078863e+00  -2.18388300e-01  -1.84558180e-01
