64
Lattice="9.86 0 0 4.93 8.53901048131456 0 0 0 30 " PBC="1 1 1" Properties=species:S:1:pos:R:3:force:R:3 Energy="-514.64946179"
C     4.980082144500000e+00   7.499946027757384e+00  -1.926959999999980e-01 -1.34860239e+00   6.55849900e-02   2.88076200e-02
C     6.179159603900000e+00   8.214765039300820e+00  -1.966290000000015e-01  1.72584340e+00  -4.18490000e-04   1.43003690e-01
C     9.816673237300000e+00   1.051032729331385e+00   3.775706100000000e+00 -2.12059660e-01  -7.12337510e-01  -4.14093000e-01
C     1.180893105100000e+00   1.776716948589783e+00   3.677307900000000e+00  9.07475620e-01  -1.26198240e-01   3.38444750e-01
C     7.406285509500000e+00   7.479379650236094e+00  -4.370850000000104e-02  1.13009572e+00   1.44034961e+00  -6.75603800e-01
C     8.670609448299999e+00   8.206787212589566e+00  -1.546982999999997e-01 -4.52609900e-01  -5.42998000e-03   4.28388280e-01
C     2.427419891800000e+00   1.063547246920558e+00   3.815757600000000e+00  1.75084300e-02  -9.49235890e-01  -7.90389790e-01
C     3.682553472500000e+00   1.742487812740074e+00   3.689223300000000e+00 -1.61295154e+00   1.31286721e+00  -9.86526100e-02
C     9.912113452400000e+00   7.493171774573285e+00  -1.397693999999987e-01 -3.05643050e-01  -3.27814600e-02  -5.94970690e-01
C     1.115350712310000e+01   8.202471425912764e+00  -2.021675999999992e-01 -9.02666720e-01  -7.93421470e-01   3.47217030e-01
C     4.926937188200000e+00   1.063481154979443e+00   3.690989400000000e+00 -2.04794889e+00  -1.40976413e+00  -6.61253700e-02
C     6.094257904700000e+00   1.807677351227748e+00   3.694340700000000e+00  1.15013285e+00  -1.93676972e+00  -4.14191690e-01
C     1.235632093090000e+01   7.504194697811812e+00  -2.220531000000001e-01  1.66243215e+00  -7.16108720e-01   3.85748000e-02
C     1.359636008410000e+01   8.211632247135917e+00  -2.265528000000003e-01  1.63564020e-01  -2.75015160e-01   1.91666140e-01
C     7.318510754200000e+00   1.044265990476509e+00   3.607489500000000e+00  8.82197500e-01   4.07127730e-01   5.82699730e-01
C     8.570691807199999e+00   1.719641263250310e+00   3.743281800000000e+00 -1.06110950e-01   1.62024702e+00  -7.80336070e-01
C     1.299676673000000e+00   1.101699716525408e+00  -3.861762000000013e-01 -4.84229350e-01  -9.63670790e-01   1.78591080e-01
C     2.514593433600000e+00   1.813425556912570e+00  -4.326191999999978e-01  1.24232490e+00  -2.18731750e-01   3.11114650e-01
C     1.105767891700000e+01   3.197262206367029e+00   3.453067500000000e+00 -1.35533235e+00  -6.71747980e-01   5.51640200e-01
C     2.393498878900000e+00   3.918756930913625e+00   3.368960400000000e+00  1.33667684e+00  -2.29613773e+00  -6.98156200e-02
C     3.764233564600000e+00   1.110746968909178e+00  -2.629628999999980e-01 -4.35753050e-01  -1.11907497e+00  -1.74230280e-01
C     5.021276485000000e+00   1.785883149389539e+00  -2.061557999999977e-01 -8.43164180e-01  -6.94127630e-01  -1.95737750e-01
C     3.607058114700000e+00   3.183528830421940e+00   3.506215200000000e+00  1.67538374e+00  -3.39402310e-01   3.55606880e-01
C     4.849683693799999e+00   3.900908605818224e+00   3.573650100000000e+00 -4.92889040e-01   1.64372118e+00   2.41152190e-01
C     6.266570081499999e+00   1.054159202628532e+00  -1.578333000000001e-01 -2.56417573e+00   1.00840425e+00   1.83497090e-01
C     7.439288950799999e+00   1.762952490646547e+00  -1.189232999999987e-01  2.11038298e+00   2.56762412e+00  -2.57701130e-01
C     6.053408269799999e+00   3.195828164947017e+00   3.751537200000000e+00  1.64132788e+00   5.73006050e-01  -3.10707120e-01
C     7.344606673900000e+00   3.845599300186644e+00   3.805735200000000e+00 -7.77059640e-01   1.66505583e+00  -3.99732980e-01
C     8.674847917199999e+00   1.086332742485391e+00  -2.038440000000001e-01  6.68284750e-01  -4.46711400e-01  -6.57931400e-01
C     9.921924250999998e+00   1.777196755588655e+00  -4.056005999999996e-01 -1.34044219e+00   8.48783710e-01   1.06811074e+00
C     8.564027285300000e+00   3.174387990483310e+00   3.691499100000000e+00  1.52644544e+00  -1.11980402e+00   3.08649600e-01
C     9.831073077099999e+00   3.907347959011297e+00   3.525952200000000e+00 -1.89525589e+00  -7.26931520e-01   1.02226910e-01
C     2.525200279300000e+00   3.241602982256839e+00  -5.200764000000007e-01 -6.27264480e-01  -1.30559038e+00   1.64809440e-01
C     3.733970217300000e+00   3.917969121806740e+00  -4.118984999999995e-01  2.06097519e+00   9.87447080e-01   1.18542733e+00
C     1.228780817860000e+01   5.281947875439435e+00   3.235605600000000e+00 -3.69515670e-01   3.25925120e+00   5.61240200e-01
C     3.620753901200000e+00   6.087522735188295e+00   3.441835200000000e+00  1.38965677e+00  -3.16466545e+00  -5.76799600e-01
C     4.967241910199999e+00   3.182892759531285e+00  -2.140070999999999e-01  6.93726930e-01   1.42864882e+00   4.63261400e-02
C     6.205139372800000e+00   3.905951062286873e+00  -1.990709999999751e-02 -4.08800380e-01   1.23418599e+00  -5.87076930e-01
C     4.877674015300000e+00   5.383915529795203e+00   3.570459000000000e+00 -1.49451450e-01  -1.60561282e+00   6.97231160e-01
C     6.123359793300000e+00   6.052679388314759e+00   3.839889300000000e+00  1.56435300e-01  -1.70474073e+00  -8.34393820e-01
C     7.465144434400000e+00   3.242682057011196e+00  -9.167339999999768e-02 -1.98386560e+00  -1.84584114e+00   1.60071160e-01
C     8.647866175099999e+00   3.959651959904441e+00  -2.220449999999978e-01  1.85386910e+00  -8.43448660e-01   2.87866780e-01
C     7.389421606400000e+00   5.272403140305101e+00   3.849738000000000e+00 -2.47099968e+00   1.01868400e+00   9.93943000e-03
C     8.572001264499999e+00   6.021878835952981e+00   3.771079800000000e+00  1.11148057e+00  -1.06640018e+00  -8.51750440e-01
C     9.873925721700001e+00   3.192963412321082e+00  -3.597281999999993e-01  1.50081109e+00   1.49678966e+00  -8.80738340e-01
C     1.115538786880000e+01   3.913730783954992e+00  -5.046441000000002e-01 -1.95893085e+00   1.09282352e+00   6.18272650e-01
C     9.795327964199998e+00   5.323807300273862e+00   3.480321600000000e+00  8.64665230e-01  -1.79247380e-01   4.04905600e-02
C     1.104989301730000e+01   5.997872774230137e+00   3.251118900000000e+00 -1.07292679e+00   9.28964520e-01   1.02608402e+00
C     3.787086628900000e+00   5.360747486560866e+00  -2.515032000000019e-01 -2.15439061e+00  -7.91302010e-01  -7.31606090e-01
C     4.965040320099999e+00   6.077566505138928e+00  -1.482321000000013e-01  1.88242917e+00  -1.73681000e-03   6.70014620e-01
C     1.352169755120000e+01   7.458253028237212e+00   3.528570900000000e+00 -5.86341060e-01   1.61871844e+00   1.99368820e-01
C     4.883036031200001e+00   8.147322141337579e+00   3.773163900000000e+00  1.81711900e-01   1.06716326e+00  -3.56621840e-01
C     6.191530255700000e+00   5.360129432982323e+00   1.945230000000000e-02  5.18526230e-01  -8.29853610e-01  -4.98593680e-01
C     7.440921273800000e+00   6.070237899394469e+00   3.544380000000000e-02 -3.65117950e-01  -2.56803490e-01  -5.54269940e-01
C     6.119853675900000e+00   7.465674538415694e+00   3.855012600000000e+00 -2.06012860e-01  -6.54791590e-01   1.70628820e-01
C     7.348264980400000e+00   8.145149133950628e+00   3.882238500000000e+00  1.85669040e-01   1.70429376e+00  -7.64267300e-02
C     8.686912958300001e+00   5.377288232981464e+00  -1.450721999999978e-01 -9.48416070e-01  -4.42279240e-01   2.96633160e-01
C     9.908771898400000e+00   6.060378757894261e+00  -2.382066000000016e-01  9.55736900e-01   6.53300400e-01   1.81502400e-02
C     8.558085797200000e+00   7.419597440134879e+00   3.774575700000000e+00  1.10931258e+00   1.76936812e+00   6.95219100e-02
C     9.811489194400000e+00   8.152592589386044e+00   3.641708400000000e+00  1.49137320e-01  -2.71713730e-01  -3.03395930e-01
C     1.115540280670000e+01   5.354262791222145e+00  -4.075619999999986e-01  3.02951970e-01   2.49952800e-02   6.68656100e-01
C     1.241417955880000e+01   6.086997586043775e+00  -2.764322999999997e-01 -1.49548155e+00  -1.12931500e+00  -6.00045150e-01
C     1.102668859190000e+01   7.432671262910494e+00   3.399468900000000e+00  1.07160879e+00   3.49797040e-01   6.45446300e-02
C     1.229510078250000e+01   8.173473971003942e+00   3.442982400000000e+00 -1.90085049e+00  -9.92702900e-02   4.07716290e-01
