76
Lattice="10.7446858958278 0 0 5.37234294791388 9.3051709414712 0 0 0 30 " PBC="1 1 1" Properties=species:S:1:pos:R:3:force:R:3 Energy="-596.057286"
C     1.078835488222222e+01   9.436969381194160e-02   2.904000000000000e-03  3.95874535e+00  -1.12482911e+00  -2.57454250e-01
C     1.245233249072232e+01   8.586046486173895e+00   3.672480000000000e-02  4.18247640e+00  -1.72273927e+00   1.17179020e-01
C     1.397066394780446e+01   8.301366133573142e+00   6.096360000000001e-02 -2.03085657e+00   2.69460349e+00   1.26418501e+00
C     1.454800165473419e+01   7.022414215225268e+00   3.636810000000000e-02  3.25254480e+00   1.62429835e+00  -4.37428150e-01
C     8.230148264693426e+00   9.087554350139468e+00  -1.939175999999989e-01  6.50005670e-01  -2.76712844e+00  -7.92770030e-01
C     9.633417674090801e+00   8.785772768281763e+00  -1.380206999999984e-01  1.24050040e+00   7.90889210e-01  -7.97024110e-01
C     1.028543798579480e+01   7.483553735256968e+00  -3.017792999999998e-01  1.93133530e-01   3.38040159e+00   2.49444205e+00
C     1.170806754631080e+01   7.361984933735697e+00   5.064570000000000e-02 -6.89588770e-01  -1.33770185e+00  -2.05504177e+00
C     1.236968366837494e+01   5.973602716306075e+00  -8.813430000000011e-02 -1.42099973e+00   6.61212990e-01  -2.93713143e+00
C     1.378846023825063e+01   5.910699760751674e+00  -2.228151000000018e-01 -2.38617792e+00  -3.89910407e+00  -1.36916861e+00
C     6.048777927963699e+00   8.125131127710139e+00  -4.260929999999874e-02 -6.41592910e-01   4.50244480e-01  -6.42530130e-01
C     7.374416874286716e+00   7.929751756206890e+00  -3.451541999999996e-01  2.44378569e+00   7.18774140e-01   1.52566110e+00
C     7.922011087984637e+00   6.622214259679629e+00  -4.161879000000006e-01  3.21577693e+00   1.63611118e+00  -5.75331840e-01
C     9.374518450306196e+00   6.507124183425333e+00  -4.185306000000004e-01  4.59821010e-01  -5.84652042e+00  -5.14615690e-01
C     1.002965004698283e+01   5.127489757196404e+00  -5.172878999999995e-01 -9.93426410e-01  -1.92679367e+00  -1.04119609e+00
C     1.146839561560367e+01   4.789641704982097e+00  -6.976140000000015e-01 -9.87612940e-01   5.73116788e+00   2.36561289e+00
C     1.197720092224487e+01   3.581996242064539e+00  -1.128507299999999e+00  1.92193818e+00  -1.95253946e+00   1.00982833e+00
C     5.321961010368041e+00   6.992790366072394e+00  -5.143470000000150e-02 -4.06383666e+00  -5.09271999e+00  -3.01653330e-01
C     5.876320400649179e+00   5.608712813771325e+00  -2.724326999999995e-01 -6.47747945e+00   2.21468645e+00   4.98922910e-01
C     7.181799898669468e+00   5.455037264335258e+00  -4.555734000000022e-01  2.47433317e+00  -7.75338770e-01   1.19284496e+00
C     7.809427946783860e+00   4.193119112755022e+00  -2.900694000000001e-01 -3.85818892e+00  -3.01298766e+00   3.68214650e-01
C     9.132328663628689e+00   3.927652728473146e+00  -5.098776000000029e-01  2.60570951e+00   1.90980240e+00   2.05289220e-01
C     9.698803385666663e+00   2.607062589513218e+00  -4.726830000000000e-01  1.72315977e+00  -2.97974100e-02   3.16776630e-01
C     1.113036414399646e+01   2.385732678137369e+00  -8.268276000000014e-01 -1.78254652e+00   2.28915041e+00   1.18809943e+00
C     3.652736127061814e+00   4.522659043095549e+00  -7.272987000000022e-01 -9.26800206e+00   4.09114001e+00  -8.44702360e-01
C     4.885827977769219e+00   4.499185446675468e+00  -4.282178999999999e-01  8.24391858e+00  -1.80688906e+00   6.15379450e-01
C     5.425415466428178e+00   3.168309092603335e+00  -3.627320999999988e-01  3.09193321e+00  -8.31931660e-01   2.06661715e+00
C     6.858536568044376e+00   3.036146167863456e+00   1.737780000000000e-02  1.42810756e+00   3.31252440e-01  -2.57686787e+00
C     7.473570447474801e+00   1.698567485266660e+00   8.249670000000001e-02  5.85487590e-01   3.41913968e+00  -1.82237130e-01
C     8.952470196666249e+00   1.526351661887772e+00   6.304230000000001e-02 -2.62548755e+00  -3.21044830e-01  -1.21057428e+00
C     9.470815011513473e+00   1.834247392415022e-01   1.291482000000000e-01 -4.09462572e+00   4.31787150e-01  -3.11186090e-01
C     2.759590450988995e+00   3.433564900866839e+00  -1.237227300000001e+00 -1.45469599e+00  -6.10519300e-01   4.21860155e+00
C     3.189450574789109e+00   2.117644654994859e+00  -7.271576999999994e-01  9.40615650e-01   1.51015978e+00   4.39630040e-01
C     4.611718898965152e+00   2.014495997659574e+00  -2.986964999999984e-01 -2.31795077e+00  -2.74716929e+00  -1.26005874e+00
C     5.108147670535286e+00   5.700410993006392e-01  -9.218789999999899e-02  2.53270113e+00   6.85744155e+00  -4.19408180e-01
C     6.603693194569875e+00   6.632137759228592e-01  -7.271129999999815e-02 -2.80956994e+00  -6.44266243e+00   1.44483832e+00
C     8.947430885255721e-01   1.167879907957178e+00  -3.371010000000005e-01 -6.17760770e-01   1.41786593e+00  -1.41253085e+00
C     2.265806859917152e+00   1.046726303163250e+00  -3.674987999999999e-01  3.32487034e+00   7.64257700e-02  -6.98464570e-01
C     1.593806906856624e+01   9.248077109611732e+00   4.022285100000000e+00  4.08028700e-01  -4.52512070e-01  -1.24199372e+00
C     1.173103227093173e+01   8.809395898798851e+00   3.739402200000000e+00 -1.51512040e+00  -1.44934053e+00  -1.28750739e+00
C     1.311642177086349e+01   8.890169062936684e+00   3.651366300000000e+00  3.15473902e+00   2.03608018e+00   1.05494044e+00
C     1.393861271093505e+01   7.740085945764221e+00   3.701829000000000e+00  3.03899396e+00  -1.52047489e+00  -1.20852434e+00
C     7.516884747615459e+00   8.281469351810687e+00   3.731700600000000e+00 -1.22775920e+00   1.57672313e+00   6.80339940e-01
C     8.892076358712670e+00   8.489316535753021e+00   3.562497000000000e+00  1.82214644e+00  -2.46692200e-01   4.62751470e-01
C     9.772127915866596e+00   7.231474979561599e+00   3.593109000000000e+00 -9.05568270e-01   5.17368588e+00   1.06116380e-01
C     1.112267078772177e+01   7.502561221832687e+00   3.741641100000000e+00  3.59926527e+00  -7.52273520e-01  -2.61945340e-01
C     1.208205922524127e+01   6.359473173862662e+00   3.714793500000000e+00 -4.04532287e+00   3.99910040e-01   4.57381940e-01
C     1.342091311447612e+01   6.352193645584589e+00   3.528738000000000e+00  1.32013690e+00   4.61446775e+00   8.06643920e-01
C     4.692672639664952e+00   7.885305607211981e+00   3.810995400000000e+00 -3.18556901e+00   3.78606075e+00   1.00543400e+00
C     5.565054371406309e+00   6.829667183529237e+00   3.795775200000000e+00  2.21831150e-01  -2.12782021e+00  -3.90324820e+00
C     7.015376049722092e+00   6.984991702307580e+00   3.665340300000000e+00 -7.99114490e-01  -2.43545140e+00  -8.18320440e-01
C     7.856758556790507e+00   5.757971291613882e+00   3.350221500000000e+00 -1.45427327e+00   3.79987694e+00   1.62249095e+00
C     9.265439903305424e+00   5.968333756313008e+00   3.556816500000000e+00 -2.34237220e+00  -1.73932959e+00  -8.77693080e-01
C     1.010488374669690e+01   4.863605065870909e+00   3.735899400000000e+00  4.37843850e-01   1.28009650e-01   8.98872000e-01
C     1.149015650561636e+01   5.116223800635927e+00   3.855541500000000e+00  9.65931460e-01  -3.85872991e+00  -1.69310088e+00
C     1.234958895680476e+01   3.919568675115603e+00   3.728293500000000e+00  2.82898460e-01  -1.30650933e+00   2.74916198e+00
C     3.513235828531793e+00   5.237226940815756e+00   3.440691900000000e+00  3.53093418e+00   3.68148116e+00   8.36692200e-02
C     4.933275436235030e+00   5.642222223153615e+00   3.180908700000000e+00  1.35131090e+00  -5.11849829e+00   4.52003688e+00
C     5.825333642647909e+00   4.358755715020783e+00   3.402275700000000e+00 -1.42450482e+00   2.41396008e+00  -1.72415006e+00
C     7.203694130234179e+00   4.512263213069671e+00   3.323491200000000e+00  2.92731033e+00  -2.42730200e-01   1.15065058e+00
C     8.119776863361736e+00   3.436027049097562e+00   3.614877000000000e+00  7.44742920e-01  -1.81480085e+00   1.74780687e+00
C     9.550855883699208e+00   3.583460969022204e+00   3.933009600000000e+00 -1.62550831e+00   6.15427560e-01  -1.15872386e+00
C     1.040561976886405e+01   2.476285856088270e+00   4.211230500000000e+00 -2.78856049e+00  -1.74030093e+00  -3.27431431e+00
C     1.173537495063193e+01   2.579279117068857e+00   3.903719100000000e+00  3.86266042e+00   1.66177169e+00   2.33125324e+00
C     3.097190039946451e+00   4.004906211702924e+00   3.858758400000000e+00 -2.27626030e+00  -1.91648401e+00  -2.80043554e+00
C     3.953887055274994e+00   2.817635444127299e+00   3.754836300000000e+00 -2.83346834e+00   3.27920480e+00   6.68205400e-02
C     5.350821988823455e+00   3.046604342534631e+00   3.556675800000000e+00 -1.72729025e+00  -1.08453590e+00   2.59856990e-01
C     6.167171096894613e+00   1.880582305007333e+00   3.626560800000000e+00  2.04804349e+00   2.15598768e+00   3.38093980e-01
C     7.626454702825868e+00   2.096115560146109e+00   3.838836000000000e+00 -2.43662500e+00   6.85228900e-02  -2.79459059e+00
C     8.455928981958172e+00   9.647201108241580e-01   3.721291800000000e+00 -1.71031498e+00  -1.35109757e+00   1.03997592e+00
C     9.843697033007617e+00   1.152267692154046e+00   3.890433900000000e+00 -1.62159168e+00  -8.27944260e-01   2.03704507e+00
C     1.877158999631650e+00   1.406801244995096e+00   4.118706900000000e+00 -3.89986157e+00   1.31318570e+00  -2.74401438e+00
C     3.199915791408850e+00   1.616081797469030e+00   3.764986800000000e+00  3.41847705e+00  -2.26487100e-01   6.51285630e-01
C     4.075073573922761e+00   5.638945686362222e-01   3.583891200000000e+00  1.54507548e+00  -5.28298539e+00  -2.26306060e-01
C     5.554997399127338e+00   6.417965292288083e-01   3.564771300000000e+00 -1.94934165e+00   3.93985920e-01   8.84474900e-01
C     1.186109744587924e+00   1.389297380991572e-01   3.984415199999999e+00  5.09363864e+00  -1.52010398e+00   3.74364380e-01
