64
Lattice="9.86 0 0 4.93 8.53901048131456 0 0 0 30 " PBC="1 1 1" Properties=species:S:1:pos:R:3:force:R:3 Energy="-512.60606496"
C     4.928870241199999e+00   8.238660350057737e+00   2.896080000000000e-02  3.68675240e+00   2.14678474e+00  -7.78357010e-01
C     1.315517157400000e+00   4.263242729713968e-01  -4.648170000000107e-02 -1.66829570e+00  -1.53986780e-01   1.42191820e+00
C     1.157463723800000e+00   9.825677118136881e-01   3.439102200000000e+00  1.66814820e-01  -2.19570158e+00  -3.55972610e-01
C     2.366403401700000e+00   1.708922499565081e+00   3.450357300000000e+00 -1.56308232e+00  -9.45135370e-01  -7.30098160e-01
C     7.468406516800000e+00   8.280623780039811e+00   2.976960000000000e-02  5.48137960e-01  -5.80932550e-01  -1.17838273e+00
C     3.775247726900000e+00   4.941155625622216e-01  -2.146229999999960e-02 -3.28584840e-01  -2.64991185e+00  -1.21594907e+00
C     3.549461368399999e+00   1.025935638239512e+00   3.446314200000000e+00  2.20460300e+00  -3.62065566e+00   1.00191467e+00
C     4.790798689200000e+00   1.668837395718293e+00   3.502716600000000e+00  3.00032522e+00  -1.57396911e+00  -6.16044340e-01
C     9.944047478100000e+00   8.296343159042339e+00  -1.827089999999991e-01  4.15450870e-01   1.30033683e+00   1.63170494e+00
C     6.244525438599999e+00   4.703056419101040e-01  -5.206679999999864e-02  4.25745720e-01   1.19206623e+00   4.65813000e-02
C     6.092802223600000e+00   9.363825950503024e-01   3.542086500000000e+00 -8.45044590e-01   4.73153120e-01   1.79164870e-01
C     7.317291959600000e+00   1.676783115750142e+00   3.501418800000000e+00  9.13163920e-01  -1.30386264e+00  -1.17751328e+00
C     1.241763287590000e+01   8.306724546423503e+00   5.209050000000000e-02 -2.32603729e+00  -1.60770395e+00  -1.63041896e+00
C     8.684104090799998e+00   4.324042192133664e-01   2.863260000000000e-02  6.46791090e-01   2.74144108e+00   3.30534180e-01
C     8.617289920699999e+00   9.505818594071800e-01   3.351317400000000e+00 -2.26138005e+00   2.14235646e+00   2.91552870e-01
C     9.852606035300001e+00   1.720694037852390e+00   3.246333600000000e+00 -2.49432333e+00  -3.48439425e+00   1.35249229e+00
C     1.323415362500000e+00   1.831826355986026e+00   3.178710000000000e-02 -4.55395950e-01   2.02335480e+00  -3.17287160e-01
C     2.566145063200000e+00   2.588799302835346e+00  -5.195609999999817e-02 -1.32012824e+00   2.58306100e-01   3.63883960e-01
C     2.338314529500000e+00   3.080629143072281e+00   3.293150400000000e+00  1.69878826e+00   2.81697981e+00   3.65568920e-01
C     3.637502688800000e+00   3.788034841887296e+00   3.319288200000000e+00 -1.71077752e+00   4.89770820e-01   5.84413380e-01
C     3.768515466799999e+00   1.876766058070904e+00  -1.307000999999985e-01  1.25528962e+00   8.14520390e-01   7.87130080e-01
C     5.022218262900000e+00   2.589735946894897e+00  -1.042005000000010e-01 -5.78781810e-01   1.90676120e-01   5.14904410e-01
C     4.882248660899999e+00   3.044837539084942e+00   3.394097700000000e+00 -2.61121744e+00   2.17400598e+00   6.36901170e-01
C     6.052273383799999e+00   3.776984849985547e+00   3.532049700000000e+00  1.98083738e+00   1.56278663e+00  -5.31565360e-01
C     6.271479819200000e+00   1.936107399061035e+00  -1.841459999999984e-02 -7.15084070e-01  -2.19345355e+00  -6.21000890e-01
C     7.502233908999999e+00   2.645246602393595e+00  -2.550600000000003e-02 -7.76744630e-01  -2.79559561e+00   6.99357920e-01
C     7.281556460199999e+00   3.077184591634754e+00   3.411730800000000e+00  1.80694431e+00   2.25017474e+00   1.02525235e+00
C     8.575050173699999e+00   3.870568733071841e+00   3.386083500000000e+00 -1.91301518e+00  -2.43071637e+00   4.14813800e-01
C     8.720993308799999e+00   1.906977760269982e+00   1.672320000000000e-02 -8.30725830e-01  -1.27453770e+00   3.11171350e-01
C     9.921139000600000e+00   2.597741696170421e+00   7.923870000000001e-02  2.54042934e+00  -1.06124551e+00  -1.36571238e+00
C     9.782391299100000e+00   3.086267451692225e+00   3.320128500000000e+00 -6.41755790e-01   3.26410838e+00  -4.64701230e-01
C     1.097010323510000e+01   3.818498017945010e+00   3.286198800000000e+00  1.83672527e+00   1.17861491e+00   4.90020210e-01
C     2.569032514900000e+00   4.028662193241286e+00  -1.238370000000089e-02 -3.73555290e-01   3.74731570e-01  -7.44413230e-01
C     3.816956463600000e+00   4.781537098181043e+00  -8.717789999999681e-02 -2.51127851e+00  -1.45435132e+00  -4.45567000e-03
C     3.605307767500000e+00   5.236833977540766e+00   3.435232500000000e+00  1.24632108e+00  -1.84221988e+00  -8.18271810e-01
C     4.885775780099999e+00   5.909821913764569e+00   3.437304300000000e+00 -3.33807030e+00   1.67966715e+00   3.10548000e-01
C     4.990364596199999e+00   3.999815110307016e+00  -2.501700000000184e-02  7.26315820e-01   1.34498008e+00  -8.45037630e-01
C     6.214055277800000e+00   4.713894131202256e+00  -5.187689999999989e-02  1.79271135e+00   6.07333340e-01   5.68102680e-01
C     6.086857777499999e+00   5.278732511043191e+00   3.591266700000000e+00 -8.92249670e-01  -5.03016217e+00  -8.63808910e-01
C     7.276618177800000e+00   5.921403459068697e+00   3.563634000000000e+00  2.86638468e+00   1.97851495e+00   2.52950640e-01
C     7.459662816700000e+00   4.006861757925426e+00   2.689530000000000e-02  6.93721920e-01   1.51492988e+00  -1.20464627e+00
C     8.739388174099998e+00   4.632142071817260e+00  -9.195419999999999e-02 -2.05488505e+00   5.16184096e+00   6.73825850e-01
C     8.554599449099999e+00   5.278922930976895e+00   3.536078100000000e+00  2.77145800e-01  -1.15008445e+00  -7.23269430e-01
C     9.805391918300000e+00   5.991081016074554e+00   3.503064600000000e+00 -1.57571288e+00   3.00645460e-01  -3.47698700e-02
C     9.951986651500000e+00   4.012345510455683e+00  -1.054986000000007e-01  2.15377970e-01  -1.98804943e+00   1.16939056e+00
C     1.114408466060000e+01   4.730495333817053e+00  -4.677810000000093e-02  2.88573174e+00  -1.28691541e+00  -2.48118400e-02
C     1.101092516340000e+01   5.286859343487322e+00   3.381487500000000e+00 -4.68118330e-01  -2.40806623e+00   2.61818190e-01
C     1.223932828410000e+01   5.951909330178813e+00   3.455196300000000e+00  8.11275340e-01  -2.07180590e-01  -4.54660540e-01
C     3.776125316200000e+00   6.224461992355007e+00  -1.834416000000019e-01  5.65679550e-01  -3.90904213e+00   7.58393040e-01
C     4.967126646800000e+00   6.870537187688575e+00  -7.129199999999969e-02  3.59617769e+00  -3.16557940e-01  -9.53785900e-02
C     4.826881309900000e+00   7.325678315497142e+00   3.369303900000000e+00 -1.24347600e-01   7.91161150e-01   9.03439780e-01
C     6.058574071700000e+00   7.992117513803623e+00   3.518688600000000e+00 -8.32321970e-01   4.40937418e+00  -1.01498434e+00
C     6.303990112599999e+00   6.149430219607876e+00  -6.730560000000096e-02 -5.94676225e+00  -1.69043271e+00  -1.12308240e-01
C     7.450435237100001e+00   6.821080178279567e+00  -7.893089999999958e-02  4.76979197e+00   2.20275017e+00   9.72336530e-01
C     7.275650320200000e+00   7.349497116720158e+00   3.539849400000000e+00  1.89557424e+00  -5.00908010e-01   2.74210360e-01
C     8.521694459899999e+00   8.086682785364383e+00   3.536354400000000e+00 -3.33319680e-01   1.35168734e+00  -1.62213080e-01
C     8.741891923899999e+00   6.127924977884310e+00  -4.333379999999920e-02  2.70583800e-02  -2.75308630e-01  -8.77220740e-01
C     9.999578554399999e+00   6.903072354639261e+00  -1.012190999999980e-01 -1.70555115e+00  -3.12501931e+00   3.71008340e-01
C     9.788561095500000e+00   7.421928675386025e+00   3.555658200000000e+00 -1.33328702e+00  -1.68814098e+00   5.80354700e-02
C     1.104192618660000e+01   8.030987174898689e+00   3.570715200000000e+00 -1.95506682e+00   3.57826230e+00  -3.68608660e-01
C     1.122424572110000e+01   6.102812431183468e+00  -3.062340000000319e-02 -1.44584846e+00   3.47249697e+00  -1.16221707e+00
C     1.243240793800000e+01   6.861881875885837e+00  -1.400775000000003e-01 -1.78283982e+00   1.28330511e+00   1.34751938e+00
C     1.221627782260000e+01   7.360000270390768e+00   3.470850000000000e+00  2.56273174e+00   8.08924200e-02   1.82428570e-01
C     1.344624833820000e+01   8.111859460033930e+00   3.389251200000000e+00  1.59561032e+00  -2.39646862e+00  -1.03416980e-01
