64
Lattice="9.86 0 0 4.93 8.53901048131456 0 0 0 30 " PBC="1 1 1" Properties=species:S:1:pos:R:3:force:R:3 Energy="-513.45156563"
C     5.146197409899999e+00   6.599340520376604e+00  -1.924413000000023e-01  1.14775411e+00   7.87886460e-01  -4.01459130e-01
C     6.385703285000000e+00   7.327117565713546e+00  -1.930206000000005e-01 -9.36901900e-02   1.90544839e+00   3.20542270e-01
C     9.551710732400000e+00   1.883908769557214e+00   3.714072300000000e+00  2.42882112e+00  -1.01682983e+00   1.34204930e-01
C     1.084568517020000e+01   2.540295844726640e+00   3.642792300000000e+00 -1.40837144e+00   1.42133871e+00  -4.92732720e-01
C     7.649394507599999e+00   6.652248485480998e+00  -1.452855000000000e-01 -9.05409500e-01   9.20186970e-01  -4.72575980e-01
C     8.891206340900000e+00   7.359831795713998e+00  -2.239190999999998e-01 -9.95881110e-01  -5.49642750e-01   5.81776760e-01
C     2.207487612500000e+00   1.849666056680842e+00   3.497578200000000e+00 -4.73355370e-01  -3.98147010e-01   5.37622840e-01
C     3.392539567000000e+00   2.620825715541634e+00   3.432793200000000e+00  1.52465540e+00  -1.25369883e+00   1.04007556e+00
C     1.009730594440000e+01   6.669294741322013e+00  -2.692250999999999e-01  2.02266345e+00  -1.42415432e+00  -3.77983030e-01
C     1.139374691050000e+01   7.368214542302213e+00  -3.063603000000015e-01 -2.63151161e+00   3.84664400e-02  -6.79299140e-01
C     4.652850535099999e+00   1.965156344203052e+00   3.554274000000000e+00  6.59947900e-02  -2.03582673e+00  -3.61631290e-01
C     5.900147042700000e+00   2.623867567244924e+00   3.619687200000000e+00  9.78071970e-01  -1.70360807e+00   8.52527550e-01
C     1.259650052300000e+01   6.641301132485219e+00  -4.723073999999983e-01 -1.23959891e+00   1.42449150e-01   9.70609800e-01
C     1.380820129670000e+01   7.362708076004081e+00  -3.238802999999990e-01  7.48202920e-01  -6.67198230e-01   5.17113900e-02
C     7.142884976500000e+00   1.898584339918666e+00   3.758971200000000e+00 -6.81209330e-01   2.34851437e+00  -4.98862860e-01
C     8.349094716200000e+00   2.648811980829414e+00   3.853629300000000e+00  3.49430930e-01  -3.75636745e+00  -1.02071898e+00
C     1.439742262100000e+00   2.895249701864520e-01  -2.385887999999987e-01  1.86040725e+00  -2.65016028e+00  -7.26751150e-01
C     2.726462155600000e+00   9.494021951093680e-01  -2.571021000000009e-01 -1.69898493e+00  -1.16755146e+00   6.20789280e-01
C     1.085551420980000e+01   3.993746093998460e+00   3.602527200000000e+00  4.75111250e-01   2.83255680e-01   5.07390000e-04
C     1.210852227030000e+01   4.753363230833017e+00   3.520083600000000e+00 -1.91073674e+00  -2.00141751e+00   3.96365040e-01
C     3.934402374600000e+00   2.000500589431344e-01  -1.873235999999991e-01  6.74184740e-01   2.86313398e+00  -2.58527620e-01
C     5.164537847999999e+00   9.703852763420816e-01  -1.775912999999996e-01  4.29070080e-01  -1.97917673e+00  -6.98308600e-02
C     3.466752730400000e+00   4.005051060753143e+00   3.573561600000000e+00 -9.72266340e-01   1.63403533e+00  -3.51279990e-01
C     4.696753319000000e+00   4.678238980602387e+00   3.758125800000000e+00  6.64766460e-01   2.19270527e+00  -1.40428036e+00
C     6.395131071900000e+00   2.615870356979880e-01  -2.626379999999990e-01  1.69035128e+00  -5.91181200e-01   1.41079000e-02
C     7.664113269100000e+00   9.492197164554104e-01  -3.166443000000001e-01 -9.12108780e-01   1.44841159e+00   7.99465440e-01
C     5.945467694600000e+00   3.980749207707272e+00   3.723833700000000e+00 -7.27321600e-02   4.07025996e+00   7.33880390e-01
C     7.186309550399999e+00   4.785189916084177e+00   3.835647600000000e+00 -2.07331437e+00  -7.54274060e-01  -1.43099261e+00
C     8.906917955100001e+00   2.566429486300680e-01  -2.814477000000011e-01 -1.32572450e+00   4.69598700e-02  -9.64305120e-01
C     1.010912571800000e+01   1.011700253868304e+00  -3.734324999999998e-01  2.95054960e-01  -1.22641485e+00   1.20929668e+00
C     8.351039256099998e+00   3.999733221196513e+00   3.786002400000000e+00  1.98916006e+00   4.13596860e+00   3.39796620e-01
C     9.623926703500000e+00   4.726363221255676e+00   3.692043900000000e+00  2.42228140e-01  -2.02434057e+00   4.02607000e-03
C     2.713116596300000e+00   2.349698384994761e+00  -2.582862000000006e-01  7.19830370e-01   3.59126590e-01  -3.27020320e-01
C     3.948689268100000e+00   3.013106063800633e+00  -1.637525999999987e-01  6.21468200e-02   2.94501353e+00  -7.53449020e-01
C     1.203287989990000e+01   6.147643260884726e+00   3.522078600000000e+00  1.74808861e+00   7.17582290e-01   5.66022150e-01
C     1.327271194380000e+01   6.847088894130285e+00   3.526294800000000e+00  1.33428109e+00   1.20421694e+00   1.62347380e-01
C     5.201738395500000e+00   2.360445925145308e+00  -1.335255000000011e-01 -7.22843490e-01   6.90004730e-01   2.95162720e-01
C     6.419680746399999e+00   3.108543766062134e+00  -9.939779999999843e-02  7.60898400e-02  -1.08008681e+00  -5.59980530e-01
C     4.705953438500000e+00   6.168649226665526e+00   3.655887900000000e+00 -2.13900676e+00  -1.52693700e+00   1.60866410e-01
C     5.893792864300000e+00   6.914140363853122e+00   3.688993800000000e+00  1.89506861e+00  -2.03695723e+00  -3.44747290e-01
C     7.642264149999999e+00   2.419228046339104e+00  -2.109257999999983e-01  9.45613630e-01  -1.99066056e+00   9.75499600e-02
C     8.869762714299998e+00   3.123710500306396e+00  -1.991960999999982e-01  1.25581102e+00  -7.35225860e-01  -6.43293590e-01
C     7.178670318200000e+00   6.242282394886137e+00   3.687098100000000e+00 -5.18379850e-01  -3.14491023e+00   1.57662332e+00
C     8.454402819300000e+00   6.843810853397118e+00   3.785917200000000e+00 -2.18958074e+00   2.10779633e+00  -9.64648620e-01
C     1.016999558990000e+01   2.411332108738353e+00  -3.494634000000012e-01 -3.58769087e+00   4.32899760e-01   3.23593480e-01
C     1.136900467020000e+01   3.094171415962828e+00  -3.781353000000003e-01  1.28780870e-01  -1.74117960e-01   2.98012850e-01
C     9.654184184099998e+00   6.118887630752696e+00   3.711180900000000e+00 -2.81487260e-01   1.39703846e+00   3.66199260e-01
C     1.084694744740000e+01   6.878061251382921e+00   3.684946200000000e+00  9.34131200e-02   1.36408627e+00  -5.89148310e-01
C     3.939668945700000e+00   4.470370859834079e+00  -2.852813999999988e-01 -1.59484179e+00  -4.50225430e-01   8.42047000e-03
C     5.171600812499999e+00   5.165711193011169e+00  -1.520384999999997e-01 -8.34107980e-01   1.08166773e+00  -5.62603110e-01
C     1.328152234680000e+01   8.304291013826807e+00   3.519203400000000e+00  1.64545506e+00  -1.30262046e+00   8.19355660e-01
C     9.640872691099998e+00   4.032845710645752e-01   3.615042900000000e+00 -3.31331062e+00   3.45390845e+00  -3.25150000e-04
C     6.428808986500000e+00   4.502055029000329e+00  -1.189785000000008e-01 -7.97820820e-01   1.07132923e+00   4.22244950e-01
C     7.634067877100000e+00   5.265216965255447e+00  -1.344659999999998e-01  3.68637100e-02  -1.79084588e+00   4.02164960e-01
C     5.931691844900000e+00   8.291674028111874e+00   3.640986300000000e+00 -1.38914127e+00  -3.62314910e-01  -3.65669800e-02
C     2.206474251000000e+00   4.054527112155520e-01   3.635624100000000e+00  1.78352893e+00   2.50113204e+00  -5.08690540e-01
C     8.855582210199998e+00   4.533656967495656e+00  -1.519325999999985e-01 -2.90772070e-01  -1.01177570e-01  -5.80419700e-01
C     1.005582901630000e+01   5.216801458954685e+00  -3.274110000000015e-01  1.74717397e+00   1.22004114e+00   3.31635390e-01
C     8.368529269200000e+00   8.282555304210387e+00   3.700011900000000e+00  2.89292156e+00   1.64148850e-01  -5.78331000e-03
C     4.702886879899999e+00   5.321247475712169e-01   3.646013700000000e+00 -1.58349515e+00  -8.25064390e-01   2.73328200e-01
C     1.130700148990000e+01   4.500920023727327e+00  -4.373870999999987e-01 -1.07372955e+00   5.55692470e-01   2.01059700e-01
C     1.248337339060000e+01   5.208917646748816e+00  -4.976433000000000e-01  4.81703993e+00   1.84694120e-01   1.04555802e+00
C     1.087306786920000e+01   8.375136963636644e+00   3.703356300000000e+00 -1.39750603e+00  -2.21757650e+00  -6.18333760e-01
C     7.159851965900000e+00   5.418973035051576e-01   3.630769500000000e+00  2.52420840e-01  -2.69521955e+00   6.47104700e-02
