76
Lattice="10.7446858958278 0 0 5.37234294791388 9.3051709414712 0 0 0 30 " PBC="1 1 1" Properties=species:S:1:pos:R:3:force:R:3 Energy="-605.14636661"
C     2.408898945773255e-01   5.552442025752700e-02   2.805675000000000e-01  8.09274480e-01   2.80210086e+00  -2.23258420e-01
C     1.271987173133283e+01   8.688495673809619e+00   1.639215000000000e-01 -3.43612915e+00  -7.09692830e-01  -4.23955220e-01
C     1.408195659850522e+01   8.446418767202529e+00   1.544136000000000e-01  1.78776358e+00   1.13230940e+00   1.59775558e+00
C     1.464926553795647e+01   7.110944262910395e+00   6.436320000000001e-02  2.30783398e+00   1.18398453e+00  -7.11531060e-01
C     8.395164344894184e+00   9.004104367477325e+00  -1.258770000000098e-02 -3.55232830e-01   1.24185356e+00  -2.09903910e-01
C     9.779116313299387e+00   8.818372597204670e+00   1.536771000000000e-01  1.89878853e+00   1.78972320e+00  -1.14112119e+00
C     1.040416649637265e+01   7.541903577618717e+00   5.476200000000000e-03 -6.96228800e-02   2.22441483e+00   8.38766410e-01
C     1.183390001341829e+01   7.467429548948718e+00   1.598820000000000e-02  6.57906110e-01   2.02964943e+00  -1.01587848e+00
C     1.245094363262288e+01   6.263475633446475e+00  -3.525101999999976e-01 -1.63921218e+00  -2.92976261e+00   1.93502989e+00
C     1.383171474421425e+01   6.052628090186246e+00  -2.393798999999994e-01 -8.66372820e-01  -2.08710147e+00   1.93807560e-01
C     6.140593417916380e+00   8.041014801756983e+00   1.462350000000000e-01  1.50407648e+00   1.29123606e+00  -2.69919190e-01
C     7.536615053163340e+00   7.880663908791981e+00   1.133880000000000e-02  1.10013287e+00  -1.74501347e+00  -1.07852664e+00
C     8.132867920045149e+00   6.522588074803681e+00  -2.514216000000005e-01 -4.01396660e-01   3.18442345e+00   1.02404050e+00
C     9.547699954556661e+00   6.448674403527689e+00  -1.741251000000013e-01  1.07228950e-01   5.38629300e-01  -6.54371430e-01
C     1.019209884565807e+01   5.254268989185528e+00  -3.151524000000023e-01 -1.28745966e+00  -5.85485519e+00   1.18002136e+00
C     1.159458045468525e+01   5.015646999496749e+00  -2.692212000000005e-01 -5.83720900e-02   2.68203747e+00  -1.85675509e+00
C     1.212579579153779e+01   3.709681890754929e+00  -3.681324000000004e-01 -6.25100040e-01  -6.80695430e-01   1.62861623e+00
C     5.380569188971899e+00   6.907358102844903e+00   1.501860000000000e-02 -2.65945147e+00  -1.17766886e+00  -7.30996050e-01
C     5.943596156198279e+00   5.600506862674466e+00  -3.189078000000016e-01 -4.31832907e+00   3.19395960e-01   2.05445476e+00
C     7.310152370684521e+00   5.385106857583552e+00  -3.727385999999981e-01  4.07788470e-01   1.29625304e+00   8.43460800e-01
C     7.859735855529968e+00   4.121850994628980e+00  -1.407030000000020e-01 -5.11597820e-01   2.52409950e-01  -6.03595390e-01
C     9.265059971212001e+00   4.002401817996132e+00  -1.376801999999984e-01  9.34814070e-01   1.84157624e+00  -1.27301130e-01
C     9.811963892564275e+00   2.737861748400131e+00   1.122501000000000e-01  3.04079483e+00   1.04716219e+00  -5.12534360e-01
C     1.125418380909431e+01   2.608641677021736e+00  -2.245709999999690e-02  5.40786090e-01  -1.45687743e+00  -6.47588510e-01
C     3.574645898877794e+00   4.667757179010833e+00  -2.199905999999991e-01  2.07412030e-01   1.55158133e+00  -8.62055390e-01
C     4.931776176487973e+00   4.496877112920382e+00  -1.640394000000001e-01  4.89989226e+00  -5.34269590e-01  -1.19506500e+00
C     5.542593465107231e+00   3.158382894554800e+00  -1.404209999999999e-01 -1.61903685e+00   1.34889812e+00  -4.11746810e-01
C     6.923861410974611e+00   3.042791269586838e+00   1.563060000000000e-02  2.69992617e+00   5.05485510e-01  -2.14218080e-01
C     7.553871394782745e+00   1.795887662680257e+00   1.977837000000000e-01  2.27970400e+00   1.53719497e+00   7.47396100e-02
C     9.054739406424758e+00   1.610252666185376e+00   3.094632000000000e-01 -3.43640877e+00  -4.29880100e-01  -1.04333690e-01
C     9.605178812948997e+00   3.229797848278274e-01   4.092072000000000e-01 -8.93546180e-01  -2.48993016e+00  -1.54840196e+00
C     2.799489284099190e+00   3.511372413974383e+00  -3.664094999999996e-01 -2.10787665e+00   6.36602400e-02   2.97996420e-01
C     3.320862918454763e+00   2.191742847810592e+00  -3.004758000000010e-01 -1.07514371e+00   5.17686490e-01  -8.02944240e-01
C     4.678137228579431e+00   2.019822556660758e+00  -2.489691000000001e-01  2.43077476e+00  -9.08972770e-01   2.33905460e+00
C     5.222375232189628e+00   7.329721300638854e-01   1.299294000000000e-01  1.58783320e+00   8.50346040e-01  -1.46853492e+00
C     6.703227989213691e+00   7.760413929148037e-01   1.633914000000000e-01 -1.69738665e+00  -7.84879780e+00   8.46435590e-01
C     1.100682829977666e+00   1.276525222818430e+00   4.661010000000000e-02 -1.02432217e+00  -1.42373764e+00  -2.74503130e-01
C     2.491168480708369e+00   1.055708212464794e+00  -2.342607000000001e-01 -1.04877157e+00  -9.15684580e-01   1.96074168e+00
C     1.588848572771379e+01   9.236859074681597e+00   3.898165800000000e+00 -1.11123812e+00  -4.46748070e-01   8.46516500e-02
C     1.164293202474612e+01   8.720038063106903e+00   3.673007700000000e+00 -1.93425400e-01  -4.46355930e-01  -1.11990824e+00
C     1.303250432345189e+01   8.876483854983515e+00   3.899916300000000e+00  1.26142161e+00   7.13310270e-01  -1.30632353e+00
C     1.391220383097230e+01   7.718344320811203e+00   3.656776200000000e+00  1.12546260e+00   1.59894185e+00   1.04105976e+00
C     7.421653736908886e+00   8.226657242388617e+00   3.520481400000000e+00 -6.99206100e-01   2.97888210e-01   1.40590678e+00
C     8.838701540546698e+00   8.384626569903237e+00   3.543076500000000e+00  6.03976360e-01  -8.93922280e-01  -1.17158172e+00
C     9.682146436350187e+00   7.161203631346650e+00   3.308178900000000e+00  1.43326160e-01   4.91696882e+00   9.19425220e-01
C     1.111375097927503e+01   7.435415852743323e+00   3.286235700000000e+00 -4.52972280e-01  -5.95413400e-02   2.12328199e+00
C     1.201919357229639e+01   6.371519834265003e+00   3.341259300000000e+00 -2.87408856e+00  -4.14880446e+00   5.39034500e-02
C     1.339819992295211e+01   6.421214006618364e+00   3.449761500000000e+00 -2.61834110e-01   8.29118800e-01  -9.80288350e-01
C     4.593465719111373e+00   7.913892488115303e+00   3.707945700000000e+00 -8.62896500e-02   3.11164510e-01  -3.83430170e-01
C     5.476971531611859e+00   6.812698925165019e+00   3.397461900000000e+00 -3.39827234e+00  -7.56803380e-01  -3.92514690e-01
C     6.839323296782003e+00   6.937009774458889e+00   3.351545100000000e+00  2.42211159e+00  -7.34237200e-02  -1.21706720e-01
C     7.703503878393037e+00   5.776809610181911e+00   3.187095600000000e+00 -2.94996565e+00   4.79782000e-01   3.51324070e-01
C     9.055040311353387e+00   5.945041889881385e+00   3.286720200000000e+00  3.27979102e+00  -3.22503064e+00  -1.13968818e+00
C     9.971030908799349e+00   4.750874687915288e+00   3.241546800000000e+00 -6.77617120e-01   1.20271055e+00   1.16404749e+00
C     1.139458413623874e+01   4.998663201497061e+00   3.374174100000000e+00 -2.19190160e-01  -5.73320450e-01  -1.64008431e+00
C     1.222041919025672e+01   3.798772202782352e+00   3.269520300000000e+00 -1.40668537e+00   1.00219850e-01   1.09207840e+00
C     3.441273079822825e+00   5.270987217606589e+00   3.147450000000000e+00  6.00582420e-01   1.18108524e+00   1.12982335e+00
C     4.852989155423337e+00   5.526495766258732e+00   3.105818700000000e+00 -1.38514270e-01  -1.60591216e+00   1.32436218e+00
C     5.643694351444402e+00   4.334323965149009e+00   3.195101700000000e+00  2.12930077e+00   5.51935170e-01  -1.12127763e+00
C     7.084496452946503e+00   4.488795758062411e+00   3.159026400000000e+00  2.99681050e-01  -6.49076160e-01   9.91944340e-01
C     7.902163772807303e+00   3.331898464210587e+00   3.376050900000000e+00  2.19940683e+00  -3.86636610e-01   1.33264126e+00
C     9.390077185276834e+00   3.425195178761436e+00   3.395818200000000e+00 -8.73969320e-01   2.56488964e+00  -1.41681070e-01
C     1.028186032773067e+01   2.352829872848658e+00   3.665119800000000e+00 -1.93682189e+00  -4.10863750e-01  -1.71764250e-01
C     1.164365933253469e+01   2.444894117508505e+00   3.469057800000000e+00  3.09948430e+00   1.79465359e+00   2.60284180e-01
C     2.849677604491231e+00   3.977135115135912e+00   3.182579100000000e+00  2.52447393e+00  -2.41604227e+00  -1.85555985e+00
C     3.728896878275342e+00   2.698150535638041e+00   3.004957800000000e+00  8.84301750e-01   6.06666336e+00   2.29466521e+00
C     5.185530253705933e+00   2.997708460796213e+00   3.208884900000000e+00 -2.75560450e+00  -1.99088416e+00  -2.74865780e-01
C     5.992503172796745e+00   1.840827357941824e+00   3.539769600000000e+00 -7.12733180e-01   1.56295655e+00  -1.55163000e-03
C     7.354527923451521e+00   2.059167983153198e+00   3.814831500000000e+00  5.41593970e-01   8.65784120e-01  -2.41586942e+00
C     8.220999594437012e+00   9.674484799954753e-01   3.919346400000000e+00  1.62520970e+00  -2.81638163e+00   1.01354153e+00
C     9.690257975800103e+00   1.114460596521407e+00   3.955718100000000e+00 -1.72215490e+00  -1.87086378e+00  -6.67923470e-01
C     1.815157111986277e+00   1.314945250060887e+00   3.616603500000000e+00 -3.47168935e+00   1.45416076e+00  -1.79425350e-01
C     3.175854302974678e+00   1.512775696641441e+00   3.383149200000000e+00  5.75562620e-01  -1.98843992e+00   9.04820100e-02
C     4.059045940859449e+00   4.069049825698755e-01   3.540058500000000e+00 -2.30856290e+00  -2.18555039e+00  -4.83916660e-01
C     5.417468750459967e+00   5.412709065298001e-01   3.557825400000000e+00  1.62706859e+00   9.34682800e-01   7.13843640e-01
C     1.155397349305082e+00   5.775403226646040e-02   3.824281800000000e+00  3.26598752e+00  -4.80787420e-01  -1.55998411e+00
