52
Lattice="8.88768389401873 1.33226762955019e-15 0 4.44384194700937 7.69696003302603 0 0 0 30 " PBC="1 1 1" Properties=species:S:1:pos:R:3:force:R:3 Energy="-418.7023192"
C     1.314558624966780e+01   7.447337764118261e+00  -2.171723999999990e-01 -9.20398200e-02  -9.35553870e-01   4.19194310e-01
C     9.356951293309098e+00   7.258094609070259e+00  -1.591416000000017e-01  3.69722940e-01   5.28033450e-01  -6.54464250e-01
C     1.071931262751851e+01   6.862165140275867e+00  -5.341200000000157e-03  6.68501610e-01  -2.31315900e-02  -3.64923850e-01
C     1.106735401668632e+01   5.483400300415535e+00  -3.728669999999923e-02  8.88150350e-01  -5.92895090e-01  -3.81317670e-01
C     6.981508468347812e+00   6.637447158267197e+00  -3.795929999999998e-01  5.45152000e-03   1.28126882e+00  -3.41578930e-01
C     8.350660393018709e+00   6.278073862348088e+00  -2.517870000000002e-01 -4.19625610e-01  -1.40997073e+00   7.22672420e-01
C     8.667228671541491e+00   4.875696981234124e+00  -9.599640000000065e-02  9.84702560e-01   1.72669600e-01  -1.13600689e+00
C     1.006568448979922e+01   4.461181201237690e+00  -1.600427999999994e-01 -1.12367748e+00   2.41547414e+00   7.01849060e-01
C     1.039813923669600e+01   3.137532983668982e+00  -3.253440000000012e-01 -4.40672800e-02  -2.90582931e+00   6.31357200e-02
C     4.604847230815145e+00   6.036964511229130e+00  -1.849926000000011e-01 -3.01339950e-01   1.93039934e+00  -5.03812200e-02
C     5.959686340458404e+00   5.655513563038371e+00  -2.695779000000016e-01  2.25280640e-01   9.11714640e-01  -9.24493700e-02
C     6.306974498442389e+00   4.316547702283560e+00  -2.002389000000022e-01 -5.57012160e-01  -2.06317600e+00   6.47246800e-01
C     7.644718903546417e+00   3.888996658658719e+00  -1.579248000000000e-01  1.14287999e+00   4.49424750e-01   3.00571350e-01
C     8.012153707782867e+00   2.507226232876272e+00  -1.358753999999998e-01 -3.02902290e-01  -1.91219000e-03  -6.05468200e-01
C     9.358051718540068e+00   2.101331740839840e+00  -3.269918999999994e-01  1.00652674e+00   1.26090388e+00   5.03264700e-01
C     3.585944662663783e+00   5.083665069734310e+00  -9.757259999999945e-02 -1.56469391e+00  -1.88519410e-01  -4.24586500e-01
C     3.929305841941103e+00   3.716546731004171e+00  -2.446574999999989e-01 -1.48968025e+00  -1.03881121e+00   6.89898880e-01
C     5.274901449253185e+00   3.309477759836762e+00  -1.410080999999970e-01  1.53728110e-01   6.56701950e-01  -1.05411842e+00
C     5.586283097672396e+00   1.941793155757216e+00  -1.850966999999990e-01  1.45682827e+00  -1.21747068e+00   9.42090500e-02
C     6.992952380122281e+00   1.530432975433881e+00  -1.093362000000013e-01 -1.27434152e+00  -3.01017800e-01   7.62374600e-02
C     7.337951470650469e+00   1.429649519588263e-01  -5.244959999999921e-02 -4.72242370e-01   1.53977880e-01  -4.86908780e-01
C     2.874005097530875e+00   2.701741035848821e+00  -3.561341999999996e-01  6.78750980e-01   2.04730103e+00   3.66160000e-02
C     3.232064995068989e+00   1.354627711993455e+00  -4.432475999999994e-01 -1.34555526e+00  -1.64650064e+00  -5.50695930e-01
C     4.569235389116894e+00   9.392568767072876e-01  -3.464613000000014e-01  1.19903792e+00   3.21924200e-01   1.14665563e+00
C     8.360933089786842e-01   7.292741858888502e-01  -3.818343000000013e-01 -3.48234900e-01   2.45793500e-02  -3.00873540e-01
C     2.193698443591334e+00   3.311117520201553e-01  -5.510565000000014e-01  5.50335120e-01   1.44344060e-01   1.52296389e+00
C     1.944846984639151e-01   2.761816270700573e-01   3.571487400000000e+00  2.60716430e-01  -1.94416240e+00  -1.13082282e+00
C     7.026031543444856e+00   7.342475227335144e+00   3.760847700000000e+00 -2.64956000e-03   4.40425960e-01  -7.27711860e-01
C     3.945197462731923e+00   3.941043656320779e-02   3.778080600000000e+00  1.04067857e+00   2.75208050e-01  -2.01564290e-01
C     9.429963305061422e+00   6.742259664810119e+00   3.821961300000000e+00 -1.81636130e-01   1.16246945e+00  -1.13731315e+00
C     1.079753579992217e+01   7.143256581179462e+00   3.582296400000000e+00 -9.03705650e-01   4.07485220e-01   4.37033340e-01
C     1.181577183497707e+01   6.182890791589899e+00   3.494448900000000e+00  7.73378540e-01  -7.11995310e-01   2.67711600e-02
C     4.305953399851799e+00   6.561900341028743e+00   3.405496500000000e+00  9.96292200e-02   1.05105363e+00   1.00488279e+00
C     5.349952741894340e+00   5.595751594459840e+00   3.470076300000000e+00 -8.55606040e-01  -7.65393460e-01   3.86115600e-02
C     6.695904701396143e+00   5.964770412810144e+00   3.681454500000000e+00  3.10896130e-01   1.54852120e-01  -4.20255260e-01
C     7.730691114746122e+00   4.982295105534406e+00   3.710166300000000e+00 -1.51217790e+00  -2.69139850e-01   3.31320170e-01
C     9.063655990619033e+00   5.377408388687217e+00   3.804817200000000e+00  1.39706413e+00  -1.47520900e-01   4.49878300e-01
C     1.010758192039146e+01   4.409444545004039e+00   3.835033500000000e+00  5.79984500e-01  -5.19474690e-01  -1.51701491e+00
C     1.148316946189627e+01   4.805523796640615e+00   3.607504500000000e+00 -5.58488760e-01  -6.07479170e-01   4.82084320e-01
C     3.620031462545285e+00   3.811269908400568e+00   3.535127700000000e+00  7.65081300e-02  -3.13729960e-01  -1.99001770e-01
C     5.000028095147343e+00   4.201583367278671e+00   3.432771000000000e+00 -3.35159400e-01  -1.74890700e-02   4.37784380e-01
C     6.020599635752642e+00   3.207021985485426e+00   3.499363500000000e+00 -8.43431440e-01  -1.85394770e-01   1.18012860e-01
C     7.366460452070664e+00   3.598377458812389e+00   3.650854500000000e+00  7.35971590e-01   2.46602860e-01  -3.81232750e-01
C     8.396415431587148e+00   2.625058455188340e+00   3.679932000000000e+00 -5.23323800e-02  -8.28767400e-01  -4.74462540e-01
C     9.767413106497321e+00   3.016016765377755e+00   3.727225500000000e+00 -6.03706900e-02   4.29925370e-01   9.81747720e-01
C     1.905501385339993e+00   2.035522501674539e+00   3.772414500000000e+00  2.69892370e-01  -8.17096230e-01  -1.63380659e+00
C     3.275565275731576e+00   2.410028636769430e+00   3.617240100000000e+00  1.57782850e-01   8.43276220e-01   5.14284260e-01
C     4.313963954885113e+00   1.430210551004850e+00   3.610905000000000e+00 -1.47093610e+00  -6.92975960e-01   2.79428200e-01
C     5.652588285659584e+00   1.813785398346287e+00   3.516924900000000e+00  1.27566518e+00   4.71871350e-01  -3.22406000e-02
C     6.685970933775608e+00   8.283098930204559e-01   3.495894600000000e+00 -1.08892290e-01   1.11612090e-01   4.18017190e-01
C     8.055208847277727e+00   1.222605297200478e+00   3.537842400000000e+00 -2.62596400e-01   1.44517288e+00   4.04059080e-01
C     1.562736967801468e+00   6.378928745982785e-01   3.615995700000000e+00  1.93807290e-01   7.95780870e-01   1.48033682e+00
