64
Lattice="9.86 0 0 4.93 8.53901048131456 0 0 0 30 " PBC="1 1 1" Properties=species:S:1:pos:R:3:force:R:3 Energy="-514.51124226"
C     9.824843578399999e+00   1.282320281802560e-02  -2.271641999999972e-01  3.03407922e+00  -2.73084384e+00   2.97398440e-01
C     1.236019280500000e+00   6.838200979682072e-01  -2.554553999999989e-01 -9.93970500e-02  -8.55981760e-01   7.99158570e-01
C     1.211442688200000e+00   7.396127115929552e-01   3.612941100000000e+00  1.20688200e-01   2.55946070e-01  -7.68008390e-01
C     2.452110219200000e+00   1.465423991327296e+00   3.597261900000000e+00  4.70692680e-01  -1.58990700e-01  -1.31596130e-01
C     7.405450613999999e+00   8.454181388188536e+00  -2.326152000000015e-01  8.03106400e-02   4.27118441e+00   5.71448920e-01
C     3.737850028700000e+00   7.198605287209335e-01  -8.420220000000000e-02 -1.26526252e+00  -4.52251842e+00  -1.36033038e+00
C     3.730798748300000e+00   7.509683146797832e-01   3.495392700000000e+00 -4.15707090e+00  -1.05366652e+00   4.93448200e-02
C     4.896623111199999e+00   1.447917653601619e+00   3.513348300000000e+00  1.86914210e+00   8.66865450e-01   1.11174660e-01
C     9.890359630199999e+00   8.522183505948112e+00  -1.548419999999986e-01 -2.69504740e-01  -4.15358610e-01   4.07517180e-01
C     6.181475471400000e+00   6.639309493680864e-01  -1.922421000000014e-01  5.00060750e-01   2.09525341e+00   6.50671510e-01
C     6.125556798500000e+00   7.712580282615208e-01   3.514616100000000e+00  2.36704516e+00  -1.90613985e+00  -3.47826670e-01
C     7.425603468000000e+00   1.427294406270533e+00   3.500781600000000e+00 -3.55196457e+00   2.07468829e+00  -1.99409800e-01
C     1.236578840430000e+01   8.536061361950523e+00  -7.707479999999833e-02 -1.42380425e+00   4.05487870e-01  -6.91854490e-01
C     8.647009193200001e+00   7.145332962527760e-01  -1.508606999999991e-01 -1.02377489e+00  -1.45907382e+00  -3.91813030e-01
C     8.624114421100000e+00   7.708491804397384e-01   3.496259400000000e+00 -1.39950380e-01  -3.05351953e+00  -3.97637820e-01
C     9.814092480899998e+00   1.444930110004982e+00   3.522882900000000e+00  3.06083805e+00   1.59864682e+00   7.42400500e-01
C     1.218658679900000e+00   2.088001281451686e+00  -8.862600000000143e-02  7.87933240e-01   3.99924490e-01  -8.55993080e-01
C     2.489628603800000e+00   2.761777112172479e+00  -7.474619999999987e-02 -1.60190788e+00   2.54730250e+00   7.86579500e-01
C     2.458943741500000e+00   2.894754524646785e+00   3.630745200000000e+00  2.11750650e-01  -6.74712740e-01  -1.54091720e-01
C     3.737223820100000e+00   3.565345048288223e+00   3.583394100000000e+00 -3.64156272e+00   2.38874967e+00   4.34825660e-01
C     3.716761214199999e+00   2.073395389415750e+00  -8.961509999999961e-02 -1.30221980e-01   2.52312837e+00   1.56928970e-01
C     4.941345261099999e+00   2.823946488043481e+00  -1.133261999999995e-01  7.08938140e-01  -1.78288257e+00  -3.84092960e-01
C     4.888042692700000e+00   2.856941736878829e+00   3.562470300000000e+00  2.82441289e+00   6.13286680e-01  -2.90333640e-01
C     6.142057360600000e+00   3.598223739630520e+00   3.530332200000000e+00  3.88868510e-01  -1.46602518e+00  -1.75701730e-01
C     6.173422661500000e+00   2.132989741286404e+00  -2.125997999999996e-01 -2.06333650e-01  -2.29778375e+00   5.30008360e-01
C     7.409773533799999e+00   2.805782902681158e+00  -1.806987000000007e-01 -8.61751870e-01  -4.33515740e-01  -5.57797600e-01
C     7.380252792399999e+00   2.867804468280752e+00   3.461784300000000e+00  3.52296690e-01  -1.55574610e-01   6.69481780e-01
C     8.609673760899998e+00   3.582146576088880e+00   3.509401500000000e+00 -1.21166980e-01   1.22412742e+00  -7.56731900e-02
C     8.624725198800000e+00   2.079499074106854e+00  -2.291282999999993e-01 -2.14944030e-01   2.22793174e+00   7.81164960e-01
C     9.813095043299999e+00   2.808612303803706e+00  -1.289336999999975e-01  2.46452322e+00  -1.25588088e+00  -4.55744900e-02
C     9.867543787399999e+00   2.884801539421402e+00   3.572827800000000e+00 -1.37119924e+00  -1.90436000e-01  -2.98709700e-01
C     1.107726506750000e+01   3.602422114913221e+00   3.632020200000000e+00  1.11064492e+00   4.70236740e-01  -1.94145980e-01
C     2.473194991100000e+00   4.267275789753777e+00   3.184410000000000e-02  7.91631580e-01  -3.24486777e+00  -3.70669280e-01
C     3.703641941900000e+00   4.928299206053423e+00   1.227750000000000e-02  1.33751966e+00   1.17770036e+00  -1.10482892e+00
C     3.692228844000000e+00   5.032286848728339e+00   3.602891400000000e+00  2.31840000e-02  -1.24094970e+00  -2.48556840e-01
C     4.898768302100000e+00   5.733404591006091e+00   3.508953000000000e+00  1.51440776e+00  -1.08497262e+00   3.86060080e-01
C     4.988298383900000e+00   4.191134457984875e+00  -1.170329999999993e-01 -2.78263964e+00   3.12684660e+00   5.23438360e-01
C     6.180830331599999e+00   4.947905371846236e+00  -1.880948999999994e-01  1.70075990e-01  -1.48208045e+00   4.91372280e-01
C     6.180173754200000e+00   4.996058559745053e+00   3.526062900000000e+00 -2.42635585e+00   1.30603267e+00  -3.09762880e-01
C     7.365942333500000e+00   5.755913764191791e+00   3.469912800000000e+00  2.98102380e-01  -1.14505508e+00  -1.13576650e-01
C     7.383899365500000e+00   4.198945432431350e+00  -1.835112000000017e-01  1.63392087e+00   1.44841328e+00  -2.85629500e-02
C     8.645222018900000e+00   4.890628848980274e+00  -1.519937999999996e-01 -9.10635040e-01   2.69147774e+00  -2.15432220e-01
C     8.564604785499998e+00   5.038932845975029e+00   3.501060600000000e+00  3.17634920e+00  -8.33295140e-01  -1.80320000e-04
C     9.872092303999999e+00   5.751887706140576e+00   3.533609100000000e+00 -1.72244338e+00  -1.00288899e+00  -1.46894710e-01
C     9.853720658999999e+00   4.193668921685443e+00  -9.078630000000132e-02  9.66406200e-01   1.61802684e+00   2.44337800e-01
C     1.111649894420000e+01   4.946816989570456e+00   8.517000000000000e-03 -1.68772380e+00  -7.54437850e-01  -1.05248240e-01
C     1.111712712480000e+01   5.043351356947904e+00   3.596121300000000e+00 -2.66337228e+00  -1.02056935e+00   3.34364910e-01
C     1.230316345240000e+01   5.750105785433610e+00   3.643036500000000e+00  2.03304506e+00  -1.89205905e+00  -4.46508480e-01
C     3.700950112599999e+00   6.383646908844004e+00  -1.313099999999991e-01  2.90053980e-01  -4.64508160e-01   1.33499646e+00
C     4.948260670700000e+00   7.073076795137153e+00  -1.580439000000027e-01 -5.29920700e-01   9.83826900e-01  -2.90915880e-01
C     4.919464491399999e+00   7.137760568034095e+00   3.488716800000000e+00  6.25167910e-01   9.14058300e-01   5.99149500e-02
C     6.161462481500000e+00   7.859157606300801e+00   3.540316800000000e+00 -8.50491460e-01   2.53583610e-01  -5.40658950e-01
C     6.192099621400000e+00   6.341983881250618e+00  -1.425350999999999e-01 -1.58627854e+00   1.56425224e+00  -8.67788890e-01
C     7.380808502000000e+00   7.086713167923189e+00  -2.399385000000009e-01  2.05302617e+00  -2.01548514e+00   3.73434200e-01
C     7.372111686199999e+00   7.159952431590358e+00   3.420597600000000e+00 -1.57597520e-01   4.03962330e-01   5.77111670e-01
C     8.587371771999999e+00   7.859158204031534e+00   3.409277700000000e+00  1.32250150e+00   7.96401750e-01   5.20533510e-01
C     8.650020486499999e+00   6.384798735967651e+00  -2.031248999999988e-01 -6.51392290e-01  -1.69827866e+00   5.09844310e-01
C     9.877523537100000e+00   7.089891814574369e+00  -1.113917999999998e-01 -6.53040490e-01  -4.90233700e-01  -5.77765700e-02
C     9.823653624299999e+00   7.164286235579272e+00   3.486041400000000e+00  1.24142849e+00  -1.77091220e-01  -2.18704560e-01
C     1.108184015680000e+01   7.866360859371414e+00   3.502313700000000e+00 -1.80435720e-01   2.28763910e-01   3.83832790e-01
C     1.107921537550000e+01   6.342531146432281e+00   1.121310000000000e-02  1.63416001e+00   2.69392873e+00  -6.04228860e-01
C     1.234327028420000e+01   7.157043873840661e+00  -4.111860000000078e-02 -4.65577720e-01  -3.95124414e+00   3.17520300e-02
C     1.233728329220000e+01   7.112900092922624e+00   3.569393700000000e+00 -6.87149320e-01   3.80171439e+00  -7.29111830e-01
C     1.357770501340000e+01   7.856700506035181e+00   3.452395800000000e+00 -1.35764382e+00   1.25988300e-02   9.97319280e-01
