52
Lattice="8.88768389401873 1.33226762955019e-15 0 4.44384194700937 7.69696003302603 0 0 0 30 " PBC="1 1 1" Properties=species:S:1:pos:R:3:force:R:3 Energy="-414.83468893"
C     1.281690503437198e+01   6.885151495648659e+00  -3.524205000000009e-01 -1.29327305e+00   4.46734724e+00   7.67780760e-01
C     8.975763597032969e+00   6.928903171607988e+00  -3.944150999999998e-01  9.32767830e-01  -7.32419739e+00  -4.21669190e-01
C     1.030701972621382e+01   6.419820693412567e+00  -5.853339000000020e-01  3.54765619e+00   1.71987552e+00   8.54819260e-01
C     1.077752651143724e+01   5.050957761722028e+00  -4.782326999999995e-01 -9.16533330e-01  -7.80338390e-01  -4.06076150e-01
C     6.587723724358948e+00   6.193716488902493e+00  -1.102148999999990e-01  2.39755057e+00  -8.60184800e-01  -6.96622280e-01
C     7.998561819433515e+00   5.871114803769907e+00  -3.240894000000019e-01 -1.87798128e+00   5.89183950e-01   6.68477250e-01
C     8.337441384110010e+00   4.505083891552808e+00  -3.687719999999999e-01  1.37530258e+00  -2.45924160e-01  -8.04908780e-01
C     9.723215499560848e+00   4.122112177999320e+00  -3.720210000000002e-01 -5.03815400e-01  -2.68821585e+00   3.05561480e-01
C     1.001055116364319e+01   2.654192680415495e+00  -2.006799000000008e-01  2.52426005e+00   3.99300745e+00  -5.17259840e-01
C     4.285584649686167e+00   5.538281395730242e+00  -2.822988000000031e-01 -4.00575340e-01  -9.13726340e-01  -9.88796620e-01
C     5.642419088784534e+00   5.131249677849377e+00  -2.218308000000029e-01  1.45343420e-01   3.10222924e+00   1.05888680e-01
C     6.023140669406148e+00   3.808825507834241e+00  -4.011494999999989e-01 -4.79144030e-01   1.16256494e+00  -1.27421460e-01
C     7.362736423564384e+00   3.475946379851997e+00  -5.059809000000008e-01  1.66442175e+00  -6.37470950e-01   1.51927769e+00
C     7.728625259629816e+00   2.099146881765724e+00  -4.124808000000009e-01 -1.13112397e+00  -9.25489300e-02   1.11468000e-03
C     9.084822362901113e+00   1.668532909866545e+00  -1.950639000000010e-01 -3.31112875e+00  -1.42613406e+00  -2.68619750e-01
C     3.287488505001893e+00   4.543790748999673e+00  -4.832181000000020e-01 -2.26863965e+00   2.24338149e+00   5.43638440e-01
C     3.587198891371013e+00   3.169698194786351e+00  -4.254978000000023e-01 -1.65996700e-02   2.28630117e+00   9.47581850e-01
C     5.001910328000208e+00   2.906403126076921e+00  -3.732851999999980e-01 -3.12249724e+00  -5.40975949e+00   4.96689880e-01
C     5.256443861649494e+00   1.449438095946992e+00  -2.611778999999999e-01  1.28288047e+00   3.35687497e+00  -1.32968506e+00
C     6.640533583318771e+00   1.173102375737134e+00  -4.393746000000007e-01  7.28020930e-01  -4.34122567e+00   1.92236070e-01
C     1.139537852189196e+01   7.388636513601465e+00  -5.491428000000020e-01  1.16523156e+00   1.98225110e-01   9.70463850e-01
C     2.483021218267145e+00   2.295014887281148e+00  -1.833456000000027e-01  1.79101130e+00  -2.56163003e+00  -5.55500400e-02
C     2.815269770840552e+00   8.834252068288757e-01  -4.503060000000048e-02  1.54043834e+00   8.47834470e-01  -6.15620200e-01
C     4.210623476365082e+00   4.894542295141177e-01  -2.191173000000006e-01 -1.24774268e+00   4.85628408e+00   6.21236700e-01
C     5.007757046336200e-01   2.794605320428373e-01  -6.847439999999949e-02 -2.02574309e+00  -1.66946913e+00  -1.24562307e+00
C     6.281045793768312e+00   7.571610956522634e+00  -2.099400000002305e-03 -4.77359470e-01   8.71218200e-02   4.79224600e-02
C     5.892151364615210e-01   7.267267999973214e-01   3.887077200000000e+00 -1.83663787e+00   1.17264117e+00  -2.08742557e+00
C     2.856630073808810e+00   1.419018478394827e-01   3.617779200000000e+00  3.78028673e+00  -1.33790606e+00  -8.62329100e-01
C     4.269134032346649e+00   4.863945339629921e-01   3.529785000000000e+00 -2.94488880e-01  -1.57251599e+00   9.53954720e-01
C     9.779529155352410e+00   7.124476691432664e+00   3.533279400000000e+00 -1.65770871e+00   3.02046800e+00  -1.77490080e-01
C     1.112945693142772e+01   7.589171493861478e+00   3.655973100000000e+00 -1.04454950e-01  -4.92684020e-01   4.30991970e-01
C     1.218436572771551e+01   6.659905040364330e+00   3.774789000000000e+00  1.94224570e-01   1.49068960e-01  -7.48805200e-01
C     4.680838617410817e+00   7.077952955318532e+00   3.866325600000000e+00  5.01946340e-01  -2.43601415e+00   4.65650930e-01
C     5.734589792807782e+00   6.049922189500434e+00   3.904175700000000e+00 -1.39701828e+00   4.71097160e-01  -1.03732908e+00
C     7.084752736937152e+00   6.419686843277645e+00   3.702014400000000e+00 -2.94244750e+00   1.46341200e+00   4.15470780e-01
C     8.009651293383653e+00   5.396440584783797e+00   3.617666400000000e+00  2.29956728e+00   1.90893010e-01  -3.52883400e-01
C     9.392875221755546e+00   5.780133888340097e+00   3.477303900000000e+00 -1.52882550e-01   2.16151700e-01   8.07481390e-01
C     1.042596986450295e+01   4.837512978282097e+00   3.591648300000000e+00  1.12249261e+00   7.68704170e-01  -9.95434760e-01
C     1.180384522921781e+01   5.328261682534060e+00   3.635272500000000e+00  1.70364126e+00  -3.87817183e+00   1.28095262e+00
C     4.011304902595395e+00   4.287642461617298e+00   3.799550400000000e+00 -2.34335039e+00   8.34424130e-01  -6.01255380e-01
C     5.377036047100884e+00   4.677974624108273e+00   3.857493600000000e+00 -1.47678335e+00  -1.26937824e+00   6.09963350e-01
C     6.305070978275265e+00   3.593058320644457e+00   3.901510200000000e+00  1.74816220e+00   8.64581900e-01  -5.78060650e-01
C     7.681233464080288e+00   4.034343203990028e+00   3.731924700000000e+00 -4.35338290e-01  -2.13018785e+00   1.90501970e-01
C     8.713015973556786e+00   2.999656261077188e+00   3.680129100000000e+00  9.99299470e-01   4.21225336e+00  -6.04046250e-01
C     1.010030903918624e+01   3.483970691592073e+00   3.552107100000000e+00  4.93276800e-01  -2.42277645e+00   2.03411222e+00
C     2.300210581780676e+00   2.497726413898445e+00   3.765381000000000e+00 -2.84433269e+00   2.06774300e+00  -2.23702883e+00
C     3.624354253639777e+00   2.893906033893812e+00   3.769338300000000e+00  1.39029357e+00   1.60724540e-01   2.78559640e-01
C     4.586248238630442e+00   1.821160779386234e+00   3.761729700000000e+00  1.96736998e+00   1.35368160e+00  -1.68007050e-01
C     5.979341717753820e+00   2.179818873779355e+00   3.887583600000000e+00 -6.33726420e-01   2.18772591e+00  -7.25781160e-01
C     7.022392255124548e+00   1.247330395844048e+00   3.787463400000000e+00 -3.07342300e-02   5.20588400e-01  -4.97700300e-02
C     8.394182089326666e+00   1.679589515980040e+00   3.757046100000000e+00 -9.50608200e-02  -2.11274228e+00   9.51820470e-01
C     1.906233774367971e+00   1.168878438011870e+00   3.610399800000000e+00  3.17891100e-02  -2.03128054e+00   2.27775812e+00
