64
Lattice="9.86 0 0 4.93 8.53901048131456 0 0 0 30 " PBC="1 1 1" Properties=species:S:1:pos:R:3:force:R:3 Energy="-511.93571352"
C     5.066178579900000e+00   7.838533675848876e+00   3.064386000000000e-01 -5.13927570e-01  -2.06018922e+00  -1.18511940e+00
C     1.375199540200000e+00   1.234980007701440e-02   2.207247000000000e-01 -5.97500360e-01   3.24350000e-02   3.54121200e-01
C     9.743761347400000e+00   6.664204124834255e-01   3.333681900000000e+00  3.12622600e-01   3.70690557e+00   4.68763230e-01
C     1.138132750100000e+00   1.408090427871327e+00   3.367185900000000e+00 -1.08865451e+00   6.32196380e-01  -5.42284300e-01
C     7.551290958599999e+00   7.850932746016359e+00   2.984925000000000e-01 -7.20051230e-01   1.95279740e-01  -8.95024230e-01
C     3.836040937300000e+00   4.058463595986801e-02   1.363299000000000e-01 -1.54086182e+00  -1.33031972e+00   9.25181700e-02
C     2.334835724300000e+00   6.807146306368408e-01   3.537836700000000e+00  8.81257590e-01   3.00922341e+00  -2.13611170e-01
C     3.574989697200000e+00   1.435335592439549e+00   3.472018500000000e+00  1.35054170e-01  -1.19961736e+00  -7.96857200e-01
C     9.966783602800000e+00   7.844831793808609e+00   3.470430000000000e-02 -6.17898420e-01  -9.21603130e-01   1.03836629e+00
C     1.114859280050000e+01   8.520705317843920e+00   2.445300000000000e-01  2.07990123e+00   2.82013650e+00  -1.73668054e+00
C     4.788469658600000e+00   6.869165993385696e-01   3.462169200000000e+00  2.39123729e+00   2.76911318e+00  -6.83926100e-02
C     6.117863237700000e+00   1.364194619817630e+00   3.396388200000000e+00 -2.37806405e+00   5.15091170e-01   1.63554980e-01
C     1.241988213910000e+01   7.905423502103327e+00   8.935410000000001e-02 -7.62682670e-01  -4.56060870e+00  -4.65817900e-02
C     1.368675572600000e+01   8.498340539325437e+00   1.723737000000000e-01 -9.13741760e-01   2.14611249e+00   7.24127520e-01
C     7.338058697199999e+00   7.112587565139056e-01   3.448127100000000e+00 -4.48685060e-01   8.09726400e-02  -9.49832880e-01
C     8.508153031699999e+00   1.456388437387884e+00   3.286632000000000e+00  1.82584319e+00  -1.16018579e+00   8.63435170e-01
C     1.304168149500000e+00   1.421180389376748e+00  -2.210579999999851e-02  6.73421290e-01   2.22201000e-02  -6.37608600e-01
C     2.559838212800000e+00   2.101423666635093e+00  -2.827847999999982e-01 -1.35850638e+00   5.27886040e-01   1.11050298e+00
C     1.102632022230000e+01   2.880633050675380e+00   3.154218000000000e+00 -4.79008820e-01  -2.96594725e+00   2.67031040e-01
C     2.418397153700000e+00   3.537878125617836e+00   3.053056200000000e+00 -1.29809235e+00   1.01069616e+00   3.95194590e-01
C     3.762658429600000e+00   1.419991673727827e+00  -3.146549999999948e-02  1.64671464e+00   1.29398743e+00  -5.06656220e-01
C     5.021300888500000e+00   2.149450391788700e+00  -4.936799999999408e-03 -1.97935678e+00   1.34417556e+00  -6.76460000e-03
C     3.645390245100000e+00   2.830135904399804e+00   3.205001100000000e+00 -1.27125744e+00  -8.83668270e-01   1.09490882e+00
C     4.886723424700000e+00   3.465803070639510e+00   3.392050800000000e+00 -3.71082790e-01   7.62054150e-01  -1.55574282e+00
C     6.175700075000000e+00   1.457904367918398e+00   2.233713000000000e-01  3.23713755e+00  -1.07653299e+00   3.74249300e-02
C     7.462699351599999e+00   2.184216716787705e+00   2.204295000000000e-01 -5.00554880e-01  -2.59808276e+00   3.81645500e-02
C     6.132833577100000e+00   2.769047652645674e+00   3.334060500000000e+00 -1.73586947e+00   1.27514866e+00   1.57099841e+00
C     7.252425731100000e+00   3.594014605194614e+00   3.456859500000000e+00  3.10622751e+00  -1.38060891e+00  -1.65840741e+00
C     8.697519311000001e+00   1.383919648636325e+00   1.902624000000000e-01  1.86072560e-01   2.66436064e+00  -5.33845720e-01
C     9.912046798799999e+00   2.139064820292400e+00  -2.871389999999963e-02  1.35234789e+00  -9.36026700e-01  -3.71829710e-01
C     8.525587828799999e+00   2.863734775885984e+00   3.302311500000000e+00 -1.04380359e+00   3.98573460e-01   4.06049950e-01
C     9.753529008499999e+00   3.543428140869417e+00   3.183718500000000e+00  1.05519881e+00  -4.58812980e-01  -3.01396950e-01
C     2.565510572200000e+00   3.530430315287075e+00  -4.374494999999996e-01 -3.28652400e-01   3.13604730e-01   3.40032440e-01
C     3.761295531100000e+00   4.273572797642148e+00  -2.279631000000002e-01  8.96892760e-01  -1.04518250e+00  -7.55344470e-01
C     1.219400092740000e+01   4.992877949121462e+00   3.034581000000000e+00  1.55978987e+00  -1.91164390e+00   2.24556680e-01
C     3.562843754799999e+00   5.619418791740354e+00   3.245595900000000e+00  2.57626269e+00   1.89663458e+00   7.94709190e-01
C     5.024209292700000e+00   3.600512279829265e+00  -8.686979999999878e-02 -4.84265080e-01  -3.00773050e-01   1.07953539e+00
C     6.205123744700000e+00   4.344754672124266e+00   2.117424000000000e-01  2.66118931e+00  -2.20970710e+00  -1.49407659e+00
C     4.841444973600000e+00   4.866303513655584e+00   3.403694400000000e+00 -2.72288650e-01   2.73711531e+00   4.44722690e-01
C     6.073544411099999e+00   5.653732549183919e+00   3.623467200000000e+00 -3.14410869e+00   2.40555062e+00  -9.12604110e-01
C     7.478270855199999e+00   3.584566104708389e+00   2.277732000000000e-01  4.97315200e-01   7.35533770e-01  -2.29378780e-01
C     8.770015207500000e+00   4.272992486489928e+00   1.106019000000000e-01 -8.56490530e-01   7.85053300e-02  -8.94628010e-01
C     7.268098891300000e+00   5.030801146294924e+00   3.443971500000000e+00  2.48630361e+00  -2.11228836e+00   1.58909609e+00
C     8.559483057799998e+00   5.677034911053105e+00   3.500726400000000e+00 -8.18774310e-01   1.68856657e+00  -1.07234235e+00
C     1.000829188570000e+01   3.554151601010410e+00  -2.700546000000017e-01 -3.72726007e+00  -1.68564780e-01   1.92621646e+00
C     1.118739298510000e+01   4.260024291273951e+00  -4.696701000000019e-01  8.60848910e-01   6.48289250e-01   6.89614750e-01
C     9.754154871999999e+00   4.927256165923292e+00   3.153966600000000e+00 -3.52244460e-01   3.32427935e+00   1.11887556e+00
C     1.098429645860000e+01   5.679995556766731e+00   3.063589800000000e+00 -5.41186080e-01   2.01320375e+00   8.78866050e-01
C     3.746309662200000e+00   5.664334328425573e+00  -1.359293999999984e-01  1.66393811e+00   2.16440077e+00   1.18524155e+00
C     5.025733550099999e+00   6.380418223591412e+00   2.117733000000000e-01  1.32664990e-01   1.23235218e+00  -1.39624397e+00
C     1.347607503540000e+01   7.090678001269263e+00   3.394874400000000e+00 -7.65770260e-01  -1.31545174e+00  -5.10528030e-01
C     4.802486141599999e+00   7.836227374508333e+00   3.497677200000000e+00  1.46087441e+00  -1.95888546e+00   2.90354870e-01
C     6.339201898100000e+00   5.744284315038870e+00   1.474494000000000e-01 -4.60448295e+00  -7.68051960e-01   1.49785020e+00
C     7.525504149900000e+00   6.419375921884526e+00   2.990847000000000e-01  6.15398590e-01   1.38944422e+00  -5.56565900e-02
C     6.040902486699999e+00   7.130357331338041e+00   3.673356300000000e+00  1.22201970e-01  -1.31712425e+00  -2.95448830e-01
C     7.279444300300000e+00   7.851794929904526e+00   3.704658300000000e+00 -1.56579000e-03  -1.99552139e+00  -3.75477440e-01
C     8.721835599300000e+00   5.705161301502863e+00   1.966176000000000e-01  1.82743854e+00  -8.10312200e-01  -1.32283982e+00
C     9.930290954000000e+00   6.425955144069261e+00  -5.895540000000210e-02  5.59061210e-01  -6.93924460e-01   8.44471700e-02
C     8.536551507900001e+00   7.174807321171890e+00   3.615889200000000e+00  2.50565870e-01  -3.38256217e+00  -7.02028620e-01
C     9.757151523200001e+00   7.863321313200954e+00   3.419523300000000e+00  8.47069940e-01  -2.11664465e+00   5.56684200e-01
C     1.116339423810000e+01   5.713035293846681e+00  -3.178127999999987e-01 -7.15464300e-01  -6.29082130e-01   4.56250770e-01
C     1.237713770800000e+01   6.390795768417861e+00  -1.612016999999994e-01  1.18291174e+00   2.58322572e+00   3.73651680e-01
C     1.104499737940000e+01   7.162412178949227e+00   3.269806500000000e+00 -1.97044976e+00  -1.77295605e+00  -1.33251050e-01
C     1.228287965760000e+01   7.856776674008662e+00   3.363167100000000e+00 -8.22256280e-01  -2.28086488e+00  -1.72513100e-02
