76
Lattice="10.7446858958278 0 0 5.37234294791388 9.3051709414712 0 0 0 30 " PBC="1 1 1" Properties=species:S:1:pos:R:3:force:R:3 Energy="-607.57440902"
C     1.072779600589321e+01   4.902038492559520e-02   8.024550000000000e-02  2.42827944e+00  -2.94860698e+00   3.94683260e-01
C     1.246593703594489e+01   8.458849731164692e+00   3.204564000000000e-01 -1.11740284e+00   8.92408680e-01  -3.55386460e-01
C     1.386975587485577e+01   8.319251788740333e+00   3.663177000000000e-01  6.10177080e-01   3.94028900e-01  -7.19225220e-01
C     1.439266702004020e+01   7.003656851644417e+00   1.624146000000000e-01  2.69840651e+00   2.00607591e+00  -4.63811020e-01
C     8.199174880990075e+00   9.012160877528887e+00  -6.640979999999885e-02  1.70877290e+00  -1.41887290e+00   8.23547220e-01
C     9.595866662296615e+00   8.782356188667723e+00   1.173063000000000e-01  2.10257384e+00   2.61848149e+00  -1.04411503e+00
C     1.025403782316750e+01   7.507562565109519e+00   6.719340000000000e-02 -2.22818574e+00   1.19240500e+00  -5.08621600e-01
C     1.162973841003579e+01   7.315297820423307e+00   4.901730000000000e-02  1.44374390e+00   2.22784420e-01   4.48293170e-01
C     1.220163291281201e+01   6.017492974389029e+00  -2.201624999999972e-01 -2.34341051e+00   1.09859607e+00  -7.59368470e-01
C     1.357504369966816e+01   5.966947099739530e+00  -2.265834000000027e-01  1.56780457e+00  -4.73157325e+00   8.90296970e-01
C     5.954874852987509e+00   8.024198496834217e+00   1.180824000000000e-01  1.59031895e+00  -4.57054170e-01   6.34829500e-02
C     7.439044387102043e+00   7.786240244988588e+00   9.624030000000000e-02 -4.33517752e+00   3.24873884e+00  -8.81457390e-01
C     7.940298382216149e+00   6.492737179479871e+00  -5.558700000001693e-03  2.72022217e+00   1.37726470e+00  -8.35282230e-01
C     9.388203258332444e+00   6.459329754771083e+00  -1.719350999999989e-01 -6.55306480e-01  -4.52176540e+00   5.83390750e-01
C     9.932421169380007e+00   5.105164046663480e+00  -3.470154000000001e-01 -1.00784193e+00  -4.45195060e-01  -7.42847410e-01
C     1.132954069663223e+01   4.866407969461457e+00  -5.270489999999981e-01  6.77170820e-01   3.12667668e+00   1.58104151e+00
C     1.193705044859089e+01   3.632756228697367e+00  -5.827236000000013e-01 -2.04074265e+00  -3.77855242e+00   3.57071160e-01
C     5.135459050390201e+00   6.886825126545281e+00   8.912160000000000e-02 -1.82521614e+00  -7.67417520e-01  -1.02392710e-01
C     5.690578734645623e+00   5.597643382421101e+00  -9.472859999999983e-02  5.32782590e-01  -2.04829215e+00   4.68054250e-01
C     7.135668610502979e+00   5.364932409520247e+00  -1.329944999999988e-01 -3.00565583e+00   5.14662990e-01   6.14953820e-01
C     7.657543162115210e+00   4.046082244474389e+00  -1.177433999999984e-01  2.45597370e-01   1.68163624e+00  -4.49506410e-01
C     9.038831200545225e+00   3.952880163511999e+00  -3.344307000000022e-01  1.56616091e+00  -1.12882739e+00   1.49602362e+00
C     9.596243102367122e+00   2.609817478421714e+00  -1.501316999999993e-01  2.22164061e+00   2.40645336e+00  -1.28048157e+00
C     1.101858873455822e+01   2.449498874399873e+00  -3.801614999999998e-01  1.00572412e+00  -4.50876940e-01   5.83072210e-01
C     3.428451875925791e+00   4.555394076152213e+00  -2.923058999999988e-01 -1.12893265e+00   2.01932730e+00  -8.29382310e-01
C     4.811302567749672e+00   4.385686461600202e+00  -1.487919000000026e-01 -5.88829500e-02   4.41202441e+00  -5.73704750e-01
C     5.332479090842410e+00   3.148833183722497e+00  -1.477890000000031e-01  4.53945991e+00  -3.51022220e+00   1.58422501e+00
C     6.824965441630980e+00   2.956524425577739e+00   7.295069999999999e-02 -1.74199480e+00  -1.95833334e+00  -1.28145748e+00
C     7.416242981706794e+00   1.608081862856784e+00   1.693389000000000e-01 -3.10907194e+00   1.90518452e+00   7.45120280e-01
C     8.808389868324495e+00   1.516311940753769e+00   1.736814000000000e-01 -1.84412670e-01  -2.62713826e+00  -1.60265670e-01
C     9.381207930577249e+00   1.797236075001172e-01   2.768469000000000e-01 -2.53695579e+00   5.91233520e-01   3.04826600e-02
C     2.597039309180556e+00   3.417453276539356e+00  -5.359265999999998e-01 -8.55413300e-02   2.11594810e+00   2.07964860e-01
C     3.157844705150252e+00   2.138998626526518e+00  -5.024583000000007e-01  8.97818050e-01  -9.43631050e-01   1.91595336e+00
C     4.559545712746804e+00   1.975576934099605e+00  -1.440339000000002e-01 -9.45242140e-01  -6.57990500e-01  -1.21014661e+00
C     5.121306902250734e+00   6.543837270110555e-01   6.556230000000000e-02 -2.12340470e+00   1.34404470e-01   5.62796920e-01
C     6.478066971708229e+00   5.016077084497595e-01   3.118494000000000e-01  3.03898659e+00  -1.11265460e+00  -8.96703320e-01
C     8.432972100957951e-01   1.094421910902117e+00  -1.827617999999980e-01  1.60257167e+00   4.76042297e+00  -1.21355194e+00
C     2.317360238929359e+00   1.040351609707384e+00  -2.940621000000014e-01 -2.55706386e+00  -3.20905590e+00   3.99263060e-01
C     1.608076435317205e+01   9.273394711756994e+00   3.653271300000000e+00  1.82654800e-02   1.77091411e+00  -4.75143160e-01
C     1.184817239459298e+01   8.743667986398776e+00   3.458468400000000e+00 -2.34661100e-02   4.04650618e+00   2.32231500e-01
C     1.322645659490936e+01   9.044287259354366e+00   3.548352900000000e+00  2.42273807e+00  -3.67802118e+00   7.18399580e-01
C     1.412503139959716e+01   7.798070560166575e+00   3.606046800000000e+00 -1.56271096e+00   2.52976832e+00  -1.68112834e+00
C     7.573655155142980e+00   8.322243680352672e+00   3.496982100000000e+00  1.19234892e+00  -2.40252930e-01  -9.20258670e-01
C     9.005540940221254e+00   8.497917956614829e+00   3.476736000000000e+00 -1.82972600e-02  -9.79469030e-01   2.13000950e-01
C     9.906987530832977e+00   7.345366642850532e+00   3.380007600000000e+00 -1.50722875e+00   2.13416620e-01   2.90956230e-01
C     1.132908737833411e+01   7.478323856981850e+00   3.360116400000000e+00 -1.34919230e+00  -1.02111210e-01   2.66812210e-01
C     1.218761727590690e+01   6.376599154874311e+00   3.350120400000000e+00 -3.14017839e+00  -1.30806552e+00   6.01878330e-01
C     1.354374228070428e+01   6.528428930602719e+00   3.383320200000000e+00  2.39017516e+00  -7.30475410e-01   1.05684497e+00
C     4.772341423377970e+00   7.966844121659628e+00   3.500740800000000e+00  1.07745963e+00   1.87165650e-01   1.09274263e+00
C     5.644543987481946e+00   6.818057493954237e+00   3.406964100000000e+00 -1.42103091e+00   5.83209750e-01  -1.13173288e+00
C     7.026902895032183e+00   6.997045527691546e+00   3.315013800000000e+00  5.04336370e-01   1.14565418e+00   9.84835570e-01
C     7.893570871429068e+00   5.883285052231665e+00   3.303760800000000e+00  4.11709390e-01  -5.86646660e-01   2.04924760e-01
C     9.291934848202228e+00   6.048145044930774e+00   3.396795900000000e+00  7.78247460e-01   3.71086450e-01  -1.41441700e-01
C     1.015145707124132e+01   4.909621834668783e+00   3.541900800000000e+00 -2.53283642e+00  -3.25404200e-01  -3.96225850e-01
C     1.150088201225203e+01   5.122493531763590e+00   3.526473600000000e+00  4.30802948e+00  -2.59231622e+00   2.35556810e-01
C     1.236000012765442e+01   3.923583484169375e+00   3.679304700000000e+00  1.15922753e+00  -8.30359670e-01  -9.86803860e-01
C     3.651117225237261e+00   5.356811786840909e+00   3.393757500000000e+00 -6.09260530e-01   5.67015410e-01  -9.83100290e-01
C     5.059869164338540e+00   5.528664243294590e+00   3.239819100000000e+00  2.28149080e-01   4.19637000e-03   1.02150787e+00
C     5.930895615123902e+00   4.419645682945732e+00   3.176058000000000e+00  5.78086370e-01  -2.47925054e+00   5.24908000e-01
C     7.379355239373215e+00   4.552095858312530e+00   3.282954000000000e+00 -2.42430633e+00   1.80735282e+00  -1.02999172e+00
C     8.186298341960654e+00   3.427152242313538e+00   3.311289900000000e+00  4.91657500e-01  -1.22844726e+00   1.37499301e+00
C     9.588741431288890e+00   3.576924830850530e+00   3.592015500000000e+00  1.28696314e+00  -3.34936440e-01   7.28554000e-02
C     1.048270848487534e+01   2.405227476515217e+00   3.835996500000000e+00 -2.65407267e+00   1.79408211e+00  -1.43551709e+00
C     1.186625457277066e+01   2.518863247603300e+00   3.804191400000000e+00  6.31355850e-01   4.08210820e+00   3.77259480e-01
C     3.060360211469873e+00   4.060759848908308e+00   3.441425700000000e+00 -5.78972960e-01   1.35424232e+00   7.41076880e-01
C     3.971306823566940e+00   2.975731135863283e+00   3.425125200000000e+00 -1.56756993e+00  -1.22301527e+00   9.74147300e-02
C     5.351292982129880e+00   3.050730906691393e+00   3.246634200000000e+00  6.53240160e-01   2.88175068e+00   1.09113530e-01
C     6.169605896442983e+00   1.908219686267937e+00   3.344013000000000e+00 -9.21492600e-02   1.22866500e-01   3.09565110e-01
C     7.546115987946984e+00   2.143216567461910e+00   3.383852100000000e+00  3.10045904e+00  -1.18126856e+00   7.55371200e-01
C     8.462654456926987e+00   1.010962250862197e+00   3.642828600000000e+00 -2.60893432e+00   7.66170130e-01  -1.18120376e+00
C     9.852449224354322e+00   1.167345232834966e+00   3.728651100000000e+00  1.14834571e+00  -2.69842719e+00   3.49152530e-01
C     2.010565234659768e+00   1.433214531018543e+00   3.805171500000000e+00 -6.15312000e-02   1.83085776e+00  -1.51373887e+00
C     3.409406758997752e+00   1.698216494218803e+00   3.597238500000000e+00 -9.63801770e-01  -2.47162492e+00   5.09752670e-01
C     4.178599804484709e+00   4.982717116160602e-01   3.564607200000000e+00  1.72364992e+00   1.63530150e-01  -5.46451400e-01
C     5.608240917231615e+00   6.030392825914860e-01   3.501748500000000e+00 -1.10284420e-01  -1.38509770e-01  -5.25848110e-01
C     1.401416112249914e+00   2.018435807035570e-01   3.567378900000000e+00 -9.51596130e-01  -3.07776794e+00   1.39052509e+00
