52
Lattice="8.88768389401873 1.33226762955019e-15 0 4.44384194700937 7.69696003302603 0 0 0 30 " PBC="1 1 1" Properties=species:S:1:pos:R:3:force:R:3 Energy="-418.57248608"
C     4.414713099244562e+00   7.593825691652419e+00  -1.130700000000004e-01 -1.70735457e+00  -8.09840540e-01   3.15145670e-01
C     9.469470837929055e+00   7.419290272677742e+00  -1.276212000000001e-01  1.04642554e+00   1.21773277e+00   6.51089400e-01
C     1.087500778503987e+01   7.049389998464803e+00   6.268500000000001e-03 -5.84535920e-01  -1.87326411e+00  -3.67924560e-01
C     1.124613008928782e+01   5.614568891432383e+00   4.956300000000000e-03 -2.73452590e-01   2.54398985e+00  -7.01555550e-01
C     7.093292779304307e+00   6.777613880407117e+00  -2.588796000000002e-01  2.25963570e-01   3.32866996e+00   7.66502410e-01
C     8.420978770423135e+00   6.450446512523935e+00  -8.079990000000237e-02  2.65941057e+00  -1.48441172e+00  -8.72989040e-01
C     8.818481986846367e+00   5.062376355865734e+00  -6.907169999999851e-02 -3.26887690e-01  -1.54205030e-01  -1.03641770e-01
C     1.020403244373762e+01   4.687887692870111e+00  -9.420569999999984e-02 -8.84831990e-01  -7.37123830e-01   3.81053360e-01
C     1.054507487071957e+01   3.310159017769017e+00  -1.763724000000018e-01 -8.23025240e-01  -1.77746060e+00  -5.11132000e-03
C     4.761753068628155e+00   6.212120843969427e+00  -6.153600000000026e-02 -1.07219219e+00   5.65611790e-01  -9.31852000e-01
C     6.105416493475680e+00   5.825264397719199e+00  -1.709786999999992e-01 -7.17486520e-01  -8.14789840e-01   5.69765600e-01
C     6.432266311374439e+00   4.455996913809484e+00  -5.979329999999905e-02  4.92168810e-01   2.09266020e-01  -7.44505860e-01
C     7.788970501457200e+00   4.036344567537029e+00  -1.017729000000003e-01  5.09535940e-01   3.34350892e+00   4.34617220e-01
C     8.119934383825182e+00   2.720896152397081e+00  -9.096089999999890e-02  2.40989202e+00  -3.49846354e+00  -3.15795400e-02
C     9.522612162974214e+00   2.267306677838751e+00  -1.589904000000004e-01 -5.62934590e-01   1.26962415e+00  -3.13844710e-01
C     3.730101295678407e+00   5.240565444797052e+00  -9.212699999999785e-02 -5.66008360e-01  -9.28390200e-02   1.07275652e+00
C     4.063015180289487e+00   3.862329616999581e+00  -8.888549999999995e-02 -1.03734105e+00   3.51298820e-01  -9.20777710e-01
C     5.411895720038940e+00   3.506380236780217e+00  -1.046787000000009e-01  3.46640430e-01  -1.41431251e+00   5.89699690e-01
C     5.760305681456456e+00   2.125751655018220e+00  -8.071649999999764e-02 -4.91014520e-01  -1.09162426e+00  -5.04223210e-01
C     7.125439706401647e+00   1.718451159293108e+00  -4.227210000000170e-02 -4.05990730e-01  -1.02788239e+00  -1.54137590e-01
C     7.470528962460508e+00   2.965153021381107e-01  -1.773870000000244e-02  2.52955990e-01   1.50224391e+00  -2.88197700e-01
C     3.015526176790836e+00   2.898784598069626e+00  -2.190086999999998e-01  9.24498800e-02   2.03861830e-01   6.55347420e-01
C     3.333918696884929e+00   1.518680948981675e+00  -2.380211999999986e-01  5.34622710e-01  -4.59820040e-01  -2.38275890e-01
C     4.712735755580994e+00   1.139127840225513e+00  -2.028063000000024e-01  3.37668050e-01  -8.51173530e-01   6.82946380e-01
C     9.659399265782246e-01   8.519791996567105e-01  -2.424722999999993e-01  2.41600430e-01   2.87230365e+00   6.34310490e-01
C     2.327033032771264e+00   5.119437461169737e-01  -2.657547000000022e-01  3.34708420e-01  -1.28532411e+00  -2.77532370e-01
C     5.261379997336441e-02   9.040610645477069e-02   3.473920800000000e+00  6.13411060e-01  -5.11163990e-01   1.82825000e-02
C     6.881486518626495e+00   7.158259418700337e+00   3.585577500000000e+00  4.42100460e-01   9.89626190e-01   6.39065900e-02
C     8.248977113470866e+00   7.544895577954506e+00   3.615282600000000e+00  5.48119890e-01  -3.07888490e-01   1.98521600e-02
C     9.285940076159694e+00   6.551039930426413e+00   3.667500900000000e+00  8.74879900e-02   1.77787464e+00  -1.33640685e+00
C     1.065205974579112e+01   6.979378219123122e+00   3.473891700000000e+00 -5.35914150e-01   4.16247910e-01   7.19267570e-01
C     1.166279746413091e+01   6.004826085532667e+00   3.425055600000000e+00  1.88057350e+00   5.29201520e-01   2.32006880e-01
C     4.187215231684569e+00   6.391034832596370e+00   3.396301800000000e+00 -7.31720410e-01   1.39700360e-01   5.51366010e-01
C     5.240905659779484e+00   5.389695045983105e+00   3.472660800000000e+00 -1.98794173e+00   1.58931940e+00  -8.29684430e-01
C     6.563216335716790e+00   5.791538243107746e+00   3.541152600000000e+00  9.51429270e-01  -6.49315500e-02   3.58129070e-01
C     7.589341923303463e+00   4.801983810783617e+00   3.590865000000000e+00 -1.25178315e+00   7.82485180e-01  -4.95648640e-01
C     8.923633863698335e+00   5.200061116274380e+00   3.611409900000000e+00  1.01998892e+00  -1.90069570e-01   5.01238440e-01
C     9.936698244368609e+00   4.230650628953565e+00   3.608901300000000e+00  1.87832777e+00  -2.66959640e-01  -4.92071700e-02
C     1.134710235432161e+01   4.651244775255289e+00   3.536463300000000e+00 -1.31461818e+00  -1.52671924e+00  -3.88291220e-01
C     3.500649870529994e+00   3.682208360191932e+00   3.464167500000000e+00  2.49169770e-01  -1.44821675e+00  -1.97202400e-02
C     4.892018650164155e+00   4.053270490521401e+00   3.375949800000000e+00 -1.01596375e+00  -2.03100990e+00   1.40215320e+00
C     5.886221810228414e+00   3.011889655409670e+00   3.512187600000000e+00 -1.02937613e+00   1.23639008e+00  -1.59460525e+00
C     7.232511190696095e+00   3.453249507145932e+00   3.494062800000000e+00  1.71277450e-01  -1.51408061e+00   8.15384430e-01
C     8.244232375682893e+00   2.457395190006848e+00   3.544326300000000e+00  1.06123700e-01  -2.37475900e-02  -9.06150400e-02
C     9.598142767301363e+00   2.850712002688657e+00   3.626441400000000e+00  7.95118640e-01   2.79275320e-01  -6.73913270e-01
C     1.748432947368598e+00   1.888663811575737e+00   3.559426800000000e+00  1.80542851e+00  -1.08756710e+00   4.55935300e-01
C     3.172759836300581e+00   2.267997403031843e+00   3.528009900000000e+00 -1.45735510e+00  -1.89239730e-01  -1.25141920e-01
C     4.165885186925652e+00   1.205299375299426e+00   3.522654900000000e+00 -5.30548810e-01   2.24058948e+00  -2.34183410e-01
C     5.522389626866353e+00   1.637498151268783e+00   3.421074900000000e+00  2.63068890e-01   4.24047300e-02   1.14724081e+00
C     6.556101297057681e+00   6.792624953675225e-01   3.463379700000000e+00 -3.12703920e-01  -9.12829870e-01  -4.22216800e-01
C     7.912843838033340e+00   1.086130729817349e+00   3.472056000000000e+00  1.72777820e-01  -6.20439490e-01   1.03699410e-01
C     1.437076760356314e+00   4.740255191947821e-01   3.564588600000000e+00 -7.66650150e-01   6.89061480e-01  -4.01136080e-01
