64
Lattice="9.86 0 0 4.93 8.53901048131456 0 0 0 30 " PBC="1 1 1" Properties=species:S:1:pos:R:3:force:R:3 Energy="-505.97079948"
C     4.904793945300000e+00   7.671307060850233e+00  -6.443364000000003e-01  4.39966494e+00  -5.70377861e+00  -6.60188660e-01
C     6.235624915200000e+00   8.265612541176390e+00  -5.537478000000000e-01 -1.93946184e+00   1.95269364e+00  -4.19882950e-01
C     9.735781846599998e+00   9.068955132805567e-01   3.483404700000000e+00  2.03127736e+00   2.25595609e+00   2.43448016e+00
C     1.140116631400000e+00   1.609287873652659e+00   3.877558200000000e+00  4.13696300e-01   1.21563549e+00  -1.41645943e+00
C     7.496294738000000e+00   7.684989202732441e+00  -7.436955000000012e-01  1.45751150e-01  -3.83133704e+00   2.02934720e-01
C     8.749771444299999e+00   8.375968065526662e+00  -6.626072999999977e-01 -1.02695024e+00  -8.35805500e-01   4.80805270e-01
C     2.430819274700000e+00   8.955088281955816e-01   3.909882000000001e+00 -2.55742476e+00   2.84767563e+00  -1.73405960e-01
C     3.674646787800000e+00   1.616814328269941e+00   3.967077900000000e+00 -1.97412683e+00   8.12702530e-01   4.83943000e-01
C     9.955979014799999e+00   7.579982258376528e+00  -4.872465000000012e-01 -1.85119430e-01   1.99502021e+00   1.05272374e+00
C     1.116151216130000e+01   8.280850319987845e+00  -2.969273999999977e-01  7.80708350e-01   4.22222471e+00  -3.16104084e+00
C     4.895849101200000e+00   9.433512815030304e-01   3.814573800000000e+00  9.30237270e-01   2.32997954e+00   1.16096502e+00
C     6.171175863299999e+00   1.639153831317402e+00   3.908133900000000e+00 -1.34284250e+00  -4.06271970e-01   4.35118560e-01
C     1.240067352800000e+01   7.658704420672906e+00  -6.277061999999987e-01 -4.49497905e+00  -4.47357164e+00   1.62900541e+00
C     1.355564360850000e+01   8.315113099538845e+00  -6.832185000000024e-01  2.44945237e+00   2.96322100e-01   4.38644990e-01
C     7.358400123700000e+00   8.454575890472712e-01   3.816140400000000e+00 -3.06411400e-01   3.08411631e+00  -3.22966930e-01
C     8.483931843099999e+00   1.679623788366524e+00   3.572067000000000e+00  4.12846333e+00  -1.02030125e+00  -3.70788770e-01
C     1.209296067600000e+00   1.139862091382414e+00  -3.558552000000006e-01  2.76113767e+00  -1.56706650e-01  -7.78400580e-01
C     2.427373993500000e+00   1.920519862380319e+00  -4.772981999999999e-01  1.65240165e+00  -9.15230230e-01   4.15043700e-01
C     1.106623976340000e+01   3.079589689326550e+00   4.011522300000000e+00 -1.36125543e+00  -1.24463442e+00  -1.06370415e+00
C     2.377819211100000e+00   3.780050269357762e+00   4.299391200000001e+00  5.37115710e-01  -1.29045868e+00  -1.54030790e-01
C     3.779980181800000e+00   1.268016756127722e+00  -6.028503000000001e-01 -1.89684931e+00   2.62328350e-01   5.16237170e-01
C     4.970367776700000e+00   2.037782336137548e+00  -5.584745999999967e-01  2.32632126e+00  -3.21577431e+00   9.86480570e-01
C     3.593253523100000e+00   2.994695615645334e+00   4.285544700000000e+00  2.26465169e+00   2.42599002e+00   6.08055700e-02
C     4.883835085599999e+00   3.752325724741194e+00   4.381230899999999e+00  1.11901833e+00  -2.63946483e+00  -1.72894146e+00
C     6.239109833600000e+00   1.281576363209542e+00  -4.861871999999998e-01 -1.35489434e+00  -2.08973812e+00  -6.68640860e-01
C     7.482189761500000e+00   1.949148944377034e+00  -7.194624000000012e-01 -1.58700239e+00  -2.17824419e+00   1.62487984e+00
C     6.177731185700000e+00   3.085678772309734e+00   4.111674000000000e+00 -4.94615140e-01  -1.45131220e+00  -9.65775290e-01
C     7.381800072899999e+00   3.807679774787689e+00   3.808430100000000e+00  4.94074110e-01   6.87323360e-01  -8.71337480e-01
C     8.661705128800000e+00   1.123924540662123e+00  -5.713842000000007e-01 -1.89103837e+00   3.59525796e+00  -1.84819350e-01
C     9.831587473299999e+00   1.767914253466161e+00  -3.239967000000021e-01  2.34281201e+00   4.31336727e+00  -7.07949580e-01
C     8.671351018899999e+00   3.133258821825132e+00   3.526226400000000e+00 -3.33718074e+00  -5.22837480e-01   1.47452518e+00
C     9.925012994599999e+00   3.890330650415810e+00   3.691660200000000e+00 -1.86558735e+00  -5.66507740e+00   5.05538000e-03
C     2.444793556900000e+00   3.325985483820199e+00  -3.744620999999988e-01  3.32516825e+00   6.59886630e-01   3.75606120e-01
C     3.824964607700000e+00   4.080657765075892e+00  -4.154069999999983e-01 -4.59202568e+00  -2.23385147e+00   1.29206140e-01
C     1.215901794320000e+01   5.207380966422835e+00   4.322541600000000e+00  4.62681373e+00  -9.38116400e-02   4.18074670e-01
C     3.659445773700000e+00   5.832415783763369e+00   4.142005500000000e+00 -3.83281160e-01   1.54330134e+00  -3.31609420e-01
C     5.073447963500000e+00   3.423984462275177e+00  -4.622769000000027e-01 -4.58655976e+00  -1.16936641e+00  -6.07360170e-01
C     6.202353281900000e+00   4.085587677386415e+00  -6.793515000000028e-01  4.76934560e+00   8.41903060e-01  -9.62109640e-01
C     4.954293708900000e+00   5.114183900511286e+00   4.183722600000000e+00 -3.57845739e+00   2.29966264e+00  -6.88611960e-01
C     6.092151414300000e+00   5.878507825312522e+00   3.818496300000000e+00 -7.57140020e-01   1.99567926e+00   8.40190460e-01
C     7.453770677899999e+00   3.334305554071492e+00  -7.213674000000019e-01  1.12171932e+00   1.44321643e+00   7.21565490e-01
C     8.731337434800000e+00   4.000466295246221e+00  -4.822937999999972e-01 -2.93139132e+00   1.37620182e+00  -8.42134970e-01
C     7.317543340299999e+00   5.278051610347516e+00   3.686685600000000e+00  1.89395532e+00  -3.37150050e+00   1.73793091e+00
C     8.564376477200000e+00   5.909093109220101e+00   3.880208400000000e+00  2.12364150e-01   2.64305177e+00  -9.22875970e-01
C     9.909949774000001e+00   3.270028238073397e+00  -3.695022000000030e-01 -2.63719750e-01  -3.86080510e-01   1.16174659e+00
C     1.111363954420000e+01   4.056646836117075e+00  -2.314815000000010e-01  1.67531490e-01  -2.14828741e+00  -4.63956570e-01
C     9.836501253600000e+00   5.203803121031715e+00   3.896313900000000e+00 -1.72757690e+00   4.20482308e+00   1.65882634e+00
C     1.096629471150000e+01   5.935394200789654e+00   4.359891600000000e+00  1.07091557e+00   1.57863636e+00  -2.42890051e+00
C     3.665840871099999e+00   5.427484122967306e+00  -5.224538999999986e-01  4.51408993e+00   2.80816143e+00  -1.37957730e+00
C     5.003664306499999e+00   6.145714298417293e+00  -7.359545999999995e-01 -2.97640711e+00   3.14598420e+00   2.62232510e-01
C     1.355146030630000e+01   7.261348143024175e+00   3.781796100000000e+00 -5.39571200e-01  -1.24372444e+00   1.78827306e+00
C     4.896366455400000e+00   8.048306849855273e+00   3.615294000000000e+00 -3.30467144e+00  -8.86077330e-01  -1.11634200e-02
C     6.247429455100000e+00   5.502358265580977e+00  -9.002435999999996e-01 -2.63296114e+00  -1.94627605e+00   1.65028717e+00
C     7.472415937899999e+00   6.095890026167542e+00  -8.186289000000002e-01  1.00895070e+00   5.99088555e+00   6.30457970e-01
C     6.045900027700000e+00   7.341473435522627e+00   3.784931700000000e+00  1.75750700e+00  -1.28692082e+00  -5.03960750e-01
C     7.243168275700000e+00   8.076747475890693e+00   3.848547000000000e+00  2.82976828e+00  -2.66272210e+00   2.19757560e-01
C     8.615083351299999e+00   5.459163339507477e+00  -4.532817000000016e-01  5.40695347e+00  -1.14147197e+00  -2.62392600e-01
C     1.000377950600000e+01   6.210906825558634e+00  -3.036476999999991e-01 -5.89176601e+00  -1.80183426e+00  -7.10948690e-01
C     8.502762964100000e+00   7.390926943937338e+00   3.975898500000000e+00  1.81202800e+00  -1.72483566e+00  -1.14127304e+00
C     9.769546677099999e+00   8.128913144814062e+00   3.900592800000001e+00  1.52103336e+00  -4.02728799e+00   1.38217272e+00
C     1.114653255350000e+01   5.455705894164126e+00  -2.194493999999985e-01  1.17355047e+00   1.70861689e+00  -1.26339384e+00
C     1.235389270870000e+01   6.197405027577765e+00  -5.528508000000016e-01 -1.38618780e-01  -3.67310010e-01   1.39059614e+00
C     1.108011268480000e+01   7.392077746379726e+00   4.160393100000000e+00 -3.16107498e+00  -1.91600412e+00  -9.39858500e-02
C     1.234849485170000e+01   7.967141078929833e+00   4.015810800000001e+00 -1.00750353e+00   1.49798585e+00  -1.52423761e+00
