52
Lattice="8.88768389401873 1.33226762955019e-15 0 4.44384194700937 7.69696003302603 0 0 0 30 " PBC="1 1 1" Properties=species:S:1:pos:R:3:force:R:3 Energy="-416.8899192"
C     1.231044272286395e+01   6.465496224531393e+00  -1.810071000000022e-01 -1.10108807e+00  -1.04962287e+00  -1.00861150e-01
C     8.624480068300818e+00   6.217001717233251e+00  -2.390217000000021e-01 -3.36911095e+00  -1.77780780e+00   3.41139030e-01
C     9.924507542657933e+00   5.801145742556393e+00  -3.343617000000023e-01  1.60041200e-02   1.23595249e+00   3.75912900e-02
C     1.026301844623446e+01   4.477890685706018e+00  -3.452996999999982e-01 -1.14070594e+00  -3.19911533e+00  -5.60206200e-02
C     6.197103262404431e+00   5.656067821130131e+00   2.868660000000000e-02 -1.33549298e+00  -7.52031540e-01  -1.28872434e+00
C     7.576080343822607e+00   5.235983675399993e+00  -2.113695000000000e-01 -1.34966548e+00  -2.16042050e-01   9.03024240e-01
C     7.877327855094485e+00   3.821839527852965e+00  -2.674520999999999e-01 -6.87260260e-01   1.27938740e-01  -1.16706100e-01
C     9.227326820953062e+00   3.417255058413639e+00  -2.708846999999999e-01  1.17073072e+00   1.35121711e+00  -3.05916600e-02
C     9.590911880476636e+00   2.039329649014178e+00  -1.391439000000005e-01  2.12822240e-01   1.99000267e+00   2.59834000e-02
C     3.747507735588610e+00   5.068887522233513e+00  -2.688623999999997e-01  3.50976030e-01   1.36798721e+00   7.33542590e-01
C     5.075613847464912e+00   4.649348321273498e+00  -1.141430999999997e-01  3.25461660e+00   7.01955310e-01  -5.82015790e-01
C     5.442631730452986e+00   3.272047366241271e+00  -2.960922000000004e-01  1.95200190e-01  -9.89484910e-01   1.39879997e+00
C     6.821252993430176e+00   2.826642454130842e+00  -2.941436999999993e-01  1.45182770e-01   1.24998736e+00   2.59982240e-01
C     7.186515647727827e+00   1.450900287443891e+00  -2.474751000000026e-01  7.89796990e-01   8.56237570e-01   3.39436210e-01
C     8.595603402314842e+00   1.094039895035377e+00  -6.775230000000221e-02 -3.19702759e+00  -2.97467970e-01  -7.15005600e-01
C     2.719017356259883e+00   4.132627533883506e+00  -3.694697999999974e-01  6.66045290e-01  -2.98602221e+00   5.69777410e-01
C     3.067510150861278e+00   2.705855060984856e+00  -2.584514999999996e-01 -6.45655310e-01  -4.32410400e-02   7.68176690e-01
C     4.411534682273730e+00   2.270470359319882e+00  -1.528568999999997e-01  8.87815680e-01  -9.39916910e-01  -1.92333788e+00
C     4.771435974522444e+00   8.061328729948178e-01  -2.469716999999996e-01  1.37537925e+00   4.39548502e+00   8.25878100e-01
C     6.171244898269725e+00   4.773870125486840e-01  -2.857665000000011e-01 -1.84923047e+00  -4.39163350e-01   1.87021120e-01
C     1.088444890483856e+01   6.792094633129158e+00  -2.863766999999982e-01  4.34476319e+00   1.11200343e+00   1.49229220e-01
C     2.052485634661944e+00   1.696313162854822e+00  -9.832529999999906e-02  2.36248273e+00  -8.93792250e-01  -7.50585920e-01
C     2.466505322859537e+00   2.758568923263916e-01  -6.921300000000130e-02 -2.74533599e+00   2.09033785e+00   1.02145813e+00
C     8.235424817568850e+00   7.546144794567375e+00  -1.147763999999967e-01  2.35183550e-01   6.10118430e-01  -8.02347550e-01
C     4.443419384899578e+00   7.435459892369566e+00  -5.412599999999657e-03  7.99264490e-01  -7.92457990e-01  -3.69140000e-03
C     5.831176209324387e+00   7.073069619027498e+00   7.878960000000000e-02  6.23238900e-01  -2.73348220e+00  -7.06578780e-01
C     1.041737650106453e+00   1.222590749946022e+00   3.751842000000000e+00 -1.80303409e+00   1.68950439e+00  -1.52121495e+00
C     3.433469954659898e+00   6.783946631241399e-01   3.583533600000000e+00  5.31178520e-01   6.04148530e-01  -6.06364980e-01
C     4.835546793635067e+00   1.105885978339148e+00   3.471246900000000e+00 -2.01441645e+00   4.89092350e-01   1.51857820e-01
C     5.817303952277490e+00   1.088153875761235e-01   3.307446600000000e+00 -1.61190190e-01  -6.27328950e-01   1.50513905e+00
C     7.169555857625102e+00   4.735548500889475e-01   3.537038100000000e+00 -7.04366430e-01   1.29799097e+00  -8.32053630e-01
C     1.261211480019367e+01   7.204071570859697e+00   3.596915100000000e+00  5.60693690e-01  -1.86204833e+00  -4.03091200e-02
C     5.059590510694739e+00   7.550472179435442e+00   3.758237700000000e+00  2.95116035e+00   1.06179388e+00  -1.90871980e-01
C     6.127230514182068e+00   6.579463957151599e+00   3.747314400000000e+00 -4.22570510e-01   7.91480860e-01  -6.01311600e-02
C     7.514286900746164e+00   6.997017573332674e+00   3.633665100000000e+00 -4.46149360e-01   3.06447060e-01  -3.41481050e-01
C     8.554514176436607e+00   6.040224250771435e+00   3.483456600000000e+00 -6.26176930e-01  -4.20349690e-01   7.21076250e-01
C     9.904567446534774e+00   6.391514199267038e+00   3.347970300000000e+00  5.95261620e-01   2.32303334e+00  -4.75459900e-02
C     1.094254253870352e+01   5.456962397256489e+00   3.439453800000000e+00  2.49937880e-01  -1.94808514e+00  -5.92183650e-01
C     3.433957314126837e+00   5.790454665074723e+00   3.491937600000000e+00 -1.03737383e+00   9.43609540e-01   5.91635050e-01
C     4.416820589453853e+00   4.771928413380071e+00   3.629528400000000e+00 -2.72262800e-01   2.43593885e+00   3.34250670e-01
C     5.753398619926306e+00   5.212175669543998e+00   3.763428900000000e+00  1.23682336e+00   2.32240780e-01  -6.80732230e-01
C     6.804436918758322e+00   4.285182128343708e+00   3.728074800000000e+00  2.06010492e+00  -8.34279310e-01   6.98230910e-01
C     8.224473456063700e+00   4.691633033620709e+00   3.658155900000000e+00 -1.20270939e+00  -2.25125918e+00  -9.35760780e-01
C     9.250271132527599e+00   3.662590656345870e+00   3.546372600000000e+00 -1.20659812e+00  -2.15457380e-01   3.34269620e-01
C     1.061207823128150e+01   4.054621922763467e+00   3.463196400000000e+00  1.24480000e-04  -3.21453410e-01   1.24516020e+00
C     2.730542104130500e+00   3.045224419603596e+00   3.661763100000000e+00 -9.76913820e-01  -9.69889200e-02  -1.77977633e+00
C     4.084570524177661e+00   3.417963409645200e+00   3.658121400000000e+00 -1.39698772e+00   1.65947224e+00  -5.61691000e-02
C     5.118376759386832e+00   2.554023365010670e+00   3.625557900000000e+00  1.22233922e+00  -5.17771156e+00   1.73215740e-01
C     6.463886778791525e+00   2.898904439737294e+00   3.768798000000000e+00  1.54063929e+00  -1.02298540e-01  -1.70110642e+00
C     7.481046870792451e+00   1.873497182745423e+00   3.607881300000000e+00  1.08715269e+00   5.86285360e-01   8.68121970e-01
C     8.882551831719107e+00   2.256948570847979e+00   3.620064000000000e+00  1.91942000e-01  -1.83939800e-01   5.38079300e-01
C     2.392429855853603e+00   1.657210604692815e+00   3.576153000000000e+00  1.85056000e-02  -3.93960770e-01   1.76085223e+00
