64
Lattice="9.86 0 0 4.93 8.53901048131456 0 0 0 30 " PBC="1 1 1" Properties=species:S:1:pos:R:3:force:R:3 Energy="-515.47006199"
C     4.961730268800000e+00   8.107978992111398e+00   1.308744000000000e-01  4.69815130e-01   3.67949900e-01   3.80428250e-01
C     1.280648943600000e+00   2.953160417038832e-01   2.246388000000000e-01 -5.01223920e-01  -2.18771240e+00  -1.29790520e+00
C     9.818063004299999e+00   4.342663212287400e-01   3.303291900000000e+00 -1.97522090e-01   1.45299173e+00  -6.52373700e-02
C     1.202812082300000e+00   1.162250608350031e+00   3.233964900000000e+00 -2.53272290e-01  -7.78465410e-01   8.81115280e-01
C     7.420414642999999e+00   8.080534270868259e+00   1.319031000000000e-01  1.39485371e+00   2.92561220e-01   6.04723850e-01
C     3.761025761500000e+00   2.499369221397048e-01   1.117728000000000e-01 -1.23692706e+00   4.79420540e-01  -8.81643200e-02
C     2.431458005500000e+00   4.371142520040296e-01   3.366952200000000e+00 -5.18522400e-02  -8.92134700e-02  -4.57516170e-01
C     3.643588428699999e+00   1.185579014201182e+00   3.349420200000000e+00  4.98493060e-01  -1.14773610e+00   2.39357600e-01
C     9.936460996899999e+00   8.077223611115057e+00   1.218309000000000e-01 -1.58086054e+00   1.60261816e+00  -3.68985600e-01
C     6.204204989900000e+00   3.012522763994744e-01   1.453467000000000e-01 -1.83799510e-01  -1.81971261e+00  -4.99316790e-01
C     4.894444494900000e+00   4.645746850264520e-01   3.366679800000000e+00 -9.94106990e-01  -1.00906707e+00   1.12364090e-01
C     6.130599892699999e+00   1.128855563044009e+00   3.311189400000000e+00 -3.38920110e-01   2.00333190e-01   4.46981760e-01
C     1.236451873210000e+01   8.126457837740643e+00   7.748430000000001e-02  8.08304400e-02  -1.36339207e+00   3.21091490e-01
C     8.659572558699999e+00   2.511344329694200e-01   1.553748000000000e-01  1.06067100e-01   1.76468734e+00  -3.86177420e-01
C     7.334591526800000e+00   4.548339796016016e-01   3.290862000000000e+00  2.33246484e+00  -9.06121110e-01   4.18479980e-01
C     8.587701095999998e+00   1.180710668156219e+00   3.278061300000000e+00 -3.69691110e-01  -3.48275980e-01  -1.47239990e-01
C     1.257783061300000e+00   1.677558030951202e+00   1.172571000000000e-01  7.96475700e-02   1.05897182e+00   1.28052940e-01
C     2.488498204100000e+00   2.390792714490180e+00   5.053680000000000e-02 -7.51991000e-03  -4.39237410e-01  -5.56283820e-01
C     1.107334764020000e+01   2.589226082579136e+00   3.193559400000000e+00 -3.36956590e-01  -2.43430320e-01   2.74657550e-01
C     2.430751832300000e+00   3.309513903384489e+00   3.216234000000000e+00  3.36047490e-01  -4.58530910e-01   1.70625850e-01
C     3.712502778799999e+00   1.695073505418093e+00   3.889590000000000e-02  1.43941903e+00  -7.85271860e-01   2.35461720e-01
C     4.974832236799999e+00   2.418844815548762e+00   1.841220000000000e-02 -2.21676760e+00   1.56854980e-01   2.61863470e-01
C     3.644820879400000e+00   2.604973896486561e+00   3.322772700000000e+00  8.08834730e-01  -1.06957195e+00  -4.87029500e-02
C     4.913013684999999e+00   3.231069002758397e+00   3.380226600000000e+00 -3.69369200e-02   2.08172207e+00   4.58020000e-03
C     6.151304413700000e+00   1.697670987016004e+00   1.423776000000000e-01  1.38479372e+00   1.29959970e-01  -2.94241660e-01
C     7.390785638800000e+00   2.384655471487890e+00   1.584768000000000e-01  1.10591965e+00  -4.42137140e-01   7.72682000e-03
C     6.171564938900000e+00   2.512996201271556e+00   3.379452600000000e+00 -2.09501249e+00   2.96906206e+00  -6.60148360e-01
C     7.326793893700000e+00   3.325150710155674e+00   3.269085300000000e+00  1.68764424e+00  -1.17535286e+00   8.44408410e-01
C     8.633717765300000e+00   1.693430855972055e+00   1.646874000000000e-01  6.87345550e-01  -8.71114110e-01  -1.53636250e-01
C     9.882228236100000e+00   2.382580748111564e+00   1.009533000000000e-01 -2.98657450e-01   7.78170900e-01  -1.40432780e-01
C     8.579822462999999e+00   2.610051533678389e+00   3.230504100000000e+00  6.68213770e-01  -6.25181100e-02   3.69315660e-01
C     9.851486530899999e+00   3.303124161842305e+00   3.238690500000000e+00 -1.66594191e+00  -3.02232400e-01  -7.45281100e-02
C     2.504742652700000e+00   3.787910257724393e+00  -7.510140000000121e-02 -6.74663850e-01   1.61356739e+00   2.23482710e-01
C     3.706898305500000e+00   4.533220367889814e+00  -6.075690000000122e-02  1.39506933e+00  -2.52712090e-01   3.64982260e-01
C     1.231066686310000e+01   4.711623864485938e+00   3.200376600000000e+00 -7.87462690e-01   1.88303470e-01   2.96995380e-01
C     3.644815259200000e+00   5.431586007431584e+00   3.301007700000000e+00  1.76123407e+00  -4.70175220e-01   1.92611150e-01
C     4.966840312400000e+00   3.849844640026986e+00  -2.625299999998276e-03  4.05478000e-02  -6.66215600e-01   3.58321830e-01
C     6.208136221200000e+00   4.528297884518408e+00   1.479537000000000e-01  2.15388790e-01   4.96371150e-01  -5.32189870e-01
C     4.887150757100000e+00   4.700843876095567e+00   3.382719300000000e+00  3.14488070e-01  -5.17653340e-01  -3.72193590e-01
C     6.112151536899999e+00   5.441582541610415e+00   3.373531500000000e+00 -4.68466550e-01   3.80028390e-01   4.92304090e-01
C     7.451714720000000e+00   3.767883972615963e+00   1.743171000000000e-01 -9.32177140e-01   2.66998064e+00  -2.16541080e-01
C     8.693820923600001e+00   4.515605840901356e+00   1.264923000000000e-01 -1.52389214e+00  -3.11133470e-01  -2.85047160e-01
C     7.343447877400000e+00   4.745442017761246e+00   3.363412800000000e+00 -8.58813800e-02  -3.23112670e-01  -4.37258290e-01
C     8.587854320400000e+00   5.441534808541832e+00   3.334479000000000e+00  3.19460230e-01  -7.99674760e-01   3.91928700e-01
C     9.898921068200000e+00   3.824998339672911e+00   1.489410000000000e-02  8.77029590e-01  -9.30761370e-01   3.17156360e-01
C     1.113757030650000e+01   4.531685907706557e+00  -6.585719999999995e-02 -2.66449150e-01   3.78125540e-01  -1.93040840e-01
C     9.815946160899999e+00   4.715214518392778e+00   3.304567500000000e+00  9.39609920e-01   2.16264460e-01  -7.06534160e-01
C     1.108403514070000e+01   5.398429627468477e+00   3.215862900000000e+00 -1.40644965e+00   9.52471720e-01   7.37919760e-01
C     3.733436988500000e+00   5.948388525377698e+00   4.991040000000000e-02  4.76430740e-01   8.48116100e-01  -9.03011860e-01
C     4.957434809100000e+00   6.712584365021735e+00   7.005839999999999e-02  9.36662340e-01  -2.19681017e+00   5.23021620e-01
C     1.355063862320000e+01   6.854059800725738e+00   3.336571200000000e+00 -2.04803110e+00  -4.90376110e-01   1.38686280e-01
C     4.873698956299999e+00   7.555310751566978e+00   3.370978800000000e+00  1.53895667e+00   1.38338106e+00  -5.28373900e-02
C     6.214267415700000e+00   5.978907290393638e+00   1.421580000000000e-01 -1.66715113e+00  -1.39005892e+00  -9.79973400e-02
C     7.430762466500000e+00   6.634209228111264e+00   1.687128000000000e-01  1.24258120e-01   1.80236740e+00  -2.77756860e-01
C     6.108448416700000e+00   6.889031915877312e+00   3.400344900000000e+00  6.43621630e-01  -2.28880367e+00  -1.10918950e-01
C     7.368160882800000e+00   7.518859509020059e+00   3.404200800000000e+00 -6.10799470e-01   2.74361659e+00  -4.59831800e-02
C     8.646782511800000e+00   5.929296578795991e+00   1.177899000000000e-01  1.03692091e+00   7.63622600e-01  -2.41566430e-01
C     9.865667873100000e+00   6.691781798470569e+00   2.640630000000000e-02  1.48152917e+00  -2.10208932e+00   9.88787300e-02
C     8.603902111300000e+00   6.851194364978964e+00   3.383491200000000e+00 -3.88013490e-01  -4.13928450e-01   1.20055180e-01
C     9.815480127999999e+00   7.561180381980825e+00   3.389388300000000e+00  1.49230987e+00   1.18564800e-01  -4.05100610e-01
C     1.112150067570000e+01   5.978554800041024e+00  -8.354729999999932e-02  6.48115270e-01  -5.18892750e-01   6.75033560e-01
C     1.240304347760000e+01   6.680038011967319e+00  -1.427100000000792e-03 -2.76512370e+00   4.76556070e-01  -4.87967300e-02
C     1.107621054050000e+01   6.811350146617817e+00   3.316276800000000e+00 -1.14720580e-01   1.89687444e+00   1.67561610e-01
C     1.232076182690000e+01   7.577803871412976e+00   3.351642600000000e+00 -1.29951252e+00  -1.15603818e+00  -6.25897970e-01
