64
Lattice="9.86 0 0 4.93 8.53901048131456 0 0 0 30 " PBC="1 1 1" Properties=species:S:1:pos:R:3:force:R:3 Energy="-509.74635034"
C     4.958381221199999e+00   7.609898340032788e+00  -7.104390000000009e-01  2.21930497e+00   1.86221366e+00   4.43473830e-01
C     6.280694235700000e+00   8.374761844906256e+00  -5.945588999999991e-01 -3.97912200e+00   3.90692960e-01  -5.18579230e-01
C     9.821077995100000e+00   7.891795326767351e-01   3.700983900000000e+00 -1.27466948e+00   3.58440913e+00  -1.50820413e+00
C     1.102850613500000e+00   1.622941324459655e+00   3.760246800000000e+00  2.72080686e+00  -1.40722230e+00   3.98531330e-01
C     7.445375479499999e+00   7.700337134779089e+00  -7.250597999999968e-01  6.33433800e-01  -4.64640267e+00  -1.15396150e-01
C     8.636509427100000e+00   8.356590318264187e+00  -6.418827000000000e-01  2.10447300e+00   2.57275328e+00   1.20111984e+00
C     2.370811955600000e+00   8.900043258698591e-01   3.714850200000000e+00 -7.19990750e-01   2.65626530e-01   1.90565010e-01
C     3.597027487399999e+00   1.570526743380795e+00   3.868942200000000e+00  9.98905440e-01   1.49636134e+00   4.95462920e-01
C     9.873443567699999e+00   7.776810975616082e+00  -3.346698000000004e-01  7.32341060e-01  -4.95898790e+00  -1.71467353e+00
C     1.112118648680000e+01   8.365549704230119e+00  -5.558678999999991e-01  1.20580661e+00   1.73654741e+00   1.07180048e+00
C     4.871671691000000e+00   9.064743692836832e-01   3.815977500000000e+00  2.16939270e-01   1.02165244e+00   3.96451490e-01
C     6.085047087100000e+00   1.654346097202999e+00   3.852480300000000e+00  1.93095018e+00  -2.26365401e+00  -3.69922970e-01
C     1.234869698170000e+01   7.623642133570663e+00  -5.280669000000024e-01  1.91590170e-01  -2.33410900e-01   3.50381210e-01
C     1.361044031200000e+01   8.316484891572458e+00  -6.205844999999997e-01 -3.29291280e-01   2.29934991e+00  -2.20157920e-01
C     7.384088036600000e+00   8.999160676746241e-01   3.718415100000000e+00 -1.78008181e+00   4.40167133e+00  -7.66935800e-02
C     8.650172823500000e+00   1.620382866139638e+00   3.621693000000000e+00 -2.77060847e+00  -2.28702172e+00   5.72236000e-01
C     1.380901972600000e+00   1.244560948240210e+00  -3.347382000000003e-01 -2.63104027e+00   2.18982500e-01   1.08815780e-01
C     2.573226268700000e+00   1.959875649342010e+00  -1.391033999999998e-01  4.44912780e-01  -1.22040681e+00  -1.63766402e+00
C     1.095280909090000e+01   3.051494551655149e+00   3.986940300000001e+00  1.10346889e+00  -7.30758250e-01   1.08849000e-03
C     2.386636861200000e+00   3.695313484249588e+00   4.285542000000000e+00  5.29056480e-01  -1.11703885e+00  -5.95109630e-01
C     3.776441970100000e+00   1.221658724402116e+00  -5.034492000000022e-01 -6.42913780e-01   2.16802475e+00   1.96993413e+00
C     5.022851324199999e+00   1.960221393876346e+00  -3.946472999999990e-01 -1.13727788e+00  -2.19852525e+00  -1.21962685e+00
C     3.649619741400000e+00   3.002351607051597e+00   4.173687900000000e+00 -7.82440560e-01  -1.25988862e+00  -6.27918760e-01
C     4.926852638700000e+00   3.712114585099721e+00   4.126359300000000e+00 -2.95729399e+00   3.77296490e-01   1.33319110e-01
C     6.249926746600000e+00   1.281573630726189e+00  -5.952270000000013e-01 -1.24153985e+00  -2.20173432e+00   1.47820020e-01
C     7.444817699300000e+00   1.953693064194071e+00  -6.593871000000000e-01  3.04570613e+00   6.92648760e-01   3.15394020e-01
C     6.118032780399999e+00   3.040211359377192e+00   3.951904800000000e+00  7.78736180e-01  -7.91418890e-01  -1.24043478e+00
C     7.338009890199999e+00   3.687500118880177e+00   3.658548000000000e+00 -5.30231900e-01   2.89807940e+00   1.47459155e+00
C     8.738697678299999e+00   1.296015573760908e+00  -6.044711999999990e-01 -1.03270323e+00  -2.81116025e+00   2.72725880e-01
C     9.961984395699998e+00   1.980817743324420e+00  -3.556632000000022e-01 -6.48321320e-01  -1.64988480e-01   7.12406450e-01
C     8.548555071899999e+00   3.034279223406631e+00   3.615340500000000e+00  1.71275349e+00  -1.10447055e+00   2.68976110e-01
C     9.728141579100001e+00   3.766343449735266e+00   3.835137300000000e+00  2.00904953e+00   1.73577083e+00   1.14414970e+00
C     2.500960849700000e+00   3.369517017686820e+00   1.558110000000000e-02  2.30532796e+00  -2.00898020e-01  -4.17165500e-01
C     3.715971822600000e+00   4.088869816844613e+00  -2.030574000000023e-01  1.51143813e+00  -1.38318870e-01  -3.02658170e-01
C     1.235639138060000e+01   5.087332555106402e+00   4.412812799999999e+00 -3.86142345e+00   1.92581962e+00  -1.34353584e+00
C     3.597559040000000e+00   5.859022230347687e+00   4.126690800000000e+00  3.27836084e+00   7.99397390e-01  -7.56525100e-01
C     4.942033982100000e+00   3.324697459479396e+00  -3.924437999999988e-01  1.28353028e+00   3.85278434e+00  -4.35848230e-01
C     6.203435762000000e+00   4.074663123548618e+00  -6.718836000000010e-01 -1.75050390e-01  -4.84857470e-01   7.52871530e-01
C     4.891340468299999e+00   5.107849491757012e+00   3.999774900000000e+00 -1.02743551e+00   1.98895794e+00  -1.78943990e-01
C     6.106114604000000e+00   5.769501635398300e+00   3.682984500000000e+00  3.29528750e-01   3.45076944e+00  -1.96341460e-01
C     7.462823883399999e+00   3.359252870919545e+00  -6.702687000000012e-01 -4.19215600e-01   2.04658550e+00   4.83025760e-01
C     8.699450293400000e+00   4.135541486425149e+00  -4.689399000000023e-01 -4.46574400e-01  -2.55829944e+00   1.32819810e-01
C     7.370206044000000e+00   5.151962617627426e+00   3.726041100000000e+00  1.55509520e-01  -9.42229110e-01  -1.16724976e+00
C     8.611483268099999e+00   5.943783607806044e+00   3.701042400000000e+00 -9.71908500e-01  -1.38032603e+00   1.05285635e+00
C     9.865919549599999e+00   3.411356034286200e+00  -7.754279999999980e-02  1.84175697e+00  -1.43186235e+00  -1.72784595e+00
C     1.116732965990000e+01   4.052681405040268e+00   4.808940000000000e-02 -3.51995613e+00   1.23202862e+00  -2.66266980e-01
C     9.792249622899998e+00   5.230046830450842e+00   4.051281900000000e+00  1.49061100e+00  -1.42883354e+00  -1.39580322e+00
C     1.112408123490000e+01   5.858016591083457e+00   4.230764700000000e+00 -2.60891612e+00   8.42748690e-01  -1.23155500e-01
C     3.769756692900000e+00   5.524122837052820e+00  -3.782223000000009e-01 -4.81375580e-01  -1.23605342e+00  -3.23654800e-01
C     4.985818889700000e+00   6.211493882529135e+00  -7.478484000000023e-01 -4.41814600e-02  -5.57387150e-01   1.41696096e+00
C     1.338022957430000e+01   7.317773411935387e+00   3.831206100000000e+00  4.10399154e+00  -2.44466710e+00  -3.82503910e-01
C     4.816288514700000e+00   7.938917770711128e+00   3.518240700000000e+00  7.25823060e-01  -4.82873080e-01   1.43847677e+00
C     6.241597117200000e+00   5.511548717170496e+00  -7.526976000000012e-01 -3.15085500e-01  -9.23816430e-01  -3.15305930e-01
C     7.494518705499999e+00   6.189549479496583e+00  -7.893006000000007e-01 -1.51427020e+00   2.33681665e+00   1.83514440e-01
C     6.112226029200000e+00   7.277343844405835e+00   3.461093700000000e+00 -2.43668648e+00  -3.07361077e+00   1.41499358e+00
C     7.310299740600000e+00   7.974117877442517e+00   3.590645700000000e+00  7.65590000e-02   2.51503149e+00  -6.04475080e-01
C     8.718929758700000e+00   5.518419119612600e+00  -6.058863000000017e-01 -4.20354700e-02   1.92114332e+00   1.45942158e+00
C     9.885330438599999e+00   6.302978876839444e+00  -2.528958000000010e-01  1.09936554e+00  -1.78734458e+00  -6.83428240e-01
C     8.559293548599999e+00   7.346941049323075e+00   3.656088000000000e+00  2.05155255e+00  -3.45106200e-01   8.20061770e-01
C     9.844907988199999e+00   8.059178717998408e+00   3.844599300000000e+00 -1.62560854e+00  -2.70887758e+00  -2.51874580e-01
C     1.111980958710000e+01   5.453607517728771e+00  -1.059419999999989e-01  6.98223310e-01   3.56948722e+00  -2.15960600e-02
C     1.237507677080000e+01   6.190177694497597e+00  -2.807432999999975e-01 -6.27409020e-01   8.60403460e-01  -4.24364150e-01
C     1.106946881480000e+01   7.314156201705954e+00   4.055305499999999e+00 -1.24571690e+00  -1.02991370e-01  -4.78416330e-01
C     1.223411500630000e+01   8.098736452557951e+00   3.856197900000000e+00  3.77134390e-01  -3.47777802e+00   7.92487980e-01
