64
Lattice="9.86 0 0 4.93 8.53901048131456 0 0 0 30 " PBC="1 1 1" Properties=species:S:1:pos:R:3:force:R:3 Energy="-515.2455222"
C     9.844465520700000e+00   4.982709866222088e-01   1.598010000000000e-02 -3.63709310e-01   2.64936700e-02  -6.03709830e-01
C     1.209040742900000e+00   1.209481924677426e+00   6.238500000000000e-03  4.25143110e-01  -7.70180360e-01   6.64587830e-01
C     1.241512779500000e+00   2.430232269144680e-01   3.232074300000000e+00  2.89553380e-01  -5.04469740e-01  -6.94102000e-03
C     2.484333981000000e+00   9.386372353774416e-01   3.302511000000000e+00 -2.97584710e-01  -8.42879380e-01  -3.53886860e-01
C     2.439194260100000e+00   4.725378246396808e-01  -1.154760000000010e-02  2.41673230e-01   1.83078233e+00  -1.97703200e-02
C     3.674510276099999e+00   1.236479372551623e+00   3.066180000000000e-02 -1.78773200e-01  -1.76008293e+00   4.21930510e-01
C     3.707568982700000e+00   2.347226256070696e-01   3.282042300000000e+00  4.77523180e-01  -1.07727593e+00   3.96178170e-01
C     4.928210360700000e+00   9.425603129622681e-01   3.376233900000000e+00  5.01850540e-01   8.23654670e-01  -6.83981200e-01
C     4.909902016900000e+00   5.180346971583784e-01   1.621800000000000e-02 -4.29871670e-01  -1.17774108e+00  -1.05044340e-01
C     6.148281879999999e+00   1.202454746002910e+00  -2.971800000000968e-03 -6.78537140e-01  -9.40051820e-01  -3.82311910e-01
C     6.147365836700000e+00   2.078812708444472e-01   3.359591700000000e+00  9.96930070e-01   9.05100380e-01   3.80924580e-01
C     7.388037360999999e+00   9.395942876720399e-01   3.258112800000000e+00  2.10150950e-01  -2.79479840e-01   5.33668900e-01
C     7.360994585499999e+00   4.931052268422280e-01  -5.579189999999912e-02  1.05810153e+00  -4.86087070e-01   5.72155960e-01
C     8.606030885299999e+00   1.180050858816430e+00  -2.753339999999938e-02 -1.00303260e-01   1.45380513e+00   2.51751920e-01
C     8.619231650500000e+00   1.901235446502392e-01   3.223107300000000e+00  6.04572900e-01   8.65113040e-01   2.91061240e-01
C     9.887064861899999e+00   9.195828604418456e-01   3.217971900000000e+00 -1.86803798e+00   1.00565955e+00   4.10949380e-01
C     1.107366882970000e+01   2.605966044114233e+00   1.708107000000000e-01  2.70472350e-01   8.23330930e-01   8.16793900e-02
C     2.452177760200000e+00   3.308985765586301e+00   2.982315000000000e-01 -3.85322480e-01   2.03085050e+00  -6.20510080e-01
C     2.488957532200000e+00   2.326995974001899e+00   3.382533300000000e+00  1.03831030e-01   1.64058760e+00   6.29198650e-01
C     3.712621986199999e+00   3.069663431203970e+00   3.432927000000000e+00  2.53535880e-01   1.60597240e-01  -1.77003550e-01
C     3.653581686600000e+00   2.624699693816200e+00   2.191368000000000e-01  2.80332239e+00   9.40312500e-01  -1.00346868e+00
C     4.971569661399999e+00   3.366155123870739e+00   9.684660000000000e-02 -2.64460928e+00  -1.58595658e+00  -2.13194500e-02
C     4.957037796200000e+00   2.403605243545106e+00   3.333959400000000e+00  4.56160200e-02  -1.56581978e+00   5.65282580e-01
C     6.201244574200000e+00   3.120909448698642e+00   3.310756800000000e+00 -1.23100961e+00  -2.25473156e+00  -2.75552920e-01
C     6.155332765999999e+00   2.588793496308219e+00  -5.927430000000200e-02 -8.61064290e-01   1.50831563e+00   6.14810760e-01
C     7.365771903399999e+00   3.275974975751879e+00  -8.184390000000263e-02  1.47972016e+00   1.67401061e+00   1.66970580e-01
C     7.418148469900000e+00   2.389169790158352e+00   3.305356200000000e+00 -8.88534670e-01  -1.46056473e+00  -3.24457370e-01
C     8.631795459699999e+00   3.078005617492406e+00   3.345453600000000e+00  1.35432193e+00  -1.81403579e+00  -1.08163440e-01
C     8.606505742900000e+00   2.629013858081010e+00   3.082950000000000e-02  8.17282530e-01  -1.71116317e+00  -5.43677550e-01
C     9.854007289199998e+00   3.324190327646989e+00   1.477230000000000e-01 -1.14592874e+00   8.50451780e-01  -3.65443370e-01
C     9.875833483799999e+00   2.354756638632798e+00   3.333631200000000e+00  1.44207740e-01  -4.17283180e-01   2.02008810e-01
C     1.112252281260000e+01   3.050484642885680e+00   3.469014300000000e+00 -8.74261270e-01   1.28280060e-01  -5.49671990e-01
C     1.234934029740000e+01   4.782732901208663e+00   2.770917000000000e-01 -1.52812029e+00  -8.11871740e-01   1.00335790e-01
C     3.689475143200000e+00   5.521550460145720e+00   1.627647000000000e-01  1.28719459e+00  -1.10082510e+00   1.66875900e-02
C     3.724440034300000e+00   4.497073882626926e+00   3.504984600000000e+00 -1.04221930e-01  -1.80508810e-01  -6.24524550e-01
C     4.946659998299999e+00   5.205006011438033e+00   3.393901200000000e+00 -2.40614500e-01  -2.11466180e-01  -5.21505250e-01
C     4.960027348200000e+00   4.775456981158864e+00   7.256430000000000e-02 -1.17512768e+00   1.14827920e-01   1.92703460e-01
C     6.193161888500000e+00   5.443512357978896e+00  -3.908699999999854e-02 -3.56013820e-01   1.17552946e+00  -3.18360920e-01
C     6.154358795200000e+00   4.499790910371557e+00   3.234658500000000e+00  7.28655080e-01   4.60700400e-01   1.46367332e+00
C     7.383306385099999e+00   5.162503769894671e+00   3.328260300000000e+00  8.46761780e-01   2.63490896e+00  -7.72302080e-01
C     7.414811500799999e+00   4.699289690798103e+00  -1.102290000000004e-01 -1.67939965e+00   8.33107820e-01   1.26173140e-01
C     8.605760622699998e+00   5.440843917203895e+00  -9.121860000000126e-02  7.29051080e-01   9.71649660e-01   4.98960820e-01
C     8.628791068399998e+00   4.446659479362901e+00   3.373473000000000e+00  4.17393300e-02   3.22958986e+00   2.58695660e-01
C     9.861045012100000e+00   5.204471469381985e+00   3.464009700000000e+00  4.91820320e-01  -1.05311207e+00  -1.87746130e-01
C     9.813943397699999e+00   4.772990146421296e+00   1.242921000000000e-01  2.23395013e+00  -1.16050820e+00   2.04259460e-01
C     1.107511341830000e+01   5.479425045134841e+00   2.613954000000000e-01  2.36207920e-01   1.35191950e-01  -6.03567310e-01
C     1.109790535060000e+01   4.478542607473335e+00   3.517075800000000e+00  9.82103350e-01   4.99173940e-01  -2.67937700e-02
C     1.237466866540000e+01   5.215039604922347e+00   3.493637100000000e+00 -2.45819236e+00  -1.33606931e+00   4.35612750e-01
C     1.355795237680000e+01   6.954269870554406e+00   8.524890000000000e-02 -1.04301831e+00  -2.31009932e+00  -2.38619100e-02
C     4.888328238300000e+00   7.629101976871575e+00  -3.018900000000713e-03  2.72383733e+00  -2.93918740e-01  -1.24925900e-02
C     4.944214028099999e+00   6.606680824565422e+00   3.312649500000000e+00 -7.14335110e-01   1.05051398e+00  -1.58235800e-02
C     6.135316374399999e+00   7.372841405130802e+00   3.225123000000000e+00  1.74570820e+00  -1.45606626e+00   2.67051010e-01
C     6.139797645800000e+00   6.890648948291909e+00  -4.750169999999798e-02  9.08372500e-02  -1.32960340e-01   2.18176700e-02
C     7.358032592199999e+00   7.617540583632180e+00  -6.192720000000307e-02  1.34962740e+00  -1.38512272e+00  -5.07623380e-01
C     7.379977304000001e+00   6.645388927582205e+00   3.264971700000000e+00  1.27793822e+00  -1.27242904e+00   1.59415500e-02
C     8.675282447400001e+00   7.320687349261687e+00   3.254797200000000e+00 -1.84355267e+00   9.38222760e-01   6.99589880e-01
C     8.637681928999999e+00   6.882412218782901e+00  -1.047185999999982e-01 -2.00609179e+00   7.47443300e-02   5.99087980e-01
C     9.836639244299999e+00   7.596672864431050e+00   2.013990000000000e-02  1.02052162e+00   1.08463088e+00   1.00367760e-01
C     9.905029338199999e+00   6.627126545868629e+00   3.414068400000000e+00 -1.67834848e+00  -7.61602700e-01   2.09170810e-01
C     1.111076037490000e+01   7.329276312952994e+00   3.512730000000000e+00 -3.48739710e-01   6.70291710e-01  -1.32546116e+00
C     1.109926267820000e+01   6.908531685599544e+00   1.807128000000000e-01 -7.80504960e-01  -5.36917600e-01  -8.01051650e-01
C     1.233178969460000e+01   7.613133771103661e+00   6.648480000000000e-02 -1.48550572e+00   8.37286220e-01   1.64795260e-01
C     1.230772646320000e+01   6.610824379400841e+00   3.437123700000000e+00  2.13911730e+00   5.02038930e-01   3.07061710e-01
C     1.356287651010000e+01   7.303702318125813e+00   3.316551900000000e+00 -6.18045280e-01   7.20956380e-01   9.07944900e-02
