64
Lattice="9.86 0 0 4.93 8.53901048131456 0 0 0 30 " PBC="1 1 1" Properties=species:S:1:pos:R:3:force:R:3 Energy="-510.73366871"
C     4.988367798299999e+00   8.424730084872701e+00  -2.073356999999980e-01 -1.19712049e+00  -2.49579105e+00  -6.33684100e-02
C     1.282893128900000e+00   5.360605482816585e-01  -1.475624999999994e-01  1.45326459e+00   2.03100913e+00  -9.37288250e-01
C     1.116453173700000e+00   8.609897075499719e-01   3.798548700000000e+00  3.03690284e+00   1.02902027e+00  -8.19193130e-01
C     2.425380350800000e+00   1.586243816850493e+00   3.634559100000000e+00 -4.36455270e-01  -2.43101216e+00   4.81742460e-01
C     7.476860924500000e+00   8.350995387817482e+00  -1.741016999999978e-01 -6.38084740e-01   2.70029307e+00   7.63754290e-01
C     3.770567184900000e+00   5.695191238256520e-01  -1.862861999999978e-01 -1.67634607e+00   1.28095290e+00  -1.90982181e+00
C     3.713795819200000e+00   7.910633237787280e-01   3.788658000000000e+00 -3.06326013e+00   2.49222242e+00  -3.21553730e-01
C     4.885048062800000e+00   1.583964413392962e+00   3.785896800000001e+00  4.85580330e-01  -2.34398921e+00   2.46999670e-01
C     9.899579568299998e+00   8.392721945648841e+00  -3.591549000000001e-01 -6.72747520e-01  -1.39529010e+00   2.28630940e-01
C     6.168974470400000e+00   5.081655650159088e-01  -3.509372999999982e-01  1.88370073e+00   3.92928278e+00   1.47522321e+00
C     6.124255377100000e+00   8.904317033443833e-01   3.950098200000000e+00  8.22405300e-01  -1.24459251e+00  -1.80215380e-01
C     7.422640784500000e+00   1.534330817247228e+00   3.896865599999999e+00 -3.09430998e+00   1.09038014e+00  -6.09909550e-01
C     1.236003558730000e+01   8.348839800011911e+00  -2.691843000000027e-01  1.38207520e-01   4.31424650e+00  -8.05880370e-01
C     8.684208606799999e+00   5.797327196508848e-01  -1.727190000000007e-01 -7.06717650e-01  -9.07134790e-01  -2.83532560e-01
C     8.612835123400000e+00   8.977727760441441e-01   3.744874800000000e+00 -1.44521916e+00  -4.17076668e+00   7.47098030e-01
C     9.744577706099999e+00   1.607050909077214e+00   3.634310400000000e+00  4.88079400e+00   1.44585520e-01   3.29903200e-01
C     1.297993718900000e+00   2.014038422036441e+00  -3.540107999999975e-01 -3.72742571e+00  -2.29780202e+00   8.67659080e-01
C     2.452737512400000e+00   2.667767388633547e+00  -5.860338000000027e-01  2.52489272e+00   3.40911774e+00   2.38853460e-01
C     2.438935977400000e+00   2.976948733994435e+00   3.385189200000000e+00  1.89109480e-01   1.54324020e-01   4.79422970e-01
C     3.713926858600000e+00   3.674194291189822e+00   3.391249500000000e+00 -3.20063158e+00   1.91326428e+00   5.31310880e-01
C     3.700715247400000e+00   2.047923521153911e+00  -4.455983999999980e-01 -4.28515850e-01  -3.85980017e+00   8.62468740e-01
C     4.892427484000000e+00   2.734007054630051e+00  -4.045439999999978e-01  2.47724745e+00   2.17912300e-01   5.87133570e-01
C     4.839674906400000e+00   2.955335986128926e+00   3.640239900000000e+00  4.30428839e+00   1.41266211e+00   6.72381490e-01
C     6.168932220299999e+00   3.645751786572095e+00   3.878987700000000e+00 -1.34638754e+00   4.27618000e-03  -4.01923840e-01
C     6.134400577599999e+00   2.037094177282965e+00  -1.997943000000006e-01  8.61572760e-01  -2.39190170e+00  -1.38073523e+00
C     7.387066643999999e+00   2.739859692413043e+00  -2.126838000000006e-01  6.45515010e-01  -2.03828521e+00   7.21615520e-01
C     7.440290135200000e+00   2.950294895901954e+00   3.850315800000000e+00 -3.47449760e+00  -4.04000210e-01   3.19119570e-01
C     8.570940969399999e+00   3.685133275955331e+00   3.730008000000000e+00  2.69413964e+00   3.05453430e+00   7.61321400e-01
C     8.671485952999999e+00   1.973037594705777e+00  -1.813140000000004e-01 -1.21804613e+00   2.69423178e+00  -4.46707500e-02
C     9.881274675500000e+00   2.761460400273775e+00  -2.981273999999985e-01  1.30412260e+00  -3.30948735e+00  -7.51325420e-01
C     9.841660005600000e+00   3.025748495766797e+00   3.565184400000000e+00 -1.58064925e+00  -3.91819600e-01   2.86808100e-02
C     1.105735432580000e+01   3.706669343506729e+00   3.430193400000000e+00  6.83690300e-01   3.59356060e-01   5.47583400e-02
C     2.505894054200000e+00   4.148197666198185e+00  -7.033157999999986e-01 -1.43207960e-01  -1.77791872e+00  -6.86582000e-03
C     3.715760473500000e+00   4.851751246605463e+00  -6.352854000000008e-01  7.71548370e-01  -5.15928680e-01   9.97575100e-02
C     3.643544946100000e+00   5.144959689742672e+00   3.500226300000000e+00  7.47965840e-01  -2.36997780e+00   2.37618760e-01
C     4.870830583700000e+00   5.791438780271945e+00   3.725759700000000e+00  1.71806394e+00   6.45589150e-01   5.71536540e-01
C     4.935911858800000e+00   4.133720627830394e+00  -4.356338999999991e-01  1.66543357e+00   2.40261766e+00  -1.71497940e-01
C     6.233857460899999e+00   4.908457790521886e+00  -2.807913000000006e-01 -2.26310602e+00  -2.11958834e+00   8.54466460e-01
C     6.146344488600000e+00   5.043419156691115e+00   3.993651000000000e+00 -9.39171230e-01   2.06561174e+00  -1.66610503e+00
C     7.379108835199999e+00   5.864909536513227e+00   4.008914400000000e+00 -2.03515370e+00  -2.32799385e+00   3.76501030e-01
C     7.434230376400000e+00   4.138170476971731e+00  -1.708013999999984e-01  1.16904163e+00   1.51362470e+00  -1.04573650e+00
C     8.727151766199999e+00   4.845887935059372e+00  -3.171164999999974e-01 -2.27032988e+00   4.99724440e-01   2.24610690e-01
C     8.568737012900000e+00   5.159950093420522e+00   3.947670900000000e+00  2.30071160e+00  -2.41233744e+00  -2.07601304e+00
C     9.865917824099999e+00   5.804542404194134e+00   3.754310100000001e+00 -2.98354192e+00   1.11020219e+00   1.21315490e+00
C     9.926377914400000e+00   4.127127828618995e+00  -5.437200000000004e-01 -5.29891110e-01   1.31781637e+00   9.99910940e-01
C     1.117372061610000e+01   4.858631639689828e+00  -6.986862000000009e-01 -2.35525447e+00  -1.76501721e+00   3.19538780e-01
C     1.105854423060000e+01   5.152839915564140e+00   3.526566300000000e+00 -1.29449316e+00  -3.20153312e+00   1.78648170e-01
C     1.223976616670000e+01   5.800700020258343e+00   3.621851100000000e+00  3.73289789e+00   2.67524348e+00  -8.65285870e-01
C     3.716767031600000e+00   6.257745688964369e+00  -6.175737000000012e-01  3.58532290e-01   1.66017135e+00   6.69270400e-01
C     4.956150445500001e+00   6.929088584819201e+00  -3.499382999999980e-01 -6.68280400e-01   3.22695297e+00   7.45754460e-01
C     4.913240021299999e+00   7.242220417988555e+00   3.750551100000000e+00  1.01401192e+00  -5.55980940e-01   1.40291783e+00
C     6.156578527699999e+00   7.979218655352745e+00   3.976180800000000e+00 -2.87137844e+00   1.69710020e-01  -1.67670763e+00
C     6.180857890300000e+00   6.325608535463017e+00  -1.078757999999986e-01  1.20889328e+00  -2.70567493e+00  -1.55483847e+00
C     7.464877179100000e+00   6.965143873450162e+00  -1.036953000000018e-01 -2.21299780e+00   1.02400554e+00   1.01271160e-01
C     7.341531635699999e+00   7.250798195576135e+00   3.970713900000000e+00  9.09365180e-01   1.23343000e+00   4.05896090e-01
C     8.575060970399999e+00   7.937363926974081e+00   3.936457500000000e+00  1.28282522e+00  -3.66353030e-01   1.05861620e-01
C     8.650747267100000e+00   6.309394833143802e+00  -2.615966999999983e-01  1.08265238e+00  -4.14781045e+00  -4.35311760e-01
C     9.858916385999999e+00   6.943644267473513e+00  -4.595255999999992e-01  5.24935420e-01   1.82564249e+00   5.37771310e-01
C     9.819597368200000e+00   7.207806412561956e+00   3.948426000000000e+00  6.02568550e-01   1.55541132e+00  -4.74515000e-01
C     1.102585088630000e+01   7.988408338431321e+00   3.965973900000000e+00  2.01381750e+00  -1.06480206e+00  -1.15973745e+00
C     1.103705460710000e+01   6.216266164706198e+00  -6.126962999999996e-01  3.93748537e+00   3.93188020e+00  -5.77495690e-01
C     1.236365829920000e+01   7.062465964544390e+00  -6.184641000000006e-01 -1.28861015e+00  -6.22832836e+00   3.48307110e-01
C     1.233056163160000e+01   7.226505308491269e+00   3.741689100000000e+00 -2.05423848e+00   1.87153325e+00   1.33604649e+00
C     1.357655992230000e+01   7.959420788774655e+00   3.791983200000000e+00 -1.63708851e+00   3.04417400e-01  -9.61669330e-01
