76
Lattice="10.7446858958278 0 0 5.37234294791388 9.3051709414712 0 0 0 30 " PBC="1 1 1" Properties=species:S:1:pos:R:3:force:R:3 Energy="-613.47428187"
C     1.073796198301064e+01   2.381472398674200e-02  -1.387908000000024e-01  2.29572960e+00  -1.08262092e+00   1.50539950e-01
C     1.245782479809039e+01   8.499974864651117e+00  -2.255435999999982e-01  1.41172813e+00  -1.50027913e+00   5.43430300e-02
C     1.389404950222880e+01   8.320957426573635e+00  -2.153838000000015e-01 -9.45806770e-01   2.01209878e+00   2.38541700e-02
C     1.443223744182586e+01   7.037531395934392e+00  -1.933025999999991e-01  1.26650710e+00  -7.10809480e-01   2.36639200e-02
C     8.216999025535866e+00   8.980142900944859e+00  -1.371065999999992e-01 -1.07006960e+00   2.45549350e-01   3.82454250e-01
C     9.607216005395639e+00   8.817371639966654e+00  -1.458261000000007e-01  1.56910500e+00   4.18309000e-01  -1.80308910e-01
C     1.019994660306914e+01   7.521672368012679e+00  -1.764426000000014e-01  7.85819230e-01   5.76137800e-01   1.35619760e-01
C     1.163541036855211e+01   7.336832312271202e+00  -1.878716999999988e-01 -1.21855931e+00   7.82894800e-01   5.03867500e-02
C     1.218308172909480e+01   6.042213184559942e+00  -1.207661999999985e-01  1.37679046e+00  -2.10540770e-01  -1.76195600e-01
C     1.361936278911075e+01   5.886576384244852e+00  -1.639623000000014e-01 -1.28780984e+00  -8.32371580e-01   6.02714110e-01
C     5.970993654710682e+00   8.000883925785500e+00  -1.533960000000008e-01 -2.14287988e+00   6.06123820e-01  -4.29840600e-02
C     7.346318875977062e+00   7.843852745605051e+00  -1.537305000000018e-01  2.03350791e+00  -6.10660640e-01   1.53754420e-01
C     7.952359292138897e+00   6.524131895714336e+00  -1.285062000000003e-01 -1.00321972e+00   1.21770572e+00  -3.13485170e-01
C     9.363057845984681e+00   6.412684700831341e+00  -1.421688000000003e-01  3.78127900e-02  -2.27572334e+00   3.04940400e-01
C     9.940937890935214e+00   5.081453819746395e+00  -6.942390000000032e-02 -3.23652780e-01   9.46071900e-02  -2.43456530e-01
C     1.136548784916212e+01   4.888274097601654e+00  -4.007039999999762e-02 -1.40157691e+00   8.60382030e-01  -1.77441240e-01
C     1.190827204304662e+01   3.598981714994996e+00  -1.659599999999983e-03  7.64859420e-01  -1.14098133e+00  -1.12507890e-01
C     5.109854786231079e+00   6.864520445698682e+00  -1.620780000000011e-01  3.74175240e-01  -1.15608100e-02  -1.00146240e-01
C     5.692645098914483e+00   5.561937115231586e+00  -1.534680000000002e-01 -1.05671447e+00   2.42311500e-02   2.09772500e-01
C     7.082844564936238e+00   5.399505306889271e+00  -1.361115000000019e-01  1.29076412e+00  -2.93230780e-01   1.58992750e-01
C     7.667528574786086e+00   4.093940692704707e+00  -1.068837000000009e-01 -6.90467240e-01   3.68342600e-02  -2.50097710e-01
C     9.067780124254730e+00   3.944711805305739e+00  -8.919299999999808e-02  8.74711800e-01   1.98382290e-01   2.75863910e-01
C     9.632671670548765e+00   2.640381987304913e+00  -7.022699999999915e-02  5.45715050e-01  -6.41968540e-01  -6.73483400e-02
C     1.105307885395664e+01   2.448635540640061e+00  -3.077040000000153e-02  5.95362500e-02   3.88673570e-01   4.94138600e-02
C     3.425343545741780e+00   4.558274770971818e+00  -6.149849999999901e-02  6.88589460e-01   1.22115155e+00  -4.01546960e-01
C     4.848690260318177e+00   4.406486403254093e+00  -1.062926999999974e-01 -6.64033760e-01   5.64960740e-01  -1.49505470e-01
C     5.382759063405178e+00   3.114913974612008e+00  -1.428389999999986e-01  1.43815398e+00  -6.97278870e-01   3.99945450e-01
C     6.827564903490767e+00   2.945919136154002e+00  -1.449257999999993e-01 -9.36393270e-01  -1.33947710e-01  -3.06361900e-02
C     7.375055860757189e+00   1.635241888848165e+00  -1.758750000000013e-01  2.93119440e-01  -3.11868330e-01   9.02482300e-02
C     8.802341792078243e+00   1.480230023813406e+00  -1.291071000000024e-01 -1.01088236e+00   1.16965966e+00  -1.58186310e-01
C     9.368903599795436e+00   2.095895772008506e-01  -1.748450999999989e-01 -1.25925950e+00  -2.20945691e+00   4.38305400e-02
C     2.601100854174186e+00   3.423520341043946e+00  -1.033860000000075e-02 -1.34362407e+00  -1.78347060e-01  -1.67562600e-02
C     3.142769964555982e+00   2.109036813565102e+00  -3.058230000000250e-02 -3.78973190e-01   4.14311940e-01   7.37217900e-02
C     4.550086735961598e+00   1.960611055469966e+00  -9.080369999999860e-02  2.19857590e-01  -2.39669260e-01  -1.90402200e-01
C     5.114820711436910e+00   6.552023028986474e-01  -1.443234000000011e-01 -3.59382710e-01  -3.84813540e-01  -1.14299670e-01
C     6.527727781746008e+00   4.665237710927118e-01  -2.154333000000008e-01 -3.91989510e-01   1.87509663e+00   3.13874290e-01
C     8.783971978659020e-01   1.124710428415236e+00  -5.335709999999949e-02 -1.28435559e+00   1.40956055e+00  -4.93271400e-02
C     2.265598413010693e+00   9.846053541746475e-01  -4.047780000000145e-02  1.44685836e+00  -6.66325000e-01  -3.41525580e-01
C     1.070779933958187e+01   7.860543151564999e-03   3.488123400000000e+00  6.74716180e-01  -1.52402384e+00   4.14184310e-01
C     1.183024708882944e+01   8.786349595828334e+00   3.599004300000000e+00  1.93144882e+00   2.87382350e-01  -3.40399800e-02
C     1.327271402568832e+01   8.970506838126234e+00   3.575919300000000e+00 -1.20838554e+00   5.67559730e-01  -1.15856800e-02
C     1.410018356132540e+01   7.825863244730167e+00   3.567184200000000e+00  8.69318490e-01   3.69591670e-01  -4.08436000e-02
C     7.589764770159709e+00   8.338141937110500e+00   3.518098200000000e+00 -2.21574110e-01  -1.28163403e+00   2.38891750e-01
C     8.997583210949998e+00   8.471798900096505e+00   3.549654000000000e+00  9.88279240e-01   1.62957585e+00  -2.74986070e-01
C     9.875687186337688e+00   7.370943207903053e+00   3.564233700000000e+00 -3.21948710e-01  -1.95303979e+00  -4.26919600e-02
C     1.130214749599419e+01   7.479356637904481e+00   3.586950300000000e+00 -1.30692129e+00   1.06962832e+00  -1.98329490e-01
C     1.213167694908859e+01   6.352925404227311e+00   3.528363300000000e+00  6.45723750e-01  -2.64423910e-01   2.23814620e-01
C     1.354939258867851e+01   6.534424810549617e+00   3.543897300000000e+00 -3.98027070e-01  -1.13266861e+00  -7.08458300e-02
C     4.775160076830117e+00   7.980543566524334e+00   3.558421800000000e+00  1.13063170e-01   5.43715980e-01  -3.18788230e-01
C     5.616717883448990e+00   6.822793360704149e+00   3.553229400000000e+00 -1.04030780e-01   1.20645650e+00   2.88864000e-03
C     7.018123036119286e+00   7.008801773708852e+00   3.559770600000000e+00  6.51638200e-01   6.86207700e-01  -3.71097770e-01
C     7.887879787371844e+00   5.889918243336244e+00   3.527676600000000e+00  1.53440400e-01  -1.87937630e-01   4.45277380e-01
C     9.299351904878998e+00   6.042103383542850e+00   3.527769000000000e+00  1.88495500e-01   8.06864340e-01  -3.88984200e-02
C     1.013376589218354e+01   4.897133271698499e+00   3.482892600000000e+00  8.62144740e-01   4.49911450e-01   1.22485480e-01
C     1.155874950593337e+01   5.058605623865192e+00   3.486075000000000e+00 -3.71737190e-01  -4.98795600e-01  -3.22074560e-01
C     1.238349574720567e+01   3.906335419314991e+00   3.411296400000000e+00  1.76338862e+00  -2.39280400e-02   5.48834660e-01
C     3.652195293297037e+00   5.373250953185479e+00   3.523372800000000e+00 -5.48341820e-01   4.53762970e-01   2.10040700e-02
C     5.052012435114743e+00   5.537514577479043e+00   3.529163700000000e+00  9.85455600e-01  -1.15588006e+00   2.05218530e-01
C     5.941472254136426e+00   4.383784670763485e+00   3.543790800000000e+00 -1.06001018e+00   9.36625000e-01   1.55727230e-01
C     7.351098864393395e+00   4.580770486977815e+00   3.579381600000000e+00 -4.81046700e-01  -1.12505153e+00  -7.29031910e-01
C     8.186448069158672e+00   3.408665752258749e+00   3.514505100000000e+00  2.56436000e-03   1.35965646e+00   5.01883040e-01
C     9.603069147595964e+00   3.594241009556194e+00   3.477760200000000e+00 -6.89918970e-01  -9.11433660e-01  -4.15193300e-02
C     1.043299448864235e+01   2.439235550008182e+00   3.456660600000000e+00  9.32089400e-01  -1.94512220e-01  -1.63345780e-01
C     1.186878666544986e+01   2.577653875912476e+00   3.392656800000000e+00 -1.66046008e+00   1.58656711e+00   3.94840570e-01
C     3.087025620808480e+00   4.073030950033724e+00   3.498334800000000e+00 -9.81295030e-01   2.48029620e-01  -5.04936330e-01
C     3.953201168250568e+00   2.951750035420134e+00   3.488705400000000e+00 -1.52318673e+00  -5.55190230e-01   1.11802630e-01
C     5.334794302036713e+00   3.092714907455578e+00   3.539655300000000e+00  1.86379850e+00  -2.00925650e-01  -1.08250920e-01
C     6.188755129377393e+00   1.935600989224271e+00   3.557858700000000e+00  1.54021590e-01   5.23268570e-01   2.49269740e-01
C     7.606418764687561e+00   2.126995700427593e+00   3.572592900000000e+00 -3.16557110e-01  -5.41305540e-01  -4.45470560e-01
C     8.450285174518909e+00   9.898674283412174e-01   3.543479100000000e+00  3.90534640e-01  -1.08229782e+00   2.32989730e-01
C     9.877769989975974e+00   1.128111375342097e+00   3.509022300000000e+00 -1.12141239e+00   1.14037368e+00  -2.54725240e-01
C     1.963937273387550e+00   1.471628323796470e+00   3.448593900000000e+00  3.56908150e-01  -7.52144270e-01  -1.22470110e-01
C     3.373190183468918e+00   1.644610334950557e+00   3.476271000000000e+00  5.63178440e-01  -4.05979890e-01  -5.51754500e-02
C     4.219281065622142e+00   4.957983041284988e-01   3.511625100000000e+00 -6.40688360e-01  -6.79235020e-01   4.12877750e-01
C     5.637569396970537e+00   6.246814352671569e-01   3.585744600000000e+00 -7.44122000e-01   5.89702990e-01  -3.73966910e-01
C     1.387268852942531e+00   1.694397186806480e-01   3.485649900000000e+00 -3.49603680e-01   1.02246140e-01  -1.31829230e-01
