52
Lattice="8.88768389401873 1.33226762955019e-15 0 4.44384194700937 7.69696003302603 0 0 0 30 " PBC="1 1 1" Properties=species:S:1:pos:R:3:force:R:3 Energy="-416.16689267"
C     1.277954529969339e+01   6.978103679511754e+00  -2.445614999999997e-01 -2.43146120e+00   3.03207950e-01   7.59927570e-01
C     8.973656949153590e+00   6.671926460417585e+00  -2.059740000000012e-01  8.90696010e-01   1.81290532e+00   2.97615900e-02
C     1.037993806204211e+01   6.310646781438246e+00   7.243710000000000e-02 -2.00800676e+00   4.36195770e-01  -1.66053436e+00
C     1.071150248514315e+01   4.891453043263536e+00  -2.487300000002080e-03 -1.57906910e+00   1.90917102e+00  -5.79509980e-01
C     6.641978279581123e+00   6.170018549574928e+00  -4.268388000000023e-01 -2.94452780e+00  -1.90650398e+00  -2.94733580e-01
C     7.895255647850364e+00   5.664744527202350e+00  -3.136268999999992e-01  4.72503800e+00   4.50670776e+00   7.06990350e-01
C     8.291503390116187e+00   4.382728319770309e+00  -1.407515999999980e-01 -1.05817819e+00  -3.78771395e+00  -3.96448590e-01
C     9.623255940921872e+00   3.937010834113062e+00  -1.743117000000005e-01  2.77456448e+00   4.96502050e-01   4.42779100e-01
C     1.003940249634919e+01   2.572631766487999e+00  -3.833562000000015e-01 -1.87054045e+00   1.12258505e+00   1.25848737e+00
C     4.235361414607392e+00   5.633027894915530e+00  -2.046747000000018e-01 -1.09147880e+00  -3.33272965e+00  -2.12106300e-01
C     5.602283463772076e+00   5.186477521213436e+00  -2.997593999999992e-01 -1.64665323e+00   2.05742980e-01   1.67224530e-01
C     5.863251680595122e+00   3.787087445439114e+00  -1.980527999999993e-01  1.27980930e+00   3.48691290e-01   6.22625800e-02
C     7.256238151508724e+00   3.382607346777795e+00  -1.340514000000006e-01 -1.05742516e+00   1.75269580e-01  -1.37228760e-01
C     7.557513525696089e+00   2.009242386196109e+00  -1.117908000000014e-01  2.86552605e+00  -2.01194950e-01  -1.35262134e+00
C     8.982352611351264e+00   1.619821158924684e+00  -3.569321999999993e-01 -7.20270220e-01  -7.08443100e-01   4.58249010e-01
C     3.161313434152464e+00   4.569995511239410e+00  -1.397177999999997e-01  2.23794391e+00  -4.72566440e-01   8.37603990e-01
C     3.495793595258058e+00   3.134154249124613e+00  -1.298475000000003e-01  6.00906810e-01   4.08819781e+00  -9.65255510e-01
C     4.833171072387965e+00   2.791696408324235e+00  -2.085788999999991e-01  1.57338253e+00   1.26758656e+00   6.24154500e-01
C     5.180266812021102e+00   1.460998775972851e+00  -1.905983999999989e-01  1.64765909e+00  -2.37125667e+00  -3.40715520e-01
C     6.558899940058646e+00   1.019226752026982e+00  -1.414775999999982e-01 -9.45747590e-01   1.14474423e+00   6.62829100e-01
C     1.134770200812400e+01   7.376472314939654e+00  -4.007610000000028e-02  1.66618661e+00  -2.51637220e+00  -4.98044230e-01
C     2.523379568621332e+00   2.214304256528167e+00  -3.125619000000022e-01 -2.22270000e+00  -3.23255059e+00  -1.30155259e+00
C     2.856344868457745e+00   7.960889559124703e-01  -5.456111999999997e-01  3.76483110e-01   1.96500858e+00   1.02254868e+00
C     4.216803882845674e+00   4.591659221000647e-01  -3.693045000000019e-01 -4.38712560e-01  -3.51376007e+00   6.34387440e-01
C     4.370450563650439e-01   2.347105603676179e-01  -4.323018000000012e-01  1.87603277e+00   7.15339890e-01  -3.90118830e-01
C     6.313922980657257e+00   7.507441785600525e+00  -6.006728999999993e-01 -2.52693596e+00   1.49217068e+00   9.19826820e-01
C     5.660173927203589e-01   6.961343087228827e-01   3.585618000000000e+00  1.06903165e+00   4.15487122e+00  -8.69860750e-01
C     2.991015098239925e+00   1.568250987936482e-01   3.813249000000000e+00 -3.43548890e-01   1.80067740e+00  -1.16174803e+00
C     4.366918819089527e+00   5.381311901966431e-01   3.813338400000000e+00 -1.48877128e+00   2.89005370e+00  -2.50084150e-01
C     9.823022814143918e+00   7.338477118417162e+00   3.846206100000000e+00  1.68060184e+00  -3.22014650e+00  -1.00368798e+00
C     6.725665729168715e+00   5.838144182754999e-03   3.626960700000000e+00  2.05755912e+00  -5.00579200e-01  -1.30384790e-01
C     1.221742080164959e+01   6.675892549981843e+00   3.519523200000000e+00 -2.09782469e+00   6.93182180e-01   3.01999160e-01
C     4.685182828428943e+00   7.092627671433329e+00   3.421744800000000e+00 -5.95044530e-01  -3.34959174e+00   7.83007230e-01
C     5.706794761291506e+00   6.068969779517075e+00   3.487588500000000e+00  7.85874540e-01   2.36130537e+00  -1.04874420e-01
C     7.080321915529582e+00   6.543654158490425e+00   3.698336700000000e+00 -5.73213350e-01  -4.29768768e+00  -4.90333030e-01
C     8.110254453605641e+00   5.510912237377167e+00   3.718694400000000e+00  9.85192960e-01   1.70091234e+00   4.16861380e-01
C     9.506455067058223e+00   5.933086107755449e+00   3.797708700000000e+00 -1.29463941e+00  -1.30190189e+00   7.67607580e-01
C     1.048784911933914e+01   4.880323162090556e+00   3.854866200000000e+00  1.04263550e-01   1.85581402e+00  -1.42616439e+00
C     1.183545241053847e+01   5.296698604599839e+00   3.632561100000000e+00  8.84427590e-01  -1.05500480e-01   2.78701150e-01
C     3.966553725563332e+00   4.309235051467859e+00   3.552602400000000e+00  1.29067316e+00  -5.81814630e-01  -3.45308760e-01
C     5.369449964547416e+00   4.725452398418125e+00   3.402527100000000e+00 -8.32749900e-02  -1.78256777e+00   1.41153511e+00
C     6.444303923278222e+00   3.729263879274538e+00   3.543839100000000e+00 -1.30060527e+00   1.32299072e+00  -8.61832650e-01
C     7.797837521554076e+00   4.147058641213352e+00   3.661304700000000e+00 -1.59616880e-01  -1.34956578e+00  -2.97295910e-01
C     8.821165177341333e+00   3.105156260089990e+00   3.680704800000000e+00 -1.78642861e+00   1.97821493e+00  -2.60745470e-01
C     1.014044990798708e+01   3.513232070598923e+00   3.749123700000000e+00  1.04928252e+00  -4.41065990e-01   6.77003840e-01
C     2.239135973430039e+00   2.492742863187821e+00   3.768559200000000e+00  2.30722110e+00   8.37191270e-01  -1.12754751e+00
C     3.656024448664775e+00   2.901679655645710e+00   3.669913200000000e+00 -6.77685140e-01   2.79177890e-01  -1.24874800e-02
C     4.695914436736040e+00   1.920946170424762e+00   3.631689300000000e+00  7.46319170e-01   1.17054307e+00  -2.99265000e-02
C     6.107987209360013e+00   2.373285350795818e+00   3.480974700000000e+00 -1.84787105e+00  -1.45922484e+00   1.00370341e+00
C     7.122893162553843e+00   1.377905243364182e+00   3.512270400000000e+00 -1.68678683e+00  -2.68104230e-01   2.79008090e-01
C     8.454190397859831e+00   1.772674087555650e+00   3.554991000000000e+00  1.37144333e+00  -2.30852957e+00   2.17540320e-01
C     1.943712337409883e+00   1.121668825789464e+00   3.610585800000000e+00 -3.47078600e-01  -4.09277100e-02   1.76451143e+00
