64
Lattice="9.86 0 0 4.93 8.53901048131456 0 0 0 30 " PBC="1 1 1" Properties=species:S:1:pos:R:3:force:R:3 Energy="-511.12435865"
C     5.005133791600000e+00   7.779586068631978e+00   3.669660000000000e-02  8.48821330e-01  -1.39197606e+00  -7.92399900e-01
C     6.234697730100000e+00   8.497259244428355e+00  -9.429000000000087e-02  7.10108600e-02  -6.30196900e-01   1.54127320e-01
C     9.773816895199998e+00   7.375934063946448e-01   3.998910300000000e+00 -2.35811900e-01   3.26169342e+00  -3.82582410e-01
C     1.155364529800000e+00   1.434544196948262e+00   3.852372000000000e+00  2.37531680e-01   1.58777946e+00  -1.59978270e+00
C     7.475755174800000e+00   7.785994595997217e+00  -8.292330000000092e-02 -1.01466305e+00  -6.92698120e-01   3.30728350e-01
C     8.691428936900000e+00   8.523506454841778e+00  -1.219622999999999e-01  6.89304890e-01  -2.95709441e+00  -9.38794320e-01
C     2.366872146100000e+00   7.054518024369816e-01   3.607719000000000e+00 -3.39230590e-01   3.97231219e+00   9.46738380e-01
C     3.551082746800000e+00   1.541601528500634e+00   3.476187600000000e+00  3.04621890e-01  -4.57919710e-01  -9.13657550e-01
C     9.925238492799998e+00   7.767687299088516e+00  -2.529477000000000e-01 -7.91204670e-01   8.59604420e-01   1.09634126e+00
C     1.116051442790000e+01   8.425018361866506e+00  -1.471520999999996e-01  1.70388206e+00   1.91512946e+00  -1.16741305e+00
C     4.737187453500000e+00   8.389054355257576e-01   3.489529500000000e+00  5.19384073e+00  -3.11276920e-01   5.93075990e-01
C     6.113634283700000e+00   1.439018382269468e+00   3.621087000000000e+00 -4.35577640e+00   5.00420140e+00  -3.75494770e-01
C     1.245821520620000e+01   7.759927900265341e+00  -2.556744000000002e-01 -2.67055999e+00  -3.40838630e-01   5.50301980e-01
C     1.366393781260000e+01   8.503960574462953e+00  -9.397170000000088e-02 -4.56568680e-01  -2.38519177e+00  -9.94717100e-02
C     7.300940727200000e+00   8.202501739399969e-01   3.776587500000000e+00  1.89259062e+00  -2.27023805e+00  -3.40142100e-01
C     8.549850380099999e+00   1.467360895074475e+00   3.940800600000000e+00 -4.39251950e-01   2.77257518e+00  -1.68753070e-01
C     1.305753391000000e+00   1.363400748013304e+00  -3.353667000000016e-01 -9.42807600e-02  -1.82648890e-01   1.35813579e+00
C     2.557328349800000e+00   2.001090635055512e+00  -3.769980000000004e-01 -3.80485190e-01   3.39124262e+00  -5.13081340e-01
C     1.101614401210000e+01   2.905688556786215e+00   3.566790900000000e+00  1.54972000e-01  -2.70546263e+00  -2.04751020e-01
C     2.368283112100000e+00   3.606208482940263e+00   3.275433900000000e+00  7.41034250e-01   1.51809780e+00   7.61120980e-01
C     3.781990833000000e+00   1.354445887722928e+00  -2.469672000000003e-01 -9.29533260e-01  -4.12475930e-01  -1.38101540e-01
C     4.990950723899999e+00   2.019210671464386e+00  -2.459291999999991e-01  1.45253250e+00   2.82032353e+00   9.03373900e-01
C     3.644665091400000e+00   2.954557228373150e+00   3.256992000000000e+00 -1.34732778e+00  -1.00822590e+00   1.09108011e+00
C     4.925516362200000e+00   3.636863615953568e+00   3.365863200000000e+00 -2.04922297e+00  -2.00301461e+00   1.55608830e-01
C     6.195197781299999e+00   1.342863146957332e+00  -1.557186000000002e-01  3.18653024e+00  -9.00335040e-01  -9.45330700e-02
C     7.517658005600000e+00   2.094590750448997e+00  -2.070717000000002e-01 -2.21918884e+00  -4.85717975e+00   9.31884390e-01
C     6.115456608900001e+00   2.933997767450350e+00   3.630228900000000e+00  2.01503100e-02  -2.41409488e+00  -1.38719270e-01
C     7.306348542800000e+00   3.656920214549201e+00   3.787484100000000e+00  3.31945260e-01   1.04919340e-01  -1.13780660e-01
C     8.746267791899999e+00   1.331276734417230e+00  -1.238097000000025e-01 -3.13031770e-01   4.30541954e+00  -9.43699400e-01
C     9.966975724899999e+00   2.134244121925916e+00  -2.506452000000010e-01 -5.54939000e-03  -2.16049729e+00  -1.09587140e+00
C     8.552118475899999e+00   2.954991266275849e+00   3.857777700000000e+00 -6.57555090e-01  -2.90126968e+00  -6.84384710e-01
C     9.760457088199999e+00   3.570336697644517e+00   3.526504500000000e+00  1.36700821e+00   1.37962120e-01   1.94264243e+00
C     2.597321298600000e+00   3.452872020119122e+00  -4.886169000000002e-01 -1.37362561e+00   3.03232130e-01   1.01216515e+00
C     3.839525905000000e+00   4.176417046472070e+00  -3.311112000000023e-01 -1.79915698e+00  -1.21291046e+00   6.77795700e-02
C     1.222703251900000e+01   5.072899748812896e+00   3.324373800000000e+00  5.36226800e-01  -4.42826310e-01  -6.14852030e-01
C     3.617060493099999e+00   5.794524949439626e+00   3.306668100000000e+00  6.32963810e-01  -1.25217713e+00   9.19707150e-01
C     5.059590620900000e+00   3.477040237650980e+00  -1.266599999999976e-01 -1.27797024e+00  -1.45776961e+00  -4.05346070e-01
C     6.266238884100000e+00   4.142934305528419e+00   8.887529999999999e-02  3.87175800e-02   4.47839720e-01  -1.42414921e+00
C     4.879546281400000e+00   4.991588216978563e+00   3.425686500000000e+00 -1.12200353e+00   4.84188099e+00  -1.93362730e-01
C     6.076840411899999e+00   5.773951569929744e+00   3.636858000000000e+00 -1.56439919e+00  -5.02141280e-01   3.13836690e-01
C     7.478720372600000e+00   3.435035393468079e+00  -1.277250000000016e-01  1.95802188e+00   2.99340570e+00  -2.22886710e-01
C     8.719167433999999e+00   4.180828299286039e+00  -3.331136999999984e-01 -7.59182210e-01   1.06963956e+00   7.99904130e-01
C     7.261404099199999e+00   5.090292517699189e+00   3.758006400000000e+00  4.12600522e+00  -1.20094415e+00  -2.86429460e-01
C     8.594341904599998e+00   5.714883904225496e+00   3.740183700000000e+00 -9.68842310e-01   2.10297676e+00  -4.26404970e-01
C     1.001030924170000e+01   3.544386217845273e+00  -4.961042999999989e-01 -4.65387549e+00  -2.41859840e+00   1.81479445e+00
C     1.116221591880000e+01   4.220727338094467e+00  -4.225950000000012e-01  4.35714410e+00   6.30529820e-01  -9.47156930e-01
C     9.803639747000000e+00   4.955938360565192e+00   3.588707400000000e+00 -6.99649430e-01   3.62816056e+00  -4.34936500e-01
C     1.100393220490000e+01   5.756107428949477e+00   3.471839700000000e+00 -6.57925400e-02   1.46807284e+00  -2.50801610e-01
C     3.705996016900000e+00   5.551745169713943e+00  -2.890946999999997e-01  2.87361423e+00   3.55937984e+00   1.10085704e+00
C     4.990043801100000e+00   6.327243243629308e+00   3.249300000000000e-02 -9.83309210e-01  -1.33420681e+00  -9.39839950e-01
C     1.346249051900000e+01   7.218501181627737e+00   3.523171200000000e+00  4.41600130e-01  -3.26017200e-01   6.60371440e-01
C     4.801118510300000e+00   7.934204236926168e+00   3.873483000000000e+00  1.90515835e+00  -4.78085416e+00  -1.32529868e+00
C     6.248495074599999e+00   5.557781993952989e+00   7.932570000000000e-02 -2.02528354e+00   2.20324806e+00   6.66250600e-02
C     7.422563629999999e+00   6.323130258451407e+00  -2.451239999999899e-02  1.19332576e+00   6.11052170e-01  -2.97367700e-02
C     6.074268677399999e+00   7.154975213161776e+00   3.811578600000000e+00 -1.75897640e-01   2.54973135e+00  -5.25944970e-01
C     7.356930539999999e+00   7.882433668017709e+00   3.714965700000000e+00 -5.28686820e-01  -2.53048720e+00   4.97664300e-01
C     8.629124582899999e+00   5.605670728697238e+00  -2.015564999999988e-01  2.31404764e+00   7.40598250e-01  -5.62376660e-01
C     9.886192251899999e+00   6.391937348728932e+00  -3.138233999999969e-01 -4.17516940e-01  -3.36497903e+00   3.23495070e-01
C     8.645819830699999e+00   7.218983891890170e+00   3.679909500000000e+00 -2.71315427e+00  -2.83953207e+00   4.76762500e-02
C     9.798368196599998e+00   7.986224144940641e+00   3.561524700000000e+00 -5.09913000e-01  -1.40614025e+00  -1.63978350e-01
C     1.113011333640000e+01   5.646309672763760e+00  -3.620973000000021e-01 -9.47458750e-01   2.89752920e-01  -7.49750220e-01
C     1.234782032910000e+01   6.322950170720383e+00  -4.075503000000005e-01  2.46308050e+00   6.03169170e-01   1.16928833e+00
C     1.102996571080000e+01   7.278696252885657e+00   3.488272500000000e+00 -1.03659170e+00  -2.87261495e+00   1.40698880e-01
C     1.223901922240000e+01   7.949462509362775e+00   3.543101400000000e+00  9.13857800e-01  -7.37384050e-01   4.68878880e-01
