64
Lattice="9.86 0 0 4.93 8.53901048131456 0 0 0 30 " PBC="1 1 1" Properties=species:S:1:pos:R:3:force:R:3 Energy="-514.53735419"
C     5.184636619899999e+00   6.631081217792230e+00  -2.387027999999987e-01 -1.64303254e+00   6.74299120e-01   3.27007640e-01
C     6.380755635600000e+00   7.408980376064467e+00  -2.052125999999994e-01  2.56121670e-01  -2.88365054e+00  -4.84856530e-01
C     9.614235802500000e+00   1.877331084394366e+00   3.845856300000000e+00 -1.02662470e+00   1.02631950e+00  -5.10286790e-01
C     1.084402228120000e+01   2.583345607621979e+00   3.751880400000000e+00  7.38820760e-01  -2.96816620e-01  -5.10728440e-01
C     7.610694993599999e+00   6.715119682623351e+00  -1.962660000000014e-01  2.29081530e-01  -2.63523679e+00   6.25869300e-02
C     8.846059767300000e+00   7.345491381513885e+00  -2.309850000000004e-01  1.08145479e+00   9.62923710e-01   1.74414240e-01
C     2.205316341900000e+00   1.865821522948583e+00   3.624527100000000e+00  1.27424405e+00   9.68998130e-01   2.27106280e-01
C     3.482796182900000e+00   2.590357586857841e+00   3.532786500000000e+00 -1.76575190e+00   3.11023100e-01   6.03769270e-01
C     1.009201950540000e+01   6.608606115258347e+00  -2.772474000000003e-01 -3.75270680e-01   3.24822265e+00  -1.93609350e-01
C     1.131277190700000e+01   7.360011371104392e+00  -3.148841999999981e-01  9.09644440e-01  -4.43471300e-01  -4.23934800e-02
C     4.692584757500000e+00   1.877904564338202e+00   3.545646900000000e+00 -1.41610550e-01   3.49060290e-01   6.06881030e-01
C     5.915379608800000e+00   2.592524019206722e+00   3.617419800000000e+00 -1.14290505e+00   2.52571295e+00   5.58647610e-01
C     1.255386238270000e+01   6.676504142480172e+00  -3.856803000000006e-01  6.25600920e-01  -1.86668960e+00   5.84969790e-01
C     1.378458432890000e+01   7.366085425429130e+00  -2.397768000000013e-01  6.44208410e-01   6.07651900e-02  -7.79320500e-01
C     7.115177784899999e+00   1.941921355126553e+00   3.730362300000000e+00  1.85665682e+00  -2.86336138e+00  -4.05107530e-01
C     8.350375382299999e+00   2.571050542602141e+00   3.850989600000000e+00  1.49739147e+00   3.04942655e+00  -6.42350950e-01
C     1.490064990600000e+00   2.255630852354880e-01  -3.633771000000010e-01 -1.48106496e+00   2.40483639e+00   4.78575860e-01
C     2.688594628400000e+00   9.341187325918447e-01  -2.855993999999988e-01  1.59872731e+00   8.65430480e-01  -2.93834540e-01
C     1.089776529580000e+01   3.989101555418179e+00   3.635445900000000e+00 -2.45581979e+00  -5.98186040e-01   4.36283640e-01
C     1.207649156730000e+01   4.705486536093543e+00   3.573862200000000e+00  1.41488996e+00   1.63688117e+00   2.21914360e-01
C     3.928052436000000e+00   2.484167221039504e-01  -2.128949999999996e-01 -4.79338560e-01  -1.98408520e+00  -2.68587160e-01
C     5.147412605600000e+00   8.918016167956897e-01  -2.236127999999979e-01  2.23600390e+00   2.41948973e+00   4.65467290e-01
C     3.468910049100000e+00   4.020856342201098e+00   3.622452000000000e+00 -2.88719300e-02  -5.10602040e-01  -6.59890950e-01
C     4.696219547899999e+00   4.746415208785650e+00   3.681902700000000e+00 -9.87018670e-01  -1.65412000e-03  -1.05983950e-01
C     6.443924908800000e+00   2.317832420295392e-01  -2.478252000000012e-01 -2.29230190e+00   4.56412030e-01  -4.26247690e-01
C     7.642864180299999e+00   9.960877832769864e-01  -3.372698999999990e-01  1.07237380e-01  -1.34473972e+00   9.23029150e-01
C     5.920247293600000e+00   4.062869042273642e+00   3.730821000000000e+00 -2.96844630e-01  -2.08228452e+00  -5.44528150e-01
C     7.136221292699999e+00   4.758920931194030e+00   3.772139400000000e+00  1.68256313e+00  -7.82478900e-01   3.38924000e-02
C     8.869696701600001e+00   2.608175854636352e-01  -2.713491000000019e-01  9.90166480e-01   3.33628330e-01  -9.58652200e-01
C     1.013514295490000e+01   9.669658295953656e-01  -4.161611999999977e-01 -1.93354679e+00   2.78272460e-01   7.43551520e-01
C     8.387257698299999e+00   4.061363187775494e+00   3.760439400000000e+00 -7.73180210e-01  -3.40286447e+00   4.96239220e-01
C     9.635474045299999e+00   4.659702240482089e+00   3.683041500000000e+00  7.11422570e-01   3.26542875e+00   2.58152780e-01
C     2.742663023000000e+00   2.352521125689135e+00  -3.426870000000015e-01 -1.20469346e+00   6.64912540e-01   1.62836160e-01
C     3.971536416400000e+00   3.082991118761154e+00  -2.255159999999989e-01 -2.00136650e+00  -1.85264098e+00   5.74069000e-03
C     1.205763900080000e+01   6.155731497001486e+00   3.564658800000000e+00  1.10947292e+00   6.02533860e-01   5.59125900e-02
C     1.332208106240000e+01   6.887951304101067e+00   3.577822800000000e+00 -8.71034520e-01  -9.62384290e-01  -2.18472360e-01
C     5.166827635800000e+00   2.339838645763819e+00  -1.554453000000002e-01  1.88539610e-01   1.52583460e-01  -9.44726200e-02
C     6.369530420000000e+00   3.080697882106645e+00  -1.137501000000007e-01  1.68147120e+00   4.57818370e-01  -5.72629240e-01
C     4.662223993400000e+00   6.159074178043987e+00   3.657069300000000e+00  2.13374935e+00   2.84652300e-01   5.80891300e-02
C     5.961418512400000e+00   6.845442743689951e+00   3.700803000000000e+00 -2.06828495e+00   6.79477310e-01   4.93233950e-01
C     7.617645208999999e+00   2.402658267282874e+00  -2.744679000000012e-01  6.90739910e-01   5.52101920e-01   4.04850480e-01
C     8.878683056300000e+00   3.126469113032065e+00  -3.008045999999993e-01 -1.44339688e+00  -1.35179870e-01  -1.78183040e-01
C     7.191678221800000e+00   6.147001041906525e+00   3.788850600000000e+00 -9.26472850e-01   1.28718433e+00  -5.79427670e-01
C     8.415171111799999e+00   6.866840479271572e+00   3.751174200000000e+00  3.42141200e-01  -8.01508170e-01   2.44253130e-01
C     1.008953882800000e+01   2.416329906182192e+00  -4.240409999999990e-01  1.45167006e+00  -1.52237452e+00   2.15164630e-01
C     1.136112598790000e+01   3.083764155379908e+00  -4.228623000000020e-01 -8.77104710e-01   6.23871090e-01  -6.99854700e-02
C     9.640163855699999e+00   6.127307265866186e+00   3.721111500000000e+00 -5.88464900e-02   5.75148700e-01  -5.96349880e-01
C     1.084642057830000e+01   6.915712395682490e+00   3.622129500000000e+00  2.88128440e-01  -2.11620337e+00   4.48626900e-02
C     3.862871377700000e+00   4.468263090487196e+00  -2.263298999999996e-01  4.28249275e+00   1.66094471e+00  -6.66123630e-01
C     5.157267823500000e+00   5.201196246522276e+00  -2.123613000000013e-01 -1.34916170e-01   5.12002220e-01   7.16899660e-01
C     1.336401031800000e+01   8.303578177231937e+00   3.561240300000000e+00 -2.88728475e+00   6.63776240e-01   6.39672260e-01
C     9.600909371600000e+00   4.893435365554736e-01   3.711747300000000e+00  2.29659296e+00  -1.74051227e+00   2.35378080e-01
C     6.418599745300000e+00   4.528604691164955e+00  -1.044546000000004e-01 -1.33165587e+00  -8.11078920e-01  -5.85760960e-01
C     7.647195530399999e+00   5.252679050777558e+00  -1.865319000000021e-01 -1.32841883e+00   8.29698970e-01   4.77279630e-01
C     5.909334590699999e+00   8.266724064170573e+00   3.753610500000000e+00  9.33896770e-01   1.13625276e+00  -7.17361930e-01
C     2.223644307100000e+00   4.719042300620648e-01   3.696496200000000e+00 -2.78982600e-02  -1.76407966e+00   2.56345480e-01
C     8.857379983999998e+00   4.554449116454037e+00  -2.426415000000013e-01  7.00495220e-01  -7.96892890e-01  -3.67751010e-01
C     1.010040183650000e+01   5.245824701675157e+00  -3.491633999999983e-01 -7.50115480e-01  -1.74209890e+00   1.65352000e-01
C     8.418279427500000e+00   8.287408963157324e+00   3.717631200000000e+00 -1.97039809e+00   5.53335600e-02   6.09074900e-02
C     4.667395662000000e+00   4.704448277809280e-01   3.699418500000000e+00  2.18356453e+00   1.94665570e-01  -1.09232423e+00
C     1.129373564870000e+01   4.519047489075319e+00  -4.438500000000012e-01  2.77586051e+00  -5.44108890e-01   1.19238580e-01
C     1.258552437100000e+01   5.205621588703536e+00  -4.350096000000008e-01 -3.23255886e+00   1.49306142e+00   6.37827190e-01
C     1.086686085130000e+01   8.330473413150688e+00   3.622636200000000e+00 -1.18863550e-01  -2.46628100e-02   2.12948590e-01
C     7.182628615200000e+00   5.046879676078240e-01   3.600789000000000e+00 -8.28519370e-01  -7.47045070e-01   1.81293400e-01
