76
Lattice="10.7446858958278 0 0 5.37234294791388 9.3051709414712 0 0 0 30 " PBC="1 1 1" Properties=species:S:1:pos:R:3:force:R:3 Energy="-610.10370555"
C     1.071220911984552e+01   5.849379335619040e-02  -3.135107999999995e-01  3.46179704e+00  -1.41623097e+00   4.87208060e-01
C     1.245360509132032e+01   8.499019502750707e+00  -2.108357999999981e-01  1.64361982e+00  -2.14881865e+00  -2.54751970e-01
C     1.389298180279092e+01   8.303096895367981e+00  -2.604942000000001e-01 -8.43231600e-01   1.64488632e+00   1.54748200e-02
C     1.444233116093061e+01   7.001725005105563e+00  -2.572505999999990e-01  1.49037304e+00   6.33808800e-02   7.85550800e-01
C     8.300225428473805e+00   8.991207121399357e+00  -2.043405000000007e-01 -2.89552301e+00   1.71994022e+00  -3.80229540e-01
C     9.654782676151509e+00   8.799776957494753e+00  -1.932776999999994e-01  2.44135330e+00   1.61092364e+00   5.47086740e-01
C     1.022646819478697e+01   7.496951971738346e+00  -1.584012000000001e-01  1.74612380e-01  -1.22704710e-01   1.18073450e-01
C     1.163588453154088e+01   7.314617519375883e+00  -1.984865999999990e-01  4.39647400e-02   1.73625048e+00  -4.27106130e-01
C     1.221682756410093e+01   6.042821556635999e+00  -2.740785000000017e-01  1.37587884e+00  -1.91516700e-02   1.77267464e+00
C     1.364657864870802e+01   5.855072425303550e+00  -1.433930999999973e-01 -9.08823090e-01  -6.79103120e-01  -8.40374680e-01
C     5.970915272227042e+00   8.058801822112212e+00  -2.708280000000016e-01 -5.47746110e-01  -1.80127487e+00   5.45877310e-01
C     7.411793338658455e+00   7.894945764305821e+00  -1.842822000000020e-01 -6.27060040e-01  -1.26284551e+00  -1.23105760e-01
C     7.981909273577649e+00   6.543130356274244e+00  -1.138553999999985e-01 -3.02433750e-01   1.72783260e+00   3.55682700e-02
C     9.392638987012541e+00   6.360251458360082e+00  -9.612599999999816e-02  6.25774400e-02  -1.14035627e+00  -8.75963330e-01
C     9.975715162064315e+00   5.012938636442953e+00  -1.875461999999999e-01 -1.08202170e-01   2.33886885e+00   1.04691836e+00
C     1.141602397503675e+01   4.917408215607955e+00  -1.174341000000005e-01 -2.45929250e+00   2.78050460e-01  -1.12684069e+00
C     1.197091871929285e+01   3.670314783214199e+00  -1.102065000000003e-01 -1.69358515e+00  -4.03130115e+00   9.44623090e-01
C     5.121472800201031e+00   6.821460581070413e+00  -1.763241000000022e-01  8.32364260e-01   2.69799312e+00  -5.27583150e-01
C     5.723534136833520e+00   5.552952228275340e+00  -1.007676000000011e-01 -6.35096270e-01  -3.70093110e-01  -3.08631670e-01
C     7.125981094248679e+00   5.443251055667527e+00  -1.129332000000005e-01  2.97862060e-01  -1.42388375e+00  -3.47752910e-01
C     7.700767260617736e+00   4.133778734946710e+00  -2.152473000000015e-01 -6.34271750e-01  -4.36137830e-01   1.78012750e-01
C     9.093965514750753e+00   3.918396316628872e+00  -1.825079999999986e-01  5.12177230e-01  -1.79954230e-01  -6.05008000e-02
C     9.622501234386689e+00   2.593675891443806e+00  -1.649244000000003e-01  1.44093746e+00   1.17558928e+00   2.04571000e-03
C     1.105779378329985e+01   2.480325137741615e+00  -1.036286999999980e-01  9.62990820e-01  -6.33480800e-02  -8.56294280e-01
C     3.484145612202704e+00   4.526471836888215e+00  -6.205110000000147e-02 -3.98186610e-01   1.71504068e+00   1.16732400e-02
C     4.902402837685418e+00   4.360720967123311e+00  -1.155122999999989e-01 -1.89705069e+00   3.60158159e+00   4.89976910e-01
C     5.395291020357784e+00   3.115126876923116e+00  -1.688775000000007e-01  3.49074933e+00  -1.86933101e+00  -1.13576003e+00
C     6.868382138628264e+00   2.985982549636172e+00  -3.007223999999979e-01 -1.89633296e+00  -6.92032620e-01   1.39183743e+00
C     7.387693867759628e+00   1.667768113868935e+00  -2.175954000000004e-01 -7.96955880e-01  -9.47347960e-01  -7.12765800e-01
C     8.766352090592187e+00   1.478146316884812e+00  -2.157231000000017e-01  7.39679260e-01   2.50275190e-01   1.05542070e-01
C     9.344843024659564e+00   2.022961842180786e-01  -2.552765999999984e-01 -1.37786783e+00  -1.88740401e+00  -1.76006930e-01
C     2.603169850891090e+00   3.420833193779893e+00  -3.027599999999353e-03  3.59637100e-02   1.67804220e+00  -8.70599830e-01
C     3.106156372883142e+00   2.145267241033667e+00  -1.042556999999995e-01  3.19975719e+00  -4.65360250e-01  -7.64776200e-01
C     4.577869968697811e+00   1.983370666123821e+00  -2.550737999999981e-01 -1.51698736e+00  -5.02601070e-01   1.74884303e+00
C     5.165246650557631e+00   7.013584631572013e-01  -1.594830000000016e-01 -2.12657210e+00  -2.26695991e+00  -1.19939586e+00
C     6.535556037552173e+00   4.635051736397758e-01  -2.263223999999973e-01  7.01379100e-01   3.12912837e+00   5.32275340e-01
C     8.998563233750936e-01   1.146824074102436e+00  -2.335716000000012e-01 -1.90697037e+00   2.09497745e+00   2.77207360e-01
C     2.294689005403789e+00   1.049913882520456e+00  -2.419311000000022e-01  6.14651030e-01  -3.67714336e+00   6.09283760e-01
C     1.607380593341292e+01   9.294383920587805e+00   3.391382400000000e+00  3.38814070e-01  -1.13081858e+00   1.86666086e+00
C     1.177772491521306e+01   8.822332691853315e+00   3.554613900000000e+00  2.93242070e+00   1.02021910e-01  -2.19815950e-01
C     1.322702235634543e+01   8.939461810215692e+00   3.554543100000000e+00 -3.17299870e-01  -4.58902050e-01  -5.29755060e-01
C     1.407693012699434e+01   7.755776883313506e+00   3.530324100000000e+00  2.06625900e-02   3.00764343e+00   6.49684170e-01
C     7.592169753204706e+00   8.351286049373506e+00   3.488714700000000e+00  1.73873540e-01  -2.82634707e+00   8.31283280e-01
C     9.008873888064006e+00   8.460582912303977e+00   3.588364800000000e+00 -5.84240000e-02   1.89964236e+00  -1.42780600e-01
C     9.834790709141679e+00   7.350996550424361e+00   3.599967000000000e+00  6.39850770e-01  -1.80380980e+00  -3.38606360e-01
C     1.126219166232529e+01   7.508524440629587e+00   3.512623200000000e+00 -2.78405324e+00   1.55098862e+00   4.67922160e-01
C     1.204208625379836e+01   6.394855435000045e+00   3.499058100000000e+00  3.23019041e+00  -2.51928100e+00   3.71559040e-01
C     1.348250385671553e+01   6.512359923958143e+00   3.566836200000000e+00  3.00085180e-01  -1.45879137e+00  -1.19252100e-01
C     4.744962513172174e+00   7.977464020201741e+00   3.589340100000000e+00  3.83731170e-01   3.86363700e-02  -1.52966902e+00
C     5.603753452888910e+00   6.832143940878336e+00   3.599299200000000e+00 -1.61174800e-01   1.24055600e+00   6.23212800e-01
C     6.991545894375347e+00   6.995609181505248e+00   3.598447800000000e+00  1.73359940e+00   1.83453731e+00  -1.58477650e-01
C     7.865837386588572e+00   5.886839162272198e+00   3.719064300000000e+00  1.09037310e-01  -8.27482010e-01  -9.27627620e-01
C     9.280271545381208e+00   6.021739482199208e+00   3.640845600000000e+00  5.72217300e-01   8.95885290e-01   3.15273540e-01
C     1.015083119328764e+01   4.876940399396733e+00   3.646600800000000e+00 -7.09054890e-01   1.25006225e+00  -4.65939680e-01
C     1.156004531505291e+01   5.051510803230278e+00   3.548300100000000e+00  2.22030100e-02  -4.31953890e-01   7.98611310e-01
C     1.244468974191822e+01   3.907733800403854e+00   3.661953300000000e+00  1.90963270e-01  -5.11773410e-01  -3.15927830e-01
C     3.648977152423129e+00   5.391675936060355e+00   3.657238500000000e+00 -9.85198300e-01  -1.17349056e+00   3.17243980e-01
C     5.046178124394472e+00   5.556509874280830e+00   3.719231400000000e+00 -1.79988480e-01  -6.19486160e-01  -1.09624749e+00
C     5.862585361216350e+00   4.402875810825955e+00   3.604763700000000e+00  7.31169900e-01  -1.93871540e-01   5.03100650e-01
C     7.320913818294525e+00   4.571250552692520e+00   3.644203500000000e+00 -2.39716259e+00  -4.14280730e-01   5.40732100e-02
C     8.129842753730003e+00   3.419190924160692e+00   3.594247500000000e+00  1.24449797e+00   7.10061280e-01  -2.66049310e-01
C     9.537584477462964e+00   3.625462091300920e+00   3.636591900000000e+00  4.18937870e-01  -1.94151645e+00  -1.13357160e-01
C     1.036436667554302e+01   2.473669893381908e+00   3.579480300000000e+00  2.17659544e+00  -1.28841008e+00   1.58313370e-01
C     1.183906337222754e+01   2.567443590995143e+00   3.621292800000000e+00 -2.49106854e+00   3.87032654e+00  -4.02172280e-01
C     3.170704321299379e+00   4.034863092923741e+00   3.708084600000000e+00 -3.81535857e+00   1.23939282e+00  -6.35271940e-01
C     3.933453563758388e+00   2.850881144965149e+00   3.646924200000000e+00 -1.87982755e+00   1.45757850e+00   1.78668700e-01
C     5.268695734274817e+00   3.077794717215255e+00   3.548043900000000e+00  4.29396582e+00   1.33615584e+00   3.56901500e-01
C     6.211382632031350e+00   2.029327044362293e+00   3.520008000000000e+00 -1.12729680e+00  -2.64815872e+00  -1.77730550e-01
C     7.606003267683809e+00   2.114678259550896e+00   3.465620100000000e+00  3.44590260e-01  -2.05612390e-01   9.48755350e-01
C     8.433945838117637e+00   9.144549731819189e-01   3.529565400000000e+00  5.38619510e-01   1.63455227e+00  -1.56293530e-01
C     9.880491726361303e+00   1.120900240070434e+00   3.538151700000000e+00 -2.07770069e+00   7.44184430e-01  -7.63455570e-01
C     1.871884325876481e+00   1.466519598846991e+00   3.501820800000000e+00  3.49560052e+00  -1.75372920e+00   9.65146390e-01
C     3.316772846320070e+00   1.590773779649837e+00   3.635478600000000e+00  3.79862720e-01  -5.74065550e-01  -6.27753700e-01
C     4.228068284644880e+00   4.816365783714940e-01   3.628162500000000e+00 -1.07443458e+00   1.92819180e-01  -4.35923080e-01
C     5.657898557587055e+00   7.058841260955796e-01   3.578343300000000e+00 -1.99290528e+00  -7.62731030e-01   1.70240100e-02
C     1.391110776556364e+00   1.464392902028654e-01   3.462573000000000e+00 -2.25567464e+00   5.56847640e-01  -6.90388360e-01
