64
Lattice="9.86 0 0 4.93 8.53901048131456 0 0 0 30 " PBC="1 1 1" Properties=species:S:1:pos:R:3:force:R:3 Energy="-512.29132749"
C     4.936152837200000e+00   8.480873993388597e+00  -4.810704000000001e-01 -1.76699620e-01  -5.55837950e-01   1.32512258e+00
C     1.265418793200000e+00   6.604921190675808e-01  -4.252013999999988e-01 -1.30692076e+00   1.64577707e+00  -6.08597620e-01
C     1.195245912700000e+00   7.419174759116119e-01   3.566248200000000e+00  1.47776003e+00   1.15768911e+00   8.49166380e-01
C     2.450844638900000e+00   1.490558995625700e+00   3.720567000000000e+00 -1.89696660e-01  -1.78188475e+00  -6.26510520e-01
C     7.394586274400000e+00   8.514107822176758e+00  -5.366411999999983e-01  1.80425508e+00  -6.51377520e-01   1.56513413e+00
C     3.712873366900000e+00   6.836918420307976e-01  -2.846519999999977e-01 -1.87070522e+00   6.71785770e-01  -2.99751350e-01
C     3.699635035100000e+00   7.433682537921640e-01   3.515106300000000e+00 -2.32260550e-01   1.34888320e-01   2.68693190e-01
C     4.946217185699999e+00   1.439974409882809e+00   3.520859700000000e+00  7.92134000e-03   5.94973960e-01  -3.79773350e-01
C     9.829254843799999e+00   8.472514814469307e+00  -1.564022999999999e-01  9.56447280e-01   2.40614820e-01   2.65905600e-01
C     6.137193964899999e+00   5.914210025860136e-01  -1.956042000000018e-01  1.18707909e+00   3.16808147e+00  -1.26293290e-01
C     6.229985044499999e+00   7.917303058873207e-01   3.322430400000000e+00 -3.69631309e+00  -9.50463440e-01   1.25709203e+00
C     7.399908801000000e+00   1.542850102613019e+00   3.471120900000000e+00  2.54843330e-01  -3.56194234e+00  -4.21406330e-01
C     1.232672688040000e+01   8.478220922832461e+00  -1.390227000000017e-01 -1.67926400e-02  -1.05140488e+00   4.08379100e-02
C     8.629451786999999e+00   6.327714170057280e-01  -4.171844999999976e-01  1.15840850e-01   1.34860713e+00   2.16323640e-01
C     8.585466820000001e+00   7.293740964670160e-01   3.511656600000000e+00  1.28947599e+00   2.10646698e+00   6.36127020e-01
C     9.821022976299998e+00   1.456050292572876e+00   3.663636900000000e+00  5.02954360e-01  -1.68414913e+00  -3.52951460e-01
C     1.298185594500000e+00   2.116504498433926e+00  -1.921998000000009e-01 -1.75104614e+00  -5.27157220e-01   9.15304070e-01
C     2.480839843500000e+00   2.838927498809802e+00   1.781490000000000e-01  1.71136940e-01  -1.22325641e+00  -1.60651015e+00
C     2.435635145200000e+00   2.904317618653651e+00   3.930065400000000e+00  1.69595283e+00  -8.23932470e-01  -7.94158240e-01
C     3.702212488400000e+00   3.580009005595422e+00   3.847154100000000e+00 -1.14704153e+00   6.16655340e-01  -1.52497310e-01
C     3.673912217800000e+00   2.132771057228011e+00  -9.393509999999949e-02  2.62659867e+00  -1.52609398e+00   5.02877630e-01
C     4.976177880300000e+00   2.800492729518484e+00  -1.112555999999998e-01 -2.45611990e+00   4.26745380e-01   4.10028140e-01
C     4.913105087200000e+00   2.867109563607889e+00   3.662351100000000e+00 -1.10156280e-01   4.52781080e-01  -3.62871920e-01
C     6.092420542999999e+00   3.625512026201666e+00   3.479031600000000e+00  2.76880942e+00   4.11479170e-01   6.44882670e-01
C     6.165053000500000e+00   2.077497273880028e+00  -3.018794999999983e-01  1.48342705e+00  -6.45547720e-01  -3.60201370e-01
C     7.438427729099999e+00   2.812020564446693e+00  -4.683723000000022e-01 -1.12905617e+00   2.17648710e-01   5.89149790e-01
C     7.372893534900000e+00   2.913158312373910e+00   3.511934700000000e+00 -5.09504870e-01   1.32801032e+00  -8.00676690e-01
C     8.640696870499999e+00   3.558210363471764e+00   3.499714200000000e+00 -4.25716760e-01  -3.91361790e-01   1.46750512e+00
C     8.673143813399999e+00   2.108372371803298e+00  -5.008479000000001e-01 -1.15476000e-01  -7.41542900e-01   1.37437459e+00
C     9.903216626499999e+00   2.814606176820038e+00  -1.755099000000016e-01 -4.45469820e-01   3.48770410e-01  -7.75418760e-01
C     9.844441117199999e+00   2.840931519179354e+00   3.775388700000000e+00  6.74303620e-01   2.03830245e+00  -1.00694157e+00
C     1.109932834580000e+01   3.619619596629837e+00   3.866456400000000e+00 -2.24483493e+00  -1.25619245e+00   9.13908500e-02
C     2.491321713700000e+00   4.227617038700255e+00   4.147299000000000e-01 -1.61368522e+00   7.79177060e-01  -5.49155300e-02
C     3.719136291000000e+00   4.967383025531326e+00   3.327459000000000e-01  2.12990800e-01  -1.05599537e+00  -7.01968250e-01
C     3.661282888900000e+00   5.017450232629234e+00   3.752448600000000e+00  6.61251790e-01  -5.83853800e-01  -3.86558000e-02
C     4.866647528000000e+00   5.721704011895872e+00   3.558165000000000e+00  2.81354614e+00   1.29882774e+00  -1.75617160e-01
C     4.896364532700000e+00   4.232856404750573e+00   7.531800000000000e-03  2.45338914e+00   3.40332550e-01  -1.32875187e+00
C     6.125151848300000e+00   4.945851483655482e+00  -4.146168000000010e-01  3.19039170e-01  -4.74522570e-01   1.53001061e+00
C     6.182234790000000e+00   5.085971949176519e+00   3.455584800000000e+00 -1.96873836e+00  -2.67880830e+00  -4.41510890e-01
C     7.450945245600000e+00   5.702785834177432e+00   3.264569700000000e+00 -1.74910585e+00   1.44014761e+00   1.71298166e+00
C     7.410899890900000e+00   4.275814287893148e+00  -4.420454999999990e-01 -3.34451130e-01  -1.07070226e+00   4.29571250e-01
C     8.619537211899999e+00   5.016191411704273e+00  -1.967606999999987e-01  1.03154964e+00  -1.69345802e+00  -2.94493700e-01
C     8.658804859100000e+00   4.941452697796815e+00   3.454952700000000e+00 -1.29706577e+00   1.96130714e+00  -1.25034186e+00
C     9.845204034700000e+00   5.669528010769823e+00   3.462090000000000e+00  6.71030650e-01   1.73438835e+00   7.40752390e-01
C     9.869710620999999e+00   4.269167778305830e+00   5.200800000000000e-02 -2.15891970e+00  -1.68497365e+00  -6.33426760e-01
C     1.104126157330000e+01   4.910166275738725e+00   3.955293000000000e-01  3.09823456e+00   1.88051418e+00  -3.01647700e-01
C     1.105581907450000e+01   5.025012038749903e+00   3.748141200000000e+00  1.13133472e+00  -2.33846470e-01  -5.23927800e-01
C     1.229892059580000e+01   5.737685453130031e+00   3.700670100000000e+00 -6.67332610e-01  -9.11111700e-02  -1.73245810e-01
C     3.752182475400000e+00   6.384170179406219e+00   1.951281000000000e-01 -1.47626947e+00  -5.03292780e-01  -4.81655290e-01
C     4.911866326100000e+00   7.028748059252119e+00  -2.592342000000016e-01  1.52868032e+00   2.16518116e+00  -6.11646630e-01
C     4.937176995400000e+00   7.148836176967285e+00   3.501171900000000e+00 -7.17643080e-01   1.59846750e-01   1.82980430e-01
C     6.181037687399999e+00   7.872758286023030e+00   3.429778500000000e+00 -1.39845291e+00  -3.25393270e-01   2.24078360e-01
C     6.165458345099999e+00   6.357921175800595e+00  -4.724139000000029e-01 -1.31579700e-02  -9.84556800e-02   6.57113620e-01
C     7.428737419700000e+00   7.083466550748589e+00  -5.149728000000025e-01 -6.63892360e-01   6.01027130e-01   4.66548200e-02
C     7.397961746800000e+00   7.186914357180958e+00   3.358353000000000e+00  4.08569490e-01  -2.96559678e+00  -7.51383360e-01
C     8.622686150800000e+00   7.827920795893599e+00   3.351536400000000e+00 -2.55742720e-01   2.49945778e+00   4.69083430e-01
C     8.685048284400001e+00   6.438717549132670e+00  -2.456735999999999e-01 -3.63228174e+00  -3.00102215e+00  -2.49464370e-01
C     9.846340005299998e+00   7.060278355449519e+00   1.872960000000000e-02  3.17379667e+00   1.69039635e+00   2.37855170e-01
C     9.819313252299999e+00   7.113100332718380e+00   3.371806800000000e+00  1.57725996e+00   5.68396720e-01  -1.94236730e-01
C     1.104731137350000e+01   7.893499798649265e+00   3.367333200000000e+00  1.80465669e+00  -1.47874384e+00   4.93385200e-02
C     1.111478887510000e+01   6.370180974707149e+00   3.328506000000000e-01 -2.21254839e+00  -7.83556910e-01  -7.42143090e-01
C     1.233100794450000e+01   7.056310448059673e+00   2.158221000000000e-01  1.30286338e+00   1.59836288e+00  -6.59544410e-01
C     1.228653263970000e+01   7.135252746046224e+00   3.480992100000000e+00  7.48806700e-01   1.29707734e+00   6.94053820e-01
C     1.356963292720000e+01   7.868991045379464e+00   3.560955900000000e+00 -1.94245099e+00  -8.84747950e-01  -1.10165417e+00
