64
Lattice="9.86 0 0 4.93 8.53901048131456 0 0 0 30 " PBC="1 1 1" Properties=species:S:1:pos:R:3:force:R:3 Energy="-513.8750714"
C     4.875939887800000e+00   8.440075796776624e+00  -1.619424000000009e-01  8.19341670e-01  -2.45959232e+00   4.32707230e-01
C     1.185687973800000e+00   5.480118327395712e-01  -9.234150000000341e-02  9.10233300e-01   1.46472508e+00  -8.70488470e-01
C     1.238888836300000e+00   8.186348493274952e-01   3.419037300000000e+00  4.28604320e-01   1.68521900e-01   2.81357460e-01
C     2.488531481600000e+00   1.516110532855318e+00   3.532131000000000e+00 -5.07070000e-01   2.27466394e+00  -3.80075790e-01
C     7.367320712200000e+00   8.363415976291376e+00  -1.441419000000010e-01  2.67480860e-01   3.04800061e+00   2.77873450e-01
C     3.702642285800000e+00   6.151952301743248e-01  -1.001858999999996e-01 -1.51292075e+00  -2.33524871e+00   6.15949520e-01
C     3.729878958200000e+00   8.415703753064607e-01   3.353298000000000e+00 -1.85744126e+00  -8.02563110e-01   3.82941760e-01
C     4.923472482800000e+00   1.560069700366778e+00   3.417915600000000e+00  1.75613239e+00  -2.79164150e-01  -6.36232520e-01
C     9.845676821700000e+00   8.437938567843585e+00  -1.851089999999900e-02  1.07778206e+00  -5.96658900e-02  -8.17398010e-01
C     6.188339806199999e+00   6.131441598570289e-01  -6.178770000000000e-02 -2.72906835e+00   7.31544630e-01  -2.71842000e-02
C     6.177504504299999e+00   8.786123465983864e-01   3.308030700000000e+00  6.44408700e-01  -2.67466605e+00   5.73865970e-01
C     7.440953811800000e+00   1.524077600413368e+00   3.273816900000000e+00 -1.53955279e+00   1.68035248e+00   7.89728700e-02
C     1.230717188750000e+01   8.463472087761090e+00  -2.700659999999999e-02 -2.45458890e-01  -2.56574691e+00   1.51344260e-01
C     8.587696461800000e+00   6.017085462420032e-01  -1.054545000000005e-01  6.33170570e-01  -1.22570048e+00   7.21141100e-02
C     8.669105502500001e+00   8.481900724008712e-01   3.256607400000000e+00 -3.89120350e-01   4.65155620e-01   1.20217297e+00
C     9.863252813999999e+00   1.543351854868824e+00   3.498642900000000e+00  1.42258266e+00   1.47768521e+00  -1.43261323e+00
C     1.190310095300000e+00   2.011268879377358e+00  -5.750039999999856e-02  1.37271851e+00  -1.31271060e+00   1.88315129e+00
C     2.451578814500000e+00   2.682028646206509e+00   2.277135000000000e-01 -1.28370046e+00   9.75567830e-01  -1.67553059e+00
C     2.481499378900000e+00   3.024052221334945e+00   3.674560800000000e+00  1.10534898e+00  -2.76403963e+00  -3.13775380e-01
C     3.757754410700000e+00   3.704628093051486e+00   3.660041100000000e+00 -1.63516752e+00  -1.43150424e+00  -5.04213520e-01
C     3.698894499800000e+00   2.006097569240565e+00   7.805130000000000e-02 -1.95878145e+00  -2.21373220e-01  -2.62735100e-01
C     4.872181354399999e+00   2.718043545317900e+00  -6.909899999996583e-03  3.22585027e+00   1.56129730e-01   3.50295100e-02
C     4.968247285099999e+00   2.971178668442785e+00   3.461688000000000e+00 -1.94760368e+00  -4.54559420e-01   3.39630880e-01
C     6.159789436699999e+00   3.624608001162148e+00   3.299725800000000e+00  2.07556344e+00   2.87436263e+00   6.35878930e-01
C     6.156207495899999e+00   2.043137320389766e+00  -1.556331000000029e-01 -1.38347611e+00  -1.44701338e+00   7.51830790e-01
C     7.390616687700000e+00   2.689148302364524e+00  -1.497674999999994e-01 -1.49468861e+00   1.99525897e+00   4.37110000e-01
C     7.395967660399999e+00   2.939785423363589e+00   3.312663300000000e+00  2.07149528e+00   1.21760301e+00  -7.68571390e-01
C     8.685719109499999e+00   3.720771775484764e+00   3.322481400000000e+00 -2.57964108e+00  -5.76888880e-01   8.00923630e-01
C     8.563552674200000e+00   1.964357348992438e+00  -6.217769999999945e-02  2.71715446e+00   2.86925723e+00  -5.91038600e-01
C     9.833328453500000e+00   2.716950125025936e+00   2.662200000000000e-03 -4.30186970e-01  -1.35616144e+00  -9.80131000e-03
C     9.873790491799999e+00   3.008899149507451e+00   3.493640700000000e+00  1.02680684e+00  -1.01731267e+00   1.98521420e-01
C     1.112200018330000e+01   3.736363496280615e+00   3.637059000000000e+00 -3.05171070e-01  -1.80713021e+00   4.98614400e-01
C     2.412710497300000e+00   4.131106068211523e+00   2.491962000000000e-01  1.87113961e+00  -1.12356032e+00   3.12545600e-02
C     3.674726358000000e+00   4.825754656149627e+00   1.200645000000000e-01 -4.72928880e-01   1.14711670e+00   1.27152136e+00
C     3.707386326200000e+00   5.085034195045604e+00   3.613779900000000e+00  2.28718450e+00   1.89639848e+00   1.00449170e-01
C     4.959900006300000e+00   5.828838279932668e+00   3.466484700000000e+00 -7.47182210e-01  -1.47496475e+00  -7.26342930e-01
C     4.911593450600000e+00   4.114131283888225e+00   8.614200000000000e-02 -1.40785080e-01   1.83987525e+00  -8.19925840e-01
C     6.154642171600000e+00   4.875625892957020e+00  -4.097129999999893e-02 -3.01170430e-01  -2.40494788e+00  -2.39442540e-01
C     6.190458276499999e+00   5.113363472384368e+00   3.303131100000000e+00 -1.70771833e+00  -1.48223495e+00   2.87124720e-01
C     7.365818048200000e+00   5.838957263521782e+00   3.216004200000000e+00  2.89286423e+00  -8.70940180e-01   5.39444670e-01
C     7.377595966099999e+00   4.131696626176319e+00  -1.223342999999986e-01  1.74497040e-01  -4.47171450e-01  -1.89514900e-02
C     8.616028629499999e+00   4.791671622769231e+00  -1.169036999999982e-01  6.61373440e-01   2.76613674e+00   8.38447030e-01
C     8.650549376899999e+00   5.152404340639556e+00   3.356406600000000e+00 -2.66948500e-01  -7.37814600e-01  -5.89452480e-01
C     9.885188109500000e+00   5.859460196195205e+00   3.472783800000000e+00  1.81481060e-01  -1.01617909e+00   1.64508600e-02
C     9.870203670300000e+00   4.115362353029127e+00   1.200126000000000e-01 -2.44148269e+00   7.25750200e-02  -9.75510150e-01
C     1.105341500930000e+01   4.821154776594156e+00   2.537400000000000e-01  9.95688750e-01   1.84385765e+00  -6.83728100e-01
C     1.115608413270000e+01   5.119725718312806e+00   3.715422900000000e+00 -2.52162947e+00   1.88183645e+00  -1.32522865e+00
C     1.237280995680000e+01   5.817964447817122e+00   3.660376800000000e+00 -1.83047520e-01  -1.88142780e-01  -2.26880620e-01
C     3.686987465200000e+00   6.284716836686288e+00   1.455735000000000e-01 -8.74123640e-01  -4.43713030e-01  -1.33837107e+00
C     4.899738033099999e+00   6.970432594981055e+00  -1.241456999999997e-01  1.00672260e-01   1.03209815e+00   9.49559010e-01
C     4.950226508200000e+00   7.221196776456062e+00   3.333458100000000e+00 -3.63378210e-01   1.72501888e+00   3.10269630e-01
C     6.182961619900000e+00   7.922729002302514e+00   3.254253000000000e+00 -6.83613860e-01   1.42156236e+00   5.77211490e-01
C     6.168549109999999e+00   6.265073013857257e+00  -1.245587999999991e-01 -2.92280413e+00   3.95078480e-01   4.83695000e-03
C     7.341591683099999e+00   6.978173891102013e+00  -1.680987000000016e-01  3.17676856e+00  -6.19571950e-01  -2.63412360e-01
C     7.408258939200000e+00   7.244102159728034e+00   3.221266800000000e+00 -9.73576730e-01  -1.54222730e-01  -3.83368710e-01
C     8.611607701299999e+00   7.942060980468815e+00   3.199446900000000e+00  1.52380939e+00   1.43787939e+00   6.74698770e-01
C     8.608915526899999e+00   6.267488272971526e+00  -1.492836000000004e-01  3.26887280e-01  -5.44952920e-01   5.14511640e-01
C     9.852570637900001e+00   7.013106641415274e+00  -2.910540000000239e-02 -7.21053920e-01  -1.27992192e+00   1.71039730e-01
C     9.839312734000000e+00   7.258138243594638e+00   3.291570000000000e+00  2.62981845e+00   1.25100200e-02   1.18838861e+00
C     1.114647428090000e+01   7.945001644897918e+00   3.426199200000000e+00 -2.30890534e+00   9.28323180e-01  -1.26157587e+00
C     1.108509134390000e+01   6.271921897992952e+00   1.381914000000000e-01 -1.20926986e+00   3.89987090e-01  -2.84872500e-02
C     1.227464083880000e+01   7.023867758592485e+00   1.243761000000000e-01  1.91523488e+00  -7.78262070e-01  -1.23726150e-01
C     1.236269404050000e+01   7.209235074405363e+00   3.464288700000000e+00  4.07003580e-01   2.79102539e+00   1.61175580e-01
C     1.358776773500000e+01   8.019288730541088e+00   3.356826900000000e+00  1.94541100e-02  -4.64610407e+00  -3.27571300e-02
