76
Lattice="10.7446858958278 0 0 5.37234294791388 9.3051709414712 0 0 0 30 " PBC="1 1 1" Properties=species:S:1:pos:R:3:force:R:3 Energy="-601.02008041"
C     2.839461073626645e-01   1.301801789159846e-01   1.566618000000000e-01 -4.73149372e+00  -2.82464998e+00   1.13626887e+00
C     1.253185192330133e+01   8.459087943540757e+00   6.600906000000001e-01  4.54517327e+00   3.12356453e+00  -1.44770520e+00
C     1.404860262219386e+01   8.406001385017801e+00   5.805543000000000e-01 -1.73805077e+00  -4.77255463e+00  -1.81500940e-01
C     1.463948019133705e+01   7.057372811929755e+00   2.525673000000000e-01 -4.04322828e+00   1.05828303e+00  -2.05279600e-02
C     8.402003283746105e+00   9.154231483027132e+00  -2.646600000000277e-02 -6.19480160e-01  -2.13646090e-01  -7.36183250e-01
C     9.816687471379634e+00   8.952127171433837e+00  -4.822439999999872e-02  1.08646610e+00  -2.18142819e+00   5.69267590e-01
C     1.042192864408080e+01   7.619289845637808e+00  -1.591968000000001e-01 -1.17401775e+00  -1.07778869e+00   2.32501794e+00
C     1.184309230709946e+01   7.344344655926192e+00   2.357757000000000e-01 -3.65199654e+00  -1.89282507e+00  -3.10886734e+00
C     1.235186709883270e+01   5.966105074821169e+00  -2.423855999999986e-01  5.53087230e-01   2.01869824e+00   2.07145231e+00
C     1.379727791845789e+01   5.883235083463717e+00  -1.278663000000009e-01 -2.47460000e-01   7.99389750e-01  -1.16924849e+00
C     6.126628818269297e+00   8.128349134976320e+00   1.399203000000000e-01 -2.82331860e-01   4.60531660e-01   2.78571770e-01
C     7.504031578277871e+00   8.042693175439432e+00   3.933840000000000e-02  2.44547825e+00  -1.80602569e+00  -1.22342060e-01
C     8.103394655663724e+00   6.753268566353717e+00   2.282730000000000e-02 -6.30061680e-01  -2.98758231e+00  -1.56151630e-01
C     9.453924150384955e+00   6.457720611560428e+00  -1.549817999999981e-01  3.70429356e+00   1.87117610e+00  -1.25235597e+00
C     1.000083516322992e+01   5.130361332948488e+00  -4.163366999999987e-01  2.62244188e+00   1.86087927e+00   8.06824200e-01
C     1.147138543190220e+01   4.834249019537689e+00  -5.147966999999980e-01  1.09835270e-01   1.51645946e+00  -4.12550130e-01
C     1.205994510367961e+01   3.474435351824634e+00  -7.284980999999995e-01 -1.57078000e-02   4.10209806e+00   1.15050836e+00
C     5.234538216628428e+00   7.001833782553851e+00   1.403562000000000e-01  4.16616258e+00  -1.42922521e+00  -2.80678620e-01
C     5.903914097126116e+00   5.695902172427415e+00  -4.913699999999466e-03 -1.07497932e+00   2.37963928e+00   1.38613710e-01
C     7.287369661042737e+00   5.528823547821082e+00   9.459450000000000e-02 -3.42347170e-01   3.50067160e-01  -1.16952794e+00
C     7.778958273955499e+00   4.174166898894686e+00  -1.853579999999866e-02  1.89247673e+00   1.41743781e+00   2.02880090e-01
C     9.184612090324372e+00   4.065395871174035e+00  -2.439989999999987e-01 -1.15224194e+00  -3.68555366e+00   2.41587600e-01
C     9.748332089791303e+00   2.740999172885972e+00  -2.311569000000020e-01 -2.93171890e-01  -4.16355564e+00   2.04901505e+00
C     1.111995469229654e+01   2.397740815132021e+00  -4.108833000000018e-01  7.61306460e-01   5.00012852e+00  -1.36551387e+00
C     3.704238253922278e+00   4.695359945035539e+00  -5.849627999999996e-01 -2.59002575e+00  -3.81960900e-02   1.32616196e+00
C     5.094364817250202e+00   4.634272893590079e+00  -3.148157999999981e-01 -8.25778750e-01  -4.05309319e+00  -1.77986720e-01
C     5.601060780878941e+00   3.295322256589891e+00  -1.581690000000009e-01  9.17706450e-01  -3.33072744e+00   1.06352637e+00
C     7.004883165536159e+00   3.001976649654682e+00   1.179207000000000e-01 -1.29729656e+00   1.60615925e+00  -2.36899970e-01
C     7.594118301992671e+00   1.736418129099298e+00   4.810995000000000e-01 -1.74174205e+00  -1.99209503e+00  -1.28474331e+00
C     8.969487469024383e+00   1.474520650079750e+00   3.320148000000000e-01  7.52946790e-01   3.13313591e+00  -5.67519920e-01
C     9.545610059425680e+00   1.379485078235342e-01   5.290479000000000e-01  2.01254927e+00   5.38082352e+00  -2.16840231e+00
C     2.808212411070534e+00   3.486875155699192e+00  -7.222605000000009e-01 -1.67967610e-01   2.45053970e-01   1.74641259e+00
C     3.390945132237514e+00   2.272850998102264e+00  -2.409672000000000e-01 -2.19593984e+00  -1.24848201e+00  -2.23426553e+00
C     4.758939039420605e+00   2.079925121020765e+00  -8.252039999999994e-02  1.57897642e+00   8.84703030e-01   3.17109910e-01
C     5.312114311592134e+00   7.273015588930495e-01   1.654101000000000e-01  4.38140460e-01   2.64538425e+00  -1.28057780e-01
C     6.694746510228238e+00   5.581102882764993e-01   5.323164000000000e-01 -8.40742210e-01  -6.96450620e-01  -6.17537810e-01
C     1.005976213666444e+00   1.224382487783918e+00  -2.278401000000017e-01  2.75651787e+00  -1.52308498e+00   1.10066695e+00
C     2.483209569521662e+00   1.135230947731710e+00  -1.937802000000026e-01 -4.66381100e-01   1.49674780e-01   3.93439340e-01
C     1.587407232253667e+01   9.199854550042533e+00   3.942744600000000e+00  1.18773454e+00  -1.98569042e+00  -7.23713030e-01
C     1.162318839578772e+01   8.701692825546983e+00   3.610247100000000e+00  3.87299216e+00  -1.39524520e-01  -9.96199460e-01
C     1.310826859575571e+01   8.902198601824496e+00   3.744925800000000e+00 -2.29265425e+00   1.57869408e+00  -1.22535256e+00
C     1.391590983430950e+01   7.774644047911450e+00   3.622192200000000e+00  1.30569430e+00  -2.54831330e+00  -1.98570530e-01
C     7.368677224249224e+00   8.268424339618191e+00   3.339077700000000e+00  5.33630600e-02  -9.05102580e-01   2.27455973e+00
C     8.787651120281469e+00   8.470618725266185e+00   3.299977500000000e+00  2.12235063e+00  -7.67727110e-01   3.99788980e-01
C     9.747751930476131e+00   7.306472331045264e+00   3.247195200000000e+00 -3.46629250e+00  -1.29151622e+00  -8.86933900e-02
C     1.113248326467309e+01   7.402032063168723e+00   3.380837700000000e+00 -1.07701628e+00   1.75413800e+00   6.33066230e-01
C     1.194790580475566e+01   6.292025200614328e+00   3.290109300000000e+00  1.80498560e+00  -9.94840540e-01   7.88563540e-01
C     1.339389393635426e+01   6.447680052961040e+00   3.370205400000000e+00 -1.80348008e+00  -1.73488870e-01  -8.56846230e-01
C     4.593684910703733e+00   7.838162540523530e+00   3.665565000000000e+00  3.28667820e-01   1.95749351e+00   4.21760300e-02
C     5.430474333167045e+00   6.691945721876638e+00   3.333228300000000e+00 -2.56502670e-01   2.79753291e+00  -1.54746350e-01
C     6.844585076914091e+00   6.924414108971085e+00   3.290792100000000e+00  7.68699570e-01  -2.95953870e-01  -1.13027359e+00
C     7.755881858324639e+00   5.811004438455642e+00   3.059788500000000e+00 -1.89153100e-01   1.63230552e+00   6.61998070e-01
C     9.162207325009120e+00   5.945149550709161e+00   3.193266900000000e+00 -1.82017360e-01   1.57531430e+00  -7.60803720e-01
C     9.970311283461198e+00   4.764730552703496e+00   3.268724100000000e+00 -7.47378590e-01   1.07068455e+00   1.81673394e+00
C     1.133589757515125e+01   5.024552513344876e+00   3.319964700000000e+00  1.70509012e+00  -3.99348261e+00   1.99364390e-01
C     1.214563424234926e+01   3.761413430285602e+00   3.480159900000000e+00  2.92623605e+00   2.70752394e+00   4.41329650e-01
C     3.426501876605230e+00   5.262312658101192e+00   3.058428000000000e+00 -2.23099430e-01   1.90390195e+00   2.06882165e+00
C     4.838950739784122e+00   5.488015441508584e+00   2.945074200000000e+00  1.75443535e+00  -3.53614101e+00   1.70772884e+00
C     5.814385613567252e+00   4.301653137771831e+00   3.008944800000000e+00 -1.46165212e+00   1.62160281e+00  -1.06477006e+00
C     7.247953210606024e+00   4.528935660049708e+00   2.943783000000000e+00 -1.88221236e+00  -3.20464424e+00   2.29335784e+00
C     8.029879890799929e+00   3.339600447249334e+00   3.371234700000000e+00 -3.92250210e-01   8.87549420e-01   4.38551330e-01
C     9.407350396053102e+00   3.488471364722240e+00   3.713240100000000e+00  1.11796186e+00   6.12651600e-02  -1.33724581e+00
C     1.030184872063387e+01   2.373655124567506e+00   4.117470600000000e+00 -1.13818385e+00  -4.59399260e-01  -2.66791619e+00
C     1.172639937726537e+01   2.467900687399108e+00   3.860736600000000e+00 -2.25219062e+00   1.52207131e+00   3.70687120e-01
C     2.843453154225931e+00   3.983583133338786e+00   3.386155500000000e+00  1.32710212e+00   6.07773190e-01  -2.59652731e+00
C     3.841802037712542e+00   2.930120258621813e+00   3.267552900000000e+00 -5.24543567e+00  -6.63050790e-01   1.92989742e+00
C     5.195854500046665e+00   3.009621312840439e+00   3.150677100000000e+00  3.08781655e+00   2.65138680e-01  -1.09570914e+00
C     6.041263739326394e+00   1.819147984582393e+00   3.162794400000000e+00 -6.38395260e-01   4.37289740e-01   2.39117486e+00
C     7.393623215226683e+00   2.066906535513739e+00   3.537352200000000e+00  1.40717530e+00  -6.40040540e-01  -1.84122293e+00
C     8.304386684152586e+00   9.542015455935821e-01   3.659042700000000e+00 -9.38305960e-01  -1.90764634e+00   2.26771981e+00
C     9.706484278105707e+00   1.056181752613931e+00   3.983153700000000e+00 -1.10779328e+00   1.16793087e+00   9.41781400e-02
C     1.856896348620853e+00   1.353791733287523e+00   3.811977900000000e+00 -2.03712500e+00   8.28278630e-01   1.07778810e-01
C     3.201994673236781e+00   1.693091019961632e+00   3.543497400000000e+00  2.36284564e+00  -4.68654964e+00  -8.71670890e-01
C     4.041169792033901e+00   4.680529828849914e-01   3.425492100000000e+00 -1.46968225e+00  -6.80357310e-01  -7.81152890e-01
C     5.459506796809423e+00   4.870437201530186e-01   3.325739100000000e+00 -6.64396160e-01   3.51602600e+00   8.39868440e-01
C     1.174101913413520e+00   3.705970430273799e-02   3.841711500000000e+00  2.08743846e+00   8.57591830e-01  -1.48035178e+00
