52
Lattice="8.88768389401873 1.33226762955019e-15 0 4.44384194700937 7.69696003302603 0 0 0 30 " PBC="1 1 1" Properties=species:S:1:pos:R:3:force:R:3 Energy="-418.29842198"
C     1.327059930042878e+01   7.639339278732215e+00  -3.676769999999863e-02  1.46742242e+00   2.55603688e+00  -6.09118060e-01
C     9.532218730549349e+00   7.460740326679300e+00  -3.592379999999906e-02  8.67227540e-01  -3.21901163e+00   1.03496050e-01
C     1.091118990165258e+01   7.032708069113383e+00   1.044537000000000e-01 -4.13348650e-01   1.62681428e+00  -3.03399230e-01
C     1.123654538882935e+01   5.677072748082401e+00   9.036330000000001e-02  1.14216144e+00  -1.44805425e+00  -3.11471040e-01
C     7.140136783766556e+00   6.857911107436887e+00  -2.205617999999987e-01  5.09854860e-01  -4.01873700e-01   1.12650110e-01
C     8.523501936920329e+00   6.448617406942406e+00  -1.458113999999995e-01 -8.75632330e-01   2.71114310e-01   3.50725510e-01
C     8.833294822954153e+00   5.060592970226783e+00  -5.804940000000158e-02  1.36328444e+00   7.84192240e-01   4.33091990e-01
C     1.024339537354007e+01   4.674824874124797e+00   1.614480000000000e-02 -1.72939179e+00   8.76024200e-02  -4.82622860e-01
C     1.055015236007977e+01   3.298245432125782e+00  -1.450880999999988e-01  2.75571450e-01   2.64345440e-01  -6.64839800e-02
C     4.748068124115892e+00   6.323916186590765e+00  -4.173330000000064e-02 -1.98925120e-01  -4.24980440e+00   2.62780370e-01
C     6.105946288355923e+00   5.892320621378961e+00  -1.075283999999996e-01  1.12813990e-01  -2.89299500e-01  -6.14772000e-03
C     6.434463613477513e+00   4.479008361271974e+00  -3.529050000000211e-02  1.01836955e+00   2.02144312e+00  -1.48131940e-01
C     7.809135456408454e+00   4.101259727825244e+00   7.137000000000001e-04  2.02276330e-01  -1.22423265e+00  -5.59807480e-01
C     8.174673762203161e+00   2.696589075652741e+00  -2.793540000000050e-02 -1.61440813e+00   1.55913451e+00   7.31093900e-02
C     9.508644456772901e+00   2.338937974540344e+00  -1.801332000000002e-01  1.53318792e+00  -1.64157775e+00   9.79342600e-02
C     3.733744401735040e+00   5.227792724475268e+00   3.831750000000000e-02 -8.84398270e-01   4.29181860e+00   1.45885250e-01
C     4.037228498718138e+00   3.906474684586043e+00  -2.426609999999840e-02  1.30554155e+00  -2.17838578e+00  -1.12307099e+00
C     5.437978583723293e+00   3.535154090338767e+00  -7.575870000000151e-02 -1.67528811e+00  -2.48965848e+00   6.69428480e-01
C     5.786207014174655e+00   2.119581233070970e+00  -1.663529999999724e-02 -1.99267204e+00   4.54076360e-01  -2.38578620e-01
C     7.109514798867714e+00   1.751933166332409e+00   3.160080000000000e-02  2.23943556e+00  -1.79679541e+00  -1.23194400e-02
C     7.485904655621497e+00   3.446808767962429e-01   7.752690000000000e-02 -1.13920686e+00   3.53549020e-01  -2.30789290e-01
C     3.024418615582508e+00   2.884609491630377e+00  -2.320049999999974e-01  6.94533220e-01   1.65136098e+00   7.55976020e-01
C     3.411511287959474e+00   1.557910045166577e+00  -3.480902999999991e-01 -7.10672830e-01  -2.90731597e+00   1.17492995e+00
C     4.757464091235648e+00   1.071645666797692e+00  -8.934540000000268e-02 -4.52096400e-01   4.77819787e+00  -8.64081950e-01
C     1.019715880095381e+00   9.398231420566948e-01  -2.470742999999977e-01 -2.87368502e+00   2.05585110e-01   7.25501160e-01
C     2.342214885529782e+00   5.342019690709283e-01  -3.251598000000016e-01  1.85794798e+00   9.37727180e-01  -4.21270700e-02
C     4.325871276076510e-02   4.911314740742550e-02   3.363587700000000e+00 -6.97906880e-01  -7.59423730e-01   6.91778660e-01
C     6.852805429459380e+00   7.168955576175627e+00   3.609803700000000e+00  1.10645414e+00  -1.40003419e+00  -3.58623580e-01
C     8.236285234261498e+00   7.569631606281320e+00   3.608347200000000e+00  5.34387680e-01  -1.39536453e+00  -2.10551840e-01
C     9.305382862321796e+00   6.562582753505003e+00   3.558477600000000e+00 -1.59899563e+00   8.70140310e-01   5.77315140e-01
C     1.064816378511824e+01   6.977398484033806e+00   3.437480400000000e+00  1.57363510e-01   1.43098510e-01  -8.48460500e-02
C     1.164137534630685e+01   5.960591425331455e+00   3.377866500000000e+00  8.70095200e-02   2.69834140e-01  -6.45634400e-02
C     4.124841599418600e+00   6.327601798931530e+00   3.312532200000000e+00  6.35912810e-01   1.70105732e+00   2.35184160e-01
C     5.171582836395744e+00   5.386268128468948e+00   3.339945900000000e+00 -1.22523620e-01  -1.64495470e+00   2.21196970e-01
C     6.540804796481462e+00   5.743895138096451e+00   3.498693000000000e+00 -1.12244793e+00   2.73551316e+00   3.86275130e-01
C     7.557637288522388e+00   4.823453942000099e+00   3.635187900000000e+00  1.06153405e+00  -2.06078877e+00  -6.86552450e-01
C     8.936840562011096e+00   5.196975635907154e+00   3.693203700000000e+00  1.69863600e-01  -3.72484160e-01  -8.28339350e-01
C     9.946826115630929e+00   4.172630944247424e+00   3.601125600000000e+00 -9.18436680e-01   6.89564800e-01   2.08502580e-01
C     1.127270101944763e+01   4.588316662168419e+00   3.433003500000000e+00  2.13533017e+00  -4.23861540e-01   1.20043470e-01
C     3.465704386199295e+00   3.615079015411886e+00   3.384394200000000e+00 -1.82895292e+00  -8.04130920e-01   4.26447450e-01
C     4.822669874689293e+00   3.966464868029463e+00   3.331399200000000e+00 -2.48756850e-01   2.54651104e+00  -4.61720400e-02
C     5.835846862337656e+00   3.032775202511874e+00   3.339627300000000e+00  1.99993582e+00  -1.53308558e+00   4.19279190e-01
C     7.242704119821941e+00   3.422092828701295e+00   3.469172100000000e+00 -1.69802237e+00   3.74685320e-01   2.82120550e-01
C     8.236330247040248e+00   2.427829011382810e+00   3.511604100000000e+00  5.96519700e-01  -4.49194630e-01  -8.00347100e-02
C     9.597576088543113e+00   2.799259980036915e+00   3.619527000000000e+00  1.14659353e+00  -2.71340700e-01  -6.08668770e-01
C     1.780594631257089e+00   1.810809830568290e+00   3.565157400000000e+00 -2.47810116e+00   5.37142060e-01   4.64580250e-01
C     3.105035018453074e+00   2.222715032631349e+00   3.525226800000000e+00  1.92691306e+00   1.67004000e-01  -4.04176460e-01
C     4.162347177734614e+00   1.223607826244386e+00   3.522039000000000e+00 -1.01244793e+00   9.87496470e-01  -3.00269600e-01
C     5.514099950778166e+00   1.624066263290030e+00   3.369981900000000e+00 -8.95468700e-02   1.25966765e+00   3.99589790e-01
C     6.546879925080003e+00   6.853785767769608e-01   3.375410100000000e+00  1.01465700e-01  -1.92156429e+00  -6.33303200e-02
C     7.916092064273796e+00   1.041117753017905e+00   3.379156500000000e+00 -2.33266330e-01   3.52350560e-01   1.28634980e-01
C     1.391258572393583e+00   4.321110306250144e-01   3.572087100000000e+00  3.83621300e-01   4.03599880e-01  -7.78503780e-01
