76
Lattice="10.7446858958278 0 0 5.37234294791388 9.3051709414712 0 0 0 30 " PBC="1 1 1" Properties=species:S:1:pos:R:3:force:R:3 Energy="-612.99219666"
C     6.307941847085451e-02   2.651517764523940e-02  -4.369499999999960e-02  8.90956920e-01   3.59419100e-01  -6.55139490e-01
C     1.253370409225677e+01   8.489401212808575e+00  -2.130560999999993e-01 -6.72811120e-01   7.82985470e-01   1.21054860e-01
C     1.394673101953708e+01   8.336257919150277e+00  -2.290083000000003e-01 -9.85838900e-02   4.53444810e-01   5.06548370e-01
C     1.450590655410261e+01   7.041705695618076e+00  -1.593006000000017e-01  4.16722680e-01  -1.24330550e-01   7.24445200e-02
C     8.269882704109351e+00   9.045940788230403e+00  -3.903300000000343e-02  1.49972645e+00  -2.97777070e+00  -2.48183090e-01
C     9.685823267865167e+00   8.837106046496205e+00  -9.009840000000224e-02  1.75907250e-01   1.14350293e+00  -2.51437590e-01
C     1.024843248170376e+01   7.548689652681840e+00  -1.207956000000010e-01  5.49080220e-01  -7.43674650e-01   3.12409650e-01
C     1.166858743361013e+01   7.360307862777181e+00  -1.323585000000023e-01  5.04290430e-01   3.73646300e-02   1.28559480e-01
C     1.225801318079450e+01   6.052250207194374e+00  -3.700200000000820e-03 -1.61982149e+00   1.63996640e-01  -6.94625290e-01
C     1.364662039181274e+01   5.909614219509814e+00  -5.346779999999995e-02  1.62354025e+00  -1.39001474e+00   4.46152200e-02
C     6.011034908632482e+00   8.060000793387832e+00  -1.245174000000020e-01  1.47090369e+00  -1.48465295e+00   1.21787270e-01
C     7.459345557811790e+00   7.860165082469708e+00  -1.170273000000002e-01 -2.13083383e+00   2.31455223e+00   3.92625940e-01
C     7.980185235001564e+00   6.583386479846582e+00  -8.942220000000134e-02  1.81183352e+00  -7.93368020e-01  -1.96995610e-01
C     9.413999852369177e+00   6.409534993519861e+00  -5.277120000000224e-02 -5.37010490e-01  -7.69580650e-01   9.07149400e-02
C     9.965504809394123e+00   5.086356249056134e+00   4.456440000000000e-02  2.10993070e-01  -3.39536890e-01  -7.63422960e-01
C     1.138522981269421e+01   4.898970763804021e+00   2.972730000000000e-02  3.23622070e-01   9.07372340e-01   7.78097780e-01
C     1.197496258927818e+01   3.614402430380183e+00   1.435200000000000e-01 -1.19116739e+00  -6.77664140e-01  -1.03406616e+00
C     5.195661310594183e+00   6.910260943971346e+00  -1.439304000000021e-01 -9.09745710e-01  -1.18448275e+00   1.74205210e-01
C     5.751867175147236e+00   5.582048660339336e+00  -8.996370000000198e-02 -5.36591850e-01   5.10339860e-01  -2.61098770e-01
C     7.160249389606697e+00   5.440044586813312e+00  -1.132953000000008e-01 -6.87332290e-01  -4.81986700e-01   4.13385860e-01
C     7.721804925822500e+00   4.141249484487599e+00  -7.394099999999781e-02 -8.09193310e-01  -1.69076315e+00  -7.19493000e-02
C     9.106716394678571e+00   3.920069107208756e+00  -1.528049999999936e-02  9.70457280e-01   1.02189759e+00   1.71795490e-01
C     9.666619774266962e+00   2.609305414864886e+00  -2.257559999999970e-02  1.89013088e+00   9.66332520e-01   4.03606190e-01
C     1.112624973514820e+01   2.455885013215996e+00   7.357290000000000e-02 -1.17945668e+00   1.65243120e-01  -2.48777490e-01
C     3.507815725452968e+00   4.563623848486677e+00  -4.512900000001707e-03 -2.40570768e+00   1.51106797e+00   1.04217240e-01
C     4.884438367541772e+00   4.427955107543442e+00  -4.312619999999967e-02  1.14452296e+00   9.55415050e-01  -3.85706440e-01
C     5.442910608691712e+00   3.143033828985851e+00  -1.016610000000000e-01  1.27158382e+00  -8.17476270e-01   8.55139090e-01
C     6.865786007621105e+00   2.967025124880110e+00  -9.207419999999900e-02  3.67637650e-01   2.64395430e-01  -2.97457490e-01
C     7.443066767715567e+00   1.637858782071621e+00  -1.269266999999985e-01 -8.04183090e-01   1.23387975e+00  -2.06845100e-02
C     8.850192606052740e+00   1.480352479862976e+00  -9.387689999999793e-02 -3.33847140e-01  -4.62957460e-01  -2.01931390e-01
C     9.424103402861524e+00   1.838902769436304e-01  -1.436786999999988e-01 -1.09258425e+00  -2.96673240e-01   1.15580470e-01
C     2.622945337843181e+00   3.431749648119863e+00   6.915870000000000e-02  1.07149917e+00   8.25985180e-01   3.32131490e-01
C     3.196787798449642e+00   2.144258374400353e+00   8.259690000000000e-02  5.83822550e-01  -1.40728750e-01  -2.59726250e-01
C     4.621921837802074e+00   2.006067001615285e+00   9.497999999999999e-03 -6.41890570e-01  -1.37835546e+00  -8.66273700e-01
C     5.177729396848815e+00   6.686667921971180e-01  -1.339211999999996e-01 -4.85733160e-01   9.19382980e-01   7.64681490e-01
C     6.581126829178688e+00   5.172118287541738e-01  -1.793772000000011e-01  5.92219500e-01  -1.10434857e+00  -8.49710800e-02
C     9.265061529191456e-01   1.145594302711006e+00   9.488999999999999e-03  7.24710780e-01   1.06863840e+00   5.40491810e-01
C     2.370649798012717e+00   9.964494410056264e-01   4.618920000000000e-02 -2.01160064e+00   1.29593367e+00  -8.33786100e-02
C     1.603163594232062e+01   9.275166323252261e+00   3.441462000000000e+00  4.81619200e-01   1.86862320e-01  -1.87429130e-01
C     1.179966674573631e+01   8.776451871602875e+00   3.561321300000000e+00 -8.91748170e-01   9.04066250e-01  -2.05055990e-01
C     1.319123932889266e+01   8.951046934139411e+00   3.534336300000000e+00  1.28274171e+00   1.52772620e-01  -4.87989680e-01
C     1.404217547342906e+01   7.817791008939717e+00   3.491883000000000e+00  5.23925460e-01  -9.82808040e-01   1.77673870e-01
C     7.543854715075900e+00   8.292695203084412e+00   3.439999500000000e+00  6.22506710e-01   8.13501570e-01   8.69293400e-01
C     8.971395617793362e+00   8.459445355156562e+00   3.497178000000000e+00 -3.45840780e-01  -1.36110860e-01  -5.52856980e-01
C     9.828020804896665e+00   7.300509298351784e+00   3.487684800000000e+00 -3.92238920e-01   1.24216634e+00   4.29114700e-01
C     1.123048275114865e+01   7.480214109406603e+00   3.530658900000000e+00  1.52371410e-01   2.97083300e-02  -1.45292380e-01
C     1.208517975064377e+01   6.353145564571752e+00   3.475119000000000e+00 -1.17701943e+00  -7.69635200e-01   7.07761800e-02
C     1.346900987431087e+01   6.481752704340329e+00   3.489201600000000e+00  1.00699325e+00   2.09151634e+00  -1.90341980e-01
C     4.738398208491857e+00   7.954080776991487e+00   3.483985500000000e+00 -1.93106138e+00   1.95930260e+00   4.41405700e-02
C     5.555562300988531e+00   6.849839305299807e+00   3.534022500000000e+00  1.46726113e+00  -1.33326546e+00  -3.20844060e-01
C     6.982707584371155e+00   7.004656320055082e+00   3.543356400000000e+00 -1.75302050e-01  -4.77613070e-01  -6.86138450e-01
C     7.831719033322289e+00   5.860128296882090e+00   3.482699100000000e+00  2.83515670e-01  -2.83497790e-01   5.20642050e-01
C     9.264192713889582e+00   6.012226526792117e+00   3.488340000000000e+00 -1.34578410e+00   3.88434000e-02  -6.44259600e-01
C     1.008686104035568e+01   4.881693015454339e+00   3.371857800000000e+00  7.38894500e-01  -7.67663860e-01   6.95740800e-01
C     1.150473484172205e+01   5.056344188171643e+00   3.391322100000000e+00  2.73057300e-01  -1.19289414e+00  -2.83707280e-01
C     1.234617730413779e+01   3.882069394537659e+00   3.321434400000000e+00  6.10186600e-01   3.06833410e-01   5.06775340e-01
C     3.574404895573057e+00   5.380706163090897e+00   3.440573700000000e+00  1.33850631e+00  -1.44942568e+00   3.46324670e-01
C     5.006872666563105e+00   5.547829266414323e+00   3.477120900000000e+00 -4.71113940e-01  -7.29751480e-01   4.05519860e-01
C     5.852739145951308e+00   4.389248574087744e+00   3.524168400000000e+00 -2.48634180e-01  -7.86519100e-02  -1.03317630e-01
C     7.278298567418522e+00   4.534917396136777e+00   3.507264600000000e+00 -7.96761000e-01   1.37656679e+00  -5.81396200e-02
C     8.118664466030509e+00   3.419441512414106e+00   3.482789700000000e+00  6.12058110e-01  -1.31333774e+00   4.15230510e-01
C     9.535835457492162e+00   3.559828068075630e+00   3.411008700000000e+00 -2.44533500e-02   6.91829660e-01  -1.99877120e-01
C     1.039019528874374e+01   2.423091822840957e+00   3.371461500000000e+00 -1.03435163e+00  -3.71063780e-01  -3.27524800e-01
C     1.177243562868507e+01   2.554381457288118e+00   3.278333100000000e+00  1.64525029e+00   1.47539730e+00   7.17901320e-01
C     3.051071054445317e+00   4.048261236353410e+00   3.430118400000000e+00 -2.00410443e+00   4.53332370e-01  -7.02675170e-01
C     3.866274026871523e+00   2.902871926558211e+00   3.426408300000000e+00  5.63094770e-01   3.85366310e-01   4.32897730e-01
C     5.274819023322368e+00   3.071871975911944e+00   3.534655800000000e+00  1.00254280e-01   9.77530080e-01  -6.50836760e-01
C     6.127186091403502e+00   1.960998429736198e+00   3.503567100000000e+00  1.03774756e+00  -1.46502681e+00   8.50146810e-01
C     7.557617207181203e+00   2.103939068717333e+00   3.575477100000000e+00 -1.06519530e-01   1.14051020e-01  -1.39542531e+00
C     8.404933467037893e+00   9.526608884410462e-01   3.446410800000000e+00 -3.49506300e-01   3.53475870e-01   9.10402980e-01
C     9.827296022109282e+00   1.117580248130752e+00   3.391404900000000e+00 -8.75322960e-01  -4.01807190e-01   3.12072660e-01
C     1.904088029838813e+00   1.426406030493454e+00   3.351087000000000e+00 -6.18664640e-01   1.04892101e+00  -2.77655200e-02
C     3.302377331044968e+00   1.608616631030706e+00   3.406893300000000e+00  4.25368800e-02  -1.51523440e-01  -8.51435700e-02
C     4.139071286974058e+00   4.782188821369414e-01   3.464829300000000e+00  1.64904190e+00  -9.07213550e-01   2.23715040e-01
C     5.592295803356015e+00   6.325113644063292e-01   3.518528700000000e+00 -1.37141177e+00   8.49379800e-02  -1.17207190e-01
C     1.333071099283476e+00   1.589292489487898e-01   3.430113300000000e+00 -2.14987450e-01  -1.86697587e+00  -2.77581860e-01
