64
Lattice="9.86 0 0 4.93 8.53901048131456 0 0 0 30 " PBC="1 1 1" Properties=species:S:1:pos:R:3:force:R:3 Energy="-511.97439319"
C     5.034416956299999e+00   8.095474038213963e+00  -5.394906000000006e-01 -1.67048087e+00   6.46892920e-01  -3.47315230e-01
C     1.305804022100000e+00   2.820775868062152e-01  -6.471408000000025e-01  1.04779794e+00   8.74961100e-01   2.44833852e+00
C     9.781848653999999e+00   3.762621038896720e-01   3.897595500000000e+00 -4.05079030e-01   1.94521863e+00  -9.73475340e-01
C     1.117255481900000e+00   1.148509461905406e+00   3.866268300000000e+00  1.71902535e+00  -5.76973150e-01  -2.02989060e-01
C     7.456878155499999e+00   8.118755308727263e+00  -4.145076000000003e-01 -5.91650340e-01  -5.49432330e-01  -1.87980424e+00
C     3.701492166100000e+00   2.856489425493704e-01  -4.229678999999997e-01  3.95994597e+00   1.26743711e+00   2.06704750e-01
C     2.375560482300000e+00   4.171172557015464e-01   3.758370900000001e+00  6.02358000e-03   9.65725890e-01   7.06368040e-01
C     3.664939765700000e+00   1.048450020221604e+00   3.907878600000000e+00 -2.33952829e+00   3.28884618e+00  -3.05391270e-01
C     9.945403228099998e+00   8.116910711683374e+00  -4.947848999999991e-01 -2.58018023e+00   1.46492470e-01   6.50168610e-01
C     6.193285237100000e+00   3.358525176446440e-01  -5.325464999999987e-01  2.07722828e+00  -3.96053966e+00   4.92260050e-01
C     4.907130469500000e+00   3.899975291972760e-01   3.963802200000000e+00 -1.92170889e+00   1.91190523e+00  -1.39290798e+00
C     6.086781658300000e+00   1.161783353696566e+00   3.847401000000000e+00 -6.05017400e-01   1.40081797e+00   8.36270000e-02
C     1.234985696140000e+01   8.112017602508018e+00  -4.266890999999973e-01  2.16324555e+00   1.63197307e+00  -1.05272122e+00
C     8.718477381900000e+00   2.867562814284168e-01  -5.610338999999982e-01 -8.30079230e-01   1.56360960e-01   8.17931650e-01
C     7.281757209799999e+00   4.932639670470512e-01   3.844587000000000e+00  2.11679159e+00  -3.79751208e+00  -7.92687150e-01
C     8.551267705799999e+00   1.074502455805979e+00   3.811834800000000e+00  1.39531690e-01   3.23827329e+00   1.02472128e+00
C     1.373920994000000e+00   1.741536823142917e+00  -4.731194999999992e-01 -1.44832428e+00  -1.42638717e+00  -8.15786080e-01
C     2.542072563400000e+00   2.498003492060877e+00  -4.067744999999974e-01  2.20884750e+00  -2.92100230e+00   1.06436043e+00
C     1.100551833380000e+01   2.574464012041521e+00   3.923342100000000e+00 -9.43620740e-01  -1.59116688e+00  -2.48895530e-01
C     2.375926682700000e+00   3.222229333719396e+00   3.919177200000000e+00  4.42235430e-01   1.10593011e+00   6.08137870e-01
C     3.784098950300000e+00   1.729774080036402e+00  -3.442365000000009e-01 -4.16687630e-01  -9.31035750e-01  -1.12375774e+00
C     5.065741880499999e+00   2.346924231270018e+00  -4.368350999999997e-01 -1.98784333e+00   3.24302704e+00   1.34882410e-01
C     3.580653675600000e+00   2.515781882660447e+00   3.922533900000000e+00  2.47871507e+00  -5.99752430e-01  -4.95960700e-02
C     4.842213462000000e+00   3.304532330060562e+00   3.894672300000000e+00 -1.21640982e+00  -2.92078545e+00  -7.14129750e-01
C     6.293160973200000e+00   1.688547310488438e+00  -5.829747000000012e-01 -1.03616521e+00   2.16035587e+00   7.79155550e-01
C     7.489560998900000e+00   2.433908740106844e+00  -5.395175999999999e-01  1.53556102e+00   9.36937960e-01  -1.52342900e-02
C     6.087344516400000e+00   2.629429964061701e+00   3.756468600000000e+00 -1.99655051e+00  -3.83557534e+00   1.57485838e+00
C     7.300097105599999e+00   3.211334324857859e+00   3.885506700000000e+00  3.04979912e+00   2.64666055e+00  -1.10708349e+00
C     8.745702074399999e+00   1.745548450266421e+00  -5.300720999999982e-01 -1.21649110e-01  -1.63642348e+00  -3.15213140e-01
C     1.001163013660000e+01   2.430100597603079e+00  -4.704518999999969e-01 -2.58819316e+00   2.72528400e-01  -1.40681140e-01
C     8.567470052200001e+00   2.536930449916262e+00   3.885056700000000e+00 -5.77600790e-01  -1.33686558e+00  -2.54793850e-01
C     9.780270068000000e+00   3.275309957615696e+00   3.908433600000000e+00 -5.58933530e-01   6.03986050e-01   1.79913000e-03
C     2.535898428600000e+00   3.875263224863430e+00  -2.722991999999991e-01  1.52757660e-01  -1.15983960e+00  -8.95505360e-01
C     3.721601093799999e+00   4.552923195281260e+00  -3.806666999999990e-01  3.85451912e+00  -1.50451600e-02   2.29348500e-02
C     1.224579166200000e+01   4.652867701884002e+00   4.016259600000000e+00 -7.83710840e-01   1.59447610e+00  -1.27927013e+00
C     3.552056668300000e+00   5.418560173894869e+00   3.873400800000000e+00  3.21454628e+00  -2.06919766e+00   6.03591420e-01
C     5.007011677900000e+00   3.814192819641204e+00  -4.012098000000002e-01 -6.23134700e-01  -1.81360690e-01  -4.57030800e-02
C     6.225939042800000e+00   4.547581361105182e+00  -4.313544000000000e-01 -1.90751880e-01   6.01076360e-01  -7.93179010e-01
C     4.824305039800000e+00   4.645854100236149e+00   3.833180700000000e+00  1.25228040e+00   4.98892328e+00   3.09299400e-01
C     6.194406121899999e+00   5.407531358739109e+00   3.809754600000000e+00 -4.51464995e+00  -1.50797805e+00  -5.39085310e-01
C     7.477765135800000e+00   3.891974068372790e+00  -4.956437999999999e-01 -1.66113350e-01  -1.47263157e+00  -1.03805080e-01
C     8.687365039299999e+00   4.635386554239242e+00  -5.200242000000017e-01  1.18357530e+00  -4.06920325e+00   5.87083690e-01
C     7.371644913799999e+00   4.649631246131873e+00   3.801275100000000e+00 -8.16527960e-01   9.23632020e-01   9.06471040e-01
C     8.554048965300000e+00   5.429703582571269e+00   3.888919500000000e+00  3.70133200e-02  -1.21465946e+00  -9.99920800e-01
C     9.933732488399999e+00   3.838447110398701e+00  -4.263729000000005e-01  5.90582770e-01   1.31786367e+00  -1.82795050e-01
C     1.120223558820000e+01   4.514290320946807e+00  -3.425817000000002e-01 -3.87713518e+00   2.95474344e+00   3.08392800e-01
C     9.766403604899999e+00   4.706071116751004e+00   3.878405100000000e+00  1.71226857e+00   7.63503370e-01   9.82226420e-01
C     1.104014793560000e+01   5.438386133817437e+00   3.962547600000000e+00 -1.67718664e+00  -1.86521498e+00  -2.13022400e-01
C     3.770035188600000e+00   5.952337390774175e+00  -5.020311000000000e-01 -3.88427060e-01   1.64309821e+00   1.81950335e+00
C     5.022002181000000e+00   6.663020788761937e+00  -4.315524000000011e-01 -6.60932440e-01   6.07402090e-01  -1.46984130e+00
C     1.347811033660000e+01   6.823740165434192e+00   3.875496600000000e+00 -7.10805740e-01   6.42982290e-01  -6.95858700e-01
C     4.838702611800000e+00   7.547619237877118e+00   3.828686100000000e+00  1.24342541e+00  -2.95460773e+00  -7.32128000e-03
C     6.228450581999999e+00   5.974004275966126e+00  -5.255141999999999e-01  2.43421414e+00   1.07684850e-01   6.85826890e-01
C     7.560917128700000e+00   6.713484205946118e+00  -5.474003999999972e-01 -5.80000360e+00  -1.50400380e-01   6.68595140e-01
C     6.096452543500000e+00   6.822228675189127e+00   3.744212700000000e+00 -1.42020271e+00  -1.83722730e-01   1.71563380e-01
C     7.264030113000000e+00   7.560582480467016e+00   3.675029400000000e+00  1.36350334e+00  -7.05511730e-01   8.60666450e-01
C     8.709484864699998e+00   6.007099858174615e+00  -5.050106999999997e-01  1.28586759e+00  -7.76802300e-02   1.59534210e-01
C     9.938593221900000e+00   6.663451069500026e+00  -4.212105000000008e-01  2.75788080e-01   2.41828468e+00  -1.45112130e-01
C     8.482886633800000e+00   6.836073229050666e+00   3.804301500000000e+00  1.41540961e+00   1.00576704e+00  -2.88326390e-01
C     9.714498839400001e+00   7.575676035391465e+00   3.828004500000000e+00  2.73227426e+00  -3.36133650e+00   9.09396560e-01
C     1.111742543910000e+01   5.961437670413025e+00  -3.142572000000001e-01  3.51597538e+00  -1.74720400e-01  -5.89141940e-01
C     1.239976990830000e+01   6.722660226607925e+00  -3.717036000000000e-01 -1.29742770e+00  -2.26463654e+00  -2.87232170e-01
C     1.101389972820000e+01   6.852165165080435e+00   3.906085500000000e+00 -4.14897960e-01  -8.43913700e-02  -7.94081460e-01
C     1.226684966400000e+01   7.541008506743712e+00   3.793487100000000e+00 -2.02277065e+00   1.60731491e+00   1.47740040e+00
