64
Lattice="9.86 0 0 4.93 8.53901048131456 0 0 0 30 " PBC="1 1 1" Properties=species:S:1:pos:R:3:force:R:3 Energy="-510.7530568"
C     4.910785078500000e+00   8.418966423578912e+00  -2.639963999999999e-01  1.44518704e+00  -2.86744550e-01  -3.85841130e-01
C     1.231580209900000e+00   5.697054450343256e-01  -2.749047000000004e-01  1.08566723e+00   1.78788667e+00  -1.61646420e-01
C     9.828905158900000e+00   1.380222598658904e-01   3.860621100000000e+00  2.19762815e+00  -2.15475774e+00   6.34009700e-02
C     1.230385670900000e+00   8.300709752831495e-01   3.759948600000000e+00 -2.14586410e+00   6.27368240e-01  -1.33723500e-02
C     7.437920629300000e+00   8.441707687069457e+00  -1.448967000000003e-01 -2.64519792e+00  -2.29377126e+00  -1.37813995e+00
C     3.677475523200000e+00   5.755492876365232e-01  -4.201025999999999e-01  2.79453653e+00   1.79072052e+00   9.91021500e-01
C     2.415420271800000e+00   1.466378652698960e-01   4.033829400000000e+00 -1.71531780e-01  -6.17714280e-01  -9.79372000e-02
C     3.646722873400000e+00   8.151269384322064e-01   4.039672500000000e+00  7.72034810e-01   5.27988470e-01  -2.94289200e-01
C     9.894967405399999e+00   8.502631221311427e+00  -4.570763999999983e-01  3.51341210e-01  -3.98999381e+00  -8.45661140e-01
C     6.202570990699999e+00   6.223991663657769e-01  -4.183829999999986e-01  5.30763800e-02   7.74993630e-01  -1.38643126e+00
C     4.858908512600000e+00   9.395831869584159e-02   4.151976900000000e+00  2.79814092e+00   1.07342259e+00  -9.65331790e-01
C     6.124764498200000e+00   8.183266764392720e-01   4.011658500000000e+00  2.08669510e-01   6.82201160e-01   7.18737390e-01
C     1.237873073890000e+01   8.436222397517314e+00  -6.194190000000006e-01 -1.28917513e+00   2.21300218e+00   2.03425849e+00
C     8.633067843399999e+00   6.227138289019648e-01  -3.155895000000015e-01  8.37466230e-01  -1.57525945e+00  -3.41472420e-01
C     7.418771572600000e+00   1.038948236309984e-01   3.964315200000001e+00 -2.86666901e+00   1.40727741e+00  -1.40387310e-01
C     8.639361234899999e+00   8.406521755095464e-01   3.864095700000000e+00 -1.31786960e+00  -1.00611695e+00  -6.84962090e-01
C     1.261610762600000e+00   2.002754888198064e+00  -6.174521999999989e-01 -5.15437320e-01  -1.11514377e+00   1.22586493e+00
C     2.520984932100000e+00   2.675337989935010e+00  -7.916945999999996e-01 -1.19520581e+00   2.06772662e+00  -5.35693210e-01
C     1.105095804520000e+01   2.240812936688727e+00   3.520343400000000e+00 -7.37127600e-02   6.26683790e-01   6.45228670e-01
C     2.427714903000000e+00   2.938104262980286e+00   3.635211600000000e+00  6.28306370e-01   1.02309130e+00  -1.60559610e-01
C     3.767619390000000e+00   2.007529902858480e+00  -5.566598999999997e-01 -2.56366317e+00  -5.50792940e-01  -8.65468850e-01
C     4.970037368100000e+00   2.714036614650161e+00  -5.662451999999973e-01  9.34216200e-01   5.54646920e-01  -1.60389300e-01
C     3.682342567100000e+00   2.216231601829846e+00   3.826786800000000e+00 -1.13983021e+00   1.35347848e+00   7.21371500e-02
C     4.888588493000000e+00   2.984182300552253e+00   3.913502100000000e+00  5.30676700e-02  -1.54337485e+00   3.74908340e-01
C     6.215217623900000e+00   2.070338850614434e+00  -4.284189000000005e-01  3.61105730e-01  -2.47162365e+00   1.30719489e+00
C     7.455962260100000e+00   2.731757623099305e+00  -2.445395999999995e-01 -1.49210914e+00  -4.70310300e-01  -5.05837180e-01
C     6.111031440900000e+00   2.300038061746225e+00   4.053404700000000e+00  8.84593820e-01  -3.25338878e+00  -6.50167460e-01
C     7.372628300900000e+00   2.924574457045041e+00   4.021655400000000e+00  6.27994000e-02   2.88873038e+00  -7.30553620e-01
C     8.682618681799999e+00   2.022007282786691e+00  -1.889883000000019e-01 -1.67020619e+00   3.67072700e-02  -1.26374607e+00
C     9.832689919900000e+00   2.713478675705397e+00  -5.255852999999995e-01  3.87117374e+00  -5.24391810e-01   1.41853960e-01
C     8.606246424900000e+00   2.227509243750991e+00   3.705233400000000e+00 -9.89976820e-01   2.19124386e+00   1.21841583e+00
C     9.790108967600000e+00   2.996319820828734e+00   3.522561600000000e+00  1.44864300e+00  -3.89124270e-01   9.19233250e-01
C     2.466675559100000e+00   4.149962081933668e+00  -1.147815600000001e+00  1.92010410e+00  -1.54198648e+00   1.50266757e+00
C     3.746465548800000e+00   4.846290293233189e+00  -1.058579099999999e+00  4.75898530e-01   7.94541220e-01   1.93494905e+00
C     1.229389495380000e+01   4.401348074151828e+00   3.665013600000000e+00  1.35815291e+00  -8.21729040e-01   2.24268950e-01
C     3.708067898700000e+00   5.090111746847327e+00   3.934008000000000e+00 -2.74096261e+00  -5.85229300e-02  -9.17379670e-01
C     4.992518809000000e+00   4.119215239947808e+00  -6.683621999999971e-01 -1.92468835e+00   1.61443847e+00   2.62243280e-01
C     6.179032409900000e+00   4.820965210561500e+00  -2.387346000000008e-01 -1.75230793e+00   1.09102548e+00  -2.70774017e+00
C     4.917415090400000e+00   4.369587053891260e+00   3.962385600000000e+00 -1.28611911e+00   1.06202358e+00   1.07928935e+00
C     6.087043046900000e+00   5.076086080573508e+00   4.279312800000000e+00  2.05293971e+00  -2.24440880e-01  -1.10433543e+00
C     7.373603109799999e+00   4.115840793786322e+00  -3.025076999999996e-01  3.55990776e+00   1.29504804e+00   5.14226680e-01
C     8.654367021000001e+00   4.817992524843098e+00  -4.897613999999990e-01 -6.58838980e-01   1.50754035e+00   6.40664340e-01
C     7.334678984999999e+00   4.427979540036852e+00   4.144086000000000e+00  2.54712144e+00  -2.74071753e+00   3.10751500e-02
C     8.632433007300000e+00   5.121691740085721e+00   4.087706400000000e+00 -1.82558076e+00   4.14653780e-01  -6.28903600e-01
C     9.878989719100000e+00   4.096728182799252e+00  -6.681108000000009e-01 -1.69147580e-01   2.70161749e+00  -1.11115477e+00
C     1.110976421910000e+01   4.878729396315975e+00  -1.064222100000002e+00 -1.02653118e+00  -2.68308665e+00   7.03002900e-01
C     9.840514963800000e+00   4.438017317636302e+00   3.732086400000000e+00 -9.75551070e-01  -1.19921651e+00  -4.24879070e-01
C     1.107360192960000e+01   5.146301936800024e+00   3.636776100000000e+00  1.75315750e-01  -1.41842314e+00   1.29130608e+00
C     3.748709586200000e+00   6.310177604234504e+00  -8.117663999999998e-01  6.93925720e-01  -5.07553400e-01   2.22551070e-01
C     4.991796514700000e+00   6.990691568125065e+00  -4.147382999999998e-01 -3.03232959e+00   5.02972000e-02  -6.59514740e-01
C     1.349357273930000e+01   6.510603123468444e+00   4.023180300000000e+00  1.80032048e+00   3.20879830e-01  -1.01001846e+00
C     4.908283547200000e+00   7.213160201352705e+00   4.021347900000000e+00 -8.07427840e-01   5.72762740e-01   9.38651070e-01
C     6.174638448800000e+00   6.268863992949958e+00  -3.113223000000005e-01  1.15638332e+00  -8.82478680e-01   1.21678231e+00
C     7.404100286999999e+00   6.958947711275560e+00  -1.709478000000004e-01  1.56832850e+00   1.68634045e+00  -6.51803210e-01
C     6.133689720900000e+00   6.470308045353953e+00   4.277971200000001e+00 -1.16381538e+00   3.45897493e+00  -1.08326273e+00
C     7.325757558399999e+00   7.290999429965451e+00   4.231917900000000e+00  1.65249504e+00  -2.79288123e+00  -3.12098900e-02
C     8.650523395800001e+00   6.292007102273693e+00  -4.354547999999987e-01  1.23158156e+00  -1.10279303e+00  -4.03460230e-01
C     9.939708092099998e+00   7.001275500834815e+00  -6.849083999999976e-01 -2.48847367e+00   8.60819540e-01   8.55281660e-01
C     8.619083504000001e+00   6.566160060403944e+00   4.163304000000000e+00 -1.18292274e+00  -9.02669380e-01   3.74571270e-01
C     9.863481368799999e+00   7.225966155369561e+00   4.100874900000000e+00 -1.17087828e+00   1.82704700e-01  -2.80699400e-02
C     1.111056997830000e+01   6.267668787653073e+00  -1.050591900000001e+00  8.91515010e-01   3.42523952e+00   2.04157662e+00
C     1.239524278790000e+01   7.083167685381788e+00  -8.169998999999990e-01 -8.85716880e-01  -4.27248303e+00  -1.70342243e+00
C     1.108512674130000e+01   6.517168597846306e+00   3.925321500000000e+00 -1.61099339e+00   7.34645820e-01  -5.94650510e-01
C     1.225995096710000e+01   7.237375554222413e+00   3.898666200000000e+00  2.89429525e+00  -5.25839300e-02   1.04370747e+00
