64
Lattice="9.86 0 0 4.93 8.53901048131456 0 0 0 30 " PBC="1 1 1" Properties=species:S:1:pos:R:3:force:R:3 Energy="-511.1762826"
C     5.039433576400000e+00   8.307969448761382e+00   7.106970000000000e-02  7.61161830e-01   6.83769530e-01   7.75152520e-01
C     1.397110925200000e+00   5.104217423649344e-01   2.667270000000000e-01 -2.02356458e+00  -1.88656315e+00  -2.55702309e+00
C     1.083067608100000e+00   1.000384101009894e+00   3.419600100000000e+00  1.85971702e+00  -1.52685700e+00   4.51843260e-01
C     2.401895852100000e+00   1.660001654624113e+00   3.310367400000000e+00 -1.79681878e+00  -1.13992207e+00   8.39999780e-01
C     7.514503298599999e+00   8.302010414907810e+00   7.714349999999999e-02  2.38349850e-01  -7.61050400e-02   1.17743792e+00
C     3.794079291600000e+00   4.516489286925616e-01  -1.164839999999998e-01  1.01754829e+00   3.78474440e-01   1.52919607e+00
C     3.621003753600000e+00   9.721176707882639e-01   3.598912500000000e+00  3.47495760e-01  -1.53671385e+00  -9.08682550e-01
C     4.839255807100000e+00   1.698998461585225e+00   3.413704500000000e+00  4.28436650e-01  -2.04402977e+00   1.90516403e+00
C     1.000590285700000e+01   8.232249773329983e+00   7.062120000000000e-02 -2.85446776e+00   3.52442457e+00  -1.41011102e+00
C     6.203634490300001e+00   4.941997572055544e-01   9.192359999999999e-02  2.76066449e+00  -2.03516230e+00  -5.65861380e-01
C     6.113937084300000e+00   9.924371855165768e-01   3.629904000000000e+00 -3.82296172e+00  -1.32298487e+00  -5.88024100e-01
C     7.303265074300000e+00   1.662787421403108e+00   3.617608500000000e+00  1.23060443e+00  -1.00774528e+00   5.10932020e-01
C     1.244008212390000e+01   8.333893969968768e+00  -7.298639999999779e-02 -1.47608897e+00  -1.38009055e+00   1.05550024e+00
C     8.737807270999999e+00   4.203959795555520e-01   1.151415000000000e-01 -5.50124260e-01   3.79327799e+00  -6.87075200e-01
C     8.475656443700000e+00   9.085933247342952e-01   3.560887800000000e+00  3.24112334e+00   2.20254080e-01  -1.54961270e-01
C     9.709256178800000e+00   1.685521768295165e+00   3.422823300000000e+00  5.81576810e-01  -4.25503050e-01  -9.53557130e-01
C     1.339993424200000e+00   1.870800193008947e+00  -4.655430000000038e-02 -2.13726017e+00   1.37938115e+00  -7.14850310e-01
C     2.498000187500000e+00   2.615701882303110e+00  -3.052737000000008e-01  2.21078676e+00  -2.97720404e+00   3.60777110e-01
C     2.384389126300000e+00   3.030652364095356e+00   3.071325900000000e+00  3.80131390e-01   2.78672203e+00  -7.84113300e-02
C     3.623091164900000e+00   3.799812272091836e+00   3.127236300000000e+00 -7.78898600e-01   2.92418660e-01  -1.44201490e-01
C     3.758528124900000e+00   1.891766452391015e+00  -2.294912999999994e-01  9.40076240e-01   2.23234970e-01   4.64476660e-01
C     5.024268551300000e+00   2.630376854933828e+00  -1.106555999999976e-01 -2.74823813e+00   4.63995160e-01  -7.60986930e-01
C     4.823121593300000e+00   3.096180730518876e+00   3.367789200000000e+00  1.45359888e+00   3.27887260e-01  -8.88249200e-02
C     6.091099352300000e+00   3.743468806901023e+00   3.617279100000000e+00 -3.89970350e-01   1.44984490e+00   3.55187190e-01
C     6.162733731299999e+00   1.887793592375090e+00   1.258236000000000e-01  1.54609209e+00   7.87089710e-01  -3.12414620e-01
C     7.389524396899999e+00   2.599862871763758e+00   1.400388000000000e-01  2.95502248e+00   4.20487000e-03  -7.21053680e-01
C     7.371045524399999e+00   3.043559505386400e+00   3.746575800000000e+00 -2.89007889e+00   1.88764144e+00  -1.73954833e+00
C     8.496239193699999e+00   3.813723515625223e+00   3.479432100000000e+00  2.85594976e+00  -2.68452750e-01  -2.35131250e-01
C     8.673539100799999e+00   1.917995303931907e+00   8.459730000000000e-02 -4.72231200e-02  -1.68119769e+00  -9.46548800e-02
C     9.899248370899999e+00   2.575896601829751e+00  -1.944687000000016e-01  1.08056499e+00   4.50436300e-01   1.74468313e+00
C     9.769895030899999e+00   3.106551529527046e+00   3.176579400000000e+00 -2.12958815e+00  -1.07118790e-01   1.66411738e+00
C     1.099643219590000e+01   3.784530688156619e+00   3.028282800000000e+00  1.89976780e-01   8.81569890e-01   6.64204420e-01
C     2.547376356000000e+00   3.966902519093114e+00  -4.934010000000022e-01  3.73454240e-01   3.35970100e+00   4.36424410e-01
C     3.758398367300000e+00   4.723208910784364e+00  -3.920624999999980e-01  2.04655713e+00   7.59222190e-01   3.98195800e-02
C     3.637963939600000e+00   5.252063729682369e+00   3.101301300000000e+00 -1.59930211e+00  -1.66753963e+00   1.39108297e+00
C     4.816320313199999e+00   5.866210881710379e+00   3.508063800000000e+00  1.75720323e+00   2.28223711e+00  -2.92099390e-01
C     5.045733968500000e+00   4.082503557581249e+00  -2.564867999999976e-01 -8.33107110e-01  -1.46148502e+00   9.80852410e-01
C     6.281638527900000e+00   4.763943918718785e+00  -1.213110000000128e-02 -2.86172040e-01   1.29311175e+00  -4.28337180e-01
C     6.025386396300000e+00   5.186493949058022e+00   3.714381000000000e+00  2.69171348e+00  -8.30777050e-01  -1.76268330e-01
C     7.310599681799999e+00   5.942001943269392e+00   3.845604900000000e+00 -2.14236154e+00   7.05957980e-01  -7.16874520e-01
C     7.504441710900000e+00   4.015778705009271e+00   1.970760000000000e-02 -6.59483700e-01   3.72497390e-01   8.41053080e-01
C     8.766800551699999e+00   4.728260589384332e+00  -2.429999999975507e-04 -1.81953482e+00   8.29565750e-01  -5.56987900e-01
C     8.506210956800000e+00   5.235298065725727e+00   3.567411600000000e+00 -9.42021400e-02  -6.88350500e-02   4.96863550e-01
C     9.749953723200001e+00   5.925814028761828e+00   3.444454200000000e+00  6.06042720e-01   5.03245960e-01   4.22588540e-01
C     9.962379929600001e+00   4.023153079849904e+00  -2.260503000000007e-01  4.18790320e-01  -5.91074250e-01  -3.95128220e-01
C     1.121636403150000e+01   4.723219328377150e+00  -4.363796999999998e-01 -2.32971322e+00   3.33600830e-01   3.06302020e-01
C     1.097220164030000e+01   5.259654483048566e+00   3.201053100000000e+00  1.30053223e+00  -1.87068527e+00  -9.47758570e-01
C     1.224460560260000e+01   5.962717582693872e+00   3.184645500000000e+00 -1.09691675e+00  -8.42404350e-01   6.43034690e-01
C     3.796578703000000e+00   6.180220183596659e+00  -2.651456999999979e-01 -2.16005940e-01  -7.14787870e-01  -7.25247570e-01
C     4.998768323499999e+00   6.931277987106273e+00  -1.422096000000010e-01  3.07397321e+00  -2.05009274e+00   1.58650409e+00
C     4.931894500400000e+00   7.318047087221270e+00   3.566531700000000e+00 -3.51026912e+00  -2.78935220e-01  -3.36099390e-01
C     6.084006955700000e+00   8.085133979643521e+00   3.607847400000000e+00 -1.24322510e-01   1.82629481e+00   5.51272560e-01
C     6.302813913200000e+00   6.216569726528762e+00   7.294770000000000e-02 -2.71218269e+00  -1.78849509e+00  -6.61014720e-01
C     7.529647075400000e+00   6.857311968257151e+00   2.338140000000000e-01 -2.59141414e+00   2.84521039e+00  -1.06708028e+00
C     7.290193228600000e+00   7.442941386985104e+00   3.866097900000000e+00  1.24794965e+00  -4.07308836e+00  -5.80665750e-01
C     8.559198251700000e+00   8.015202557856094e+00   3.842580300000000e+00 -2.93411770e-01   4.12135753e+00  -1.20947935e+00
C     8.681311147199999e+00   6.194789101717216e+00   5.257650000000001e-02  4.01787697e+00  -3.20376618e+00  -3.27920410e-01
C     9.938245903400000e+00   6.872828374980569e+00  -9.054599999999979e-02  3.89246340e-01  -2.17705134e+00  -1.87294480e-01
C     9.783976491299999e+00   7.340630464408041e+00   3.668882700000000e+00 -5.02615890e-01  -1.48373600e-01   5.31086600e-02
C     1.098148867570000e+01   8.091480684572886e+00   3.635372100000000e+00  2.13845229e+00  -6.12459300e-01  -2.27928820e-01
C     1.112882493020000e+01   6.149911136678109e+00  -3.958617000000011e-01  3.09069069e+00   7.01108880e-01   1.47779379e+00
C     1.246499632260000e+01   6.902743773515990e+00  -2.513153999999993e-01 -3.67732617e+00  -4.54393400e-02  -6.06239250e-01
C     1.223620305850000e+01   7.321562512445781e+00   3.526899900000000e+00  4.80524920e-01   1.58876109e+00  -6.40006240e-01
C     1.352443626480000e+01   8.013501672358583e+00   3.546177900000000e+00 -1.54478202e+00   7.55302120e-01   6.55766300e-02
