64
Lattice="9.86 0 0 4.93 8.53901048131456 0 0 0 30 " PBC="1 1 1" Properties=species:S:1:pos:R:3:force:R:3 Energy="-514.82998526"
C     4.943632929000000e+00   8.461204211967708e+00  -1.945619999999977e-01 -5.78707170e-01   2.41749925e+00   7.99189760e-01
C     1.245647866300000e+00   6.237534534279048e-01  -1.736630999999988e-01  5.25539620e-01   1.88716801e+00   3.42222000e-03
C     1.178625255800000e+00   7.715019877909345e-01   3.595093800000000e+00  2.21736437e+00  -8.30097900e-02  -2.42154030e-01
C     2.445907046699999e+00   1.498462532945778e+00   3.595279200000000e+00 -1.09197869e+00  -6.47280570e-01  -4.15493040e-01
C     7.429159279800000e+00   8.496725983223879e+00  -1.834764000000000e-01 -1.92119312e+00  -2.60415302e+00   7.75466800e-01
C     3.677043112899999e+00   6.268742909781352e-01  -5.256750000000210e-02  2.36156040e+00   3.09717995e+00  -1.69260241e+00
C     3.635629781800000e+00   7.291768453249280e-01   3.507200700000000e+00  2.35425916e+00   2.02555610e+00   4.23927600e-01
C     4.960611454600000e+00   1.418816876665989e+00   3.564330900000000e+00 -1.88536651e+00   2.04846580e-01  -5.23757010e-01
C     9.858456910000001e+00   8.485363975879190e+00  -1.790430000000001e-01  2.96856900e-01  -1.57102750e-01   4.24083650e-01
C     6.159419834600000e+00   6.845026210758736e-01  -2.276627999999974e-01 -2.66996990e-01  -1.73602009e+00   1.31381339e+00
C     6.223979170599999e+00   7.555687065758832e-01   3.540395700000000e+00 -3.06004237e+00  -4.05934550e-01   4.16847950e-01
C     7.395418902099999e+00   1.503935184762410e+00   3.566556300000000e+00  1.16699087e+00  -1.89472023e+00  -9.34304570e-01
C     1.231411727150000e+01   8.528674605544694e+00  -6.482009999999860e-02  4.38285490e-01  -1.53088220e+00  -1.39814689e+00
C     8.618419876699999e+00   6.753739919222297e-01  -8.962170000000214e-02  1.03967894e+00  -1.26888930e-01  -9.28342040e-01
C     8.614651187499998e+00   7.298130869957928e-01   3.489865800000000e+00  3.13248520e-01   2.33822609e+00   4.17184280e-01
C     9.840716748699998e+00   1.485753069747346e+00   3.528620100000000e+00 -4.39754470e-01  -8.40691070e-01   2.76908010e-01
C     1.276278449300000e+00   2.084785831665337e+00  -1.320824999999992e-01 -1.16359163e+00  -6.73194910e-01   1.07484700e-01
C     2.477167782300000e+00   2.850781011597719e+00  -1.317050999999978e-01  5.23525030e-01  -3.41090284e+00   5.99748000e-03
C     2.457942852900000e+00   2.936517458662788e+00   3.577323600000000e+00 -1.26803753e+00  -1.24214048e+00  -9.80984700e-02
C     3.670967282300000e+00   3.593914015651159e+00   3.545473200000000e+00  1.81819304e+00  -1.60251119e+00   4.02510760e-01
C     3.707554537800000e+00   2.122220938999761e+00  -1.395039000000011e-01 -3.67728770e-01  -2.15358155e+00   6.37760710e-01
C     4.936172951600000e+00   2.784158029420768e+00  -1.428338999999994e-01 -2.08524150e-01   1.49094109e+00   6.89848000e-03
C     4.926641684000000e+00   2.828044786123357e+00   3.558839100000000e+00 -8.27784460e-01   1.33073628e+00  -3.25323470e-01
C     6.124065079099999e+00   3.576367203015807e+00   3.502683900000000e+00  7.17815660e-01   1.18124270e+00   7.74566870e-01
C     6.168745126799999e+00   2.056700257685673e+00  -1.772039999999997e-01  1.02328450e-01   2.83401240e+00   1.19926980e-01
C     7.399557587800000e+00   2.802126839954041e+00  -1.311885000000004e-01  5.38939580e-01   6.97527310e-01  -4.96363990e-01
C     7.370299812600000e+00   2.901927720400509e+00   3.497686800000000e+00  2.76730730e-01   1.50538540e-01   1.72352390e-01
C     8.613625599599999e+00   3.585998609106514e+00   3.492141000000000e+00  4.20548710e-01   5.99651710e-01   9.24850200e-01
C     8.647271617099999e+00   2.109505925444518e+00  -1.838012999999989e-01 -3.91936600e-01  -1.04672074e+00   1.22355769e+00
C     9.894487026199998e+00   2.782807328743042e+00  -1.015389000000013e-01 -2.60706030e-01   9.89202190e-01  -8.76741520e-01
C     9.856763060599999e+00   2.898090459871006e+00   3.574156800000000e+00 -9.44945100e-02   7.94923240e-01  -8.70182570e-01
C     1.108711456660000e+01   3.672253374107719e+00   3.548910600000000e+00 -6.69471190e-01  -2.24377522e+00   5.61669610e-01
C     2.467250495700000e+00   4.206458053851653e+00  -1.392863999999996e-01  1.29623290e-01   2.86480435e+00   2.68395790e-01
C     3.693514292200000e+00   4.962051096607405e+00  -1.218633000000011e-01 -6.64372420e-01  -4.24030070e-01  -5.42230410e-01
C     3.676709844900000e+00   4.970017395654511e+00   3.591447000000000e+00  1.05976687e+00   2.24968803e+00  -1.75133830e-01
C     4.922460550999999e+00   5.706021777588933e+00   3.535764900000000e+00 -7.85270600e-01   1.42039574e+00   2.64378820e-01
C     4.893648250600000e+00   4.254969453240106e+00  -1.152486000000010e-01  2.02243862e+00  -1.89935021e+00  -5.46037600e-01
C     6.151456750700000e+00   4.925563819436260e+00  -1.893764999999981e-01  4.34636100e-01   1.24943472e+00   1.41256015e+00
C     6.132894955599999e+00   5.039524855571607e+00   3.582498900000000e+00  1.77975844e+00  -1.49952731e+00  -1.11947874e+00
C     7.411069433599999e+00   5.752211846978397e+00   3.503115300000000e+00 -1.26339775e+00  -1.20203921e+00   8.09772470e-01
C     7.416693873400000e+00   4.258187977070227e+00  -1.371050999999994e-01 -7.22085200e-01  -1.13846952e+00  -2.67135360e-01
C     8.656587443699999e+00   4.989189694324836e+00  -1.499540999999986e-01 -3.91124800e-01  -3.35500188e+00  -2.86149490e-01
C     8.648344533000000e+00   5.002462988385263e+00   3.592686900000000e+00 -2.29327693e+00   4.11216250e-01  -1.38453305e+00
C     9.825845896699999e+00   5.727777383099772e+00   3.556944000000000e+00  8.60623830e-01   1.66555158e+00   3.86644430e-01
C     9.877660837600001e+00   4.225500303392368e+00  -1.569369000000016e-01 -4.01047370e-01  -3.13979700e-01   5.49245540e-01
C     1.109799108330000e+01   4.911880567482688e+00  -1.305897000000016e-01  6.11859130e-01   9.40593910e-01  -7.47483500e-02
C     1.106401357260000e+01   5.070592678961409e+00   3.581969700000000e+00  1.49110351e+00  -5.69644930e-01   3.09014100e-01
C     1.234469027210000e+01   5.709784663337154e+00   3.666877800000000e+00 -1.51982382e+00   2.23250882e+00  -1.14120244e+00
C     3.702232602800000e+00   6.374806642074270e+00  -2.302169999999997e-01  8.28136370e-01   2.16320510e-01   1.19336335e+00
C     4.971694834100000e+00   7.086589779221753e+00  -1.600175999999998e-01 -1.54046082e+00  -1.67899751e+00  -5.05447700e-02
C     4.943422615200000e+00   7.156294831841356e+00   3.498402000000000e+00 -1.22533216e+00  -9.61294330e-01   5.13145710e-01
C     6.149292529999999e+00   7.871176690501924e+00   3.584125500000000e+00 -4.24740650e-01   6.09760130e-01  -8.48518550e-01
C     6.182418629700000e+00   6.370040764155068e+00  -6.287730000000025e-02  6.38242460e-01  -1.21530001e+00  -1.58828635e+00
C     7.445540190800000e+00   7.029390961351159e+00  -1.543652999999985e-01 -1.68642118e+00   2.29482986e+00  -8.46889300e-02
C     7.371577027699999e+00   7.168783390838669e+00   3.491596500000000e+00 -3.07003700e-02  -6.85466260e-01   1.59018530e-01
C     8.574493773899999e+00   7.880577372529461e+00   3.443388900000000e+00  8.85985480e-01  -7.97550440e-01   8.46839100e-01
C     8.654505455399999e+00   6.358119195453625e+00  -2.274107999999977e-01  1.26474656e+00   8.32042720e-01   9.42870980e-01
C     9.906196910100000e+00   7.056883757223300e+00  -1.652859000000007e-01 -6.85663790e-01   6.92455290e-01  -1.44769320e-01
C     9.803552288799999e+00   7.157810335421345e+00   3.555537600000000e+00  9.96058530e-01   6.50257280e-01  -4.88122600e-01
C     1.106600129930000e+01   7.876459861676006e+00   3.579723000000000e+00  9.98234100e-01  -7.69711320e-01  -3.21682680e-01
C     1.113293733900000e+01   6.348613056646661e+00  -1.036751999999979e-01 -1.00377542e+00  -4.15007840e-01  -7.33151840e-01
C     1.233359969480000e+01   7.068858780130348e+00  -1.607687999999996e-01  5.44671710e-01   1.30226315e+00   5.09957080e-01
C     1.232958938630000e+01   7.190129550796993e+00   3.572666700000000e+00 -8.13310520e-01  -2.56898435e+00   3.53781710e-01
C     1.355602164090000e+01   7.865251898080377e+00   3.488952000000000e+00  3.20599080e-01   2.08558740e-01   2.66650400e-01
