64
Lattice="9.86 0 0 4.93 8.53901048131456 0 0 0 30 " PBC="1 1 1" Properties=species:S:1:pos:R:3:force:R:3 Energy="-516.47821703"
C     9.857281499399999e+00   4.289826377140304e-01  -8.854769999999945e-02  1.49480019e+00  -4.63793080e-01   1.33279480e-01
C     1.260372543800000e+00   1.123376336189307e+00  -1.035291000000029e-01 -8.73845020e-01   8.30037000e-03  -1.47127980e-01
C     1.204810704300000e+00   3.062540871782392e-01   3.534971700000000e+00  1.24381249e+00  -4.74767320e-01  -3.17392800e-01
C     2.453866088000000e+00   1.018304324573536e+00   3.457935000000000e+00 -1.36133269e+00  -4.99019810e-01   3.08329130e-01
C     2.490120223400000e+00   4.107749056675264e-01  -5.290830000000213e-02 -5.79567920e-01  -1.64856020e-01   8.06677500e-02
C     3.711107145100000e+00   1.123255167630596e+00  -3.420689999999738e-02  3.14185770e-01  -2.87380420e-01  -3.07247430e-01
C     3.670053112400000e+00   3.138426204017104e-01   3.452165700000000e+00  1.95173500e-02  -5.79115100e-01   3.50263860e-01
C     4.891842983200000e+00   1.017511050499944e+00   3.488055300000000e+00  1.11544590e+00  -3.31063590e-01  -1.46188890e-01
C     4.938520173899999e+00   4.339146847771736e-01  -8.972099999997596e-03  1.37987180e+00  -1.29515235e+00  -2.75246530e-01
C     6.203459278099999e+00   1.109129424153951e+00  -4.601519999999937e-02 -1.07767623e+00   4.46201930e-01   4.18801710e-01
C     6.132008837400000e+00   2.996449784568240e-01   3.500409900000000e+00  4.28336830e-01  -7.75710700e-02  -1.39423220e-01
C     7.360823761000000e+00   1.025710549923259e+00   3.549328200000000e+00  5.51100120e-01  -3.95541480e-01  -6.29054990e-01
C     7.424314075800000e+00   4.015541405908032e-01  -3.153540000000277e-02 -3.41576260e-01   4.97916100e-02  -3.92094010e-01
C     8.636095405699999e+00   1.133228219530607e+00  -5.314560000000057e-02  4.55740180e-01  -7.72077170e-01  -2.04177750e-01
C     8.617345777600001e+00   2.786168112487760e-01   3.520705200000000e+00 -1.05807152e+00   2.02854743e+00   3.85343690e-01
C     9.859258429399999e+00   1.012220621166955e+00   3.554297400000000e+00 -1.16470711e+00  -9.24303870e-01  -2.43331110e-01
C     1.111860499090000e+01   2.542604024649489e+00  -1.902566999999991e-01  2.56364500e-01  -1.70841480e-01  -5.94354700e-02
C     2.508351067600000e+00   3.215365762485677e+00  -2.445560999999969e-01 -1.15415819e+00   2.13185079e+00   3.95838990e-01
C     2.415196992100000e+00   2.421927142161727e+00   3.447957900000000e+00  1.01639430e+00   1.16039350e+00   3.92245300e-02
C     3.664719000300000e+00   3.130537609965366e+00   3.480485400000000e+00  2.45704980e-01   3.54388650e-01  -7.60006650e-01
C     3.712911673000000e+00   2.520970697768723e+00  -1.403067000000000e-01  1.47961009e+00   1.23736846e+00   1.94726000e-02
C     4.969359887500000e+00   3.273699073288644e+00  -1.135785000000027e-01 -5.76456870e-01  -1.73519952e+00   1.64923110e-01
C     4.927332672800000e+00   2.435049295736658e+00   3.488866800000000e+00 -1.81385870e+00   1.42072900e-01   2.32347280e-01
C     6.119923879100000e+00   3.170077327212796e+00   3.522032100000000e+00  1.06123544e+00  -6.35804990e-01   5.48343000e-03
C     6.200112449000000e+00   2.528544970844693e+00  -3.074070000000262e-02  6.57304900e-02   8.70434860e-01  -3.58892510e-01
C     7.440317595300000e+00   3.241359108117530e+00  -3.489120000000057e-02 -6.78677150e-01   9.87294680e-01   5.64701300e-02
C     7.354399576600000e+00   2.458392901026462e+00   3.500292600000000e+00  7.24564220e-01  -5.17979050e-01   6.18056570e-01
C     8.619673674300000e+00   3.148499076949626e+00   3.522032700000000e+00 -8.71043550e-01  -9.66747370e-01  -7.99359200e-02
C     8.666855992799999e+00   2.531063125035245e+00  -7.792500000000047e-02 -2.07133640e-01   1.29176963e+00  -6.54146000e-03
C     9.893373437800001e+00   3.265864275002930e+00  -1.714002000000008e-01 -2.87388950e-01  -5.82942240e-01   4.42898780e-01
C     9.845446590700000e+00   2.410280956548265e+00   3.518215500000000e+00 -4.90600320e-01   1.68906786e+00  -1.74630900e-01
C     1.104994054250000e+01   3.162985166668527e+00   3.438504000000000e+00  6.86588450e-01  -1.27277091e+00   3.64496040e-01
C     1.233947802960000e+01   4.679390551555720e+00  -2.396078999999993e-01 -1.14105050e-01  -3.29464390e-01   1.68877490e-01
C     3.704843777299999e+00   5.398264653786003e+00  -1.657949999999992e-01  4.83548340e-01  -1.48474180e-01  -1.33943760e-01
C     3.682932195100000e+00   4.563218424046683e+00   3.386045400000000e+00  1.46952000e-03  -6.72617320e-01   9.84596900e-01
C     4.914627619100000e+00   5.269807195729077e+00   3.486882000000000e+00 -6.84947620e-01   1.22553898e+00  -5.33502000e-02
C     4.957342075800000e+00   4.677300031010006e+00  -1.246887000000001e-01 -7.26829410e-01   4.28776310e-01   2.27475010e-01
C     6.176270968999999e+00   5.387954737922557e+00  -1.074840000000066e-02 -6.47842100e-02   3.90573060e-01   1.34882100e-02
C     6.140098178600000e+00   4.586126112851483e+00   3.561832500000000e+00 -1.05405497e+00  -1.27213747e+00  -7.12260280e-01
C     7.348417120199999e+00   5.235372184336694e+00   3.489462000000000e+00  1.65002464e+00   2.75458892e+00   2.53209460e-01
C     7.404738278299999e+00   4.694786814401684e+00  -1.325099999998969e-03  9.00202000e-01  -7.78974660e-01   2.06848200e-01
C     8.645811498999999e+00   5.416140645275360e+00   3.744600000000000e-02  8.07793600e-02  -8.38084040e-01  -6.29796000e-01
C     8.595741334400000e+00   4.554672838528613e+00   3.507548700000000e+00  5.63299320e-01   2.64828910e-01  -3.14781910e-01
C     9.830367150400001e+00   5.268146443580821e+00   3.446027100000000e+00  1.38691700e-01   1.44583276e+00  -1.06943660e-01
C     9.868889184400000e+00   4.678863182268476e+00  -1.111094999999978e-01 -7.69965200e-02   8.76857090e-01   4.66861300e-02
C     1.108711412290000e+01   5.418931108510120e+00  -1.820133000000013e-01  1.30424798e+00  -2.03110769e+00   2.75744700e-02
C     1.107542114890000e+01   4.572104801473009e+00   3.429891000000000e+00 -4.87955840e-01   1.94253570e-01  -1.55162190e-01
C     1.231910145220000e+01   5.272679121123814e+00   3.406318800000000e+00 -3.73355580e-01  -1.09487370e-01  -2.49214450e-01
C     1.357842168750000e+01   6.834104047843873e+00  -1.212872999999988e-01  5.04425190e-01  -9.74938440e-01  -9.07075900e-02
C     4.956037400600000e+00   7.544278264636714e+00  -8.145509999999945e-02 -5.57448580e-01  -2.20503920e-01   4.80806660e-01
C     4.897484973799999e+00   6.704049538656871e+00   3.513248400000000e+00 -1.37767000e-02  -5.12284200e-02  -1.09265280e-01
C     6.139036601699999e+00   7.417897579318626e+00   3.522715200000000e+00 -3.06701650e-01  -2.20345610e-01  -1.49551220e-01
C     6.166165356399999e+00   6.812332559773540e+00   3.929910000000000e-02  1.03228776e+00   5.65989610e-01  -8.86819900e-01
C     7.417051150499999e+00   7.533537470304445e+00  -4.775999999999669e-04  2.09318990e-01  -4.71336980e-01   5.53615830e-01
C     7.368668376999999e+00   6.699167444805035e+00   3.455438700000000e+00 -4.27449400e-02  -7.20861190e-01   6.47277400e-01
C     8.599121736799999e+00   7.419575238707631e+00   3.491960100000000e+00  1.26686670e-01   1.85467470e-01  -8.98915430e-01
C     8.683376077700000e+00   6.836461327076982e+00   3.979770000000001e-02 -1.13726997e+00  -2.54908250e-01  -2.87412790e-01
C     9.913601622199998e+00   7.533592376141832e+00  -3.163229999999828e-02 -5.37674290e-01   6.90040450e-01   1.99410640e-01
C     9.840884417999998e+00   6.732595792251929e+00   3.401095200000000e+00 -7.62416900e-02  -1.81265465e+00   6.29233670e-01
C     1.109401755260000e+01   7.403974466560672e+00   3.417473700000000e+00 -1.01686253e+00   6.77781490e-01   2.28690900e-01
C     1.114342576610000e+01   6.810235634969968e+00  -1.184781000000008e-01 -1.22115187e+00   8.89283320e-01   1.31218370e-01
C     1.235656890990000e+01   7.519108933516180e+00  -1.148538000000023e-01  2.46608010e-01   6.46757440e-01   2.47848970e-01
C     1.231362387710000e+01   6.683611844023514e+00   3.423033300000000e+00 -6.65585400e-01   5.38902290e-01   7.80373200e-02
C     1.350352024680000e+01   7.425818621610189e+00   3.494217300000000e+00  1.92905549e+00  -1.16093651e+00  -1.09806310e-01
