64
Lattice="9.86 0 0 4.93 8.53901048131456 0 0 0 30 " PBC="1 1 1" Properties=species:S:1:pos:R:3:force:R:3 Energy="-516.39473269"
C     4.950028963099999e+00   8.376214330588905e+00   7.574340000000000e-02 -1.48828157e+00  -1.40429249e+00  -3.21362720e-01
C     1.233498177100000e+00   5.331285936432456e-01   5.755950000000000e-02  3.77041940e-01  -6.33529050e-01   2.71785740e-01
C     1.241533633400000e+00   8.832059072861024e-01   3.402015000000000e+00 -1.02730184e+00   6.68231420e-01  -4.51089510e-01
C     2.436091811100000e+00   1.625236439696470e+00   3.388164000000000e+00  7.73614210e-01  -1.79308555e+00   1.50305610e-01
C     7.378359228699999e+00   8.348825625254515e+00   8.782260000000000e-02  1.79093331e+00   5.64705570e-01  -6.05208680e-01
C     3.710666649600000e+00   5.375435182317200e-01   8.415299999999999e-03 -1.05842969e+00  -3.78991100e-01   2.63779210e-01
C     3.664816170600000e+00   9.039101044365392e-01   3.418331700000000e+00  7.85086130e-01  -7.57531360e-01  -2.05763540e-01
C     4.923300622999999e+00   1.559388287330474e+00   3.405663600000000e+00  1.79483440e-01   1.07282890e+00   1.48776110e-01
C     9.864233883999999e+00   8.366951809750933e+00  -2.831580000000145e-02 -8.15991300e-02   3.66425600e-02   2.48470730e-01
C     6.148651728600000e+00   5.406833123852161e-01   4.400100000000001e-03  9.14168080e-01   5.93233190e-01  -3.37882620e-01
C     6.174663936899999e+00   8.480664275291209e-01   3.446880600000000e+00 -1.19934254e+00   2.13203918e+00  -5.81535160e-01
C     7.370500710099999e+00   1.617350321957771e+00   3.385419600000000e+00  1.45305463e+00  -1.36201632e+00   4.64302870e-01
C     1.230571384000000e+01   8.351745539888151e+00  -1.500809999999930e-02  1.16548226e+00   1.17065715e+00   3.75121530e-01
C     8.630513758299999e+00   5.330864109314744e-01   6.619590000000000e-02 -3.05228160e-01   8.08594600e-02  -1.52474890e-01
C     8.624217458100000e+00   8.787600714796905e-01   3.402653400000000e+00  1.76748350e-01   7.67097760e-01  -5.27070550e-01
C     9.881286458199998e+00   1.605399208280067e+00   3.374525700000000e+00 -1.52422193e+00  -3.26081590e-01   6.67137000e-02
C     1.257084874700000e+00   1.932960859089260e+00  -1.473899999997030e-03 -7.33273100e-01   9.73099420e-01  -5.77591100e-02
C     2.460885964300000e+00   2.641647324086171e+00  -6.025590000000136e-02  1.25688516e+00   1.75897096e+00   1.33517920e-01
C     2.430294870600000e+00   3.004597879148466e+00   3.379253100000000e+00  1.44825702e+00   2.12483195e+00  -4.94908000e-02
C     3.695692169000000e+00   3.711099382143754e+00   3.398682600000000e+00 -3.44958640e-01   3.02423010e-01   3.62541900e-02
C     3.707630607700000e+00   1.959480463936996e+00  -5.705999999999989e-03  1.60795350e-01  -1.67410690e-01  -1.43360110e-01
C     4.939023181800000e+00   2.689707522160859e+00   1.994190000000000e-02 -2.74698660e-01  -6.83745510e-01  -5.52738590e-01
C     4.927610478300000e+00   3.005368524844286e+00   3.377778300000000e+00 -1.53519510e-01  -4.72338550e-01   1.08420880e-01
C     6.147318558000000e+00   3.741650083058888e+00   3.370615500000000e+00  3.22911030e-01  -9.01927190e-01   1.49768000e-01
C     6.190005160200000e+00   1.985296198150866e+00   2.497200000000000e-03 -1.44498125e+00  -8.19409220e-01   5.77687220e-01
C     7.399624093500000e+00   2.691652964918518e+00   5.726220000000000e-02  8.22411680e-01  -6.75629880e-01  -2.20018500e-01
C     7.390785786699999e+00   3.032704629874119e+00   3.389558700000000e+00 -4.72418650e-01   6.17362600e-02   5.36074800e-02
C     8.626177478199999e+00   3.740290331030053e+00   3.415962000000000e+00  1.90788100e-02  -7.29074690e-01  -5.95113360e-01
C     8.624888874800000e+00   1.955083471270530e+00   8.763749999999999e-02  1.02627044e+00   4.93235180e-01  -5.38162660e-01
C     9.899969777799999e+00   2.667429926939378e+00   5.125800000000000e-03 -1.73956867e+00  -8.94407540e-01   3.72942160e-01
C     9.852112542300000e+00   3.034221158135367e+00   3.343746900000000e+00  7.36029320e-01  -2.55495850e-01   4.79959330e-01
C     1.109869104470000e+01   3.752447064080114e+00   3.351965700000000e+00 -1.41549620e+00  -5.20881000e-03   3.17754120e-01
C     2.478930355900000e+00   4.104357617882923e+00  -1.187292000000006e-01 -5.71993780e-01  -7.57121750e-01   1.82362590e-01
C     3.708449283500000e+00   4.833677064682867e+00  -1.167887999999984e-01 -7.04640290e-01  -1.53388731e+00   9.68096900e-02
C     3.724040112700000e+00   5.152064829582871e+00   3.441491700000000e+00 -2.26697524e+00  -7.57607180e-01  -3.82721300e-01
C     4.916330391800000e+00   5.851421144778810e+00   3.412243500000000e+00  1.25056715e+00   9.56327020e-01  -3.49899600e-02
C     4.903740946600000e+00   4.097748850721926e+00  -2.938890000000072e-02  1.77207909e+00   4.92506600e-01   4.18387760e-01
C     6.167238025800000e+00   4.802919634324011e+00   6.913229999999999e-02 -7.89794910e-01  -4.97385900e-02  -1.04922029e+00
C     6.154579708500000e+00   5.147093759241834e+00   3.381395400000000e+00 -1.15534100e-01   1.02340500e-02   5.06482970e-01
C     7.390350714199999e+00   5.822712820764840e+00   3.460467000000000e+00 -3.50081600e-01   2.43249312e+00  -8.14544660e-01
C     7.400941192299999e+00   4.101984456090321e+00   2.280990000000000e-02 -3.92944730e-01   2.21646570e-01   3.95055610e-01
C     8.620490624600000e+00   4.802748512553992e+00  -1.589309999999955e-02  1.16161025e+00   1.56626170e-01   1.53567570e-01
C     8.630129957799999e+00   5.145705572308101e+00   3.407660100000000e+00 -4.53506980e-01   7.02887700e-01   5.66572480e-01
C     9.834812334199999e+00   5.892240859697192e+00   3.441137700000000e+00  8.17341570e-01  -3.04795890e-01  -2.61897900e-01
C     9.854516558200000e+00   4.072123621831865e+00  -2.067960000000113e-02  8.42395360e-01   1.12315033e+00  -3.69750280e-01
C     1.110035970180000e+01   4.812278219029881e+00  -8.915310000000076e-02 -3.25428340e-01  -7.14621810e-01  -1.41143840e-01
C     1.107001496020000e+01   5.180209151954637e+00   3.421331100000000e+00  1.11898537e+00  -9.37824800e-02  -1.19078880e-01
C     1.233173270380000e+01   5.884789548372134e+00   3.440463600000000e+00 -4.20453100e-01  -4.90176380e-01   1.78091780e-01
C     3.725461727500000e+00   6.230073403091938e+00  -1.079952000000013e-01 -1.31196118e+00   6.27804020e-01   5.37331330e-01
C     4.921451922300000e+00   6.913125929408098e+00   1.480050000000000e-02  1.73781241e+00   2.09038697e+00  -9.52119200e-02
C     4.904971326700000e+00   7.280061896831724e+00   3.399965700000000e+00  7.85827710e-01   1.48387100e-02  -3.38624570e-01
C     6.137845858799999e+00   8.018467277732912e+00   3.372932700000000e+00  2.38377420e-01  -1.26845283e+00   5.17628730e-01
C     6.157961836399999e+00   6.218213827606580e+00   2.408640000000000e-02  1.19813241e+00   1.85710230e-01   5.49220620e-01
C     7.430572562900000e+00   6.936040534811388e+00   7.313340000000000e-02 -1.22732201e+00  -3.44698320e-01  -3.96857220e-01
C     7.363517414400000e+00   7.300745514966904e+00   3.419139300000000e+00  9.84286350e-01  -1.43581642e+00   8.51452800e-02
C     8.616989585100001e+00   8.005354004728881e+00   3.415865400000000e+00 -9.74184550e-01   5.59831520e-01   2.27061870e-01
C     8.675043687500001e+00   6.234680540806318e+00  -1.189169999999962e-02 -1.44190916e+00  -4.75773350e-01   2.79368180e-01
C     9.889629349300000e+00   6.942911193423805e+00  -4.043490000000105e-02 -2.12492850e-01   1.74030890e-01  -1.97581280e-01
C     9.858588639600001e+00   7.318928996223645e+00   3.438447600000000e+00 -9.77571990e-01  -1.01496363e+00   6.27916000e-02
C     1.108511722640000e+01   7.999518701137164e+00   3.442460100000000e+00  4.49335970e-01  -2.23702170e-01   2.34164150e-01
C     1.109946668160000e+01   6.227348007117037e+00  -1.116450000000029e-01  1.27182907e+00   4.81756900e-01   4.56673360e-01
C     1.235801616070000e+01   6.958338623658022e+00  -6.556199999999990e-02 -1.38486497e+00  -1.41744794e+00  -5.30522560e-01
C     1.231354627890000e+01   7.311650770641017e+00   3.457457700000000e+00  3.32189800e-01  -1.60104718e+00  -5.69719250e-01
C     1.354928967660000e+01   7.979014316831958e+00   3.358682100000000e+00 -2.35341140e-01   1.60682855e+00   9.89038960e-01
