76
Lattice="10.7446858958278 0 0 5.37234294791388 9.3051709414712 0 0 0 30 " PBC="1 1 1" Properties=species:S:1:pos:R:3:force:R:3 Energy="-609.44187814"
C     9.348698701471350e-02   6.860339632395340e-02   1.211052000000000e-01  3.14340274e+00  -2.39395403e+00  -7.80481200e-01
C     1.257256407541072e+01   8.504026522181812e+00   1.473183000000000e-01 -2.44689812e+00  -1.05133584e+00  -8.13660790e-01
C     1.395220887530262e+01   8.324592026342799e+00   9.655980000000000e-02  1.39806318e+00   2.94778692e+00   1.08913137e+00
C     1.450094181081222e+01   7.079390614356273e+00   7.220010000000000e-02  2.26504573e+00  -2.48444502e+00  -6.57827580e-01
C     8.285305733697070e+00   9.099304826950791e+00   4.136760000000000e-02  1.95472086e+00  -2.59945309e+00  -1.02828879e+00
C     9.694209710103834e+00   8.867293695956334e+00  -4.977000000000231e-03  9.42602280e-01   2.09909553e+00  -2.17066870e-01
C     1.027965809690861e+01   7.585843432262782e+00  -8.173650000000166e-02  2.03809780e-01  -2.71484640e-01   8.25383900e-01
C     1.167978173089161e+01   7.326256613291055e+00   4.961370000000000e-02  1.65918743e+00   1.09094855e+00  -5.01882030e-01
C     1.227122823115320e+01   6.002364720526487e+00  -6.655859999999691e-02 -1.75354094e+00   6.87572640e-01  -4.44707430e-01
C     1.368091592494951e+01   5.877132473206137e+00  -3.124319999999869e-02  3.87612280e-01   9.93484580e-01  -9.03173580e-01
C     6.079746154217820e+00   8.073655666483734e+00  -2.296439999999933e-02 -6.04142900e-01   7.66242450e-01   2.48538590e-01
C     7.485806442054291e+00   7.925881828664655e+00  -1.112943000000008e-01 -1.89251312e+00   7.39097580e-01   1.17520956e+00
C     7.976538649777393e+00   6.615088918084034e+00  -1.085981999999994e-01  3.48594909e+00   5.85243540e-01  -1.40854650e-01
C     9.416118596981798e+00   6.508114718871896e+00  -1.052667000000014e-01 -6.31294000e-02  -3.83229429e+00  -7.45636730e-01
C     9.992983000497635e+00   5.125577079309687e+00  -2.100542999999995e-01 -1.14893803e+00   4.90997920e-01   6.28382590e-01
C     1.137224400020918e+01   4.854527964670649e+00  -2.795702999999996e-01  2.41141780e+00   1.45067455e+00   1.02079622e+00
C     1.200520232582828e+01   3.545527974426748e+00  -2.517816000000010e-01 -6.82950180e-01   1.65174710e+00  -8.62683950e-01
C     5.245125654050282e+00   6.966436633142964e+00  -3.326189999999940e-02 -2.37932544e+00  -1.53514070e+00   5.76954760e-01
C     5.791012268541545e+00   5.664288970779277e+00  -3.066119999999728e-02  5.39867800e-02  -1.65396075e+00  -8.21175170e-01
C     7.210082544406314e+00   5.463846376612447e+00  -8.777100000000004e-02 -2.40312782e+00  -4.33890140e-01   2.29638310e-01
C     7.736710598784134e+00   4.139269530214985e+00  -6.195360000000250e-02 -3.86530310e-01  -1.92078630e-01   2.09582180e-01
C     9.116905580317543e+00   4.003784752501235e+00  -9.112380000000186e-02  1.54533709e+00  -1.79965710e+00  -3.36690580e-01
C     9.674942178177666e+00   2.631889064736266e+00  -3.071789999999908e-02  2.40385635e+00   2.54001729e+00   4.31146400e-02
C     1.112377738292261e+01   2.465068100313263e+00  -8.074380000000048e-02  6.01753800e-02  -1.43755054e+00  -1.76962790e-01
C     3.525889576499075e+00   4.623261433454812e+00  -3.158616000000016e-01  3.81867370e-01  -7.88564050e-01   1.08638802e+00
C     4.955869576639267e+00   4.469713550964043e+00  -1.402386000000000e-01 -1.58319061e+00   2.87598981e+00  -6.50739720e-01
C     5.466881465700316e+00   3.210431182104271e+00  -1.464321000000020e-01  3.06863342e+00  -3.34503835e+00   1.31684896e+00
C     6.912429065177013e+00   2.964728143433571e+00   1.107870000000000e-02 -6.95533710e-01   7.75580390e-01  -3.73734980e-01
C     7.479918031840514e+00   1.641757648695481e+00   1.447059000000000e-01 -7.97553390e-01   6.37404310e-01  -1.04251309e+00
C     8.912773739714982e+00   1.494286042828532e+00   1.078593000000000e-01 -1.95719214e+00  -3.89922080e-01   4.36097030e-01
C     9.501188197062451e+00   2.119802617187554e-01   1.659303000000000e-01 -3.99250120e+00  -1.13589863e+00  -4.04853830e-01
C     2.704615480475363e+00   3.431999585011312e+00  -4.099184999999999e-01 -1.01723169e+00   1.61134100e+00   1.73128580e+00
C     3.281175110975645e+00   2.187882411542713e+00  -1.443329999999996e-01 -1.33671500e+00  -7.65057190e-01  -3.48219180e-01
C     4.670460204227311e+00   2.033332827400254e+00  -4.104990000000086e-02 -1.46770860e-01  -3.40176500e-01  -1.08458117e+00
C     5.204995219235514e+00   7.046145285725259e-01  -3.895200000000187e-02 -1.18679650e-01  -2.69642110e-01   9.55104850e-01
C     6.606752206645605e+00   4.968840314737780e-01   6.665459999999999e-02  8.92439140e-01   6.33058160e-01   5.19849210e-01
C     9.766523004190290e-01   1.123261613299878e+00  -1.347000000002652e-04 -7.23570770e-01   4.42380164e+00   7.00842200e-02
C     2.386726641737451e+00   1.071215186784595e+00  -2.005709999999894e-02 -1.19132130e-01  -2.64795920e-01   3.45241100e-02
C     1.597666924521513e+01   9.231520046751353e+00   3.665318700000000e+00  1.31759741e+00   1.21096483e+00  -6.63340400e-01
C     1.178033141484211e+01   8.703879075459337e+00   3.643067400000000e+00  3.46030730e-01   3.14108124e+00  -9.67589420e-01
C     1.318484898067706e+01   8.984164688876836e+00   3.658211100000000e+00  5.37344660e-01  -2.20181793e+00  -8.66692100e-01
C     1.402221018160055e+01   7.775353939402462e+00   3.599215200000000e+00 -7.46035470e-01   1.42077586e+00  -8.10422300e-02
C     7.476139394426632e+00   8.271796812721975e+00   3.387091500000000e+00  2.24816776e+00  -1.03879960e-01   1.52351874e+00
C     8.931422753797317e+00   8.436892691504411e+00   3.449557800000000e+00 -7.25050130e-01   1.09232446e+00  -8.19792600e-02
C     9.817486983457453e+00   7.322496021507363e+00   3.423569100000000e+00 -4.73707690e-01  -1.27869043e+00   3.71960080e-01
C     1.124514586282610e+01   7.429024596083184e+00   3.508228500000000e+00 -1.36644293e+00   5.29490210e-01  -5.94639300e-02
C     1.208337125883651e+01   6.321207147199261e+00   3.358564200000000e+00 -2.15759633e+00  -8.87541650e-01   8.97959100e-01
C     1.344621147742767e+01   6.486115898994095e+00   3.437172300000000e+00  1.44312795e+00   6.94466500e-02  -5.72988930e-01
C     4.675989795655457e+00   7.926410827632593e+00   3.595416000000000e+00  4.47755150e-01   6.13907340e-01   1.39365630e-01
C     5.519445006357412e+00   6.801909486408379e+00   3.489763800000000e+00  7.63626340e-01  -3.91033680e-01  -9.20829470e-01
C     6.960100228003260e+00   6.951104502985125e+00   3.439094100000000e+00 -1.97085288e+00   1.70941028e+00  -5.65323030e-01
C     7.806758590742293e+00   5.878464136219360e+00   3.298400700000000e+00  1.55970198e+00  -2.48220988e+00   4.80084300e-01
C     9.242048990718271e+00   5.989276811495957e+00   3.404380800000000e+00 -1.51183847e+00   1.90377627e+00  -1.26178288e+00
C     1.003752541823666e+01   4.848718095090841e+00   3.327792000000000e+00  8.70263620e-01  -3.75757380e-01   1.55124309e+00
C     1.144681829854957e+01   5.043846785288966e+00   3.349308300000000e+00  4.61212340e-01  -2.07737827e+00  -7.48441660e-01
C     1.221185427878525e+01   3.831549481315083e+00   3.317376000000000e+00  3.99573368e+00   3.21244090e-01   9.88176120e-01
C     3.524814302057633e+00   5.351794996980318e+00   3.236715900000000e+00  4.16975460e-01  -1.16821764e+00   1.27243444e+00
C     4.947461215241363e+00   5.523317585124175e+00   3.266533500000000e+00  3.91571480e-01  -5.72447560e-01   7.36791290e-01
C     5.848897813295199e+00   4.404281449948152e+00   3.278687400000000e+00 -3.47308360e-01  -2.02480441e+00  -1.98773480e-01
C     7.273584229033037e+00   4.540235859639243e+00   3.235050000000000e+00 -1.13219330e+00   1.16465705e+00   8.44248110e-01
C     8.087757054698582e+00   3.397745203643565e+00   3.398700000000000e+00  3.87385390e-01  -4.31102730e-01   7.55835370e-01
C     9.505655783736241e+00   3.531591340754781e+00   3.557729400000000e+00  4.27341830e-01   1.34796950e-01  -1.24418022e+00
C     1.038525149759086e+01   2.376080331269598e+00   3.670800300000000e+00 -1.47249461e+00   5.99881910e-01  -1.10213881e+00
C     1.177221670570986e+01   2.475632633088282e+00   3.499527600000000e+00 -7.57353030e-01   3.09936372e+00   5.93432600e-02
C     2.963519378198334e+00   4.001753247581615e+00   3.342111000000000e+00 -1.87232706e+00   3.21601380e+00  -1.22224143e+00
C     3.856747412288576e+00   2.965764553372868e+00   3.374052000000000e+00  3.18151840e-01  -3.05684748e+00   5.11962870e-01
C     5.279307723303952e+00   3.045548763943197e+00   3.384881700000000e+00 -3.74994570e-01   2.02290807e+00  -1.04955629e+00
C     6.075639588990271e+00   1.871904302588689e+00   3.358326000000000e+00  1.86453835e+00   7.77722990e-01   1.51227869e+00
C     7.503911398966080e+00   2.110120679876193e+00   3.517802100000000e+00  5.37458700e-02  -9.73554040e-01  -1.58145078e+00
C     8.394973895336607e+00   9.828189474575861e-01   3.505100700000000e+00 -1.60751901e+00  -6.81150700e-01   1.75473425e+00
C     9.794585383866186e+00   1.107555694425380e+00   3.621815400000000e+00 -1.61544020e-01  -1.17973991e+00   3.99659210e-01
C     1.899576819740269e+00   1.386476704524530e+00   3.493966500000000e+00  2.44086740e-01   1.09810695e+00   2.23718680e-01
C     3.308694131885578e+00   1.636793433050701e+00   3.468728700000000e+00 -8.17489590e-01  -5.97595190e-01  -2.39603530e-01
C     4.099636678018173e+00   4.878199575128334e-01   3.524555700000000e+00  1.96564236e+00  -2.25398361e+00  -8.26250520e-01
C     5.555898394763483e+00   5.570402866701089e-01   3.478998900000000e+00 -1.32448500e+00   4.28871070e-01   6.53159060e-01
C     1.308422628658587e+00   1.236508335190960e-01   3.557252100000000e+00 -1.27847068e+00  -1.81713955e+00  -2.16943310e-01
