52
Lattice="8.88768389401873 1.33226762955019e-15 0 4.44384194700937 7.69696003302603 0 0 0 30 " PBC="1 1 1" Properties=species:S:1:pos:R:3:force:R:3 Energy="-413.96089935"
C     1.212994688335852e+01   6.224697214840845e+00  -3.546824999999991e-01  1.64750410e+00  -2.45391777e+00   9.51233260e-01
C     8.506287204060197e+00   6.171658463878919e+00  -3.751406999999993e-01 -1.49925109e+00  -2.14585360e+00  -2.07541430e-01
C     9.833493171314306e+00   5.755483450208818e+00  -4.099209000000030e-01 -2.61642633e+00  -4.57607115e+00   7.17635610e-01
C     1.012309590584667e+01   4.354304754862723e+00  -2.979897000000022e-01  1.18113542e+00  -1.69824574e+00  -9.36236200e-02
C     6.015566941801122e+00   5.500119021235898e+00  -3.293637000000018e-01  1.62236523e+00  -4.58400950e-01   1.39468680e-01
C     7.530632372358284e+00   5.234047889952448e+00  -3.134285999999982e-01 -4.69717565e+00  -6.40903499e+00  -2.24825850e-01
C     7.839477164633655e+00   3.723662647521506e+00  -3.114425999999995e-01 -1.37749706e+00   1.79086943e+00   2.92393400e-01
C     9.197085409908221e+00   3.283250830352138e+00  -2.530493999999983e-01 -2.91779338e+00   3.01970317e+00  -5.46672150e-01
C     9.412164159604176e+00   1.934983732188275e+00  -2.870318999999988e-01  1.72333616e+00  -4.60853305e+00  -1.18049760e-01
C     3.573139643028132e+00   4.784569361746142e+00  -2.321166000000012e-01  2.74353785e+00   3.36559525e+00  -7.85942440e-01
C     4.996392721540108e+00   4.467454146692540e+00  -2.539619999999978e-01 -3.73864600e-02  -3.33754750e-01   3.76588370e-01
C     5.353303708161929e+00   3.089811446634981e+00  -2.101955999999987e-01  1.03147354e+00  -6.13807980e-01  -6.83485640e-01
C     6.801191180031391e+00   2.732363468297776e+00  -3.280649999999987e-01 -2.50688667e+00   1.46569343e+00   6.42628160e-01
C     7.080177709490947e+00   1.359723022563714e+00  -3.482525999999986e-01 -2.12223784e+00  -2.14035806e+00   9.76133270e-01
C     8.365977912761950e+00   8.972846609372950e-01  -2.841255000000018e-01  2.59519632e+00   9.85814270e-01  -3.42515720e-01
C     2.574027369475966e+00   3.838185946716677e+00  -2.497889999999998e-01 -7.76524280e-01   1.03833117e+00  -4.05256480e-01
C     2.889744252351472e+00   2.483478263308511e+00  -3.520491000000021e-01  1.45009719e+00  -2.84236569e+00   1.11427378e+00
C     4.311183398947620e+00   2.055070163184329e+00  -2.347794000000007e-01 -4.71437550e-01   2.10977728e+00  -7.82720730e-01
C     4.625572195209584e+00   6.851839206578021e-01  -3.215961000000007e-01  1.11668228e+00   7.01434800e-01   3.26074350e-01
C     6.062870169459271e+00   2.992294811534896e-01  -2.617848000000009e-01 -2.31042805e+00   2.51786232e+00  -1.30901953e+00
C     1.080770588738775e+01   6.630777896340402e+00  -3.919185000000027e-01  3.01342688e+00   3.56472385e+00   5.32360060e-01
C     1.882835258029520e+00   1.418127709210555e+00  -3.741765000000008e-01  2.03038140e-01   4.19534991e+00  -4.80534880e-01
C     2.242774989599730e+00   9.029019023671890e-02  -5.552081999999992e-01 -3.01351730e+00   2.74317660e-01   1.70668189e+00
C     7.991657378774065e+00   7.424230104655396e+00  -4.247171999999999e-01  4.23504644e+00   2.83098261e+00  -2.65083770e-01
C     4.255640888332373e+00   7.186233173263769e+00  -2.828465999999992e-01 -4.28571000e-02   1.99966037e+00  -7.00124220e-01
C     5.606110057153959e+00   6.853707566655703e+00  -3.899600999999997e-01  1.80896922e+00  -1.54530220e+00  -2.28388300e-01
C     1.211076913359807e+00   1.493850094107294e+00   3.810278400000000e+00 -8.21332680e-01  -3.09532070e+00  -1.55375732e+00
C     3.554855941604194e+00   8.378000138286450e-01   3.801944700000000e+00  1.00412291e+00   1.54353930e-01  -2.20471790e-01
C     4.916644331842360e+00   1.320433043424976e+00   3.750300300000000e+00 -3.49492660e-01  -4.42392671e+00   1.59692200e-02
C     5.908461370926792e+00   2.059935103740891e-01   3.694806600000000e+00 -7.18961400e-01   2.94932216e+00   6.03484050e-01
C     7.274777902734002e+00   5.998768193141055e-01   3.681134400000000e+00 -2.46084240e-01   5.82764440e-01  -1.96367450e-01
C     1.277521944199767e+01   7.356243703376009e+00   3.753619200000000e+00  7.98607190e-01  -7.68052000e-03  -7.40031670e-01
C     5.246504146674027e+00   7.694125393560151e+00   3.737976600000000e+00  5.97198280e-01   5.25382497e+00   8.70240160e-01
C     6.250653691614735e+00   6.778161903961252e+00   3.782506500000000e+00  1.74722799e+00  -2.89047251e+00  -5.14636250e-01
C     7.633659249559750e+00   7.109975541766544e+00   3.828166200000000e+00  5.06950270e-01   2.57387720e+00  -4.71241100e-01
C     8.698599841276465e+00   6.168023112687149e+00   3.770559000000000e+00 -5.83057372e+00  -2.34254883e+00   3.42058970e-01
C     9.952688433470444e+00   6.552024217675049e+00   3.756854100000000e+00  6.58947963e+00   8.29200810e-01  -7.26401140e-01
C     1.108462754147143e+01   5.600329207498482e+00   3.676881000000000e+00  7.42930860e-01   1.93950027e+00   2.69895080e-01
C     3.639959339904213e+00   5.993525562755821e+00   3.697093200000000e+00 -4.78084791e+00  -4.76038520e-01  -1.10500520e-01
C     4.593990302124841e+00   4.988951359598750e+00   3.635753100000000e+00  3.48247810e-01   1.47073109e+00   2.91157780e-01
C     5.925481955505517e+00   5.367702445119786e+00   3.663518400000000e+00  1.43583406e+00   1.09284395e+00  -9.49905000e-02
C     6.925607112693974e+00   4.377171499476650e+00   3.604918800000000e+00  9.78230100e-01   4.12294500e-01   1.80086313e+00
C     8.316395837646430e+00   4.759588877968776e+00   3.748595700000000e+00  4.15970650e-01   4.20910620e-01  -9.39978310e-01
C     9.372314008189845e+00   3.824520302061813e+00   3.718429500000000e+00 -1.13622840e-01  -1.31299247e+00  -6.57203030e-01
C     1.078989039017941e+01   4.266926555514154e+00   3.664322100000000e+00 -2.72589808e+00  -2.12781588e+00   1.36087408e+00
C     2.909766027207858e+00   3.306697309995525e+00   3.856548600000000e+00 -1.38622970e-01  -2.49185321e+00  -2.26876679e+00
C     4.245153241303283e+00   3.668397012083700e+00   3.697860600000000e+00 -1.12714465e+00  -9.95898060e-01   7.49450530e-01
C     5.226804369884883e+00   2.683617850731783e+00   3.744989700000000e+00 -2.08805735e+00  -1.73504661e+00  -4.39913000e-03
C     6.508984620028313e+00   3.022931637299107e+00   3.767159400000000e+00  6.37608797e+00  -2.98447390e-01  -2.30789697e+00
C     7.571198648016406e+00   1.981155486320236e+00   3.587522400000000e+00  1.43586828e+00   1.47396600e+00   1.66448442e+00
C     9.021660615769601e+00   2.380036046559730e+00   3.646646100000000e+00 -9.60585900e-01   2.25254999e+00   6.82003120e-01
C     2.612800777936339e+00   1.870627448167837e+00   3.749207700000000e+00 -3.08951699e+00   8.11581700e-01   1.56747723e+00
