64
Lattice="9.86 0 0 4.93 8.53901048131456 0 0 0 30 " PBC="1 1 1" Properties=species:S:1:pos:R:3:force:R:3 Energy="-513.81064828"
C     4.960299977200000e+00   8.369443493008999e+00   1.490796000000000e-01 -3.80150360e-01   4.92604570e-01  -3.89363800e-02
C     1.270178313800000e+00   6.042943293955567e-01   1.865388000000000e-01 -1.46420061e+00  -2.45647714e+00  -5.69693490e-01
C     1.263443490100000e+00   8.920413068198632e-01   3.296997300000000e+00 -1.25179388e+00  -8.80347920e-01   7.68076880e-01
C     2.474715748200000e+00   1.576185545625891e+00   3.246038100000000e+00  3.84350040e-01   5.15071390e-01   4.54579310e-01
C     7.390463611200000e+00   8.383605100329660e+00   1.633671000000000e-01  4.66065140e-01  -7.74497970e-01  -1.66335400e-02
C     3.701008434500000e+00   4.920106964789016e-01   5.207790000000000e-02  2.71861980e-01   1.66978642e+00   6.09534590e-01
C     3.702643123900000e+00   9.407763428927864e-01   3.424937100000000e+00  3.18053350e-01  -3.39151010e+00  -1.57263820e-01
C     4.923021437099999e+00   1.607148595357105e+00   3.400284900000000e+00 -1.97124700e-01   2.05527998e+00   4.23324270e-01
C     9.873883274400001e+00   8.341503338377809e+00   9.171300000000000e-02 -1.49544045e+00  -5.60633250e-01  -4.84678780e-01
C     6.150724596400000e+00   4.998024581517968e-01   1.107630000000000e-01  8.74663560e-01   5.24597900e-02  -7.08797000e-01
C     6.102855627499999e+00   8.439383283026696e-01   3.456724800000000e+00  2.37167668e+00   2.53776847e+00  -1.08071500e-01
C     7.357415454799999e+00   1.594980590813210e+00   3.439042200000000e+00  7.97753070e-01  -3.11302940e-01   2.42989790e-01
C     1.232067136140000e+01   8.275340694255835e+00  -1.220070000000106e-02  7.87470100e-01   2.26089707e+00   8.21780190e-01
C     8.643587280200000e+00   4.711791826822080e-01   8.959170000000000e-02 -8.80568100e-01   2.70441694e+00   2.30618510e-01
C     8.614428943100000e+00   9.042638756407255e-01   3.427498200000000e+00  3.76730310e-01  -2.69499660e-01   4.50460900e-02
C     9.907423641999999e+00   1.626514473395011e+00   3.339418500000000e+00 -2.70471761e+00  -2.16805507e+00   4.37277500e-02
C     1.243373903800000e+00   1.986222510007736e+00   2.655180000000000e-02 -5.28238600e-02   2.27357050e-01  -5.63102500e-02
C     2.470303644700000e+00   2.660833455953473e+00  -9.542370000000133e-02  2.30239100e-01   8.71396980e-01  -6.33956580e-01
C     2.459856531000000e+00   2.969200265104674e+00   3.165057000000000e+00 -6.80837350e-01   1.88818930e+00   9.59632000e-03
C     3.665090919500000e+00   3.730402925405156e+00   3.193412700000000e+00  1.50275043e+00   1.52107785e+00   2.18343520e-01
C     3.668423353000000e+00   1.909665157648248e+00  -3.795450000000145e-02  2.13404509e+00   2.04275812e+00  -1.48236960e-01
C     4.968292049500000e+00   2.701199749415367e+00  -4.098420000000047e-02 -3.36777762e+00  -1.40781343e+00   1.43301400e-01
C     4.916061904000000e+00   3.105859271947432e+00   3.375155100000000e+00  1.30012846e+00  -3.21304149e+00  -2.32377410e-01
C     6.213387114900000e+00   3.761862518595782e+00   3.461202900000000e+00 -2.83749236e+00  -1.00798405e+00  -4.58864740e-01
C     6.102961474600000e+00   1.944368379359806e+00   1.211184000000000e-01  3.75621345e+00   3.05622400e-02   2.50017500e-02
C     7.388502457200000e+00   2.681123084145105e+00   1.896465000000000e-01  1.16015590e-01  -9.54202860e-01  -5.01961940e-01
C     7.426967105999999e+00   3.030338555460216e+00   3.467328900000000e+00 -2.64446835e+00  -1.39145707e+00  -2.37404520e-01
C     8.592430001299999e+00   3.728128303793493e+00   3.381816900000000e+00  2.67863453e+00   8.59126670e-01   1.55972800e-02
C     8.652437073900000e+00   2.007801870342268e+00   1.545102000000000e-01 -1.16211227e+00  -3.10602522e+00  -4.05555290e-01
C     9.877478674099999e+00   2.684382168275007e+00   1.853850000000000e-02 -5.55270650e-01   1.53311804e+00   2.31467020e-01
C     9.833698252799998e+00   3.007662188449318e+00   3.296763600000000e+00  2.80231880e-01   5.44982730e-01   6.45543800e-02
C     1.106364416770000e+01   3.668658365305534e+00   3.209683800000000e+00  6.54329310e-01   2.07804894e+00  -1.82104320e-01
C     2.481027479300000e+00   4.103339767833707e+00  -3.002517000000005e-01 -2.53185811e+00  -9.73882800e-01   5.27509190e-01
C     3.657679601200000e+00   4.784433701316068e+00  -1.994420999999988e-01  3.90876450e+00   1.21566758e+00   4.66894980e-01
C     3.732647005300000e+00   5.193029707679414e+00   3.159440700000000e+00 -1.84014083e+00  -4.02324440e-01   8.83604610e-01
C     4.941708059800000e+00   5.924914870958283e+00   3.395454000000000e+00 -4.22390250e-01  -2.52169440e+00  -4.96356360e-01
C     4.950074269800000e+00   4.126006314982551e+00  -8.483730000000023e-02 -6.29608470e-01  -1.26448786e+00   3.38641830e-01
C     6.179084470699999e+00   4.804615908755863e+00   9.930330000000000e-02 -2.02755020e-01   9.62074360e-01  -3.02656350e-01
C     6.164865068899999e+00   5.140377827499314e+00   3.436848000000000e+00  1.29464070e-01   2.24874122e+00   3.41049460e-01
C     7.395665796499999e+00   5.833573502804247e+00   3.499224000000000e+00 -5.58875600e-02   1.85508243e+00   1.54769390e-01
C     7.427475783399999e+00   4.088680250811957e+00   1.634928000000000e-01 -1.43932291e+00   5.43847600e-01   5.78691700e-02
C     8.638660238200000e+00   4.826286978062950e+00   1.162299000000000e-01  2.24905540e-01  -1.25749795e+00  -5.34945480e-01
C     8.610711772399998e+00   5.163112003611161e+00   3.410669700000000e+00  9.47711000e-01  -7.55692240e-01   5.69761010e-01
C     9.877199833299999e+00   5.867723567416911e+00   3.428964600000000e+00 -1.45958592e+00  -1.24476175e+00  -4.65425220e-01
C     9.866725013000000e+00   4.146732884340446e+00  -6.059699999999779e-02  2.48613490e-01  -1.49777923e+00  -1.92729650e-01
C     1.107245876120000e+01   4.855021260668780e+00  -3.086793000000014e-01  7.51947370e-01  -1.02947070e+00   7.34750280e-01
C     1.102885936950000e+01   5.118563046645849e+00   3.249074700000000e+00  3.45814313e+00  -2.62786800e-02  -3.80153840e-01
C     1.231542810920000e+01   5.888458419614971e+00   3.164251200000000e+00 -5.24521500e-01  -2.55872152e+00   7.79368050e-01
C     3.723467000200000e+00   6.202150411871814e+00  -4.698750000000018e-02 -1.55632952e+00  -1.50028960e-01  -8.42321550e-01
C     4.909247460800000e+00   6.953982276681440e+00   1.128555000000000e-01  1.52490474e+00  -8.54009080e-01  -2.74295950e-01
C     4.901286496799999e+00   7.326706497749038e+00   3.481578600000000e+00  9.68492080e-01  -4.83540600e-02  -2.99095330e-01
C     6.146652416399999e+00   8.015421925035325e+00   3.466512300000000e+00  1.52163150e+00  -2.06533890e-01   2.29944360e-01
C     6.148559093899999e+00   6.244738299690290e+00   1.295991000000000e-01  1.11306903e+00  -2.77897570e-01   4.71333810e-01
C     7.400586183000000e+00   6.959675064188246e+00   2.020350000000000e-01 -8.55011400e-01  -7.52981500e-01  -4.44119840e-01
C     7.417126826000001e+00   7.275333248998215e+00   3.567518400000000e+00 -6.31980400e-01   8.35607440e-01  -6.97929220e-01
C     8.667872115100000e+00   7.998913029123817e+00   3.549238500000000e+00 -6.11518890e-01   3.30741560e-01  -4.87425390e-01
C     8.645107396400000e+00   6.214701220255527e+00   1.006662000000000e-01 -2.71624097e+00   1.00593048e+00   2.03487550e-01
C     9.806934761799999e+00   6.914657742498106e+00  -1.477050000000091e-02  3.46941413e+00   1.91099436e+00  -3.96223300e-01
C     9.928666420399999e+00   7.264788424956462e+00   3.484578900000000e+00 -3.32350834e+00   1.01123337e+00   1.41386780e-01
C     1.109261408020000e+01   7.994643950834341e+00   3.423758100000000e+00  4.97918580e-01  -7.19292360e-01   1.71888520e-01
C     1.107132451610000e+01   6.283787194615330e+00  -2.585148000000004e-01 -7.40297240e-01  -3.01733918e+00   6.89408340e-01
C     1.233255221770000e+01   6.856330067442055e+00  -1.373984999999998e-01  1.53429370e-01   3.07011826e+00   1.89232450e-01
C     1.229638411080000e+01   7.253074610379998e+00   3.361842600000000e+00  1.39124819e+00   2.39229424e+00  -4.90659200e-02
C     1.353167537820000e+01   8.009171198583756e+00   3.460047600000000e+00 -3.60250420e-01   1.77252240e-01  -5.35493880e-01
