52
Lattice="8.88768389401873 1.33226762955019e-15 0 4.44384194700937 7.69696003302603 0 0 0 30 " PBC="1 1 1" Properties=species:S:1:pos:R:3:force:R:3 Energy="-418.69169506"
C     1.323479544359985e+01   7.590486365543403e+00  -1.775163000000006e-01  7.21339000e-01  -4.08470070e-01  -5.03894300e-02
C     9.498541429857440e+00   7.431361492062392e+00  -1.505913000000021e-01 -1.89530580e-01  -1.17490666e+00  -3.64920840e-01
C     1.084093627114991e+01   7.052183302229290e+00  -2.233616999999981e-01 -2.02145770e-01  -3.18774981e+00   1.78247890e-01
C     1.115542940879446e+01   5.641828137196230e+00  -2.164094999999975e-01  1.96494880e+00  -2.16581600e-02   5.07251520e-01
C     7.114474796321098e+00   6.780314281864042e+00  -5.866440000000139e-02 -5.39982560e-01   2.52407578e+00  -7.93944260e-01
C     8.504381551508850e+00   6.464029876676078e+00  -1.814127000000028e-01 -1.87909009e+00  -3.02285712e+00   8.42249830e-01
C     8.822182951723251e+00   5.046722817343922e+00  -1.717683000000001e-01  5.18757000e-03  -2.21822060e-01   2.32783780e-01
C     1.018987667406408e+01   4.634642432470580e+00  -1.307955000000014e-01 -1.62307350e+00   1.19949560e+00  -5.04960680e-01
C     1.049217315426129e+01   3.273170044831247e+00  -1.042655999999980e-01  1.03832017e+00  -1.26655372e+00  -1.33146350e-01
C     4.697245814567808e+00   6.208221410079029e+00  -2.201862000000006e-01  3.74180700e-02  -8.79299000e-03   9.65058260e-01
C     6.069007429843415e+00   5.824359158250070e+00  -1.129400999999994e-01  7.81714760e-01  -1.43729283e+00  -5.01421990e-01
C     6.442653036434044e+00   4.404115631696869e+00  -1.722849000000011e-01 -1.34304390e-01   1.16860571e+00   4.81674700e-01
C     7.823313845140436e+00   4.005084288010387e+00  -1.447170000000000e-01 -7.93496060e-01   2.26282600e+00  -3.32477960e-01
C     8.155831650134106e+00   2.650166169715001e+00  -1.702391999999975e-01 -7.77546270e-01  -8.58802260e-01   8.06831700e-02
C     9.510457766433152e+00   2.269039494450305e+00  -1.465788000000003e-01 -7.37560290e-01  -1.16834040e-01   3.93127190e-01
C     3.657407018267726e+00   5.206183663130243e+00  -1.784777999999996e-01 -1.67309200e-01   1.71196168e+00  -7.78811240e-01
C     4.005954960997690e+00   3.856429820166985e+00  -2.003823000000011e-01  5.32151800e-01  -1.79026862e+00   8.17353060e-01
C     5.423745046787964e+00   3.439200092063973e+00  -1.659116999999988e-01 -1.80996722e+00  -5.39985910e-01  -4.51183260e-01
C     5.747152753566724e+00   2.029537268585611e+00  -1.832855999999978e-01 -6.65030190e-01   1.10702078e+00   4.07634510e-01
C     7.108240838202125e+00   1.664499394932424e+00  -1.854668999999980e-01  3.16380850e-01  -5.73245330e-01  -6.03416700e-02
C     7.419216630507214e+00   2.517323874739629e-01  -2.104257000000018e-01  1.80413105e+00   2.98961224e+00   1.24838370e-01
C     2.949995639210436e+00   2.840426478030968e+00  -1.162026000000012e-01  2.15951076e+00   2.27269073e+00  -4.17787860e-01
C     3.342650090846753e+00   1.507951001851854e+00  -1.234499999999983e-01 -1.09085799e+00  -2.04797175e+00   4.40454240e-01
C     4.691741090879484e+00   1.042340415118670e+00  -1.224485999999985e-01  3.90725700e-01   3.80792606e+00  -3.43787180e-01
C     9.521523292696935e-01   8.909017259236165e-01  -1.018248000000028e-01 -1.35767472e+00  -1.60697230e-01  -3.95068580e-01
C     2.286087828606946e+00   5.266546379439115e-01  -7.821270000000169e-02  2.17248276e+00  -2.22919648e+00   8.24383500e-02
C     9.739741709739380e-02   1.392691796308215e-01   3.573851100000000e+00 -3.30837210e-01  -1.84484642e+00   1.46040940e-01
C     6.893398859156600e+00   7.248558460441091e+00   3.501913200000000e+00  1.09768501e+00  -1.43984940e+00   5.75628100e-02
C     8.266843891154197e+00   7.659615611448044e+00   3.495150300000000e+00  5.46338840e-01  -3.51480791e+00  -6.76878100e-02
C     9.326377038153062e+00   6.586050091910070e+00   3.470983800000000e+00 -1.30588417e+00   1.95170410e+00   1.07543848e+00
C     1.068839108663009e+01   6.983856772286178e+00   3.617408100000000e+00 -1.13408441e+00   6.96518110e-01  -7.27387230e-01
C     1.170252705534801e+01   6.016029087825932e+00   3.635903400000000e+00  1.55462338e+00   5.76227690e-01  -2.39901620e-01
C     4.192472252300912e+00   6.443110693858543e+00   3.646194600000000e+00 -1.97006810e-01  -1.92375810e-01  -5.70098620e-01
C     5.201343379256219e+00   5.447154699877462e+00   3.568794900000000e+00 -1.31745850e-01  -7.06441130e-01   6.15212840e-01
C     6.560468041692634e+00   5.832684113248918e+00   3.542981400000000e+00  9.74501660e-01   3.04613110e-01  -2.91435570e-01
C     7.598511480101019e+00   4.821971969315924e+00   3.536776800000000e+00 -7.05089090e-01   4.76284570e-01   2.35321460e-01
C     8.971404275852581e+00   5.221434496703286e+00   3.538735200000000e+00  1.29488410e-01  -4.58418240e-01  -6.02530750e-01
C     1.002047208625172e+01   4.236517174918830e+00   3.513009300000000e+00 -8.89402300e-02   4.51211300e-01   6.03231400e-02
C     1.140551070193892e+01   4.648923679988643e+00   3.530895600000000e+00 -1.91396769e+00  -6.76598330e-01   3.97130660e-01
C     3.498952856141207e+00   3.640907088427755e+00   3.555669000000000e+00  4.41170790e-01   9.33071590e-01   2.29505960e-01
C     4.851010254552008e+00   4.044319541763312e+00   3.619567800000000e+00  6.55517770e-01   1.16280110e-01  -1.04365893e+00
C     5.858669145853773e+00   3.033947218615642e+00   3.525473700000000e+00  5.40099840e-01   8.11723970e-01   1.36648492e+00
C     7.231546254844854e+00   3.435850990815720e+00   3.582145200000000e+00  1.00426186e+00  -7.92622900e-02  -7.53630430e-01
C     8.289346259104601e+00   2.451342146700056e+00   3.545984700000000e+00 -1.75947970e-01   2.19441390e-01   3.91760300e-02
C     9.686614994395221e+00   2.855252824258355e+00   3.501923100000000e+00 -1.67177502e+00   6.83734230e-01   3.61418000e-01
C     1.817669338029294e+00   1.896379398249009e+00   3.532737000000000e+00 -9.82835540e-01  -5.15101800e-01  -4.13307150e-01
C     3.146122203417252e+00   2.284539709528319e+00   3.546729600000000e+00  9.50112910e-01  -6.94435100e-02  -2.64178300e-02
C     4.161764678980866e+00   1.298116554483594e+00   3.558074700000000e+00  8.36425900e-02   3.27714410e-01   8.09813200e-02
C     5.514500207645381e+00   1.659823645653399e+00   3.621300600000000e+00  1.17054485e+00   4.25640040e-01  -9.40073680e-01
C     6.552945680457832e+00   6.849814136394128e-01   3.594178200000000e+00  4.55686380e-01  -6.15675550e-01   3.92322250e-01
C     7.937282880103476e+00   1.052804971066658e+00   3.576958200000000e+00 -5.25390660e-01   2.29349152e+00  -5.46641300e-02
C     1.456325750601091e+00   5.315906984111506e-01   3.514480800000000e+00 -4.66047900e-01  -1.52188380e-01   2.63842720e-01
