64
Lattice="9.86 0 0 4.93 8.53901048131456 0 0 0 30 " PBC="1 1 1" Properties=species:S:1:pos:R:3:force:R:3 Energy="-515.41618836"
C     4.950217486300000e+00   8.487308564735802e+00  -1.720161000000004e-01 -4.15431070e-01  -2.87547700e-02  -3.38025090e-01
C     1.246104581500000e+00   6.763081596687416e-01  -1.479558000000019e-01 -2.86814510e-01  -1.20957066e+00  -3.93384090e-01
C     9.859504781500000e+00   3.935980029661680e-02   3.604629300000000e+00 -1.88190562e+00   5.87861370e-01   1.58377650e-01
C     1.213422822700000e+00   7.330013827288152e-01   3.591094500000000e+00  1.54470841e+00   1.49909811e+00   5.06730100e-01
C     7.388050031100000e+00   8.480968861795029e+00  -1.913702999999991e-01  1.92206704e+00   1.52030042e+00  -3.03258200e-01
C     3.744817449800000e+00   6.815141381880832e-01  -2.956608000000003e-01 -1.36157340e+00  -1.20184040e+00   5.90161610e-01
C     2.458684817900000e+00   4.258378909344560e-02   3.700545300000000e+00  6.61951600e-02  -3.13671330e-01  -2.23909090e-01
C     3.678063475000000e+00   7.774458222058529e-01   3.668760000000000e+00 -3.63304380e-01   1.20326278e+00   3.06234860e-01
C     9.907421670000000e+00   8.482277806711508e+00  -2.959880999999989e-01 -1.06313859e+00   1.02072278e+00   1.56949440e-01
C     6.222725767400000e+00   6.729092065471777e-01  -2.332818000000003e-01 -1.97923110e+00  -1.47345661e+00  -8.05057270e-01
C     4.919649169200000e+00   9.885441652486400e-02   3.706662600000000e+00 -1.33468259e+00  -1.50188599e+00  -1.48704250e-01
C     6.137721277699999e+00   7.636924649762408e-01   3.679842600000000e+00  2.00516930e-01   3.68667410e-01   5.21018750e-01
C     1.234863856120000e+01   8.536331963192634e+00  -3.473799000000000e-01  1.21482029e+00  -2.95345477e+00   6.47371460e-01
C     8.658287850000001e+00   6.651294848790592e-01  -2.388338999999995e-01 -4.85552790e-01   2.25864980e-01   1.74141750e-01
C     7.335748942900000e+00   2.959322167001200e-02   3.736633500000000e+00  2.49562197e+00   1.06751465e+00  -5.01866070e-01
C     8.597947953099998e+00   7.339946404278488e-01   3.638265900000000e+00 -1.43380390e-01   1.36003806e+00   1.73682000e-01
C     1.212648566200000e+00   2.077438440097821e+00  -2.537436000000000e-01  1.63771721e+00   6.46583230e-01  -8.68529800e-02
C     2.466492311000000e+00   2.800539096345390e+00  -3.549270000000000e-01  4.06855750e-01  -1.17925587e+00   5.85884600e-02
C     1.111796068920000e+01   2.192855975250741e+00   3.619258200000000e+00 -1.48351621e+00  -1.48415123e+00  -1.07514160e-01
C     2.441811991500000e+00   2.934200141998726e+00   3.664168200000000e+00  7.96344960e-01  -8.66472480e-01  -1.34209540e-01
C     3.710327662800000e+00   2.096463013886841e+00  -3.336626999999979e-01  8.76070560e-01  -3.58388470e-01   3.10168180e-01
C     4.992701416200000e+00   2.775377535724393e+00  -2.839221000000016e-01 -2.15525972e+00   2.68361930e-01  -3.19910990e-01
C     3.672755294700000e+00   2.240871770470934e+00   3.670259700000000e+00 -1.30376400e-02  -2.30249856e+00   1.21600500e-02
C     4.911543263200000e+00   2.884465443968909e+00   3.705965700000000e+00  1.30348460e-01   2.09703862e+00  -2.30830220e-01
C     6.194215429499999e+00   2.052158784961886e+00  -2.094129000000002e-01 -7.65851040e-01   1.13276940e+00   4.20342700e-02
C     7.391273708799999e+00   2.754357395186196e+00  -1.895151000000013e-01  7.64438030e-01   1.69548551e+00  -1.41710180e-01
C     6.132860692100000e+00   2.168082683436270e+00   3.704495700000000e+00  8.78235110e-01   1.25678632e+00  -3.01738370e-01
C     7.375770830800000e+00   2.910636998749480e+00   3.680787000000000e+00 -3.15102930e-01  -8.81102340e-01  -1.19382060e-01
C     8.594708696600000e+00   2.082273569392016e+00  -1.960508999999995e-01  3.04579363e+00  -6.48206170e-01  -1.67180240e-01
C     9.871120847500000e+00   2.780253566878788e+00  -2.658065999999977e-01 -1.89268259e+00   8.61232910e-01   9.47281400e-02
C     8.599659550500000e+00   2.193429369804472e+00   3.633417900000000e+00  9.34597140e-01  -1.41324811e+00   1.24691700e-01
C     9.880876430099999e+00   2.872821222327857e+00   3.640204500000000e+00 -1.50763069e+00   4.74466930e-01  -2.29299020e-01
C     2.513150422600000e+00   4.192906900390208e+00  -4.451223000000013e-01 -1.66229610e+00   8.92526940e-01   1.13342630e-01
C     3.732681416700000e+00   4.913181741899631e+00  -4.117637999999992e-01  3.70126910e-01  -1.43426760e-01   1.32134530e-01
C     1.230204996260000e+01   4.326939307609318e+00   3.687362100000000e+00 -5.43347930e-01   1.39910294e+00  -6.69717800e-02
C     3.651431072699999e+00   5.053701406160607e+00   3.715970700000000e+00  1.67687841e+00  -1.23711556e+00   9.68105200e-02
C     4.967991023700000e+00   4.190952235501231e+00  -3.445929000000021e-01  4.45905960e-01   7.62444240e-01   5.48297310e-01
C     6.201186449500000e+00   4.922797692381369e+00  -2.377982999999979e-01 -4.18999700e-02  -5.25649280e-01  -5.09622510e-01
C     4.900275698900000e+00   4.353725414974135e+00   3.701991900000000e+00  7.70966800e-01  -9.39707420e-01   9.17217500e-02
C     6.150439248000000e+00   5.069138997817294e+00   3.714486600000000e+00 -4.03030410e-01  -6.33299950e-01  -1.73478600e-02
C     7.445337124100000e+00   4.178468543739890e+00  -2.190252000000008e-01 -2.11817665e+00   9.81785570e-01   1.42096500e-01
C     8.626602641400000e+00   4.928077106390838e+00  -2.636712000000010e-01  1.08632432e+00  -6.77492540e-01  -7.60138500e-02
C     7.391296238900001e+00   4.320715308260551e+00   3.679044600000000e+00 -1.52776873e+00   6.55214050e-01   2.90093740e-01
C     8.602407285999998e+00   5.021929199796309e+00   3.686025300000000e+00  1.28389117e+00  -2.27517910e-01   8.28647100e-02
C     9.865118178099998e+00   4.218307638694750e+00  -3.542555999999983e-01  2.60312260e-01  -1.00406916e+00   2.55435680e-01
C     1.109919035510000e+01   4.877310725114828e+00  -4.559357999999989e-01  8.12718320e-01   2.70909393e+00   3.36528200e-02
C     9.840567271099999e+00   4.290952245672091e+00   3.663774600000000e+00  7.16293190e-01   1.23807892e+00  -1.82507320e-01
C     1.108165247170000e+01   5.048930831785641e+00   3.657780900000000e+00 -1.30213749e+00  -5.10459320e-01   5.14776740e-01
C     3.728046871599999e+00   6.339354207583196e+00  -3.446585999999989e-01 -1.85855955e+00   2.58115500e-02  -4.89112660e-01
C     4.908778617799999e+00   7.060416772809400e+00  -2.505290999999978e-01  2.40818492e+00   1.53231660e-01   5.63628300e-02
C     1.357461848830000e+01   6.442343981493420e+00   3.753431100000000e+00 -1.88116938e+00   1.68120362e+00  -4.00559030e-01
C     4.907185981300000e+00   7.175927127006237e+00   3.661048800000000e+00  1.23327028e+00  -3.20735780e-01   5.57958720e-01
C     6.176194011700000e+00   6.347667190455791e+00  -2.640549000000014e-01 -5.66743330e-01   1.69059650e-01   6.84924770e-01
C     7.396862159599999e+00   7.079038646864184e+00  -2.029698000000018e-01 -8.54347200e-02  -1.10409372e+00  -1.43326300e-02
C     6.156645279899999e+00   6.507270518458310e+00   3.738160800000000e+00 -5.42755950e-01  -2.30295490e+00  -2.26325380e-01
C     7.398093673600000e+00   7.134936204927731e+00   3.787360500000000e+00 -3.37420840e-01   2.36977078e+00  -7.14147420e-01
C     8.624856681899999e+00   6.334357776381035e+00  -2.330144999999995e-01 -5.49256970e-01   1.25395105e+00  -4.66375990e-01
C     9.826271602200000e+00   7.073200696179218e+00  -3.378915000000013e-01  2.19363324e+00  -8.15585790e-01  -1.45305980e-01
C     8.607307410200001e+00   6.441426977157973e+00   3.739751700000000e+00  1.03371184e+00   3.87341580e-01  -1.80032100e-02
C     9.831654570600000e+00   7.208389968538158e+00   3.719465700000000e+00  1.21869590e-01  -1.12856981e+00   1.29420210e-01
C     1.109032301060000e+01   6.369214614891128e+00  -4.758455999999995e-01  3.61037900e-02  -1.42666821e+00   7.81109790e-01
C     1.233851860230000e+01   7.069436785749738e+00  -4.109936999999988e-01 -2.30984130e-01   3.67343480e-01  -6.56547000e-03
C     1.105617645020000e+01   6.473724588837106e+00   3.731916000000000e+00  1.13246038e+00   1.64543530e-01  -1.18763110e-01
C     1.233335595560000e+01   7.180747996152931e+00   3.779088600000000e+00 -1.44370150e+00  -1.61646565e+00  -3.73234870e-01
