64
Lattice="9.86 0 0 4.93 8.53901048131456 0 0 0 30 " PBC="1 1 1" Properties=species:S:1:pos:R:3:force:R:3 Energy="-516.35151523"
C     4.979703717700000e+00   6.888858403184357e+00   4.553760000000000e-02  6.92222390e-01  -4.42725330e-01  -2.19502510e-01
C     6.222599263599999e+00   7.601672198896776e+00   1.048692000000000e-01 -3.67532950e-01  -4.74128180e-01  -8.84685300e-02
C     9.807313730899999e+00   1.636421689524222e+00   3.286215000000000e+00 -5.66061330e-01   5.49468640e-01   1.56457760e-01
C     1.100984110570000e+01   2.374100144463247e+00   3.245650500000000e+00  3.38526240e-01  -7.60165100e-01   2.50650910e-01
C     7.447080470700000e+00   6.895191104136535e+00   1.476414000000000e-01  9.57338080e-01   1.35150400e-02  -6.24824870e-01
C     8.691986076199999e+00   7.617436066143903e+00   4.019370000000000e-02 -1.98056060e-01  -1.28196677e+00   9.28259130e-01
C     2.385488171200000e+00   1.676992663067322e+00   3.194718000000000e+00 -2.00755570e-01  -1.12292660e+00   9.01847300e-02
C     3.609963314400000e+00   2.352829725527882e+00   3.204833400000000e+00  1.22759764e+00   6.04430920e-01   5.41501970e-01
C     9.944680145000000e+00   6.930767952010303e+00   4.281720000000000e-02 -9.27931100e-01  -1.65397483e+00  -4.58139020e-01
C     1.117332838530000e+01   7.613052565113996e+00  -3.853499999999954e-02 -3.18886860e-01   2.43047930e-01  -7.01249400e-02
C     4.844239396200000e+00   1.620491226182629e+00   3.282746100000000e+00  9.08891590e-01   1.98902250e+00   3.99570900e-02
C     6.095707374000000e+00   2.373392345884560e+00   3.350492700000000e+00  4.07485620e-01  -9.53250570e-01   6.22123380e-01
C     1.238725145510000e+01   6.874094454064437e+00  -1.228683000000004e-01  7.55159200e-02   6.74823810e-01   5.13808470e-01
C     1.362352167260000e+01   7.573066855349195e+00  -7.134810000000158e-02 -1.92976980e-01   1.23180537e+00   2.08951990e-01
C     7.358171914000000e+00   1.657174985984919e+00   3.428024100000000e+00 -1.16817747e+00   2.20305260e-01  -4.91800420e-01
C     8.595487932399998e+00   2.378676285569584e+00   3.419664000000000e+00 -1.02125125e+00  -1.22549452e+00  -1.89843830e-01
C     1.295783501300000e+00   4.674957097314504e-01   8.369220000000001e-02  2.05104620e-01   8.30645990e-01  -1.63830740e-01
C     2.534526754700000e+00   1.183086989382699e+00   1.416849000000000e-01 -7.31163260e-01   8.53330370e-01  -4.69305830e-01
C     1.100429209490000e+01   3.769384532927613e+00   3.349232400000000e+00  9.67518510e-01   1.47295807e+00  -2.35362190e-01
C     1.227392308010000e+01   4.487192539699469e+00   3.292200000000000e+00 -1.17759834e+00   3.08418300e-02   3.85688060e-01
C     3.746582882799999e+00   4.618568033807728e-01   1.053189000000000e-01  1.05416529e+00   1.86598950e+00  -9.60901000e-03
C     5.001647985800000e+00   1.196004206706109e+00   1.299156000000000e-01 -7.49626710e-01  -1.12527050e-01  -3.97700050e-01
C     3.635764173600000e+00   3.790639069303486e+00   3.267097500000000e+00  4.16150370e-01  -5.21478110e-01  -7.04822000e-03
C     4.880322263400000e+00   4.514472884990869e+00   3.339590400000000e+00 -3.85411180e-01  -2.43617925e+00  -1.80910080e-01
C     6.226359325300000e+00   5.017519996344856e-01   2.568840000000000e-02  6.61621830e-01  -5.33227410e-01   1.98768430e-01
C     7.476622213900000e+00   1.193486479466081e+00   4.635840000000000e-02 -4.53825350e-01  -5.19015170e-01  -2.43771410e-01
C     6.122165895200000e+00   3.796883647667510e+00   3.407965200000000e+00 -1.35351087e+00  -2.21901830e-01  -3.54199780e-01
C     7.326261700200000e+00   4.519443442991277e+00   3.447729300000000e+00  7.97386280e-01  -7.93929330e-01  -1.43715500e-01
C     8.711998770299999e+00   4.805084785821320e-01  -2.348309999999998e-02 -1.10527932e+00  -8.67667330e-01  -1.62739100e-02
C     9.919552033599999e+00   1.178207201063693e+00   1.612770000000000e-02  9.41525060e-01   5.73513290e-01   5.45421420e-01
C     8.551251683300000e+00   3.780369116009086e+00   3.456083100000000e+00  8.51416110e-01   1.28259737e+00   7.51100300e-02
C     9.789597973099999e+00   4.507605898152958e+00   3.450824700000000e+00 -1.08527270e-01  -7.91657740e-01  -2.01746020e-01
C     2.529103458900000e+00   2.637104228950391e+00   1.019526000000000e-01 -2.13908700e-01  -9.60683990e-01  -3.44294160e-01
C     3.754861683900000e+00   3.340417777773076e+00   9.565800000000001e-02  3.68377740e-01  -2.63922300e-02   1.55830800e-02
C     1.227442012270000e+01   5.919144976186842e+00   3.350610900000000e+00 -1.09785211e+00  -7.23407160e-01   2.59909600e-02
C     1.347796598620000e+01   6.605597992646453e+00   3.328839000000000e+00  1.21666559e+00   1.21261073e+00  -9.05588700e-02
C     4.989533348899999e+00   2.619168891338199e+00   1.508886000000000e-01  1.03917860e-01   3.62942200e-01  -1.55485390e-01
C     6.224387078800000e+00   3.338878962694475e+00   1.546989000000000e-01  3.07162380e-01  -5.78791490e-01  -3.15461990e-01
C     4.871674747599999e+00   5.883523896238788e+00   3.301583100000000e+00 -9.75310300e-01   1.81867828e+00   4.55572350e-01
C     6.083232452699999e+00   6.586893204799908e+00   3.333825900000000e+00  8.21499210e-01   2.31627921e+00  -3.04004430e-01
C     7.460565105300001e+00   2.589286624163439e+00   1.188834000000000e-01 -1.20734450e-01   1.52789581e+00  -1.99887300e-02
C     8.696890292299999e+00   3.302391343962912e+00   1.024395000000000e-01 -1.61580490e-01   7.17031780e-01   2.72857400e-02
C     7.332220689800000e+00   5.932300090342226e+00   3.365882100000000e+00  9.00399570e-01   4.79164900e-02   5.87723990e-01
C     8.602999970600001e+00   6.651177522786597e+00   3.395818800000000e+00 -2.00863799e+00  -1.49152680e-01  -9.77352900e-02
C     9.923438845600000e+00   2.608303598233133e+00   9.423180000000000e-02  4.03666120e-01  -6.00274700e-02  -7.70118150e-01
C     1.115334596140000e+01   3.343904511922374e+00   2.184060000000000e-02 -3.69717400e-02  -6.49020200e-01   3.10080440e-01
C     9.807900696699999e+00   5.923456834918823e+00   3.457232700000000e+00  1.22689230e-01   2.46762660e-01  -3.22139800e-01
C     1.103597710630000e+01   6.635188652613321e+00   3.403650600000000e+00  1.89998900e-01   2.97791600e-02   3.17146660e-01
C     3.765533063299999e+00   4.766603478922885e+00   3.010740000000000e-02 -9.13329250e-01  -6.02477650e-01  -1.93928450e-01
C     4.978803056000000e+00   5.462794382933888e+00   7.536150000000000e-02  1.03692182e+00   4.66815610e-01  -1.39911990e-01
C     1.346157403200000e+01   8.052839868958685e+00   3.342430200000000e+00  1.36441865e+00  -9.32001780e-01  -3.87302270e-01
C     9.782539593499999e+00   2.175998602321544e-01   3.230499600000000e+00 -2.64060990e-01  -1.84254030e-01   8.55941510e-01
C     6.231577040100000e+00   4.765934362061673e+00   1.183281000000000e-01 -2.64616450e-01  -3.06667840e-01   4.01654710e-01
C     7.463510731000000e+00   5.480226089707969e+00   1.565943000000000e-01  3.36712790e-01  -8.98399640e-01  -3.76200400e-01
C     6.077354019300000e+00   8.044432273849973e+00   3.273126300000000e+00  8.29225340e-01  -4.14144470e-01  -2.65049430e-01
C     2.396662607800000e+00   2.431589117909952e-01   3.230669100000000e+00 -5.56429180e-01  -6.07517750e-01   2.95019770e-01
C     8.712113442100000e+00   4.735094188691266e+00   1.011894000000000e-01 -1.06562175e+00   8.38356940e-01   2.11502020e-01
C     9.920897726400000e+00   5.473365848688338e+00   4.458630000000000e-02  4.74576610e-01   4.95084610e-01  -4.10424970e-01
C     8.573132009300000e+00   8.077644925892141e+00   3.308511900000000e+00 -7.37753430e-01  -8.84681960e-01   9.94752000e-02
C     4.866574366800000e+00   2.214592367988000e-01   3.332057400000000e+00  8.06702700e-02   2.81561560e-01   2.32135960e-01
C     1.115312179430000e+01   4.760862360616763e+00  -6.163139999999956e-02 -3.81307560e-01  -6.67806000e-02   6.56953860e-01
C     1.237637774850000e+01   5.466509450223421e+00  -7.174380000000014e-02  7.19592130e-01  -2.41133130e-01  -6.34295300e-02
C     1.102164219460000e+01   8.060663139580251e+00   3.427146300000000e+00  3.77852260e-01  -5.04373960e-01  -5.50081780e-01
C     7.327052768000000e+00   2.244528430928784e-01   3.388053600000000e+00 -2.53710030e-01   6.52732550e-01   3.21697460e-01
