64
Lattice="9.86 0 0 4.93 8.53901048131456 0 0 0 30 " PBC="1 1 1" Properties=species:S:1:pos:R:3:force:R:3 Energy="-511.87494772"
C     4.972403817400000e+00   8.210293586462967e+00  -1.035776999999989e-01  2.81800005e+00   1.21641569e+00   7.53180800e-02
C     1.352727614200000e+00   4.147672346273456e-01  -1.952286000000001e-01 -3.73985265e+00   1.83717483e+00   1.86195220e+00
C     1.150975055000000e+00   1.073470430999366e+00   3.529673400000000e+00  1.65521668e+00  -4.40943863e+00  -1.47713490e+00
C     2.436406000000000e+00   1.664381227709200e+00   3.471390900000000e+00 -1.64055676e+00   2.26261912e+00   7.17410000e-01
C     7.470640151900000e+00   8.288111894500037e+00  -1.060005000000004e-01 -2.23297435e+00  -3.83572201e+00  -3.63784400e-02
C     3.699898297100000e+00   3.957155921751032e-01   7.830840000000000e-02  4.31963228e+00   1.83690492e+00  -1.26996487e+00
C     3.648576504099999e+00   9.804600278569097e-01   3.295383900000000e+00 -8.45809300e-02   8.30423260e-01  -2.07227880e-01
C     4.829343647700000e+00   1.776700212129242e+00   3.282079800000000e+00  2.23179661e+00  -2.81441124e+00   6.05773100e-01
C     9.905499808100000e+00   8.242282512913249e+00  -3.398849999999953e-02 -2.85862890e-01   8.61380900e-02   1.53970960e+00
C     6.207166440899999e+00   3.975231299135096e-01   2.218530000000000e-02  1.66638926e+00   1.64623440e-01  -5.08514080e-01
C     6.097331710400000e+00   1.059287476152506e+00   3.270891900000000e+00 -8.36859820e-01  -1.33776158e+00  -9.18676570e-01
C     7.334120563900001e+00   1.726522766406038e+00   3.270006300000000e+00 -7.68614180e-01   1.31105576e+00   2.57346040e-01
C     1.242549824720000e+01   8.224788215192349e+00   3.994380000000000e-02 -1.97554907e+00  -1.71493000e-02   2.80234410e-01
C     8.712652734799999e+00   3.901175022945200e-01  -5.561129999999892e-02 -6.70018380e-01   9.97486970e-01  -4.78546110e-01
C     8.549848556000001e+00   1.018686701462830e+00   3.379853100000000e+00  4.28541350e-01  -4.37321970e-01  -9.21397900e-01
C     9.785866160299999e+00   1.716818522555937e+00   3.419415000000000e+00  1.47700300e-02   2.13889280e-01   1.56784891e+00
C     1.330380910200000e+00   1.853254405054853e+00   8.421780000000000e-02 -2.25013580e+00  -8.90399760e-01  -1.73919286e+00
C     2.550116450000000e+00   2.542489687299162e+00   1.036362000000000e-01 -1.23046935e+00   5.03397150e-01   1.19036588e+00
C     2.387154659100000e+00   3.100796407243735e+00   3.624865500000000e+00  1.46601822e+00   3.17078030e-01  -6.84755000e-03
C     3.611963464700000e+00   3.867854352420458e+00   3.552337200000000e+00  2.23617190e-01  -3.85595880e-01   2.05739310e-01
C     3.765085468600000e+00   1.829909604303581e+00   1.042413000000000e-01 -7.70511650e-01  -8.64117840e-01  -3.31319380e-01
C     4.972344410900000e+00   2.515714339087550e+00   4.845270000000000e-02  2.04901550e+00   1.06783851e+00  -4.43462000e-02
C     4.909382049800000e+00   3.133729919033314e+00   3.440905200000000e+00 -3.01974704e+00   2.66844154e+00  -2.64287760e-01
C     6.108024633900000e+00   3.853148980912431e+00   3.330912000000000e+00  6.23745950e-01   9.80375590e-01  -7.30490010e-01
C     6.233036763800000e+00   1.815941661740607e+00  -3.074099999999902e-02 -3.11988750e-01   6.70744540e-01  -5.63314600e-02
C     7.468496587899999e+00   2.570206717586508e+00  -1.011138000000003e-01 -4.00545620e-01  -2.26311522e+00   4.81570800e-02
C     7.317678619500000e+00   3.164680160248807e+00   3.209895900000000e+00  2.75975475e+00  -1.03054443e+00   1.74998332e+00
C     8.650965863299998e+00   3.830786849487197e+00   3.415140300000000e+00 -4.55000019e+00   9.56612740e-01  -1.56986030e+00
C     8.719842942600000e+00   1.827163970873842e+00  -1.501136999999986e-01 -1.03649186e+00   1.32599834e+00   1.16089333e+00
C     9.886141867299997e+00   2.607364904811066e+00   4.359810000000000e-02  2.98922305e+00  -2.05221371e+00  -1.09285381e+00
C     9.812966074500000e+00   3.112593904122904e+00   3.588597900000000e+00 -3.19991440e-01   1.43879760e-01  -5.17583620e-01
C     1.101129111730000e+01   3.809453839605014e+00   3.720439200000000e+00  2.02036245e+00   1.38474208e+00  -1.25507587e+00
C     2.484024081200000e+00   3.940133404359152e+00   2.956077000000000e-01  1.44314738e+00   1.60064857e+00  -7.59851790e-01
C     3.758000319100000e+00   4.623024628767345e+00   2.685648000000000e-01 -1.26265471e+00   1.37974222e+00  -1.07252373e+00
C     3.551918628300000e+00   5.288988887310929e+00   3.547107600000000e+00  3.58574481e+00   8.12028880e-01  -1.35819995e+00
C     4.924435558299999e+00   6.007130427832133e+00   3.267570000000000e+00 -3.49305711e+00  -1.75320459e+00   1.43059714e+00
C     4.988834965100000e+00   3.957698746647246e+00   7.001700000000000e-02  7.29604310e-01  -1.74858110e-01   8.34177570e-01
C     6.252689617200000e+00   4.705366562996299e+00   5.915999999999999e-02 -1.38833568e+00  -1.61566196e+00  -1.04329567e+00
C     6.131186266899999e+00   5.297795339599162e+00   3.212419800000000e+00 -1.32974155e+00  -1.39606977e+00   4.29471210e-01
C     7.327809128600000e+00   5.987838839185404e+00   3.103215900000000e+00  1.99546515e+00  -1.15936988e+00   2.06903130e-01
C     7.452422815900000e+00   3.962864506427227e+00  -3.487140000000011e-02  2.18489397e+00   1.41777154e+00   2.34269550e-01
C     8.761989068900000e+00   4.698417089317151e+00   2.416650000000000e-02 -5.32715131e+00   1.59635153e+00  -9.11310860e-01
C     8.584283767899999e+00   5.238020558437066e+00   3.227248800000000e+00  2.63431670e-01   1.00019884e+00   7.68740630e-01
C     9.800922281700000e+00   5.971777216642837e+00   3.340117500000000e+00  5.89161520e-01  -4.67387190e-01  -2.08041470e-01
C     9.955338016199999e+00   4.034192312598448e+00  -1.452959999999948e-02 -1.16597590e+00  -1.71069737e+00   1.40146612e+00
C     1.111850338360000e+01   4.743183620269495e+00   2.311566000000000e-01  2.60142432e+00  -4.09016401e+00  -6.42537000e-03
C     1.105457543270000e+01   5.260759601784887e+00   3.517717800000000e+00 -2.77719883e+00  -3.28923970e-01   7.94726310e-01
C     1.220011501480000e+01   6.048381618950071e+00   3.508894500000000e+00  1.97087647e+00  -2.27821050e+00   1.23061050e-01
C     3.704437594600000e+00   6.063319934663992e+00   1.209273000000000e-01  3.52299448e+00   4.22638750e-01   1.18892270e+00
C     5.002682595600000e+00   6.834008667096811e+00   6.453570000000000e-02 -1.73251791e+00  -2.42729039e+00  -1.38345543e+00
C     4.905610304000000e+00   7.386982177265891e+00   3.313790700000000e+00 -1.09237227e+00   2.95421677e+00   1.80919380e-01
C     6.138437212300000e+00   8.134237730188969e+00   3.364968600000000e+00 -9.15195230e-01   4.77986100e-02  -1.00890777e+00
C     6.248873353499999e+00   6.111167169817310e+00  -6.772289999999970e-02 -4.34866445e+00  -9.76208410e-01   1.13051489e+00
C     7.379951224299999e+00   6.799545135409426e+00  -8.567610000000059e-02  3.46524026e+00   3.89577124e+00  -3.39417440e-01
C     7.349342234700000e+00   7.386123750542337e+00   3.086788800000000e+00  3.03879770e-01   2.47418485e+00   1.37336376e+00
C     8.610024037399999e+00   8.127579095206771e+00   3.113836200000000e+00 -8.72146840e-01  -1.67001568e+00   7.00024890e-01
C     8.581341346700000e+00   6.156716984200983e+00   9.720000000000001e-03  5.34602904e+00  -2.27198943e+00   3.56655200e-01
C     9.902672107999999e+00   6.845312096829606e+00   9.861150000000000e-02 -1.22702797e+00  -1.24597819e+00  -2.36622940e-01
C     9.827297288699999e+00   7.389656851518541e+00   3.222583800000000e+00 -5.62501430e-01   8.64193020e-01  -6.34283550e-01
C     1.103746310690000e+01   8.145603323918060e+00   3.199602000000000e+00 -1.27910567e+00   7.85628180e-01   1.29902216e+00
C     1.113065805210000e+01   6.078711244883878e+00   2.927229000000000e-01 -2.74191380e-01   4.67065728e+00  -1.21119919e+00
C     1.239867505390000e+01   6.800428752213897e+00   2.029905000000000e-01 -1.47017391e+00   2.68282250e-01  -2.73016950e-01
C     1.221317828230000e+01   7.437245952385049e+00   3.368390700000000e+00  2.10744346e+00   1.09961120e+00  -6.02250150e-01
C     1.346848056760000e+01   8.156453759144892e+00   3.320371800000000e+00  1.19715436e+00  -2.11404178e+00   7.87222250e-01
