64
Lattice="9.86 0 0 4.93 8.53901048131456 0 0 0 30 " PBC="1 1 1" Properties=species:S:1:pos:R:3:force:R:3 Energy="-515.6668713"
C     4.935280868100000e+00   8.355830004771049e+00  -2.055095999999992e-01  1.46449908e+00   1.49127252e+00   1.20234230e-01
C     1.267188219500000e+00   5.599631171974839e-01  -2.078307000000024e-01 -1.15534516e+00   4.42573010e-01   7.02593190e-01
C     1.189645136900000e+00   8.857384924043656e-01   3.479467200000000e+00  2.15779042e+00  -6.03522580e-01  -4.54063580e-01
C     2.476808829000000e+00   1.574759360095522e+00   3.544060800000000e+00 -1.79475758e+00  -1.44941570e-01   2.56119100e-01
C     7.429090851400000e+00   8.406749405114860e+00  -2.467442999999996e-01 -8.14203960e-01  -1.11977120e+00   4.07230070e-01
C     3.719902363700000e+00   5.588252086609192e-01  -1.138890000000004e-01  1.91431350e-01   2.19451330e-01  -3.91971010e-01
C     3.692575028599999e+00   8.767780817571775e-01   3.421503600000000e+00 -3.73480600e-01  -7.98028220e-01  -1.59347120e-01
C     4.894277565099999e+00   1.600535985641393e+00   3.399766200000000e+00  9.00838240e-01   1.43662200e-01   4.12242630e-01
C     9.883359818999999e+00   8.390136077105183e+00  -1.109762999999973e-01  1.86166180e-01  -1.27271829e+00   5.16427400e-01
C     6.203751725699999e+00   5.428692136779912e-01  -9.427200000000013e-02 -9.18427940e-01  -3.74587400e-01  -1.08513920e-01
C     6.122165106399999e+00   8.816892082446448e-01   3.350808600000000e+00  7.12006200e-01   2.62591980e-01  -2.24360090e-01
C     7.369662659399999e+00   1.591173046040178e+00   3.331759500000000e+00  2.97124000e-01  -1.07834299e+00   4.94246720e-01
C     1.237175138720000e+01   8.374642042589223e+00  -7.637700000000081e-02 -1.15960907e+00  -4.08127070e-01   2.51117260e-01
C     8.655814616900001e+00   5.310431965038200e-01  -1.794978000000000e-01  2.62462800e-02   1.34260613e+00  -5.40510600e-02
C     8.611367314500001e+00   8.404812245197367e-01   3.416663700000000e+00 -7.51774240e-01   1.81485770e+00  -7.60242270e-01
C     9.839220986699999e+00   1.604915302556166e+00   3.442539900000000e+00 -5.62149550e-01  -2.95732366e+00   6.34758590e-01
C     1.225349478700000e+00   1.978527751493893e+00   4.447080000000000e-02  1.01129777e+00  -1.80363030e-01  -1.35993721e+00
C     2.500018726700000e+00   2.702548571510788e+00   1.023696000000000e-01 -1.64455635e+00  -1.19957966e+00   3.85907550e-01
C     2.470567202500000e+00   2.981501819772476e+00   3.740632200000000e+00 -7.48797420e-01   6.93759470e-01  -4.10184800e-01
C     3.671362569700000e+00   3.723968439448057e+00   3.665112000000000e+00  6.63648320e-01   7.49010140e-01   9.53000400e-02
C     3.695735503700000e+00   1.970177965486130e+00  -1.337159999999926e-02  1.65757439e+00   7.67889110e-01   2.79324630e-01
C     4.983377159300000e+00   2.682820724818634e+00  -1.869209999999910e-02 -2.70610479e+00  -1.64165150e-01  -2.82505160e-01
C     4.912878257899999e+00   3.027241200188806e+00   3.518727600000000e+00 -3.83399120e-01  -4.00062900e-02  -1.28255370e-01
C     6.142873916499999e+00   3.734983421406838e+00   3.448484400000000e+00  5.77994070e-01  -2.73959120e-01  -7.85418780e-01
C     6.142870021800000e+00   1.950842827885952e+00  -1.259454000000026e-01  3.08616844e+00   4.72174340e-01  -2.26108970e-01
C     7.409516828699999e+00   2.677421337711920e+00  -1.983003000000032e-01 -5.88044640e-01  -3.62640270e-01  -4.20861800e-02
C     7.383355340000000e+00   3.007977790276660e+00   3.335304000000000e+00 -8.28046930e-01   5.95563600e-02   6.16823790e-01
C     8.599127455600000e+00   3.709089299076762e+00   3.429345600000000e+00  7.78882720e-01   6.26818450e-01  -3.78436950e-01
C     8.654716262199999e+00   1.997026407627451e+00  -2.261129999999980e-01 -1.32445067e+00  -1.92756330e+00   5.81518500e-01
C     9.842935593799998e+00   2.685724415332358e+00  -5.997929999999840e-02  2.03083959e+00   8.90758380e-01   3.07629740e-01
C     9.836197072599999e+00   2.959532738999637e+00   3.566026200000000e+00  2.73535030e-01   3.88673126e+00   1.84127710e-01
C     1.108362373220000e+01   3.701895182747362e+00   3.776249700000000e+00 -7.05053420e-01  -6.98198350e-01  -1.18913918e+00
C     2.502146662600000e+00   4.101406279690720e+00   2.794230000000000e-01 -7.98478550e-01   4.67752420e-01  -5.30950090e-01
C     3.720847494000000e+00   4.801666449145966e+00   2.367429000000000e-01  1.43167427e+00   1.09960604e+00  -1.59532994e+00
C     3.661638341900000e+00   5.176783215559956e+00   3.651717300000000e+00  7.33218830e-01  -1.30491912e+00  -4.26556540e-01
C     4.910246673200000e+00   5.845515394350632e+00   3.435558900000000e+00 -9.21951700e-02   9.80643220e-01   5.64349960e-01
C     4.979327657300000e+00   4.101324219800007e+00  -3.274919999999781e-02 -1.42438133e+00   2.04303200e-01   1.01047450e+00
C     6.182894769099999e+00   4.813956390759516e+00  -1.750001999999995e-01  2.34241400e-01   2.50074200e-01   1.76395800e-02
C     6.161710411200000e+00   5.157884592175515e+00   3.368446500000000e+00 -1.41723102e+00  -6.65473360e-01   1.98430760e-01
C     7.365019437499999e+00   5.867100219651871e+00   3.263058300000000e+00  9.80690110e-01   2.28580620e-01  -7.20485200e-02
C     7.413764516699999e+00   4.087920193489132e+00  -2.013552000000018e-01  1.74941500e-01   8.10406150e-01   2.84435240e-01
C     8.641627260099998e+00   4.827932872332970e+00  -8.992950000000022e-02  8.18582500e-02  -9.18280760e-01  -4.46141120e-01
C     8.589256511000000e+00   5.155556687138458e+00   3.325605300000000e+00  1.51853036e+00  -1.09940388e+00   8.82750560e-01
C     9.874302472300000e+00   5.825861239318921e+00   3.455844000000000e+00 -2.21669517e+00   8.92336920e-01  -2.38547500e-01
C     9.891764433699999e+00   4.120231638365242e+00   1.079340000000000e-02 -1.06859397e+00  -9.15045900e-02   2.97762710e-01
C     1.110731060740000e+01   4.823082628990226e+00   2.056896000000000e-01  7.47122320e-01  -2.92847200e-01  -7.83990400e-02
C     1.106263992670000e+01   5.130154582592239e+00   3.663884400000000e+00  9.43202240e-01  -5.56173310e-01   2.39281890e-01
C     1.228815145450000e+01   5.878065504569658e+00   3.658731900000000e+00  1.49137950e-01  -8.45409950e-01  -1.10764600e-02
C     3.715808491700000e+00   6.250726024619076e+00   6.983520000000000e-02 -4.55991400e-02  -9.47102750e-01   6.30848820e-01
C     4.945691647699999e+00   6.965918532480908e+00  -1.182333000000000e-01 -6.68828250e-01  -1.45536816e+00  -2.25122410e-01
C     4.923421062899999e+00   7.287422011524855e+00   3.414533700000000e+00 -3.05079210e-01  -1.09816738e+00  -3.35192200e-01
C     6.153210055900000e+00   7.989251480326116e+00   3.342658500000000e+00 -2.82280050e-01   9.56918780e-01   1.11536530e-01
C     6.163169740500000e+00   6.240592268541831e+00  -2.256956999999993e-01  3.25127220e-01   2.38913910e-01   3.09267610e-01
C     7.381112387200000e+00   6.968571346866730e+00  -2.666153999999992e-01  9.82033860e-01  -1.81705610e-01   2.69041570e-01
C     7.393097019999999e+00   7.291638147949355e+00   3.233049300000000e+00 -6.13118090e-01  -1.74213380e-01   7.46082800e-01
C     8.620492004999999e+00   7.979020123359085e+00   3.320639400000000e+00  6.17565430e-01   2.98557300e-01  -8.09555900e-02
C     8.613806875700000e+00   6.235100660121934e+00  -1.292252999999981e-01  3.79986780e-01   8.79949550e-01  -3.24074000e-03
C     9.852692211699999e+00   6.941784897941494e+00  -2.057999999999893e-02  8.78306370e-01   6.89270990e-01  -1.29939000e-01
C     9.866210813999999e+00   7.261929393467550e+00   3.391386000000000e+00 -6.78755710e-01  -8.50677000e-03  -3.58163380e-01
C     1.107176846260000e+01   7.998055627081520e+00   3.375618600000000e+00  3.05655840e-01  -2.71405210e-01   7.94734430e-01
C     1.112454125320000e+01   6.245423555281310e+00   1.536204000000000e-01 -2.11626878e+00  -1.62378110e-01  -2.91672550e-01
C     1.233039997690000e+01   6.948426881853258e+00   1.098903000000000e-01  1.46921460e+00   8.15648130e-01  -5.29422090e-01
C     1.230097073630000e+01   7.273335376716209e+00   3.526596900000000e+00 -3.15479310e-01   8.66351180e-01  -6.95000410e-01
C     1.353459132530000e+01   7.974635597647920e+00   3.430265700000000e+00  4.71843760e-01   3.35119600e-02   4.54642770e-01
