64
Lattice="9.86 0 0 4.93 8.53901048131456 0 0 0 30 " PBC="1 1 1" Properties=species:S:1:pos:R:3:force:R:3 Energy="-515.41187359"
C     9.793521760099999e+00   5.538640435720392e-01  -2.046242999999990e-01  1.45857927e+00  -9.32482710e-01   7.95546200e-02
C     1.174654436600000e+00   1.217865952117214e+00  -6.377609999999834e-02  9.17232120e-01   1.04314685e+00  -8.06200200e-02
C     1.282649932000000e+00   1.890424205333664e-01   3.168913200000000e+00 -8.41073840e-01  -9.45091890e-01  -1.43661400e-01
C     2.493022563700000e+00   9.108366935676008e-01   3.263066400000000e+00  1.18766720e-01   4.31860780e-01   6.67463570e-01
C     2.419037166300000e+00   5.066296532008712e-01  -8.927879999999888e-02  3.25042270e-01   1.15446722e+00   3.76813000e-03
C     3.673357740700000e+00   1.256307296446602e+00  -5.174099999997850e-03 -4.68142490e-01  -8.64432230e-01   7.40633500e-02
C     3.735291210800000e+00   2.002047858130320e-01   3.278944500000000e+00 -8.70889000e-01  -1.50596535e+00  -6.64858400e-02
C     4.969834646499999e+00   8.674199240018312e-01   3.322533900000000e+00 -3.41166010e-01   1.61392644e+00   3.21673470e-01
C     4.913061703199999e+00   5.659473411319728e-01  -1.512209999999925e-02  4.18258160e-01  -1.23186988e+00   3.33173400e-02
C     6.164088741799999e+00   1.241386827264584e+00  -6.450750000000127e-02 -1.13546084e+00   8.35781230e-01  -1.44107750e-01
C     6.196814032499999e+00   1.684641737875096e-01   3.328426200000000e+00  5.35653980e-01   3.44836950e-01   3.32964150e-01
C     7.424361699600000e+00   9.001961472183680e-01   3.326141700000000e+00  5.37568100e-02  -3.37770680e-01  -2.94966150e-01
C     7.369678139600000e+00   5.096363241809840e-01  -1.289136000000006e-01  4.73886150e-01   1.66436464e+00   1.48459970e-01
C     8.603569681400000e+00   1.260988808942263e+00  -1.893428999999998e-01 -1.23758476e+00  -4.15553480e-01   6.88982500e-02
C     8.658074578200001e+00   1.694643480850320e-01   3.268706700000000e+00 -1.35241360e-01   5.65268610e-01   2.78192700e-01
C     9.889369193199999e+00   8.950595908542288e-01   3.252314100000000e+00  5.75513350e-01  -6.74109430e-01   4.31649700e-02
C     1.105105363790000e+01   2.648848442404164e+00   1.271436000000000e-01  5.00686680e-01  -2.31628980e-01  -6.28296370e-01
C     2.430680248700000e+00   3.369726735784209e+00   2.389176000000000e-01  4.76124660e-01  -1.01807807e+00  -2.12483440e-01
C     2.457460255200000e+00   2.327420192042545e+00   3.536583600000000e+00  1.54055437e+00  -3.64891650e-01   1.52406230e-01
C     3.736894742600000e+00   3.004876763230742e+00   3.639912300000000e+00 -1.16678832e+00   3.10514940e-01  -8.83405100e-01
C     3.705644360000000e+00   2.659460126897975e+00   1.195989000000000e-01 -1.69376578e+00   8.31993670e-01   1.05591800e-02
C     4.920282723500000e+00   3.392769084784279e+00   4.693290000000000e-02 -2.84767400e-02  -8.23079250e-01  -6.74960300e-02
C     4.942673945400000e+00   2.331025533047411e+00   3.433104300000000e+00  8.58261480e-01  -1.85182510e+00   3.26907900e-02
C     6.168373897800000e+00   3.040966037123415e+00   3.388029600000000e+00  6.46778340e-01  -5.12507250e-01  -1.19538600e-01
C     6.142152904000000e+00   2.677342351864981e+00  -7.506240000000020e-02  9.83247060e-01  -2.67426920e-01  -1.24801240e-01
C     7.396568134399999e+00   3.376341480252541e+00  -1.381538999999989e-01 -1.15136906e+00   7.50043460e-01   1.59697690e-01
C     7.411629580200000e+00   2.328192630930566e+00   3.322833900000000e+00  3.08195700e-02  -8.01041610e-01   2.51656410e-01
C     8.661936888099998e+00   2.990249011327978e+00   3.396661200000000e+00 -5.13729690e-01   1.97099301e+00  -1.26625500e-01
C     8.622836367900000e+00   2.680044180170958e+00  -1.434828000000010e-01 -1.19702513e+00  -9.46774350e-01   5.88842600e-02
C     9.821049154599999e+00   3.360165008019019e+00   1.972920000000000e-02  8.38916390e-01   1.29786598e+00   7.88039550e-01
C     9.887044106599999e+00   2.297760109920475e+00   3.410008800000000e+00  7.39499520e-01   9.43103960e-01   5.56323120e-01
C     1.112026004120000e+01   3.056560490402619e+00   3.653897400000000e+00 -1.04399975e+00  -8.52794880e-01  -7.16336470e-01
C     1.227709509140000e+01   4.778940555874285e+00   3.204378000000000e-01  1.08146151e+00   6.47070000e-01  -2.06197420e-01
C     3.684724595200000e+00   5.499988434002462e+00   2.344173000000000e-01 -6.82118080e-01   1.18141593e+00  -1.09628597e+00
C     3.749609705599999e+00   4.418772437376897e+00   3.636906900000000e+00 -8.54620630e-01   1.83265837e+00   4.85945390e-01
C     4.944434251200000e+00   5.189922276375637e+00   3.447804600000000e+00  6.93260980e-01  -2.43614515e+00  -1.96206140e-01
C     4.898907426700000e+00   4.809045605832468e+00   3.164850000000000e-02 -4.61100690e-01  -5.51673170e-01   5.60513340e-01
C     6.107025125700000e+00   5.501908259728681e+00  -1.066689000000025e-01  8.79283660e-01   6.44153670e-01  -3.44588920e-01
C     6.199043082699999e+00   4.444257711885191e+00   3.361244100000000e+00 -1.54531197e+00   8.90560870e-01   5.30043200e-02
C     7.408135689200000e+00   5.145270936674669e+00   3.277394700000000e+00  1.51675406e+00  -2.63499690e-01  -6.06291800e-02
C     7.360735168900000e+00   4.810625151991059e+00  -1.218879000000008e-01 -9.20251710e-01  -5.50794370e-01   3.40531000e-01
C     8.543833660199999e+00   5.535521476752467e+00   2.192040000000000e-02  2.51275128e+00  -2.02762930e-01  -1.86671060e-01
C     8.663815070200000e+00   4.450630119236100e+00   3.398876400000000e+00 -3.92249380e-01  -9.27372640e-01   4.43137060e-01
C     9.881737355999999e+00   5.170089229074369e+00   3.580735800000000e+00 -8.86068500e-02   5.86396000e-02  -3.22945580e-01
C     9.777897751999999e+00   4.788494342359728e+00   1.746654000000000e-01  1.25818000e+00   5.89242420e-01  -4.71749730e-01
C     1.105749256300000e+01   5.487015115380199e+00   2.885403000000000e-01 -1.22703320e+00   1.19064072e+00  -5.17722960e-01
C     1.111499889310000e+01   4.485721951314604e+00   3.790888500000000e+00  2.01603700e-02  -8.42323440e-01  -8.90045640e-01
C     1.236357197490000e+01   5.177124605198946e+00   3.749085600000000e+00  4.64538170e-01  -1.22833848e+00  -1.91140160e-01
C     1.357461799530000e+01   6.949048180255782e+00   3.872970000000001e-02 -2.31883035e+00  -9.97883610e-01  -5.11404900e-02
C     4.887147552599999e+00   7.664403014706838e+00  -2.167467000000016e-01  7.89633560e-01  -6.82703290e-01   7.38153220e-01
C     4.925134582999999e+00   6.571670796207316e+00   3.274959300000000e+00  2.39463138e+00   9.36417160e-01  -2.07218310e-01
C     6.201318425600000e+00   7.279198175921673e+00   3.072760500000000e+00 -9.58757850e-01   4.24399380e-01   9.86930360e-01
C     6.119431224200000e+00   6.919570576787669e+00  -2.043573000000016e-01  1.21644450e-01   7.03041980e-01   1.40281140e-01
C     7.359045805799999e+00   7.635068439664265e+00  -1.830957000000026e-01  8.03372110e-01   6.68245100e-02   4.25464520e-01
C     7.427117421700000e+00   6.554729997145730e+00   3.141571500000000e+00 -1.01431092e+00   5.15832600e-01   6.39962730e-01
C     8.619767097800000e+00   7.273885032820806e+00   3.294464100000000e+00  2.01128665e+00   1.26370644e+00  -6.44784810e-01
C     8.626424076799999e+00   6.958258613129824e+00  -3.284160000000114e-02 -1.01061626e+00  -2.27602220e-01   1.53990500e-02
C     9.874078601000001e+00   7.665019531263495e+00   5.822910000000000e-02 -1.31615187e+00   1.90176060e-01  -3.60120290e-01
C     9.880101236900000e+00   6.581824618959189e+00   3.424404000000000e+00  3.39417950e-01   6.71748710e-01   6.06532530e-01
C     1.115052343780000e+01   7.303681397550138e+00   3.464720700000000e+00 -1.29072295e+00  -1.09545883e+00   1.06523990e-01
C     1.109026143490000e+01   6.952505284038715e+00   1.530048000000000e-01 -5.57719640e-01  -1.40801147e+00   1.99013140e-01
C     1.229654911790000e+01   7.662870176935574e+00   2.375040000000000e-02  1.60071789e+00  -1.30510471e+00   1.92744630e-01
C     1.237629221300000e+01   6.572796920909419e+00   3.606559500000000e+00 -1.38611270e-01   1.18836538e+00  -7.58550850e-01
C     1.360220381030000e+01   7.284719073147516e+00   3.372917700000000e+00 -1.39268628e+00   5.64316290e-01   1.76393720e-01
