52
Lattice="8.88768389401873 1.33226762955019e-15 0 4.44384194700937 7.69696003302603 0 0 0 30 " PBC="1 1 1" Properties=species:S:1:pos:R:3:force:R:3 Energy="-419.21094647"
C     1.327432986128234e+01   7.607250729336744e+00  -7.470389999999938e-02  7.76246740e-01   2.01264373e+00  -1.61941990e-01
C     9.523592566748331e+00   7.446140655924796e+00  -6.589290000000148e-02 -8.06427400e-02  -1.73438711e+00  -1.16385150e-01
C     1.087971305819006e+01   7.024095401748614e+00   6.539760000000000e-02  4.01291060e-01   1.30679540e+00  -2.46829880e-01
C     1.122533997473113e+01   5.671865446743705e+00   4.535430000000000e-02  1.77180280e-01  -2.10622770e+00  -3.84698390e-01
C     7.117941437460805e+00   6.839445099720113e+00  -2.723507999999981e-01  6.70271780e-01  -9.87400140e-01   5.47933310e-01
C     8.512260083315013e+00   6.438560712906408e+00  -1.105617000000017e-01 -1.34798412e+00   6.78319440e-01  -2.75925790e-01
C     8.810072327030060e+00   5.055711481206156e+00  -2.937749999999895e-02  1.71572251e+00   4.43966620e-01  -4.70325780e-01
C     1.020407905960900e+01   4.640741272689551e+00  -6.236850000000160e-02 -2.02100320e-01   9.94235220e-01   2.98824570e-01
C     1.053978963170934e+01   3.261879374163240e+00  -2.022654000000017e-01  7.94671650e-01   1.71679312e+00   4.17397680e-01
C     4.742789595290394e+00   6.250073322363752e+00  -5.392080000000021e-02 -4.59646740e-01  -5.42737270e-01  -1.93264300e-01
C     6.083710325314009e+00   5.841856503547070e+00  -1.627067999999987e-01  9.33074880e-01   1.12860580e+00   1.36213200e-01
C     6.433469570477667e+00   4.486445241022560e+00  -6.844590000000039e-02  1.06740750e-01  -5.28664210e-01   4.13978600e-02
C     7.788971923533563e+00   4.108604705873073e+00  -5.944470000000024e-02  6.62988330e-01  -2.34261481e+00   1.32880310e-01
C     8.175120412746061e+00   2.679668155692389e+00  -5.679029999999941e-02 -2.49503275e+00   1.81489879e+00  -7.06606000e-03
C     9.509504828998169e+00   2.317842531338122e+00  -1.844831999999990e-01  5.77370230e-01  -1.45645086e+00  -3.55888100e-02
C     3.726960565954332e+00   5.254379178962893e+00   9.399600000000001e-03 -1.17079487e+00   8.81419470e-01  -2.34342770e-01
C     4.054995912013903e+00   3.895464568111128e+00  -1.016627999999997e-01  8.19606000e-03  -9.69034090e-01   2.45002620e-01
C     5.429013843587319e+00   3.494133295798083e+00  -4.358159999999955e-02 -9.48361480e-01  -6.06277920e-01  -5.38140950e-01
C     5.744072815638334e+00   2.101658553762714e+00  -6.937980000000010e-02  3.13749180e-01   5.57924700e-02   4.33096000e-03
C     7.111140445102786e+00   1.713066443025721e+00  -3.513300000001607e-03  1.03213216e+00  -4.58769700e-01  -1.72940840e-01
C     7.476937204754644e+00   3.232224449590056e-01   3.923250000000000e-02 -7.11259050e-01  -1.25052220e-01  -2.61987070e-01
C     3.030488548176304e+00   2.891200090625665e+00  -2.192766000000006e-01  1.53089220e-01  -4.83584400e-02   5.47126200e-02
C     3.378003031005740e+00   1.514045377834008e+00  -2.866398000000032e-01 -6.77166770e-01  -7.46938930e-01  -2.67184650e-01
C     4.726913699957375e+00   1.086969621491019e+00  -1.962899999999976e-01  3.49453650e-01   1.99974223e+00   6.27311830e-01
C     9.790488604307017e-01   9.451158796517239e-01  -2.448456000000014e-01 -9.07592510e-01  -1.90504175e+00   2.04188560e-01
C     2.331315696564178e+00   5.046447958901251e-01  -3.636341999999999e-01  3.38585960e-01   1.54892281e+00   7.81710770e-01
C     6.021343625976851e-02   6.602575465094479e-02   3.449212800000000e+00 -6.03288390e-01  -2.09152900e-02  -3.98381530e-01
C     6.897010280577707e+00   7.170426773115762e+00   3.630186900000000e+00  9.55136700e-02  -2.64717630e-01  -3.50007070e-01
C     8.270315953688534e+00   7.576286628832057e+00   3.653204700000000e+00 -1.08540270e-01   1.80319000e-01  -3.72001530e-01
C     9.296781539619165e+00   6.581724323403609e+00   3.666940800000000e+00 -8.18919650e-01   1.19006540e-01  -7.69741900e-01
C     1.063485474511919e+01   6.970793722632063e+00   3.452469600000000e+00  8.94409280e-01   3.88452400e-02   2.54726220e-01
C     1.167932477889630e+01   5.998114413356106e+00   3.370769400000000e+00 -9.66941550e-01  -7.14997810e-01   4.79416510e-01
C     4.145676019156879e+00   6.389454261854209e+00   3.324816300000000e+00  4.84295270e-01   2.20823330e-01   6.04132650e-01
C     5.169526493000745e+00   5.427264292737537e+00   3.388989000000000e+00  7.42893350e-01  -1.93333138e+00   1.45220700e-01
C     6.562525762666208e+00   5.772558463308970e+00   3.555807000000000e+00 -1.51933655e+00   1.50913581e+00  -3.26822360e-01
C     7.564998246064031e+00   4.808472271119307e+00   3.581102700000000e+00  9.93326350e-01  -6.71843900e-01   2.58540660e-01
C     8.932226520924834e+00   5.205028965186544e+00   3.659478600000000e+00  3.46602430e-01   1.19461930e-01   1.34031900e-01
C     9.975438902994556e+00   4.234604480351375e+00   3.652943100000000e+00 -7.19586680e-01  -6.30086090e-01  -5.42822540e-01
C     1.132298073583111e+01   4.606845938896639e+00   3.501827100000000e+00  1.48594642e+00   2.87621130e-01  -2.41859590e-01
C     3.476486479899642e+00   3.598443729638248e+00   3.439254900000000e+00 -1.10659139e+00   6.83934740e-01  -2.54527600e-02
C     4.839399206534178e+00   3.997743851168977e+00   3.368490900000000e+00 -3.99978340e-01   1.75946473e+00   2.70279020e-01
C     5.870483899570138e+00   3.055549352696640e+00   3.411404100000000e+00  4.64380630e-01  -1.40790819e+00  -8.06856000e-03
C     7.240046391271090e+00   3.423933248814068e+00   3.509329200000000e+00 -5.21762450e-01   4.18484220e-01  -1.15048520e-01
C     8.251422067557886e+00   2.445353296039913e+00   3.544258800000000e+00  6.32556030e-01  -6.60872420e-01  -1.74336980e-01
C     9.624653484070786e+00   2.852708286242037e+00   3.616315200000000e+00  1.23390190e-01  -1.09554260e+00   1.06981900e-01
C     1.765061359501485e+00   1.825380791661882e+00   3.609909600000000e+00 -1.49989770e+00   7.58698990e-01  -5.24235220e-01
C     3.096307223995674e+00   2.221821107693465e+00   3.501348000000000e+00  1.95586115e+00   4.26528060e-01   2.51355900e-01
C     4.163793870509236e+00   1.268907129956947e+00   3.499172700000000e+00 -2.45724620e-01  -7.74227430e-01   2.20067030e-01
C     5.537603608599786e+00   1.656142112701450e+00   3.412766700000000e+00 -5.47077110e-01   1.97724440e-01   1.52385310e-01
C     6.544398083770349e+00   6.518340704222163e-01   3.393253200000000e+00  2.60905510e-01   3.99939490e-01   2.70783260e-01
C     7.921804134271743e+00   1.041522074328281e+00   3.432177300000000e+00 -2.05306970e-01   7.88344790e-01   1.88209520e-01
C     1.410605371570933e+00   4.455939494487660e-01   3.547324800000000e+00  7.73128750e-01   2.08301090e-01   4.11921630e-01
