64
Lattice="9.86 0 0 4.93 8.53901048131456 0 0 0 30 " PBC="1 1 1" Properties=species:S:1:pos:R:3:force:R:3 Energy="-516.44408956"
C     9.901361861900000e+00   3.567196391150392e-01  -1.581350999999991e-01  9.95347900e-02  -8.19786800e-02  -2.57383420e-01
C     1.282029688700000e+00   1.042978393086230e+00  -1.568357999999996e-01  1.58073650e-01   5.80756760e-01  -1.36711600e-02
C     1.194692569500000e+00   3.867450201054440e-01   3.589542000000000e+00  1.44859610e-01  -1.38231521e+00   5.35935600e-01
C     2.422664512400000e+00   1.081076639974531e+00   3.676803000000000e+00 -2.25999070e-01   6.48736730e-01  -7.50727400e-01
C     2.530764375900000e+00   3.331441143005976e-01  -2.050799999999988e-01 -2.08857118e+00  -7.39587180e-01  -1.83249920e-01
C     3.715552821900000e+00   1.035358009353668e+00  -2.477345999999976e-01  1.51186289e+00   1.36948580e+00   1.90303070e-01
C     3.644088577200000e+00   3.618077792897568e-01   3.652751700000000e+00  9.99059800e-02   6.14303660e-01   1.05440130e-01
C     4.885064282499999e+00   1.074048948959386e+00   3.619434900000000e+00 -2.81610200e-02  -6.77927300e-01  -5.06162540e-01
C     4.946917097799999e+00   3.591861322921872e-01  -2.591243999999975e-01  1.23713005e+00  -1.12853402e+00   2.15864460e-01
C     6.191804511600000e+00   1.048563845231302e+00  -1.914671999999982e-01  3.73216600e-02   5.82856550e-01  -3.63400060e-01
C     6.117374674700000e+00   3.773398124023528e-01   3.545210700000000e+00  4.01874340e-01  -1.18995799e+00   9.21764870e-01
C     7.352845542000001e+00   1.067021941065080e+00   3.564462300000000e+00  1.67235600e-01   1.00595661e+00   1.34121960e-01
C     7.430508817999999e+00   3.327194693094272e-01  -1.960181999999975e-01 -3.62016000e-01   5.23925220e-01  -1.75865190e-01
C     8.654632156400000e+00   1.071104954316197e+00  -2.004471000000017e-01  6.00894810e-01  -1.53285649e+00   4.54102980e-01
C     8.601226304499999e+00   3.780073922416792e-01   3.619555800000000e+00 -6.57405300e-01   6.94177600e-02  -5.87393320e-01
C     9.832962450299998e+00   1.079974339111668e+00   3.557085000000000e+00 -2.37279520e-01   8.56388360e-01   5.26843120e-01
C     1.115413895190000e+01   2.480444810200957e+00  -1.387374000000001e-01 -7.24427010e-01  -9.72902370e-01  -5.06998500e-02
C     2.514196815100000e+00   3.162767934241916e+00  -1.597830000000009e-01 -1.39530730e-01   1.51089940e+00  -1.41968730e-01
C     2.404301593500000e+00   2.513190207589662e+00   3.622066500000000e+00  3.35976690e-01  -4.90087140e-01   2.45193010e-01
C     3.653300331500000e+00   3.184561709129601e+00   3.581124600000000e+00  1.73192740e-01   9.92430960e-01   4.66196900e-01
C     3.739254536400000e+00   2.467830044628749e+00  -2.182682999999983e-01 -3.19127960e-01   1.04426910e-01   1.83060260e-01
C     4.938460767400000e+00   3.218356465516192e+00  -2.145876000000015e-01  1.72699288e+00  -1.41814177e+00   3.40617910e-01
C     4.897893325700000e+00   2.472494991444078e+00   3.573983100000000e+00 -7.02654790e-01   8.20734010e-01   2.91576990e-01
C     6.123793436100000e+00   3.188513904740164e+00   3.594158700000000e+00 -2.17113910e-01   9.47762570e-01  -4.81358320e-01
C     6.206259222300000e+00   2.482597665523175e+00  -1.918043999999988e-01 -7.30157610e-01   4.93920700e-02  -2.36252950e-01
C     7.441389377299999e+00   3.172714173649020e+00  -2.125337999999992e-01  3.83291300e-02   1.49999105e+00   2.27466790e-01
C     7.341992541400000e+00   2.498700958436884e+00   3.577355100000000e+00  1.59648608e+00  -3.71706980e-01  -3.10464420e-01
C     8.616415190800000e+00   3.209467014046092e+00   3.538802400000000e+00 -1.86327644e+00   4.48834980e-01   4.48228820e-01
C     8.686403886499999e+00   2.460605956372564e+00  -1.895753999999990e-01 -5.72493470e-01   1.53195383e+00   6.97429600e-02
C     9.921463936900000e+00   3.194557645577699e+00  -1.519958999999993e-01 -3.65254330e-01  -8.22453350e-01  -4.37809580e-01
C     9.837111538300000e+00   2.526459659095372e+00   3.587108400000000e+00 -9.69862290e-01  -1.55664785e+00  -2.85871660e-01
C     1.102442572190000e+01   3.233787225964495e+00   3.634175400000000e+00  2.02444932e+00   5.89032360e-01  -4.18945490e-01
C     1.234617701220000e+01   4.608677468748954e+00  -1.626572999999993e-01  5.26317840e-01  -1.61965950e-01   1.88142280e-01
C     3.719264914700000e+00   5.318815480137359e+00  -1.453901999999978e-01  3.22263250e-01   6.18096380e-01  -3.20047400e-02
C     3.664995474700000e+00   4.619342607448369e+00   3.637622100000000e+00  6.71920570e-01   1.87104970e-01  -6.81172040e-01
C     4.917466904699999e+00   5.355418290120298e+00   3.578226000000000e+00 -1.47182756e+00  -6.81683680e-01   1.64971530e-01
C     4.966656719200000e+00   4.624899197738019e+00  -1.625520000000016e-01 -6.46591140e-01  -1.37643760e-01  -4.05303090e-01
C     6.200842927100000e+00   5.325968779996665e+00  -2.377442999999992e-01 -6.45095890e-01   3.14392760e-01   3.43826540e-01
C     6.130246510299999e+00   4.626935666347394e+00   3.561924900000000e+00 -2.57772000e-03  -1.40475600e-02   2.09146110e-01
C     7.353863685599999e+00   5.350825754113840e+00   3.581750400000000e+00  3.49450120e-01  -1.34100964e+00   9.14290100e-02
C     7.423623481400000e+00   4.647417593055037e+00  -2.210666999999980e-01  1.18808324e+00  -1.86509284e+00  -2.82633390e-01
C     8.679001294299999e+00   5.340005717764318e+00  -2.524623000000012e-01 -3.79801450e-01  -7.02602930e-01   1.98249890e-01
C     8.594951647000000e+00   4.636490904464619e+00   3.562914300000000e+00 -1.94146240e-01  -1.84327150e-01  -9.81607500e-02
C     9.811175350599999e+00   5.360583110609126e+00   3.576185400000000e+00  5.17933590e-01   1.30517010e-01   3.34471120e-01
C     9.902743888800000e+00   4.596596476721849e+00  -2.381048999999997e-01 -1.26704430e-01   1.19697462e+00   5.92309090e-01
C     1.112323864860000e+01   5.345202132591922e+00  -1.820868000000004e-01  3.40390000e-02  -1.84966767e+00  -1.79296950e-01
C     1.106127515480000e+01   4.664583053482351e+00   3.601000800000000e+00 -5.86380810e-01  -6.11514390e-01   9.58020500e-02
C     1.230370333670000e+01   5.346796963579272e+00   3.621955500000000e+00 -1.18018720e-01  -1.88317930e-01  -9.64042900e-02
C     1.358651216260000e+01   6.751200246725334e+00  -1.460091000000006e-01  7.04755970e-01   5.83643400e-02  -4.51311560e-01
C     4.992124852700000e+00   7.481471195463064e+00  -1.817355000000020e-01 -1.70496707e+00  -8.94008120e-01  -2.72051000e-03
C     4.872861447900000e+00   6.778821810875514e+00   3.574285500000000e+00  5.91382710e-01   2.95894360e-01   4.70803670e-01
C     6.119161306700000e+00   7.480001460979247e+00   3.622744500000000e+00 -2.76566950e-01   1.98683170e-01  -2.59139270e-01
C     6.186684361499999e+00   6.741415138445988e+00  -2.586714000000008e-01  1.53346508e+00   7.22372120e-01   4.29063590e-01
C     7.456087580699999e+00   7.443571992909052e+00  -2.557251000000029e-01 -7.56399350e-01   3.11837320e-01   2.54056300e-01
C     7.350042442600000e+00   6.742119521420483e+00   3.657155700000000e+00 -5.98678060e-01   1.79774146e+00  -4.96357430e-01
C     8.555661124600000e+00   7.496748766063357e+00   3.642217500000000e+00  1.11595288e+00  -1.10658618e+00   2.37505230e-01
C     8.696061559299999e+00   6.759429718075434e+00  -2.332089000000011e-01 -4.43761540e-01  -5.33362810e-01  -5.26839530e-01
C     9.923780248099998e+00   7.462732849305334e+00  -2.630453999999993e-01 -1.06863547e+00   7.49183610e-01   3.95321910e-01
C     9.802540504900000e+00   6.777799862101269e+00   3.641217900000000e+00  5.03548840e-01   5.85498780e-01  -3.20495560e-01
C     1.106981958430000e+01   7.479269667781112e+00   3.634425900000000e+00 -1.37406964e+00   1.31314140e-01  -6.62718330e-01
C     1.112257462690000e+01   6.739543045788353e+00  -1.989909000000019e-01  7.27553260e-01   8.45309160e-01  -3.20171100e-01
C     1.235584671420000e+01   7.449976506939366e+00  -2.160812999999990e-01  4.01284750e-01   2.00625570e-01   6.29022240e-01
C     1.229431272200000e+01   6.764669511076277e+00   3.589665600000000e+00 -4.36077830e-01   5.54348320e-01   5.96291520e-01
C     1.349141049060000e+01   7.507463516413661e+00   3.630748800000000e+00  1.49126807e+00  -9.69845090e-01  -5.87771500e-01
