76
Lattice="10.7446858958278 0 0 5.37234294791388 9.3051709414712 0 0 0 30 " PBC="1 1 1" Properties=species:S:1:pos:R:3:force:R:3 Energy="-611.69033305"
C     1.851104157069310e-01   3.201295179171960e-02  -1.526622000000017e-01 -1.27790067e+00   1.24799041e+00  -9.86789190e-01
C     1.259200443560959e+01   8.533306173061616e+00  -2.528186999999988e-01  4.87797760e-01   2.43038964e+00  -5.36292800e-02
C     1.403517176481886e+01   8.416091726281717e+00  -2.654232000000007e-01 -7.93060090e-01   7.78031200e-02  -4.46957900e-02
C     1.457477800295471e+01   7.097319073309790e+00  -1.994880000000023e-01 -5.75734300e-02   1.81767595e+00   1.11681200e-01
C     8.322606555480075e+00   9.021256775174447e+00  -1.124159999999996e-01  8.81645910e-01  -1.64792659e+00  -6.34827210e-01
C     9.755192732908741e+00   8.896285910105803e+00  -1.963182000000003e-01 -1.05812516e+00  -5.74679820e-01   3.87384960e-01
C     1.028898459171667e+01   7.584968373987584e+00  -1.658031000000015e-01  1.43903129e+00   7.72341870e-01  -1.85523780e-01
C     1.171637012627601e+01   7.451775273772936e+00  -1.566557999999993e-01 -1.05908200e-01  -1.50833680e+00  -1.19222210e-01
C     1.229968327537531e+01   6.146483208045206e+00  -9.749430000000103e-02 -9.71659780e-01  -4.02495370e-01  -2.06831620e-01
C     1.369281249490142e+01   6.043871738228287e+00  -8.361690000000266e-02  9.95994160e-01  -4.57076831e+00  -5.90409910e-01
C     6.075462301672920e+00   8.016364938678377e+00  -2.719905000000011e-01  4.64059900e-01   2.09514013e+00   6.26738940e-01
C     7.467241075351688e+00   7.860112601305606e+00  -2.633976000000011e-01  1.26148128e+00   8.87835330e-01   7.73336260e-01
C     8.031631113431342e+00   6.584733496391856e+00  -2.002695000000010e-01  9.44908800e-01  -4.50093590e-01   3.45625690e-01
C     9.484136541709441e+00   6.443064688174801e+00  -1.296423000000004e-01 -1.94705576e+00  -5.51296290e-01  -1.33066630e-01
C     1.002997904926508e+01   5.142859666348258e+00  -7.673310000000200e-02  2.73588490e-01  -1.27822643e+00  -2.22781410e-01
C     1.145420005893316e+01   4.960258713890075e+00  -1.220438999999978e-01 -4.56841840e-01   1.12244255e+00   9.86231520e-01
C     1.200470699580829e+01   3.665812010996333e+00  -8.447099999997931e-03  1.90877820e-01  -6.65056650e-01  -5.52842570e-01
C     5.232356723050152e+00   6.937295722361875e+00  -2.200406999999984e-01 -5.77648560e-01  -2.26782492e+00   2.12795200e-01
C     5.788337432710170e+00   5.624812992738550e+00  -1.206777000000017e-01 -2.29441304e+00  -7.36224510e-01  -6.68698240e-01
C     7.151269948153208e+00   5.459800023029188e+00  -1.193883000000007e-01  2.58194389e+00  -8.22602080e-01  -2.41373430e-01
C     7.748240828670284e+00   4.146035320005460e+00  -1.204740000000015e-01  1.14204670e-01  -6.68594230e-01  -2.92745440e-01
C     9.170035043580990e+00   3.952873184633794e+00  -7.625429999999866e-02  3.40874250e-01   2.23718277e+00  -3.15292110e-01
C     9.772200173879273e+00   2.682137918329361e+00  -1.370043000000010e-01 -1.70886010e-01  -8.99019690e-01   2.08762300e-01
C     1.120112778575899e+01   2.482833439620201e+00  -3.100859999999983e-02 -1.65198506e+00   1.43529620e+00  -3.16368490e-01
C     3.539147498154515e+00   4.616180663628019e+00  -1.275915000000012e-01 -2.55604226e+00   1.79552496e+00   5.92279750e-01
C     4.902268260494521e+00   4.444368963823056e+00  -1.511205000000011e-01  2.58342850e+00   5.28132430e-01   2.17779230e-01
C     5.502370948334299e+00   3.126992458698966e+00  -1.851629999999993e-01 -6.49237690e-01   1.31765536e+00   2.14964010e-01
C     6.919471078592442e+00   2.983957186129371e+00  -2.441054999999999e-01 -3.53020830e-01   5.04069200e-01   5.77933670e-01
C     7.479383967227854e+00   1.679723397492647e+00  -2.828993999999980e-01  1.47442784e+00   8.69309280e-01  -2.84379300e-02
C     8.920732704625118e+00   1.541390958316128e+00  -2.578788000000003e-01 -3.24202800e-02   5.11413210e-01   1.95698830e-01
C     9.527139890640152e+00   2.751360387675952e-01  -2.787533999999994e-01 -1.05460135e+00  -2.17427240e+00   4.89556100e-01
C     2.651757051913743e+00   3.488320714004721e+00  -4.775970000000029e-02  1.53114967e+00  -8.45417570e-01   5.32843020e-01
C     3.226362277772244e+00   2.131283895403582e+00   4.160160000000000e-02 -3.67401400e-02   1.72719640e+00  -6.79561520e-01
C     4.631343584250637e+00   2.013172523196778e+00  -9.672090000000111e-02  4.53958130e-01  -4.94436400e-02  -3.34003190e-01
C     5.213514036004470e+00   7.365400117574096e-01  -2.232872999999991e-01  7.45895920e-01  -9.10910210e-01   3.47707730e-01
C     6.646733290326363e+00   5.709745940493400e-01  -2.913695999999995e-01 -7.53320980e-01  -1.60091115e+00   1.60724100e-01
C     9.881903739258850e-01   1.193447540045597e+00  -6.651240000000058e-02  1.41902239e+00  -1.39534038e+00   5.40540310e-01
C     2.413526413373237e+00   9.655385006083310e-01   2.579040000000000e-02 -1.39982549e+00   2.75599819e+00  -4.33719210e-01
C     1.599363128988773e+01   9.262289362446943e+00   3.433593900000000e+00  6.76299200e-01  -2.06608570e-01  -1.91089750e-01
C     1.176808800642935e+01   8.779936658119906e+00   3.581950200000000e+00 -1.80666589e+00  -2.32642603e+00  -4.14461330e-01
C     1.315210084348018e+01   8.893841534751573e+00   3.490295400000000e+00  8.44731110e-01   1.47100407e+00   1.72819760e-01
C     1.403698133109471e+01   7.818745440323033e+00   3.518092800000000e+00 -2.93997230e-01  -2.41821439e+00  -8.99756900e-02
C     7.502076099167501e+00   8.245460387410493e+00   3.463657200000000e+00 -1.44988869e+00   9.84357810e-01   6.49195730e-01
C     8.885975794675797e+00   8.416352736326584e+00   3.525632400000000e+00  1.02770714e+00  -3.06636340e-01   5.21179140e-01
C     9.732241385421759e+00   7.276898171505209e+00   3.632190300000000e+00  1.79349796e+00   1.63347526e+00  -6.68895290e-01
C     1.117066316293300e+01   7.453935283103239e+00   3.602098500000000e+00  4.80491800e-02  -2.06493740e-01   7.78799600e-02
C     1.201070210075305e+01   6.289337029781471e+00   3.561705600000000e+00  3.55380540e-01   4.71468560e-01  -5.22510190e-01
C     1.344861355940748e+01   6.485295182917188e+00   3.540522600000000e+00 -5.90305060e-01   1.07747506e+00   3.30451170e-01
C     4.721685118191554e+00   7.955107230397878e+00   3.508002300000000e+00 -1.76954339e+00  -3.27392480e-01   8.91680200e-02
C     5.517457669253348e+00   6.781896483060884e+00   3.619788900000000e+00 -2.82843780e-01  -2.57586860e-01  -1.48227800e-01
C     6.898631061884809e+00   6.957587415579023e+00   3.606756900000000e+00  2.37109665e+00  -9.35089840e-01  -2.27396860e-01
C     7.796734712095895e+00   5.795705899964897e+00   3.663735900000000e+00 -1.06344728e+00   1.22256772e+00  -7.27494960e-01
C     9.201394859912735e+00   6.013924720488666e+00   3.608385300000000e+00 -4.56270890e-01  -3.12923382e+00   3.02170330e-01
C     1.004427985013398e+01   4.822904248179349e+00   3.566102700000000e+00 -3.44059700e-02   5.64839010e-01  -4.72091450e-01
C     1.145061869395241e+01   4.947362398329201e+00   3.460305000000000e+00 -8.42981000e-03   3.07056758e+00   1.16990238e+00
C     1.233512682447707e+01   3.871902564768615e+00   3.501344100000000e+00 -1.72014520e+00   5.41511380e-01  -6.46477560e-01
C     3.528630438425306e+00   5.356070071665282e+00   3.613167000000000e+00  1.72430384e+00   7.49097300e-02  -2.01269400e-01
C     4.969902673658962e+00   5.452321922403256e+00   3.678703500000000e+00 -4.53723950e-01   1.05294573e+00  -1.83090830e-01
C     5.834310183036205e+00   4.307298305826001e+00   3.691613400000000e+00 -1.35160816e+00   1.15100441e+00  -4.59574000e-01
C     7.230799695630680e+00   4.490539826251695e+00   3.601680900000000e+00  5.03485780e-01  -6.50616800e-02   1.10718334e+00
C     8.066491387259020e+00   3.348034747241059e+00   3.631313400000000e+00  5.06496390e-01  -7.45394820e-01  -9.85360420e-01
C     9.493835393607364e+00   3.518445832716134e+00   3.544355100000000e+00 -1.64532550e+00   4.35741980e-01   4.67820050e-01
C     1.032535900668137e+01   2.392174554927422e+00   3.484514700000000e+00 -1.65738500e-01  -7.20844800e-02  -7.46619680e-01
C     1.171726386924918e+01   2.625587882130827e+00   3.428374200000000e+00  1.42024682e+00  -3.19815244e+00   4.72509180e-01
C     2.957651758951773e+00   4.099789644002462e+00   3.548978700000000e+00  1.12089469e+00  -3.58783644e+00   6.66270730e-01
C     3.771775373955895e+00   2.885551467473914e+00   3.643641600000000e+00  1.89699918e+00   7.52838750e-01  -5.28166150e-01
C     5.234141254207853e+00   3.032232319914382e+00   3.661326600000000e+00 -9.16410890e-01  -8.47495860e-01  -1.31593600e-01
C     6.073676266259193e+00   1.877062437995859e+00   3.568120200000000e+00  9.16196000e-03   3.09681590e-01   2.35942820e-01
C     7.502062023628972e+00   2.017053523892433e+00   3.545930400000000e+00 -6.13701450e-01   1.56795690e+00   2.31530640e-01
C     8.335824238286818e+00   8.926696139254816e-01   3.467660700000000e+00  7.98370160e-01   3.23253890e-01  -1.78837740e-01
C     9.748992834250723e+00   1.077262803481920e+00   3.395571900000000e+00  4.55185470e-01   3.10246830e-01   7.35596530e-01
C     1.828985898803583e+00   1.454952061696349e+00   3.440948400000000e+00 -6.35693300e-02  -9.92684990e-01   1.78721780e-01
C     3.239074369383964e+00   1.560842766804233e+00   3.562339200000000e+00  3.68978080e-01   7.61691210e-01  -5.23378300e-02
C     4.106275282201489e+00   3.927140385761190e-01   3.588490500000000e+00 -9.64869260e-01   1.27413211e+00  -6.12506690e-01
C     5.510150047202470e+00   5.730646284941734e-01   3.551453400000000e+00  2.99157490e-01   5.08064070e-01   4.51065430e-01
C     1.296968148808033e+00   1.232276343447448e-01   3.433494000000000e+00 -5.05529890e-01   6.15375000e-02  -1.75666500e-01
