64
Lattice="9.86 0 0 4.93 8.53901048131456 0 0 0 30 " PBC="1 1 1" Properties=species:S:1:pos:R:3:force:R:3 Energy="-515.10830858"
C     5.115250863200000e+00   6.674619326696922e+00  -3.173219999999972e-01 -6.31801900e-02  -1.28442100e-02  -3.17550780e-01
C     6.334948392699999e+00   7.404447100790740e+00  -4.891089000000015e-01  2.33531760e-01  -5.67005270e-01   7.68839300e-01
C     9.681768372200001e+00   1.869601315937555e+00   3.827965800000000e+00 -3.84610350e-01   1.76307280e-01  -4.04529120e-01
C     1.091189679570000e+01   2.583851885553338e+00   3.900016200000000e+00  7.77574870e-01  -2.58853030e-01  -1.74857410e-01
C     7.560646915400000e+00   6.668376456134994e+00  -5.103551999999993e-01  9.42071280e-01   1.56214493e+00   1.87255390e-01
C     8.814916119199999e+00   7.397330433286394e+00  -4.185234000000015e-01 -9.40683330e-01  -1.48731959e+00  -2.47108670e-01
C     2.317257513500000e+00   1.877151935954495e+00   3.927814800000000e+00 -1.40043018e+00  -1.43268935e+00  -1.68929260e-01
C     3.552836298500000e+00   2.529347552439708e+00   3.906421500000000e+00 -9.37579320e-01   2.72218641e+00   1.39642600e-01
C     1.004706318050000e+01   6.678313558800885e+00  -2.802411000000014e-01 -1.53579845e+00  -9.12546100e-01  -2.14850080e-01
C     1.124559617070000e+01   7.383985923878564e+00  -2.159417999999995e-01  1.20127860e+00  -2.87551540e-01   3.68629890e-01
C     4.775811439900000e+00   1.838235566472105e+00   3.838162500000000e+00 -4.24684750e-01   7.39930110e-01  -7.12653790e-01
C     5.977351089200000e+00   2.586912352299475e+00   3.671124600000000e+00 -1.50530350e-01  -1.04986188e+00   1.47563260e-01
C     1.247301472110000e+01   6.677991638105788e+00  -7.581180000000032e-02  2.00143933e+00  -2.14530000e-04  -9.01629350e-01
C     1.376922166010000e+01   7.378295868855112e+00  -1.804728000000004e-01 -2.22100948e+00   1.35086553e+00   6.46400600e-02
C     7.196554386200000e+00   1.883803568948101e+00   3.624497100000000e+00  7.98719260e-01  -8.02320410e-01   3.46104800e-01
C     8.425123154900000e+00   2.570578164542388e+00   3.649566600000000e+00  1.06120785e+00   4.48729410e-01  -3.31415800e-02
C     1.422867315800000e+00   2.845785775857024e-01  -3.996171000000004e-01 -4.08398360e-01  -1.00830950e-01   2.39732450e-01
C     2.645924295200000e+00   9.958750765259295e-01  -4.240637999999990e-01  6.43336600e-02  -4.68627530e-01   1.54014430e-01
C     1.092132911820000e+01   3.999641768394272e+00   3.836119500000000e+00 -3.22208990e-01  -1.70004050e-01  -4.40391010e-01
C     1.215285869700000e+01   4.715776299892258e+00   3.908136000000000e+00 -5.85689390e-01  -9.50187200e-02  -7.11694600e-02
C     3.842085708900000e+00   2.480629508997640e-01  -4.563516000000014e-01  2.09721681e+00   1.36873320e+00   3.37731270e-01
C     5.134405047100000e+00   9.521340807322344e-01  -4.216629000000012e-01 -2.33044511e+00   1.66156820e-01  -1.60922040e-01
C     3.495694837699999e+00   4.014487094284067e+00   3.910678800000000e+00  2.12952968e+00  -1.77316949e+00  -1.95874990e-01
C     4.754213356399999e+00   4.707840655892775e+00   3.796898400000000e+00 -8.40337550e-01   2.14580130e-01   1.21601550e-01
C     6.330271942600000e+00   2.467263395893296e-01  -3.445889999999991e-01  1.04490031e+00   1.01561204e+00   2.63137590e-01
C     7.554873688200000e+00   1.005216583210840e+00  -3.278115000000028e-01  1.01574967e+00  -1.23447200e-02  -1.37992140e-01
C     5.976990410399999e+00   3.988184636472837e+00   3.634395900000000e+00 -1.29981067e+00   2.65143580e-01   1.94110740e-01
C     7.169944168899999e+00   4.686580312989775e+00   3.504408600000000e+00  2.21835000e+00   8.93897330e-01   3.29743840e-01
C     8.816487556700000e+00   3.205967215210760e-01  -2.457242999999991e-01 -6.17381690e-01  -2.33042102e+00   2.23456870e-01
C     1.005357225950000e+01   9.876266485725640e-01  -2.570958000000019e-01 -5.34984840e-01   8.52992640e-01  -6.93887890e-01
C     8.416376151700000e+00   3.985025971106180e+00   3.527032500000000e+00  1.35299882e+00  -9.59411900e-02   1.60189420e-01
C     9.704872965100000e+00   4.677256909007083e+00   3.579325500000000e+00 -1.70086357e+00   6.61684260e-01   6.13541520e-01
C     2.680709635700000e+00   2.415108742293447e+00  -3.148689000000005e-01 -2.28054496e+00  -1.11585066e+00  -6.38532700e-02
C     3.855352092400000e+00   3.096994754387934e+00  -3.879333000000003e-01  2.89889543e+00   1.28981676e+00  -6.12573600e-02
C     1.214908951480000e+01   6.131128558446091e+00   3.874302000000000e+00 -9.73250120e-01   8.49800060e-01  -5.14056350e-01
C     1.333198888340000e+01   6.879134775780467e+00   3.815108100000000e+00  2.82470202e+00  -1.43727621e+00   4.96502970e-01
C     5.098760358300000e+00   2.365141697788470e+00  -4.582028999999999e-01  5.48565050e-01   1.44875171e+00  -4.55679660e-01
C     6.322616737199999e+00   3.125905794510699e+00  -5.798316000000021e-01  6.69877110e-01   7.67406000e-02   7.91028040e-01
C     4.763232002600000e+00   6.131147856609776e+00   3.821198400000000e+00 -1.00385354e+00   6.37580350e-01  -6.62132030e-01
C     6.002573412899999e+00   6.828329627396878e+00   3.708173100000000e+00 -3.61577120e-01   1.00553785e+00   3.93269820e-01
C     7.588612931999999e+00   2.443709047824845e+00  -4.674929999999975e-01 -1.76538890e+00  -1.31746212e+00  -1.51420790e-01
C     8.809189036799999e+00   3.139476673086353e+00  -4.299090000000021e-01  3.84424160e-01  -6.86492140e-01   4.43558750e-01
C     7.236764501500000e+00   6.111958052967967e+00   3.594756300000000e+00 -1.20463055e+00   4.50011820e-01  -1.14027330e-01
C     8.460876993899999e+00   6.840994346180394e+00   3.633564900000000e+00 -6.40406630e-01  -6.62075770e-01  -3.19387100e-02
C     1.001886392560000e+01   2.414042305274600e+00  -2.935820999999983e-01  2.08095120e+00   9.37345000e-02   1.35188480e-01
C     1.130855532730000e+01   3.107246775760327e+00  -2.259543000000015e-01 -2.07965707e+00   4.55482340e-01  -1.52024450e-01
C     9.672467286300000e+00   6.107805019830914e+00   3.603492600000000e+00  1.14710819e+00   6.49491690e-01   6.12046970e-01
C     1.090446866610000e+01   6.845668771297357e+00   3.781854300000000e+00 -3.52601000e-02  -5.21708950e-01  -5.55512420e-01
C     3.903895929000000e+00   4.543056027111202e+00  -3.475166999999999e-01 -2.47977777e+00  -8.06892130e-01   1.05241890e+00
C     5.098113246500000e+00   5.237201496551825e+00  -3.858665999999999e-01  1.63775935e+00   1.26898551e+00  -5.65475420e-01
C     1.339099615200000e+01   8.289756251748171e+00   3.776098500000000e+00 -8.89961200e-02  -1.73640690e-01  -1.91197900e-02
C     9.697268637299999e+00   4.463341631797048e-01   3.834535199999999e+00 -3.99993910e-01   4.43763930e-01  -2.55163030e-01
C     6.350626236400000e+00   4.569654703195983e+00  -5.689635000000024e-01 -7.05871520e-01  -1.18518824e+00   4.48352460e-01
C     7.586265512500000e+00   5.279419389046203e+00  -5.265435000000025e-01 -1.81514780e-01  -1.47509639e+00  -6.81237500e-02
C     5.986745993000000e+00   8.294295248158919e+00   3.804169200000000e+00 -1.61784160e-01  -2.19489424e+00  -1.02391710e-01
C     2.273402747800000e+00   4.258295227041856e-01   3.838504200000000e+00  6.46660820e-01   1.55112825e+00   3.06513300e-01
C     8.828064478500000e+00   4.541122880528635e+00  -4.325663999999989e-01 -1.88288973e+00   5.15219380e-01  -1.24786320e-01
C     1.000914004290000e+01   5.222408685576482e+00  -2.661113999999998e-01  2.07302667e+00   1.86816402e+00   3.01243470e-01
C     8.417835776800001e+00   8.255812148068285e+00   3.795116700000000e+00  1.35671985e+00  -4.04530600e-02  -6.02207910e-01
C     4.732858075400000e+00   4.368007849293088e-01   3.762878400000000e+00  7.34444700e-01  -8.83773080e-01   3.92356140e-01
C     1.125588813730000e+01   4.532974273607780e+00  -1.481423999999976e-01  7.77194520e-01  -3.90639460e-01  -4.32232430e-01
C     1.249704147050000e+01   5.252205904206861e+00  -1.308423000000012e-01  4.25743600e-01  -5.23700800e-02  -3.67335790e-01
C     1.091313215510000e+01   8.267502821926348e+00   3.737762400000000e+00  6.24610000e-01   2.80110780e-01   7.53895000e-03
C     7.262579854899999e+00   4.663677064470424e-01   3.704943000000000e+00 -2.85951837e+00  -5.35994020e-01   1.41126610e-01
