52
Lattice="8.88768389401873 1.33226762955019e-15 0 4.44384194700937 7.69696003302603 0 0 0 30 " PBC="1 1 1" Properties=species:S:1:pos:R:3:force:R:3 Energy="-416.628906"
C     1.223500455070264e+01   6.272143431614573e+00  -2.862518999999999e-01 -1.31768177e+00   9.25828460e-01  -3.81823760e-01
C     8.399287755498122e+00   6.060064088883964e+00  -5.397737999999990e-01  1.72715587e+00   4.59369050e-01   1.88563707e+00
C     9.820931585483095e+00   5.676046512401601e+00  -3.586248000000012e-01 -3.60690260e-01   1.65432042e+00  -1.98755147e+00
C     1.017567233301378e+01   4.297707776248529e+00  -3.671511000000010e-01 -1.67437343e+00  -7.27625700e-02   7.83808120e-01
C     6.070111857654569e+00   5.474242688280642e+00  -2.353346999999992e-01 -2.32308685e+00  -9.73060120e-01   7.98864700e-02
C     7.364917951015271e+00   5.017906014748404e+00  -3.231506999999993e-01  2.49343791e+00   4.26644323e+00  -1.29577980e+00
C     7.746267624264704e+00   3.706738033020340e+00  -3.475569000000007e-01  2.30450040e-01  -1.56350635e+00   1.51848383e+00
C     9.101119087796846e+00   3.338026939132036e+00  -2.427966000000019e-01  1.62680551e+00  -2.46998281e+00  -1.70047948e+00
C     9.472433054916511e+00   1.854908254576970e+00  -3.270074999999970e-01 -1.38927392e+00   4.67381920e+00   1.18899229e+00
C     3.671031037581275e+00   4.900967332526220e+00  -2.446826999999985e-01 -1.10533036e+00  -1.17919718e+00  -1.18274280e-01
C     5.012622565554306e+00   4.504786019199646e+00  -1.205961000000002e-01  7.40019180e-01   2.48625980e-01  -6.43363680e-01
C     5.369308560465356e+00   3.137770434885908e+00  -1.680413999999999e-01 -1.91274187e+00  -9.61644900e-02  -4.37196080e-01
C     6.701993251596940e+00   2.752880484953744e+00  -2.336832000000015e-01  1.06253540e+00  -2.02008164e+00  -2.86114250e-01
C     7.021693860990020e+00   1.348234463053336e+00  -2.801378999999997e-01  1.43003621e+00   7.91389010e-01   2.13699500e-01
C     8.422900150782777e+00   9.361630836232291e-01  -2.563791000000002e-01 -8.34134390e-01  -2.81207080e-01  -5.56430270e-01
C     2.624459909607429e+00   3.892881314385860e+00  -3.547356000000015e-01  1.34583926e+00  -4.03301620e-01   1.26098872e+00
C     2.962031562687199e+00   2.472246936202335e+00  -2.376885000000009e-01 -2.30386840e-01   2.88695396e+00  -1.19707175e+00
C     4.313966843854981e+00   2.157732831821272e+00  -3.037145999999993e-01  1.77501788e+00  -9.28367610e-01   1.35936247e+00
C     4.695964073706002e+00   7.747699160213762e-01  -3.160565999999996e-01 -2.75307942e+00   1.09453420e-01  -1.32762291e+00
C     6.001014467061609e+00   3.737511402855484e-01  -3.548547000000006e-01  3.19119136e+00  -4.39004010e-01   6.22609600e-02
C     1.088777885331421e+01   6.719115906604713e+00  -4.531448999999981e-01 -2.54351342e+00  -2.45186517e+00   1.49262274e+00
C     1.939143934837295e+00   1.525190345048647e+00  -3.133464000000004e-01 -8.57585060e-01  -1.73314314e+00  -4.89089750e-01
C     2.213748125114174e+00   1.368541044822084e-01  -4.614077999999999e-01  4.02050115e+00   5.12780240e-01   5.32052200e-01
C     8.114774019914385e+00   7.507506901882379e+00  -5.184171000000006e-01 -2.33979894e+00  -2.57671828e+00   6.68751900e-01
C     4.337755044174084e+00   7.266332126603166e+00  -2.475167999999996e-01  5.46515520e-01  -1.04737948e+00  -2.93514590e-01
C     5.702620527725830e+00   6.820994562892999e+00  -3.398070000000004e-01 -5.37002100e-01   1.69396944e+00   2.61058640e-01
C     1.121587801849762e+00   1.390922496106119e+00   3.823677000000000e+00  5.99901870e-01   3.39046900e+00   4.24885700e-01
C     3.555087510178072e+00   7.918084455309864e-01   3.846705300000000e+00 -1.71096802e+00   1.45099313e+00   7.45932570e-01
C     4.886714834058033e+00   1.177801369835449e+00   3.708835200000000e+00 -1.82784130e-01   3.38566470e+00   3.87938600e-01
C     5.909525493363684e+00   2.748689875065411e-01   3.618359700000000e+00  1.68463338e+00  -2.18830948e+00  -4.48086370e-01
C     7.279838105574972e+00   6.278912907960958e-01   3.577298100000000e+00  9.17109280e-01   6.37967350e-01   3.54105780e-01
C     1.275146137422798e+01   7.329211594902648e+00   3.663462900000000e+00 -2.82173230e-01   1.00195535e+00   2.80961230e-01
C     7.964000235247454e-01   6.301023965039140e-02   3.877150500000000e+00 -7.21332450e-01  -3.38419631e+00  -1.17906927e+00
C     6.288943922378489e+00   6.716461917816768e+00   3.857721600000000e+00 -8.02921760e-01   2.86011688e+00   9.61570800e-02
C     7.644787740773095e+00   7.144731703569211e+00   3.924058800000000e+00 -1.98182590e-01  -1.75530829e+00  -1.13222944e+00
C     8.635429161541568e+00   6.138959776461872e+00   3.730011000000000e+00  2.78016635e+00   1.95627909e+00   3.59234700e-02
C     1.007997668676788e+01   6.588608022636840e+00   3.592287600000000e+00 -4.36438582e+00  -4.70727070e-01   3.06852650e-01
C     1.102961513342647e+01   5.597107029121124e+00   3.530129400000000e+00 -3.00663160e-01  -2.19105203e+00   1.22517870e+00
C     3.462858018083475e+00   5.965410107158236e+00   3.636276300000000e+00  3.97279591e+00   4.08873960e-01  -6.68985960e-01
C     4.563344412697278e+00   5.025994673074331e+00   3.620162700000000e+00 -9.99594070e-01  -1.48214722e+00   9.86679070e-01
C     5.943980203069128e+00   5.389897014214292e+00   3.655415100000000e+00 -6.21473010e-01  -1.00918069e+00   1.13709320e+00
C     6.957593575949604e+00   4.384031107224986e+00   3.753719100000000e+00  4.44477000e-01  -2.01185410e-01  -1.04682246e+00
C     8.338403431635152e+00   4.785976981796428e+00   3.704502300000000e+00 -1.54672175e+00  -2.64883930e-01  -1.55335750e-01
C     9.352509404411689e+00   3.805445849654668e+00   3.626747100000000e+00 -8.04691270e-01  -8.24028000e-02   8.57221000e-01
C     1.067207960745096e+01   4.193481085333491e+00   3.707331600000000e+00  2.82969601e+00   7.40365200e-02  -1.31065375e+00
C     2.853782372989537e+00   3.183620071240613e+00   3.749579700000000e+00 -8.60871980e-01   1.08900326e+00   1.11010244e+00
C     4.230430126338005e+00   3.629601331718089e+00   3.793772100000000e+00 -2.74927640e-01  -8.55980600e-01  -1.37063457e+00
C     5.225019945093454e+00   2.593693266096489e+00   3.739161600000000e+00  1.11565508e+00   4.86613430e-01  -1.71223540e-01
C     6.642676627282258e+00   2.998069224888603e+00   3.676110600000000e+00 -2.52365915e+00  -1.30374900e-02   1.22151450e-01
C     7.631155585691468e+00   2.004629367141329e+00   3.600739200000000e+00  1.12720288e+00   7.06345630e-01   4.75812610e-01
C     8.996097370595525e+00   2.461554473267860e+00   3.691563000000000e+00  1.58930170e-01  -3.44955472e+00  -2.49998170e-01
C     2.504136488455190e+00   1.800904843614484e+00   3.927081000000000e+00  5.84986130e-01  -8.18538200e-02  -1.39672365e+00
