64
Lattice="9.86 0 0 4.93 8.53901048131456 0 0 0 30 " PBC="1 1 1" Properties=species:S:1:pos:R:3:force:R:3 Energy="-513.57413183"
C     4.930300483499999e+00   8.352554952691548e+00  -6.079604999999972e-01  1.26926518e+00   1.05974018e+00  -4.89333700e-02
C     1.268482738900000e+00   5.149738034617176e-01  -5.655617999999976e-01 -1.15955985e+00   1.58547017e+00  -6.55000620e-01
C     9.825805667899999e+00   2.047419890315800e-01   3.789282300000000e+00  1.54777756e+00  -1.01094699e+00   7.81870900e-01
C     1.220593704900000e+00   8.973623058103705e-01   3.895852500000000e+00 -1.98819304e+00   9.45487110e-01  -2.60355870e-01
C     7.431523116199999e+00   8.382650438957995e+00  -5.932286999999974e-01 -1.59829152e+00  -2.72925287e+00  -4.21569950e-01
C     3.701043979800000e+00   5.100706182539968e-01  -5.623421999999998e-01  7.22176040e-01   1.65931915e+00   1.20642849e+00
C     2.422227467900000e+00   2.133867124613224e-01   3.781815900000000e+00  1.06334868e+00  -7.54836340e-01   9.16712200e-02
C     3.687969669099999e+00   8.756031993052344e-01   3.832955100000000e+00  1.48229720e-01  -6.95868860e-01  -6.27797990e-01
C     9.828003412600001e+00   8.346394825141173e+00  -4.330464000000021e-01  2.86259363e+00  -1.88480820e-01  -5.14550890e-01
C     6.170909051700000e+00   5.206834982092744e-01  -4.653200999999996e-01 -6.24362430e-01   4.99457240e-01  -2.49379990e-01
C     4.907996374700000e+00   1.486941443835848e-01   3.708132900000000e+00  7.77452530e-01   8.58274360e-01   9.22218340e-01
C     6.131444746800000e+00   9.122245389409153e-01   3.781745100000000e+00  7.56096230e-01  -9.14925840e-01  -4.72065800e-02
C     1.234252092420000e+01   8.349052335982758e+00  -4.571085000000004e-01 -1.41815556e+00  -6.73819400e-01   2.90038030e-01
C     8.614004864500000e+00   5.234204218483239e-01  -6.219719999999995e-01  1.23114199e+00  -8.99438200e-02   9.36263980e-01
C     7.406729702499999e+00   1.691223607153080e-01   3.831332100000000e+00 -1.92801923e+00   2.41180598e+00   7.94015890e-01
C     8.632675908400001e+00   9.308189173819537e-01   3.963794100000000e+00 -1.12963658e+00  -3.06100078e+00  -1.37183051e+00
C     1.261558455300000e+00   1.966758604129519e+00  -5.029694999999990e-01  1.21647431e+00  -1.05309941e+00   1.89557616e+00
C     2.526319340000000e+00   2.671679792455274e+00  -1.831823999999997e-01 -2.16794448e+00  -1.54772625e+00  -1.79039968e+00
C     1.104219891420000e+01   2.332378283087653e+00   4.050379800000000e+00  9.98668580e-01  -5.67019900e-01  -1.26635910e-01
C     2.445492335100000e+00   2.984815980519973e+00   4.100162100000000e+00  6.49652640e-01   1.34799346e+00  -9.34974170e-01
C     3.719916069100000e+00   1.928805947369902e+00  -3.625230000000030e-01  5.81747970e-01   1.10478763e+00  -3.72058640e-01
C     4.941334365800000e+00   2.681097125553246e+00  -4.618175999999998e-01  2.06470380e-01  -6.06721100e-01   7.19831610e-01
C     3.728896902200000e+00   2.269693577934182e+00   3.905325900000000e+00 -3.11364927e+00   1.52520654e+00   3.03203410e-01
C     4.873161537000000e+00   3.036619510008885e+00   3.737261100000000e+00  1.93291370e+00   9.54929100e-02   8.83046750e-01
C     6.159166186099999e+00   1.956820220612057e+00  -5.730998999999990e-01  2.01782568e+00   4.75658900e-02   1.26376320e-01
C     7.465574133200000e+00   2.679799879081125e+00  -6.281388000000021e-01 -2.94341652e+00  -2.04921740e-01   6.41067340e-01
C     6.119757343700000e+00   2.347104404391146e+00   3.800277000000000e+00  8.29492870e-01  -8.55326040e-01  -8.66128560e-01
C     7.397923884400000e+00   3.027844310499008e+00   3.800683500000000e+00 -1.66926136e+00  -2.14335360e-01   5.31368380e-01
C     8.674608565700000e+00   1.956228637966003e+00  -5.611175999999993e-01 -1.36389350e+00  -7.56644920e-01  -7.21781410e-01
C     9.886538140700001e+00   2.631730971215746e+00  -4.481198999999982e-01  1.09996761e+00   1.52538258e+00   2.31213000e-01
C     8.598290834600000e+00   2.296931484343496e+00   3.948888000000000e+00  6.26055290e-01   3.04308865e+00  -1.62999550e-01
C     9.819008381099998e+00   3.068418016525461e+00   4.002082800000000e+00  2.62336850e-01  -1.52783291e+00   4.61013430e-01
C     2.470284565600000e+00   4.066276790576000e+00  -8.890019999999765e-02  3.05234180e-01   1.82506571e+00  -1.75080180e-01
C     3.715604291100000e+00   4.806692766884808e+00  -2.290251000000012e-01  2.61770000e-02   6.79614230e-01   1.19176899e+00
C     1.230890586710000e+01   4.447624131376826e+00   4.059168900000000e+00  1.34247086e+00  -1.15157789e+00   7.24979700e-02
C     3.731260590700000e+00   5.153657696597810e+00   3.964552500000000e+00 -3.35367885e+00   1.79229162e+00  -7.14053920e-01
C     4.962585574500000e+00   4.111341503774304e+00  -3.467048999999989e-01 -1.79278124e+00  -1.04304308e+00  -8.47191870e-01
C     6.152954928400000e+00   4.799669516155113e+00  -5.632301999999996e-01  1.09295753e+00   2.14325050e-01  -1.26323000e-03
C     4.907586100100000e+00   4.471406983365723e+00   3.757132200000000e+00 -4.06077910e-01  -1.99868663e+00   1.28332030e-01
C     6.122819958300000e+00   5.122300059192316e+00   3.649608000000000e+00  1.62286514e+00   1.70329871e+00   4.58298320e-01
C     7.382879594999999e+00   4.114909700083582e+00  -6.076128000000018e-01  1.90035258e+00  -1.31113125e+00  -3.25840100e-02
C     8.643325201400000e+00   4.799101330397774e+00  -5.326914000000009e-01  4.04722720e-01  -5.49920790e-01   8.50039190e-01
C     7.369398411400000e+00   4.445261131006696e+00   3.744114000000000e+00  8.85674770e-01  -2.37314400e-01  -3.43264850e-01
C     8.607821412000000e+00   5.166304739629633e+00   3.785500800000000e+00 -5.86683760e-01   9.45945980e-01  -6.72860000e-03
C     9.886789472099998e+00   4.066457219867442e+00  -2.725970999999987e-01 -2.31661018e+00   1.34831250e-01  -1.14664819e+00
C     1.104592116280000e+01   4.799733558733713e+00  -9.585750000000104e-02  3.41698877e+00  -4.04371360e-01  -2.77651650e-01
C     9.842286657899999e+00   4.474548656101524e+00   4.000376400000000e+00 -5.63864450e-01   1.36135500e-02  -8.91165150e-01
C     1.108702829160000e+01   5.156626966712021e+00   3.986412300000000e+00  8.69111300e-02   3.90884740e-01   3.02593900e-02
C     3.740887155199999e+00   6.262823155375987e+00  -1.878132000000008e-01  1.90442770e-01  -1.49618768e+00  -1.82390663e+00
C     4.987986265600000e+00   6.962268020110603e+00  -5.534865000000018e-01 -1.77788965e+00  -1.92688090e+00   1.09075254e+00
C     1.351917482090000e+01   6.610278992801485e+00   3.859671900000000e+00  3.51739630e-01  -1.43947923e+00   3.61045550e-01
C     4.893918809000000e+00   7.285213396464203e+00   3.703729200000000e+00  8.32747200e-02   9.64158510e-01   6.43007900e-01
C     6.205831150400000e+00   6.197176096706795e+00  -6.658475999999993e-01 -6.59963010e-01   1.91244461e+00   6.03565890e-01
C     7.430509015199999e+00   6.925688607016379e+00  -6.767645999999985e-01  8.33153890e-01   2.17614990e-01   4.63872490e-01
C     6.137513083799999e+00   6.549533582318126e+00   3.680001900000000e+00 -2.67982240e-01   1.58139898e+00  -6.13407880e-01
C     7.352319264499999e+00   7.342841385001523e+00   3.649540200000000e+00  3.07797580e-01  -2.00039341e+00   2.11813720e-01
C     8.684410736800000e+00   6.207721774649595e+00  -5.344167000000013e-01 -4.91680530e-01   7.27553910e-01  -1.58341530e-01
C     9.917616663500000e+00   6.932486086308983e+00  -3.857949000000005e-01 -1.13008798e+00  -9.25056700e-02   8.24099900e-02
C     8.599663740999999e+00   6.608967315401651e+00   3.658261200000000e+00 -8.69177400e-02  -8.71968270e-01   8.35116720e-01
C     9.861679157999999e+00   7.262741453364197e+00   3.772264800000000e+00 -1.30538450e+00   1.05033566e+00  -9.46124800e-01
C     1.116124106060000e+01   6.237819566448871e+00  -1.861160999999996e-01 -5.06679248e+00  -2.46861328e+00   4.76905600e-02
C     1.230873617650000e+01   6.889433420150081e+00  -2.169065999999980e-01  5.15286442e+00   3.99757877e+00  -5.05610020e-01
C     1.107866720880000e+01   6.579092220995695e+00   3.846828300000000e+00 -4.38945790e-01  -6.29224270e-01   7.23402900e-01
C     1.226041635910000e+01   7.318508620737714e+00   3.924142200000000e+00  2.50133262e+00  -7.86805590e-01  -9.58842350e-01
