52
Lattice="8.88768389401873 1.33226762955019e-15 0 4.44384194700937 7.69696003302603 0 0 0 30 " PBC="1 1 1" Properties=species:S:1:pos:R:3:force:R:3 Energy="-419.13476912"
C     1.299054015970138e+01   7.260809018994439e+00  -7.638000000000034e-03 -4.79220200e-02   2.51887615e+00   3.55689990e-01
C     9.218662975761475e+00   7.080457777021095e+00   3.767130000000000e-02  3.55286740e-01  -1.08153518e+00  -2.72370020e-01
C     1.060272030174064e+01   6.677376754784428e+00   1.671588000000000e-01 -3.98661960e-01  -7.73125000e-03  -5.39897460e-01
C     1.096132732506321e+01   5.275129028659768e+00   1.415247000000000e-01 -1.23042548e+00   8.43889920e-01  -4.36439910e-01
C     6.832311763121647e+00   6.491659115308567e+00  -1.027559999999994e-01  5.45058680e-01  -1.37766202e+00  -4.79444100e-02
C     8.181916560171736e+00   6.044024778725449e+00  -1.808940000000092e-02  8.26308210e-01   3.11877086e+00   3.54413590e-01
C     8.531552222104388e+00   4.709370293161842e+00   9.766770000000000e-02  4.56650730e-01  -7.29862160e-01  -7.51960150e-01
C     9.899692150628544e+00   4.318278055867905e+00   4.934490000000000e-02  9.20173110e-01  -1.18732679e+00   2.92997240e-01
C     1.024937251755546e+01   2.897879127691697e+00  -7.417290000000065e-02  3.06974150e-01   2.61840050e+00   5.10433450e-01
C     4.464574426813264e+00   5.925708340657893e+00   3.213690000000000e-02 -9.73734860e-01  -2.32119749e+00  -1.08436130e-01
C     5.817044746486849e+00   5.512097107404185e+00  -1.049850000000063e-02 -4.38636060e-01  -2.47416640e-01  -2.10349820e-01
C     6.126074891482343e+00   4.113468414916030e+00   3.081930000000000e-02  1.21060784e+00   1.33527590e+00   3.04630650e-01
C     7.505852575494726e+00   3.738635774776666e+00   5.759280000000000e-02 -2.62172260e-01  -1.00478765e+00   2.33560540e-01
C     7.844050365929776e+00   2.356840256904521e+00   8.295990000000000e-02  3.13077450e-01  -1.85028130e-01  -6.72486430e-01
C     9.229824659121409e+00   1.954032245840119e+00  -6.049709999999919e-02 -9.35694130e-01  -1.00430877e+00   3.14238770e-01
C     3.428626525180580e+00   4.886131980855596e+00   7.594260000000000e-02  3.34041090e-01   1.41180545e+00  -2.47971700e-02
C     3.749892833435098e+00   3.526059131458519e+00   8.988300000000001e-03  6.06576020e-01  -4.02382170e-01   1.69001900e-01
C     5.124824285613500e+00   3.149902691163595e+00   6.519360000000000e-02 -7.89985010e-01  -8.37413420e-01  -6.20106360e-01
C     5.476122344351183e+00   1.771880223098156e+00   4.013040000000000e-02 -1.80127229e+00  -1.67028480e-01  -2.26150200e-01
C     6.792168891292176e+00   1.382777649971973e+00   8.369250000000000e-02  2.74313441e+00  -1.01312081e+00   9.97267100e-02
C     1.160899107144362e+01   7.682949022748589e+00   1.159128000000000e-01  3.41363760e-01  -2.37457610e-01  -3.84966790e-01
C     2.738357221997404e+00   2.535299278224091e+00  -7.523820000000114e-02 -4.49305510e-01  -6.36556670e-01  -3.21242480e-01
C     3.072526669705207e+00   1.147184402228115e+00  -1.645797000000009e-01  1.28307750e+00   4.56357010e-01   3.01110700e-02
C     4.461885854645867e+00   7.652789485475838e-01  -9.038190000000057e-02 -8.30981080e-01  -2.39809700e-02   6.91000360e-01
C     7.090259145516495e-01   5.783725135950893e-01  -1.056126000000006e-01 -1.22350784e+00  -1.07494891e+00  -2.23204930e-01
C     2.071524918964561e+00   1.517193973273480e-01  -2.192574000000000e-01 -9.03412330e-01   1.21226223e+00   8.06988410e-01
C     3.269317190416564e-01   3.792522345885897e-01   3.368755800000000e+00  6.00871340e-01   2.51696889e+00  -6.67525460e-01
C     7.178914504461720e+00   7.519794174935071e+00   3.493349100000000e+00 -1.57898440e-01  -6.65402400e-02  -5.30070860e-01
C     4.100259106133193e+00   2.075391369177134e-01   3.504565200000000e+00  1.64343250e-01   4.78977890e-01  -1.23554250e-01
C     9.594518239157615e+00   6.948345769613369e+00   3.532102500000000e+00 -6.71147200e-01  -5.15295930e-01  -6.91142900e-01
C     1.093227295451474e+01   7.351739442366453e+00   3.381563700000000e+00  1.27572987e+00  -5.27699490e-01   4.60382700e-02
C     1.195930206403104e+01   6.339663397116142e+00   3.309396300000000e+00 -7.16521080e-01   2.84771760e-01   2.60764440e-01
C     4.446381338413742e+00   6.731285108290543e+00   3.262309500000000e+00 -4.27581870e-01  -1.07573864e+00   5.15054830e-01
C     5.484564135723939e+00   5.748923792992851e+00   3.292152000000000e+00 -3.31306180e-01  -9.45729600e-02   7.66431700e-02
C     6.843332357603539e+00   6.143064334337070e+00   3.445463100000000e+00 -5.55976610e-01   2.37420530e-01  -4.30809390e-01
C     7.858436595041145e+00   5.172608061056978e+00   3.447253800000000e+00  1.27325942e+00  -4.55960800e-02   4.62935720e-01
C     9.247723034794731e+00   5.568966481433841e+00   3.500085600000000e+00 -9.89986710e-01  -2.80905480e-01   4.84777840e-01
C     1.023602788346408e+01   4.556354881704643e+00   3.531978600000000e+00  2.60748540e-01   5.30961700e-01  -9.61760620e-01
C     1.158173112115882e+01   4.966326068620964e+00   3.381747600000000e+00  1.81473067e+00  -3.01074340e-01   1.41613170e-01
C     3.758422077332481e+00   3.985824415836119e+00   3.315984000000000e+00 -4.10054870e-01  -3.68500130e-01   1.55874090e-01
C     5.136506613618001e+00   4.369298817849166e+00   3.237495000000000e+00 -1.87660240e-01   7.79035200e-02   6.89765560e-01
C     6.174147617718868e+00   3.387867911079899e+00   3.315741300000000e+00 -2.99869270e-01  -4.26585400e-02  -3.41380300e-02
C     7.538703143851044e+00   3.798577698280698e+00   3.425739000000000e+00 -6.50942050e-01  -6.90694950e-01  -5.08640750e-01
C     8.546658794917436e+00   2.787498486323873e+00   3.422218800000000e+00  1.45826040e-01   7.06471300e-01  -8.95533400e-02
C     9.898578256472696e+00   3.188498096629226e+00   3.452455800000000e+00  9.69576050e-01  -9.80464950e-01   7.58380750e-01
C     2.058740920214002e+00   2.181249584709731e+00   3.495476700000000e+00 -9.27304430e-01   5.76802450e-01  -1.09120007e+00
C     3.420745636631610e+00   2.592391710155417e+00   3.412753500000000e+00  3.79479870e-01  -3.74271200e-01  -6.60245500e-02
C     4.440355929768754e+00   1.571608709779969e+00   3.383689800000000e+00  8.87651150e-01   1.66224545e+00   1.56789710e-01
C     5.845486088106098e+00   1.999385967060092e+00   3.307616700000000e+00 -1.84483423e+00   2.28718960e-01   2.90137890e-01
C     6.852161646088909e+00   1.030016273627435e+00   3.303708300000000e+00  4.02030100e-02  -4.11321340e-01   4.70414630e-01
C     8.210350435420711e+00   1.429408373830523e+00   3.340996200000000e+00  2.36881190e-01  -1.70963093e+00   1.49463030e-01
C     1.702797667258921e+00   7.978039155767546e-01   3.377387100000000e+00  1.21687260e-01   1.63542290e-01   1.23480285e+00
