64
Lattice="9.86 0 0 4.93 8.53901048131456 0 0 0 30 " PBC="1 1 1" Properties=species:S:1:pos:R:3:force:R:3 Energy="-515.75385825"
C     4.980788071200000e+00   8.442464158007880e+00  -3.568770000000043e-02 -1.52696977e+00  -7.55428500e-01  -7.50078100e-02
C     1.273223476200000e+00   6.029987907255312e-01  -1.414559999999909e-02 -2.77505940e-01  -2.90807660e-01  -6.08824190e-01
C     1.195778895000000e+00   8.339043932579360e-01   3.594494700000000e+00 -9.51587380e-01   2.53776390e-01  -3.57858310e-01
C     2.409783063300000e+00   1.538103181297082e+00   3.491190000000000e+00  1.26460963e+00  -8.57326590e-01   1.26715010e-01
C     7.417369184800000e+00   8.433800477974872e+00  -1.788000000001233e-03  1.81679719e+00   2.95362520e-01  -7.23572800e-02
C     3.753377063699999e+00   6.273082434907289e-01  -8.937869999999748e-02 -1.62415814e+00  -7.09222620e-01  -2.36324130e-01
C     3.644184909399999e+00   7.945159872762111e-01   3.595442700000000e+00  8.93099800e-01   5.50488980e-01   1.49657980e-01
C     4.903536302300000e+00   1.496421880221268e+00   3.625593300000000e+00 -2.66995180e-01   4.60279780e-01  -3.37459790e-01
C     9.892766258999998e+00   8.417024054865026e+00  -1.617648000000003e-01  2.38382700e-02   1.44461399e+00   8.02363600e-02
C     6.188380873100000e+00   6.103683837202951e-01  -1.388162999999984e-01 -1.47944700e-02   1.61267390e-01  -1.62729470e-01
C     6.170485367500000e+00   8.186898405549864e-01   3.701506800000000e+00 -2.18917591e+00  -1.46086200e-02  -1.89475180e-01
C     7.374958268199999e+00   1.537149629996781e+00   3.654904800000000e+00  5.05462520e-01  -9.84658660e-01  -1.94664600e-02
C     1.235307802620000e+01   8.474380246698766e+00  -1.804139999999990e-01  6.91624100e-01  -1.17899862e+00   9.52079100e-02
C     8.671210464599998e+00   6.289356934981120e-01  -3.654660000000121e-02 -3.95801270e-01  -1.92907820e-01  -3.07478270e-01
C     8.591565377900000e+00   7.865151906267656e-01   3.599187900000000e+00  1.10720129e+00   7.62613270e-01   3.52850080e-01
C     9.815328284000000e+00   1.537558819378982e+00   3.561247800000000e+00  4.21338100e-02   2.50617700e-01  -3.79529180e-01
C     1.243988526900000e+00   1.993001715817913e+00  -2.451630000000016e-01  6.43748760e-01   1.51937337e+00   1.03206190e+00
C     2.463127931100000e+00   2.740172305586716e+00  -3.380583000000001e-01  1.08558269e+00  -1.08301350e-01  -3.53515230e-01
C     2.438796507700000e+00   2.942910786589374e+00   3.339641100000000e+00  3.17113890e-01   2.55598460e-01   3.22393340e-01
C     3.675353108900000e+00   3.648175840867157e+00   3.390401700000000e+00 -1.36043990e-01  -1.33310320e-01   1.22792960e-01
C     3.705874886800000e+00   2.051877253786360e+00  -2.265270000000008e-01  9.60857670e-01  -7.28208390e-01   1.70780030e-01
C     4.962403756100000e+00   2.749365233489274e+00  -2.055888000000010e-01 -8.48041160e-01  -3.97138500e-02  -9.11143000e-03
C     4.898663145200000e+00   2.920637717043446e+00   3.517747500000000e+00 -9.68555900e-02   2.61524430e-01   1.62154320e-01
C     6.118736636500000e+00   3.647038957011850e+00   3.603215100000000e+00  6.62091490e-01  -1.32618530e-01   4.39198020e-01
C     6.192026903900000e+00   2.029856085049593e+00  -1.012035000000004e-01 -7.81630590e-01   3.90425760e-01   3.28475500e-02
C     7.405581456200000e+00   2.751999091271831e+00  -4.861199999999855e-02  8.41711680e-01  -1.20539890e-01   2.94040720e-01
C     7.364902843000000e+00   2.943304861923026e+00   3.668037600000000e+00  1.69522830e-01   7.70053560e-01  -5.85043710e-01
C     8.601003221999999e+00   3.678538939722046e+00   3.585742800000000e+00 -2.45350800e-01  -1.57964889e+00   3.82562530e-01
C     8.636739806000000e+00   2.050298049188189e+00  -9.402000000022781e-04  1.25763850e+00  -2.30879990e-01  -5.23683670e-01
C     9.907816365799999e+00   2.736911684434928e+00  -1.419059999999988e-01 -1.65650120e+00  -8.17117400e-02  -4.33529400e-01
C     9.830079189099999e+00   2.982280919088671e+00   3.463944300000000e+00  3.59626210e-01  -1.19469190e+00   1.50991160e-01
C     1.109003278150000e+01   3.669883030188575e+00   3.340628700000000e+00 -1.43542617e+00   2.15620140e-01   6.99573890e-01
C     2.524221575700000e+00   4.157963988654476e+00  -5.249462999999999e-01 -1.31398151e+00   4.15958330e-01   6.85451130e-01
C     3.760243370500000e+00   4.910558557880175e+00  -4.770570000000021e-01 -1.18785268e+00  -1.50549283e+00   9.11239840e-01
C     3.669818543000000e+00   5.074732732802532e+00   3.438867300000000e+00 -5.33731960e-01   5.42002900e-02  -6.46477100e-02
C     4.892816115900000e+00   5.756631553412740e+00   3.577729200000000e+00  8.40390290e-01   8.80223960e-01   2.92152700e-02
C     4.944845955500000e+00   4.168185013418826e+00  -2.435676000000022e-01  1.50657818e+00   5.60412790e-01   9.64632600e-02
C     6.197352092699999e+00   4.874442471494596e+00  -3.157679999999985e-02 -4.82806310e-01  -1.66378530e-01  -6.48214430e-01
C     6.122939954500000e+00   5.074742552664585e+00   3.668911500000000e+00  6.64930880e-01  -6.42452420e-01  -3.74943800e-01
C     7.367210181600000e+00   5.786049554587702e+00   3.733237800000000e+00 -7.35056960e-01   7.32895580e-01   1.99206800e-01
C     7.445899193400000e+00   4.170385772589837e+00  -2.775989999999950e-02 -1.34067535e+00   1.49062250e-01  -1.34158350e-01
C     8.653035427999999e+00   4.884737529479809e+00  -1.422851999999999e-01  1.07788960e+00  -4.81155800e-01   1.44119690e-01
C     8.607366175799999e+00   5.055276255863434e+00   3.707938200000000e+00 -1.13025208e+00   2.08184309e+00  -8.35516760e-01
C     9.802931306000000e+00   5.789697761425178e+00   3.591834300000000e+00  1.77826428e+00  -1.77501150e-01   2.24344980e-01
C     9.884939538899999e+00   4.152939805668254e+00  -2.881296000000013e-01  4.45269720e-01   2.50174760e-01   3.19098890e-01
C     1.111791459370000e+01   4.854445133631693e+00  -4.551872999999986e-01  5.31325090e-01   1.13864915e+00  -2.34933570e-01
C     1.106335107920000e+01   5.091565001040918e+00   3.453111000000000e+00  1.05238210e-01   4.37324350e-01  -3.43179630e-01
C     1.230145550320000e+01   5.821651421762176e+00   3.444176700000000e+00 -5.80691870e-01  -3.47190650e-01   1.30306650e-01
C     3.719278817299999e+00   6.315398440632080e+00  -3.301836000000016e-01 -3.80521660e-01   2.70167370e-01  -4.29440300e-01
C     4.921183040100000e+00   6.998845981573045e+00  -1.412775000000011e-01  2.26369688e+00   1.10629857e+00   7.52404340e-01
C     4.934964707200000e+00   7.175080654897355e+00   3.613575900000000e+00 -1.28468590e+00   1.01347552e+00   8.23775600e-02
C     6.113723911100000e+00   7.963263001930237e+00   3.669095400000000e+00  8.27899440e-01  -1.34440921e+00   1.01351590e-01
C     6.181370511699999e+00   6.287648705934596e+00  -1.137210000000266e-02  2.39098200e-01   6.87159610e-01  -1.90600150e-01
C     7.445987144599999e+00   7.015431387018454e+00   3.522240000000000e-02 -8.81609930e-01  -4.85253380e-01  -3.74622300e-01
C     7.339194273400000e+00   7.249971021630937e+00   3.742151700000000e+00  1.04874799e+00  -1.79183499e+00  -3.98500020e-01
C     8.604133771999999e+00   7.909686432305257e+00   3.696026700000000e+00 -1.28977678e+00   9.83239600e-01  -2.40380800e-02
C     8.686619820499999e+00   6.300327941035929e+00  -1.075476000000002e-01 -1.45061858e+00   1.46930520e-01  -7.33476000e-03
C     9.886445949700001e+00   7.015021429125309e+00  -2.610078000000016e-01  6.40502440e-01  -4.54006340e-01   1.81642380e-01
C     9.824464264200000e+00   7.209791049377717e+00   3.662389500000000e+00  2.73412450e-01   7.20165300e-02   1.98533640e-01
C     1.105475754690000e+01   7.945001815678127e+00   3.690438300000000e+00  5.80006420e-01  -4.73669320e-01  -7.22035390e-01
C     1.111435789450000e+01   6.313345662512689e+00  -4.389830999999980e-01  4.85131760e-01  -4.65822390e-01   4.58302580e-01
C     1.235366375950000e+01   7.048057494430752e+00  -3.643862999999996e-01 -5.16569150e-01  -4.35121670e-01   1.63857240e-01
C     1.228740825700000e+01   7.258157883318742e+00   3.549186900000000e+00  7.65943070e-01  -1.90089805e+00   4.50986510e-01
C     1.356516506540000e+01   7.888257273165070e+00   3.604987800000000e+00 -1.19133207e+00   1.42618344e+00  -3.22283320e-01
