76
Lattice="10.7446858958278 0 0 5.37234294791388 9.3051709414712 0 0 0 30 " PBC="1 1 1" Properties=species:S:1:pos:R:3:force:R:3 Energy="-613.00947141"
C     1.073411162481837e+01   6.220692876808800e-03   4.835400000000000e-02  2.45037900e-02   1.32668933e+00   3.39893640e-01
C     1.242763738816063e+01   8.462934142897096e+00   1.874310000000000e-01  1.48610759e+00   1.18407587e+00   1.26575920e-01
C     1.385269202428426e+01   8.337723297469909e+00   2.451522000000000e-01 -5.19843670e-01  -9.15135670e-01  -7.54846490e-01
C     1.440604393909198e+01   7.004641152626450e+00   1.026267000000000e-01  4.80167010e-01   4.61423410e-01  -2.32764070e-01
C     8.224011115001066e+00   8.987667248270363e+00  -3.958919999999821e-02 -9.22190750e-01  -4.44695010e-01   2.04972580e-01
C     9.643862959318199e+00   8.822037531831098e+00   2.470290000000000e-02 -6.76072400e-01  -6.35847890e-01   3.09005400e-02
C     1.021111822906338e+01   7.512417910254301e+00   1.576890000000000e-02  3.06503700e-02  -5.52592460e-01  -4.79964700e-01
C     1.163027559060736e+01   7.322779829221033e+00   3.211950000000000e-02 -1.43735022e+00   3.41553350e-01  -3.08445000e-03
C     1.217440050639846e+01   6.029557686822995e+00  -1.513226999999979e-01  7.95822530e-01   3.00693890e-01   2.29097380e-01
C     1.358218220036297e+01   5.860100753576108e+00  -1.218873000000009e-01  1.45339440e-01   5.62870640e-01   3.30702740e-01
C     5.927953182890187e+00   8.007120344401196e+00   9.861600000000001e-02  1.59413400e-01  -6.12846400e-01  -2.82359630e-01
C     7.355343391387901e+00   7.825649318850257e+00   4.933890000000000e-02  8.53767380e-01   2.83755570e-01  -7.15978540e-01
C     7.958914732453348e+00   6.513693913264101e+00  -6.120959999999798e-02 -1.36347937e+00   4.23551950e-01   4.58827630e-01
C     9.376194997370604e+00   6.350322840967103e+00  -1.209482999999985e-01 -6.99857400e-01   1.54508592e+00   3.63759940e-01
C     9.930424215782065e+00   5.077925112822528e+00  -2.228214000000008e-01  3.73335740e-01  -1.03170790e+00  -9.08289000e-03
C     1.135180701666966e+01   4.908945441793153e+00  -2.793555000000012e-01 -1.09441759e+00  -5.44090820e-01  -2.95336760e-01
C     1.190464221953245e+01   3.603557532804741e+00  -3.956558999999977e-01 -2.50698500e-01  -3.32927800e-02   8.78804140e-01
C     5.071390798475969e+00   6.839414070933758e+00   6.811739999999999e-02  1.03912673e+00   5.23869500e-02  -1.32054930e-01
C     5.678117477726239e+00   5.517766120141371e+00  -5.625840000000082e-02 -1.43368612e+00   1.69165365e+00   3.50343970e-01
C     7.072257234961243e+00   5.368302556331296e+00  -4.775549999999740e-02  1.39807057e+00   6.45531640e-01  -3.05306720e-01
C     7.658069060766586e+00   4.084708288201457e+00  -6.264960000000031e-02 -5.56530910e-01  -5.00248050e-01   5.15588900e-02
C     9.070198591880530e+00   3.936447976045634e+00  -1.710308999999981e-01 -4.93764870e-01   6.26764770e-01   2.04640430e-01
C     9.612215346574621e+00   2.659025362541751e+00  -1.160004000000008e-01  6.87551040e-01  -2.08195136e+00  -4.85810300e-02
C     1.103689273677630e+01   2.472831962738761e+00  -2.571300000000001e-01 -5.73736080e-01   6.61209920e-01   1.99720770e-01
C     3.419293696622355e+00   4.564113300478121e+00  -2.198481000000001e-01 -6.76888350e-01   5.49095170e-01  -8.33228300e-02
C     4.807417235604802e+00   4.408961020413877e+00  -1.386662999999970e-01  1.42721174e+00  -1.11141962e+00   5.01547070e-01
C     5.404813551960089e+00   3.091487183201755e+00  -2.533710000000156e-02 -1.59994352e+00   8.33765840e-01  -8.16206230e-01
C     6.787242246245247e+00   2.937072896244763e+00   3.722640000000000e-02  1.23158612e+00   4.86319690e-01  -2.82049310e-01
C     7.346914453916499e+00   1.640582312554050e+00   9.927750000000000e-02  6.07688040e-01  -3.24567420e-01   4.12827070e-01
C     8.764659372775501e+00   1.489368911348708e+00   8.362200000000000e-02 -6.97888600e-02   1.12558219e+00  -2.61193700e-01
C     9.297159505444531e+00   1.938720268626778e-01   1.814619000000000e-01  1.85337668e+00  -9.12118960e-01  -4.04803260e-01
C     2.568067606736944e+00   3.438860659752211e+00  -3.267962999999980e-01  1.64125070e-01  -6.71383470e-01  -2.28614800e-01
C     3.141554525686973e+00   2.129963026388649e+00  -2.721638999999989e-01 -4.13423170e-01  -2.66357220e-01   5.13596750e-01
C     4.547888749290465e+00   1.962648608750697e+00  -1.100777999999991e-01 -6.53749000e-03  -5.07818350e-01   5.50913730e-01
C     5.096933334414597e+00   6.497661289837900e-01   7.434240000000000e-02  7.88083000e-01   7.92257530e-01  -4.32522730e-01
C     6.520972006762954e+00   4.904738853166308e-01   1.839693000000000e-01 -1.01470944e+00  -4.21304030e-01  -4.21063250e-01
C     8.458660496007671e-01   1.197190638107922e+00  -1.254644999999996e-01  1.54621810e-01  -2.61034988e+00   3.72565400e-02
C     2.271823346786857e+00   9.880639001096266e-01  -1.655225999999992e-01  1.98806590e-01   3.00206680e-01   2.52850000e-03
C     1.609765612759887e+01   9.302646167968849e+00   3.561106500000000e+00  2.97899570e-01  -6.44822860e-01   2.14352750e-01
C     1.186015921990645e+01   8.817336931679048e+00   3.393892500000000e+00 -1.36663800e-02  -1.02182446e+00   5.38150360e-01
C     1.327017833353935e+01   8.961640964306310e+00   3.453226200000000e+00 -3.88152770e-01   1.49972201e+00   4.22978640e-01
C     1.410455868997702e+01   7.844528859325551e+00   3.462561300000000e+00  1.44402251e+00  -1.66657868e+00  -1.50662180e-01
C     7.610408374009090e+00   8.318060168549758e+00   3.508581900000000e+00  9.43358700e-02   3.01456320e-01  -8.72787940e-01
C     9.025101748349064e+00   8.502792377360040e+00   3.449516400000000e+00  3.37228310e-01  -4.01478540e-01   1.18085360e-01
C     9.878600607919473e+00   7.349975866223953e+00   3.406923300000000e+00  7.76778700e-02   8.74353690e-01   8.85640400e-02
C     1.129497590166680e+01   7.500071344192563e+00   3.428367300000000e+00 -2.61758850e-01   8.79483160e-01  -2.97800220e-01
C     1.213489519740936e+01   6.374002546923506e+00   3.449629200000000e+00  9.59230280e-01  -9.44023000e-01  -8.26098800e-02
C     1.356864985942965e+01   6.505237280862119e+00   3.412669800000000e+00 -9.04816900e-01   1.51699268e+00   2.73890190e-01
C     4.799858510244440e+00   7.972619189900120e+00   3.473800200000000e+00 -1.07376507e+00   1.22470680e+00  -1.21788330e-01
C     5.630961844929473e+00   6.840721540502538e+00   3.340231800000000e+00  3.40320090e-01  -7.43242500e-02   3.29571170e-01
C     7.036663045363166e+00   7.030092470078118e+00   3.327367800000000e+00  7.65990420e-01  -7.19749440e-01   8.42558800e-01
C     7.905158370491063e+00   5.882100690074421e+00   3.348461100000000e+00 -5.41710580e-01   6.79922390e-01  -2.73116250e-01
C     9.311745846341218e+00   6.068569988195783e+00   3.382939200000000e+00 -2.01353240e-01  -1.16466594e+00   4.35198170e-01
C     1.013947534965365e+01   4.913570204802043e+00   3.489015900000000e+00  1.41720443e+00  -3.36038820e-01  -1.74301770e-01
C     1.158456882498078e+01   5.065051222723620e+00   3.512680800000000e+00 -8.60583960e-01  -3.76037610e-01   7.44925300e-02
C     1.243956522514850e+01   3.908018631686327e+00   3.572109000000000e+00 -2.71856110e-01   4.90965950e-01  -4.46055560e-01
C     3.662204774064330e+00   5.377963557008043e+00   3.385224600000000e+00  9.30819360e-01  -5.33917800e-02  -2.24568610e-01
C     5.092095485864692e+00   5.525060350589528e+00   3.325891500000000e+00 -6.54783030e-01   1.31706960e-01  -2.66898270e-01
C     5.940587751593138e+00   4.379514527819119e+00   3.272670300000000e+00  2.56656100e-02   1.44800015e+00   4.74015210e-01
C     7.348353167358508e+00   4.579950887521420e+00   3.335832000000000e+00  4.80600200e-02  -5.60477280e-01  -3.26740260e-01
C     8.182424130565691e+00   3.430683926892105e+00   3.384485700000000e+00  5.44030180e-01  -1.82310970e-01   1.69648790e-01
C     9.603482764279685e+00   3.588448633697754e+00   3.505176000000000e+00 -7.79486820e-01   6.67721390e-01  -1.43963430e-01
C     1.043963003059018e+01   2.456964599148454e+00   3.603604800000000e+00  7.14017770e-01  -9.08482160e-01   3.43746070e-01
C     1.186666206498342e+01   2.600852318427862e+00   3.661333800000000e+00  2.97906620e-01   3.49168970e-01  -5.56843920e-01
C     3.108822075731502e+00   4.083906461621558e+00   3.414858600000000e+00 -3.50184460e-01  -1.13679697e+00   6.27259150e-01
C     3.963527724698769e+00   2.925077600386009e+00   3.415483200000000e+00 -2.38167600e-02   1.27871839e+00  -1.26079610e-01
C     5.382470514865334e+00   3.100256376295611e+00   3.331449600000000e+00 -9.17625370e-01  -9.88853890e-01   3.08828610e-01
C     6.202983403616461e+00   1.952503366978234e+00   3.415990800000000e+00  4.11070380e-01  -2.97849850e-01  -6.73360740e-01
C     7.618187204260113e+00   2.118223715782455e+00   3.377793000000000e+00 -3.94590740e-01   4.37895830e-01   9.92603550e-01
C     8.438115044863984e+00   9.903305466989013e-01   3.547551600000000e+00  1.57092100e+00  -1.11679224e+00  -7.51646200e-01
C     9.881120075592735e+00   1.133307568898411e+00   3.618992400000000e+00 -9.98898830e-01   6.12974250e-01  -3.94927140e-01
C     2.001067738175610e+00   1.470277678234529e+00   3.619628100000000e+00 -1.39473297e+00  -4.15482810e-01  -1.06685960e-01
C     3.402157265697593e+00   1.639818823278423e+00   3.507362100000000e+00 -1.72561350e-01  -1.99318160e-01  -7.10550000e-03
C     4.236910623906285e+00   5.005165841053353e-01   3.447463800000000e+00 -3.54461840e-01  -8.58609020e-01   3.20558930e-01
C     5.643471291765119e+00   6.341484231298034e-01   3.433922100000000e+00  3.29601000e-02   1.05487525e+00  -2.08575050e-01
C     1.400622993260205e+00   1.557142193373104e-01   3.577569900000000e+00  2.38514570e-01   6.29519540e-01   6.79414900e-02
