64
Lattice="9.86 0 0 4.93 8.53901048131456 0 0 0 30 " PBC="1 1 1" Properties=species:S:1:pos:R:3:force:R:3 Energy="-511.15014592"
C     1.936849100000000e-01   1.206234282821568e-01  -1.315169999999988e-01 -1.67293345e+00  -5.37572210e-01   1.64505970e-01
C     1.395357127000000e+00   8.131930233386960e-01  -1.949621999999991e-01  1.32401561e+00  -1.41543598e+00  -2.04259210e-01
C     1.133432685300000e+00   6.660345345998344e-01   3.431121000000000e+00 -1.65688743e+00  -8.34739170e-01   2.36880750e-01
C     2.349212541000000e+00   1.385680221817091e+00   3.474026100000000e+00  4.09320260e-01  -1.72698790e+00   6.53580000e-03
C     2.665310928599999e+00   6.501243941031840e-02  -2.042676000000014e-01 -7.59032220e-01   1.36730192e+00   5.25878390e-01
C     3.879387124200000e+00   7.833891442801424e-01  -9.689850000000177e-02 -1.43533516e+00   1.69501367e+00   3.06432720e-01
C     3.595210683800000e+00   6.154052898321328e-01   3.416753700000000e+00 -2.01262313e+00   1.98540413e+00   9.05863320e-01
C     4.750786119000000e+00   1.390063808237104e+00   3.569901600000000e+00  1.31036610e+00  -7.66318220e-01  -1.57882908e+00
C     5.068588610400000e+00   9.273621551594399e-02  -7.954679999999925e-02  8.65898510e-01  -1.88044937e+00   6.18577000e-03
C     6.316203546700000e+00   7.952893654553849e-01  -1.399985999999984e-01 -1.93800346e+00   3.78574760e-01   5.36252100e-02
C     5.956668654600000e+00   6.935855665234496e-01   3.381303000000000e+00  2.08552561e+00  -2.72222384e+00   1.22064543e+00
C     7.247512197300000e+00   1.293276771539553e+00   3.374658300000000e+00 -1.82709875e+00   3.63294070e-01   4.26365610e-01
C     7.485547288700000e+00   6.947227919391760e-02  -1.367562000000007e-01  3.75684205e+00  -7.01675690e-01   1.01034908e+00
C     8.781728246600000e+00   8.229408161422448e-01  -8.617800000000031e-02 -9.15448560e-01  -8.09115030e-01  -4.80203540e-01
C     8.440687510000000e+00   6.332777803271921e-01   3.547361700000000e+00  2.99790165e+00  -6.64031400e-02  -1.11381841e+00
C     9.757608139800000e+00   1.358934503971845e+00   3.485750100000000e+00 -2.68254634e+00  -1.84528051e+00   1.34970945e+00
C     1.372106655400000e+00   2.194046825652281e+00  -1.602648000000002e-01  1.70521842e+00   6.58391330e-01   1.04566028e+00
C     2.613411290300000e+00   2.884631527722745e+00   6.938849999999999e-02 -1.99751050e+00   1.36086071e+00  -1.50706072e+00
C     2.313069478500000e+00   2.799068422570420e+00   3.603369900000000e+00 -1.43865890e+00  -1.19312990e+00  -1.10402870e-01
C     3.525383100500000e+00   3.489359297290267e+00   3.551578800000000e+00  1.67761286e+00   1.58181107e+00  -1.57172000e-02
C     3.790306264000000e+00   2.237037840155518e+00   4.409520000000000e-02  3.35180560e+00  -2.63393241e+00  -1.79105270e-01
C     5.007244324600000e+00   2.972387706936648e+00   3.817380000000000e-02  1.88110159e+00  -2.37237600e+00  -9.83612640e-01
C     4.787915723800000e+00   2.806110459123171e+00   3.528239100000000e+00 -1.01978635e+00  -7.58259870e-01  -4.43259420e-01
C     6.033158146900000e+00   3.402821037141126e+00   3.309495900000000e+00 -8.37773400e-02   3.95312761e+00   7.31900880e-01
C     6.262288277900000e+00   2.227586265625521e+00  -1.594046999999996e-01  2.56880870e-01   2.96240260e-01   6.81408040e-01
C     7.505258365400000e+00   2.916376750813927e+00  -1.683038999999980e-01  7.21002330e-01   1.79716638e+00   3.20945130e-01
C     7.247136975000000e+00   2.647004443091008e+00   3.329388600000000e+00  6.58881340e-01   5.16085954e+00   3.67785300e-01
C     8.492176035600000e+00   3.449073526697199e+00   3.497190300000000e+00 -3.81245111e+00  -5.40254000e-03  -5.85317130e-01
C     8.780234505899999e+00   2.266551649028067e+00  -9.660600000000130e-02 -1.23626929e+00  -2.69822271e+00  -5.48575070e-01
C     1.004317986880000e+01   2.907024655756021e+00  -9.985410000000172e-02 -1.71643136e+00  -8.59459910e-01   1.41310910e-01
C     9.644241606600000e+00   2.733412910280853e+00   3.703474800000000e+00  3.03859418e+00   6.39216800e-02  -1.42646956e+00
C     1.087291351090000e+01   3.415513080758178e+00   3.674883600000000e+00  1.53568441e+00   3.25552478e+00  -2.15866590e-01
C     2.681811392100000e+00   4.293747063802196e+00   4.192500000000000e-03 -2.65398607e+00   2.08736366e+00   1.48593435e+00
C     3.881669517000000e+00   5.048212444833958e+00   1.553793000000000e-01 -6.67143880e-01   1.43565030e+00  -4.78910620e-01
C     3.532808863700000e+00   4.905612250669530e+00   3.478507200000000e+00 -1.07203915e+00  -2.09816690e-01  -1.91442330e-01
C     4.749530102900000e+00   5.677688401525140e+00   3.465810900000000e+00  6.78499050e-01  -2.95345527e+00  -1.80620010e-01
C     5.047875560500000e+00   4.351907630423153e+00   2.948580000000000e-02  3.19601509e+00   8.50163400e-01  -2.55637240e-01
C     6.331204649300000e+00   5.092653127146384e+00  -1.499261999999995e-01 -2.24430130e+00  -1.84025670e+00   6.57365810e-01
C     6.015703925600000e+00   5.001176842626765e+00   3.342397200000000e+00 -4.44288920e-01  -3.55284318e+00   9.44586900e-02
C     7.242029199199999e+00   5.693122748357845e+00   3.332100000000000e+00  2.03762000e-02  -2.48001846e+00   4.78680590e-01
C     7.532806515200000e+00   4.388925692485734e+00  -1.548996000000002e-01 -7.08446100e-01  -2.11955267e+00   3.12735800e-01
C     8.715812470400000e+00   5.070508142757657e+00  -2.399399999998053e-03  4.57845275e+00  -2.82806015e+00  -4.67191930e-01
C     8.447692251199999e+00   4.863915493984747e+00   3.397053000000000e+00  3.34390700e-01   1.50227150e+00   1.43078950e-01
C     9.694649426900000e+00   5.588789788099118e+00   3.412891500000000e+00 -2.17536575e+00   1.24412476e+00   6.41016510e-01
C     1.001504130220000e+01   4.253509794788655e+00   1.618560000000000e-02  1.33911230e-01   5.37650403e+00  -2.19058380e-01
C     1.127793021660000e+01   5.017411038571131e+00   1.224810000000000e-02 -7.12848130e-01  -1.65985110e-01  -1.21837130e-01
C     1.085474463680000e+01   4.911287191644433e+00   3.547525200000000e+00  2.51129739e+00  -4.27966320e+00  -3.47102050e-01
C     1.209863964160000e+01   5.533628036568632e+00   3.371344200000000e+00  2.02799694e+00   2.30476451e+00   1.22989964e+00
C     3.950951152100000e+00   6.488327065268849e+00   1.933953000000000e-01 -3.17763945e+00   4.28019070e-01  -1.94272915e+00
C     5.160250374900000e+00   7.242109410852316e+00  -6.136500000000211e-02 -1.61714742e+00  -1.53053162e+00   6.68132730e-01
C     4.777723786899999e+00   7.042375636857360e+00   3.550186500000000e+00 -1.76112143e+00   2.76833217e+00  -7.52134590e-01
C     5.985977406000000e+00   7.735386271805192e+00   3.422432400000000e+00  1.45790474e+00   2.44123598e+00   5.41642660e-01
C     6.344576584100000e+00   6.462931194200281e+00  -1.661067000000003e-01  1.91126327e+00   3.33722520e+00   2.53170330e-01
C     7.649684736699999e+00   7.227805202056639e+00  -1.633680000000020e-01 -2.19500128e+00  -3.02860718e+00  -1.83996110e-01
C     7.234891002900000e+00   7.096070471777487e+00   3.420001500000000e+00  1.10825947e+00  -8.29402430e-01  -9.96720140e-01
C     8.511954998400000e+00   7.754276953909887e+00   3.364230000000000e+00 -3.12359350e-01  -1.40722040e-01   5.54500910e-01
C     8.883648798799999e+00   6.444039914364853e+00  -5.405550000000048e-02 -6.54076148e+00   3.81104310e-01  -1.57132020e-01
C     9.974466416199999e+00   7.156508819443983e+00  -2.001089999999905e-02  6.26024092e+00   3.51867768e+00  -4.49312690e-01
C     9.743642140000000e+00   7.019573661002302e+00   3.425440200000000e+00 -1.05519403e+00   9.11006220e-01  -5.02129130e-01
C     1.096470887840000e+01   7.782523488237098e+00   3.448593900000000e+00 -1.53177133e+00  -1.54101842e+00  -9.30500250e-01
C     1.126484170750000e+01   6.490101471646592e+00  -2.179229999999777e-02 -2.51548266e+00  -3.55921307e+00   5.62705650e-01
C     1.244331753500000e+01   7.122767773433312e+00   2.334420000000000e-02  4.56564388e+00   3.88078023e+00   5.12760300e-02
C     1.215472174400000e+01   6.970304082873332e+00   3.379732200000000e+00  2.88572100e-01   2.98687017e+00   7.36644100e-01
C     1.336774242660000e+01   7.803521939688675e+00   3.525852000000000e+00  8.68987040e-01  -4.51733165e+00  -3.30620000e-01
