64
Lattice="9.86 0 0 4.93 8.53901048131456 0 0 0 30 " PBC="1 1 1" Properties=species:S:1:pos:R:3:force:R:3 Energy="-514.6987675"
C     5.124760340200000e+00   6.717126691646572e+00  -3.939564000000004e-01 -3.18851140e-01  -3.28803390e-01   5.79379920e-01
C     6.365975840700001e+00   7.402842962281968e+00  -4.683363000000007e-01 -8.82503610e-01   5.92563740e-01  -8.26431600e-02
C     9.656953808799999e+00   1.923243208992706e+00   3.812682600000000e+00  1.73262395e+00  -1.27991401e+00  -2.14986880e-01
C     1.094926747750000e+01   2.573770559000441e+00   3.897686100000000e+00 -1.08715960e+00   5.08258770e-01  -9.64751200e-01
C     7.599353972299999e+00   6.705470686171057e+00  -5.049605999999969e-01 -1.67374828e+00  -1.70939893e+00   3.12683500e-01
C     8.803568195899999e+00   7.371849086722920e+00  -4.059935999999986e-01  9.33016250e-01   1.40149760e+00  -2.80419160e-01
C     2.320816283300000e+00   1.838596937395618e+00   3.841370700000000e+00 -3.13500870e-01   1.82234810e+00   8.39598350e-01
C     3.542027322800000e+00   2.616947296981618e+00   3.902336700000000e+00 -2.97127910e-01  -3.24411365e+00  -5.66861600e-01
C     1.000541759710000e+01   6.632236716690385e+00  -3.052826999999994e-01  1.96903192e+00   1.48306749e+00   1.73982210e-01
C     1.125991811650000e+01   7.349178697019359e+00  -2.417657999999996e-01 -2.57227050e-01   1.52843604e+00  -1.15856430e-01
C     4.771328048600000e+00   1.872700464401166e+00   3.811978500000000e+00 -1.08942222e+00  -1.54818106e+00   1.53363330e-01
C     5.991857811399999e+00   2.528794480730918e+00   3.695617200000000e+00 -1.02801210e-01   1.06674682e+00   2.15176900e-02
C     1.253210560250000e+01   6.704998137331093e+00  -1.407177000000033e-01 -1.55134511e+00  -3.60251390e-01  -1.88269830e-01
C     1.373647704380000e+01   7.434351825563062e+00  -1.731096000000001e-01  1.03330662e+00  -2.58128569e+00  -6.62378650e-01
C     7.216757969900000e+00   1.817690365696806e+00   3.655134300000000e+00 -1.08601800e-02   1.26576029e+00   1.44143140e-01
C     8.416521685299999e+00   2.593088533189555e+00   3.658853100000000e+00  1.12453569e+00  -9.31358800e-01   2.01050700e-02
C     1.386666079300000e+00   2.891613791202136e-01  -4.259360999999977e-01  4.72671750e-01  -5.53520590e-01   1.33864231e+00
C     2.622188465100000e+00   9.867698442610008e-01  -3.689204999999980e-01  4.80749060e-01  -2.98914040e-01  -6.71034220e-01
C     1.093921170720000e+01   4.009204264670405e+00   3.816171600000000e+00 -5.66620450e-01  -3.57346610e-01  -5.33480040e-01
C     1.214281327970000e+01   4.738753837802785e+00   3.910040100000000e+00  4.95919790e-01  -6.22281930e-01  -7.74123000e-02
C     3.888131711700000e+00   2.919158931208520e-01  -4.311614999999982e-01 -2.58658380e+00  -1.67421840e+00   3.17800290e-01
C     5.054399774599999e+00   9.898455104457921e-01  -4.411226999999975e-01  3.18742075e+00   5.29722680e-01   3.75389600e-02
C     3.521890442000000e+00   3.987089422988672e+00   3.915923400000000e+00 -8.79588150e-01   2.08235654e+00   1.01766650e-01
C     4.731268101100000e+00   4.686033133198216e+00   3.823831200000000e+00  1.57126920e+00   1.07175261e+00  -1.60761470e-01
C     6.308846507700000e+00   2.487744212529576e-01  -3.815717999999997e-01  2.95710000e-03   3.70384000e-03   3.54940470e-01
C     7.550446548200000e+00   9.641167887487136e-01  -3.596339999999998e-01 -5.30555620e-01   1.41713730e-01   3.72596500e-01
C     5.948143698599999e+00   3.956767396774192e+00   3.683659800000000e+00  1.90520552e+00   6.25357630e-01  -4.75735480e-01
C     7.221621266999999e+00   4.675452189142134e+00   3.512735700000000e+00 -1.82085300e+00   8.92385440e-01   1.04825578e+00
C     8.782422538500001e+00   2.549059431182264e-01  -1.925699999999999e-01  1.76941550e-01   2.89763281e+00  -4.82098300e-01
C     1.001934943200000e+01   9.829229346496560e-01  -2.187123000000000e-01  5.07231210e-01  -9.71373900e-02  -1.20650313e+00
C     8.473201895299999e+00   3.996270140106244e+00   3.530625900000000e+00 -1.34973288e+00   1.56138440e-01  -1.85437290e-01
C     9.702037031900000e+00   4.702400196145653e+00   3.531176700000000e+00  6.08038990e-01  -4.11556440e-01   1.73360867e+00
C     2.623217602600000e+00   2.386273955534269e+00  -3.169700999999989e-01  1.88738497e+00   1.28390340e+00   1.84857160e-01
C     3.905316902900000e+00   3.124422995340847e+00  -4.009896000000026e-01 -2.55570153e+00   3.50433330e-01   7.48642200e-01
C     1.212846890240000e+01   6.155437071920137e+00   3.888951900000000e+00  1.54645412e+00  -6.44919600e-01  -3.23319980e-01
C     1.342456496570000e+01   6.844940906044041e+00   3.848049900000000e+00 -1.99997089e+00   8.42169190e-01  -3.65650400e-02
C     5.113111193899999e+00   2.427443855272436e+00  -4.631003999999983e-01 -3.04446020e-01  -9.44810130e-01  -4.95433920e-01
C     6.340743509099999e+00   3.119112755503544e+00  -5.672712000000004e-01 -4.83805680e-01  -7.33799700e-02   6.25167990e-01
C     4.766045257800000e+00   6.141699853420332e+00   3.807941100000000e+00 -4.18651700e-02  -8.62907900e-01  -5.11104970e-01
C     5.974415865799999e+00   6.892875922225093e+00   3.652949700000000e+00 -1.41009380e-01  -2.72473377e+00   1.07297466e+00
C     7.544420214800000e+00   2.392514435173263e+00  -4.705175999999973e-01  1.95030109e+00   3.42943430e-01   1.80202340e-01
C     8.809262345900001e+00   3.127006387571467e+00  -3.878889000000001e-01 -4.70101030e-01  -5.54462890e-01  -8.70886300e-02
C     7.171097147999999e+00   6.119453340196997e+00   3.634985400000000e+00  1.00083913e+00  -7.72288090e-01  -1.00310188e+00
C     8.412367075700001e+00   6.786131203846395e+00   3.664252200000000e+00  1.07619774e+00   1.30121939e+00   2.83043290e-01
C     1.007618365520000e+01   2.398249917732469e+00  -2.986320000000013e-01 -2.63456482e+00   7.80726680e-01   6.20632800e-01
C     1.127859798510000e+01   3.117896629630983e+00  -2.126112000000013e-01  6.46783920e-01   1.54892800e-02  -4.14238710e-01
C     9.683703545100000e+00   6.113016719487278e+00   3.661972500000000e+00 -1.09789565e+00  -3.87178390e-01  -3.08843270e-01
C     1.088888207670000e+01   6.814381495338218e+00   3.806478000000000e+00  1.06652480e+00   1.49621263e+00  -4.98372260e-01
C     3.837259041699999e+00   4.553499322318346e+00  -3.050561999999992e-01  2.45979508e+00   6.58537110e-01  -4.66587270e-01
C     5.114443033400000e+00   5.300263199017987e+00  -4.573152000000000e-01 -1.70470965e+00  -1.44724507e+00   4.62023260e-01
C     1.342162101620000e+01   8.281448819232390e+00   3.771766800000000e+00 -5.23007750e-01  -3.70508500e-01   1.06673260e-01
C     9.709395747100000e+00   4.900573124414968e-01   3.797276700000000e+00 -8.56491560e-01  -7.66953860e-01   4.52720900e-02
C     6.310192594899998e+00   4.534346151031497e+00  -5.530685999999996e-01  1.02987922e+00   1.20590722e+00   7.25169300e-02
C     7.555769272000000e+00   5.251226052754282e+00  -4.981059000000023e-01 -7.70801600e-02   9.68536290e-01  -3.01618600e-01
C     5.996254040300000e+00   8.265446286642344e+00   3.783923400000000e+00 -5.37268600e-02   2.49070411e+00  -4.49775170e-01
C     2.307463082500000e+00   4.436892900736296e-01   3.788477400000000e+00  2.15009580e-01  -1.53637184e+00   2.41096290e-01
C     8.776789274000000e+00   4.567598680252608e+00  -4.174605000000007e-01  1.85047471e+00  -1.62608908e+00   4.36866840e-01
C     1.006939041100000e+01   5.245864408073889e+00  -2.724897000000013e-01 -2.12928453e+00  -1.06685674e+00  -4.38645500e-02
C     8.445009000099999e+00   8.213021714921222e+00   3.791272500000000e+00  7.41745400e-01   1.12354033e+00  -2.67226630e-01
C     4.770778698700000e+00   4.171780534561640e-01   3.819965100000000e+00 -6.65778010e-01   9.29175400e-02  -6.48184560e-01
C     1.129488616280000e+01   4.538588929168694e+00  -1.491138000000021e-01 -7.45015910e-01   6.00999530e-01  -4.69538770e-01
C     1.250332283280000e+01   5.293320812717537e+00  -1.476341999999988e-01  3.72323090e-01  -1.44238819e+00  -1.82628460e-01
C     1.094647418880000e+01   8.251751336244416e+00   3.732197100000000e+00 -2.18438116e+00  -6.25519720e-01   8.05945800e-01
C     7.214807513999999e+00   4.115603238514768e-01   3.721693500000000e+00  1.95121668e+00   1.87000520e-01  -3.34056600e-02
