72
Lattice="7.395 0 0 3.6975 6.40425786098592 0 0 0 13.6 " PBC="1 1 1" Properties=species:S:1:pos:R:3:force:R:3 Energy="-568.45291297"
C     3.776297015775000e+00   6.333290421418561e+00   1.337912607200000e+01 -1.47843999e+00   3.05996703e+00   7.39914540e-01
C     1.228224605400000e+00   7.982473213807092e-01   1.343905583200000e+01  1.37845044e+00  -3.57696425e+00   2.25806400e-02
C     1.355383183350000e+00   6.845352400959073e-01   3.454373480000000e+00 -3.78736242e+00   4.33107034e+00  -5.74749720e-01
C     2.445671959650000e+00   1.602121167546900e+00   3.445738704000000e+00  1.05521100e+00  -3.33300613e+00  -6.54351970e-01
C     2.444479441950000e+00   1.091054986061040e-02   1.349062159200000e+01  9.60665110e-01  -7.60068570e-01  -2.17170390e-01
C     3.678982476300000e+00   6.917752536066373e-01   1.328809583200000e+01  1.46611567e+00   1.26478494e+00   1.73180456e+00
C     3.614903913900000e+00   7.504928198812045e-01   3.440179568000000e+00  2.51417232e+00  -1.41651460e-01   6.64999370e-01
C     4.943359572825000e+00   1.424772985908472e+00   3.501537464000000e+00 -3.14539776e+00  -7.58740200e-02   2.39571600e-02
C     8.659521668775000e+00   6.396294229393669e+00   1.346041490400000e+01 -1.35658200e+00  -1.00902485e+00  -5.40316970e-01
C     6.284765984324999e+00   7.449776651399083e-01   1.353173588800000e+01 -3.47044814e+00  -6.25347996e+00  -7.28702750e-01
C     6.128614569374999e+00   7.801598399492898e-01   3.504923048000000e+00  2.62530088e+00  -3.40154750e+00   2.83178250e-01
C     7.378593637875000e+00   1.374503020006717e+00   3.395003496000000e+00  2.21669009e+00   3.51431468e+00   2.39637470e-01
C     8.587513189050000e+00   2.230909904674651e+00   1.345010488000000e+01  6.15496468e+00  -5.28044349e+00  -1.28826737e+00
C     2.435631472350000e+00   2.937292886204477e+00   1.326595775200000e+01  9.01286560e-01  -4.97018426e+00   5.17387130e-01
C     2.451836801400000e+00   3.063338927701853e+00   3.380299040000000e+00  3.42157043e+00  -6.16962163e+00   6.35477150e-01
C     3.766146749700000e+00   3.552700695044702e+00   3.557670648000000e+00 -1.03574025e+00   3.79043480e+00  -3.77201000e-01
C     3.674760338025000e+00   2.210506515515899e+00   1.325521103200000e+01  1.00917012e+00  -2.87365692e+00   1.67557759e+00
C     4.917318745875000e+00   2.867613984304470e+00   3.627460000000000e-02  5.72459500e-02  -3.80669857e+00  -9.15036300e-01
C     5.001951895650000e+00   2.797329751951535e+00   3.626295296000000e+00 -4.28832519e+00   2.02322599e+00  -9.18637580e-01
C     6.099897159150000e+00   3.614129183671407e+00   3.561499184000000e+00  4.06261478e+00  -6.14964740e+00  -8.79472500e-01
C     6.251428436925000e+00   2.070970545262218e+00   1.325835440000000e-01 -6.89198904e+00  -3.79642670e-01  -5.22489800e-01
C     7.393188964500000e+00   2.669827510301952e+00   1.359150108800000e+01 -1.63852975e+00   8.31879964e+00   7.69887990e-01
C     7.338148682024999e+00   2.885608924209812e+00   3.340967976000000e+00  2.25915905e+00  -1.20425925e+00   8.64291960e-01
C     8.644852798875000e+00   3.646284129832945e+00   3.328486712000000e+00 -3.51948386e+00  -6.47769470e-01   6.61414080e-01
C     2.531278439325000e+00   4.251450505673771e+00   1.329419584000000e+01 -6.61780728e+00   2.38733265e+00   3.56920420e-01
C     3.696465587400000e+00   4.879851464988100e+00   1.330928531200000e+01  2.26509794e+00   4.98736100e+00   1.14866859e+00
C     3.788024154675000e+00   5.058023874613109e+00   3.537291048000000e+00 -6.97531790e-01  -1.22592663e+00   4.00616260e-01
C     5.085537358800000e+00   5.712432525096898e+00   3.460928271999999e+00 -5.40983998e+00   6.54173200e-01   4.28510160e-01
C     4.851040023075000e+00   4.230999148623647e+00   5.922160800000000e-02  2.81212311e+00   8.45683590e-01  -4.49437410e-01
C     6.103234522650000e+00   4.945818010734401e+00   1.223451920000000e-01  7.05190400e-01   2.48367900e-02  -1.13648510e+00
C     6.167739924450000e+00   4.929079201965719e+00   3.476582416000000e+00  1.65327425e+00   2.82786364e+00   1.45101830e-01
C     7.342107669224999e+00   5.628733678060093e+00   3.494879720000000e+00  3.65212207e+00   3.91380640e+00  -1.51000800e-02
C     7.268987573100000e+00   4.074081446154721e+00   1.769074400000000e-02  3.10944173e+00   6.59199820e+00  -5.63784240e-01
C     8.568834750150000e+00   4.900630207700027e+00   1.341997108800000e+01  6.95624020e-01   1.45809202e+00   6.84222840e-01
C     8.675804238600000e+00   4.984927020293220e+00   3.569325576000000e+00 -1.95332786e+00   3.78851282e+00  -6.46555740e-01
C     9.894871393650000e+00   5.772545194903688e+00   3.632732719999999e+00  4.46179730e-01  -2.54108154e+00  -1.09698292e+00
C     5.271965752500000e-02   2.016451034057460e-02   7.144706824000000e+00 -1.85884211e+00  -1.21686918e+00  -7.25891400e-01
C     1.220466252075000e+00   7.019749948873663e-01   6.935657416000000e+00  2.69858456e+00   2.37246531e+00  -1.02040787e+00
C     1.118306767425000e+00   6.473801055675954e-01   1.021120640000000e+01  7.03583024e+00  -4.83207100e-01  -7.34412000e-03
C     2.474385006825000e+00   1.419937643139015e+00   1.015449385600000e+01 -1.36396119e+00  -2.83215659e+00   8.70000880e-01
C     6.187275369900000e+00   6.401801827110691e+00   6.638243912000000e+00 -8.21704410e-01   2.55765865e+00   7.46061950e-01
C     3.834433584749999e+00   6.617495310558132e-01   6.453989208000000e+00 -2.07563900e+00   4.24379100e-02   2.23980919e+00
C     3.739725043275000e+00   6.750851812402698e-01   1.038910840800000e+01 -4.55976536e+00  -1.66357573e+00  -2.11873680e-01
C     4.893548109975000e+00   1.392474648413449e+00   1.035210784000000e+01  1.06486703e+00  -9.02604980e-01  -4.92099390e-01
C     8.718237599024999e+00   6.399318319955161e+00   6.895896455999999e+00  6.46645670e-01   8.26877390e-01  -7.44782320e-01
C     6.260324621924999e+00   7.921546306655982e-01   7.098713392000000e+00 -2.80286813e+00  -1.37383482e+00  -1.39535703e+00
C     6.116620507950000e+00   7.368685297949976e-01   1.030731596800000e+01  2.16590969e+00   4.66957880e-01  -5.02246900e-02
C     7.417517553149999e+00   1.332549687404535e+00   1.016889571200000e+01 -4.83114775e+00   6.20336952e+00  -4.08914680e-01
C     8.612346042750000e+00   2.186413505318843e+00   6.897328128000000e+00 -3.95339250e-01  -2.13887680e-01  -1.33756845e+00
C     2.494612809150000e+00   2.797981193061054e+00   6.667849752000000e+00 -9.62513590e-01  -5.83404240e-01   3.19364580e-01
C     2.456093991975000e+00   2.823777095423084e+00   1.005588175200000e+01 -2.98979860e-01  -1.03631812e+00   7.07935670e-01
C     3.710077526925000e+00   3.409856989648910e+00   1.002749338400000e+01 -1.55223377e+00   4.93506603e+00   2.05471330e-01
C     3.782722901025000e+00   2.095795498090094e+00   6.445136288000000e+00 -3.07178601e+00  -5.69648740e-01   1.44610611e+00
C     4.911277178775000e+00   2.811786659602121e+00   6.669663856000000e+00  7.32078930e-01   3.22960714e+00   8.54485270e-01
C     4.895656868174999e+00   2.717199741649793e+00   1.011521025600000e+01  1.51471459e+00   4.32182524e+00  -2.98290150e-01
C     6.132788492250000e+00   3.521094529739186e+00   1.009864627200000e+01  1.15225446e+00  -5.07048570e-01   8.00380330e-01
C     6.137984330175001e+00   2.175893679230271e+00   6.858344272000000e+00  2.68158029e+00   1.97015052e+00   1.66318240e-01
C     7.355952625199999e+00   3.071913460465450e+00   6.827135943999999e+00  1.27480241e+00  -7.51621564e+00   8.44369660e-01
C     7.441602143775000e+00   2.878111971873739e+00   1.007626407200000e+01 -1.71483781e+00  -1.78062985e+00   1.13146590e+00
C     8.643496112175001e+00   3.618830101068382e+00   1.021109760000000e+01  2.23284900e-01  -3.51539584e+00  -8.58687340e-01
C     9.791795779425000e+00   4.188030549022921e+00   6.881783191999999e+00  4.58625454e+00   5.18051630e-01  -6.65638600e-02
C     3.619820331750000e+00   4.972723835026147e+00   6.994527192000000e+00  7.44066010e-01   5.59082730e-01  -9.10892000e-03
C     3.635506679700000e+00   4.949297444029739e+00   1.004561524800000e+01 -1.01484280e-01  -3.30517250e-01   1.40165345e+00
C     4.831141483125000e+00   5.650879089399345e+00   1.022181399200000e+01  2.09838122e+00  -1.21394178e+00  -2.28912050e-01
C     4.829924561925000e+00   4.319011583542056e+00   6.887252431999999e+00  2.36281733e+00  -2.18034908e+00  -1.13750142e+00
C     6.077205749550000e+00   5.054883674856616e+00   6.777280112000001e+00  2.10616279e+00  -1.58773078e+00  -1.48143230e-01
C     6.139381282650000e+00   4.940156006360375e+00   1.030561624000000e+01 -1.11671767e+00  -8.14718150e-01  -3.07608160e-01
C     7.403805337425000e+00   5.556718438850179e+00   1.054590199200000e+01 -2.54056358e+00   4.57187416e+00  -1.56430022e+00
C     7.429203871650000e+00   4.414037769541000e+00   6.745854728000000e+00 -4.00143222e+00  -1.01974580e+00   3.55354030e-01
C     8.682291539325000e+00   4.937502274030927e+00   6.903291456000001e+00 -1.95537879e+00   4.22502888e+00  -1.86817210e-01
C     8.633718147374999e+00   4.969102803589525e+00   1.045594016800000e+01  1.83690290e-01   8.67776590e-01  -9.44560650e-01
C     9.777635241824999e+00   5.803659833418447e+00   1.028262856800000e+01  2.61290656e+00  -6.32189530e+00  -4.10385870e-01
