72
Lattice="7.395 0 0 3.6975 6.40425786098592 0 0 0 13.6 " PBC="1 1 1" Properties=species:S:1:pos:R:3:force:R:3 Energy="-568.30540775"
C     3.631535453774999e+00   6.256644519520395e+00   1.249789680000000e-01  3.19154707e+00  -5.45605148e+00  -9.96149700e-01
C     1.242195091500000e+00   3.729107130564816e-01   1.353232816800000e+01 -1.79050801e+00   2.75773267e+00   9.94118580e-01
C     1.373583424575000e+00   1.053988230291196e+00   3.247842384000000e+00  3.06485534e+00  -4.26475300e-02   7.02037250e-01
C     2.652382693800000e+00   1.677164724128494e+00   2.974349512000000e+00  2.63181996e+00   3.89957905e+00   2.22475797e+00
C     6.132545566499999e+00   6.122823132597771e+00   2.246332400000000e-01  1.53035476e+00   1.63220764e+00   1.69785070e-01
C     3.681562185075000e+00   4.810485923425182e-01   2.892964800000000e-01 -2.52666843e+00  -5.07420160e-01  -1.74121881e+00
C     3.961055063850000e+00   1.127499696264942e+00   3.318150168000000e+00 -2.60207438e+00  -2.66787072e+00   8.11207110e-01
C     5.178719313449999e+00   1.809326831882170e+00   3.636165768000000e+00 -1.98779006e+00   7.83100500e-02  -1.34559101e+00
C     8.558773926599999e+00   6.130259372569332e+00   3.641485680000000e-01  3.13319928e+00   3.62914922e+00  -1.23870351e+00
C     6.129205799625000e+00   4.114179145041966e-01   2.239201920000000e-01 -2.46265269e+00   4.55856835e+00   1.96506936e+00
C     6.377028222824999e+00   1.086332678442812e+00   3.815432808000000e+00  1.16640285e+00  -6.17645680e-01  -1.27326526e+00
C     7.612757828850000e+00   1.793773451243374e+00   3.410056519999999e+00 -2.65416291e+00  -1.97206398e+00   1.07326750e+00
C     1.254950505150000e+00   1.762276414491793e+00   1.341959096800000e+01 -1.90465312e+00   4.88255373e+00   1.73376884e+00
C     2.456774405925000e+00   2.557899335044053e+00   1.319265484000000e+01 -1.91362281e+00   1.73558558e+00   2.40965580e+00
C     2.754447744300000e+00   3.201694977487407e+00   3.125973192000000e+00 -3.48491679e+00   5.84977390e-01   1.07187847e+00
C     3.831381779175000e+00   3.986342409004356e+00   3.620990207999999e+00  3.66122667e+00  -2.96421407e+00  -1.00346085e+00
C     3.624093717375000e+00   1.872548192496782e+00   1.350548775200000e+01  3.77357448e+00  -6.30753800e-02   1.94354934e+00
C     4.863989407575000e+00   2.585553945164790e+00   3.177585600000000e-01 -6.84668700e-02   4.84957520e-01  -8.25919070e-01
C     5.088245001075000e+00   3.210248184072329e+00   3.567805232000000e+00  2.70862699e+00   2.27237334e+00   2.57710640e-01
C     6.414052177725000e+00   3.901213299059677e+00   3.475867464000000e+00 -2.98285723e+00   6.46558350e-01   1.09118992e+00
C     6.135376964100000e+00   1.854009082801075e+00   5.557425119999999e-01  4.18182000e-03   1.49220605e+00  -2.67470234e+00
C     7.371722647575000e+00   2.643044071377910e+00   4.291798240000000e-01  1.05538254e+00  -1.10064883e+00  -1.30433751e+00
C     7.583530274550000e+00   3.148098255797696e+00   3.257000896000000e+00  2.55182357e+00   4.14556722e+00   2.07589140e-01
C     8.919150283424999e+00   3.948158814706306e+00   3.190332336000000e+00 -2.78052376e+00  -3.25130400e-01   1.13479619e+00
C     2.418562222425000e+00   4.052731251513945e+00   1.342489496800000e+01  1.30979839e+00  -6.10553410e-01   7.67121070e-01
C     3.681212549475000e+00   4.799149938714932e+00   4.805288000000000e-03 -1.15532261e+00  -2.07664649e+00   3.00497580e-01
C     3.894837312825000e+00   5.364956770429457e+00   3.955941887999999e+00  8.88718800e-02  -9.87171500e-02  -2.20692992e+00
C     5.138104531425000e+00   6.155666792649575e+00   3.726509208000000e+00  8.52751900e-02  -4.41453301e+00  -6.95917830e-01
C     4.880207788800000e+00   4.019719159480425e+00   2.622900080000000e-01  1.26233415e+00   8.28022090e-01   8.30913960e-01
C     6.165338583074999e+00   4.801793488274383e+00   5.814786080000000e-01 -2.03070299e+00  -1.94720061e+00  -1.52175183e+00
C     6.390373757475000e+00   5.348955732166247e+00   3.580800168000000e+00 -2.40192310e-01   1.01172514e+00  -6.51593930e-01
C     7.626246345824999e+00   6.084699674281029e+00   3.472061504000000e+00 -1.83436114e+00   1.41768615e+00  -1.98645540e-01
C     7.441002446250000e+00   4.232207952294723e+00   6.356540720000000e-01 -1.71450397e+00  -8.00510187e+00  -2.23770334e+00
C     8.633772981299998e+00   4.785242132133263e+00   2.476075840000000e-01  2.34574970e-01  -2.02653070e+00  -3.42838240e-01
C     8.831815925024999e+00   5.443519850960592e+00   3.533436399999999e+00  1.59346376e+00  -6.12471870e+00  -3.72648130e-01
C     1.003909448872500e+01   5.993790209277070e+00   3.900369024000000e+00  9.83480500e-01   4.87865488e+00  -1.20118705e+00
C     7.400998380299999e+00   2.119843934652444e-01   6.733840352000000e+00 -2.64967022e+00   1.71225312e+00  -3.55837970e-01
C     1.201204310700000e+00   9.360332641315657e-01   6.518369024000000e+00  6.34947950e-01  -3.91395360e-01   9.06905760e-01
C     1.103873058525000e+00   3.868314562390278e-01   1.018110987200000e+01 -1.24634392e+00  -1.12299128e+00   6.55796130e-01
C     2.289520618650000e+00   1.077919084679237e+00   9.744782568000000e+00 -6.52057750e-01  -1.54279711e+00   1.44100317e+00
C     2.444689053225000e+00   2.225412361642470e-01   6.731200048000000e+00 -1.78126633e+00   2.13807722e+00  -8.96884130e-01
C     3.612101874450000e+00   9.673272859089840e-01   6.724617240000000e+00  1.39058299e+00   3.07365180e-01  -5.65776360e-01
C     3.492820265625000e+00   3.187664913623190e-01   9.796193424000000e+00  3.09444382e+00   1.08662754e+00   1.32377142e+00
C     4.830680626725000e+00   1.080856397546726e+00   9.971759631999999e+00 -2.13920789e+00  -1.15696830e+00   7.73945930e-01
C     4.846786566975000e+00   2.979390762906558e-01   6.797457752000001e+00 -5.57475050e-01  -3.09294039e+00  -3.46656300e-02
C     6.059386055025000e+00   9.370987405117339e-01   6.737083680000000e+00  3.98733353e+00   8.20114460e-01  -4.55943290e-01
C     6.035501721000000e+00   2.970740531815056e-01   1.038088571200000e+01 -2.19841250e+00   1.48985558e+00  -1.32466099e+00
C     7.219348228874999e+00   1.085959950635360e+00   1.047814584000000e+01  2.82155539e+00  -1.26112178e+00  -2.15307639e+00
C     8.625955246124999e+00   2.352508125045679e+00   6.326359464000000e+00 -1.09561380e+00  -6.35665030e-01   1.14652816e+00
C     2.450542713375000e+00   3.057377780443186e+00   6.340663128000000e+00 -5.63211540e-01   2.74223790e+00   1.68116771e+00
C     2.253823659525000e+00   2.458144052913549e+00   9.659731976000000e+00  8.63467940e-01   3.50847597e+00   1.58289116e+00
C     3.536654276025000e+00   3.272963672358581e+00   9.747866232000000e+00  2.10944400e-02  -2.78226218e+00   1.08176158e+00
C     3.645027705225000e+00   2.368044086103096e+00   6.536143136000000e+00 -2.56393730e-01  -9.95643000e-01  -2.82005600e-02
C     4.862749303049999e+00   3.016614999377179e+00   6.583041103999999e+00  2.79523099e+00   4.23530813e+00   8.66638840e-01
C     4.760331437100000e+00   2.570319560610002e+00   9.992577015999998e+00  1.81310010e+00  -3.13825527e+00   3.45481400e-01
C     6.029345050724999e+00   3.210364101139596e+00   1.034102778400000e+01 -1.85663847e+00   3.17951120e-01  -1.21731791e+00
C     6.114803260650000e+00   2.381322994562912e+00   6.607154447999999e+00  4.36321600e-02  -3.00776858e+00   3.18834690e-01
C     7.383583118324999e+00   3.014624876247184e+00   6.499518200000000e+00 -8.37734790e-01   2.25716349e+00   4.94970370e-01
C     7.267192547775000e+00   2.513667943878492e+00   1.032349833600000e+01 -3.36080018e+00  -2.48660016e+00   4.31402990e-01
C     8.407424972550000e+00   3.162767464596340e+00   1.000905368800000e+01  3.81542644e+00   1.03888359e+00  -1.10616432e+00
C     9.873103508625000e+00   4.504949988375838e+00   6.622276968000000e+00 -2.43131274e+00   6.74597800e-02  -4.47049610e-01
C     3.717532315500000e+00   5.215846626802812e+00   6.727587480000000e+00  3.93900100e-02  -1.12749907e+00   2.61408960e-01
C     3.635169541650000e+00   4.612498675938753e+00   1.011870382400000e+01 -3.90139559e+00   2.56306940e-01   1.68464370e-01
C     4.844675442374999e+00   5.288073526734999e+00   1.030527052800000e+01 -3.09590708e+00   4.33238622e+00  -9.13523800e-01
C     4.992846949800000e+00   4.513818412532629e+00   6.717140096000001e+00 -5.00388055e+00  -1.90203036e+00  -6.96576140e-01
C     6.126696306375000e+00   5.260151346720871e+00   6.768914479999999e+00  2.46066223e+00  -3.70772933e+00   4.30275700e-02
C     6.003202616474999e+00   4.631260909978303e+00   1.027078949600000e+01  1.60333372e+00  -2.48502579e+00  -8.23380300e-02
C     7.168405885649999e+00   5.320258572908480e+00   1.008550160000000e+01  3.77887479e+00   1.47109414e+00  -8.09752370e-01
C     7.346586783750000e+00   4.441457727653748e+00   6.698566848000000e+00  7.77904730e-01   1.96977141e+00  -4.20063790e-01
C     8.525347750124999e+00   5.236548710548155e+00   6.729253752000000e+00  3.19032468e+00  -1.30518856e+00  -1.75325070e-01
C     8.433451416224999e+00   4.589846495675040e+00   1.001346376000000e+01  1.04847120e+00   1.04395084e+00   1.24895685e+00
C     9.726509021925001e+00   5.258553228214486e+00   1.023491677600000e+01 -4.72561760e-01   1.42498318e+00  -9.78957880e-01
