72
Lattice="7.395 0 0 3.6975 6.40425786098592 0 0 0 13.6 " PBC="1 1 1" Properties=species:S:1:pos:R:3:force:R:3 Energy="-568.65116638"
C     3.615239388075000e+00   6.190833981495564e+00   4.521695360000000e-01 -1.69198840e-01  -2.08289863e+00  -2.22726150e+00
C     1.082991686100000e+00   5.160055294029636e-01   4.217751680000000e-01  4.39943774e+00  -4.28418311e+00  -1.79301740e-01
C     1.504069641600000e+00   1.117478057395300e+00   3.426629072000000e+00 -1.52962420e+00   2.68128290e-01  -3.62416110e-01
C     2.793044948475000e+00   1.747875992395533e+00   3.634263808000000e+00 -2.54692604e+00   2.27470126e+00  -1.60060004e+00
C     6.041549056199999e+00   6.109527893280412e+00   2.719026240000000e-01  2.40391327e+00   2.62172690e-01  -1.91934210e-01
C     3.671039839575000e+00   4.387086346933290e-01   3.907357520000000e-01 -1.01677765e+00  -8.86768900e-01  -1.87622718e+00
C     3.984892254750000e+00   1.104389291351346e+00   3.406909752000000e+00  1.34531586e+00   6.56152970e-01   1.69350380e-01
C     5.155455530850000e+00   1.935079942625029e+00   3.304919136000000e+00  3.57497762e+00  -3.50464722e+00  -1.69412509e+00
C     8.600379749549999e+00   6.141150965826677e+00   2.282808960000000e-01  5.71685610e-01   1.30828560e-01  -8.33947840e-01
C     6.189976060875000e+00   5.512908768064698e-01   1.326776560000000e-01 -4.34825560e+00  -2.19409724e+00   1.47345061e+00
C     6.443867153849999e+00   1.227469392948599e+00   3.054052856000000e+00 -8.21378250e-01  -2.10101463e+00   1.78743815e+00
C     7.699534752150000e+00   1.988819991605647e+00   3.343182056000000e+00 -1.88896790e+00  -9.66927791e+00  -1.26377841e+00
C     1.178813840625000e+00   1.876531897056016e+00   5.248924080000000e-01 -2.57731130e-01   3.34139660e-01  -2.00326415e+00
C     2.465797341225000e+00   2.497860954628440e+00   6.271015759999999e-01 -1.47189258e+00   3.21848339e+00  -1.04894944e+00
C     2.780124034725000e+00   3.253085752557241e+00   3.536152592000000e+00 -2.84501476e+00  -2.36551698e+00   3.30215910e-01
C     3.955768008600000e+00   3.950835730449207e+00   3.269470056000000e+00  9.97254660e-01  -1.67145661e+00  -2.21914820e-01
C     3.704599052100000e+00   1.895610373348692e+00   3.924382000000000e-01 -1.21539946e+00  -2.11615075e+00   1.20157260e+00
C     4.876919712975000e+00   2.651915249365582e+00   2.249287680000000e-01  5.04620870e-01  -3.88273214e+00  -1.03156318e+00
C     5.241813490425000e+00   3.302605907948748e+00   3.145546176000000e+00 -7.71626450e-01   1.79198491e+00   1.98855723e+00
C     6.506777528100001e+00   4.068239354049672e+00   3.259160576000000e+00 -4.39054499e+00  -1.17348535e+00   1.94862990e-01
C     6.112211350124999e+00   2.000106919700690e+00   4.968161600000000e-02  6.05104090e-01  -4.76843390e+00   2.01126200e-01
C     7.377311566724999e+00   2.537088186787354e+00   6.938747199999999e-02  1.50981591e+00   3.04538025e+00   2.34887118e+00
C     7.597947011924999e+00   3.265198253533016e+00   3.548523968000000e+00  2.72156233e+00   5.40569802e+00  -4.92412440e-01
C     8.857096767825000e+00   3.906501422859836e+00   3.560751592000000e+00  3.19613210e+00   2.89869181e+00  -1.09298219e+00
C     2.414043618600000e+00   3.972140134646284e+00   6.339302720000000e-01  6.99221500e-01  -1.30553017e+00  -2.76099617e+00
C     3.670789814625000e+00   4.619949069320185e+00   5.226455520000001e-01 -4.57981640e-01   4.36417087e+00  -1.65626212e+00
C     3.882742087800000e+00   5.275865025933903e+00   3.007733840000000e+00  1.56096040e-01   4.13763512e+00   1.13918656e+00
C     5.044777523850000e+00   6.079213338700102e+00   3.171507080000000e+00  4.65348040e+00   1.86896074e+00   1.14285123e+00
C     4.897401903300000e+00   3.973093088215852e+00   1.433393760000000e-01 -9.87489370e-01   3.53964923e+00   9.43005120e-01
C     6.153057891450000e+00   4.624997609833802e+00   1.353089867200000e+01 -1.01591847e+00   4.38726230e+00   2.64521515e+00
C     6.413983441199999e+00   5.492174470902319e+00   3.330982176000000e+00 -5.50500260e-01  -2.26977780e+00  -8.19448190e-01
C     7.714688068499999e+00   6.098521791892530e+00   3.347758320000000e+00 -3.10985903e+00   2.10359495e+00   2.19235720e-01
C     7.413518522025000e+00   3.959607706482629e+00   1.079990960000000e-01 -1.54844511e+00   3.65916670e-01  -1.75566313e+00
C     8.610500028899999e+00   4.657166197064582e+00   1.524889120000000e-01  1.47047627e+00   2.45853343e+00   2.91213027e+00
C     8.891450499150000e+00   5.395643988774640e+00   3.266585224000000e+00 -1.16211565e+00  -4.34132929e+00   8.81590690e-01
C     1.005314007105000e+01   5.996835241761764e+00   2.979954752000000e+00  3.09543337e+00   5.14101931e+00   1.22557002e+00
C     7.269216115575000e+00   2.972886598623942e-01   6.324524687999999e+00  1.62777826e+00  -4.56850300e-01   1.14635900e-01
C     1.149715920675000e+00   9.964742802388376e-01   6.403300784000000e+00  6.45587060e-01  -1.75812020e+00  -1.44670720e-01
C     1.094084334000000e+00   3.221998780436436e-01   1.029398660800000e+01 -9.76475300e-01  -1.10899274e+00   1.41141390e+00
C     2.378527319325000e+00   1.065414963335322e+00   1.061170001600000e+01 -3.69055424e+00  -4.78935904e+00  -8.12462620e-01
C     2.396150454750000e+00   1.497793245304356e-01   6.334454592000000e+00 -3.98614850e-01   7.19816360e+00   1.04577460e+00
C     3.583856856825000e+00   1.007758582588157e+00   6.419198639999999e+00 -1.38108973e+00   8.56280390e-01  -4.38576820e-01
C     3.547209640200000e+00   3.424473235235053e-01   1.060184409600000e+01  2.10335828e+00  -1.97597256e+00  -1.83781481e+00
C     4.776845063700000e+00   9.584507283447096e-01   1.039715036000000e+01 -6.53979600e-02   2.28969748e+00   1.12134518e+00
C     4.742093851124999e+00   2.714837274967818e-01   6.187806064000000e+00  1.72870066e+00  -7.23851030e-01   1.67958491e+00
C     5.987219766000000e+00   8.958332252037169e-01   6.292151656000000e+00  1.63390408e+00   3.26551569e+00   1.36325600e-01
C     5.984146182150000e+00   2.347780437850848e-01   1.023138880000000e+01  4.68107180e-01   2.29773235e+00   6.45037450e-01
C     7.190444353725000e+00   9.634787752331743e-01   1.025495229600000e+01  2.56299594e+00   2.06474000e-01  -1.69527250e-01
C     8.605324786050000e+00   2.432347125870262e+00   6.498552463999999e+00 -5.19945090e-01  -2.08688460e+00  -3.19467520e-01
C     2.358726060600000e+00   3.241600932894324e+00   6.436897136000000e+00  2.29347722e+00  -2.07537300e+00   1.67676307e+00
C     2.338685499675000e+00   2.368029996735804e+00   1.075954928800000e+01 -1.85406680e+00   6.95537405e+00  -1.85463589e+00
C     3.563841660750000e+00   3.211768234675401e+00   1.061203280800000e+01 -5.50641820e-01  -4.82197031e+00   4.83064620e-01
C     3.603483408675000e+00   2.556760273741074e+00   6.537593440000000e+00  3.28073460e-01  -4.80863763e+00  -1.28011619e+00
C     4.907492713574999e+00   3.104900575893316e+00   6.424538544000000e+00 -2.90937602e+00   2.98593751e+00  -1.12529600e-02
C     4.778059322700000e+00   2.393257841425652e+00   1.051459479200000e+01  7.85277090e-01   2.31716663e+00  -1.19282689e+00
C     6.044421274200000e+00   3.119563188306365e+00   1.032437703200000e+01 -3.06453786e+00   2.21664187e+00  -1.51046840e-01
C     6.041592908550000e+00   2.331570364611088e+00   6.387678872000000e+00  2.65635433e+00  -2.49877520e-01   6.35759030e-01
C     7.360420203524999e+00   3.033759261710978e+00   6.511118048000000e+00 -2.35276389e+00  -6.48268680e-01  -6.73286290e-01
C     7.199170120949999e+00   2.384421118345266e+00   1.027041019200000e+01  3.51520830e-01  -8.03749150e-01   7.31753450e-01
C     8.363336980874999e+00   3.060396363342919e+00   1.049972795200000e+01  5.91455456e+00   2.41827823e+00  -3.86564950e-01
C     9.816018064950001e+00   4.626781964158755e+00   6.464999360000000e+00 -8.76819120e-01  -3.80096450e-01  -1.35479152e+00
C     3.652511556149999e+00   5.276697835626017e+00   6.331071592000000e+00  4.67226320e-01   1.04131201e+00   4.36723230e-01
C     3.551600717249999e+00   4.583284116688477e+00   1.042982966400000e+01 -8.85355900e-01  -9.46431430e-01   3.68475260e-01
C     4.718635062375000e+00   5.234878608183425e+00   1.033985274400000e+01  6.02687889e+00   3.97388848e+00  -5.74240360e-01
C     4.880772470999999e+00   4.597853162894191e+00   6.317916719999999e+00  7.37110400e-01  -3.01820170e+00   5.58944750e-01
C     6.144415909575000e+00   5.217294565462379e+00   6.294690096000000e+00  2.21565570e-01  -3.31427136e+00   3.87496240e-01
C     6.051509936325000e+00   4.611132967950109e+00   1.029169555200000e+01 -8.67115120e-01  -1.91615774e+00   7.45611630e-01
C     7.306266470624999e+00   5.361759380650273e+00   1.034564784000000e+01 -1.63924589e+00  -3.32651200e+00   6.89452000e-02
C     7.389081042000000e+00   4.395113443735014e+00   6.404627736000000e+00 -1.02747049e+00   5.24435198e+00  -6.14587620e-01
C     8.582913166274999e+00   5.254078317077390e+00   6.283479888000000e+00 -2.74024906e+00  -1.02889888e+00   1.02465583e+00
C     8.528739799649999e+00   4.532142018951347e+00   1.031303041600000e+01 -2.26126559e+00   4.07029880e-01   1.51015483e+00
C     9.753657841724999e+00   5.294827585159313e+00   1.038227291200000e+01 -2.38089727e+00  -3.36847581e+00  -6.33751900e-01
