72
Lattice="7.395 0 0 3.6975 6.40425786098592 0 0 0 13.6 " PBC="1 1 1" Properties=species:S:1:pos:R:3:force:R:3 Energy="-570.32023776"
C     3.696560871975000e+00   6.254070135945832e+00   1.355008895200000e+01 -2.22847637e+00  -2.55668379e+00   5.64855520e-01
C     1.110302012700000e+00   5.795589507876169e-01   1.747695200000000e-02  5.24392051e+00  -2.91107298e+00  -1.53853640e-01
C     1.404691342500000e+00   9.690934521416149e-01   3.758181432000000e+00 -1.07762274e+00   3.04634110e-01   5.49476900e-02
C     2.635342173450000e+00   1.675035948815830e+00   3.912491520000000e+00 -9.21762470e-01   9.59974140e-01   1.98813580e-01
C     6.034456068000000e+00   6.213759751655056e+00   1.346791584800000e+01  3.81274509e+00   1.48111910e-01  -9.56260530e-01
C     3.605631286425000e+00   5.852982545540131e-01   1.341318795200000e+01  1.85966853e+00  -1.80375699e+00   1.51159225e+00
C     3.820151695200000e+00   9.358898087555017e-01   3.807166456000000e+00  1.81474764e+00   3.84579341e+00  -1.38032545e+00
C     5.005141728900000e+00   1.743863660803665e+00   3.526982656000000e+00  3.17060839e+00  -2.00224794e+00   1.79063283e+00
C     8.682296346074999e+00   6.186516102761194e+00   1.326192576000000e+01 -2.63357186e+00   2.39065508e+00   2.08436048e+00
C     6.227770205025000e+00   5.583719366371146e-01   1.338591995200000e+01 -4.82010401e+00  -2.85813910e-01  -5.62892130e-01
C     6.347049188624999e+00   1.052789993645590e+00   3.471315272000000e+00 -1.99687637e+00  -2.14304520e+00   2.52055030e-01
C     7.566393471300000e+00   1.751891398031175e+00   3.763680320000000e+00 -5.22728510e-01  -4.01005323e+00  -1.18846031e+00
C     1.210275461400000e+00   1.925748682752695e+00   6.188176800000000e-02  5.25292130e-01   3.48468685e+00   1.99281500e-01
C     2.464192367400000e+00   2.648012046327648e+00   1.730285840000000e-01 -1.66450943e+00   1.94855536e+00   1.91649550e-01
C     2.690092128225000e+00   3.152621647166792e+00   3.972302959999999e+00 -3.41100089e+00  -3.72569080e-01  -2.17763065e+00
C     3.857694039600000e+00   3.841956558315876e+00   3.472770472000000e+00 -1.29430348e+00  -3.15696805e+00   3.25029654e+00
C     3.713344194225000e+00   2.069488343823100e+00   2.177268880000000e-01 -2.29773098e+00  -6.11633293e+00  -3.38305561e+00
C     4.824674777475000e+00   2.670054156987617e+00   1.331469335200000e+01  3.99920483e+00   4.51910560e-01   1.32217559e+00
C     5.077279140450000e+00   3.159850068970795e+00   3.649093112000000e+00  5.13629730e-01  -1.68934687e+00  -2.14729617e+00
C     6.344186658074999e+00   3.777705136867061e+00   3.601488760000000e+00 -2.22634280e+00   4.15263621e+00   3.56818670e-01
C     6.093661066575001e+00   1.974507564012384e+00   1.326598726400000e+01  3.14945869e+00  -1.02262830e-01   1.19611799e+00
C     7.443931716674999e+00   2.696929497011950e+00   1.347070099200000e+01 -3.85246310e+00  -5.59141000e-01  -2.64789930e+00
C     7.501972853174999e+00   3.108720459536492e+00   3.836923120000000e+00  2.61839025e+00   1.97701964e+00   7.30171110e-01
C     8.711635490924998e+00   3.899219781673016e+00   3.993344200000000e+00  3.71769769e+00  -2.11114718e+00  -2.78815789e+00
C     2.437147373400000e+00   4.086199839047727e+00   8.540786400000000e-02  1.18367389e+00  -3.28010860e-01   4.69718600e-01
C     3.703760828850000e+00   4.803518218958660e+00   1.039786640000000e-01 -2.06720900e-02   4.50047200e-02  -2.07363974e+00
C     3.832828463025000e+00   5.171959976837854e+00   3.419612968000000e+00  8.33008130e-01   5.10445509e+00  -6.08630270e-01
C     5.078478128775000e+00   5.929736615353551e+00   3.521371840000000e+00  2.56251040e-01   1.80310639e+00   6.72630180e-01
C     4.932984720600000e+00   4.057066741957430e+00   1.336728468800000e+01 -1.77573556e+00   1.14078574e+00   5.22222170e-01
C     6.161602222350000e+00   4.704105564623666e+00   1.318254854400000e+01 -1.34786838e+00   4.61978653e+00   8.68305550e-01
C     6.349814105175000e+00   5.326253790818962e+00   3.599502480000000e+00 -1.75387883e+00  -4.55861659e+00   3.73299230e-01
C     7.548297943274999e+00   5.989034151219920e+00   3.745957208000000e+00  1.02819535e+00  -1.61564784e+00  -1.89141608e+00
C     7.417714962674999e+00   4.092425866411483e+00   1.310284329600000e+01  8.07407120e-01  -1.22189365e+00   3.72155657e+00
C     8.615838738224999e+00   4.781475980213533e+00   1.350670794400000e+01  6.32579900e-02   1.65893639e+00  -2.77255813e+00
C     8.770252513049998e+00   5.229706721663424e+00   3.492052008000000e+00 -1.67550100e-02   8.88609500e-01   2.57565454e+00
C     1.002562549455000e+01   5.909656641216729e+00   3.344584760000000e+00 -6.93368320e-01   2.56639335e+00   1.09418553e+00
C     7.398786313950000e+00   1.363061749297248e-01   6.843296688000000e+00  5.64765710e-01   2.62866380e+00   9.70618200e-02
C     1.244146632000000e+00   8.590160433626772e-01   6.991994464000000e+00 -1.32296520e-01   1.40989089e+00  -1.26787230e-01
C     1.090746267975000e+00   4.613607509144634e-01   9.877374135999998e+00 -1.13387730e+00  -7.55146200e-02  -1.14483452e+00
C     2.359744241175000e+00   1.186606577374819e+00   1.010086293600000e+01 -2.33765629e+00  -2.93602944e+00  -1.03078801e+00
C     2.448184263000000e+00   1.131432551016768e-01   7.031326480000000e+00  2.33593789e+00   2.86015694e+00  -7.41168380e-01
C     3.742697278650000e+00   8.902140012721956e-01   7.035265720000000e+00 -2.11552861e+00  -9.66938500e-02  -5.93477500e-02
C     3.568289827200000e+00   4.847663280728269e-01   9.938983088000001e+00 -2.05724896e+00  -3.69320249e+00   1.10122705e+00
C     4.753928291474999e+00   1.068339915985142e+00   9.991862608000000e+00  4.18811736e+00   4.05272006e+00  -1.85605762e+00
C     4.974391433174999e+00   1.820002345479318e-01   6.893813479999999e+00 -2.06940053e+00  -6.74205890e-01  -2.74806280e-01
C     6.159327335475000e+00   8.607211770179022e-01   6.815604504000000e+00  2.46389296e+00   1.11329940e+00   9.47260360e-01
C     6.042883668825000e+00   3.904889279028738e-01   9.708703807999999e+00 -2.31545125e+00   4.52172623e+00   8.60446570e-01
C     7.198220676899999e+00   1.162214744506015e+00   9.658699735999999e+00  3.26199039e+00  -1.57365597e+00   2.37313154e+00
C     8.650877801175000e+00   2.392556383062245e+00   7.076496431999999e+00  1.15613698e+00  -4.79496585e+00   3.80979690e-01
C     2.439173825250000e+00   3.106278067716424e+00   7.247772520000000e+00  2.81453146e+00  -3.77450715e+00  -2.42930026e+00
C     2.316152897700000e+00   2.543393755033732e+00   1.017968500000000e+01 -1.17272856e+00   2.79636644e+00  -1.01026685e+00
C     3.543025179450000e+00   3.274298896079812e+00   1.016774134400000e+01  4.99105130e-01   7.73051860e-01  -2.10465885e+00
C     3.707788811399999e+00   2.333957743856138e+00   7.099268544000000e+00 -1.55426030e-01  -4.77440730e-01   3.74399070e-01
C     4.954048712550000e+00   3.042986708563402e+00   7.035990055999999e+00  8.62094500e-02  -1.80787245e+00  -5.28804040e-01
C     4.745162961000000e+00   2.530316004313298e+00   9.899289584000000e+00  1.19025813e+00   1.25368124e+00   1.16363561e+00
C     6.035636679750001e+00   3.303434939128725e+00   9.680103824000000e+00 -2.40391240e+00  -2.03378954e+00   2.06769909e+00
C     6.236264656650000e+00   2.255107624487718e+00   7.019857463999999e+00 -2.34150049e+00   1.94126717e+00  -1.11698943e+00
C     7.449053567625000e+00   2.992250192476545e+00   7.074668728000001e+00 -2.76390728e+00   2.59383876e+00  -1.11342341e+00
C     7.218091078875000e+00   2.534252253321789e+00   9.807253488000001e+00  3.00582020e-01   2.11794947e+00  -8.16053530e-01
C     8.434596236174999e+00   3.233570698006249e+00   9.867303336000001e+00  2.19844980e+00   1.91536162e+00   2.28635112e+00
C     9.886402454775000e+00   4.424614721609682e+00   6.938038095999999e+00 -4.94014450e-01   3.13875303e+00   8.99163030e-01
C     3.708520213875000e+00   5.172922792964528e+00   6.919468247999999e+00 -3.01026110e-01  -2.04339238e+00  -8.58337790e-01
C     3.524057004449999e+00   4.746013234867305e+00   9.867810616000000e+00  8.14666580e-01  -3.40113933e+00   7.01206950e-01
C     4.687073978850000e+00   5.422826733176253e+00   9.723512847999999e+00  6.00437555e+00   9.04835950e-01   1.62164650e+00
C     4.894598976450000e+00   4.444407144568592e+00   6.923414015999999e+00  3.40603131e+00  -8.05724700e-02   3.58753590e-01
C     6.211586210550000e+00   5.126190603147214e+00   6.920924264000000e+00 -3.96052495e+00   5.99374340e-01   2.47650530e-01
C     6.025622259824999e+00   4.676728194825688e+00   9.770963111999999e+00 -6.38651170e-01   2.61619029e+00  -3.57213400e-02
C     7.304859719774999e+00   5.434402493300782e+00   9.839568448000000e+00 -3.35491657e+00  -1.88687830e-01   3.10956470e-01
C     7.389770219024999e+00   4.467803371510479e+00   7.002875552000000e+00  3.61738643e+00  -2.19463315e+00  -3.25598280e-01
C     8.684348458575000e+00   5.165727225003345e+00   6.916736688000000e+00 -2.40488874e+00  -4.95779420e-01   7.73640000e-04
C     8.481691330649999e+00   4.731486969104096e+00   9.908917296000000e+00  1.54691795e+00  -1.53506869e+00  -8.00584940e-01
C     9.784678683525000e+00   5.486226516414844e+00   9.786426312000000e+00 -4.28054693e+00  -5.30436361e+00   1.25017124e+00
