72
Lattice="7.395 0 0 3.6975 6.40425786098592 0 0 0 13.6 " PBC="1 1 1" Properties=species:S:1:pos:R:3:force:R:3 Energy="-565.17461117"
C     3.733128259575000e+00   6.337590368230922e+00   1.328260823200000e+01 -3.94806748e+00  -4.08068874e+00   2.91030460e-01
C     1.101971619150000e+00   6.742699832572704e-01   1.336759245600000e+01  7.02800123e+00  -1.18594560e+00  -6.34459450e-01
C     1.329789975750000e+00   8.771594339652146e-01   3.887911016000000e+00  3.61346240e-01   1.22977755e+00  -1.06832978e+00
C     2.589751406850000e+00   1.574680843894158e+00   3.906567360000000e+00  1.03872020e-01   1.07646527e+00  -1.06782663e+00
C     6.015349717425000e+00   6.338285742549361e+00   1.323193177600000e+01  5.69065071e+00  -2.17531402e+00   5.36668960e-01
C     3.676287960150000e+00   5.880374196833137e-01   1.341396165600000e+01  2.36947700e-01  -1.95171830e-01  -2.43841595e+00
C     3.796912574925000e+00   8.833944272899746e-01   3.710807328000000e+00 -3.07232470e-01  -3.39147530e-01  -6.39786300e-02
C     4.966832744850000e+00   1.665478362470723e+00   3.610671480000000e+00  4.31649950e+00  -1.80349170e+00  -1.15463400e-02
C     8.712437367749999e+00   6.205302672980611e+00   1.328502835200000e+01 -3.03898348e+00   2.97997904e+00   2.02645180e-01
C     6.297725869724999e+00   6.961226559697410e-01   1.316132751200000e+01 -7.06076084e+00  -3.84010891e+00   3.15634360e-01
C     6.284328644024999e+00   1.018614312001486e+00   3.625349143999999e+00  2.04936680e-01  -4.23448055e+00   6.83519700e-02
C     7.580980663425000e+00   1.724809520690857e+00   3.835011776000000e+00 -5.01479261e+00  -7.40830013e+00  -1.07710576e+00
C     8.568644994450000e+00   2.064382164988744e+00   1.335463940800000e+01  2.70872462e+00  -1.68136901e+00   7.15899220e-01
C     2.453797918425000e+00   2.688426691936385e+00   4.044816800000000e-02 -1.74735440e+00   2.72524205e+00  -1.91201204e+00
C     2.652151230300000e+00   3.066362762093031e+00   3.817051344000000e+00 -4.45256467e+00  -2.18920069e+00   3.10276430e-01
C     3.859470984150000e+00   3.753308949102914e+00   3.644858072000000e+00 -8.02400000e-01  -3.59571761e+00  -2.28053310e-01
C     3.682036981050000e+00   2.148776962727195e+00   1.332297208000000e+01 -2.85235100e-01  -6.81017740e+00   2.16023102e+00
C     4.887675444675000e+00   2.758718545356174e+00   1.312916432800000e+01  1.36039301e+00  -3.89915340e-01  -1.17812122e+00
C     5.081203556025000e+00   3.041873840675069e+00   3.568048807999999e+00 -1.06871258e+00   2.39814238e+00   1.03149361e+00
C     6.311077283400000e+00   3.825090560986095e+00   3.706343536000000e+00 -5.08555574e+00  -2.35040278e+00  -6.95224040e-01
C     6.111273405300000e+00   2.055683261537506e+00   1.288236132000000e+01  2.55695461e+00  -1.46112576e+00   1.84425851e+00
C     7.460291823075000e+00   2.675557079596401e+00   1.291262186400000e+01 -4.77153646e+00   1.83164575e+00   9.71966530e-01
C     7.351235354700000e+00   3.008190582417821e+00   3.892454368000000e+00  8.46944834e+00   5.93868938e+00  -1.73409210e-01
C     8.687397638924999e+00   3.741165899817146e+00   3.843771808000000e+00  1.92633327e+00   3.07447800e-01   3.28915790e-01
C     2.385257323950000e+00   4.124190793269348e+00   1.215622400000000e-02  4.28695037e+00  -1.44519777e+00  -9.81096160e-01
C     3.695697875475000e+00   4.812727349633604e+00   1.342804418400000e+01 -6.71265290e-01   2.64587405e+00  -1.16720532e+00
C     3.763224430575000e+00   5.074712858255641e+00   3.570335376000000e+00  1.15746705e+00   5.11718890e+00  -6.39288000e-03
C     4.942323755175000e+00   5.875455406583764e+00   3.639349392000000e+00  3.00636175e+00   4.44007880e-01   5.88353650e-01
C     4.902817002974999e+00   4.142967372846502e+00   1.301792965600000e+01 -1.40402621e+00   1.60771110e-01   2.07477694e+00
C     6.159110366175000e+00   4.734865022997510e+00   1.291105364800000e+01 -1.62234605e+00   6.02588130e+00   1.53987913e+00
C     6.258840223575000e+00   5.215939936839833e+00   3.687211192000000e+00 -4.34643770e-01   4.60465200e-02  -3.17832240e-01
C     7.529197138949999e+00   5.838404533373413e+00   3.663007408000000e+00 -2.77327407e+00   4.05799052e+00   8.39548590e-01
C     7.359217776525000e+00   4.050246015208794e+00   1.296943368800000e+01  2.58023844e+00   2.92926907e+00   1.15279681e+00
C     8.605685440200000e+00   4.744751467983727e+00   1.333769054400000e+01 -1.86204876e+00   3.92704952e+00  -7.00937950e-01
C     8.722676225924999e+00   5.198047849315722e+00   3.764363856000000e+00  1.05752948e+00  -4.18627069e+00  -1.07877105e+00
C     9.968427609899999e+00   5.780237605189648e+00   3.572518176000000e+00 -5.46852130e-01   5.48120909e+00   7.77915150e-01
C     7.400233293599999e+00   1.221754361319492e-01   6.443472600000000e+00  5.94220230e-01  -4.34116170e-01   2.88794554e+00
C     1.251993688350000e+00   8.371338470214721e-01   6.819636223999999e+00  1.15603161e+00  -1.23420817e+00   9.31621590e-01
C     1.100684852175000e+00   5.725796546143674e-01   1.011385814400000e+01 -5.70892170e-01  -2.93298220e+00   2.37715940e-01
C     2.425720656375000e+00   1.269380969789533e+00   1.010870156800000e+01 -5.52556167e+00  -2.00419078e+00   9.30556920e-01
C     2.533742009625000e+00   7.708356888031800e-03   7.158890536000000e+00 -1.98495144e+00   7.06970962e+00  -1.06803994e+00
C     3.742149826800000e+00   8.228508149717857e-01   7.349673103999999e+00 -3.19101200e-01   7.02080600e-01  -2.23416070e+00
C     3.542370352200000e+00   5.618725680259693e-01   9.919242415999999e+00  4.63095463e+00  -3.47811772e+00  -1.65214446e+00
C     4.815041347949999e+00   1.203002694305412e+00   9.898830175999999e+00 -1.82910619e+00   2.12506014e+00   2.91202086e+00
C     4.936020109275000e+00   1.212083291525106e-01   6.876597648000000e+00 -1.75881790e+00  -1.89342400e-02   1.34649282e+00
C     6.105452504999999e+00   7.603444897472424e-01   6.616170296000000e+00  3.99296332e+00   4.51921478e+00   5.31792570e-01
C     6.014111091900000e+00   5.081043403107672e-01   9.983793047999999e+00  1.49392506e+00   2.47497659e+00  -1.22591860e-01
C     7.225158147600000e+00   1.225395694253531e+00   1.018981577600000e+01  2.37416592e+00  -3.91398410e-01  -5.81195460e-01
C     8.714207915625000e+00   2.288105499068790e+00   6.975108024000001e+00 -3.44908890e+00  -2.33222683e+00  -9.96701650e-01
C     2.456774442900000e+00   3.022955214658579e+00   7.135746872000000e+00  4.01608892e+00  -5.87350000e-04   7.90327350e-01
C     2.367911464050000e+00   2.598683250160998e+00   1.035811115200000e+01 -9.93853670e-01   4.69945066e+00  -9.52809510e-01
C     3.579788053875000e+00   3.382036381164442e+00   1.035935446400000e+01 -8.02874410e-01  -2.35454230e+00  -1.93693380e-01
C     3.751146694725000e+00   2.365458431034699e+00   7.434360440000000e+00 -1.78361324e+00  -4.16365885e+00  -2.61651042e+00
C     4.987991097000000e+00   2.947058098589405e+00   7.180428040000001e+00  2.08886400e-02   2.87823510e+00  -1.59289382e+00
C     4.799660672324999e+00   2.576382279398327e+00   1.032734101600000e+01  1.79808087e+00   3.08789380e+00  -2.19563199e+00
C     6.120299076749999e+00   3.354824497389566e+00   1.019706376000000e+01 -4.59886280e+00   1.76034945e+00  -7.85843320e-01
C     6.201298582350000e+00   2.252947852567011e+00   6.839818759999999e+00 -1.95604086e+00  -2.05075174e+00   7.21142530e-01
C     7.408359215399999e+00   2.966705337022627e+00   6.875064520000000e+00  2.32618693e+00  -1.53405876e+00   1.49267680e-01
C     7.273661545874999e+00   2.634534733959328e+00   1.020766441600000e+01 -8.62778960e-01  -5.63256400e-02  -5.20605240e-01
C     8.425418634449999e+00   3.359778575099747e+00   1.021429863200000e+01  6.28469004e+00   5.04156880e-01  -1.27648974e+00
C     9.938509066800000e+00   4.421895025424277e+00   6.867151224000001e+00 -3.48099156e+00  -1.55699854e+00   1.69113510e-01
C     3.710155655100000e+00   5.063222530930965e+00   6.677143584000000e+00  2.95268890e+00   3.50329862e+00   9.32305800e-02
C     3.524345705250000e+00   4.802728061623893e+00   1.026455716000000e+01  7.31816530e-01  -8.23826320e-01  -4.90255150e-01
C     4.724537899274999e+00   5.429603270545655e+00   1.015301308800000e+01  5.26348109e+00   5.13926730e+00  -1.09225187e+00
C     4.941793053000000e+00   4.460334405781254e+00   6.934951711999999e+00  5.22851260e-01  -4.03416305e+00   6.59580240e-01
C     6.177613913325000e+00   5.085099795993617e+00   7.065121255999999e+00  2.24586579e+00  -2.71844520e+00  -1.20999586e+00
C     6.078172239075000e+00   4.847678714989710e+00   9.961972528000000e+00 -9.77408060e-01  -3.58823793e+00   1.11430951e+00
C     7.326196624200000e+00   5.504535328997906e+00   9.660811000000001e+00 -1.45067093e+00   3.82997390e-01   2.81903487e+00
C     7.467930155549999e+00   4.324788160089198e+00   7.005798464000000e+00 -1.03330322e+00   3.57599451e+00  -1.66913300e-01
C     8.708966191724999e+00   5.121481744470492e+00   6.869161168000000e+00 -2.57999351e+00  -2.10990062e+00   2.33656990e-01
C     8.599165971225000e+00   4.742764931238134e+00   9.784672727999999e+00 -3.35488550e+00   1.28791839e+00   1.91408564e+00
C     9.771689883674998e+00   5.579836656958364e+00   9.966007920000001e+00 -1.27449120e+00  -5.89030556e+00   3.40170310e-01
