72
Lattice="7.395 0 0 3.6975 6.40425786098592 0 0 0 13.6 " PBC="1 1 1" Properties=species:S:1:pos:R:3:force:R:3 Energy="-573.4466126"
C     3.716672166075000e+00   6.265692711195317e+00   1.315777655200000e+01 -3.27127290e+00   2.49617959e+00  -2.65368980e-01
C     1.111502664900000e+00   6.621366044008716e-01   1.308416206400000e+01  4.50400193e+00  -1.72086730e+00   4.23446350e-01
C     1.322571383475000e+00   8.401337935308318e-01   3.604821168000000e+00 -7.29239430e-01   4.07984100e-02   3.36789480e-01
C     2.581626742200000e+00   1.547156880633765e+00   3.557322760000000e+00 -3.61464629e+00   2.62418951e+00  -5.32540600e-02
C     5.993114320500000e+00   6.331643822680177e+00   1.316776112800000e+01  6.19595930e+00  -1.09694874e+00   6.08439530e-01
C     3.666176739675000e+00   6.873931401659322e-01   1.319273875200000e+01  1.21992160e-01  -1.95256255e+00  -3.68855880e-01
C     3.712333371675000e+00   7.946946874180314e-01   3.661410360000000e+00  3.92086144e+00   5.39203748e+00   4.75214420e-01
C     4.930217585550000e+00   1.589668600478759e+00   3.805147808000000e+00  3.02131785e+00  -3.52010380e-01  -1.72665996e+00
C     8.697040940775000e+00   6.328202238548791e+00   1.322362775200000e+01 -4.04091181e+00  -1.42389470e-01  -4.20882030e-01
C     6.218033504325000e+00   6.664240629104058e-01   1.320262309600000e+01 -2.67101860e+00  -1.70848194e+00   3.85871610e-01
C     6.278763573750000e+00   8.951114653428948e-01   3.784488456000000e+00 -3.48735639e+00  -1.25842226e+00  -1.57977260e-01
C     7.481072068874999e+00   1.568893252023497e+00   3.626163240000000e+00  7.78652030e-01   1.50208810e-01   2.58921210e-01
C     1.234083774825000e+00   2.047743582855571e+00   1.304399038400000e+01 -2.86809618e+00  -1.90270800e-02   1.13620882e+00
C     2.396320059075000e+00   2.762292377412368e+00   1.302144104000000e+01  3.58677409e+00  -5.17284180e-01  -1.35263320e-01
C     2.556939717900000e+00   3.083734695793752e+00   3.570217872000000e+00  1.08453680e-01  -4.35764593e+00   8.68485560e-01
C     3.869756135025000e+00   3.717124187725549e+00   3.812619920000000e+00 -7.28176982e+00   6.97148460e-01  -1.70596101e+00
C     3.697582417275000e+00   2.107160366003293e+00   1.304614217600000e+01 -1.14518193e+00  -2.03215091e+00   1.86253132e+00
C     4.923039665775000e+00   2.790785048716665e+00   1.330446656000000e+01 -7.35019430e-01  -3.39368944e+00  -1.04651514e+00
C     5.009127892724999e+00   3.066844042071210e+00   3.672819944000000e+00  5.51923480e-01  -5.97047463e+00   1.31134596e+00
C     6.212946298950000e+00   3.687147585832511e+00   3.721406896000000e+00  3.23185194e+00   1.53744696e+00  -2.22525480e-01
C     6.138467445525000e+00   2.102605145472632e+00   1.331125377600000e+01  1.75014273e+00  -2.44335861e+00   5.89259100e-02
C     7.414363363800000e+00   2.750894271400876e+00   1.329387651200000e+01 -6.48418370e-01  -3.36978228e+00  -4.24285430e-01
C     7.444575377475000e+00   2.976228276332712e+00   3.630918752000000e+00 -1.26578753e+00  -9.10313300e-01  -3.78185210e-01
C     8.607827327999999e+00   3.676036966956354e+00   3.572321112000000e+00  5.17263710e+00   2.44304084e+00   1.06975323e+00
C     2.424796909950000e+00   4.143479265177253e+00   1.301798908800000e+01  7.41744430e-01   2.57493761e+00   5.89559390e-01
C     3.710525035350000e+00   4.900669401758130e+00   1.306214584000000e+01 -8.99252630e-01  -3.32403929e+00   9.65597660e-01
C     3.771016468125000e+00   5.085658503449324e+00   3.817519864000000e+00 -3.11037930e-01   2.72415472e+00   2.02777390e-01
C     4.931460241350000e+00   5.810515143159527e+00   3.790825920000000e+00  5.48870200e+00   1.17304027e+00  -8.39267330e-01
C     4.944323252249999e+00   4.123311360580012e+00   1.325273800800000e+01 -1.23166637e+00   4.87394893e+00  -3.04996090e-01
C     6.140206194899999e+00   4.840785620127257e+00   1.331026587200000e+01  6.94095920e-01   1.61828925e+00   3.94067450e-01
C     6.295142204625000e+00   5.095780048741583e+00   3.774960160000000e+00 -3.23848462e+00   1.59187134e+00  -7.40886080e-01
C     7.496791620374999e+00   5.877884669675218e+00   3.676181320000000e+00 -9.75888130e-01  -5.83516189e+00   9.52870160e-01
C     7.451173011600000e+00   4.056016443668390e+00   1.340007320000000e+01 -3.17233441e+00   7.59363795e+00  -1.28705774e+00
C     8.574232989224999e+00   4.830681174203485e+00   1.309946383200000e+01  3.11006410e+00   2.48329460e+00   1.67852717e+00
C     8.690217537299999e+00   5.103657606122276e+00   3.766464648000000e+00  9.34765200e-01   1.92104984e+00  -1.14475181e+00
C     9.973202894174999e+00   5.858772827199092e+00   3.802096784000000e+00 -2.29300879e+00  -1.60064013e+00  -7.34790700e-02
C     7.356402389099999e+00   7.316019243012481e-02   7.070257840000001e+00  4.98221626e+00  -5.67322980e-01  -8.15301240e-01
C     1.285650477900000e+00   8.441939008863361e-01   6.893716784000000e+00 -1.37222126e+00  -2.63553142e+00   6.38516320e-01
C     1.149993565950000e+00   5.910302574664488e-01   1.020967177600000e+01  1.52496039e+00  -8.09850650e-01   2.89396870e-01
C     2.434855884750000e+00   1.304070208871430e+00   1.016217989600000e+01 -2.85998790e+00  -3.44643600e-01   9.89858800e-02
C     2.543255381325000e+00   8.998654740375300e-02   6.796514320000000e+00 -3.16536473e+00  -7.86650790e-01   6.83463330e-01
C     3.746884845299999e+00   7.847093606904553e-01   6.755940624000000e+00 -1.99785130e-01   5.77126340e-01   3.84301480e-01
C     3.621825596925000e+00   5.440867271397558e-01   1.033438976000000e+01 -1.76745903e+00   4.60483051e+00  -1.54233814e+00
C     4.817339972775000e+00   1.217559892634085e+00   1.021241136000000e+01  2.91026715e+00   2.99026341e+00   7.87157170e-01
C     4.962190940325000e+00   6.893908203202020e-02   6.906296240000000e+00  1.10015237e+00   1.05262478e+00   5.74069260e-01
C     6.199731286050000e+00   7.871277365435485e-01   7.079229624000001e+00 -2.37775231e+00  -2.13790900e-01  -1.24318118e+00
C     6.055889551124999e+00   5.763060360927870e-01   1.031460434400000e+01  1.38638442e+00  -8.26091980e-01  -6.53595060e-01
C     7.318928411475000e+00   1.280046748914734e+00   1.025960308800000e+01 -1.75741751e+00  -3.71343420e-01  -9.37834650e-01
C     8.638160286900000e+00   2.234794599407370e+00   6.909979528000000e+00  6.84786700e-01   1.11684359e+00  -1.27164523e+00
C     2.501375906400000e+00   2.949646699616417e+00   6.726457863999999e+00 -1.73910237e+00  -7.15111180e-01   1.77639127e+00
C     2.355547541700000e+00   2.755531338346987e+00   1.005701544800000e+01  1.01982370e+00  -3.17608336e+00   5.78708420e-01
C     3.569948266875000e+00   3.439589397189746e+00   1.008213138400000e+01  2.63541952e+00  -9.44217070e-01   5.25953080e-01
C     3.675498654825000e+00   2.215939503628851e+00   6.736798352000000e+00  3.92357088e+00   9.05897580e-01   4.16029260e-01
C     5.030703248925000e+00   2.979093028958647e+00   6.843644712000000e+00 -4.32045771e+00  -3.41609577e+00  -1.31555390e-01
C     4.913869976700000e+00   2.654852946488543e+00   1.020034870400000e+01 -4.92027924e+00   9.79769280e-01  -6.97043700e-01
C     6.094693889249999e+00   3.372332713697548e+00   1.026054461600000e+01 -1.01429759e+00   1.97872910e+00  -5.68264760e-01
C     6.177375313650000e+00   2.177195728895788e+00   6.927893720000000e+00  1.64214765e+00   3.57179871e+00   2.50459690e-01
C     7.403798977725000e+00   2.984302764642599e+00   6.902920719999999e+00  5.73544280e-01  -2.57414604e+00   3.24119460e-01
C     7.256288916074999e+00   2.669124643001817e+00   1.015156101600000e+01  3.76970585e+00   4.80236930e-01   1.08292516e+00
C     8.520784591424999e+00   3.380855436015057e+00   1.018339698400000e+01 -5.92257860e-01   2.72098862e+00  -5.17960280e-01
C     9.883754711999998e+00   4.358513366235429e+00   6.959449936000000e+00  1.61755850e+00  -1.34023237e+00  -1.05575001e+00
C     3.712935176775000e+00   5.023721644833692e+00   6.983772992000000e+00 -3.45951410e-01   2.65886629e+00   2.51391720e-01
C     3.525680613675000e+00   4.836600629743483e+00   1.015106216800000e+01  5.01346913e+00  -7.39461400e-02   4.54947780e-01
C     4.802339141325000e+00   5.553023694405588e+00   1.027286988800000e+01  1.61823270e+00  -7.88468220e-01  -9.50231570e-01
C     4.949716203900000e+00   4.367294628442747e+00   6.899128632000000e+00  2.96835140e-01  -8.89802330e-01   7.26999400e-02
C     6.154968537600000e+00   5.027578609129877e+00   6.889504864000000e+00  3.22580389e+00   3.61809937e+00  -5.25007970e-01
C     6.097564443374999e+00   4.821253594292936e+00   1.028996087200000e+01 -1.52320257e+00   1.81856450e+00   2.31615230e-01
C     7.304095150725001e+00   5.645171999049984e+00   1.037914314400000e+01  7.84674350e-01  -8.50492383e+00  -5.73681890e-01
C     7.445751700124999e+00   4.386440221357795e+00   6.856077696000000e+00 -1.24162610e+00  -6.88429830e-01   4.10008360e-01
C     8.717303314724999e+00   5.076866994429431e+00   6.918845367999999e+00 -3.37321532e+00   2.60454460e-01  -5.79754300e-02
C     8.617591020450000e+00   4.854004520690926e+00   1.031335817600000e+01 -5.47693061e+00  -1.20133285e+00  -4.21137830e-01
C     9.777563436374999e+00   5.551119964714124e+00   1.026907494400000e+01 -7.06258990e-01   1.54536694e+00  -1.69908760e-01
