72
Lattice="7.395 0 0 3.6975 6.40425786098592 0 0 0 13.6 " PBC="1 1 1" Properties=species:S:1:pos:R:3:force:R:3 Energy="-575.29122127"
C     3.731337264525000e+00   6.230154203478606e+00   1.358696018400000e+01 -2.51432774e+00  -1.20862784e+00  -9.34278760e-01
C     1.261834584600000e+00   4.653402927060888e-01   2.398400800000000e-02 -8.16901940e-01   2.39573105e+00   2.86318800e-02
C     1.383827939925000e+00   1.065878119263758e+00   3.654551880000000e+00  1.23725971e+00  -1.87767979e+00  -5.40854830e-01
C     2.643897966600000e+00   1.704183391443733e+00   3.760109911999999e+00 -1.28531327e+00   3.27599124e+00  -1.40550670e+00
C     6.193137977999999e+00   6.226986593498471e+00   1.355361883200000e+01 -1.75277361e+00  -5.57187960e-01   1.99657040e-01
C     3.686319573450000e+00   5.211224033479465e-01   1.355220552000000e+01  8.26870210e-01   2.04805840e-01  -5.16616580e-01
C     3.843860508900000e+00   1.022350107738960e+00   3.630244736000000e+00  8.17671090e-01   9.35740250e-01   6.77390900e-01
C     5.079599469600000e+00   1.685884121204884e+00   3.674641120000000e+00  1.15766023e+00   1.41528986e+00  -1.54599847e+00
C     8.574238720349999e+00   6.144354503693407e+00   1.353543372800000e+01  6.31429480e-01   4.41866777e+00  -5.81046440e-01
C     6.102150415650001e+00   4.107471965785188e-01   1.356676146400000e+01  2.43398854e+00   3.42130564e+00   6.31304580e-01
C     6.379601350050001e+00   9.708095370777805e-01   3.526135920000000e+00 -3.06471196e+00   1.61798436e+00   8.72874680e-01
C     7.544618893799999e+00   1.743119998380961e+00   3.578677752000000e+00  1.82400286e+00  -2.24076335e+00   1.72994370e-01
C     1.228176537900000e+00   1.865472576285318e+00   9.178748800000000e-02 -1.59633330e-01   4.31437931e+00  -1.01716346e+00
C     2.461172582175000e+00   2.645198463722014e+00   6.611993599999999e-02 -7.95934850e-01   8.43097430e-01  -1.29053372e+00
C     2.654804519325000e+00   3.162968750420879e+00   3.646546920000000e+00 -1.16826023e+00   1.57729885e+00   6.07952980e-01
C     3.867773128800000e+00   3.961666227086568e+00   3.703486719999999e+00 -1.96163370e-01  -4.51003253e+00  -1.69753219e+00
C     3.715623074400000e+00   1.948489177732297e+00   1.350282732000000e+01 -3.66018400e+00  -1.24157404e+00   2.00419717e+00
C     4.870242915375000e+00   2.598326597040775e+00   1.127178880000000e-01  3.79874964e+00   2.66994630e+00  -1.19145450e+00
C     5.045354592674999e+00   3.151525622476631e+00   3.596703736000000e+00  2.12102437e+00  -1.43377877e+00   1.69817690e+00
C     6.337716107024999e+00   3.725329450980938e+00   3.672206176000000e+00 -2.77012400e-01   5.46963590e+00  -8.68640460e-01
C     6.095729078324999e+00   1.841932637797052e+00   6.969619200000000e-02  1.75835561e+00   2.77951898e+00  -5.51112310e-01
C     7.385224179750000e+00   2.702615261182637e+00   1.356474540000000e+01 -1.18720832e+00  -3.00594910e+00   2.01117644e+00
C     7.602685395150000e+00   3.100877613233400e+00   3.643436736000000e+00 -2.12000350e+00   2.74139309e+00  -4.76404260e-01
C     8.765326111949999e+00   3.918372547356868e+00   3.564340496000000e+00  2.09803232e+00  -2.01806913e+00   1.43321556e+00
C     2.409772562400000e+00   4.125362388202255e+00   1.355284798400000e+01  1.36772490e+00  -1.75959321e+00  -8.54993570e-01
C     3.678120589050000e+00   4.850633575523736e+00   1.347419279200000e+01  4.56225600e-01  -3.70519058e+00   1.56440325e+00
C     3.897733564575000e+00   5.314540787448493e+00   3.494456624000000e+00  4.76896800e-01   4.07022790e-01   9.77473060e-01
C     5.121028921800000e+00   6.043291087852419e+00   3.546780856000000e+00  5.84979390e-01  -7.72291420e-01   3.26410200e-01
C     4.916789152950000e+00   4.067423835853779e+00   4.976076800000000e-02 -1.13545362e+00   3.84773010e-01  -6.67955180e-01
C     6.127727982825000e+00   4.826940959528088e+00   1.358241016800000e+01 -2.25869760e-01  -1.22727549e+00   6.98049260e-01
C     6.368606353124999e+00   5.306559545133046e+00   3.625559808000000e+00 -1.66510094e+00  -1.90891339e+00  -3.05190110e-01
C     7.550593905900000e+00   6.070515459930122e+00   3.591670240000000e+00  8.47290820e-01  -3.85937578e+00   7.74325110e-01
C     7.350301698974999e+00   4.177009974012276e+00   3.803906400000000e-02  7.81126310e-01  -4.62767774e+00  -1.87253815e+00
C     8.574723684449999e+00   4.828234043232600e+00   1.339287676000000e+01  2.16522670e-01  -4.00634157e+00   2.23513790e+00
C     8.791138766174999e+00   5.335985316807546e+00   3.673970504000000e+00  1.91309720e-01  -9.21933500e-01  -1.68465522e+00
C     1.007187186487500e+01   5.957904462699189e+00   3.540204712000000e+00 -1.63811153e+00   2.01275393e+00   2.01690320e-01
C     7.423208966999999e+00   1.888406864107764e-01   7.080172240000000e+00 -2.61336180e-01   2.40520830e-01  -8.65253210e-01
C     1.282860899025000e+00   9.060932945934871e-01   7.006834784000000e+00 -2.77432993e+00   9.89940720e-01  -1.99008280e-01
C     1.072953824025000e+00   3.797388687442350e-01   9.783307288000000e+00 -4.10683600e-02   1.31665482e+00   1.32399018e+00
C     2.333929960050000e+00   1.085071103686970e+00   9.923523288000000e+00 -2.57495796e+00   8.35121150e-01  -3.99474700e-02
C     2.466231057975000e+00   2.328934628246226e-01   6.805263472000000e+00  1.41789868e+00  -1.06772981e+00   4.95777920e-01
C     3.749668397250000e+00   8.632619382387000e-01   6.756771584000000e+00 -1.28229870e+00   3.15336210e-01   5.83754610e-01
C     3.507364603725000e+00   4.041166762883250e-01   1.008584309600000e+01  1.41828420e+00  -9.06658670e-01  -1.11775749e+00
C     4.715403410400000e+00   1.115776189911583e+00   9.918724800000000e+00  3.06042906e+00   4.78668260e-01   5.24077010e-01
C     4.979169342675000e+00   2.327030001958662e-01   6.916472848000001e+00  3.47184080e-01  -2.29992326e+00   1.88510820e-01
C     6.178475874524999e+00   9.667655684520835e-01   7.075508256000000e+00  9.32176110e-01  -1.67868686e+00  -1.35842736e+00
C     6.050552616599999e+00   3.685568423929392e-01   9.836992336000000e+00 -1.90872832e+00   3.20408533e+00   7.11592910e-01
C     7.250031969599999e+00   1.198623590865901e+00   9.780618704000000e+00  2.20972240e-01  -4.35582563e+00  -1.97656070e-01
C     8.626570879874999e+00   2.344515483151242e+00   7.066617528000000e+00 -2.95434850e-01  -1.28499316e+00  -1.78550958e+00
C     2.461378717800000e+00   2.971601904497226e+00   6.869682728000000e+00  7.71432030e-01   6.76881500e-01   1.03800866e+00
C     2.321574135225000e+00   2.501116751239306e+00   9.875058056000000e+00 -5.87348240e-01   1.60385449e+00   1.78493650e-01
C     3.518461503750000e+00   3.279977167268802e+00   9.777881704000000e+00  1.38154117e+00  -1.66307387e+00   1.20999189e+00
C     3.707443575825000e+00   2.229499238795829e+00   6.801998112000001e+00  2.42829340e-01   4.27416128e+00   6.00693000e-03
C     4.914598569075000e+00   3.057638049482617e+00   6.846444544000001e+00  1.39083310e-01  -1.91722938e+00   1.63795830e-01
C     4.778227632899999e+00   2.596988811616399e+00   9.853831312000001e+00 -2.42762330e-01  -2.75555955e+00  -4.73196070e-01
C     6.081012251849999e+00   3.260586483405451e+00   9.799887184000001e+00 -4.18942841e+00  -2.11189735e+00  -2.10559040e-01
C     6.167576199150000e+00   2.375955842220761e+00   6.935406359999999e+00 -2.36479220e-01  -8.46173820e-01   1.15414710e-01
C     7.396275119850000e+00   3.048901296867426e+00   6.965710968000000e+00 -5.62651530e-01   2.07749962e+00  -7.77094600e-02
C     7.264455214574999e+00   2.595035705096835e+00   9.705702287999999e+00  4.53356180e-01  -2.39955156e+00   1.95940267e+00
C     8.458157408700000e+00   3.227839335519599e+00   9.922226664000000e+00  1.89977467e+00   2.37583258e+00  -8.00534890e-01
C     9.850279469700000e+00   4.375866855673514e+00   7.024767336000000e+00  7.78357190e-01   2.93600354e+00  -1.47688890e+00
C     3.732841666350000e+00   5.147727481904607e+00   6.971876120000000e+00 -3.31915680e+00   7.40869640e-01   4.32954370e-01
C     3.554408081100000e+00   4.689222325527340e+00   9.765448992000000e+00 -1.87128315e+00  -1.76037493e+00   6.96510130e-01
C     4.728852327149999e+00   5.349572141985271e+00   9.819442351999999e+00  3.45890332e+00   1.16585640e+00  -1.26505540e-01
C     4.915523572650001e+00   4.451918058186799e+00   6.923596256000000e+00  1.33861670e+00   1.19679780e+00  -7.05560400e-01
C     6.148667997600000e+00   5.243253392144368e+00   6.874434840000000e+00 -1.84665547e+00  -2.00363163e+00  -3.41074640e-01
C     5.999423290799999e+00   4.584339538383805e+00   9.829755639999998e+00 -6.45596890e-01   5.93007449e+00   1.34033911e+00
C     7.176087589800000e+00   5.372699838395089e+00   1.005207606400000e+01  1.04396125e+00  -1.50904010e-01  -8.09797860e-01
C     7.311093150149999e+00   4.520425557281635e+00   6.881056816000000e+00  4.80843370e+00  -1.55668800e+00   4.47203940e-01
C     8.637818157224999e+00   5.188477070199423e+00   6.965176624000000e+00 -4.63983200e-01  -9.49192210e-01  -3.17639760e-01
C     8.404266752925000e+00   4.699925825731337e+00   9.978283960000001e+00  3.35437251e+00  -1.42682613e+00   4.30721500e-02
C     9.759994062599999e+00   5.375393213080691e+00   9.882893832000001e+00 -3.84713067e+00   8.43737850e-01   3.37043260e-01
