72
Lattice="7.395 0 0 3.6975 6.40425786098592 0 0 0 13.6 " PBC="1 1 1" Properties=species:S:1:pos:R:3:force:R:3 Energy="-561.09016644"
C     3.706831602599999e+00   6.383313887435285e+00   1.321969898400000e+01 -1.75794232e+00  -7.88367820e-01   1.02591837e+00
C     1.181626011225000e+00   6.761943987016218e-01   1.318206588000000e+01  1.86951948e+00  -5.29150060e-01   1.42413444e+00
C     1.207615036200000e+00   8.291805272702952e-01   3.380423752000000e+00  3.21221362e+00  -3.38056313e+00   1.62872122e+00
C     2.525111379075000e+00   1.455034769404016e+00   3.378227216000000e+00 -3.99345170e-01   7.90893210e-01   8.81307220e-01
C     6.010313796375000e+00   6.325983803626086e+00   1.335499559200000e+01  6.27653069e+00  -2.66048490e-01  -4.84291080e-01
C     3.755954701875000e+00   7.356660022966255e-01   1.308427140800000e+01 -1.88102667e+00  -4.43664123e+00   3.85178736e+00
C     3.754558673775000e+00   7.650899807789239e-01   3.581970992000000e+00 -8.50822990e-01   1.24084741e+00  -2.42514920e-01
C     4.905531855375000e+00   1.530643950039805e+00   3.611798512000000e+00  4.16827263e+00  -5.04380360e-01   1.15931662e+00
C     8.700161297999999e+00   6.370923569753543e+00   1.322040890400000e+01 -3.66017664e+00  -1.70514946e+00   1.18858968e+00
C     6.178273288500000e+00   6.519105416203380e-01   1.335233747200000e+01 -9.36829530e-01   2.79297947e+00   1.43273412e+00
C     6.253241062350000e+00   7.796538395357713e-01   3.643088303999999e+00 -1.87573562e+00   1.50920350e+00   4.11529890e-01
C     7.494347535899999e+00   1.574979410395591e+00   3.470088008000000e+00 -4.36128388e+00  -4.94125094e+00   2.02734000e-01
C     1.331313678525000e+00   2.061926068056855e+00   1.322149948800000e+01 -5.52060908e+00   2.34483582e+00   2.72005900e-01
C     2.449808722650000e+00   2.748135829455416e+00   1.278767988800000e+01  1.42265396e+00   2.20529232e+00   4.44202803e+00
C     2.600185936725000e+00   2.867461947222873e+00   3.488040552000000e+00 -3.58289373e+00   1.81991171e+00  -6.78194430e-01
C     3.820986036074999e+00   3.663545013702374e+00   3.606363136000000e+00 -4.73830074e+00  -3.11193601e+00   1.05996606e+00
C     3.694139342250000e+00   2.093371294362348e+00   1.328189491200000e+01 -4.98066430e-01   6.23678570e-01  -3.99872655e+00
C     4.914519035850000e+00   2.788385949679730e+00   1.341132352800000e+01 -1.84399944e+00   1.81685207e+00   2.49824086e+00
C     4.960574504250000e+00   2.980350120733986e+00   3.841770840000000e+00  2.60566846e+00  -3.30769429e+00  -3.57035710e+00
C     6.219370594275000e+00   3.585360168640451e+00   3.580931816000000e+00 -1.36712325e+00   4.12356155e+00   5.62047190e-01
C     6.017925913575000e+00   2.126061508395825e+00   2.138114480000000e-01  6.86924010e+00  -3.13164420e+00  -3.52779922e+00
C     7.406236036949999e+00   2.854504276337314e+00   7.234302399999999e-02  1.94884790e-01  -4.44849194e+00  -1.60769630e+00
C     7.403321371650000e+00   2.897401660590637e+00   3.371592320000000e+00 -2.75488480e-01   3.16650186e+00   9.52988050e-01
C     8.543927650650000e+00   3.627329383802124e+00   3.470186880000000e+00  7.11581249e+00   1.50979231e+00  -9.23487360e-01
C     9.778581506024999e+00   4.212763152452455e+00   1.295291036800000e+01  3.79595551e+00  -1.19688437e+00   1.83039311e+00
C     3.714666272325000e+00   4.980214062891468e+00   1.320248818400000e+01 -8.95783000e-01  -2.71196008e+00   2.88588610e-01
C     3.696701672775000e+00   4.997526821249563e+00   3.764709296000000e+00 -3.73354950e-01   2.90828830e+00  -2.27347620e-01
C     4.811443606500000e+00   5.751483127824034e+00   3.668321880000000e+00  7.33070342e+00   2.69302404e+00  -1.51948869e+00
C     4.929210016800000e+00   4.212226539686366e+00   1.162256000000000e-03 -2.40315238e+00   1.01246057e+00  -2.29132968e+00
C     6.126998724900000e+00   4.916731024300695e+00   1.241584800000000e-01  1.06662966e+00   1.99548903e+00  -2.25272088e+00
C     6.239193816149999e+00   5.097106946927596e+00   3.569173664000000e+00 -2.90752361e+00  -2.25762186e+00   1.17927134e+00
C     7.487159448000000e+00   5.781466326102668e+00   3.710688872000000e+00 -2.57937025e+00  -3.74278770e-01  -2.78865527e+00
C     7.441303089974999e+00   4.200643606793033e+00   1.353677074400000e+01 -4.05618748e+00   9.42385130e-01   1.85440491e+00
C     8.614660271025000e+00   4.826036294062784e+00   1.334172403200000e+01  2.12370027e+00   5.46752662e+00  -2.20628839e+00
C     8.657834351625000e+00   5.090363839784223e+00   3.488524848000000e+00  1.04484769e+00  -2.39258204e+00   2.91177739e+00
C     9.916992500850000e+00   5.759505741645256e+00   3.819719120000000e+00 -1.91839338e+00   4.35013230e-01  -2.80401767e+00
C     7.373898848175000e+00   2.311341491479020e-02   7.485903760000000e+00  1.43589101e+00   1.85708123e+00  -4.16196042e+00
C     1.327565042100000e+00   7.545100827516252e-01   6.963224072000000e+00 -3.39511023e+00   2.75257870e-01   2.49450610e-01
C     1.312122951000000e+00   6.129001576325629e-01   1.020829341600000e+01 -7.34887694e+00  -3.38596270e-01  -1.13199553e+00
C     2.436435530700000e+00   1.314300754632466e+00   1.027983186400000e+01  1.00411820e+00   2.59078176e+00  -1.85238381e+00
C     2.471333497050000e+00   4.806510800571481e-02   6.621775264000000e+00  8.48492980e-01  -1.58327626e+00   3.13255600e-02
C     3.708561071250000e+00   7.531553260439209e-01   6.362523904000001e+00 -7.97805600e-02   7.36569140e-01   2.55969979e+00
C     3.613435821525000e+00   5.970978434907487e-01   1.044979106400000e+01  2.63062100e+00   4.38470237e+00   1.40621491e+00
C     4.861035400874999e+00   1.376734135359983e+00   1.058196252800000e+01  9.31794380e-01   4.85598830e-01  -5.67835039e+00
C     4.895142176175000e+00   5.954979958347420e-02   6.931409048000000e+00 -4.36339330e-01   1.11137187e+00  -2.08996606e+00
C     6.103840764749999e+00   7.144235272730556e-01   7.141564271999999e+00  2.36018480e+00   2.47252502e+00   9.88241990e-01
C     6.098427772649999e+00   6.577373915916804e-01   1.033505806400000e+01 -7.95419760e-01  -7.98019710e-01   1.32038114e+00
C     7.217881985249999e+00   1.442088626182604e+00   1.005544927200000e+01  4.68389997e+00  -7.72042928e+00   1.32971873e+00
C     8.632148965350000e+00   2.208540344310300e+00   6.735743128000000e+00  2.97145299e+00  -3.07042648e+00   1.78927728e+00
C     2.491145774325000e+00   2.919717617316700e+00   6.663781992000000e+00  2.24571760e-01   4.76871700e-02  -1.83270457e+00
C     2.403724635600000e+00   2.770341568903709e+00   9.972052984000001e+00  1.10679040e+00  -5.81955050e-01   9.41877560e-01
C     3.619318691925000e+00   3.544450922197185e+00   9.899172759999999e+00  1.29824968e+00  -4.69565393e+00   5.59352100e-01
C     3.674104401525000e+00   2.200627435426220e+00   6.270649240000000e+00  2.08313939e+00   5.40278100e-01   3.90454403e+00
C     5.002391750250000e+00   2.973387411588594e+00   6.587997080000000e+00 -1.82865098e+00  -6.69021018e+00   7.52845550e-01
C     4.948678500525000e+00   2.764558844269022e+00   9.920081536000000e+00 -3.36518193e+00  -1.06685870e-01   3.42651639e+00
C     6.154775158350000e+00   3.474552610422895e+00   1.008807132000000e+01 -1.81540406e+00   2.41814056e+00   1.48229557e+00
C     6.189558095474999e+00   2.184573241822772e+00   7.036671416000000e+00 -1.55627191e+00  -1.46121856e+00  -2.33704414e+00
C     7.441691845125000e+00   2.797148575496676e+00   6.971386792000000e+00 -1.99339832e+00   4.96150676e+00  -5.46348490e-01
C     7.309291839075000e+00   2.728496468259362e+00   1.017428185600000e+01  2.16035732e+00   5.11251253e+00  -8.32858240e-01
C     8.583500994825000e+00   3.445893236286501e+00   1.007736308800000e+01 -6.55780010e-01   2.28299624e+00   2.40907935e+00
C     2.543281559625000e+00   4.348040931655021e+00   6.892365623999999e+00 -3.15081776e+00   8.28197500e-02   1.37484519e+00
C     3.689365278150000e+00   5.049211936010642e+00   7.241218136000000e+00  2.90781089e+00  -1.84497645e+00  -2.71675201e+00
C     3.568213547775000e+00   4.875022974774553e+00   1.010978834400000e+01  5.77145147e+00   1.50832616e+00  -9.14231570e-01
C     4.896130222125000e+00   5.601352273579663e+00   1.014900027200000e+01 -4.99842400e-02   2.71623310e-01   1.53024727e+00
C     4.986350442300000e+00   4.271288911204115e+00   6.828288408000000e+00 -1.74706128e+00   5.16014954e+00   1.03290480e+00
C     6.218513957474999e+00   4.945946800359966e+00   6.657501920000001e+00 -2.05749318e+00   3.72667095e+00   1.94032912e+00
C     6.103897743225000e+00   4.922891856319437e+00   1.043052707200000e+01  1.37506432e+00  -7.74334250e-01  -1.42677752e+00
C     7.356124669874999e+00   5.710983946011544e+00   1.076839064800000e+01 -4.23290940e-01  -6.97366482e+00  -3.30116682e+00
C     7.398718169024999e+00   4.319096760171594e+00   6.818099696000000e+00  3.33682001e+00  -2.49884891e+00   1.20792510e-01
C     8.641646031075000e+00   5.085721009006037e+00   6.948224495999999e+00 -2.37434880e-01  -3.69287889e+00  -5.86014570e-01
C     8.649434482049999e+00   4.900475480830130e+00   1.052937908000000e+01 -3.02550271e+00  -1.41363387e+00  -1.49702610e+00
C     9.865192078800000e+00   5.554552582884505e+00   1.040601198400000e+01 -3.54899454e+00   4.33784711e+00  -1.82682770e-01
