72
Lattice="7.395 0 0 3.6975 6.40425786098592 0 0 0 13.6 " PBC="1 1 1" Properties=species:S:1:pos:R:3:force:R:3 Energy="-558.64196535"
C     1.092926561707500e+01   6.272833330624061e+00   1.352091790400000e+01  3.92007068e+00   1.17989963e+00  -2.30924948e+00
C     1.263510513450000e+00   5.258428537313953e-01   1.347707150400000e+01 -3.36547434e+00   4.49871000e-01  -4.40756610e-01
C     1.316676089475000e+00   9.153105586759135e-01   3.857808504000000e+00 -1.21031481e+00   3.25019500e-02  -3.88324510e-01
C     2.603747072925000e+00   1.537465253171648e+00   3.980424064000000e+00 -8.79863800e-02  -1.54079910e-01  -1.13162038e+00
C     6.231427808999999e+00   6.170364372310539e+00   1.327274156800000e+01 -5.36138457e+00   5.32001842e+00   1.99979204e+00
C     3.671317558800000e+00   4.680058729125780e-01   1.348081327200000e+01  4.20470860e-01   2.58922200e+00  -1.08768843e+00
C     3.907839238799999e+00   9.516678507600265e-01   3.740950368000000e+00  9.88417900e-02   5.98873430e-01   3.56716680e-01
C     5.217884379675000e+00   1.702948842656061e+00   3.696463680000000e+00 -6.75725115e+00   8.65132490e-01  -2.07414135e+00
C     8.581290777225000e+00   6.322184157437749e+00   1.330316721600000e+01  2.34223700e-01  -4.23793613e+00  -5.23012950e-01
C     6.008951415525000e+00   6.105904620353538e-01   1.314854745600000e+01  6.82335461e+00   1.76290730e+00   1.33254954e+00
C     6.298681118850000e+00   8.986136977962145e-01   3.523396063999999e+00 -2.54556260e-01   5.66403794e+00   6.86627760e-01
C     7.429183535399999e+00   1.578155538038680e+00   3.811745984000000e+00  6.47373973e+00   5.05502623e+00   9.48359630e-01
C     1.224229271775000e+00   1.981109841525415e+00   1.351002484800000e+01 -1.43185435e+00  -1.73112160e-01  -9.31699060e-01
C     2.434944328949999e+00   2.681870461037368e+00   2.295859520000000e-01  1.60232338e+00  -2.19436513e+00  -2.36144842e+00
C     2.552017975650000e+00   2.893695772737370e+00   3.926629264000000e+00  4.89646214e+00   2.93586670e+00  -4.63074800e-01
C     3.769566419550000e+00   3.644293238192007e+00   3.669541392000000e+00  2.46590980e-01   3.96943156e+00  -2.16664401e+00
C     3.659172565425000e+00   1.845887779366231e+00   1.350015682400000e+01  7.05617450e-01   6.13898469e+00   9.86035370e-01
C     4.898993307300000e+00   2.733275773772544e+00   1.312507807200000e+01 -9.41050120e-01  -1.12002666e+00   4.74859420e-01
C     5.093059146074999e+00   3.146304102958216e+00   3.379585176000000e+00 -1.02843576e+00  -3.23877489e+00   4.05401419e+00
C     6.237550129499999e+00   3.899259552114327e+00   3.614791736000000e+00  4.52489598e+00   6.69625800e-01   1.12682252e+00
C     6.173673191775000e+00   2.033789217319260e+00   1.290250074400000e+01 -3.06403513e+00  -7.33667240e-01   1.70499448e+00
C     7.380527060625000e+00   2.722775288542710e+00   1.299720135200000e+01  3.06753231e+00   9.35214200e-02   2.79771559e+00
C     7.610540733900000e+00   3.235958269379035e+00   4.046365432000000e+00 -7.31777999e+00  -5.61903818e+00  -3.17145277e+00
C     8.874523935749998e+00   3.726613056383818e+00   3.975092592000000e+00 -2.83936010e+00   2.00969697e+00  -4.23586240e-01
C     2.532596302275000e+00   4.068758162978909e+00   2.241770960000000e-01 -4.00710103e+00   1.92201304e+00  -3.02684082e+00
C     3.654158570550000e+00   4.843296729634163e+00   1.358425745600000e+01  1.96855888e+00   1.07912170e-01  -6.49432380e-01
C     3.712472804400000e+00   5.220680688720698e+00   3.431654816000000e+00  1.38977300e+00  -1.37035522e+00   1.52504779e+00
C     4.968860010149999e+00   5.943804784552034e+00   3.648748352000000e+00 -1.00970183e+00  -9.30661230e-01  -1.02866991e+00
C     4.863825793200000e+00   4.180189880167501e+00   1.312723693600000e+01  8.86258510e-01   6.37113700e-02   3.88523280e-01
C     6.149102416874999e+00   4.969344116025690e+00   1.280566643200000e+01  1.79910690e-01  -8.42814490e+00   1.98120926e+00
C     6.215303381250000e+00   5.327120350949998e+00   3.660599936000000e+00  1.36565864e+00  -2.30657041e+00  -4.18473240e-01
C     7.500787397700000e+00   5.963525415780333e+00   3.629124640000000e+00  1.79602935e+00  -3.07538047e+00   1.43569919e+00
C     7.456298855849999e+00   4.181029990713576e+00   1.307707374400000e+01 -1.50557658e+00  -5.54263410e-01  -1.95235505e+00
C     8.677012951349999e+00   4.879537656352960e+00   1.325725633600000e+01 -7.02885900e-02  -2.24651189e+00   3.06915970e+00
C     8.791979392800000e+00   5.092606034503588e+00   3.705636064000000e+00 -1.30619589e+00   6.30573984e+00  -1.88187693e+00
C     9.899180829899999e+00   6.027207947003443e+00   3.369355392000000e+00  1.10446965e+00  -1.14295908e+01   1.53917290e+00
C     7.445132220974999e+00   1.674286266390738e-01   6.529221280000000e+00 -9.00890280e-01  -1.03269570e-01   6.86146390e-01
C     1.301681026125000e+00   7.636529934002970e-01   6.834557600000000e+00 -2.65205960e+00   4.45125903e+00   2.24060170e-01
C     1.082924650425000e+00   4.617569183056831e-01   9.928188087999999e+00  7.28233440e-01   4.67912325e+00   1.71095319e+00
C     2.232435174975000e+00   1.189287912055643e+00   1.018988527200000e+01  5.02782259e+00   1.46941311e+00  -1.21700961e+00
C     2.435151167100000e+00   1.897111531391076e-01   7.194026952000000e+00  4.65015652e+00  -5.08408224e+00  -3.04181310e-01
C     3.659203624425000e+00   9.732315633578539e-01   7.435119456000000e+00 -7.14411460e-01  -3.89350129e+00  -3.22114470e+00
C     3.643942636874999e+00   4.711096964844270e-01   9.868474023999999e+00 -4.25942917e+00   1.42278335e+00   6.93074490e-01
C     4.794540004575000e+00   1.298970434294934e+00   9.856457471999999e+00  1.88869992e+00  -3.13136974e+00   1.56307995e+00
C     4.694230379175001e+00   2.029659815893710e-01   6.806011744000000e+00  4.96864184e+00  -7.90336480e-01   1.00593737e+00
C     6.076856076975000e+00   8.789663953204134e-01   6.573593592000000e+00 -4.98978050e-01  -5.66405833e+00   9.12948080e-01
C     6.007295342249999e+00   4.834856045859841e-01   9.822533631999999e+00  7.84869900e-02  -1.39958486e+00   7.30375800e-01
C     7.249582057800000e+00   1.137079953682873e+00   1.004435167200000e+01 -2.36671052e+00   2.31146838e+00  -1.32736198e+00
C     1.302461087700000e+00   2.221097428866716e+00   7.011940087999999e+00  1.79493906e+00   6.32946940e-01  -1.52132860e-01
C     2.585548828350000e+00   3.112315105430731e+00   7.174456960000001e+00 -4.04754582e+00  -1.43182586e+00   6.04801500e-01
C     2.285996346525000e+00   2.702911586193819e+00   1.037226848000000e+01  2.94973803e+00  -6.06229118e+00  -5.55465490e-01
C     3.557796026400000e+00   3.275432705891346e+00   1.034281509600000e+01  6.68158150e-01   4.59197579e+00  -6.05558480e-01
C     3.705676318725000e+00   2.345838218569646e+00   7.543617808000000e+00  2.09157366e+00   3.30834496e+00  -3.74205604e+00
C     4.972246402500000e+00   3.021719192891600e+00   7.161358120000000e+00 -5.45450400e-01  -4.94948338e+00   2.15628740e-01
C     4.805032696125000e+00   2.686815380658810e+00   1.015027241600000e+01 -1.72944294e+00  -2.00802752e+00  -5.32202000e-03
C     5.952952851975001e+00   3.441781830825539e+00   1.007136902400000e+01  4.33894685e+00  -4.55245578e+00  -1.07010182e+00
C     6.131732855999999e+00   2.147916998981754e+00   6.861635336000000e+00  1.75410781e+00   6.59525078e+00   1.79945916e+00
C     7.474642301249999e+00   2.818124249137798e+00   6.976187727999999e+00 -1.72452001e+00   2.50926491e+00  -1.97134950e-01
C     7.210023836400000e+00   2.601744997758707e+00   1.002327072000000e+01  1.24216365e+00   2.83210770e-01   1.07662542e+00
C     8.538158589300000e+00   3.327175394930587e+00   1.014842213600000e+01 -6.87804284e+00   8.10411870e-01  -2.30544852e+00
C     9.886734194474998e+00   4.541966214551166e+00   6.962523127999999e+00  2.24279254e+00  -1.34481719e+00  -1.60952943e+00
C     3.855858896400000e+00   5.206682518060624e+00   6.682322055999999e+00 -3.42350832e+00  -3.44112118e+00   1.80289567e+00
C     3.626078720250000e+00   4.758520750467884e+00   1.020335212800000e+01 -1.19881234e+00  -4.68606370e-01  -1.26197324e+00
C     4.944986214000000e+00   5.569794076165520e+00   9.998800104000001e+00 -4.60305586e+00  -7.58597389e+00  -1.19170440e-01
C     5.061828545100000e+00   4.337432598722824e+00   6.907171672000000e+00 -5.05534000e-01   5.21368178e+00  -1.73265180e-01
C     6.345859148250000e+00   5.009875319127479e+00   7.035742536000000e+00 -5.14426200e+00   3.39450455e+00  -4.78428860e-01
C     6.074452849875000e+00   4.761292064971642e+00   9.794416992000000e+00 -4.45269470e-01   3.70259222e+00   1.27849833e+00
C     7.294322991000000e+00   5.450717916582339e+00   9.589146344000000e+00  2.13746620e-01   5.08241230e-01   2.03934031e+00
C     7.506839391749999e+00   4.300967010638298e+00   7.072317423999999e+00 -2.15581998e+00  -2.43481076e+00  -6.61589140e-01
C     8.551680420749999e+00   5.107105274298628e+00   6.850589552000001e+00  4.11949894e+00   3.16161723e+00   1.95213990e-01
C     8.451447851249998e+00   4.656716233907338e+00   9.684036672000000e+00  3.20683973e+00   1.23251097e+00   2.57245995e+00
C     9.702016670999999e+00   5.331518154822460e+00   9.888158391999999e+00  1.64420161e+00   4.15475037e+00  -8.58889900e-02
