72
Lattice="7.395 0 0 3.6975 6.40425786098592 0 0 0 13.6 " PBC="1 1 1" Properties=species:S:1:pos:R:3:force:R:3 Energy="-575.65693421"
C     3.706767968624999e+00   6.194780157103739e+00   1.357476261600000e+01 -5.73872200e-02   1.63713760e-01  -3.38212700e-01
C     1.277716641225000e+00   4.914123466670418e-01   5.068108000000000e-02 -2.29286737e+00   2.53881094e+00  -4.59421220e-01
C     1.413408975225000e+00   1.018397591915504e+00   3.701944344000000e+00  3.50761660e-01   7.18530210e-01  -4.43255740e-01
C     2.594423493900000e+00   1.820564767404584e+00   3.848713232000000e+00  1.68141442e+00  -3.57524698e+00  -1.39992477e+00
C     6.207656544524999e+00   6.248126728481439e+00   1.349422858400000e+01 -3.18146948e+00  -2.12292104e+00   9.21517190e-01
C     3.705311264550000e+00   5.161845924527292e-01   1.352286596800000e+01 -2.10971391e+00   1.16949231e+00  -3.93867240e-01
C     3.843926842050000e+00   1.081930455632427e+00   3.686387848000000e+00 -2.08612965e+00  -3.76257563e+00   2.73669050e-01
C     5.080761372000000e+00   1.668407029590101e+00   3.612426152000000e+00  2.41606100e-02   6.44054240e-01  -1.78157780e-01
C     8.544813719550000e+00   6.238803345846271e+00   1.344428408000000e+01  4.87703798e+00  -2.58931998e+00  -1.12613560e-01
C     6.117210481049999e+00   4.862866988887908e-01   1.351257974400000e+01  1.03113069e+00  -9.71425480e-01   3.72951140e-01
C     6.303836099400000e+00   9.784641622423669e-01   3.494412560000000e+00  2.07337323e+00   7.73978660e-01   5.38358590e-01
C     7.572623906700000e+00   1.691596078790218e+00   3.621043928000000e+00 -1.36785061e+00  -3.94309310e-01   5.20415500e-02
C     1.189005999375000e+00   2.006692802313599e+00   1.176474800000000e-01  2.22960572e+00  -3.11290148e+00  -8.75585800e-01
C     2.433006062475000e+00   2.674656128600656e+00   1.292214880000000e-01  6.20580600e-02   8.73017260e-01  -1.17804671e+00
C     2.608883861775000e+00   3.191473333644796e+00   3.746594096000000e+00  1.44578010e-01   1.59566293e+00  -5.77215100e-02
C     3.840805930200000e+00   3.891524361385862e+00   3.661343720000000e+00  2.41651598e+00  -5.64317160e-01  -1.21542952e+00
C     3.653574032774999e+00   1.886331436263074e+00   1.357227980000000e+01  1.43181894e+00   4.17331779e+00   1.44114971e+00
C     4.956751104375000e+00   2.589221151300584e+00   3.228925600000000e-02 -3.19651593e+00   2.32170771e+00  -1.05893662e+00
C     5.045299647825000e+00   3.041218428925677e+00   3.621268736000000e+00  1.67114422e+00   5.54786215e+00   4.32762200e-01
C     6.361533553274999e+00   3.825752312950768e+00   3.651794344000000e+00 -3.42886264e+00  -1.95008655e+00  -2.80150230e-01
C     6.121301025299999e+00   1.864220800044003e+00   1.357686980000000e+01  2.26167811e+00   2.40358913e+00  -4.29747700e-01
C     7.386893748899999e+00   2.653569277043085e+00   1.351058108800000e+01 -2.58944143e+00  -2.18703020e-01   1.22748599e+00
C     7.550101990500000e+00   3.098899594150760e+00   3.720332088000000e+00  1.99714437e+00   1.75227292e+00  -6.88442390e-01
C     8.793204855225000e+00   3.872851530786038e+00   3.676304536000000e+00 -1.59308556e+00   1.34708357e+00   4.89667330e-01
C     2.405326688399999e+00   4.165666048022278e+00   1.359601996000000e+01  2.34135746e+00  -4.23835503e+00  -1.91691210e-01
C     3.689072694975000e+00   4.770047710147520e+00   1.354684698400000e+01 -5.69152120e-01   1.81956067e+00   1.90632410e-01
C     3.940939739475000e+00   5.357108992847812e+00   3.424884872000000e+00 -2.64601213e+00  -3.40669976e+00   1.45840284e+00
C     5.153893817775000e+00   6.016385071432937e+00   3.512475944000000e+00  1.23737220e-01  -3.41720910e-01   6.03425710e-01
C     4.921477102275000e+00   4.111135137238529e+00   1.354659266400000e+01 -4.10879010e-01  -3.32586499e+00   6.03429300e-01
C     6.114875546775000e+00   4.816723734623401e+00   1.350730308000000e+01  1.60892441e+00  -1.30336690e-01  -4.18823880e-01
C     6.331656828900000e+00   5.212890805630108e+00   3.623446640000000e+00  1.30043714e+00   1.86581597e+00  -2.11052880e-01
C     7.569586151625000e+00   5.952237463004033e+00   3.632811735999999e+00 -1.93388914e+00   3.90356156e+00   4.16956600e-01
C     7.326423280949999e+00   4.062822376581369e+00   1.348382009600000e+01  1.85248052e+00   6.51296530e-01  -4.72963340e-01
C     8.609815177950001e+00   4.800032509490618e+00   1.340614124800000e+01 -3.28826345e+00   6.70860610e-01   1.13215800e+00
C     8.807040900224999e+00   5.382569760396029e+00   3.637312520000000e+00  4.02216800e-02  -5.77722983e+00  -5.93101620e-01
C     1.004433695212500e+01   5.989210908736855e+00   3.477498920000000e+00  1.18955113e+00   1.52325048e+00   7.08107600e-02
C     7.443395948925000e+00   1.970382005141550e-01   7.031036663999999e+00 -1.05717122e+00  -9.78686580e-01  -3.59686250e-01
C     1.250899006500000e+00   9.506917137770053e-01   7.045489656000000e+00  4.85837410e-01  -3.43116076e+00  -1.05758953e+00
C     1.102947093600000e+00   4.033838370614052e-01   9.794041088000000e+00 -2.36963674e+00  -6.54583900e-01   3.78915950e-01
C     2.287075609800000e+00   1.089032393343695e+00   9.958411911999999e+00  9.88298860e-01   1.15089536e+00   3.87445090e-01
C     2.507351621025000e+00   2.111341001491722e-01   6.842474296000000e+00 -2.13054630e+00   1.75224648e+00   7.22732780e-01
C     3.743428274399999e+00   8.436149559757919e-01   6.792796760000000e+00  1.70925584e+00   1.24054437e+00   7.98820830e-01
C     3.473025995175000e+00   3.531410892555547e-01   1.009262800000000e+01  3.49319820e+00   1.51702032e+00  -1.39618804e+00
C     4.820728361774999e+00   1.155891500507944e+00   9.898925783999999e+00 -3.40193768e+00  -2.06547042e+00   1.32834809e+00
C     5.028188653125000e+00   1.785801046803774e-01   6.925917368000000e+00 -1.64455600e+00   1.10208929e+00  -3.09034390e-01
C     6.239317719374999e+00   9.157871635458547e-01   7.062599408000001e+00 -8.58670820e-01   1.81179637e+00  -1.48180074e+00
C     6.019840885800000e+00   4.608448879438405e-01   9.782335295999999e+00  3.35911420e-01  -1.62850608e+00   5.59727970e-01
C     7.269446876549999e+00   1.172276730200176e+00   9.707179655999999e+00  4.27897140e-01  -1.37985633e+00   5.78276780e-01
C     8.624088267450000e+00   2.302069663119627e+00   7.121695623999999e+00 -1.34447492e+00   2.57914138e+00  -1.48897094e+00
C     2.471205859350000e+00   2.896394911255046e+00   6.989805952000000e+00  1.23204851e+00   4.73154010e+00   5.38252300e-02
C     2.320952511525000e+00   2.523378976241924e+00   9.957271688000001e+00 -6.30107750e-01   2.01611585e+00  -1.29862500e-01
C     3.559195530150000e+00   3.271186682930166e+00   9.865217912000000e+00 -1.33242232e+00  -2.04231083e+00   8.66625940e-01
C     3.751861495425000e+00   2.267127583937416e+00   6.861351640000000e+00 -3.39324204e+00  -1.77322009e+00   1.69490530e-01
C     4.910217438300000e+00   2.966292774731286e+00   6.899928447999999e+00  1.09054670e+00   5.23981678e+00   1.43922300e-02
C     4.779087042824999e+00   2.558391822473487e+00   9.894756839999999e+00  3.58008560e-01  -8.21924330e-01  -9.30949500e-01
C     5.988685935675000e+00   3.211678895278253e+00   9.709612288000001e+00  1.46834776e+00   2.84095597e+00   8.69792830e-01
C     6.160221427950000e+00   2.453768471815861e+00   6.960554256000000e+00  1.52587786e+00  -5.99660232e+00   2.13478190e-01
C     7.363658880750000e+00   3.136237698326132e+00   7.000085919999999e+00  1.70421590e+00  -2.08851581e+00   9.48820400e-02
C     7.285109079824999e+00   2.590041920987921e+00   9.664436216000000e+00 -1.60160118e+00  -6.98132150e-01   1.98087662e+00
C     8.473116236550000e+00   3.326430451656312e+00   9.930999888000001e+00  1.54481997e+00  -4.05493217e+00  -8.83750380e-01
C     9.865138871774999e+00   4.413456711225362e+00   7.024261416000001e+00 -1.69903497e+00  -1.34526972e+00  -8.99135140e-01
C     3.654542075250000e+00   5.119973861957355e+00   6.954845112000000e+00  2.35045958e+00   1.76230647e+00   3.29519600e-01
C     3.553150228575000e+00   4.640968099787020e+00   9.748363992000000e+00 -1.84811320e+00   2.33350504e+00   9.92004900e-01
C     4.787391812699999e+00   5.352123214061224e+00   9.764588247999999e+00 -1.94107965e+00   2.54099184e+00   3.07291690e-01
C     4.907312867174999e+00   4.443051811477679e+00   6.959397984000001e+00 -6.74693160e-01   2.21043780e-01  -9.76533080e-01
C     6.099192008925000e+00   5.259587772029191e+00   6.889122568000000e+00  1.29561155e+00  -4.76268569e+00  -1.52729150e-01
C     5.976392376749999e+00   4.695356067535333e+00   9.797429527999999e+00  8.95897620e-01  -3.76052505e+00   4.85169190e-01
C     7.175664632774999e+00   5.343532478525241e+00   1.001437604800000e+01  1.90065021e+00   2.01898350e+00  -3.79547970e-01
C     7.352994994950000e+00   4.502972033335777e+00   6.905315000000001e+00  1.20405867e+00   2.59464668e+00   1.68113800e-01
C     8.647203706350000e+00   5.203161200918881e+00   6.964408224000000e+00 -5.72073500e-02  -2.85687299e+00  -2.00476840e-01
C     8.465919496500000e+00   4.690467185170166e+00   9.961792191999999e+00 -1.15043129e+00   1.27128492e+00   2.44305540e-01
C     9.656287580925000e+00   5.381762439650197e+00   9.850535895999998e+00  3.22131045e+00   1.63811432e+00  -9.05050000e-02
