72
Lattice="7.395 0 0 3.6975 6.40425786098592 0 0 0 13.6 " PBC="1 1 1" Properties=species:S:1:pos:R:3:force:R:3 Energy="-575.89423056"
C     3.728531453625000e+00   6.219278877036225e+00   1.358551776800000e+01 -1.80112984e+00  -1.04978092e+00  -8.48711760e-01
C     1.276771560225000e+00   4.597495677220446e-01   3.630669600000000e-02 -1.58061937e+00   3.64463155e+00  -1.18540890e-01
C     1.392577888800000e+00   1.048022215796556e+00   3.677680992000000e+00  8.82232840e-01  -6.93516990e-01  -5.37919810e-01
C     2.619928405200000e+00   1.755833474914319e+00   3.805884384000000e+00  4.19774490e-01   1.18188990e-01  -1.52043942e+00
C     6.216504957825000e+00   6.246611993412391e+00   1.352497328800000e+01 -3.60911505e+00  -2.19914969e+00   5.61141500e-01
C     3.696207169125000e+00   5.136233376067794e-01   1.354211704000000e+01 -8.27813300e-02   1.10672844e+00  -5.69514440e-01
C     3.851234987775000e+00   1.062249594845439e+00   3.651980120000000e+00 -1.50454477e+00  -2.94565397e+00   5.63392580e-01
C     5.073554426849999e+00   1.671603266602870e+00   3.652501272000000e+00  1.51621893e+00   1.49747348e+00  -1.08075972e+00
C     8.543995499775001e+00   6.180194203657274e+00   1.349809316000000e+01  3.45548663e+00   1.47720473e+00  -4.94820860e-01
C     6.099539980650000e+00   4.370065750818768e-01   1.354044600800000e+01  1.98836303e+00   1.59128549e+00   5.97734430e-01
C     6.350110533750000e+00   9.669721057680684e-01   3.508554248000000e+00 -9.79458250e-01   1.56441987e+00   8.14208230e-01
C     7.555987412175000e+00   1.735861092309545e+00   3.596835928000000e+00  3.09177760e-01  -3.55753183e+00   3.95776200e-02
C     1.204860842400000e+00   1.923764771752824e+00   1.083540560000000e-01  1.19606813e+00   9.85267520e-01  -1.13073746e+00
C     2.452087787700000e+00   2.652918476359352e+00   1.000275920000000e-01 -7.25021100e-01   1.06509337e+00  -1.36008086e+00
C     2.641115819700000e+00   3.163005190648103e+00   3.688550248000000e+00 -1.45228860e+00   2.66647685e+00   3.29077860e-01
C     3.848452471125000e+00   3.946113166660665e+00   3.693242248000000e+00  1.50068826e+00  -3.33409822e+00  -1.70915603e+00
C     3.694444349025000e+00   1.912181326518864e+00   1.352302835200000e+01 -1.45196232e+00   1.70047719e+00   2.12438596e+00
C     4.906568412524999e+00   2.580967856111245e+00   8.443165599999999e-02  6.15093360e-01   2.80931618e+00  -1.40754791e+00
C     5.032800507900000e+00   3.090948323762099e+00   3.601038464000000e+00  2.73070408e+00   2.33939531e+00   1.39990286e+00
C     6.363222201525000e+00   3.755424595686964e+00   3.666631128000000e+00 -3.18691058e+00   3.25521718e+00  -7.17605100e-01
C     6.095061568650000e+00   1.836778298943588e+00   3.211708000000000e-02  2.41554969e+00   3.12564717e+00  -5.73006190e-01
C     7.397206150350000e+00   2.690534012985219e+00   1.353201972000000e+01 -2.26419777e+00  -2.07636531e+00   1.97865519e+00
C     7.577899129950000e+00   3.081609506865490e+00   3.679701816000000e+00  2.66158720e-01   4.14335959e+00  -5.81940680e-01
C     8.774089371824999e+00   3.901658138810632e+00   3.607239928000000e+00  9.29069900e-01  -8.22775060e-01   1.25122139e+00
C     9.788319796650001e+00   4.161389412708528e+00   1.357407187200000e+01  3.08784127e+00  -3.79752169e+00  -5.46806950e-01
C     3.682808760225000e+00   4.820687970238741e+00   1.350095772800000e+01  8.55849900e-02  -1.33862476e+00   1.06336719e+00
C     3.923992137300000e+00   5.343908856759674e+00   3.457802855999999e+00 -1.44899091e+00  -2.17594392e+00   1.32374465e+00
C     5.131900200375000e+00   6.033040240593968e+00   3.529436368000000e+00  7.61648590e-01  -2.67296200e-01   4.97231690e-01
C     4.925875944074999e+00   4.095930916738260e+00   4.999496000000000e-03 -1.59842879e+00  -1.85338585e+00  -5.86669200e-02
C     6.117347288549999e+00   4.823403567699116e+00   1.354904569600000e+01  9.29602820e-01  -1.59230760e-01   2.10794300e-01
C     6.352421988900000e+00   5.271269970919352e+00   3.626027104000000e+00 -8.86615300e-02  -1.42861725e+00  -2.93110170e-01
C     7.563590692350000e+00   6.012032929919017e+00   3.606351711999999e+00 -8.81331500e-01   1.36208825e+00   6.74925230e-01
C     7.329369707775000e+00   4.140380949267163e+00   1.357800907200000e+01  2.27816541e+00  -3.01614562e+00  -1.52588406e+00
C     8.604099286649998e+00   4.824302981672975e+00   1.338921999200000e+01 -2.92840946e+00  -1.99321081e+00   2.03410134e+00
C     8.797496987175000e+00   5.379502377051403e+00   3.664041824000000e+00  9.81128200e-02  -4.77848241e+00  -1.29917966e+00
C     1.005930262035000e+01   5.957897225887808e+00   3.512651520000000e+00  2.84393800e-02   2.95853213e+00   6.50664700e-02
C     7.435589823899999e+00   1.934753197389012e-01   7.061876432000000e+00 -7.12634320e-01  -1.37950360e-01  -6.49589930e-01
C     1.275143144250000e+00   9.340552450489261e-01   7.026758512000001e+00 -1.43665842e+00  -1.60778549e+00  -6.06168700e-01
C     1.094529106275000e+00   3.877859468304822e-01   9.783623759999999e+00 -1.71641661e+00   5.84746600e-01   9.46295040e-01
C     2.321542632525000e+00   1.081265757709137e+00   9.938147912000000e+00 -1.98433336e+00   1.14964886e+00   7.11981900e-02
C     2.486593634175000e+00   2.139240510433026e-01   6.818376728000000e+00 -3.68167940e-01   2.07867488e+00   6.12863680e-01
C     3.744141744000000e+00   8.502263275349845e-01   6.768905504000000e+00  4.74738380e-01   8.93623340e-01   7.15342060e-01
C     3.472664453625000e+00   3.817385342184414e-01   1.009530121600000e+01  4.28526577e+00  -1.01015590e-01  -1.33533727e+00
C     4.763596070775000e+00   1.138890117167002e+00   9.904906384000000e+00 -2.80755630e-01  -1.12019220e+00   1.05970738e+00
C     5.005041341775000e+00   2.123615402106198e-01   6.920995391999999e+00 -8.93871260e-01  -8.31317910e-01  -6.73677800e-02
C     6.202639665600000e+00   9.412651585477140e-01   7.077369687999999e+00  6.16709900e-01   6.46489430e-01  -1.54753683e+00
C     6.043464730950000e+00   4.023405834560113e-01   9.809883456000000e+00 -1.46034609e+00   1.60421097e+00   7.12446750e-01
C     7.254313563674999e+00   1.206060791476141e+00   9.748125448000000e+00  9.17456570e-01  -4.20374566e+00   7.70433500e-02
C     8.633408370824998e+00   2.323847918355764e+00   7.098757728000001e+00 -1.70999920e+00   2.09182090e-01  -1.71486290e+00
C     2.456171491575000e+00   2.921201611948020e+00   6.918767847999999e+00  2.06763138e+00   3.61224134e+00   6.84866300e-01
C     2.324988406725000e+00   2.497322484627571e+00   9.910758192000001e+00 -7.80976210e-01   2.89972082e+00   1.06100000e-03
C     3.536360361750000e+00   3.290214373458013e+00   9.810252016000000e+00  8.23164500e-02  -3.02388939e+00   1.16725367e+00
C     3.736912946625000e+00   2.240975284625478e+00   6.827479751999999e+00 -1.94449835e+00   1.28174044e+00   4.63178800e-02
C     4.910259257025000e+00   3.005475497298074e+00   6.869127848000001e+00  4.11196480e-01   2.35372221e+00   1.18263060e-01
C     4.776465182550000e+00   2.591431580900963e+00   9.875702968000001e+00  4.74662030e-01  -2.47642889e+00  -8.47209480e-01
C     6.050938672575000e+00   3.233665993363206e+00   9.759330216000000e+00 -2.47277334e+00   1.08798306e+00   2.25682830e-01
C     6.160639134525000e+00   2.433874733497607e+00   6.944859448000000e+00  6.85894150e-01  -4.98389327e+00   3.20076970e-01
C     7.378033910325000e+00   3.083551982317006e+00   6.980476216000000e+00  7.76802440e-01   9.96244550e-01   2.71138500e-02
C     7.277792171024999e+00   2.601208513077775e+00   9.677856016000000e+00 -8.43323610e-01  -1.83400857e+00   2.04373728e+00
C     8.452069474949999e+00   3.273527567263154e+00   9.930440248000000e+00  2.75766924e+00  -1.95938420e-01  -9.05998890e-01
C     9.859406378699999e+00   4.388290219325813e+00   7.031303632000000e+00 -4.17513890e-01   1.00801268e+00  -1.45042503e+00
C     3.702859859025000e+00   5.129944971232482e+00   6.962187752000000e+00 -1.18700638e+00   1.10391868e+00   4.93711980e-01
C     3.569837711625000e+00   4.665085254036208e+00   9.753575511999999e+00 -3.56513928e+00   4.91864520e-01   9.14119920e-01
C     4.744382048999999e+00   5.338763675994950e+00   9.795323703999999e+00  2.56291019e+00   2.48586821e+00   3.94645500e-02
C     4.909640554349999e+00   4.443839086896409e+00   6.943614232000000e+00  6.14589980e-01   9.29056230e-01  -9.20172690e-01
C     6.130200833849999e+00   5.277439576771362e+00   6.881698463999999e+00 -8.21084240e-01  -5.77306591e+00  -1.78849400e-01
C     5.990337682874999e+00   4.629567111859490e+00   9.811029392000000e+00 -3.05372710e-01   9.96376750e-01   1.01856075e+00
C     7.169075281049999e+00   5.353573138040728e+00   1.003873555200000e+01  1.32538012e+00   1.27899616e+00  -6.49119900e-01
C     7.311213540750000e+00   4.508660038996714e+00   6.889844591999999e+00  3.99882837e+00   6.88533630e-01   3.81312970e-01
C     8.643707683124999e+00   5.207774764238647e+00   6.966078847999999e+00 -4.07793760e-01  -2.66451127e+00  -2.60793570e-01
C     8.422452906675000e+00   4.696952841147567e+00   9.970231400000001e+00  2.10423428e+00  -4.19801350e-01   1.83052740e-01
C     9.716807854199999e+00   5.372790138430915e+00   9.868408880000000e+00 -7.22270790e-01   1.03095533e+00   1.01397230e-01
