72
Lattice="7.395 0 0 3.6975 6.40425786098592 0 0 0 13.6 " PBC="1 1 1" Properties=species:S:1:pos:R:3:force:R:3 Energy="-572.6127008"
C     3.668567358300000e+00   6.175208040615214e+00   1.354371381600000e+01  1.60259333e+00   2.38677005e+00   9.18171440e-01
C     1.184075568000000e+00   6.342303069462361e-01   5.658701600000000e-02  9.05445330e-01  -4.97320137e+00  -9.31822170e-01
C     1.458454989150000e+00   9.812290084456861e-01   3.740481576000000e+00 -2.44223844e+00   3.31411160e-01  -5.00241980e-01
C     2.605053325725000e+00   1.806880725592543e+00   3.892840880000000e+00  5.79861900e-02  -1.77329860e+00  -3.68104250e-01
C     6.079614375000000e+00   6.195861131787928e+00   1.346502435200000e+01  2.45493570e+00   2.07977983e+00   6.56929680e-01
C     3.648502874550000e+00   5.589301957947708e-01   1.345881364000000e+01  8.65020600e-01  -3.83528050e-01   5.44942820e-01
C     3.774792983700000e+00   9.844887756964261e-01   3.771900840000000e+00  3.08453620e+00   1.76495383e+00  -1.28920505e+00
C     5.061151163100000e+00   1.698084488598498e+00   3.525482032000000e+00 -6.11519430e-01   3.96332180e-01   2.10079594e+00
C     8.690423968725000e+00   6.260760792217331e+00   1.331964783200000e+01 -4.74667734e+00  -1.76683633e+00   1.63001987e+00
C     6.203877921375000e+00   5.523822904309711e-01   1.345607052000000e+01 -1.39751188e+00  -1.10521203e+00  -2.24751130e-01
C     6.304953631800000e+00   1.035261860095663e+00   3.480860703999999e+00  1.59326250e-01  -8.98095940e-01   2.47970500e-02
C     7.558469765774999e+00   1.628029656762109e+00   3.687469999999999e+00  1.18194372e+00   4.47456446e+00   1.88422810e-01
C     1.217829490875000e+00   2.031988724264499e+00   1.001955520000000e-01 -1.51368712e+00  -2.54373572e+00  -3.17245590e-01
C     2.414600942775000e+00   2.736844674550186e+00   1.531863200000000e-01  1.60361277e+00  -4.67119632e+00   1.47451550e-01
C     2.596009980224999e+00   3.260923411411466e+00   3.883166792000000e+00  2.25807376e+00  -4.30648983e+00  -1.20438589e+00
C     3.898632426825000e+00   3.783905611241957e+00   3.541076336000000e+00 -3.11840018e+00   4.37860197e+00   1.42542065e+00
C     3.639004292850000e+00   1.993148629493221e+00   1.377727600000000e-01  1.82816071e+00  -1.54973581e+00  -2.36315674e+00
C     4.927592804250000e+00   2.689235613746682e+00   1.346325390400000e+01 -1.04772244e+00  -3.85125555e+00   9.05248600e-01
C     5.125761278100000e+00   3.139228486746752e+00   3.671590096000000e+00 -3.75127784e+00  -3.75859662e+00  -1.65291394e+00
C     6.254410951350000e+00   3.829695350472592e+00   3.612059768000000e+00  6.14201404e+00   6.58510060e-01   7.33992040e-01
C     6.202349042100000e+00   1.984516714579199e+00   1.342149143200000e+01 -5.94486037e+00  -4.07114281e+00   1.66342730e-01
C     7.331158558275000e+00   2.597224680433383e+00   1.350270301600000e+01  5.57368793e+00   4.09998153e+00  -4.27588900e-01
C     7.549174250775000e+00   3.171920878227902e+00   3.788817471999999e+00 -2.05151910e+00  -3.64503325e+00  -5.07193010e-01
C     8.743162668375000e+00   3.887390092724339e+00   3.856191872000000e+00  1.41455763e+00  -9.22673460e-01  -1.11681703e+00
C     2.477025058800000e+00   4.041707794587263e+00   4.135025600000000e-02 -2.86722968e+00   5.76942049e+00  -1.43077370e-01
C     3.686516391375000e+00   4.745178696025568e+00   5.688689600000000e-02  6.66797670e-01   1.23366278e+00  -1.52258762e+00
C     3.884538148424999e+00   5.254247773740365e+00   3.409281592000000e+00  7.14639940e-01   1.00633581e+00   3.56677500e-01
C     5.177683532774999e+00   5.956273682477718e+00   3.500077912000000e+00 -2.94184379e+00   1.05955876e+00   6.46765430e-01
C     4.915804693575000e+00   4.024050551198878e+00   1.343489708800000e+01  4.18615060e-01   4.09655216e+00   1.03042257e+00
C     6.161293481100000e+00   4.768739128138987e+00   1.337080844800000e+01 -1.36656070e+00  -5.17356840e-01  -9.19559910e-01
C     6.338442406950000e+00   5.228869685161122e+00   3.609219680000000e+00 -7.85537500e-02   4.42321210e-01   1.66233150e-01
C     7.528120611824999e+00   5.964267733308885e+00   3.709802968000000e+00  1.74209139e+00  -4.87499350e-01  -1.06282344e+00
C     7.379172259650000e+00   3.969432926763705e+00   1.324732452800000e+01 -8.29028430e-01   4.86807214e+00   2.34599839e+00
C     8.544187843725000e+00   4.765944374051461e+00   1.348440435200000e+01  3.78953800e+00   9.11081060e-01  -1.45522999e+00
C     8.815471643924999e+00   5.204823682216759e+00   3.551956880000000e+00 -1.24463064e+00   6.67024426e+00   6.20676910e-01
C     1.004386411582500e+01   6.053410263569269e+00   3.397656584000000e+00 -5.77647720e-01  -5.41603435e+00   6.62290530e-01
C     7.420033960724999e+00   1.525885522407246e-01   6.938871776000000e+00  3.40823170e-01   9.25159900e-01   1.55323330e-01
C     1.230502228425000e+00   8.753700202765519e-01   7.039952688000000e+00  4.76108420e-01   2.23788697e+00  -7.11067070e-01
C     1.059317998650000e+00   4.142978452212600e-01   9.836327568000000e+00  2.57693217e+00   1.30134866e+00  -4.43148000e-03
C     2.276031547050000e+00   1.154067247656523e+00   1.002822261600000e+01  1.84617116e+00  -9.47593500e-01  -1.09410020e-01
C     2.465650883249999e+00   2.225279793504768e-01   6.934747576000000e+00  1.17801038e+00  -3.09856639e+00  -2.01031870e-01
C     3.791287309350000e+00   8.716384513492657e-01   6.893790360000000e+00 -2.67857065e+00  -5.84903020e-01   5.97295170e-01
C     3.593454087825000e+00   3.857265936730206e-01   1.002304482400000e+01 -3.75529261e+00   1.42575143e+00   4.19029900e-02
C     4.782807245475000e+00   1.100461880218701e+00   9.945302055999999e+00  9.19518890e-01   6.27315020e-01  -3.20969100e-01
C     5.016992771025000e+00   1.543802074196382e-01   6.921601272000000e+00 -1.80518120e-01   9.83413630e-01  -4.47151320e-01
C     6.253866975149999e+00   9.221987863023937e-01   6.957252175999999e+00 -2.36388872e+00  -2.45353806e+00  -4.02302010e-01
C     6.013397622299999e+00   4.834756139437225e-01   9.735810784000000e+00  4.79773960e-01  -2.45969236e+00   4.20176050e-01
C     7.279579468574999e+00   1.088190809818312e+00   9.642756047999999e+00 -2.52898807e+00   4.07333868e+00   1.66327801e+00
C     8.575244551275000e+00   2.359200574509379e+00   7.111407631999999e+00  2.96012653e+00  -1.03994627e+00  -2.66557830e-01
C     2.508354087225000e+00   3.029152807117437e+00   7.155236760000000e+00 -2.77387616e+00  -2.25004604e+00  -1.88690727e+00
C     2.298465462750000e+00   2.616673450915524e+00   1.006865963200000e+01  1.53415048e+00  -4.84489728e+00  -3.99208300e-02
C     3.553039192650000e+00   3.192865811431296e+00   1.003239482400000e+01  3.69722300e-01   4.08326250e+00  -1.06915106e+00
C     3.689111222925000e+00   2.274443936201838e+00   6.961222832000001e+00  2.73607196e+00   1.90430700e+00   6.44538650e-01
C     4.946490763725000e+00   3.059039173017227e+00   6.974286992000000e+00 -1.03391540e+00  -4.13180925e+00  -4.06243070e-01
C     4.783836111825000e+00   2.481394454903965e+00   9.901221871999999e+00 -1.12733460e+00   3.01888303e+00  -1.13712350e-01
C     5.942721684599999e+00   3.275471899949450e+00   9.642321120000000e+00  2.79050557e+00  -1.56287605e+00   2.24854074e+00
C     6.213809221500000e+00   2.285741751535242e+00   7.002314144000000e+00 -1.09676775e+00   5.03307551e+00  -6.21499640e-01
C     7.408048736325000e+00   3.130180999540195e+00   7.049844376000000e+00 -1.99093370e-01  -2.50375889e+00  -6.34306180e-01
C     7.243574877450000e+00   2.539694271438324e+00   9.719287872000001e+00  8.15250650e-01   1.02648678e+00   3.15522200e-01
C     8.540654512724998e+00   3.282679443872829e+00   9.895916511999999e+00 -4.98779661e+00   1.43767020e+00   1.80703560e-01
C     9.831603766950000e+00   4.404106943047812e+00   6.975118768000000e+00  2.85182909e+00   8.92065310e-01   5.01411380e-01
C     3.652838267250000e+00   5.170932541749375e+00   6.946686744000000e+00  4.35886710e-01  -1.63161311e+00  -4.44255850e-01
C     3.471887313075000e+00   4.679445393350528e+00   9.785351776000001e+00  3.39600259e+00   3.69686460e-01   7.36319770e-01
C     4.772997704025000e+00   5.458429475599301e+00   9.712221720000001e+00 -9.75088700e-01  -4.54033585e+00   1.38958303e+00
C     4.870359423600000e+00   4.436874072218187e+00   6.953937584000000e+00  1.62454289e+00   5.97884680e-01  -3.94894200e-01
C     6.120171845774999e+00   5.096731465289264e+00   6.901540320000000e+00  1.50530651e+00   5.26930053e+00   1.88522560e-01
C     5.991307500150000e+00   4.688402580521260e+00   9.783005911999998e+00 -1.97583900e-02   1.01086084e+00   2.14541000e-03
C     7.265706966225000e+00   5.392238908913057e+00   9.934283199999999e+00 -1.62205872e+00  -7.26166790e-01  -1.51989440e-01
C     7.443180310724999e+00   4.560276243943220e+00   6.951234992000000e+00 -4.23819060e+00  -4.31746306e+00   6.85086800e-02
C     8.666972870775000e+00   5.119193887392585e+00   6.948843432000000e+00  1.75087200e-01   3.96662316e+00  -3.38176610e-01
C     8.493357312899999e+00   4.721818204842539e+00   9.947541160000000e+00 -2.47040720e-01  -8.47982860e-01  -5.90462110e-01
C     9.681099543749998e+00   5.474796517199209e+00   9.804373959999999e+00  8.66829260e-01  -2.18515142e+00   7.23749650e-01
