72
Lattice="7.395 0 0 3.6975 6.40425786098592 0 0 0 13.6 " PBC="1 1 1" Properties=species:S:1:pos:R:3:force:R:3 Energy="-573.35075926"
C     3.693262886850000e+00   6.271292017884894e+00   1.312669810400000e+01  5.45758250e-01   1.06462696e+00   1.29895018e+00
C     1.330232788350000e+00   5.923815558749088e-01   1.319588728800000e+01 -3.60566120e+00   1.07510106e+00   3.19876090e-01
C     1.338212474025000e+00   9.196382999673871e-01   3.791550936000000e+00 -4.50746210e-01  -1.20041445e+00  -5.55808350e-01
C     2.521153686000000e+00   1.689684663989322e+00   3.741955000000000e+00  9.47010470e-01  -3.26742025e+00  -3.02394000e-02
C     6.271365135074999e+00   6.285734451912716e+00   1.324310784800000e+01 -5.28886310e+00   3.19803851e+00  -4.05895790e-01
C     3.714717593625000e+00   6.300163693169346e-01   1.315999457600000e+01 -1.70327336e+00  -3.42112940e-01   1.57045857e+00
C     3.756831527025000e+00   9.097419283814862e-01   3.674041904000000e+00 -1.16369870e-01  -6.97572700e-01   1.54473600e-02
C     5.038221745424999e+00   1.530558004899323e+00   3.575267960000000e+00 -2.70673233e+00   1.08263788e+00   1.95212796e+00
C     8.534565913424998e+00   6.321728686618746e+00   1.328315957600000e+01  3.26856615e+00  -2.78502918e+00   3.47637000e-03
C     6.069657192375000e+00   4.746507387403782e-01   1.320274536000000e+01  5.07211887e+00   4.80324230e+00  -5.67964250e-01
C     6.227746504049999e+00   7.898955287054832e-01   3.712800000000000e+00  1.91214400e-01   6.68567683e+00  -3.38415630e-01
C     7.431273547275000e+00   1.514021186423546e+00   3.772935391999999e+00  3.57537495e+00   3.32424716e+00  -5.40366480e-01
C     1.223474353200000e+00   2.035656378698342e+00   1.323301324800000e+01 -2.11093800e-01   4.24742110e-01  -6.74064920e-01
C     2.447766741300000e+00   2.805033946071958e+00   1.328582286400000e+01  2.54392720e-01  -2.73940319e+00   6.73083970e-01
C     2.499005661000000e+00   3.047618524018068e+00   3.726926183999999e+00  3.07006633e+00   2.07340395e+00  -6.58134030e-01
C     3.747524401875000e+00   3.742227341514863e+00   3.609045463999999e+00  1.76143808e+00   1.03716025e+00   1.93105675e+00
C     3.683321344650000e+00   1.970974527078758e+00   1.334323077600000e+01  3.92083740e-01   5.43786226e+00  -2.35526166e+00
C     4.938956959575000e+00   2.690719928590894e+00   1.306474684000000e+01 -1.07217817e+00   9.54315800e-01   2.09492615e+00
C     4.972757729775000e+00   2.956445267632857e+00   3.793509608000000e+00  3.44872440e-01   2.94512610e-01  -2.58532640e+00
C     6.205424326799999e+00   3.628391465925627e+00   3.752170232000000e+00  2.88415592e+00   3.02197551e+00  -4.28911560e-01
C     6.169142053424999e+00   1.942684294365415e+00   1.306343784000000e+01 -2.42316917e+00   2.22285330e-01   3.39472370e-01
C     7.318750118024999e+00   2.718370952327231e+00   1.302649507200000e+01  3.35739533e+00   1.08790741e+00   8.74615020e-01
C     7.558060711350000e+00   3.025169935111724e+00   3.703159096000000e+00 -5.22328006e+00  -2.47103534e+00   8.74928230e-01
C     8.735181244875001e+00   3.785169043232577e+00   3.747814696000000e+00 -1.71393850e+00  -1.46220555e+00  -6.26223450e-01
C     2.465133603000000e+00   4.203783166123741e+00   1.329953669600000e+01 -2.56249301e+00   6.46501700e-02   2.80336760e-01
C     3.672663596700000e+00   4.884467141712959e+00   1.319361241600000e+01  9.59209330e-01  -7.80219220e-01   2.55573280e-01
C     3.862759023000000e+00   5.243766885539583e+00   3.704101304000000e+00 -1.42786892e+00  -3.27791863e+00  -1.73420820e-01
C     5.143150324800000e+00   5.888086844573935e+00   3.689810832000000e+00 -4.67905884e+00   8.57053100e-01   3.98905870e-01
C     4.887735639975000e+00   4.170279611342044e+00   1.313166700000000e+01  1.27763999e+00  -7.12754370e-01   5.56634800e-02
C     6.096817918125000e+00   4.968182383649886e+00   1.315193249600000e+01  2.06707001e+00  -5.80849026e+00  -9.51275420e-01
C     6.259006278299999e+00   5.114684585390781e+00   3.686785920000000e+00  7.92294170e-01  -1.95093729e+00   6.93953480e-01
C     7.428415010024999e+00   5.866466646421782e+00   3.768084952000000e+00  3.11569880e+00  -1.04887740e-01  -1.35440127e+00
C     7.359148633275000e+00   4.240534832406873e+00   1.301232931200000e+01 -1.09226854e+00  -2.98612964e+00   2.43824416e+00
C     8.556849710624999e+00   4.919989062401814e+00   1.335682071200000e+01  7.59472640e-01  -2.16871453e+00  -2.08279973e+00
C     8.726502472875000e+00   5.155282392774314e+00   3.705454504000000e+00 -7.23051160e-01   2.70403660e+00   1.11061521e+00
C     9.965680922024999e+00   5.906753399001055e+00   3.804073816000000e+00  3.36234180e-01  -6.68782635e+00  -1.25453962e+00
C     9.620691637499999e-02   8.353976527156261e-02   6.661496920000000e+00 -2.67835780e+00   1.33589804e+00   1.05796031e+00
C     1.271692489350000e+00   8.020896199263949e-01   6.875205280000000e+00 -1.81001715e+00   2.67691167e+00  -4.92608730e-01
C     1.150012127400000e+00   4.918299683220925e-01   1.027524499200000e+01 -2.20902270e+00   3.47030991e+00  -1.17362778e+00
C     2.285709050775000e+00   1.211838969087747e+00   1.012000969600000e+01  5.34430666e+00   2.01228188e+00  -1.74434430e-01
C     2.457015778725000e+00   1.885017090422466e-01   7.007138199999999e+00  3.95995251e+00  -4.16658021e+00  -8.50835200e-02
C     3.793596804825000e+00   7.658351802235135e-01   7.046045624000000e+00 -6.99996040e-01  -8.23822820e-01   1.44028500e-01
C     3.607645055850000e+00   5.169560493545449e-01   9.905147783999999e+00 -2.21421852e+00   4.79083800e-01   2.88759237e+00
C     4.819582321650000e+00   1.273480143117983e+00   1.018809442400000e+01  6.26093390e-01  -1.41985987e+00  -1.86943104e+00
C     5.076397508549999e+00   8.844792445288800e-02   7.013701424000000e+00 -1.51159588e+00   4.13452400e-01  -1.65368636e+00
C     6.274283830649999e+00   9.022944809586708e-01   6.768915704000000e+00 -1.14923804e+00  -3.25076598e+00   1.03753600e+00
C     6.108796893750000e+00   5.946740240184745e-01   1.010950954400000e+01 -1.98553860e+00  -1.41224104e+00   5.61231840e-01
C     7.317824596800000e+00   1.299984804697379e+00   1.024710346400000e+01  4.47763480e-01  -1.15130942e+00   1.04527480e-01
C     8.597280985725000e+00   2.242878630061469e+00   6.897552664000000e+00  2.70545977e+00  -2.75277750e-01   1.01207126e+00
C     2.516559912000000e+00   2.867819881194668e+00   7.117261480000001e+00 -1.71273254e+00   3.00699310e-01  -2.63616950e+00
C     2.376118693875000e+00   2.691235471348624e+00   1.022450978400000e+01  7.37339500e-02  -1.99858279e+00  -3.25039770e-01
C     3.599449177349999e+00   3.362384595708138e+00   1.032976848000000e+01 -2.82039700e-02   1.72323310e+00  -1.28410812e+00
C     3.744707165700000e+00   2.123793440474706e+00   7.070927368000000e+00  2.94633660e-01   4.31469963e+00   2.86283740e-01
C     4.924502507700000e+00   2.965272192198717e+00   7.047396375999999e+00  1.14218554e+00  -2.75995867e+00  -4.47698280e-01
C     4.816930807424999e+00   2.694441186663026e+00   1.026973223200000e+01 -1.18506700e-01  -2.05460207e+00   1.25071690e-01
C     6.017948727149999e+00   3.381626188448509e+00   1.022328129600000e+01  2.68844077e+00  -9.07590600e-01   3.59279250e-01
C     6.205418854500000e+00   2.300248932610029e+00   6.893051608000000e+00 -2.80257330e-01  -2.54846310e-01  -2.11212410e-01
C     7.431304902074999e+00   3.002439622902120e+00   6.819688176000000e+00 -1.54437118e+00   1.47815493e+00   7.69457970e-01
C     7.344894844724999e+00   2.715037151855629e+00   1.028709562400000e+01 -8.46708350e-01   6.66851700e-02  -1.55274726e+00
C     8.617546909275001e+00   3.439927285834440e+00   1.014298880000000e+01 -4.28212331e+00  -6.76275270e-01   1.02062471e+00
C     2.466163578600000e+00   4.257940132291045e+00   6.799782808000000e+00  7.19718550e-01   2.82734987e+00   1.50132833e+00
C     3.684391992750000e+00   5.093776860925553e+00   6.740940503999999e+00  8.68080430e-01  -3.15149376e+00   1.19709396e+00
C     3.608838719775000e+00   4.798610444032806e+00   1.024243594400000e+01 -1.23892779e+00   6.24622530e-01  -5.70880730e-01
C     4.852817559225000e+00   5.552185377051714e+00   1.020144772000000e+01 -2.45030580e+00  -4.18509686e+00   3.58834170e-01
C     4.925409911175000e+00   4.330917355074110e+00   6.997790104000001e+00 -4.31375130e-01   4.10713408e+00  -1.14930111e+00
C     6.165854162475000e+00   5.142508972387387e+00   6.980228696000000e+00 -2.43789664e+00   2.64075000e-03   1.60374010e-01
C     5.998093669799999e+00   4.756416951760874e+00   1.018497934400000e+01  1.85330971e+00   2.42136063e+00  -9.01311810e-01
C     7.228833647475000e+00   5.464644551682117e+00   1.000568537600000e+01  5.38240180e-01   2.13322402e+00   1.91661030e-01
C     7.359449868599999e+00   4.486603262586245e+00   6.920321103999999e+00  2.56385606e+00  -3.53883680e+00  -7.50823200e-02
C     8.639060923949998e+00   5.061673212869473e+00   6.906053480000000e+00  1.92157302e+00   7.45566250e-01  -2.13398910e-01
C     8.465287076100001e+00   4.845704474419208e+00   1.007688654400000e+01  3.46532319e+00  -1.01645822e+00  -2.23542440e-01
C     9.751402366724999e+00   5.511384362566282e+00   1.006885601600000e+01  4.56699220e-01   1.93349114e+00   6.93426740e-01
