72
Lattice="7.395 0 0 3.6975 6.40425786098592 0 0 0 13.6 " PBC="1 1 1" Properties=species:S:1:pos:R:3:force:R:3 Energy="-574.19037248"
C     3.660783159450000e+00   6.125749750354635e+00   3.651315760000000e-01 -3.86990340e-01   3.30791060e+00  -9.18014400e-02
C     1.254080668275000e+00   3.763980235889874e-01   3.983703840000000e-01 -2.68589826e+00   3.79236445e+00  -9.29360600e-01
C     1.460211079800000e+00   1.107348314652980e+00   3.427492400000000e+00  1.59229200e-01   8.78947130e-01  -4.19528590e-01
C     2.706922704525000e+00   1.815324355325481e+00   3.450307624000000e+00  5.49321750e-01  -1.31277049e+00  -7.53960500e-02
C     6.189227908725000e+00   6.139168527806114e+00   3.037338320000000e-01 -3.88758002e+00   6.89707370e-01   8.70011400e-02
C     3.632981176275000e+00   4.262332684672062e-01   2.088833520000000e-01  4.21839144e+00   1.28092336e+00   1.53535106e+00
C     3.998287298925000e+00   1.147102168935723e+00   3.370479704000000e+00 -8.80210780e-01  -7.81538110e-01  -3.53347310e-01
C     5.262487026375000e+00   1.823624785852670e+00   3.217808280000000e+00 -3.66559491e+00   1.30541557e+00   1.84802175e+00
C     8.599354100025000e+00   6.115030239505988e+00   3.345726480000000e-01 -2.68309936e+00  -3.55763640e-01  -4.98773440e-01
C     6.048508786500000e+00   4.073750986449144e-01   2.963041520000000e-01  5.16559765e+00   1.75055264e+00  -2.66580920e-01
C     6.437607693075000e+00   1.066787780050192e+00   3.242755984000000e+00 -1.73065423e+00   5.22916698e+00   1.35005180e-01
C     7.592307400049999e+00   1.759021770647341e+00   3.379048520000000e+00  4.63922888e+00   5.17928811e+00   1.29373840e-01
C     1.212743801475000e+00   1.861250697376270e+00   3.341683200000000e-01 -8.74002000e-03  -8.01081600e-02   2.89155020e-01
C     2.425891665750000e+00   2.592115939895883e+00   4.660461600000000e-01  1.35891849e+00  -2.05228593e+00  -7.88130990e-01
C     2.692778768700000e+00   3.169896940616406e+00   3.416530664000000e+00  2.81118076e+00   3.57049933e+00  -8.04499420e-01
C     3.948378369974999e+00   3.912723031285668e+00   3.184595312000000e+00 -1.99257877e+00   2.67706717e+00   1.99241721e+00
C     3.673116503475000e+00   1.826696652177797e+00   4.133414000000000e-01 -6.58963580e-01   1.48876753e+00  -2.03749863e+00
C     4.881180157350000e+00   2.556420912117072e+00   1.599432080000000e-01  1.10560210e+00   1.00922063e+00   1.38571598e+00
C     5.162121790575000e+00   3.295015965788548e+00   3.376894280000000e+00  8.47313380e-01  -3.34209311e+00  -1.72137781e+00
C     6.329931464475001e+00   4.015553894210860e+00   3.408379504000000e+00  5.12565504e+00   4.02625870e-01  -4.21118140e-01
C     6.135546901200000e+00   1.798402961165210e+00   1.240673600000000e-01 -6.83773700e-01   3.48011579e+00   2.13915810e-01
C     7.397880463425000e+00   2.627172911464101e+00   1.615199920000000e-01 -1.76554864e+00  -2.62715106e+00  -7.44053770e-01
C     7.697006808375000e+00   3.359859973217148e+00   3.430594832000000e+00 -4.04659206e+00  -4.25790024e+00   3.83107590e-01
C     8.956906565175000e+00   3.981761699527412e+00   3.510454575999999e+00 -3.01536916e+00  -8.14676580e-01  -1.14420753e+00
C     2.475147468299999e+00   3.979814869180550e+00   4.473461600000000e-01 -2.33908581e+00   2.12518598e+00   2.27482590e-01
C     3.622248073275000e+00   4.801496971135466e+00   4.248184400000000e-01  2.59277709e+00  -5.81302714e+00  -6.26954910e-01
C     3.954062906475000e+00   5.444901121295837e+00   3.189940520000000e+00 -8.17696310e-01  -2.60441162e+00   6.91921580e-01
C     5.200134013274999e+00   6.133207572675183e+00   3.261628704000000e+00 -2.68473990e+00  -5.96241770e-01   3.80707960e-01
C     4.891314524175000e+00   4.053825098756434e+00   2.866144240000000e-01 -1.03576657e+00  -9.65916250e-01  -3.75557920e-01
C     6.083586155550000e+00   4.798017345712391e+00   2.224960000000000e-01  2.39348250e+00  -5.22270275e+00  -1.35793136e+00
C     6.370614058650000e+00   5.425280460532733e+00   3.330312784000000e+00  1.11681942e+00  -7.60214270e-01   8.21299580e-01
C     7.593115008000000e+00   6.119441044021906e+00   3.431889960000000e+00  2.88345648e+00  -9.23046690e-01  -1.01048518e+00
C     7.354233176774999e+00   4.042551811730632e+00   1.321512000000000e-02  8.44591280e-01   3.27971600e-02   3.65456360e+00
C     8.628000814049999e+00   4.710502137374234e+00   4.426460000000000e-01 -1.77624938e+00  -1.29383235e+00  -2.88738576e+00
C     8.860226220900000e+00   5.359945630781742e+00   3.371779320000000e+00  9.37500810e-01   3.68512368e+00   3.40823590e-01
C     1.010028175402500e+01   6.173855909653232e+00   3.262439944000000e+00 -2.16347100e-01  -8.16864602e+00   3.67178500e-02
C     7.329029205000000e+00   2.947388045954352e-01   6.311854928000000e+00  1.81995950e-01  -2.25165563e+00   2.57373600e-02
C     1.174420692975000e+00   9.488892354023082e-01   6.352229112000000e+00 -3.55430050e-01   1.57369441e+00   4.81015510e-01
C     1.056670034025000e+00   2.812924888351578e-01   1.038031913600000e+01  1.74031099e+00   1.69712316e+00  -3.94579920e-01
C     2.253227252775000e+00   9.598844495518279e-01   1.039458104800000e+01  3.57708975e+00   2.70488266e+00  -8.46933120e-01
C     2.394547292700000e+00   3.361051869647472e-01   6.459938528000000e+00  4.48421060e-01  -5.49659704e+00  -3.65548810e-01
C     3.596073729600000e+00   1.006177307279945e+00   6.463955832000000e+00  1.64835020e+00  -2.24363400e+00   3.04414170e-01
C     3.549825251700000e+00   2.564067596001912e-01   1.020862838400000e+01 -9.69802170e-01   2.66029134e+00   1.73054306e+00
C     4.818292522725000e+00   1.080310754777054e+00   1.034864922400000e+01 -1.98461886e+00  -3.14202202e+00  -1.30888502e+00
C     4.825734628874999e+00   2.458013726266098e-01   6.421740888000000e+00  1.34223813e+00   9.95866000e-01  -5.56525730e-01
C     6.108638936549999e+00   9.823655080455217e-01   6.300078279999999e+00 -2.04967111e+00  -1.14102913e+00   1.27161027e+00
C     5.989847875049999e+00   3.250671923727228e-01   1.028220764800000e+01  1.84274898e+00  -9.66191550e-01   3.36715700e-01
C     7.283833923000000e+00   1.012304645030079e+00   1.033620876000000e+01 -3.94085368e+00   8.34384820e-01   5.58864310e-01
C     8.604845663999999e+00   2.338175972338206e+00   6.360357831999999e+00 -1.77205959e+00   3.35252508e+00   7.53746500e-01
C     2.437538384025000e+00   3.120201628772428e+00   6.476675232000000e+00 -2.61142899e+00  -4.58924120e-01  -1.01690814e+00
C     2.281157058525000e+00   2.503938339167265e+00   1.041888615200000e+01  2.92400823e+00  -6.20802724e+00   3.25903600e-01
C     3.508941032850000e+00   3.105118000447663e+00   1.049842534400000e+01  2.91989098e+00   3.31897067e+00  -1.21822510e+00
C     3.605374199250000e+00   2.363026029856893e+00   6.501125719999999e+00  2.06173921e+00   4.12291436e+00   2.37947320e-01
C     4.845005407275000e+00   3.141292515012452e+00   6.518933152000000e+00  5.10685250e-01  -3.71589518e+00  -2.57652000e-01
C     4.797470310300000e+00   2.473967757276616e+00   1.036299518400000e+01 -2.35263010e+00  -1.07094905e+00   9.82515760e-01
C     5.976364349699999e+00   3.168910556820809e+00   1.036005160000000e+01  2.86055942e+00  -1.05523978e+00   7.26588000e-03
C     6.097835026425000e+00   2.386502053851716e+00   6.433222824000000e+00 -1.41441522e+00   7.41778160e-01  -2.44812240e-01
C     7.298750932124999e+00   3.071585754590754e+00   6.382189776000000e+00  2.82124451e+00   3.52271210e-01   2.44613290e-01
C     7.241966760750000e+00   2.431998990412992e+00   1.041173554400000e+01  1.17422565e+00   7.73921010e-01  -1.18137922e+00
C     8.564337332999999e+00   3.187789284310831e+00   1.033540323200000e+01 -7.23735338e+00  -4.31755210e-01   3.69965080e-01
C     9.774972043500000e+00   4.564262958503649e+00   6.330647816000000e+00  2.12270261e+00  -1.01850378e+00   1.22335858e+00
C     3.667827414600000e+00   5.256727054085707e+00   6.354998752000000e+00 -2.29829627e+00   2.95344770e-01   2.33609820e-01
C     3.566681488650000e+00   4.554197386425087e+00   1.043148913600000e+01 -7.19696300e-01   6.55474350e-01  -6.66359820e-01
C     4.856484111149999e+00   5.343761174573422e+00   1.033877045600000e+01 -3.64469044e+00  -5.41629112e+00   4.23515260e-01
C     4.871900245799999e+00   4.504234440645139e+00   6.488767128000000e+00  3.11447390e-01   2.32698300e+00  -5.25120140e-01
C     6.135416120624999e+00   5.200916572581530e+00   6.435526120000000e+00 -2.27665319e+00   3.10147163e+00   6.16149530e-01
C     6.026088514574999e+00   4.558133123092949e+00   1.029166495200000e+01 -6.57320720e-01   1.63200755e+00   5.54253500e-02
C     7.232530777725000e+00   5.243608508242705e+00   1.020380745600000e+01  9.86601050e-01   1.28490770e+00   8.12079100e-02
C     7.311849510750000e+00   4.513855172972746e+00   6.422020096000000e+00  1.11029981e+00  -1.33894744e+00   4.61860400e-02
C     8.534319992699999e+00   5.233088810239290e+00   6.377325328000000e+00  4.31105140e-01   8.37446330e-01   1.90029160e-01
C     8.463578054625000e+00   4.564805847442440e+00   1.024888248000000e+01  7.39777460e-01   1.24720280e-01   6.00112000e-02
C     9.666917486699999e+00   5.240707827730175e+00   1.028915575200000e+01  2.72023890e+00   2.67579636e+00   3.77221940e-01
