72
Lattice="7.395 0 0 3.6975 6.40425786098592 0 0 0 13.6 " PBC="1 1 1" Properties=species:S:1:pos:R:3:force:R:3 Energy="-566.26964593"
C     3.630381907725000e+00   6.197275127880838e+00   1.357792679200000e+01 -8.68360970e-01   7.60322670e-01   1.56016523e+00
C     1.183587608925000e+00   4.403941072769239e-01   1.351704557600000e+01  5.76402400e-01   8.10610800e-02   6.91559160e-01
C     1.372120286850000e+00   1.057405606327871e+00   3.290867616000000e+00  1.23352708e+00  -1.85353399e+00   1.53170283e+00
C     2.748709187325000e+00   1.604569323199042e+00   3.052071880000000e+00 -4.53604354e+00   5.95768532e+00   2.10531841e+00
C     6.146497491150000e+00   6.170958047014161e+00   1.812988800000000e-01 -1.67827128e+00  -8.70242270e-01  -1.21531660e-01
C     3.669209724975000e+00   4.171407593278926e-01   1.605036640000000e-01  9.01158130e-01   2.81373966e+00  -1.28224800e-02
C     3.930543404775000e+00   1.053312324916652e+00   3.447295360000000e+00  2.59410536e+00   2.79760976e+00  -2.49634680e-01
C     5.158424105700000e+00   1.801434224495505e+00   3.604470288000000e+00  5.24474690e-01   1.17889159e+00   1.13785421e+00
C     8.622966519900000e+00   6.194059357881596e+00   2.218262000000000e-01 -1.94703942e+00  -1.13729652e+00   5.99332840e-01
C     6.051303541875000e+00   5.379856468468482e-01   2.230352400000000e-01  5.07611403e+00   8.96128200e-01  -4.91660750e-01
C     6.432651046425000e+00   1.084475443663412e+00   3.828789640000000e+00 -4.32870547e+00   7.01992160e-01  -1.46490256e+00
C     7.551307967100000e+00   1.791597924848332e+00   3.453210000000000e+00  3.38095857e+00   1.01703754e+00  -7.12264620e-01
C     1.174016075550000e+00   1.840394271016501e+00   1.338801380800000e+01  2.82763810e-01   2.92663636e+00   2.66689753e+00
C     2.436591750075000e+00   2.557291955228611e+00   1.314691287200000e+01  4.54399000e-01   2.79402620e-01   3.18888693e+00
C     2.692830126975000e+00   3.121310974318938e+00   3.241438280000000e+00  1.21872139e+00   5.10389380e-01   6.77138680e-01
C     3.913076895450000e+00   3.937055688811846e+00   3.592084224000000e+00 -2.88312186e+00  -1.84364966e+00   4.09036120e-01
C     3.724065871950000e+00   1.848757335185561e+00   2.106952800000000e-02 -3.54249894e+00   7.58490910e-01  -2.58272288e+00
C     4.854157718100000e+00   2.628141427380269e+00   2.047300480000000e-01  2.73537489e+00   2.15366150e-01   1.58944327e+00
C     5.178967785450000e+00   3.321954003497329e+00   3.722663808000000e+00 -2.36678385e+00  -6.00125997e+00  -2.17740658e+00
C     6.376275042074999e+00   3.861511639478493e+00   3.512400872000000e+00  3.40909518e+00   6.56968483e+00   2.50843080e-01
C     6.128807098200000e+00   1.957193076504666e+00   4.705956320000000e-01  9.50501500e-02  -8.03052870e-01  -1.28444792e+00
C     7.453061953424999e+00   2.627595208227389e+00   5.203856400000000e-01 -9.28948980e-01  -6.58863380e-01  -4.58442079e+00
C     7.632564485924999e+00   3.219901834285337e+00   3.252901448000000e+00 -4.48463929e+00  -2.04231416e+00   1.82915692e+00
C     8.821048398300000e+00   3.884857016612973e+00   3.321531808000000e+00  3.62317612e+00  -9.58990950e-01  -7.73187330e-01
C     2.409028477500000e+00   4.005263340553675e+00   1.327080628800000e+01  9.58379880e-01   1.37476403e+00   3.53704973e+00
C     3.656989598400000e+00   4.803674610935601e+00   1.358207574400000e+01  4.02940980e-01  -3.63972668e+00  -8.80921050e-01
C     3.767140970475000e+00   5.283228321408438e+00   3.961796552000000e+00  4.00052267e+00   2.09805961e+00  -1.87561914e+00
C     5.006799687899999e+00   6.092183625973646e+00   3.758934600000000e+00  3.16336590e+00  -6.75184640e-01  -1.54094796e+00
C     4.907316157950000e+00   4.041121036482130e+00   2.527282560000000e-01 -7.43764630e-01   2.45902097e+00  -2.07679980e-01
C     6.176810779349999e+00   4.800444943696802e+00   5.448702640000000e-01 -1.47845150e+00  -1.85758359e+00  -2.61808738e+00
C     6.362350626825000e+00   5.471866377100524e+00   3.576597632000000e+00 -1.90495310e+00  -3.93897172e+00   4.91596480e-01
C     7.604658972749998e+00   6.131925120038718e+00   3.540901984000000e+00  9.24628610e-01  -6.88286661e+00  -6.09658790e-01
C     7.445949072675000e+00   4.093257907592654e+00   4.123891280000000e-01 -1.08892026e+00  -1.40562011e+00   1.43689885e+00
C     8.656492750725000e+00   4.781789148422887e+00   2.740949440000000e-01  6.62307730e-01  -2.06363907e+00  -3.56596053e+00
C     8.863713074325000e+00   5.247150062839285e+00   3.468450568000000e+00 -1.27167114e+00   5.84111730e+00   2.52899851e+00
C     1.004489416537500e+01   6.071246377879683e+00   3.900494552000000e+00 -2.21569586e+00  -2.67047180e+00  -2.11361794e+00
C     7.365119430225000e+00   2.567646935719866e-01   6.936438327999999e+00  2.45409090e-01  -1.38533429e+00  -1.37260640e+00
C     1.253386536600000e+00   8.825260739667372e-01   6.662626263999999e+00 -3.73432769e+00   2.72307844e+00  -9.16977000e-03
C     1.071964077225000e+00   3.745967620232838e-01   1.010102763200000e+01  1.89118221e+00   8.16831470e-01  -9.52329360e-01
C     2.333783723925000e+00   1.076880250011766e+00   9.757130823999999e+00 -2.26614057e+00   1.36782078e+00   5.55671600e-01
C     2.422009993275000e+00   2.347030499255442e-01   6.774458928000000e+00  1.99337342e+00  -3.66068599e+00  -4.46636640e-01
C     3.578758485000000e+00   1.016704370179898e+00   6.748846592000000e+00  3.29762540e-01  -9.84225010e-01  -5.21759620e-01
C     3.574685984549999e+00   4.083561028639092e-01   9.821238912000000e+00 -5.31359613e+00  -3.27427211e+00   7.00004250e-01
C     4.658463574275000e+00   1.077049066248956e+00   9.967260479999998e+00  9.74641433e+00   3.51824256e+00   9.12077140e-01
C     4.730577987375000e+00   2.796501809495394e-01   6.855367776000000e+00  4.21928025e+00  -2.83445893e+00  -2.34278350e-01
C     6.004833879524999e+00   9.348466191926863e-01   6.805532752000000e+00  2.16118812e+00  -4.48585735e+00   9.74520240e-01
C     6.011039541674999e+00   2.582716154464446e-01   1.031170863200000e+01 -6.84726160e-01   3.46924104e+00  -1.79865957e+00
C     7.247250488250000e+00   1.087313874789542e+00   1.023166719200000e+01 -2.53558399e+00  -2.26758736e+00   6.94579140e-01
C     8.643317670824999e+00   2.331121746347995e+00   6.406568320000000e+00  4.12057810e-01  -4.28201110e-01   2.21455250e+00
C     2.451339709500000e+00   3.192675733058012e+00   6.502182712000000e+00 -5.11898960e-01  -3.94155835e+00  -5.53973120e-01
C     2.279135487375000e+00   2.538869082813063e+00   9.609081904000000e+00  2.77744460e-01  -2.47808328e+00   1.60963702e+00
C     3.537460109175000e+00   3.258426903612481e+00   9.705257432000000e+00  1.04729440e+00  -5.72218900e-02   7.03265530e-01
C     3.637830632400000e+00   2.390216331282780e+00   6.556697632000000e+00  1.78545463e+00   3.63174939e+00   6.82197350e-01
C     4.947755752425000e+00   3.146673756721896e+00   6.633189200000000e+00 -1.48154090e+00  -7.07863258e+00   2.62926300e-01
C     4.806401843400000e+00   2.596683840857106e+00   9.815833591999999e+00 -1.79992336e+00  -3.17339076e+00   1.73865680e+00
C     6.042621663975000e+00   3.258093754118604e+00   1.020258400000000e+01 -3.57316788e+00  -2.21643230e+00  -4.60505630e-01
C     6.128115998475000e+00   2.244974359403576e+00   6.738381528000000e+00 -4.91443540e-01   5.89000329e+00  -7.56749620e-01
C     7.405463481300000e+00   2.872303374037298e+00   6.664695232000000e+00 -6.85159940e-01   4.74425647e+00  -1.27858060e-01
C     7.160785005375000e+00   2.495290413608593e+00   1.029593943200000e+01  4.51368530e+00  -1.97110772e+00  -2.47792570e+00
C     8.391349536674999e+00   3.103195250110355e+00   9.870655328000000e+00  3.85400330e-01   4.25449668e+00   1.85076062e+00
C     9.855652380899999e+00   4.554542191668269e+00   6.673451048000000e+00  1.24047518e+00   1.63968441e+00   1.68335162e+00
C     3.821358263400000e+00   5.226616282990503e+00   6.919457096000000e+00 -5.22521753e+00   5.40587270e-01  -1.49059298e+00
C     3.580857075075000e+00   4.651541273343565e+00   1.003689873600000e+01  1.50807372e+00  -2.11394344e+00  -6.42895460e-01
C     4.793920044749999e+00   5.357524052799719e+00   1.013037466400000e+01  1.28354624e+00  -8.79140200e-01   5.21576550e-01
C     4.986714017474999e+00   4.474527714178322e+00   6.712612792000000e+00  4.44809660e-01   3.00561786e+00   7.19164960e-01
C     6.244010623350000e+00   5.126098766089502e+00   6.745457472000000e+00 -2.57086539e+00   3.27078589e+00   8.85643100e-01
C     6.068463306600000e+00   4.598253557095599e+00   1.025201646400000e+01 -1.72713503e+00   5.66111816e+00  -1.91334384e+00
C     7.256940267674999e+00   5.391083324624798e+00   1.005214624000000e+01 -2.54191020e-01  -1.83086361e+00   6.54274110e-01
C     7.403019692625000e+00   4.411527492587616e+00   6.798489448000000e+00  8.42471130e-01  -2.32006818e+00  -8.67131680e-01
C     8.563865864775000e+00   5.192145429101632e+00   6.833633344000000e+00  1.01298337e+00   1.69146499e+00  -4.43631880e-01
C     8.399595738149999e+00   4.601067459914126e+00   1.002205868800000e+01  3.85907255e+00  -8.57248730e-01  -3.53999820e-01
C     9.794341840950000e+00   5.268187089270706e+00   1.015182417600000e+01 -6.29990157e+00   2.09519050e+00  -2.74647150e-01
