72
Lattice="7.395 0 0 3.6975 6.40425786098592 0 0 0 13.6 " PBC="1 1 1" Properties=species:S:1:pos:R:3:force:R:3 Energy="-574.79416352"
C     3.672404697750000e+00   6.176456102386971e+00   3.251081360000000e-01 -6.59036030e-01  -1.27899959e+00   8.27453330e-01
C     1.249973411325000e+00   3.872126376668550e-01   3.806698480000000e-01 -1.33345011e+00   3.43877240e+00  -1.13020503e+00
C     1.458730268025000e+00   1.127079769077062e+00   3.421292976000000e+00  7.34740000e-03   7.86063800e-02  -5.19934250e-01
C     2.685262564649999e+00   1.813259558548839e+00   3.397523168000000e+00  1.41017294e+00   2.61977650e-01   2.47454430e-01
C     6.199769000549999e+00   6.144877219219940e+00   3.048620880000000e-01 -4.24559721e+00   7.40834740e-01   1.41896590e-01
C     3.648349835024999e+00   4.224096703544719e-01   1.879994640000000e-01  3.52800133e+00   1.58206773e+00   1.76876429e+00
C     3.972046917900000e+00   1.147700134492111e+00   3.362603264000000e+00 -5.04003620e-01  -1.26256361e+00  -5.15809190e-01
C     5.243745840899999e+00   1.816443883641988e+00   3.218253816000000e+00 -2.84924787e+00   3.86593000e-01   2.17664293e+00
C     8.599432893749999e+00   6.092948934787915e+00   3.396032880000000e-01 -2.15359535e+00   1.18149359e+00  -1.54838880e-01
C     6.064288311450000e+00   3.867865623914292e-01   3.439249600000000e-01  4.01967832e+00   1.60454571e+00  -9.88367850e-01
C     6.456051858375000e+00   1.053900363873357e+00   3.298944928000000e+00 -3.46986166e+00   5.18671605e+00  -2.30653660e-01
C     7.591469657475000e+00   1.768098973610369e+00   3.381081448000000e+00  4.69879788e+00   4.57145763e+00   8.86855800e-02
C     1.239329529000000e+00   1.835529981001517e+00   2.874989680000000e-01 -1.63093371e+00   1.47305255e+00   5.78593020e-01
C     2.423851718025000e+00   2.584983966215251e+00   4.127560560000000e-01  1.27936896e+00  -2.16984690e-01  -6.96378430e-01
C     2.687671633800000e+00   3.201992006966953e+00   3.382469872000000e+00  2.57478033e+00   1.96847685e+00  -7.24814060e-01
C     3.943440358725000e+00   3.933261870498161e+00   3.198115616000000e+00 -1.35015038e+00   2.22572400e+00   2.09636035e+00
C     3.657964407300000e+00   1.843407602424789e+00   3.904523280000000e-01  1.85986090e-01   7.46255840e-01  -2.27250331e+00
C     4.885881824400000e+00   2.543638910024613e+00   1.650806080000000e-01  1.12877823e+00   1.14453408e+00   1.48020890e+00
C     5.128916243925000e+00   3.255327755148870e+00   3.408004280000000e+00  2.51584957e+00  -1.24084886e+00  -1.94900372e+00
C     6.347554267125000e+00   3.984967671012128e+00   3.435331032000000e+00  3.13589376e+00   9.90886500e-02  -7.02235620e-01
C     6.127334605800000e+00   1.749893013408540e+00   1.433706560000000e-01 -3.84504930e-01   5.64379615e+00   2.95404520e-01
C     7.382058823949999e+00   2.620871698113068e+00   1.822939920000000e-01 -1.00564534e+00  -2.18251757e+00  -1.09019670e+00
C     7.693241902950000e+00   3.300232041687782e+00   3.407730920000000e+00 -3.56554306e+00  -2.26963827e+00   6.09878280e-01
C     8.941720304099999e+00   3.969404619943964e+00   3.474936680000000e+00 -3.17002005e+00   1.35217029e+00  -9.66522030e-01
C     2.439972115499999e+00   4.026148650116393e+00   3.912801600000000e-01 -7.60322140e-01  -8.86893070e-01   7.83544880e-01
C     3.611290827825000e+00   4.789901037598677e+00   3.921500160000000e-01  3.44741015e+00  -2.86645328e+00  -6.82242460e-01
C     3.983293751550000e+00   5.464572759951506e+00   3.249726120000000e+00 -2.54950810e+00  -3.71581235e+00   3.52109300e-01
C     5.190715186649999e+00   6.144879652837926e+00   3.290816752000000e+00 -3.86693410e-01  -1.04740050e+00   4.84464220e-01
C     4.919859261150000e+00   4.038980733505318e+00   3.077960160000000e-01 -2.43439147e+00  -8.86928350e-01  -5.48109480e-01
C     6.098520875700000e+00   4.799350456028528e+00   2.820359840000000e-01  2.00186494e+00  -4.52772956e+00  -1.62458159e+00
C     6.391134961800000e+00   5.404236581545402e+00   3.340800696000000e+00 -4.07637600e-02  -6.30744810e-01   8.43255600e-01
C     7.611721456574999e+00   6.102598678403628e+00   3.430854320000000e+00  1.59592471e+00   7.79993480e-01  -8.70556480e-01
C     7.346255450774999e+00   4.092574829449307e+00   4.042192000000000e-02  9.23421370e-01  -2.97416765e+00   3.82262554e+00
C     8.613382267124999e+00   4.719311001932928e+00   4.795289280000000e-01 -2.11612507e+00  -1.16619290e+00  -3.47006903e+00
C     8.868856111950000e+00   5.436934544730890e+00   3.400073576000000e+00  2.74425420e-01  -1.81913990e+00   4.05897070e-01
C     1.008664548495000e+01   6.152253771508245e+00   3.332184824000000e+00  1.64906661e+00  -5.52299670e+00  -2.47826500e-01
C     7.323840096525000e+00   3.000336528663474e-01   6.306038752000000e+00  1.99022744e+00  -3.30645056e+00   3.47626400e-01
C     1.175511973125000e+00   9.680172166082418e-01   6.349950024000000e+00  1.83592860e-01  -4.88078470e-01   5.08612250e-01
C     1.072617573375000e+00   2.755268635689570e-01   1.040071968000000e+01  6.84383840e-01   1.59318025e+00  -8.36871920e-01
C     2.277673791675000e+00   9.769856112302286e-01   1.033329047200000e+01  1.83166555e+00   1.16157348e+00  -7.55875000e-01
C     2.419478056200000e+00   3.151203552348852e-01   6.484601720000000e+00 -1.36593738e+00  -3.64592758e+00  -4.69497420e-01
C     3.622010878650000e+00   9.791980901931228e-01   6.474415727999999e+00  1.08663564e+00  -1.44303042e+00   4.63999500e-01
C     3.518871371625000e+00   2.308192517889258e-01   1.014028267200000e+01  4.22598340e-01   4.08727592e+00   1.93445456e+00
C     4.830860547075000e+00   1.080633785543512e+00   1.032116158400000e+01 -3.44567755e+00  -2.65058790e+00  -1.37146966e+00
C     4.845448626600000e+00   2.697260789271048e-01   6.474923552000000e+00  2.12333114e+00  -5.06270520e-01  -9.75655340e-01
C     6.149261076599999e+00   9.767523041163888e-01   6.321497872000000e+00 -4.11164832e+00   1.05825345e+00   1.41346521e+00
C     5.979342427124999e+00   3.423381309269922e-01   1.030554497600000e+01  3.13003009e+00  -1.37389929e+00   7.73003000e-03
C     7.279841177624999e+00   1.053755883816035e+00   1.036145117600000e+01 -2.54939774e+00  -7.86081900e-01   6.93028970e-01
C     8.596079483099999e+00   2.328318794810408e+00   6.339704192000000e+00 -1.54557554e+00   4.34581082e+00   8.80805850e-01
C     2.437217330100000e+00   3.059121595815886e+00   6.482737704000000e+00 -2.51576775e+00   1.46638697e+00  -1.49882096e+00
C     2.285286315600000e+00   2.473724267392778e+00   1.033821816000000e+01  2.18826390e+00  -3.61983939e+00   5.21982510e-01
C     3.495851513100000e+00   3.138954896850974e+00   1.045703306400000e+01  3.50886422e+00   5.72633610e-01  -1.31431658e+00
C     3.616408722450000e+00   2.333167074180743e+00   6.487770112000000e+00  1.87944408e+00   3.85615828e+00   5.00765750e-01
C     4.855552378124999e+00   3.098560360611916e+00   6.535497680000000e+00 -6.38591510e-01  -3.56900060e-01  -3.12540800e-01
C     4.811150801475000e+00   2.481414051933017e+00   1.033896085600000e+01 -2.95871846e+00  -1.28173417e+00   9.93266060e-01
C     5.993431418100000e+00   3.162277666955207e+00   1.036471653600000e+01  2.07714067e+00  -3.56271200e-02   9.19035700e-02
C     6.081008369475000e+00   2.430366993382528e+00   6.443970496000000e+00  9.72370310e-01  -1.75404370e+00  -5.82187290e-01
C     7.298791604624999e+00   3.128172880445613e+00   6.354592792000000e+00  1.66139891e+00  -2.45147588e+00   4.65941440e-01
C     7.251858608550000e+00   2.478224795561315e+00   1.042928008800000e+01  1.13449190e+00  -8.18082920e-01  -1.40072712e+00
C     8.553191367149999e+00   3.194214163881141e+00   1.030376881600000e+01 -5.38974952e+00  -1.15111666e+00   7.29566310e-01
C     9.777304463475000e+00   4.531094730663501e+00   6.309358920000000e+00  1.62760109e+00  -6.04722110e-01   1.86646358e+00
C     3.679653905325000e+00   5.226665659818604e+00   6.371032880000000e+00 -3.74943634e+00   1.45026462e+00  -1.53768480e-01
C     3.589972521825000e+00   4.534948813043649e+00   1.042606572800000e+01 -2.25200776e+00   2.10936485e+00  -8.66149430e-01
C     4.855012543125000e+00   5.295714062532293e+00   1.034067840000000e+01 -4.16548499e+00  -1.77910642e+00   6.78674360e-01
C     4.857943699274999e+00   4.516967322079813e+00   6.517198064000000e+00  1.16041971e+00   3.66417520e-01  -3.85102040e-01
C     6.107732753250000e+00   5.250265542160439e+00   6.479273512000000e+00 -1.68788856e+00   6.45494290e-01   4.28760820e-01
C     6.013345339650000e+00   4.562927158399210e+00   1.029919935200000e+01 -5.41408120e-01  -1.29536720e-01  -1.03231050e-01
C     7.183357170600001e+00   5.246226248642980e+00   1.017402264000000e+01  3.57794808e+00   7.57181960e-01   2.42918280e-01
C     7.265165800125001e+00   4.501609271305747e+00   6.425206847999999e+00  3.18555282e+00   2.25107087e+00   2.18491060e-01
C     8.539983786224999e+00   5.256530251241670e+00   6.406085520000000e+00 -6.94144300e-02  -8.87883900e-01  -5.78227400e-02
C     8.462938535025000e+00   4.566987265754714e+00   1.024723919200000e+01  3.17316580e-01   1.06331969e+00  -3.47561890e-01
C     9.672365198325000e+00   5.251236235524280e+00   1.026693267200000e+01  2.41284416e+00   2.29222905e+00   8.47090320e-01
