72
Lattice="7.395 0 0 3.6975 6.40425786098592 0 0 0 13.6 " PBC="1 1 1" Properties=species:S:1:pos:R:3:force:R:3 Energy="-564.399734"
C     3.664865347350000e+00   6.279738081235820e+00   1.357724747200000e+01 -2.69445434e+00  -2.40927404e+00  -8.56501860e-01
C     1.185804038325000e+00   4.175186105416326e-01   1.356354030400000e+01  8.43982740e-01   6.32822178e+00   4.31545080e-01
C     1.304158831800000e+00   9.630815191181185e-01   3.778503232000000e+00  2.91333080e+00  -4.08366210e-01   5.01734270e-01
C     2.641567395375000e+00   1.550123525002252e+00   3.939527232000000e+00 -4.92775690e-01   3.04058895e+00  -5.40335000e-02
C     6.109088330700000e+00   6.241989592216779e+00   1.344209747200000e+01  1.34641015e+00  -3.26952982e+00  -2.09293084e+00
C     3.620774286750000e+00   5.596948641832549e-01   1.341003180000000e+01  2.14063055e+00  -1.42268485e+00   1.23164813e+00
C     3.931667518725000e+00   9.928781613652903e-01   3.800321032000000e+00 -4.04007709e+00  -2.67069817e+00  -5.97990500e-01
C     5.041412207250000e+00   1.736962176363414e+00   3.590507712000000e+00  3.91367974e+00  -1.25149259e+00  -8.78597700e-02
C     8.572027430475000e+00   6.177146161171386e+00   1.326476217600000e+01  1.45896973e+00   5.91563384e+00   8.25550950e-01
C     6.109135251975000e+00   5.508447562039422e-01   1.328956585600000e+01 -3.51180020e-01  -1.41497460e-01   7.14216630e-01
C     6.331367869275000e+00   1.003846477631798e+00   3.468736576000000e+00 -3.86256730e-01  -5.51197490e-01   7.99400370e-01
C     7.566588440474999e+00   1.782093301715727e+00   3.814430488000000e+00 -3.10580435e+00  -7.34132154e+00  -2.05550912e+00
C     1.209603218925000e+00   1.898937961690170e+00   2.194346400000000e-02  7.78040390e-01   2.00753122e+00  -4.28850700e-02
C     2.477179059675000e+00   2.573733990688060e+00   2.032714480000000e-01 -2.30028992e+00   4.31506858e+00  -1.32725700e-01
C     2.700498298275000e+00   3.003011907384489e+00   4.001999648000000e+00 -4.29799897e+00   3.32052328e+00  -1.92712662e+00
C     3.759395891175000e+00   3.839305771945044e+00   3.499492160000000e+00  2.94076906e+00  -4.16941265e+00   2.20405530e+00
C     3.740195328300000e+00   1.967733588346126e+00   1.902276880000000e-01 -2.01527711e+00  -2.23573053e+00  -3.47698832e+00
C     4.817305955775000e+00   2.630681932430752e+00   1.319354292000000e+01  2.02324936e+00   3.38445438e+00   2.45948157e+00
C     5.002928220525000e+00   3.109931504697818e+00   3.553314976000000e+00  3.30509639e+00   3.27255106e+00  -6.15783050e-01
C     6.427812128175001e+00   3.859878297553879e+00   3.602024192000000e+00 -6.78132532e+00   3.23785870e-01  -1.82583400e-01
C     6.040770029925000e+00   1.946254283866893e+00   1.312351053600000e+01  3.82755544e+00   1.79093325e+00   1.00244952e+00
C     7.481709739725000e+00   2.806158982050224e+00   1.335174206400000e+01 -2.95950910e+00  -3.62786891e+00  -1.86675570e+00
C     7.510782516675000e+00   3.090115065771935e+00   3.912339608000000e+00  3.75768994e+00   5.80112370e+00   6.68908720e-01
C     8.795829229800001e+00   3.834339846357821e+00   4.062004752000000e+00 -1.07272560e-01  -8.77085110e-01  -3.23101464e+00
C     2.423383688475000e+00   4.160753149690137e+00   1.497995120000000e-01  4.50236572e+00  -4.24429703e+00   8.42065400e-02
C     3.721587252825000e+00   4.872143492355540e+00   8.853327999999999e-02 -2.13837967e+00  -1.47296324e+00  -1.04228426e+00
C     3.802031246025000e+00   5.220704320432201e+00   3.415329240000000e+00 -3.28986380e-01  -9.36326930e-01  -4.64546800e-02
C     4.963229161350000e+00   5.959472545236211e+00   3.568480064000000e+00  3.76431996e+00   2.62987360e-01   7.66789100e-02
C     4.903223654025000e+00   4.159403900644192e+00   1.330858423200000e+01 -4.68717040e-01  -3.38320630e+00  -5.41661680e-01
C     6.120621424799999e+00   4.767705224750069e+00   1.299171878400000e+01  1.70436016e+00   3.91688610e+00   2.94317275e+00
C     6.312287068424999e+00   5.299154173684371e+00   3.601811760000000e+00 -1.79575900e-02  -1.09285756e+00   7.69225090e-01
C     7.597790200950000e+00   5.974888874756803e+00   3.726553544000000e+00 -4.21110533e+00   2.33869240e+00  -8.70020530e-01
C     7.474250144399999e+00   4.214705499818814e+00   1.305994644800000e+01 -1.27769950e+00  -4.36722860e+00   2.29462166e+00
C     8.709924842549999e+00   4.848774419466978e+00   1.344121782400000e+01 -4.40278089e+00  -1.13604778e+00  -1.61186926e+00
C     8.722110508424999e+00   5.313976188075555e+00   3.502206176000000e+00  3.32906319e+00  -7.45996458e+00   2.66279463e+00
C     9.980222893724999e+00   5.807543247299594e+00   3.320293120000000e+00 -1.63574380e-01   8.41633674e+00   1.00590729e+00
C     7.395504893624999e+00   1.974437181218502e-01   6.737666712000000e+00  7.76997110e-01  -1.70540705e+00   2.16464820e-01
C     1.257282629325000e+00   8.904575551986114e-01   6.931459776000000e+00  8.62788160e-01  -2.21282840e+00   5.76402020e-01
C     1.104575028900000e+00   5.201452416836676e-01   9.891620408000000e+00 -2.11151993e+00  -2.61911854e+00  -4.53118460e-01
C     2.379507415650000e+00   1.144840633357621e+00   1.015470887200000e+01 -5.56122764e+00   1.53342641e+00  -6.59342870e-01
C     2.499449361000000e+00   7.514128555653721e-02   7.118796784000000e+00 -2.18388952e+00   6.82134382e+00  -1.00430453e+00
C     3.618421493550000e+00   9.058402623654385e-01   7.196910016000000e+00  3.63636967e+00   6.59482360e-01  -1.18952583e+00
C     3.473397002325000e+00   4.819117582168890e-01   9.876556096000000e+00  8.20602871e+00  -2.46631489e+00   1.06606119e+00
C     4.849740277874999e+00   1.160953682090803e+00   9.984171264000000e+00 -4.36150825e+00   2.88873920e-01  -1.70989294e+00
C     4.865865371175000e+00   2.005067465711310e-01   6.853011575999999e+00 -8.89325090e-01  -1.02057800e-02   4.55990540e-01
C     6.111546502649999e+00   8.046988426637161e-01   6.681662456000001e+00  1.90383801e+00   4.15176471e+00   2.24672161e+00
C     6.012072918974999e+00   3.966783869542495e-01   9.708118192000001e+00  6.40830050e-01   1.14494216e+00   1.33470416e+00
C     7.192224034424999e+00   1.215654754005892e+00   9.756733704000000e+00  2.95341422e+00  -4.17396682e+00   1.35628136e+00
C     1.376105008650000e+00   2.280998373908655e+00   7.046031072000000e+00 -5.61982863e+00  -6.13641230e-01   1.48505530e-01
C     2.441289941475000e+00   3.074113002827467e+00   7.271548176000000e+00  4.89400575e+00   2.28684569e+00  -1.99587138e+00
C     2.310377661525000e+00   2.518748697809144e+00   1.027680341600000e+01 -7.96334290e-01   5.42266163e+00  -1.52377815e+00
C     3.551574908700000e+00   3.398590683264176e+00   1.025468070400000e+01 -4.61208180e-01  -6.25824245e+00  -1.33132069e+00
C     3.730189338675000e+00   2.393901277212846e+00   7.271535119999999e+00 -3.21581079e+00  -3.58929635e+00  -7.07766140e-01
C     4.963575912900000e+00   2.954366765744394e+00   7.087532015999999e+00  1.21018245e+00   4.76839230e+00  -8.50463680e-01
C     4.735766947949999e+00   2.634584110787429e+00   9.933915592000000e+00  3.30875784e+00  -1.36517715e+00   1.71758155e+00
C     6.070170331424999e+00   3.275207211972095e+00   9.795563064000000e+00 -6.06698497e+00   3.77312308e+00   6.51770040e-01
C     6.186153400499999e+00   2.304034617516232e+00   7.002065536000001e+00 -8.18980640e-01  -4.98200421e+00  -1.58874435e+00
C     7.422297163500000e+00   2.901048757356750e+00   7.065798400000000e+00  1.95904546e+00   1.93446043e+00  -8.57769520e-01
C     7.202872649550000e+00   2.587002396164987e+00   9.884874264000000e+00 -1.54726180e-01  -1.66930905e+00  -6.97606310e-01
C     8.362479530624999e+00   3.250722197151429e+00   9.905457183999999e+00  7.27914685e+00   1.70874405e+00   2.54831648e+00
C     9.940621078800000e+00   4.539444666103948e+00   6.926760703999999e+00 -4.31466706e+00  -3.28373334e+00   1.30515121e+00
C     3.769078201650000e+00   5.113701659894428e+00   6.858654215999999e+00  1.31458090e+00   3.45876242e+00  -8.69712440e-01
C     3.616967525625000e+00   4.728162710976705e+00   9.986558880000000e+00 -3.09273090e+00   4.93711100e-02  -2.01977860e-01
C     4.767586190925000e+00   5.387611704524049e+00   9.790305576000000e+00  4.00447017e+00   4.79974991e+00   6.35175650e-01
C     5.024869666199999e+00   4.454938562363890e+00   6.898610743999999e+00 -2.30773108e+00  -2.22805687e+00   8.83648700e-01
C     6.215287260149999e+00   5.177903576429984e+00   6.950736552000000e+00  1.13186142e+00  -7.13079233e+00  -1.62986100e-02
C     6.044438504550000e+00   4.745102421314455e+00   9.757738743999999e+00 -5.50153760e-01  -1.86263186e+00   5.57637730e-01
C     7.246629382199999e+00   5.471141863408822e+00   9.740333192000000e+00  9.55485620e-01  -6.64726160e-01   7.72092930e-01
C     7.409189415075000e+00   4.290701433586769e+00   7.050952368000001e+00  1.49146313e+00   5.87090410e+00  -1.06792668e+00
C     8.634220082999999e+00   5.218432538041523e+00   6.879327168000001e+00 -2.23822090e-01  -4.36192375e+00   6.30070480e-01
C     8.511082388399998e+00   4.693384708880869e+00   9.837220680000000e+00 -1.52970159e+00  -1.78404560e-01  -1.96314160e-01
C     9.776962111949999e+00   5.345682964272051e+00   9.806421984000000e+00 -2.24709379e+00   2.69706495e+00   4.58035770e-01
