26
Lattice="8.88768389401873 1.33226762955019e-15 0 4.44384194700937 7.69696003302603 0 0 0 30 " PBC="1 1 1" Properties=species:S:1:pos:R:3:force:R:3 Energy="-207.43099089"
C     5.892151364615210e-01   7.267267999973214e-01   3.887077200000000e+00 -1.83943948e+00   1.16533825e+00  -2.06845991e+00
C     2.856630073808810e+00   1.419018478394827e-01   3.617779200000000e+00  3.78649300e+00  -1.32017290e+00  -8.54218290e-01
C     4.269134032346649e+00   4.863945339629921e-01   3.529785000000000e+00 -2.88531430e-01  -1.56334306e+00   9.65294470e-01
C     9.779529155352410e+00   7.124476691432664e+00   3.533279400000000e+00 -1.65987731e+00   3.02463175e+00  -1.58809360e-01
C     1.112945693142772e+01   7.589171493861478e+00   3.655973100000000e+00 -8.76007700e-02  -4.95061190e-01   4.51891810e-01
C     1.218436572771551e+01   6.659905040364330e+00   3.774789000000000e+00  1.89866260e-01   1.47750080e-01  -7.31638750e-01
C     4.680838617410817e+00   7.077952955318532e+00   3.866325600000000e+00  5.05805730e-01  -2.42838821e+00   4.92647300e-01
C     5.734589792807782e+00   6.049922189500434e+00   3.904175700000000e+00 -1.41015678e+00   4.69907710e-01  -1.01790682e+00
C     7.084752736937152e+00   6.419686843277645e+00   3.702014400000000e+00 -2.95719969e+00   1.46135938e+00   4.37826800e-01
C     8.009651293383653e+00   5.396440584783797e+00   3.617666400000000e+00  2.30309600e+00   1.87963960e-01  -3.30887170e-01
C     9.392875221755546e+00   5.780133888340097e+00   3.477303900000000e+00 -1.47893000e-01   2.21897510e-01   8.31943930e-01
C     1.042596986450295e+01   4.837512978282097e+00   3.591648300000000e+00  1.12933333e+00   7.67531650e-01  -9.70320340e-01
C     1.180384522921781e+01   5.328261682534060e+00   3.635272500000000e+00  1.70762625e+00  -3.87448039e+00   1.30143610e+00
C     4.011304902595395e+00   4.287642461617298e+00   3.799550400000000e+00 -2.34862482e+00   8.34700790e-01  -5.86576630e-01
C     5.377036047100884e+00   4.677974624108273e+00   3.857493600000000e+00 -1.47438542e+00  -1.27858798e+00   6.32229460e-01
C     6.305070978275265e+00   3.593058320644457e+00   3.901510200000000e+00  1.75677184e+00   8.60290670e-01  -5.61209290e-01
C     7.681233464080288e+00   4.034343203990028e+00   3.731924700000000e+00 -4.37981300e-01  -2.15309653e+00   2.18205710e-01
C     8.713015973556786e+00   2.999656261077188e+00   3.680129100000000e+00  1.00311995e+00   4.22885362e+00  -5.81103330e-01
C     1.010030903918624e+01   3.483970691592073e+00   3.552107100000000e+00  4.90519320e-01  -2.42260453e+00   2.05677151e+00
C     2.300210581780676e+00   2.497726413898445e+00   3.765381000000000e+00 -2.84031997e+00   2.06730341e+00  -2.21708501e+00
C     3.624354253639777e+00   2.893906033893812e+00   3.769338300000000e+00  1.39096948e+00   1.58000890e-01   3.05170210e-01
C     4.586248238630442e+00   1.821160779386234e+00   3.761729700000000e+00  1.96744164e+00   1.35926071e+00  -1.47315100e-01
C     5.979341717753820e+00   2.179818873779355e+00   3.887583600000000e+00 -6.30332510e-01   2.18612840e+00  -7.05373780e-01
C     7.022392255124548e+00   1.247330395844048e+00   3.787463400000000e+00 -4.93979600e-02   5.37311040e-01  -3.05706000e-02
C     8.394182089326666e+00   1.679589515980040e+00   3.757046100000000e+00 -9.44286000e-02  -2.10802536e+00   9.74064580e-01
C     1.906233774367971e+00   1.168878438011870e+00   3.610399800000000e+00  3.51262400e-02  -2.03446965e+00   2.29399252e+00
