26
Lattice="8.88768389401873 1.33226762955019e-15 0 4.44384194700937 7.69696003302603 0 0 0 30 " PBC="1 1 1" Properties=species:S:1:pos:R:3:force:R:3 Energy="-206.25742001"
C     1.268755337192465e+01   6.818436016409427e+00  -1.068458999999997e-01 -1.11973721e+00  -1.34195875e+00   7.36976520e-01
C     8.867078821328162e+00   6.686318313251279e+00  -4.222830000000144e-02  1.64882370e-01  -9.76732270e-01   2.97530850e-01
C     1.019367384915511e+01   6.213865898747429e+00   1.279257000000000e-01  2.22178715e+00   2.49702675e+00   3.53843790e-01
C     1.058261551528507e+01   4.881807366893141e+00   1.904016000000000e-01  9.85309220e-01  -2.57981710e+00  -4.84193610e-01
C     6.473705805097426e+00   6.010119438884498e+00  -2.808242999999990e-01  9.09237170e-01   2.29065247e+00  -4.44010330e-01
C     7.874020660283023e+00   5.731986555477235e+00  -1.066745999999981e-01 -2.21469841e+00  -4.10372811e+00  -3.64740230e-01
C     8.167852110332024e+00   4.269530898909905e+00  -2.472180000000179e-02  2.25191792e+00   1.51016336e+00   8.68271690e-01
C     9.550717686757817e+00   3.834799823090679e+00   1.589301000000000e-01  3.26852890e-01   2.98987255e+00  -1.30621226e+00
C     9.927925299366686e+00   2.520477858051122e+00  -1.184054999999979e-01 -5.62485460e-01  -2.45598668e+00  -1.01422007e+00
C     4.175531615071125e+00   5.333615303082927e+00   1.647630000000000e-02 -8.69100380e-01   5.55901266e+00  -1.31439988e+00
C     5.491827905949485e+00   4.975391702083499e+00  -1.870094999999985e-01  1.75280477e+00   2.35367370e+00   1.00474817e+00
C     5.881419395107963e+00   3.675508541333819e+00   2.931810000000000e-02 -1.96428004e+00  -1.83871322e+00  -1.12393880e+00
C     7.188059839541032e+00   3.260822658520721e+00  -2.757779999999954e-02  2.01504548e+00   1.89656297e+00   3.11538770e-01
C     7.618261867127993e+00   1.947831651809552e+00  -1.023449999999926e-02 -2.39867633e+00  -3.13119598e+00  -1.35372150e-01
C     8.926861734759814e+00   1.486877418016117e+00  -2.124525000000013e-01  2.08021720e-01   1.51287515e+00   1.21168870e-01
C     3.170378827193612e+00   4.434170875161214e+00   8.800740000000000e-02 -5.10990200e+00   1.49241400e-01   8.37199400e-01
C     3.452545858786897e+00   3.085041486565189e+00  -1.450050000000047e-02 -1.00205500e+00  -1.86508797e+00  -1.91947943e+00
C     4.836187685571367e+00   2.723776354840307e+00  -3.464759999999956e-02 -1.43407888e+00  -2.23648234e+00   1.08528640e+00
C     5.096635661807531e+00   1.308404234290092e+00   6.475140000000000e-02  2.30264088e+00   1.24304268e+00  -1.10057306e+00
C     6.552709979267676e+00   9.722427377030548e-01   7.566780000000001e-02 -2.02036947e+00  -2.28498144e+00   2.88376620e-01
C     1.126478231701207e+01   7.233490660577561e+00   1.390515000000000e-01  2.20312183e+00   5.63690800e-02  -1.45450890e+00
C     2.344212526808923e+00   2.088379296501356e+00  -3.952041000000008e-01  3.92944643e+00   2.12199513e+00   2.60728944e+00
C     2.772274177893972e+00   7.305899042363784e-01  -4.716972000000013e-01 -3.43245010e+00  -2.53882060e-01   5.37098020e-01
C     4.051108347889294e+00   3.328735092014219e-01  -1.388172000000019e-01  2.92163626e+00   1.26708846e+00   6.56605800e-02
C     3.802691540069267e-01   1.149548677440530e-01  -3.952622999999988e-01 -3.12462382e+00   7.55751500e-02   1.34458996e+00
C     6.132473403908694e+00   7.443824794590968e+00  -4.726284000000014e-01  3.05975302e+00  -2.45458559e+00   2.02069640e-01
