26
Lattice="8.88768389401873 1.33226762955019e-15 0 4.44384194700937 7.69696003302603 0 0 0 30 " PBC="1 1 1" Properties=species:S:1:pos:R:3:force:R:3 Energy="-206.40649766"
C     7.617548990895051e-01   9.478345229039202e-01   3.489272700000000e+00 -7.51970100e-02   8.95826320e-01  -1.82569540e-01
C     3.199724312539812e+00   3.747023306060558e-01   3.285905700000000e+00 -6.95118770e-01   1.13889400e+00  -2.14689190e-01
C     4.601407915953960e+00   8.217318400700171e-01   3.141231000000000e+00 -1.94413881e+00   1.78632259e+00   1.38131690e+00
C     1.002958898568410e+01   7.584476040364778e+00   3.059462700000000e+00  1.57482061e+00  -2.48705254e+00  -3.90965270e-01
C     6.984212230958724e+00   2.586909011586847e-01   3.193846500000000e+00 -2.63318619e+00  -3.26397520e-01   4.29935880e-01
C     1.238960083531586e+01   6.964323350152444e+00   3.322105200000000e+00 -9.77859210e-01  -3.52756451e+00  -3.77217800e-02
C     4.801788352455800e+00   7.336537407520001e+00   3.496944600000000e+00  2.72035063e+00  -1.99849427e+00   4.38194000e-01
C     5.862402508520544e+00   6.377410135768866e+00   3.578023800000000e+00  8.79207570e-01  -2.79246816e+00  -1.26154126e+00
C     7.268990469145968e+00   6.709779801966724e+00   3.334207200000000e+00  5.36204630e-01   8.03563580e-01   4.21712800e-01
C     8.388759582740533e+00   5.790405096652130e+00   3.179463900000000e+00 -6.20704594e+00  -1.53432893e+00   6.16505570e-01
C     9.642724636109135e+00   6.144684852301785e+00   2.975969700000000e+00  4.41974832e+00   2.81148389e+00   1.12359400e-02
C     1.063754868980255e+01   5.153484809923242e+00   3.005053500000000e+00  3.28302759e+00  -1.87978392e+00   1.58193389e+00
C     3.173720063762629e+00   5.492364334005674e+00   3.290312100000000e+00 -1.79269625e+00   1.58246520e+00  -7.01694780e-01
C     4.139793704325317e+00   4.466806293566815e+00   3.516590100000000e+00  9.12846470e-01   8.42305170e-01  -8.14040170e-01
C     5.570413340140158e+00   4.935767443970658e+00   3.563466000000000e+00 -5.86689140e-01   2.09522000e-01   9.61884020e-01
C     6.703529088618499e+00   3.995089862381032e+00   3.627903300000000e+00 -2.74481958e+00   1.63619951e+00  -2.07577145e+00
C     8.019421968040032e+00   4.429559087620038e+00   3.310714500000000e+00 -3.51965670e-01  -1.77747352e+00   1.00825162e+00
C     8.954444662940043e+00   3.376655364556196e+00   3.289885200000000e+00  1.78120780e+00  -1.40071093e+00   2.89654170e-01
C     1.033252568856052e+01   3.714088014092188e+00   3.172702800000000e+00 -1.99611148e+00   2.59422206e+00  -5.57475950e-01
C     2.363518354152608e+00   2.700790846133117e+00   3.268801200000000e+00  3.49881754e+00  -1.20873463e+00   6.93892600e-01
C     3.758184242293814e+00   3.034833292654296e+00   3.412618200000000e+00  1.51910810e+00   4.15032567e+00   7.19880700e-02
C     4.918913402585095e+00   2.255149021592965e+00   3.400520700000000e+00 -3.85142780e-01  -3.29464389e+00  -1.15897609e+00
C     6.318708550894591e+00   2.653375032351508e+00   3.422484900000000e+00 -6.94985720e-01  -1.32350824e+00   1.23663750e+00
C     7.316752567988756e+00   1.609565729380712e+00   3.428112600000000e+00 -6.12446150e-01   2.34967930e-01  -7.71012370e-01
C     8.684663283609995e+00   1.933681637460000e+00   3.481854300000000e+00 -1.81663927e+00   3.66110809e+00  -6.17710110e-01
C     2.086883415173648e+00   1.302743351096828e+00   3.379180500000000e+00  2.38870273e+00   1.20395505e+00  -3.58974990e-01
