26
Lattice="8.88768389401873 1.33226762955019e-15 0 4.44384194700937 7.69696003302603 0 0 0 30 " PBC="1 1 1" Properties=species:S:1:pos:R:3:force:R:3 Energy="-202.7153623"
C     1.296231229801020e+01   7.326863945123897e+00  -4.207590000000003e-01 -3.47230972e+00  -4.19038943e+00   3.70124930e-01
C     9.262580310212419e+00   6.937933014206384e+00  -4.724067000000005e-01 -1.27534239e+00   9.94116450e-01   1.90234576e+00
C     1.062051748873786e+01   6.605441505131251e+00  -1.681781999999998e-01 -1.89936619e+00  -3.53248838e+00  -1.07699798e+00
C     1.093445403512535e+01   5.112825156747165e+00  -1.835339999999981e-01 -5.63860545e+00   6.14346122e+00   5.69944360e-01
C     6.843034842554494e+00   6.403487975137708e+00  -6.547440000000009e-01 -1.49953865e+00   2.62116528e+00   1.12285404e+00
C     8.106062266720734e+00   5.958485614036848e+00  -3.676889999999986e-01  5.47707395e+00   5.88160880e-01  -1.96146224e+00
C     8.586479574942459e+00   4.601657572079617e+00  -4.082693999999982e-01 -6.94974434e+00  -4.85591930e-01   1.12008503e+00
C     9.839220660447493e+00   4.222179123835745e+00  -2.028468000000032e-01  4.58496863e+00  -3.00438665e+00  -1.43649336e+00
C     1.030633323916858e+01   2.815223013321533e+00  -4.806981000000015e-01 -3.51607509e+00   7.66778680e-01   3.72448950e-01
C     4.368470789997327e+00   5.998242721679807e+00  -3.973247999999998e-01  1.36117789e+00  -5.36397504e+00  -4.27069150e-01
C     5.784000115609595e+00   5.539595497716164e+00  -5.012856000000028e-01 -3.15352803e+00  -3.57866261e+00   1.25152636e+00
C     6.031252591982020e+00   4.077003066169101e+00  -2.435772000000007e-01  1.51215400e-01  -1.51932850e-01  -2.29928107e+00
C     7.405364155208555e+00   3.526872700133690e+00  -3.918612000000010e-01 -8.20242510e-01   1.06619701e+01   4.81051000e-01
C     7.661523113079120e+00   2.305522007418101e+00  -4.403043000000011e-01  6.63816184e+00  -9.91821950e+00   1.20871651e+00
C     9.290031651683055e+00   1.824093936914466e+00  -4.903844999999976e-01 -3.86778495e+00   3.12850936e+00  -9.17978900e-01
C     3.303366885752785e+00   4.883032876869117e+00  -3.409946999999995e-01  7.04676546e+00  -2.65963710e-01   2.39653100e-01
C     3.657108835371295e+00   3.509894822669116e+00  -3.882498000000005e-01  2.26356570e+00  -8.00352690e-01  -1.27437642e+00
C     4.966683059786099e+00   3.046048994931610e+00  -3.683088000000012e-01  4.78899705e+00   2.27298829e+00   1.41830396e+00
C     5.479106028653947e+00   1.685753241572064e+00  -3.044319000000009e-01 -4.74463353e+00  -1.44436924e+00  -8.55415640e-01
C     6.752603633235817e+00   1.195488522166787e+00  -1.982976000000001e-01  1.70220254e+00   4.61528966e+00  -1.33983484e+00
C     1.159039074878132e+01   7.585002589400430e+00  -2.396582999999985e-01  1.44134480e-01   4.36238970e-01   2.62368650e-01
C     2.765585219275066e+00   2.506350318824858e+00  -6.683231999999997e-01 -2.26910742e+00  -2.25586593e+00   9.26616040e-01
C     3.047224500141455e+00   1.068693112930184e+00  -7.756895999999998e-01  3.48765484e+00   1.63116787e+00   1.27152737e+00
C     4.526166561562448e+00   6.438552477159176e-01  -5.497269000000031e-01 -3.67854609e+00   3.13495490e-01  -3.00016310e-01
C     6.000083396137307e-01   4.745646912448836e-01  -6.780264000000003e-01  5.53224457e+00   4.07834829e+00   5.81344340e-01
C     2.028593895142451e+00   1.543760030817025e-01  -6.862080000000006e-01 -3.93337980e-01  -3.25949255e+00  -1.20998453e+00
