26
Lattice="8.88768389401873 1.33226762955019e-15 0 4.44384194700937 7.69696003302603 0 0 0 30 " PBC="1 1 1" Properties=species:S:1:pos:R:3:force:R:3 Energy="-205.91973756"
C     1.270983915044363e+01   6.882547229222510e+00  -2.262507000000014e-01  2.27934777e+00   3.76295850e-01   1.09083680e-01
C     8.956594284817978e+00   6.784686770917884e+00  -1.299849000000002e-01  5.82356680e-01  -3.56836415e+00  -7.77454940e-01
C     1.030505408156180e+01   6.351332912156826e+00   9.772170000000001e-02  2.05459063e+00  -1.24199356e+00  -2.52568940e-01
C     1.072492702061213e+01   4.925433659373581e+00   1.035570000000000e-01 -8.29441410e-01   1.14768118e+00  -1.55584268e+00
C     6.535502582231363e+00   6.059465573272031e+00  -4.344533999999989e-01  3.82105524e+00   3.71800924e+00  -5.90922540e-01
C     7.985066093564930e+00   5.757633672962798e+00  -2.943620999999972e-01 -3.04791861e+00  -2.29304200e+00   1.33187583e+00
C     8.237267632280679e+00   4.306734694002113e+00  -6.005310000000108e-02  3.65931219e+00   4.66066558e+00  -1.76468457e+00
C     9.691649157043472e+00   3.993292237366027e+00  -1.522646999999999e-01 -2.10313973e+00  -2.59872325e+00   1.25687419e+00
C     9.929920228913847e+00   2.553126977045577e+00  -3.351108000000025e-01  2.18013487e+00   1.24328566e+00   4.07716910e-01
C     4.222866975177782e+00   5.476334337168795e+00  -2.252559000000005e-01 -1.60876130e+00   3.15321721e+00   9.41441840e-01
C     5.548211728162732e+00   5.141232865917089e+00  -2.179821000000004e-01  8.39088750e-01  -8.47949190e-01  -1.26803135e+00
C     5.910410531208546e+00   3.789448103080315e+00  -2.064765000000008e-01 -1.64252230e+00  -2.25824280e-01   1.60748488e+00
C     7.207486539078303e+00   3.400151335652575e+00  -1.388892000000013e-01  3.22974683e+00  -1.42920833e+00   8.47340600e-02
C     7.604842131089246e+00   2.038442651340321e+00  -1.168890000000005e-01 -2.31189398e+00  -2.18899264e+00  -3.21754140e-01
C     8.919922053476622e+00   1.566611766358893e+00  -3.631112999999999e-01  9.06902630e-01   7.58813950e-01   6.96769890e-01
C     3.254440585641247e+00   4.509171131267937e+00  -5.024549999999905e-02 -4.22608691e+00   2.00385272e+00   3.48557800e-02
C     3.525399492420052e+00   3.196894248508351e+00  -1.959741000000008e-01 -1.92709430e-01  -4.35444348e+00   8.15117330e-01
C     4.921573575623835e+00   2.830304359834715e+00  -5.186249999999859e-02 -3.11076553e+00  -2.41787651e+00  -2.35356905e+00
C     5.193518393101209e+00   1.402035828815035e+00  -1.604703000000001e-01 -9.93475590e-01   9.86039790e-01   2.20214980e-01
C     6.517797246168215e+00   1.083840576330023e+00  -2.682390000000012e-02  3.72726303e+00  -3.53594217e+00  -4.08771380e-01
C     1.137910695015751e+01   7.282968489951209e+00   1.257600000000000e-02 -1.34334247e+00   2.60979543e+00  -4.86712370e-01
C     2.412518554731907e+00   2.114403488058789e+00  -3.197226000000022e-01  1.84114503e+00   3.69824136e+00  -6.38701140e-01
C     2.809743408954672e+00   8.171112779944079e-01  -5.767116000000030e-01  5.35229540e-01  -2.64474308e+00   2.65871580e-01
C     4.185244428311029e+00   3.730112315178645e-01  -4.142652000000027e-01 -4.10397330e-01   4.40440167e+00   1.07658457e+00
C     4.832360381791616e-01   2.006110262251101e-01  -4.228343999999993e-01 -4.15166031e+00  -1.05160965e+00  -1.94039320e-01
C     6.236646880014672e+00   7.481507340597043e+00  -6.735545999999992e-01  3.15941750e-01  -3.61587340e-01   1.76442691e+00
