26
Lattice="8.88768389401873 1.33226762955019e-15 0 4.44384194700937 7.69696003302603 0 0 0 30 " PBC="1 1 1" Properties=species:S:1:pos:R:3:force:R:3 Energy="-206.22226151"
C     1.255640079810783e+01   6.778128345215523e+00   7.344870000000001e-02  1.50565629e+00  -7.84331770e-01  -5.75451100e-02
C     8.759162474821775e+00   6.519611318383915e+00  -1.702290000000062e-02  2.82654401e+00  -1.77158857e+00  -8.02994500e-02
C     1.019674743235429e+01   6.087508369566931e+00  -2.404457999999998e-01 -2.23162970e+00   4.95324564e+00  -1.79733450e-01
C     1.044071546524776e+01   4.782852939659452e+00  -2.421278999999998e-01  3.35679745e+00  -3.49664147e+00   2.16300560e-01
C     6.483906688679816e+00   5.947348651660640e+00   4.165629000000000e-01 -3.41643495e+00  -9.78313010e-01  -1.14103975e+00
C     7.771980628113765e+00   5.474702581642434e+00   8.645910000000001e-02  8.55261830e-01   2.89321679e+00   4.66708080e-01
C     8.137538042469291e+00   4.132308033072660e+00  -5.967599999999962e-02 -9.02377570e-01  -1.07630373e+00   1.24251200e-01
C     9.487357210515864e+00   3.778664816017485e+00  -7.070519999999902e-02  4.14760890e-01  -1.99481360e+00   1.80548960e-01
C     9.902969527245775e+00   2.385376428337345e+00   1.709310000000000e-01 -3.99065682e+00   8.04454700e-01   3.57470400e-02
C     3.959009371374498e+00   5.416999472902329e+00   2.456460000000000e-02  2.37720516e+00  -3.02353600e+00   1.37166600e-02
C     5.388066996172668e+00   5.003881306908141e+00   2.272959000000000e-01 -5.59075520e-01  -1.87950016e+00  -1.71682918e+00
C     5.724240038854051e+00   3.547782800538390e+00  -1.244933999999986e-01  1.17758970e-01   1.92644899e+00   1.66884579e+00
C     7.130883547018803e+00   3.133571820159143e+00  -1.094508000000012e-01 -2.06708497e+00  -1.12446814e+00   4.27701020e-01
C     7.411299304886016e+00   1.701366294084118e+00  -2.897460000000152e-02  2.71443326e+00   2.93752969e+00   1.43902180e-01
C     8.823421181465473e+00   1.387076786996730e+00   2.667474000000000e-01 -3.88614000e-01   4.74084170e-01  -9.97159520e-01
C     2.951596845323872e+00   4.354901423204249e+00  -2.324337000000014e-01  5.89100020e-01   2.24202763e+00   1.78041465e+00
C     3.305873433596825e+00   3.028008167286893e+00   6.504390000000000e-02  1.36359997e+00  -1.26036568e+00  -1.06422855e+00
C     4.664509095128098e+00   2.586092210188463e+00  -5.940119999999993e-02  2.14712462e+00  -1.16210304e+00   9.93427080e-01
C     5.113335264204398e+00   1.115844151286762e+00   6.374279999999999e-02 -3.81828628e+00   3.39960138e+00  -1.18421592e+00
C     6.400803285842909e+00   7.259598748999322e-01  -1.560996000000010e-01  1.86110050e+00   1.47016685e+00   3.68729050e-01
C     1.127071004658320e+01   7.116286125355940e+00  -2.820402000000009e-01 -3.20091977e+00  -1.74068193e+00   1.35074986e+00
C     2.337015235908257e+00   2.014297672574212e+00   2.855781000000000e-01  7.55125250e-01  -5.06976790e-01  -2.18081190e-01
C     2.693137396149264e+00   6.410292318713029e-01   4.297056000000000e-01 -4.44982960e-01  -1.08957657e+00  -3.68725730e-01
C     4.069143591450239e+00   1.850921845038232e-01   1.851285000000000e-01 -2.13803676e+00   2.58202770e-01   3.57764430e-01
C     2.729742344016033e-01   1.517447972954470e-02   4.143981000000000e-01 -1.19002923e+00   4.68066490e-01  -8.65871690e-01
C     6.054151267254161e+00   7.330892149155598e+00   5.202546000000000e-01  3.46366032e+00   6.21553600e-02  -2.55077030e-01
