26
Lattice="8.88768389401873 1.33226762955019e-15 0 4.44384194700937 7.69696003302603 0 0 0 30 " PBC="1 1 1" Properties=species:S:1:pos:R:3:force:R:3 Energy="-208.23171538"
C     6.554504674349650e-01   8.783220453593855e-01   3.394994100000000e+00  1.05014059e+00  -2.22357486e+00  -2.80219000e-02
C     3.079415512948292e+00   3.158306693941951e-01   3.485979600000000e+00  9.25374420e-01  -2.09549321e+00   3.38195310e-01
C     4.449704706174979e+00   7.649870028536460e-01   3.566874300000000e+00  9.18446760e-01  -3.58606681e+00  -6.48592100e-01
C     9.978196931130125e+00   7.422415007541121e+00   3.656068800000000e+00 -1.74907779e+00   1.85973628e+00  -6.75080920e-01
C     6.882910143264041e+00   1.263875473246135e-01   3.521908500000000e+00 -9.09041130e-01   2.50788610e-01  -3.88525510e-01
C     1.224507616327844e+01   6.756772513855484e+00   3.400497000000000e+00  2.74397125e+00   1.05537710e+00   6.47932990e-01
C     4.765424882493882e+00   7.107788296634818e+00   3.336809400000000e+00 -1.02433185e+00   3.81448399e+00   1.65490420e-01
C     5.810459150925730e+00   6.201272902442346e+00   3.320984700000000e+00 -9.01031600e-02  -1.10437396e+00   7.27280480e-01
C     7.167308744034596e+00   6.578509918955881e+00   3.490436400000000e+00  1.22042067e+00   2.39904961e+00  -9.33519980e-01
C     8.247020355335241e+00   5.679178097559406e+00   3.445796700000000e+00 -1.94234550e-01  -1.18368912e+00   1.12715783e+00
C     9.633907920321429e+00   6.062221238901972e+00   3.621345600000000e+00 -1.53619184e+00  -1.31630064e+00  -2.30090640e-01
C     1.059601618737744e+01   4.999874423455724e+00   3.613851900000000e+00 -4.92132400e-02   8.08969260e-01  -5.24021440e-01
C     1.193404237702919e+01   5.388184902425220e+00   3.514391400000000e+00  1.50557240e-01   4.60002720e-01  -4.60658050e-01
C     4.078531921338140e+00   4.440553425326890e+00   3.373130700000000e+00  4.60802790e-01  -7.23471670e-01   3.79284690e-01
C     5.434752133111880e+00   4.817090403325697e+00   3.338049600000000e+00  1.02736575e+00   1.41042457e+00  -2.84811530e-01
C     6.490153307098211e+00   3.904801596384321e+00   3.343596600000000e+00  6.02055100e-01  -1.89162283e+00  -2.67295800e-02
C     7.888786479605024e+00   4.286239921560631e+00   3.416030700000000e+00 -2.26584020e-01  -6.29463200e-02  -3.72941900e-01
C     8.912346637234458e+00   3.293008805369372e+00   3.423598800000000e+00 -6.67810860e-01  -1.32198603e+00   5.25303060e-01
C     1.027513555839013e+01   3.627232207420855e+00   3.491470800000000e+00 -7.54991000e-03   4.78775670e-01  -9.46116700e-02
C     2.418788816064807e+00   2.650890222745023e+00   3.398053500000000e+00 -2.42941110e-01  -9.81149860e-01   4.57797530e-01
C     3.792171323203136e+00   3.057168408238950e+00   3.393819900000000e+00 -1.35581135e+00  -1.16580320e-01  -6.31900440e-01
C     4.827162730985940e+00   2.080700501297027e+00   3.328952100000000e+00 -1.94695686e+00   7.06636520e-01   1.08173415e+00
C     6.136586842990407e+00   2.495177411645310e+00   3.329511600000000e+00  3.13731455e+00   7.15529730e-01   1.80574340e-01
C     7.200573075202917e+00   1.540762218824541e+00   3.393107100000000e+00 -4.51697810e-01  -1.54237160e+00   6.47930430e-01
C     8.567274043745259e+00   1.886108266906576e+00   3.463099800000000e+00 -4.65545140e-01   1.10330441e+00  -1.06839259e+00
C     2.055663070221224e+00   1.221821284851823e+00   3.393818100000000e+00 -1.31935850e+00   3.08654876e+00   8.92170300e-02
