26
Lattice="8.88768389401873 1.33226762955019e-15 0 4.44384194700937 7.69696003302603 0 0 0 30 " PBC="1 1 1" Properties=species:S:1:pos:R:3:force:R:3 Energy="-206.65298128"
C     1.281533405307737e+00   1.567474441639055e+00   3.552185700000000e+00 -2.63988872e+00  -3.07912749e+00  -1.51375212e+00
C     3.642792152566258e+00   9.710538652568208e-01   3.522263700000000e+00  1.20659021e+00  -1.18906350e+00  -6.16730000e-04
C     5.036163549603987e+00   1.389918196761404e+00   3.736402800000000e+00 -9.58791600e-01  -1.27622573e+00   5.84107390e-01
C     6.012377948636922e+00   4.083790707341157e-01   4.077873299999999e+00  2.72982210e-01  -2.06671127e+00  -9.95078420e-01
C     7.403744284139565e+00   7.510418046104925e-01   4.003197900000000e+00 -6.34245530e-01   1.55776925e+00  -5.76528440e-01
C     1.289006649324319e+01   7.468865853443770e+00   3.877113900000000e+00 -2.72792536e+00  -1.24236389e+00   1.15915780e-01
C     8.156343490822250e-01   1.069085426982913e-01   3.476098500000000e+00  3.28099329e+00   3.72915461e+00   8.12271670e-01
C     6.287017294799250e+00   6.864269643087270e+00   3.425797200000000e+00  2.22344325e+00  -8.74872380e-01   2.43736010e-01
C     7.703256791360127e+00   7.279038576099091e+00   3.543629100000000e+00  4.37257000e-01  -1.98246330e-01   1.29707010e-01
C     8.777181187263514e+00   6.330005482579300e+00   3.816447900000000e+00 -2.14188005e+00  -3.18214259e+00  -4.03534600e-01
C     1.008601542362890e+01   6.653201219087001e+00   4.081325100000000e+00  2.85779079e+00   2.21249307e+00   3.13753920e-01
C     1.117852538853760e+01   5.645522062253828e+00   4.152089100000000e+00 -1.33084075e+00   9.07068740e-01  -1.88595624e+00
C     3.671289892124827e+00   6.055903958957350e+00   3.974451000000000e+00 -1.42779797e+00   4.17095720e-01  -1.04669910e-01
C     4.631556897753886e+00   5.062126589512761e+00   3.701414700000000e+00 -5.49623140e-01  -7.87238690e-01  -1.15370900e-01
C     5.975923872170887e+00   5.464582002838188e+00   3.498723600000000e+00  7.58663040e-01   9.21739340e-01   4.28724210e-01
C     7.021857707511758e+00   4.533584195151891e+00   3.604169400000000e+00  2.59129037e+00  -8.67149280e-01   1.43545864e+00
C     8.480406800968757e+00   4.840400877685354e+00   3.785396100000000e+00 -4.29498014e+00   4.24163428e+00  -7.35059920e-01
C     9.444817067096128e+00   3.881215801764392e+00   3.838074600000000e+00  6.30514280e-01  -5.72367470e-01  -1.18914734e+00
C     1.078687862076297e+01   4.302894141855944e+00   3.812085000000000e+00  1.88819911e+00  -6.32213740e-01   2.17007584e+00
C     2.912132861841393e+00   3.268533857926777e+00   3.772871100000001e+00  1.98815680e-01   1.09568346e+00  -2.44054279e+00
C     4.256415580998851e+00   3.645950290578611e+00   3.649205700000000e+00  1.86165014e+00   2.79411923e+00   1.14577303e+00
C     5.372098404199486e+00   2.769945645945058e+00   3.710493300000000e+00 -2.22951402e+00  -1.56301087e+00   2.01857390e-01
C     6.694575013196241e+00   3.173671057675436e+00   3.859935900000000e+00  7.45224480e-01   5.38868100e-02  -1.93606848e+00
C     7.690547177886870e+00   2.170627856837931e+00   3.787767600000000e+00  2.52580730e+00  -1.86283451e+00   8.25401100e-01
C     9.123117349157583e+00   2.502508689104285e+00   3.642377400000000e+00 -1.38534491e+00   7.10519540e-01   1.16948430e+00
C     2.632179306172088e+00   1.925537868900258e+00   3.399472800000000e+00 -1.15838895e+00   7.52403680e-01   2.32005960e+00
