26
Lattice="8.88768389401873 1.33226762955019e-15 0 4.44384194700937 7.69696003302603 0 0 0 30 " PBC="1 1 1" Properties=species:S:1:pos:R:3:force:R:3 Energy="-208.1926642"
C     6.256442418766542e-01   8.133707093590283e-01   3.420544200000000e+00  1.76465014e+00   3.63863317e+00  -7.82023110e-01
C     3.107129888711079e+00   2.626260489436225e-01   3.532351500000000e+00 -1.96482982e+00   1.55150011e+00  -2.76030890e-01
C     4.468592056435233e+00   6.269892070805798e-01   3.619666800000000e+00 -1.43568071e+00   4.14047441e+00  -1.34114074e+00
C     9.927037289625357e+00   7.438125888415156e+00   3.670530300000000e+00  1.49503560e+00  -3.19224561e+00   4.35087010e-01
C     6.835140442133127e+00   1.182848035618319e-01   3.570246600000000e+00  1.05542473e+00  -4.98264290e-01  -9.84559610e-01
C     1.229825304242529e+01   6.786564521286803e+00   3.432244500000000e+00 -1.28180248e+00   5.62528250e-01   7.04265630e-01
C     4.766180424542187e+00   7.170619966812514e+00   3.334401000000000e+00  3.53681190e-01  -1.57898137e+00   1.18270720e-01
C     5.832065421512712e+00   6.172724338903874e+00   3.288407400000000e+00 -5.81967040e-01   2.15015731e+00   1.03222851e+00
C     7.188576305038051e+00   6.626195280277742e+00   3.517246500000000e+00 -5.07278530e-01  -2.05479917e+00  -1.06875244e+00
C     8.217513689181240e+00   5.643165868849444e+00   3.538921800000000e+00  3.58495360e-01  -2.31057000e-01   1.08561815e+00
C     9.595709721468982e+00   6.038679778771816e+00   3.726153900000000e+00 -1.36806473e+00  -1.73769950e-01  -5.66612320e-01
C     1.057404045577245e+01   5.030434664467637e+00   3.700022700000000e+00  5.11873530e-01  -3.99466950e-01  -1.16521837e+00
C     1.191807351989715e+01   5.419723350087345e+00   3.512032800000000e+00  1.58001228e+00  -2.64230800e-02  -1.90681980e-01
C     4.074687153733131e+00   4.451923297713606e+00   3.332772300000000e+00  1.02079950e-01  -1.20228364e+00   5.66288640e-01
C     5.461339595037884e+00   4.828618063393028e+00   3.284626200000000e+00  4.03908400e-02  -6.24983890e-01  -5.77911340e-01
C     6.518649887920889e+00   3.852725350274147e+00   3.247530900000000e+00 -5.18426690e-01   5.30413520e-01   1.45487836e+00
C     7.857628481791718e+00   4.261704937829803e+00   3.482799300000000e+00  6.63450480e-01   1.60700050e-01  -1.29535601e+00
C     8.883827303887603e+00   3.262849960823023e+00   3.435472200000000e+00  1.61152290e-01   3.72020860e-01   4.69076460e-01
C     1.025261723368105e+01   3.653758009863443e+00   3.502988400000000e+00 -9.58766100e-02  -6.55035860e-01   9.09239820e-01
C     2.385896297865388e+00   2.629216660874947e+00   3.500310600000000e+00 -6.21422470e-01   4.24988610e-01  -1.10771532e+00
C     3.757189443837343e+00   3.036890844009515e+00   3.401025300000000e+00  4.97512340e-01  -3.38670090e-01  -1.11028260e-01
C     4.796566345896349e+00   2.023385396312033e+00   3.366833100000000e+00  5.99786950e-01   1.47506908e+00   1.18702012e+00
C     6.216728510652672e+00   2.490116044668782e+00   3.360454500000000e+00 -3.61649443e+00  -1.34810188e+00  -8.64360100e-01
C     7.177222107774934e+00   1.484682475924362e+00   3.371784900000000e+00  7.18308810e-01   4.56828500e-02   1.04066675e+00
C     8.521991427652987e+00   1.904610758213892e+00   3.399727200000000e+00  1.15206631e+00  -2.43668354e+00  -1.81428730e-01
C     2.017928408552359e+00   1.244919477053851e+00   3.378952200000000e+00  9.37922700e-01  -2.91401920e-01   1.51017905e+00
