26
Lattice="8.88768389401873 1.33226762955019e-15 0 4.44384194700937 7.69696003302603 0 0 0 30 " PBC="1 1 1" Properties=species:S:1:pos:R:3:force:R:3 Energy="-205.69420994"
C     4.315734873367432e-01   6.092747305411351e-01   3.898236300000000e+00  8.06078360e-01  -1.75262694e+00  -1.36679379e+00
C     2.854937103275619e+00   3.813874482705120e-02   3.759012000000000e+00 -9.94484670e-01  -1.54130430e-01  -1.79673475e+00
C     4.213767272273338e+00   3.728675292741044e-01   3.621099000000000e+00  6.01596770e-01   3.38321303e+00   7.52793330e-01
C     9.712002666241290e+00   7.187541887377670e+00   3.565357800000000e+00  2.59862441e+00  -1.55174511e+00   5.04471190e-01
C     1.111930479677090e+01   7.620281836606736e+00   3.761798400000000e+00 -1.28449751e+00  -4.42493400e+00   4.57482150e-01
C     1.210014585732834e+01   6.518507728254814e+00   3.963802499999999e+00 -2.93197970e+00   5.16036010e-01  -2.21533604e+00
C     4.557220355289110e+00   6.836683584400549e+00   3.841806600000000e+00  1.04103950e-01   4.09646473e+00   1.92394274e+00
C     5.611591713375906e+00   5.974884526167966e+00   3.961347299999999e+00  8.88962090e-01  -3.07970523e+00  -6.32367560e-01
C     6.969989763227787e+00   6.378723237149984e+00   3.642997200000000e+00 -9.44126390e-01  -8.11678050e-01   1.97936426e+00
C     8.019546440715160e+00   5.449019827231932e+00   3.617519100000000e+00  1.25282569e+00  -3.25232163e+00  -3.46562920e-01
C     9.416429094989271e+00   5.809325071071473e+00   3.489964500000000e+00 -8.89128970e-01  -2.12226964e+00   5.05825990e-01
C     1.041089146429683e+01   4.679660643202845e+00   3.541540800000000e+00 -3.14505810e+00   3.11375165e+00  -6.51227580e-01
C     1.166252918883541e+01   5.146943471472146e+00   3.789721800000000e+00  4.36544707e+00  -3.31663490e-01   1.81791274e+00
C     3.835340759867110e+00   4.165205071149680e+00   4.045259400000000e+00  7.74828200e-01  -9.98101800e-02  -2.48085428e+00
C     5.261698751197189e+00   4.542558850546871e+00   4.154850000000001e+00 -1.00080021e+00   1.95531359e+00  -2.01877093e+00
C     6.251407987284591e+00   3.604107383737122e+00   3.887604000000000e+00  3.36230770e+00  -9.29947450e-01   1.26866559e+00
C     7.758102330995664e+00   3.981201390733300e+00   3.768945600000000e+00 -5.33890006e+00   3.39682039e+00   4.09779150e-01
C     8.716992367788619e+00   3.032023132547343e+00   3.872753100000000e+00 -2.56938570e-01  -2.97480270e+00  -1.88360123e+00
C     1.001037501018285e+01   3.322834217607220e+00   3.502201800000000e+00  3.58521128e+00   5.89859970e-01   2.30440649e+00
C     2.191241311369633e+00   2.339938502374644e+00   3.695196000000000e+00 -1.31985362e+00   1.54126432e+00  -1.98277801e+00
C     3.556731644138273e+00   2.819787156680122e+00   3.600284100000000e+00  9.36397280e-01  -2.31045875e+00   3.25666502e+00
C     4.634392644466600e+00   1.756053426006069e+00   3.744439200000000e+00 -2.74031733e+00   1.96786078e+00  -5.19921280e-01
C     5.961611277226933e+00   2.196829848172058e+00   3.926073900000000e+00 -3.03499090e-01   3.55423020e-01  -9.55852270e-01
C     6.996622415674048e+00   1.229712054335378e+00   3.924114000000000e+00  1.25721018e+00   2.06301421e+00  -3.83284760e-01
C     8.385603207974681e+00   1.619947696947577e+00   3.888454500000000e+00 -2.32761635e+00   4.82915440e-01   1.12809468e+00
C     1.771089741622314e+00   9.841040609876860e-01   3.739860600000000e+00  2.94360762e+00   3.34156440e-01   9.24682080e-01
