26
Lattice="8.88768389401873 1.33226762955019e-15 0 4.44384194700937 7.69696003302603 0 0 0 30 " PBC="1 1 1" Properties=species:S:1:pos:R:3:force:R:3 Energy="-207.94026902"
C     1.330444031227049e+01   7.688039946051632e+00  -5.794829999999962e-02  6.59362260e-01  -1.59349341e+00   5.71225040e-01
C     9.581070818301022e+00   7.527669011711364e+00  -1.473659999999910e-02 -1.36599712e+00   2.21268690e-01  -3.02209050e-01
C     1.089944207227762e+01   7.136897044924274e+00   5.484990000000000e-02  5.91566130e-01  -1.23706934e+00  -2.11610290e-01
C     1.122128070293261e+01   5.771249518286268e+00   4.812480000000000e-02  1.01322090e-01  -2.15652544e+00   2.80982750e-01
C     7.199403726114461e+00   6.899310053623845e+00  -4.580009999999746e-02 -8.71161750e-01   2.85074000e-01  -2.81821720e-01
C     8.598228605486337e+00   6.547315679346297e+00  -4.941390000000112e-02 -2.54189669e+00  -1.33956835e+00   3.75574290e-01
C     8.896776793857914e+00   5.152181252772561e+00  -5.818800000000124e-03 -5.55905960e-01  -9.56529560e-01  -3.87217660e-01
C     1.021058493314261e+01   4.716614979820480e+00   3.598410000000000e-02  1.68859181e+00   1.55084908e+00  -3.13655680e-01
C     1.056060503181781e+01   3.344848600867425e+00  -1.981709999999737e-02  1.42772093e+00   1.16678124e+00   2.02763010e-01
C     4.773926618151170e+00   6.246053200140084e+00   9.208800000000000e-03 -5.40066300e-02   2.96703104e+00   1.72307620e-01
C     6.157233868068889e+00   5.874457439571736e+00   3.170310000000000e-02  8.95216450e-01   6.64151710e-01  -7.81790820e-01
C     6.559180526508902e+00   4.513414773210878e+00  -7.414199999999482e-03 -2.04720068e+00  -1.56471235e+00   5.55709230e-01
C     7.914656749756139e+00   4.107828852302049e+00  -6.508529999999979e-02 -1.03735142e+00   6.19769570e-01   8.01311620e-01
C     8.249485263655485e+00   2.708446165609355e+00  -1.057679999999905e-02 -2.06379897e+00   1.21584463e+00   1.69963980e-01
C     9.588803544313954e+00   2.362144309030795e+00  -3.279420000000144e-02 -1.00654224e+00  -5.83700450e-01  -6.18624500e-02
C     3.683296486034513e+00   5.364082179969675e+00   6.739740000000001e-02  2.05764397e+00  -2.56780624e+00  -1.72439256e+00
C     4.091743329791004e+00   3.925839158447118e+00  -1.698017999999983e-01 -4.54781360e-01   1.30312412e+00   3.26018899e+00
C     5.473105865553366e+00   3.487453181157646e+00   6.585960000000000e-02  7.32168000e-02   2.09999086e+00  -1.89480091e+00
C     5.779200941835689e+00   2.111394438504661e+00   2.455140000000000e-02  2.31217956e+00   1.28649132e+00   2.54444510e-01
C     7.218728436017812e+00   1.710368042778403e+00   7.677059999999999e-02 -2.20626054e+00   2.21348070e+00  -8.25027940e-01
C     7.492290900889037e+00   3.575819054417265e-01   1.870320000000000e-02  1.70964332e+00   4.35243040e-01   1.53871060e-01
C     3.039686367858700e+00   2.988266684472796e+00  -2.892780000000172e-02  1.03709283e+00  -1.73748859e+00  -8.59880290e-01
C     3.392504176073819e+00   1.565084997367342e+00  -3.074130000000252e-02 -7.39194670e-01   1.48487414e+00  -8.64903050e-01
C     4.743611213937857e+00   1.185862242135667e+00  -7.898789999999778e-02  6.18991560e-01  -5.32000070e-01   8.95478230e-01
C     9.625794045205165e-01   1.002747098785150e+00  -7.950840000000170e-02  2.72372275e+00  -2.21354595e+00  -1.23238160e-01
C     2.376524811582629e+00   5.969004818401048e-01  -1.190145000000022e-01 -9.52172420e-01  -1.03153436e+00   9.38590260e-01
