26
Lattice="8.88768389401873 1.33226762955019e-15 0 4.44384194700937 7.69696003302603 0 0 0 30 " PBC="1 1 1" Properties=species:S:1:pos:R:3:force:R:3 Energy="-207.10814187"
C     3.999531076961571e-01   4.725130665488871e-01   3.710860800000000e+00  3.48069630e-01   3.34808600e-01   1.47889171e+00
C     7.203185569415550e+00   7.654591574727662e+00   3.793719300000000e+00  2.52789308e+00   2.07884720e-01   7.93510040e-01
C     4.165296021828088e+00   3.855788278548485e-01   3.862788900000000e+00  7.28434800e-02  -1.43556409e+00   2.75201620e-01
C     9.662111741523285e+00   7.066961619426091e+00   3.879744900000000e+00  3.95099830e-01   2.11020815e+00   6.89232220e-01
C     1.105513931853907e+01   7.531000563890749e+00   3.867864600000000e+00 -1.40348204e+00  -4.12131053e+00  -1.37458000e-02
C     1.200959853370987e+01   6.375455030951645e+00   3.863977500000000e+00 -1.32251841e+00   3.01416781e+00  -5.46945150e-01
C     4.450741369526886e+00   6.773198904133909e+00   3.820128600000000e+00  1.45160438e+00   1.52551438e+00  -5.78830480e-01
C     5.476797144391247e+00   5.836975091496043e+00   3.790871400000000e+00  1.88851561e+00  -8.80170870e-01  -7.90570610e-01
C     6.892817292941629e+00   6.294708301456123e+00   3.760692300000000e+00 -9.68504040e-01  -2.27485635e+00   1.46040439e+00
C     7.934733806249302e+00   5.305090907998949e+00   4.003571099999999e+00  8.70111970e-01   7.69017850e-01  -1.83095664e+00
C     9.350292150715152e+00   5.717248724290193e+00   4.039216200000000e+00 -1.45281454e+00  -3.50507556e+00  -1.36425391e+00
C     1.032744228942654e+01   4.551135650077900e+00   3.858529200000000e+00 -6.25904100e-01   5.70313232e+00   1.52420509e+00
C     1.164460672981002e+01   5.028394431272485e+00   3.778014600000000e+00  9.44249460e-01  -1.72721315e+00  -6.43110000e-02
C     3.771564117750938e+00   3.991970130541673e+00   3.676690500000000e+00  8.18618690e-01   3.94264320e+00   5.14385530e-01
C     5.149849515727302e+00   4.429215649263500e+00   3.681149400000000e+00 -1.08365890e-01   1.68919454e+00   3.06652780e-01
C     6.206390890684805e+00   3.524508347951674e+00   3.673167000000000e+00  1.67662995e+00  -6.40254700e-02   6.24484400e-01
C     7.634018532117301e+00   3.933129411109133e+00   3.781614900000000e+00 -1.73792512e+00  -1.26303158e+00   5.38341840e-01
C     8.616805773289871e+00   2.885712081154674e+00   3.802151700000000e+00  1.40141673e+00   8.80486130e-01   4.80466880e-01
C     1.000922356623780e+01   3.232495074704711e+00   3.969365100000000e+00 -2.04641037e+00  -8.31827500e-01  -1.71336660e+00
C     2.108487153393547e+00   2.232969769448918e+00   3.843476700000000e+00 -2.77534080e-01   2.11707757e+00   8.46852850e-01
C     3.436714627157808e+00   2.682325377203546e+00   3.786541500000000e+00  1.11024609e+00  -1.81396110e+00   3.48230150e-01
C     4.526247306902469e+00   1.770507239368004e+00   3.912991799999999e+00 -1.44661261e+00  -1.75677891e+00  -1.17725039e+00
C     5.855402610396835e+00   2.174308927972279e+00   3.804092400000000e+00  2.66090147e+00  -1.46783345e+00  -1.65723490e-01
C     6.948801965833942e+00   1.168992429989915e+00   3.804603600000000e+00 -5.19781010e-01   7.97696140e-01  -5.24142150e-01
C     8.355602919807644e+00   1.507295297826899e+00   3.688255500000000e+00 -3.46139569e+00   3.27271320e-01   6.65036400e-01
C     1.752355614898734e+00   9.164532471656073e-01   3.899200200000000e+00 -7.94952480e-01  -2.27745417e+00  -1.77579967e+00
