26
Lattice="8.88768389401873 1.33226762955019e-15 0 4.44384194700937 7.69696003302603 0 0 0 30 " PBC="1 1 1" Properties=species:S:1:pos:R:3:force:R:3 Energy="-207.62852208"
C     1.261752455543040e+01   6.906290503644652e+00  -2.766510000000011e-02  2.16007284e+00  -3.85309845e+00  -5.32120120e-01
C     8.891751476108761e+00   6.559724256489061e+00   5.919000000000000e-03  9.53508530e-01   2.10380890e-01  -1.23330840e-01
C     1.029411796419243e+01   6.202931366420009e+00   1.629240000000000e-01 -3.01289458e+00  -9.42664550e-01  -9.16243580e-01
C     1.056848200926618e+01   4.838584549057473e+00   1.232949000000000e-01  1.33639356e+00  -6.67568110e-01  -3.41916860e-01
C     6.531092157930833e+00   5.987181728299095e+00  -1.950432000000006e-01 -1.99606156e+00   2.61872307e+00   1.40737790e-01
C     7.882587143166503e+00   5.561520750179221e+00  -9.536459999999991e-02 -5.31049950e-01   3.01415180e-01   8.46705910e-01
C     8.188460871678741e+00   4.181147630520619e+00   8.101830000000000e-02  6.83493860e-01   2.28968780e-01  -1.07700779e+00
C     9.589324719052435e+00   3.832527372611422e+00  -7.880100000001278e-03 -1.25553043e+00  -6.93847400e-02   7.08293140e-01
C     9.939100495302633e+00   2.468656689196342e+00  -1.566765000000032e-01 -2.21671829e+00  -1.18302027e+00   9.04157540e-01
C     4.034448876606294e+00   5.483971414849761e+00  -2.080949999999859e-02  2.20785736e+00   1.25016497e+00   4.19908940e-01
C     5.419188510102175e+00   5.118578095582389e+00  -3.561000000000192e-02  1.09023605e+00  -3.06259388e+00  -1.08624893e+00
C     5.778333904842532e+00   3.664228492470653e+00  -7.285530000000051e-02 -5.86442300e-01   3.42978900e-01   1.71440793e+00
C     7.138536465035936e+00   3.210498471422176e+00   7.318050000000000e-02 -1.80206490e-01   1.46990395e+00  -7.86222580e-01
C     7.456923474775379e+00   1.844803685449586e+00   3.565470000000000e-02  1.95176936e+00  -8.20131000e-01  -4.84471760e-01
C     8.857594414950514e+00   1.465817611738833e+00  -1.311125999999980e-01  7.80921680e-01   1.84397469e+00   2.12022320e-01
C     3.066930763897331e+00   4.474372636185106e+00   6.515880000000000e-02 -1.37431289e+00   8.60091250e-01  -3.75023340e-01
C     3.386954396210722e+00   3.145663359518271e+00  -4.623090000000118e-02  9.34295890e-01  -4.57310541e+00   7.14881740e-01
C     4.747274629322291e+00   2.666473334082560e+00   8.468099999999999e-03  7.37073720e-01   2.63294060e-01  -1.00811876e+00
C     5.148461701810987e+00   1.232067631982959e+00  -1.676189999999878e-02 -2.82886975e+00   1.71771131e+00   3.26784280e-01
C     6.451835922432534e+00   8.451700839661710e-01   3.149640000000000e-02  1.75153291e+00   1.58273100e-02  -1.83535060e-01
C     1.127675211630827e+01   7.154080431221649e+00   2.110410000000000e-02 -4.79036490e-01   3.51768720e+00   6.91770440e-01
C     2.383250034043972e+00   2.041801989545414e+00  -7.718069999999955e-02  1.53956490e+00   3.39255551e+00  -8.74256690e-01
C     2.788640670021913e+00   7.277934447182787e-01  -2.027255999999973e-01 -1.42521445e+00  -2.88450539e+00   7.54253000e-03
C     4.134897743150691e+00   2.332602991587653e-01  -7.960920000000016e-02 -9.90811970e-01   1.37180526e+00  -1.09333190e-01
C     3.862968256611781e-01   1.174701573122567e-01  -1.912067999999998e-01 -3.36397055e+00   6.69308370e-01   2.71126300e-01
C     6.138050158917798e+00   7.441738610544437e+00  -3.076647000000001e-01  4.11439905e+00  -2.01871891e+00   9.39490660e-01
