64
Lattice="7.10842262195238 0 0 0 7.10842262195238 0 0 0 7.10842262195238 " PBC="1 1 1" Properties=species:S:1:pos:R:3:force:R:3 Energy="-508.75094581"
C     7.104502822514653e+00   7.090067322194861e+00   7.492618645765760e-02 -1.42214203e+00   2.29666050e-01  -1.99232923e+00
C     1.744868318660264e+00   1.774679337107115e+00   7.107263733860261e+00  9.95537920e-01   3.73158660e-01  -2.85194960e-01
C     7.087244994077817e+00   1.796490963242776e+00   1.841866441689927e+00  1.19759426e+00  -5.68095050e-01  -9.35666880e-01
C     1.773463228165286e+00   4.438783420832799e-02   1.732891479556279e+00  1.24959911e+00   4.70480900e-02   3.55250700e-02
C     8.709557851357376e-01   8.866473437324828e-01   8.732724200675955e-01 -2.69104110e-01   1.05019095e+00   1.13588245e+00
C     2.639133829998827e+00   2.650840620127479e+00   9.130732602434638e-01  8.62705700e-02   1.68918311e+00  -2.08100642e+00
C     9.192698144097701e-01   2.650523797731306e+00   2.722501979159997e+00 -2.14579245e+00   1.78058423e+00  -9.56844530e-01
C     2.617523016802182e+00   9.512378837006603e-01   2.658847191945516e+00  1.78747424e+00  -1.25023868e+00   3.58472450e-01
C     3.573871287692813e+00   2.958340675455880e-02   7.037126136300567e+00  4.73468090e-01  -1.15740503e+00   2.13179109e+00
C     5.347545849262590e+00   1.750780535921771e+00   6.346158028766920e-02 -3.02385770e-01   7.43323480e-01   1.09394260e-01
C     3.547928317414634e+00   1.857760234910211e+00   1.792164208562434e+00 -6.88665770e-01  -2.35685316e+00  -8.71252210e-01
C     5.293323156938362e+00   7.039470778417547e+00   1.843118661418666e+00  1.00275451e+00   1.67773176e+00  -1.49078749e+00
C     4.477604862540085e+00   9.013748580535036e-01   9.887963008768234e-01 -1.82699797e+00  -5.76932990e-01  -2.61698507e+00
C     6.210574179324052e+00   2.718339713379082e+00   1.015672251623877e+00  9.28817330e-01  -1.18168408e+00  -4.44664671e+00
C     4.405094260257155e+00   2.750939152767081e+00   2.585445335634491e+00  2.16019568e+00  -2.95621026e+00   2.16173386e+00
C     6.245044342292956e+00   8.321909975567344e-01   2.693663819432919e+00 -4.37655320e-01  -6.72296200e-02  -3.78874100e-01
C     7.100923234135900e+00   3.592789999074811e+00   7.100948184699296e+00  1.75084384e+00  -2.28131133e+00   6.28390470e-01
C     1.758418464942734e+00   5.302132838344006e+00   5.599013052446580e-02  2.02066440e-01  -5.10278200e-01  -3.46231154e+00
C     2.576703681833320e-02   5.325396786305159e+00   1.734814663296119e+00 -1.32808757e+00   1.93253915e+00   1.69503360e+00
C     1.755297796328328e+00   3.609431669438945e+00   1.804212345145298e+00  1.05708788e+00  -3.42005810e+00  -6.81121300e-01
C     9.023221264518447e-01   4.450598756574859e+00   8.769785383689850e-01 -8.31781920e-01  -8.50412780e-01   1.71668772e+00
C     2.657751926188226e+00   6.194533952597796e+00   7.829547926162093e-01  1.12865939e+00   1.66145552e+00   3.34153613e+00
C     9.697152331221834e-01   6.320331707703936e+00   2.660000391347159e+00 -1.03018269e+00  -4.10571374e+00  -1.91975683e+00
C     2.705540785199093e+00   4.390455032545075e+00   2.654623509393164e+00 -1.34802639e+00   2.93405791e+00  -4.87547070e-01
C     3.567258464297879e+00   3.539196615405131e+00   7.020478565945658e+00 -9.71482250e-01  -1.43334930e-01   3.08415671e+00
C     5.339840816732094e+00   5.272098402174208e+00   1.901652327725020e-02  7.19153930e-01   2.38781860e+00  -1.95119106e+00
C     3.560622325276751e+00   5.300678312907502e+00   1.744400300114963e+00 -8.66498670e-01   1.05242310e+00   1.66730330e-01
C     5.344792472844960e+00   3.629207585504691e+00   1.763756534909223e+00 -1.47059662e+00  -5.44011260e-01   1.49085295e+00
C     4.462460723569306e+00   4.466040596284964e+00   8.888251511705723e-01 -6.34413450e-01  -1.35045200e+00  -1.79301260e+00
C     6.158144942026849e+00   6.199641069913361e+00   8.714098711727031e-01  1.98965696e+00  -1.20709130e-01   2.08345572e+00
C     4.346643335990098e+00   6.220290113529520e+00   2.685517282773494e+00  1.55886576e+00   7.61585870e-01   1.45448090e-01
C     6.182417432989327e+00   4.525208333889021e+00   2.672826118280425e+00  1.02022013e+00  -5.19527300e-01  -9.76250410e-01
C     8.799608770792060e-02   7.040933762876970e+00   3.577634770964746e+00 -4.55027436e+00   1.71855290e-01  -1.30485344e+00
C     1.726934621400719e+00   1.697947682388204e+00   3.607850329742901e+00  4.75908470e-01   2.08984839e+00  -9.61525480e-01
C     7.056421522997200e+00   1.718049022041492e+00   5.302599506289010e+00  1.63052103e+00  -4.26000100e-02   8.42090160e-01
C     1.788846281220323e+00   7.095544575076251e+00   5.398319961436953e+00 -3.87702200e-02  -6.99190700e-02  -7.26299040e-01
C     8.339216852120257e-01   7.508918969675682e-01   4.442228802192488e+00  2.78931963e+00   4.05842098e+00   2.95435409e+00
C     2.641305950698821e+00   2.649658560529999e+00   4.427644096081903e+00  6.92401450e-01  -1.55486302e+00  -8.69210670e-01
C     8.639176648154494e-01   2.604551140699848e+00   6.183136592105793e+00  1.28152100e-02   1.41701635e+00   2.00952000e-01
C     2.701913783641464e+00   9.625706286310478e-01   6.192446990800790e+00 -1.15800712e+00  -2.01458031e+00   8.05615770e-01
C     3.548164885719428e+00   8.419670690175680e-02   3.594332526783352e+00 -1.23593527e+00  -1.77256963e+00  -1.85826039e+00
C     5.339413529448406e+00   1.726685826609019e+00   3.478618566753265e+00  1.22509170e-01   2.66961383e+00   2.00491622e+00
C     3.580953338064893e+00   1.812912556842595e+00   5.288619016101125e+00 -8.51508320e-01  -4.82135290e-01   1.09272043e+00
C     5.300333412241979e+00   7.096437392957323e+00   5.294388709489100e+00  1.07713174e+00   9.10362300e-02   1.46525797e+00
C     4.412711930273652e+00   9.210379634522688e-01   4.424156846112983e+00  2.27933661e+00   7.81914400e-02  -3.08962530e-01
C     6.301109395591837e+00   2.671443245743930e+00   4.400650287687810e+00 -3.12463715e+00  -5.52071880e-01   2.10191680e-01
C     4.473064855181143e+00   2.624320303764105e+00   6.205136591440883e+00  2.71199390e-01   7.57478150e-01   7.98626830e-01
C     6.192698557877311e+00   8.440432260121914e-01   6.264804548744710e+00  3.01237330e-01   9.95343530e-01  -1.08734365e+00
C     7.090351232594305e+00   3.668481336143286e+00   3.520362565336536e+00  1.38768781e+00  -2.12279232e+00   2.02205434e+00
C     1.867211593625763e+00   5.416499325782246e+00   3.456783553907185e+00 -5.16058030e-01  -1.31486736e+00   3.95478756e+00
C     7.089242247581359e+00   5.448684699552629e+00   5.367899040329307e+00  1.78957108e+00  -4.57653644e+00  -2.08107180e-01
C     1.785133338833218e+00   3.503156415132147e+00   5.245101039568806e+00 -2.13537481e+00   2.52721772e+00   2.60802013e+00
C     9.190272750299757e-01   4.556133526497332e+00   4.439957518996946e+00 -3.76942470e-01  -1.44316847e+00  -1.55563226e+00
C     2.750533688340836e+00   6.289355476621214e+00   4.497105185060852e+00 -2.17432432e+00  -2.23937378e+00  -1.32590109e+00
C     8.645671613902387e-01   6.184277991525886e+00   6.319429293452327e+00  1.08764537e+00   2.46572016e+00  -1.60885494e+00
C     2.598246822846623e+00   4.394923244835555e+00   6.193742785160190e+00  2.22327936e+00   5.86497910e-01   1.20256400e-01
C     3.521683097006654e+00   3.471208960266855e+00   3.515926127695168e+00  1.00485188e+00   2.35588236e+00   1.25846293e+00
C     5.254270407159022e+00   5.395864996600910e+00   3.540937041599412e+00  1.62303238e+00  -3.61279295e+00   1.59346046e+00
C     3.561546278048900e+00   5.276402836407524e+00   5.344735960885131e+00  7.25378000e-02   3.82672330e-01  -5.38341410e-01
C     5.370155822342704e+00   3.483766415330443e+00   5.332060363837599e+00  1.04790720e+00   1.31919688e+00  -6.18664690e-01
C     4.446232123643619e+00   4.313980560556555e+00   4.456322174131579e+00 -7.82683170e-01   3.17736997e+00  -6.86274780e-01
C     6.202405606554506e+00   6.179130569454066e+00   4.466710067527315e+00 -4.16125400e-01   2.72880812e+00  -1.72886319e+00
C     4.501491223985844e+00   6.165685201321014e+00   6.195214228642530e+00 -2.19496595e+00   6.74590450e-01   3.25419330e-01
C     6.318698618691217e+00   4.465823718310828e+00   6.213824860988178e+00 -4.04331202e+00  -1.12064752e+00   1.76537760e-01
