64
Lattice="7.10842262195238 0 0 0 7.10842262195238 0 0 0 7.10842262195238 " PBC="1 1 1" Properties=species:S:1:pos:R:3:force:R:3 Energy="-503.69961978"
C     6.998750534860008e+00   6.690042189854660e-02   6.989121963168539e-02  3.10835822e+00  -1.81849182e+00  -8.77250480e-01
C     1.642006457811364e+00   1.788624996024162e+00   6.991300410364665e+00  3.20962146e+00  -3.07245880e-01   4.68838361e+00
C     7.103689192461569e+00   1.745331503478183e+00   1.849793967848429e+00  6.64610860e-01   1.31747906e+00  -1.46200524e+00
C     1.850957545547097e+00   8.651099605415020e-02   1.702684237632589e+00 -3.02021772e+00  -2.86677721e+00  -4.04569880e-01
C     8.495622053343593e-01   9.240994899904768e-01   9.161740252745340e-01  2.92661730e-01  -1.19712090e-01  -1.64399342e+00
C     2.612232786519925e+00   2.654323605042826e+00   8.722453951674580e-01  5.78230110e-01   4.55972600e-01  -8.30566040e-01
C     8.620544761625212e-01   2.766055355636963e+00   2.661831592098296e+00 -1.38979690e-01  -3.65510835e+00   1.78888042e+00
C     2.582450912605816e+00   9.089647341375562e-01   2.654317136378242e+00  3.01817817e+00   8.80686050e-01   9.41881250e-01
C     3.716767144979517e+00   4.898278967412219e-02   7.031801501252829e+00 -4.73064794e+00  -9.12323640e-01   2.79006759e+00
C     5.365197413228349e+00   1.807303940311189e+00   3.405247205575280e-02  7.85379190e-01  -1.13162887e+00   2.85803178e+00
C     3.533622119302301e+00   1.796149403535885e+00   1.708236484372618e+00  3.14439140e-01  -3.75650050e-01   2.36497860e+00
C     5.257378564949617e+00   7.065522649730264e+00   1.813708486923356e+00  2.11310940e-01   8.09187930e-01  -8.46853880e-01
C     4.459442416240627e+00   8.771873127413344e-01   8.871637706358259e-01  2.20755470e-01   1.38203784e+00   6.04717730e-01
C     6.292203963733501e+00   2.658842855807718e+00   9.922406159731182e-01 -2.15874787e+00   9.23073710e-01  -1.86407066e+00
C     4.507938278965280e+00   2.707846899665474e+00   2.705868554566102e+00 -2.28687535e+00  -6.29955520e-01  -2.91970806e+00
C     6.218492677785827e+00   7.609190379153402e-01   2.646173514172092e+00 -9.02565400e-02   3.71634144e+00  -3.68153830e-01
C     2.592342211597320e-02   3.512728759200692e+00   1.880597179924580e-02 -1.51265999e+00  -1.53315010e-01  -1.12830746e+00
C     1.888259775172035e+00   5.301151947106672e+00   7.029541022859670e+00 -4.89718311e+00   4.17324630e-01   2.64438967e+00
C     5.396408790931340e-02   5.328765965374361e+00   1.900571420981423e+00 -6.46520000e-01   1.22944890e-01  -4.66889715e+00
C     1.773042196293503e+00   3.566726896454355e+00   1.815805400512030e+00 -5.97278510e-01  -5.83371740e-01  -2.35017847e+00
C     9.087732332321733e-01   4.366736856378504e+00   8.510578174536073e-01  8.34624560e-01   3.05485097e+00   1.66457817e+00
C     2.700586001380274e+00   6.282561886039054e+00   7.589010989019745e-01  1.70798678e+00  -1.36608831e+00   2.52873435e+00
C     9.924464048079672e-01   6.233947099403969e+00   2.644794977773395e+00 -1.85794990e-01  -1.47916360e-01   8.73075100e-02
C     2.598095484529043e+00   4.457617541985621e+00   2.666844664982599e+00  4.85513780e+00   3.66479590e-01  -1.99685010e-01
C     3.543138306832148e+00   3.477989400267169e+00   7.067153250795066e+00  4.92462180e-01   8.97212730e-01   8.78426710e-01
C     5.355114968752593e+00   5.285298600811096e+00   6.976901873842498e+00 -1.80982610e-01   3.82895170e-01   5.10072322e+00
C     3.525330073231845e+00   5.373743229986339e+00   1.760540968852840e+00 -1.20398250e-01  -1.68572534e+00  -1.17799122e+00
C     5.392079477218855e+00   3.671860253751476e+00   1.839277980677080e+00 -1.16902814e+00  -4.33907679e+00  -1.14959327e+00
C     4.446174047830814e+00   4.344121765234106e+00   8.623892117836970e-01 -1.69745090e-01   4.56902443e+00  -2.92437500e-02
C     6.156009998377158e+00   6.262866508401594e+00   9.328796003580222e-01  1.44924807e+00  -3.13923076e+00  -8.74513910e-01
C     4.319647039648088e+00   6.244567011714024e+00   2.701701739394710e+00  2.29300695e+00  -1.20455234e+00  -2.91894050e-01
C     6.233259786020842e+00   4.469154654066333e+00   2.785700405642273e+00 -1.44925719e+00   3.58637905e+00  -4.26810180e+00
C     7.079469374910704e+00   7.001951812986926e+00   3.435685542318346e+00  1.34520685e+00   9.19164370e-01   5.58808176e+00
C     1.691466720232871e+00   1.722877133769223e+00   3.585360489005066e+00 -4.37809000e-02   1.84796084e+00   9.01145000e-02
C     6.961315875321660e+00   1.739170562509203e+00   5.283228130554568e+00  4.54132428e+00   1.02858521e+00   1.03984000e-01
C     1.882935211208524e+00   5.568809364734200e-03   5.448131806441245e+00 -5.03333867e+00  -5.87033600e-01  -1.15518821e+00
C     7.998842119280012e-01   7.948367342782178e-01   4.525549893595913e+00  1.60129675e+00   9.72383170e-01  -3.05975846e+00
C     2.573641373368624e+00   2.619588368994423e+00   4.465761590697128e+00  1.87370484e+00   4.88259260e-01  -5.50457030e-01
C     7.678065307603106e-01   2.590605268530123e+00   6.132832133413934e+00  1.34706015e+00   2.75893937e+00   9.99336430e-01
C     2.691964195584477e+00   9.697968378138612e-01   6.289081802350344e+00  5.58041890e-01  -2.87291617e+00  -2.41340201e+00
C     3.515797607414199e+00   6.099126125876680e-02   3.601548144416461e+00  9.20487570e-01  -4.44577780e-01  -3.14587710e-01
C     5.429835863964986e+00   1.783629338775279e+00   3.452243404379791e+00 -1.88893388e+00   6.28249140e-01   2.96979275e+00
C     3.548877078581726e+00   1.753840214270097e+00   5.373715507138121e+00  1.78600450e+00   2.50107323e+00  -1.62161854e+00
C     5.350108009111743e+00   8.631899755918401e-03   5.312558122042724e+00 -9.93222830e-01   5.17408490e-01  -3.18869190e-01
C     4.498768484869705e+00   9.650590030534049e-01   4.396676537274778e+00 -1.76464091e+00  -1.74900911e+00   1.35131655e+00
C     6.335492053878288e+00   2.749441337036820e+00   4.348173281790601e+00 -3.81152366e+00  -3.25651906e+00   1.73695190e+00
C     4.611531951922909e+00   2.625753717185427e+00   6.287290479850105e+00 -6.61772949e+00   1.98694755e+00  -3.28546821e+00
C     6.157242527775240e+00   9.649606224843442e-01   6.236913586331748e+00  6.93025040e-01  -3.31841374e+00  -3.77454150e-01
C     1.311020600651840e-02   3.698140376514521e+00   3.543958121212912e+00  3.24090470e+00  -3.56608060e+00   1.35588727e+00
C     1.983522021397894e+00   5.420293090934540e+00   3.578166623145174e+00 -6.88645795e+00  -1.02217983e+00   5.42822060e-01
C     2.459300973841400e-03   5.313991748716727e+00   5.306694668560391e+00  6.87528920e-01   1.36536517e+00   3.60824200e-01
C     1.670637407019069e+00   3.564323467682307e+00   5.288973442052957e+00  1.41822196e+00  -2.43762220e+00  -2.43910660e-01
C     9.766460162609096e-01   4.522150006140993e+00   4.416995252491785e+00 -2.68678671e+00   1.96640020e-01  -4.43978150e-01
C     2.706215872095315e+00   6.221370735936214e+00   4.603257605824776e+00  1.58201919e+00   1.52064979e+00  -4.27613639e+00
C     8.940671863474650e-01   6.186345334076461e+00   6.278061259341428e+00 -6.10361490e-01   1.45001355e+00  -7.49130750e-01
C     2.578223889094833e+00   4.373738936996109e+00   6.113001198157111e+00  3.80928354e+00   3.49964780e-01   3.65660555e+00
C     3.492709521828665e+00   3.525258989005644e+00   3.567454870014870e+00  1.65917441e+00  -8.23232470e-01   4.58594040e-01
C     5.268573761902307e+00   5.319977111646992e+00   3.575175612159356e+00 -8.64687490e-01  -3.73069820e-01   1.37453372e+00
C     3.523370636536642e+00   5.263650326227243e+00   5.368568795908562e+00  2.77382497e+00   4.17391010e-01  -4.79400920e-01
C     5.389860440929570e+00   3.519346060901877e+00   5.304105354536830e+00 -5.81551720e-01  -1.18201701e+00   1.14145590e-01
C     4.446233758580822e+00   4.322702524027069e+00   4.508343814475750e+00 -2.36859951e+00   3.45895954e+00  -2.26268185e+00
C     6.134087836269757e+00   6.184675921024154e+00   4.438090491795802e+00  3.18370308e+00   3.56738770e-01  -7.11284400e-01
C     4.519957697520759e+00   6.217964521985161e+00   6.221835555691334e+00 -2.13123737e+00  -5.54544950e-01  -2.21888556e+00
C     6.209120293645584e+00   4.398642300466112e+00   6.140162694240809e+00  2.57277605e+00   9.65450380e-01   2.21713388e+00
