64
Lattice="9.86 0 0 4.93 8.53901048131456 0 0 0 30 " PBC="1 1 1" Properties=species:S:1:pos:R:3:force:R:3 Energy="-514.51256747"
C     4.972766616099999e+00   8.367680272734983e+00  -5.968413000000012e-01 -1.71426353e+00  -1.33665570e+00   2.33547860e-01
C     1.246747502800000e+00   5.526606408250928e-01  -5.721401999999998e-01  1.03463897e+00  -1.37098961e+00  -9.25522700e-02
C     9.868444104000000e+00   1.595136683924784e-01   3.818826600000000e+00 -2.04777851e+00   1.57546033e+00   3.27347750e-01
C     1.196879517500000e+00   9.085714648674664e-01   3.875516700000000e+00  1.64849081e+00  -2.94402700e-01   1.16387960e-01
C     7.393734666200000e+00   8.317101237348904e+00  -6.183771000000000e-01  1.34687386e+00   2.32411538e+00   2.29033130e-01
C     3.721577922799999e+00   5.080070809814000e-01  -5.500614000000006e-01 -3.97419100e-01  -3.80265800e-02   8.16802290e-01
C     2.454203940900000e+00   1.787866419963624e-01   3.763237800000000e+00 -3.10627070e-01   9.18916800e-01  -8.77192200e-02
C     3.682220352400000e+00   9.234659754576257e-01   3.779962800000000e+00 -5.85109200e-01  -5.31553850e-01   3.04216460e-01
C     9.892194872000001e+00   8.325663644717620e+00  -4.485330000000012e-01 -1.41405887e+00   1.07273254e+00  -3.07027560e-01
C     6.167021450899999e+00   5.057392051880168e-01  -4.546694999999978e-01  9.54361910e-01   2.63099290e-01  -3.60203550e-01
C     4.913824472800000e+00   1.929215222142208e-01   3.734147400000000e+00 -7.00991630e-01  -5.71148800e-01  -2.86533300e-02
C     6.133953130800000e+00   8.843122214838912e-01   3.755421000000000e+00 -3.54570390e-01   1.43238709e+00   4.51462780e-01
C     1.231692145550000e+01   8.295171094463853e+00  -4.557372000000015e-01  1.59903298e+00   1.56107807e+00   1.19586860e-01
C     8.637270471199999e+00   4.878128335368288e-01  -6.031292999999991e-01 -8.27507600e-02   4.01130000e-01   6.22698210e-01
C     7.349601897800000e+00   2.501515074730672e-01   3.850483200000000e+00  1.69877232e+00  -3.05748878e+00   1.71678000e-03
C     8.604380370599999e+00   8.775949234996944e-01   3.906135000000000e+00  5.91017990e-01   2.41090022e+00  -4.26440180e-01
C     1.296318603500000e+00   1.957609395960618e+00  -3.965166000000018e-01 -2.11210758e+00  -4.10596200e-02  -2.02458140e-01
C     2.482318892800000e+00   2.642930993531629e+00  -2.310312000000003e-01  1.64277911e+00   1.30008600e+00  -1.00689960e-01
C     1.105926405990000e+01   2.328528640992954e+00   4.070462400000000e+00  2.87160260e-01  -4.12812750e-01  -4.63234790e-01
C     2.449416812300000e+00   3.054591309195827e+00   4.065771300000000e+00 -4.88436750e-01  -1.47916503e+00  -3.37210010e-01
C     3.732375707400000e+00   1.944071904915941e+00  -3.773513999999984e-01 -1.10546735e+00  -6.75895190e-01  -1.97938260e-01
C     4.924198523899999e+00   2.673642142453683e+00  -4.357860000000002e-01  1.70156458e+00  -2.54420030e-01  -7.74940000e-04
C     3.654002018399999e+00   2.352092638143248e+00   3.919508400000000e+00  1.81500772e+00  -1.32174289e+00  -3.76473010e-01
C     4.940775106600000e+00   3.015184032000941e+00   3.825150600000000e+00 -1.77905240e+00   9.89365410e-01  -5.89862400e-02
C     6.198489049299999e+00   1.949550790210223e+00  -5.492838000000013e-01 -2.43244212e+00  -6.51715100e-01   3.35305870e-01
C     7.391967014700000e+00   2.643130037865918e+00  -6.131184000000012e-01  2.06146592e+00   7.05555260e-01   2.18965630e-01
C     6.158104855700000e+00   2.292786392486190e+00   3.783195000000000e+00 -4.73116240e-01   1.41255413e+00  -1.81832190e-01
C     7.368967825200000e+00   3.054324465118326e+00   3.808366800000000e+00  3.36748280e-01  -7.43397780e-01  -3.71357140e-01
C     8.637144312500000e+00   1.904781441384422e+00  -5.943012000000003e-01  1.07164133e+00   1.84738054e+00   1.72735700e-01
C     9.921176665799999e+00   2.687844993194962e+00  -4.421372999999988e-01 -2.00968153e+00  -1.62251874e+00   7.23386000e-03
C     8.599136132400000e+00   2.372304646729618e+00   3.913661700000000e+00 -2.67121830e-01  -3.38932101e+00   2.37627320e-01
C     9.815567438300000e+00   3.023018147165817e+00   4.058300400000000e+00  8.00821860e-01   1.00738621e+00  -3.31163670e-01
C     2.472216041000000e+00   4.089482576236658e+00  -7.893209999999939e-02  7.50531230e-01  -9.86664030e-01  -5.77134920e-01
C     3.707651954600000e+00   4.796242298908862e+00  -1.884297000000004e-01 -4.31168400e-02  -8.81042860e-01   1.19131080e-01
C     1.233137946930000e+01   4.440495765428122e+00   4.034780700000000e+00 -1.21337826e+00   1.68949639e+00   2.55169910e-01
C     3.652457991700000e+00   5.214592416943510e+00   3.931740300000000e+00  1.69746421e+00  -2.04928079e+00  -5.39591540e-01
C     4.903787042099999e+00   4.101448889353015e+00  -3.913007999999998e-01  2.35727068e+00  -4.32411760e-01  -2.29506750e-01
C     6.180521664300000e+00   4.823348106826049e+00  -5.628761999999981e-01 -4.29204800e-01  -1.07843249e+00  -1.69294940e-01
C     4.900697115300000e+00   4.447389650149046e+00   3.771823500000000e+00  9.14326330e-01   1.32476412e+00   4.16869330e-01
C     6.168940601299999e+00   5.181973396909910e+00   3.656879100000000e+00 -1.46024678e+00  -8.99844310e-01  -8.68245400e-02
C     7.430208137300000e+00   4.087789034288160e+00  -6.071898000000004e-01 -1.16253733e+00  -2.32519300e-01   2.72274810e-01
C     8.658855588800000e+00   4.794099861179428e+00  -4.967091000000003e-01 -5.42849580e-01   3.57678600e-01   1.02576420e-01
C     7.407018896300000e+00   4.459879148437513e+00   3.667879200000000e+00 -1.74890065e+00   4.27108010e-01   7.25911970e-01
C     8.599990600000000e+00   5.185588728557037e+00   3.768726300000000e+00  1.41607117e+00  -1.31840747e+00   2.15815370e-01
C     9.872257311100000e+00   4.101273668857965e+00  -3.109016999999987e-01  1.16497973e+00  -7.43364270e-01  -2.23095130e-01
C     1.112900847410000e+01   4.804314823246338e+00  -1.289505000000020e-01 -2.11160039e+00  -2.25798450e-01  -3.60169770e-01
C     9.821109547100001e+00   4.441908459321933e+00   4.007454300000000e+00  2.84572910e-01   8.06318510e-01  -5.53101340e-01
C     1.107647118960000e+01   5.117321730692371e+00   4.014798900000000e+00 -2.45140430e-01   1.83045834e+00  -1.05391480e-01
C     3.757412515200000e+00   6.182842855275487e+00  -2.307486000000019e-01 -8.77356190e-01   1.99160938e+00  -6.93076710e-01
C     4.944690512599999e+00   6.904844028533651e+00  -5.180633999999991e-01  9.81709960e-01   1.57478841e+00  -1.28114300e-01
C     1.352540974260000e+01   6.622969414006546e+00   3.884713500000000e+00  2.94597450e-01   2.67400380e-01  -3.48347660e-01
C     4.914140091399999e+00   7.304194762860195e+00   3.726496500000000e+00 -3.71944600e-02  -5.43295470e-01   4.07271090e-01
C     6.182680609900000e+00   6.245514666523132e+00  -6.740259000000002e-01  3.00060300e-02  -1.61206522e+00   1.02749013e+00
C     7.435947298200000e+00   6.918733070639790e+00  -6.635318999999988e-01 -1.25470254e+00   2.95238160e-01   2.58535400e-02
C     6.140331762000000e+00   6.600783698537828e+00   3.636919200000000e+00  4.29280100e-01  -5.22129650e-01   1.07044160e-01
C     7.387158095500000e+00   7.293305731305995e+00   3.644944200000000e+00 -7.63120610e-01   9.42620900e-01   4.95968200e-02
C     8.642152502299998e+00   6.224444487383522e+00  -5.085585000000030e-01  1.73974440e-01  -9.13937510e-01  -1.49782300e-01
C     9.858049691999998e+00   6.920451802669205e+00  -3.831338999999971e-01  6.28193870e-01  -1.38291010e-01   3.69965600e-02
C     8.602045719800000e+00   6.583953821222377e+00   3.683522700000000e+00  6.45965550e-01   5.41211640e-01   1.41451990e-01
C     9.834992870799999e+00   7.294491202130932e+00   3.750756600000000e+00  5.36160250e-01  -4.50579600e-02   2.68277270e-01
C     1.106188223500000e+01   6.209297222083156e+00  -2.166042000000026e-01  3.25835005e+00   6.04376260e-01   4.35386840e-01
C     1.239607571140000e+01   6.918315171466899e+00  -2.235942000000009e-01 -3.00712965e+00  -1.00513160e+00  -3.63063860e-01
C     1.107629794940000e+01   6.570314118222254e+00   3.903755700000000e+00  2.89968200e-02   5.39110310e-01  -1.39677050e-01
C     1.230719540360000e+01   7.349837481677891e+00   3.909228600000000e+00 -1.06317141e+00  -1.03092018e+00  -1.81557770e-01
