64
Lattice="9.86 0 0 4.93 8.53901048131456 0 0 0 30 " PBC="1 1 1" Properties=species:S:1:pos:R:3:force:R:3 Energy="-512.45280442"
C     5.033659609699999e+00   8.159337809934511e+00  -6.681600000000003e-01 -7.81550060e-01  -2.09724912e+00   1.10671172e+00
C     1.334632591500000e+00   3.467353157211944e-01  -6.090705000000014e-01 -8.28659040e-01  -1.46465641e+00  -5.64235090e-01
C     9.765348732799998e+00   4.125457256608688e-01   3.846552600000000e+00  8.86989420e-01  -6.73118000e-01  -1.65218100e-02
C     1.176509102600000e+00   1.075666835275032e+00   3.886711800000000e+00 -1.15810755e+00   1.96482649e+00   6.84384000e-01
C     7.455867604100000e+00   8.121988519655410e+00  -6.136233000000004e-01  8.13388720e-01   1.67626333e+00   5.35006100e-01
C     3.810464688900000e+00   3.056992222772488e-01  -5.132769000000010e-01 -4.02468395e+00  -1.19620450e-01   5.44056780e-01
C     2.429189071600000e+00   4.003301588286000e-01   3.796642800000000e+00 -1.62378213e+00   1.49674720e-01  -3.69352960e-01
C     3.623817403200000e+00   1.158903743192395e+00   3.886665600000000e+00  3.19103700e-02  -1.96883230e+00   2.69750410e-01
C     9.867691588800000e+00   8.123621434629500e+00  -4.342419000000000e-01  4.87370230e+00  -5.88558920e-01  -7.63395850e-01
C     6.244302799800001e+00   2.220059042497296e-01  -5.735741999999995e-01 -1.53353938e+00   4.07313092e+00   2.50047170e-01
C     4.848344952300000e+00   4.767139131050296e-01   3.865874400000000e+00  4.01658690e-01  -2.19027191e+00  -1.27887863e+00
C     6.073793376099999e+00   1.195799014284274e+00   3.780975300000000e+00 -1.43117830e-01  -4.20617402e+00   9.98428000e-01
C     1.240574146940000e+01   8.134938526779065e+00  -5.670981000000026e-01 -2.81347980e-01  -2.60621239e+00   1.16228687e+00
C     8.701189400199999e+00   3.116537304552672e-01  -6.326277000000005e-01  1.21805044e+00  -1.91154020e+00  -1.47044790e-01
C     7.287141953000000e+00   3.932584919094832e-01   3.855299700000000e+00 -4.08552140e-01   4.22553112e+00  -2.74353300e-02
C     8.497910956700000e+00   1.119475630811938e+00   3.964178400000000e+00  2.23661838e+00  -2.09112307e+00  -9.03373490e-01
C     1.345155035600000e+00   1.744352647238802e+00  -5.390870999999997e-01  2.13672780e-01   4.79879440e-01   7.91789540e-01
C     2.603652059500000e+00   2.406182743858493e+00  -2.969316000000006e-01 -3.13773591e+00   1.31960599e+00  -4.75120240e-01
C     1.100594753960000e+01   2.541376883453408e+00   4.115815800000000e+00  7.59221880e-01  -7.40291220e-01  -7.15412320e-01
C     2.378845883600000e+00   3.255304080742313e+00   4.122533100000000e+00 -6.86158700e-02  -2.04417860e-01  -4.51962200e-02
C     3.796084667700000e+00   1.698521130899393e+00  -3.144852000000000e-01  8.08994280e-01   7.75623330e-01  -9.28737340e-01
C     4.996924404900000e+00   2.458145696673066e+00  -4.055958000000004e-01  2.01520441e+00  -3.16775257e+00  -6.62165160e-01
C     3.620689170299999e+00   2.533120599610401e+00   4.023794400000000e+00 -1.21238194e+00   1.92998248e+00  -6.72709870e-01
C     4.801741070700000e+00   3.238834464279014e+00   3.829841700000000e+00  2.18348492e+00   2.25052722e+00   2.49640800e-01
C     6.238717307000000e+00   1.722770639811021e+00  -6.464913000000010e-01  9.12078120e-01  -6.99118400e-01   1.34210547e+00
C     7.537099953600000e+00   2.434711321701859e+00  -6.134646000000004e-01 -2.45725873e+00  -5.44430400e-01  -4.79760660e-01
C     6.051128736399999e+00   2.541514190741927e+00   3.811018800000000e+00  1.43045450e+00   3.03158918e+00  -7.44785800e-02
C     7.366600044799999e+00   3.232261560962034e+00   3.875903700000000e+00 -2.84029131e+00  -4.49459060e-01  -5.83073010e-01
C     8.748887791100000e+00   1.687042139111129e+00  -6.132774000000012e-01 -4.41663040e-01   2.70656189e+00  -3.19763570e-01
C     9.967824720199998e+00   2.444463725571067e+00  -5.564771999999998e-01  3.02824060e-01   1.55284440e-01   8.50128650e-01
C     8.546686158200000e+00   2.491563028796441e+00   3.967785600000000e+00  1.19488689e+00   3.24815823e+00   4.38808460e-01
C     9.804859379700000e+00   3.292880935650706e+00   4.082593800000000e+00 -1.12140489e+00  -2.70883006e+00  -2.46525650e-01
C     2.515973784300000e+00   3.839046634324502e+00  -2.248319999999993e-01  1.19635819e+00   3.46001870e-01  -1.02198880e-01
C     3.813232736000000e+00   4.499662483653938e+00  -2.978771999999985e-01 -3.21904148e+00   2.25236625e+00   5.43082300e-01
C     1.222223247380000e+01   4.676182616098594e+00   4.105854900000000e+00  1.97935788e+00   4.05636500e-02  -3.08507320e-01
C     3.634895803400000e+00   5.402180900162446e+00   3.961578000000000e+00 -1.56956925e+00   1.83335625e+00  -2.93282300e-01
C     5.012304673799999e+00   3.828750722438242e+00  -4.090755000000001e-01  1.46492865e+00   1.33969792e+00   1.43163400e-01
C     6.248101167600000e+00   4.568673912452249e+00  -5.065886999999982e-01  4.89089410e-01  -1.51446298e+00  -7.03759850e-01
C     4.873295386500000e+00   4.744824391133227e+00   3.755784900000000e+00 -3.44149687e+00  -4.20585236e+00   1.18874294e+00
C     6.062685987500000e+00   5.360574656988751e+00   3.686166600000000e+00  3.51725395e+00   1.84843202e+00  -2.57882700e-01
C     7.496106214799999e+00   3.868471637488058e+00  -6.237636000000002e-01 -4.09514430e-01  -4.36303440e-01   1.00057859e+00
C     8.701845928299999e+00   4.595203507942247e+00  -5.006880000000002e-01  5.33447750e-01   4.55050140e-01  -3.11735790e-01
C     7.341251808899999e+00   4.624198059587506e+00   3.758732100000000e+00 -9.10308080e-01   1.26601112e+00   1.81947230e-01
C     8.538954636400000e+00   5.353904067391880e+00   3.825083100000000e+00  8.83256730e-01   1.87434137e+00  -1.19859180e-01
C     9.940858408999999e+00   3.878323776999672e+00  -3.464300999999992e-01 -1.64975943e+00  -6.32708680e-01  -1.12903648e+00
C     1.110919460690000e+01   4.612250105343681e+00  -2.362217999999991e-01  3.12469900e+00  -2.04328929e+00  -1.14058720e-01
C     9.813551906400001e+00   4.702711784638067e+00   4.029600600000000e+00 -2.68211597e+00  -1.08151315e+00  -2.78485760e-01
C     1.100428169260000e+01   5.371440291654237e+00   4.058364300000000e+00  1.54908795e+00   3.36554677e+00  -2.59378940e-01
C     3.766025126600000e+00   5.933518436357512e+00  -3.199143000000007e-01  4.13183220e-01   1.45312579e+00  -2.91764550e-01
C     5.027583631200000e+00   6.665625186958337e+00  -5.107886999999991e-01 -1.52593473e+00   1.55069273e+00  -2.84734310e-01
C     1.345884798850000e+01   6.875990797511836e+00   3.922279800000000e+00  9.44170480e-01  -2.57328149e+00  -6.80338420e-01
C     4.877627624000000e+00   7.503201867063303e+00   3.729631500000000e+00 -2.57642916e+00   2.00932469e+00   9.06651840e-01
C     6.269851341600000e+00   5.966601124660176e+00  -5.778365999999977e-01 -3.18699316e+00   1.29494700e-01   4.89721730e-01
C     7.395646470899999e+00   6.728722240927887e+00  -6.055829999999993e-01  4.78866993e+00  -3.14875250e-01  -4.35272490e-01
C     6.072632459700000e+00   6.810233585607453e+00   3.655601700000000e+00  1.42787834e+00  -9.90829510e-01  -4.11286640e-01
C     7.320344467699999e+00   7.526914784556367e+00   3.596484900000000e+00 -1.50068020e-01  -9.71988000e-03   1.08875675e+00
C     8.706617921799999e+00   6.038265624014624e+00  -5.769980999999973e-01 -1.50888845e+00  -1.20735416e+00   1.05013438e+00
C     9.914229408399999e+00   6.732383854011816e+00  -4.116888000000003e-01 -2.54509730e-01  -1.03502549e+00  -3.33866160e-01
C     8.524811057999999e+00   6.812340586443392e+00   3.709848900000000e+00  1.65557612e+00  -1.07567043e+00   6.07171800e-02
C     9.795715215700000e+00   7.525999744193331e+00   3.785351400000000e+00 -1.50700260e+00   1.64564446e+00   5.84708210e-01
C     1.116612664130000e+01   6.012555773530706e+00  -3.014664000000025e-01 -3.16076188e+00  -3.60180520e-01   3.71422280e-01
C     1.233635383930000e+01   6.671634857144056e+00  -2.765853000000007e-01  5.21920107e+00   1.98515172e+00  -1.50921619e+00
C     1.101731646470000e+01   6.863142148442580e+00   3.932068200000000e+00 -7.54586210e-01  -2.54041877e+00  -1.57395050e-01
C     1.221505404870000e+01   7.587738326985616e+00   3.899202900000000e+00  1.06611658e+00  -2.86136985e+00   4.11430710e-01
