64
Lattice="9.86 0 0 4.93 8.53901048131456 0 0 0 30 " PBC="1 1 1" Properties=species:S:1:pos:R:3:force:R:3 Energy="-507.28996236"
C     1.439040871000000e-01   1.701058839423944e-01  -7.262340000000123e-02  9.19457670e-01  -2.52779998e+00  -9.00941350e-01
C     1.414506134400000e+00   7.882048046304432e-01  -2.884037999999975e-01 -4.50339500e-01   1.77208922e+00   1.55404499e+00
C     1.042578849200000e+00   7.102684020784352e-01   3.193471200000000e+00  2.23219182e+00  -1.54099221e+00   1.63041664e+00
C     2.380683048100000e+00   1.217873893396961e+00   3.439140300000000e+00 -3.13598207e+00   5.61029839e+00  -2.16601470e-01
C     2.684328650100000e+00   8.992457553519440e-02  -2.681861999999988e-01 -2.29204991e+00   2.10426610e-01   3.60001820e-01
C     3.864730628600000e+00   8.554542940063120e-01  -2.902260000000112e-02  5.71086650e-01  -3.65826844e+00  -1.47970733e+00
C     3.607595090300000e+00   5.848490385601864e-01   3.377771100000000e+00 -3.11193960e-01   9.77763180e-01   9.91448940e-01
C     4.756525822200000e+00   1.386744353303109e+00   3.637305600000000e+00  1.12563354e+00  -1.64877260e-01  -1.75923506e+00
C     5.119321071200000e+00   8.330402453973601e-02  -2.231645999999969e-01 -2.92235820e-01  -4.22504070e-01   1.52310804e+00
C     6.313519161699999e+00   8.041801831671608e-01  -1.951599000000002e-01  1.08664187e+00  -1.17091252e+00   8.82366700e-02
C     5.956339971499999e+00   6.538867675107768e-01   3.408715200000000e+00  2.28850841e+00  -1.31287120e-01   6.53905710e-01
C     7.266886160600000e+00   1.301188250139377e+00   3.233207100000000e+00 -1.21899847e+00   8.06059090e-01   9.00804680e-01
C     7.614922961600000e+00   1.251962391744064e-01  -8.628030000000209e-02 -3.33488551e+00  -9.69329490e-01  -3.90087700e-01
C     8.756106247799998e+00   9.111233481494143e-01  -5.815409999999943e-02  2.14361445e+00  -3.10701106e+00   4.93596110e-01
C     8.509990048299999e+00   5.489016830216920e-01   3.325155900000000e+00 -4.58753152e+00  -2.06397790e-01  -5.90640050e-01
C     9.620239211399999e+00   1.329000831953995e+00   3.262002900000000e+00  4.34348911e+00   1.52073898e+00   1.89170619e+00
C     1.354218791300000e+00   2.256189389030377e+00  -1.040163000000014e-01  1.11307030e-01  -1.42583914e+00   1.85475148e+00
C     2.549389915900000e+00   2.931676352061257e+00   2.311092000000000e-01  2.52169401e+00   2.85192590e-01  -1.38535910e+00
C     2.285169918300000e+00   2.690810676924770e+00   3.690114000000000e+00  3.56396985e+00   5.90898850e-01  -1.28210990e+00
C     3.542131197900000e+00   3.551901913309349e+00   3.608995500000000e+00 -1.11924040e+00  -3.22986753e+00   1.42704032e+00
C     3.834765743500000e+00   2.222770092934591e+00   1.972821000000000e-01 -1.14826597e+00   7.81665850e-01  -1.38612911e+00
C     5.050548803700000e+00   2.889297413829226e+00  -5.305949999999982e-02  1.20691650e-01   3.25991360e+00   1.71037482e+00
C     4.798111801899999e+00   2.825221874648774e+00   3.645458400000000e+00 -1.63159510e-01   5.28418250e-01  -2.14071599e+00
C     6.035451977299999e+00   3.551460104907114e+00   3.236956200000000e+00 -7.92253810e-01  -4.40048220e+00   1.87182817e+00
C     6.224440174900000e+00   2.192106335520701e+00  -2.015181000000013e-01  3.19212526e+00   8.75097020e-01  -4.64207830e-01
C     7.510196844999999e+00   2.934817427066325e+00  -2.407575000000008e-01 -1.45507568e+00  -2.47573841e+00   1.81215724e+00
C     7.291471478999999e+00   2.799263538959888e+00   3.174530100000000e+00 -3.24823724e+00  -3.77976696e+00   2.27018490e-01
C     8.457709370300000e+00   3.418791377661660e+00   3.380140500000000e+00  2.61924000e+00   2.43676447e+00   1.55506358e+00
C     8.719711065099998e+00   2.278467325812278e+00   3.352410000000000e-02  1.38367129e+00   7.53034150e-01  -1.34449945e+00
C     9.980939851299999e+00   2.959384416387599e+00   1.272657000000000e-01  4.17498810e-01  -1.93642540e-01  -1.90750725e+00
C     9.718331076300000e+00   2.701103087816733e+00   3.681010800000000e+00 -3.50054643e+00   8.28899580e-01  -3.44114689e+00
C     1.093270460020000e+01   3.430852132233926e+00   3.672532800000000e+00  3.21328860e-01  -4.39025910e+00   8.57561280e-01
C     2.643607589600000e+00   4.360107215236573e+00   2.349516000000000e-01  5.64360100e-01  -1.11261477e+00   8.86368820e-01
C     3.912144361300000e+00   5.085181492976385e+00   2.253762000000000e-01 -9.19244680e-01  -1.37223690e+00   2.86757950e-01
C     3.474056771900000e+00   4.961221190178853e+00   3.601722300000000e+00  2.79831544e+00  -8.36613560e-01  -6.83848150e-01
C     4.778571549700000e+00   5.616916776279608e+00   3.489686400000000e+00 -7.69892800e-01   1.80302117e+00  -3.15847240e-01
C     5.187240695200000e+00   4.388763963627243e+00   9.440609999999999e-02 -4.31357586e+00  -2.49555125e+00  -1.05569366e+00
C     6.343604042999999e+00   5.034460026895499e+00  -2.057813999999993e-01  1.44745744e+00   2.27536702e+00   1.23607234e+00
C     5.989790120099999e+00   4.896143683508678e+00   3.330478200000000e+00  1.55975310e-01   3.59637081e+00  -5.07197170e-01
C     7.219829064100000e+00   5.667488382726571e+00   3.216511800000000e+00 -9.44857010e-01  -4.58271570e-01   2.01132894e+00
C     7.547374862400000e+00   4.268448622843205e+00  -1.161516000000020e-01  1.28173035e+00   4.17845717e+00  -1.36621418e+00
C     8.830000637400000e+00   5.005784834242192e+00  -6.771539999999732e-02 -2.89494447e+00   2.74091623e+00   4.50864460e-01
C     8.362950136100000e+00   4.877876349169023e+00   3.440922000000000e+00  2.28955576e+00  -2.92253020e-01  -1.26601846e+00
C     9.605350069099998e+00   5.520880916333983e+00   3.478411800000000e+00  3.43085299e+00   1.14031365e+00   1.49990594e+00
C     1.006911689460000e+01   4.395257027196235e+00   4.410840000000000e-02 -2.86533306e+00  -3.72471863e+00   1.14505432e+00
C     1.125057902030000e+01   5.012966910566815e+00   2.445231000000000e-01  2.63462666e+00   9.55061210e-01  -4.97606220e-01
C     1.091783695270000e+01   4.761746660542071e+00   3.653088600000000e+00 -1.90256255e+00   6.35455294e+00  -1.19644604e+00
C     1.210029222690000e+01   5.591870833860511e+00   3.522966000000000e+00 -7.45027120e-01   2.11389060e-01   1.41994480e-01
C     3.833209934100000e+00   6.484567851295134e+00   2.301210000000000e-01  2.99106496e+00   1.67487638e+00  -1.99871754e+00
C     5.112202151200000e+00   7.213424739897376e+00  -1.746089999999967e-02 -1.38692681e+00   1.20456999e+00   1.27040360e-01
C     4.797310874100000e+00   7.104562859260267e+00   3.392623200000000e+00  2.11868056e+00  -3.99098811e+00   1.03507040e+00
C     6.048820165300000e+00   7.894920006872298e+00   3.388155900000000e+00 -1.16089959e+00  -4.56216224e+00  -1.35500607e+00
C     6.352608244300001e+00   6.520735513304012e+00  -2.148095999999988e-01 -3.76920166e+00  -2.56269435e+00   3.09290900e-01
C     7.522335638900000e+00   7.170721916997839e+00  -3.178052999999998e-01  3.54092191e+00   2.95772529e+00   9.49689020e-01
C     7.305655434099999e+00   7.098335871257831e+00   3.377190900000000e+00 -2.47880673e+00  -5.30708310e-01  -1.75456142e+00
C     8.553219739299999e+00   7.719484499538812e+00   3.234339600000000e+00 -7.16492320e-01   3.47336940e-01   2.06229562e+00
C     8.711124089700000e+00   6.474496942335021e+00  -6.052619999999820e-02  4.59808639e+00  -1.24022138e+00  -1.39838951e+00
C     1.011806089930000e+01   7.178278599712220e+00  -1.020827999999980e-01 -4.98646704e+00  -8.76555830e-01   8.81525830e-01
C     9.715856068399999e+00   6.996197778252883e+00   3.502243800000000e+00 -1.97299440e-01  -1.83366801e+00  -1.34760865e+00
C     1.090069184240000e+01   7.758558926105187e+00   3.502491300000000e+00  1.65794365e+00  -3.88830650e-01  -1.30010316e+00
C     1.124514473060000e+01   6.370508274978849e+00   1.937247000000000e-01  1.67439407e+00   6.66561965e+00  -2.35725796e+00
C     1.251473755760000e+01   7.222985869931833e+00   1.005840000000000e-02 -1.26238959e+00  -1.42297476e+00   1.99891127e+00
C     1.214584971600000e+01   7.020270102697052e+00   3.338165700000000e+00 -2.05788107e+00  -1.29767938e+00   1.99579418e+00
C     1.339335841080000e+01   7.610156388929495e+00   3.420724200000000e+00  2.68979640e-01   5.37467765e+00  -1.28319759e+00
