76
Lattice="10.7446858958278 0 0 5.37234294791388 9.3051709414712 0 0 0 30 " PBC="1 1 1" Properties=species:S:1:pos:R:3:force:R:3 Energy="-612.88190804"
C     1.633469469696220e-01   1.482146237665080e-02  -3.596699999999231e-03 -3.20260348e+00   1.37016221e+00   1.05791460e-01
C     1.257535108576289e+01   8.561446219656398e+00   1.036197000000000e-01 -1.98012547e+00  -9.90155400e-02  -1.92820900e-01
C     1.395752330439562e+01   8.410511508320708e+00   9.870000000000000e-02  1.25323051e+00  -2.37850016e+00  -8.70265300e-02
C     1.454330096209980e+01   7.073575719984158e+00   6.257760000000000e-02 -8.29563840e-01  -3.61383900e-02  -1.13220230e-01
C     8.285181471404638e+00   8.998923899659898e+00  -3.264420000000001e-02  1.31177420e+00   4.59523700e-02  -1.80560000e-03
C     9.715093994917378e+00   8.841755933466633e+00   2.880270000000000e-02 -3.63784490e-01   3.20544930e-01  -2.30837530e-01
C     1.030222086283002e+01   7.562816484047820e+00   2.310930000000000e-02 -1.12474526e+00  -8.08061190e-01   4.57244500e-02
C     1.169795319740912e+01   7.424274585473442e+00   3.507270000000000e-02  1.45597219e+00  -6.95184780e-01  -9.86494200e-02
C     1.228450404271067e+01   6.110204765894590e+00  -5.202899999999744e-02 -2.24010839e+00  -6.78202500e-01  -1.88647990e-01
C     1.366557020337685e+01   5.924099858267240e+00  -2.586149999999776e-02  1.29357809e+00   1.19959843e+00   2.45876740e-01
C     6.041435976641370e+00   8.042218890876619e+00   8.009130000000000e-02  1.40288295e+00  -1.03976843e+00  -4.83335120e-01
C     7.453861094064424e+00   7.866385123984550e+00   3.172410000000000e-02 -5.03539400e-01  -9.18921000e-03   2.51009600e-02
C     8.003049443085898e+00   6.573903114883080e+00   3.117000000000000e-02  8.44440850e-01  -1.27190081e+00  -1.50853800e-02
C     9.432224612528751e+00   6.403374132892196e+00   1.411500000000000e-03 -4.11955190e-01   1.46140124e+00  -1.23458280e-01
C     9.983654893986689e+00   5.123459594610581e+00  -7.245780000000224e-02  8.78886640e-01  -5.87943640e-01  -6.54983300e-02
C     1.139221251544347e+01   4.948700295806953e+00  -1.531266000000002e-01  1.62922509e+00  -1.02409530e-01   5.72309120e-01
C     1.198013400660185e+01   3.605148437880353e+00  -1.720484999999989e-01 -6.63709290e-01   1.72428241e+00  -1.84856200e-01
C     5.216119514888360e+00   6.892644952657994e+00   7.101660000000000e-02 -1.56006050e+00   1.20695109e+00   2.22634720e-01
C     5.744413264197830e+00   5.609103630950805e+00   7.021410000000000e-02  7.65224880e-01  -1.60487249e+00  -3.04889240e-01
C     7.160532458356732e+00   5.396399147777789e+00   3.634440000000000e-02  3.70862100e-02   1.37162695e+00   1.17237810e-01
C     7.725140613560155e+00   4.100688616566976e+00   2.069160000000000e-02  1.29043603e+00   8.11487590e-01   1.23935080e-01
C     9.175002150702271e+00   3.977946805197009e+00  -3.468720000000047e-02 -1.28060645e+00  -1.44593397e+00  -2.67584340e-01
C     9.756226479139180e+00   2.653661862011935e+00  -9.492120000000170e-02 -2.41034764e+00   3.86208570e-01   3.02052370e-01
C     1.112098080979999e+01   2.464765403102585e+00  -1.820006999999997e-01  1.38938817e+00   5.82790140e-01   1.70907460e-01
C     3.487158475852493e+00   4.633480279129411e+00  -4.279619999999795e-02 -5.53506040e-01  -7.89441340e-01  -1.46540940e-01
C     4.877443577020872e+00   4.478832246278405e+00   2.258250000000000e-02  1.28927509e+00  -1.44465909e+00  -1.19464740e-01
C     5.471425124750279e+00   3.136825698089811e+00   1.585530000000000e-02 -8.03178560e-01   2.93919170e-01   3.51897440e-01
C     6.879284663964135e+00   2.984090436177232e+00   7.479630000000000e-02  2.05661480e-01  -9.27504200e-01  -3.60308740e-01
C     7.472000380247664e+00   1.668927817323187e+00   9.140460000000000e-02 -4.50889040e-01   8.36862870e-01  -2.66414440e-01
C     8.885784378096490e+00   1.508210300623148e+00   2.339700000000000e-03  3.40010870e-01  -2.12723200e-02   2.94908120e-01
C     9.447938339593493e+00   1.889800193443916e-01   6.399390000000001e-02  1.26558300e+00   1.58705546e+00  -4.36254580e-01
C     2.642426581571900e+00   3.480524655687771e+00  -1.306466999999998e-01  3.82634880e-01  -1.11546740e+00  -1.02520500e-01
C     3.204947903879826e+00   2.141152401392290e+00  -1.430438999999986e-01  7.79090620e-01   4.72367700e-01   4.86986280e-01
C     4.631301679975627e+00   1.954209190914955e+00  -9.498000000007778e-04 -7.68317320e-01   2.15224880e+00  -5.21754410e-01
C     5.186633464330715e+00   6.754702679298989e-01   4.214279999999999e-02  4.97441670e-01  -1.06106210e-01   1.59415070e-01
C     6.608822707618534e+00   5.532045091052220e-01   1.096437000000000e-01  3.35184620e-01  -8.45335740e-01  -1.56166140e-01
C     9.383556611468129e-01   1.178536003614247e+00  -1.446012000000003e-01  1.66410849e+00  -1.01514807e+00   9.96425200e-02
C     2.375478674749895e+00   9.872734258382736e-01  -1.521723000000001e-01 -1.13147798e+00   1.23837538e+00   2.83943090e-01
C     1.600411047459914e+01   9.249608089386491e+00   3.451568100000000e+00  1.39080200e-02   1.73185410e+00  -2.03756600e-01
C     1.178336807797117e+01   8.760806622442905e+00   3.281083500000000e+00 -1.37001225e+00   1.99834100e-01   5.60765680e-01
C     1.318068734893427e+01   8.951026741918472e+00   3.327768300000000e+00  7.98223890e-01  -8.94844190e-01   3.85729800e-02
C     1.403702495451946e+01   7.795163159506372e+00   3.347899800000000e+00 -4.84119790e-01   1.61143710e-01   6.76083700e-02
C     7.512704527566063e+00   8.292751313265180e+00   3.392535000000000e+00  1.76058093e+00  -2.10027780e-01   3.36185400e-02
C     8.949779136359165e+00   8.466456987563271e+00   3.372056700000000e+00 -1.04567722e+00  -1.45124478e+00   2.03023100e-02
C     9.784067410838675e+00   7.269313154465177e+00   3.356679000000000e+00  5.62094000e-01   2.38849565e+00   3.43691030e-01
C     1.120985300794409e+01   7.450815817597314e+00   3.357204900000000e+00  2.30526200e-02   4.28708710e-01  -1.81176230e-01
C     1.207527164598795e+01   6.340898284683942e+00   3.436219500000000e+00 -9.16773650e-01  -1.00705931e+00   5.43372370e-01
C     1.348682988215259e+01   6.476574283660510e+00   3.418619400000000e+00 -4.91225200e-01   1.17012333e+00  -2.51365720e-01
C     4.693708964620007e+00   7.975952302130829e+00   3.343914600000000e+00  4.61098590e-01  -1.06044265e+00   3.46409690e-01
C     5.567801841314369e+00   6.840541299341431e+00   3.328081500000000e+00 -5.06562080e-01  -1.40064530e+00   1.86538550e-01
C     6.989550391309999e+00   6.986863437442161e+00   3.340159800000000e+00 -9.72303110e-01  -8.56004240e-01   4.16348900e-02
C     7.822041939413312e+00   5.811292712651364e+00   3.351236700000000e+00 -5.23643290e-01   5.23861670e-01   3.12585990e-01
C     9.228159872489638e+00   5.994195897061680e+00   3.426328200000000e+00 -6.01953230e-01  -9.52503680e-01  -4.55515550e-01
C     1.007329410153375e+01   4.855433730009948e+00   3.478400400000000e+00  7.79103300e-02  -2.46739480e-01   5.63861600e-01
C     1.146756537372417e+01   5.041929082609942e+00   3.588594000000000e+00  1.15108475e+00   7.46764000e-03  -1.00992544e+00
C     1.232949526597974e+01   3.900697695397573e+00   3.580460400000000e+00 -1.19693699e+00  -5.32384950e-01   3.73166970e-01
C     3.556872146908873e+00   5.342091750827504e+00   3.427737300000000e+00  1.14727885e+00  -3.46271520e-01   1.52402530e-01
C     4.994906524769993e+00   5.487821335642776e+00   3.359823900000000e+00 -1.47621374e+00   2.76777592e+00  -6.04191600e-02
C     5.807475061383808e+00   4.389745377164230e+00   3.330484500000000e+00  2.21406806e+00  -2.41095679e+00   1.84912970e-01
C     7.236570451533852e+00   4.501035500761758e+00   3.357142200000000e+00  3.56929510e-01   1.78059001e+00  -3.29723750e-01
C     8.103986902750531e+00   3.395232063076090e+00   3.354965700000000e+00 -2.42711650e-01  -1.45513576e+00   6.48869460e-01
C     9.528654139224038e+00   3.533935127211149e+00   3.474283500000000e+00 -1.09842907e+00   1.18583739e+00  -4.29421470e-01
C     1.036051631735076e+01   2.405727629453241e+00   3.505461000000000e+00  2.73428430e-01   2.82163030e-01   4.02084290e-01
C     1.176244602558669e+01   2.586432839435819e+00   3.599119800000000e+00  8.44863320e-01  -6.55061450e-01  -4.54737740e-01
C     2.968674785940013e+00   4.049207013927751e+00   3.516450600000000e+00  1.77283990e+00  -1.23442790e-01  -5.37080680e-01
C     3.840506658380438e+00   2.911077598499941e+00   3.407417100000000e+00  1.24804951e+00   3.36189510e-01   3.15197330e-01
C     5.306027715646931e+00   3.058470854827575e+00   3.333857700000000e+00 -2.75158489e+00   1.81768940e-01   5.98408900e-02
C     6.110514260697054e+00   1.894983731967752e+00   3.301305900000000e+00  1.90126280e-01   3.85797100e-02   4.20055430e-01
C     7.522753226436890e+00   2.071749225626044e+00   3.367489200000000e+00  6.11635910e-01   2.48742680e-01  -4.66051390e-01
C     8.392254737675895e+00   9.404865610934066e-01   3.377772600000000e+00 -7.31040060e-01   4.20572670e-01   4.54716100e-02
C     9.792621362730525e+00   1.125842216356668e+00   3.458768700000000e+00  3.00361580e-01  -1.77425115e+00  -8.04781100e-02
C     1.877672004659945e+00   1.428638713208798e+00   3.544802100000000e+00 -3.16313480e-01   3.86471310e-01  -1.87969820e-01
C     3.302343001773517e+00   1.615783380636984e+00   3.450582600000000e+00 -1.47842900e+00  -4.85899320e-01   7.86414600e-02
C     4.108758701453556e+00   4.617250944389538e-01   3.378829500000000e+00  1.31246986e+00  -5.80897200e-01  -1.14022400e-01
C     5.522451799259668e+00   5.772901996697368e-01   3.316524000000000e+00  9.86351680e-01   1.06926926e+00  -1.47100460e-01
C     1.299397629736882e+00   1.066275815946224e-01   3.478651500000000e+00  2.32255500e-02   1.09967490e+00  -1.17762400e-02
