76
Lattice="10.7446858958278 0 0 5.37234294791388 9.3051709414712 0 0 0 30 " PBC="1 1 1" Properties=species:S:1:pos:R:3:force:R:3 Energy="-607.50117292"
C     6.549256747713551e-02   2.074708828295220e-02  -3.363036000000008e-01  3.38941395e+00   2.59401826e+00   1.50756453e+00
C     1.254271426351193e+01   8.538335431851266e+00  -3.403421999999985e-01  1.27850231e+00   6.37201020e-01   5.37164200e-01
C     1.400993647317354e+01   8.446722115775172e+00  -2.725460999999996e-01 -3.18104803e+00  -1.13730125e+00  -1.05459920e+00
C     1.448799365845128e+01   7.115409535289372e+00  -3.808013999999993e-01  2.21950470e+00  -1.17027930e-01   5.59788930e-01
C     8.288815861410312e+00   9.017187716974094e+00  -2.995382999999983e-01  1.21373748e+00  -1.52941904e+00   6.39581380e-01
C     9.716924728224448e+00   8.836762313481682e+00  -3.279639000000003e-01 -1.13699660e-01   2.02096700e-01   1.23620487e+00
C     1.032225814405406e+01   7.516334456702947e+00  -2.814929999999976e-01  5.33561100e-01   2.50195631e+00  -2.50484560e-01
C     1.173060645902951e+01   7.367729760170635e+00  -3.476931000000008e-01  2.42701700e-02   1.24940403e+00   8.78961500e-02
C     1.229953639551906e+01   6.075910558395220e+00  -3.153153000000017e-01  2.48759001e+00   3.15419321e+00   3.56126200e-01
C     1.371033229621910e+01   5.937254857580247e+00  -3.546914999999977e-01  2.67935850e-01   5.84812400e-02   5.93808760e-01
C     6.031757432199798e+00   8.028433931490975e+00  -3.141219000000000e-01  7.57554090e-01  -5.38743730e-01   2.53154970e-01
C     7.496369327868863e+00   7.790160327402191e+00  -2.355599999999995e-01 -1.11483887e+00   2.82370851e+00  -2.96001430e-01
C     8.106329190553302e+00   6.507019221097130e+00  -1.518902999999980e-01 -5.09611250e-01   2.18155209e+00  -3.86436840e-01
C     9.532708861342121e+00   6.402536016145630e+00  -1.804676999999977e-01 -1.77384715e+00  -1.21688603e+00  -6.09636030e-01
C     1.011464943054112e+01   5.133915722144149e+00  -2.426424000000011e-01 -6.69735910e-01  -8.07697540e-01   1.52911325e+00
C     1.152146410277463e+01   5.036506866451495e+00  -8.761110000000016e-02 -2.57543883e+00  -5.80512083e+00  -1.47245735e+00
C     1.209981927773566e+01   3.671041330961194e+00  -1.363149000000021e-01 -6.03667142e+00   6.58215170e-01   8.58975060e-01
C     5.155370242725210e+00   6.932762336131616e+00  -3.111728999999990e-01  2.11849653e+00  -2.78123006e+00  -3.16495000e-01
C     5.849043296342286e+00   5.533112208055619e+00  -2.998643999999970e-01 -2.93242095e+00   2.72806279e+00   2.09022550e-01
C     7.240606424175040e+00   5.419072406445321e+00  -2.034881999999989e-01  3.73947050e-01  -2.03418509e+00  -1.02856250e+00
C     7.845113143871512e+00   4.111593253339853e+00  -3.617789999999985e-01 -3.21763888e+00   2.12592500e-01   5.34072180e-01
C     9.221422363472612e+00   3.982374298581970e+00  -2.277717000000017e-01 -2.20060090e-01   3.18985517e+00  -4.81008470e-01
C     9.680326501452445e+00   2.739438323512496e+00  -1.536927000000006e-01  4.26194720e+00  -4.16406552e+00  -2.35696010e-01
C     1.115278056729591e+01   2.521069503633174e+00  -1.491357000000022e-01  6.24351300e-02   9.10270260e-01   4.84880980e-01
C     3.587411982536161e+00   4.666980197237343e+00  -1.887548999999993e-01 -2.37253842e+00  -1.39599561e+00  -3.84901590e-01
C     4.952738897508585e+00   4.418157693060717e+00  -2.885601000000015e-01  1.68822119e+00   4.80263110e-01   6.54549800e-01
C     5.498496522045618e+00   3.084662863886068e+00  -2.238524999999996e-01  1.64282831e+00   2.68349692e+00  -1.70529513e+00
C     6.941987964705059e+00   2.938817988002850e+00  -4.547637000000009e-01 -5.83832140e-01   2.52445676e+00   2.25321047e+00
C     7.485386969516756e+00   1.690067118561260e+00  -2.508341999999999e-01 -1.28631650e+00  -1.63784820e+00  -7.64941830e-01
C     8.865116974767840e+00   1.580486540968829e+00  -1.836035999999979e-01  1.30593777e+00  -4.48683970e-01  -1.30604530e-01
C     9.454516451195193e+00   2.869764965819076e-01  -2.463489000000010e-01 -7.68246330e-01  -1.20630417e+00  -8.15180000e-02
C     2.662299845165682e+00   3.498772282004530e+00  -6.265739999999909e-02  3.95339936e+00   4.83995490e-01  -6.89079590e-01
C     3.161351609457724e+00   2.180615910503958e+00  -9.836280000000031e-02  4.20192424e+00   7.04503040e-01  -4.09692240e-01
C     4.637675373928078e+00   2.035018738271163e+00  -2.172893999999985e-01 -2.26459384e+00  -3.00242312e+00   1.36314315e+00
C     5.163579934880822e+00   6.876599488095896e-01  -1.562453999999995e-01  1.23139357e+00   3.85416370e-01  -1.98151480e+00
C     6.599874264583867e+00   5.319354007325358e-01  -2.734343999999993e-01 -2.47855180e-01   7.08137800e-02   6.40351910e-01
C     9.478677704037946e-01   1.215697971745616e+00  -1.369413000000002e-01  1.07296650e-01  -1.31462135e+00  -1.19760898e+00
C     2.405258861084053e+00   1.041704395458641e+00  -1.646412000000019e-01 -3.20210357e+00  -1.28652090e+00  -7.96041400e-02
C     1.595083219743598e+01   9.278255546952632e+00   3.651825300000000e+00  1.84187395e+00  -1.22090921e+00   8.85135760e-01
C     1.175442715905266e+01   8.754114715709695e+00   3.695196300000000e+00 -7.86996980e-01  -1.63409468e+00   1.35515360e-01
C     1.314396969497849e+01   8.935622310582430e+00   3.714698700000000e+00  4.91826670e-01   1.00772821e+00   7.59980410e-01
C     1.398399020566222e+01   7.840578442054682e+00   3.724361100000000e+00  2.27688864e+00  -4.04609798e+00  -4.76220400e-02
C     7.449906888482936e+00   8.232904734157731e+00   3.835948200000000e+00 -1.11203595e+00   2.06516918e+00  -2.33253059e+00
C     8.827744271036163e+00   8.432377078150649e+00   3.674853900000000e+00  3.05593079e+00   6.22511870e-01   6.42648460e-01
C     9.755562027763123e+00   7.299618700441117e+00   3.680354700000000e+00 -3.59649780e-01   1.74215592e+00  -1.12899560e+00
C     1.115742694554308e+01   7.420565544336759e+00   3.706889700000000e+00  1.24330484e+00   1.87987020e+00   4.90325000e-02
C     1.202740750860294e+01   6.296799776875351e+00   3.722070900000000e+00 -5.17395730e-01  -2.74606080e-01  -1.28051229e+00
C     1.343260268805417e+01   6.444203548046147e+00   3.735658800000000e+00 -5.41099780e-01   3.84765745e+00  -7.93911000e-02
C     4.723219405614645e+00   7.897752296913034e+00   3.658654500000000e+00 -4.57695429e+00   3.86940566e+00   3.66790500e-02
C     5.485102035432389e+00   6.769782918479482e+00   3.543476100000000e+00  8.82847890e-01  -8.44141590e-01   1.10729222e+00
C     6.856496420809114e+00   6.963839001623354e+00   3.602141700000000e+00  3.29878651e+00  -7.51106940e-01   5.96330480e-01
C     7.790440421372246e+00   5.852996999977093e+00   3.569677500000000e+00 -4.34471200e-02   1.10563317e+00  -8.43756880e-01
C     9.224009415220184e+00   6.057799904194699e+00   3.445833300000000e+00 -1.92077792e+00  -3.19052390e+00   2.39050081e+00
C     1.002788732753750e+01   4.861063265376940e+00   3.571706400000000e+00  1.01090539e+00  -1.02539480e-01  -1.58757614e+00
C     1.147022769199648e+01   5.006945734150755e+00   3.490784400000000e+00 -9.32403330e-01  -8.08334080e-01   1.66620037e+00
C     1.230767544136488e+01   3.842472356223002e+00   3.540770700000000e+00  8.41657850e-01   5.38242050e-01  -5.18513280e-01
C     3.503886125202190e+00   5.348079814430814e+00   3.664582800000000e+00  3.73726679e+00  -1.27599948e+00  -8.81519800e-01
C     4.981602991922908e+00   5.463132483897930e+00   3.635253300000000e+00 -1.04289690e+00  -9.61215910e-01  -1.14887564e+00
C     5.892136846911127e+00   4.296813332262519e+00   3.537059700000000e+00 -3.17082000e+00   3.15707642e+00   7.03412770e-01
C     7.276369896299471e+00   4.549620310635652e+00   3.594799200000000e+00 -1.02188940e+00  -8.01926740e-01   3.59850060e-01
C     8.047751043346533e+00   3.407692989688682e+00   3.789470100000000e+00  2.44355238e+00  -1.61626622e+00  -2.48960361e+00
C     9.478547800785414e+00   3.523004156804512e+00   3.579438300000000e+00 -8.73264500e-01   2.47373899e+00   9.88618490e-01
C     1.033372250901565e+01   2.430125787657921e+00   3.564464700000000e+00  7.23190300e-02  -2.25658347e+00   1.54064968e+00
C     1.173772545811941e+01   2.523310933209201e+00   3.645770700000000e+00  1.23789867e+00   2.19239070e+00  -1.52339511e+00
C     3.014411475516825e+00   4.060868068046340e+00   3.466083300000000e+00 -2.08983412e+00  -2.69484912e+00   1.98554585e+00
C     3.851321345909076e+00   2.870198028474623e+00   3.624226800000000e+00 -5.10025730e-01   2.65134218e+00  -1.51127711e+00
C     5.250630102913423e+00   3.044826403523125e+00   3.574599600000000e+00  7.35074750e-01  -1.00009808e+00   1.09657649e+00
C     6.072407802365268e+00   1.910455811896528e+00   3.758019000000000e+00  1.22548493e+00  -1.22998856e+00  -1.95593218e+00
C     7.505921353633963e+00   2.077884124826785e+00   3.676866000000000e+00 -1.39393846e+00   9.68079870e-01   2.15564534e+00
C     8.321466060795219e+00   9.504248558641643e-01   3.817008600000000e+00  1.83595440e+00  -2.21861860e-01  -1.47384957e+00
C     9.775901234660958e+00   1.120628715182405e+00   3.747996000000000e+00 -2.22151140e+00  -2.76343030e-01  -8.58041000e-01
C     1.890247370143587e+00   1.424628184533658e+00   3.629837700000000e+00 -2.48857885e+00  -6.88908880e-01   6.78941940e-01
C     3.274290883272656e+00   1.598585563705676e+00   3.608205000000000e+00  6.66380300e-01  -5.34721880e-01   2.28758420e-01
C     4.091989631339715e+00   4.550777594745460e-01   3.607018500000000e+00  6.11275280e-01  -2.06244232e+00   5.71251240e-01
C     5.564177873654017e+00   5.646280022097130e-01   3.646065900000000e+00 -2.82839711e+00   1.84463070e+00   5.31008930e-01
C     1.255383152139552e+00   1.481106850071082e-01   3.726822300000000e+00  9.10007990e-01  -1.46968999e+00  -2.19006010e-01
