52
Lattice="8.88768389401873 1.33226762955019e-15 0 4.44384194700937 7.69696003302603 0 0 0 30 " PBC="1 1 1" Properties=species:S:1:pos:R:3:force:R:3 Energy="-417.20795746"
C     1.279413994329669e+01   7.184156533447674e+00  -2.029788000000003e-01 -7.64099270e-01  -4.83376298e+00   2.13042900e-02
C     9.090346550598994e+00   6.806457160545138e+00  -8.169450000000111e-02 -1.74782908e+00   3.40142602e+00  -6.16823700e-01
C     1.041142477092205e+01   6.455188686568019e+00  -8.008230000000083e-02  1.75817856e+00   3.44961540e-01   6.26762010e-01
C     1.077345368589020e+01   5.103248060290637e+00  -5.196900000001392e-03 -1.32579713e+00   3.33445640e-01  -1.69358650e-01
C     6.697173729565462e+00   6.311264847328656e+00  -1.841925000000018e-01 -1.60031197e+00   4.81594290e-01  -2.50344060e-01
C     8.032206324568691e+00   5.895594831206122e+00  -1.028477999999993e-01  8.75680720e-01  -2.10627995e+00   2.71916940e-01
C     8.415392282126735e+00   4.492214805291448e+00  -4.699409999999915e-02 -3.32324472e+00   3.74472600e-02  -2.41727540e-01
C     9.743020458831385e+00   4.118137467839828e+00   1.704090000000000e-02  8.50940030e-01   2.29504100e-01  -3.05224840e-01
C     1.009228306022547e+01   2.772263354549292e+00  -7.931970000000277e-02 -7.58007410e-01  -3.01962550e+00  -1.02859857e+00
C     4.198734913867224e+00   5.752911587984394e+00  -2.194661999999994e-01  2.58970758e+00   9.47191360e-01   8.45180410e-01
C     5.611995391575100e+00   5.354372387922230e+00  -1.581773999999996e-01 -1.71200020e-01  -1.17492220e-01  -3.69912390e-01
C     5.959029850601377e+00   3.982974231537010e+00  -1.107650999999983e-01 -7.12670330e-01  -2.77102700e+00  -2.13176280e-01
C     7.326087703537278e+00   3.476970383414388e+00  -1.267262999999978e-01  2.92214000e-02   3.61621972e+00   5.21493090e-01
C     7.636757537372109e+00   2.137564102606661e+00  -1.498823999999992e-01  2.77821845e+00  -1.97159502e+00   3.28189420e-01
C     9.066964561889170e+00   1.724165690297782e+00  -1.993875000000003e-01 -1.16254753e+00   3.47213104e+00   6.91088260e-01
C     3.214046462477743e+00   4.772054412615763e+00  -8.505029999999891e-02  1.46384828e+00  -2.53131919e+00  -1.28085804e+00
C     3.555577623158737e+00   3.335733552921497e+00  -2.757093000000026e-01  2.03641730e-01   1.32937512e+00   1.73198994e+00
C     4.886802778812668e+00   2.905836091031511e+00  -1.416177000000012e-01  2.47745978e+00   2.34229913e+00  -6.84605090e-01
C     5.278924769287562e+00   1.543229633301358e+00  -1.392722999999982e-01  1.65893363e+00  -2.69232360e-01   4.02765150e-01
C     6.684981068158883e+00   1.100049296578799e+00  -6.638279999999952e-02 -3.10139804e+00   3.89144300e+00  -6.89928020e-01
C     1.142737045112934e+01   7.481944912774748e+00  -1.024518000000008e-01  2.51157850e-01  -1.49679664e+00  -1.22784490e-01
C     2.552748653499539e+00   2.359343462245478e+00  -2.483132999999995e-01  3.98967560e-01  -3.67459370e-01   2.02660550e-01
C     2.967354173398866e+00   9.667873633425917e-01  -2.871674999999989e-01 -1.51439141e+00   4.24747920e-01   1.66175170e-01
C     4.318749527701736e+00   5.466802037019640e-01  -1.915754999999990e-01 -9.43053410e-01  -1.15914424e+00   1.33502840e-01
C     4.827056213232423e-01   3.832381823097255e-01  -2.605907999999992e-01  3.77277851e+00   8.05102620e-01  -1.44610990e-01
C     1.939472600401064e+00   6.606146854548399e-03  -2.967759000000001e-01 -1.96256583e+00  -1.05616012e+00   5.34109200e-01
C     5.064587565321282e-01   5.699830580711903e-01   3.466292400000000e+00 -2.52281480e-01   4.95464890e-01   6.14049600e-02
C     2.901288241164672e+00   2.133905198717200e-02   3.494396400000000e+00  4.22565940e-01   1.24577076e+00   1.26763400e-01
C     4.284695655795756e+00   4.439488781815541e-01   3.541941900000000e+00  5.25534200e-02  -6.82363050e-01   4.06231750e-01
C     9.777367803979395e+00   7.176468347952110e+00   3.634298400000000e+00 -5.24788000e-02  -7.29429350e-01   3.47554210e-01
C     1.116799099582812e+01   7.572309147766955e+00   3.653647200000000e+00 -2.19987970e+00  -1.03627624e+00  -2.77547170e-01
C     1.208631591016466e+01   6.493678104894037e+00   3.620744400000000e+00  2.27873605e+00   9.87506380e-01  -7.86569500e-01
C     4.580401434625348e+00   6.870922818367602e+00   3.519357300000000e+00  9.08584060e-01   5.24324190e-01  -3.26349810e-01
C     5.648694460665743e+00   5.867967208935240e+00   3.447687600000000e+00 -1.19541569e+00   4.26855227e+00   5.78630080e-01
C     6.976968283746822e+00   6.387107073893061e+00   3.530069400000000e+00  2.17506098e+00  -3.50115833e+00   1.35649750e-01
C     8.085408577694498e+00   5.373455460924609e+00   3.668234400000000e+00 -2.38819549e+00   8.55911150e-01  -8.18035360e-01
C     9.442794586970249e+00   5.759472938531567e+00   3.715519200000000e+00  1.90814800e-02  -4.93451000e-03  -5.64773350e-01
C     1.042987662362698e+01   4.708973745781097e+00   3.645950700000000e+00  1.85993730e-01   7.49636780e-01  -2.41391660e-01
C     1.178177159961402e+01   5.111346108907800e+00   3.522673800000000e+00 -1.50206770e+00   8.42252690e-01   9.10757400e-01
C     3.893875223710262e+00   4.149710166974087e+00   3.466552800000000e+00  1.65916557e+00   3.42140040e-01  -8.34845400e-02
C     5.255006725190691e+00   4.568571727573060e+00   3.447465300000000e+00  1.55030633e+00  -2.70781137e+00  -3.87353870e-01
C     6.326231887032074e+00   3.579222804081732e+00   3.425646900000000e+00 -4.76396630e-01   1.41011917e+00   1.36402509e+00
C     7.694593297171930e+00   4.008873116585154e+00   3.569181300000000e+00  1.13686275e+00  -1.42895429e+00  -1.75071930e-01
C     8.748326252808702e+00   2.968190857565747e+00   3.567893100000000e+00 -9.60882920e-01   1.09076691e+00  -4.88796310e-01
C     1.012153789418405e+01   3.312585715327276e+00   3.585108900000000e+00 -1.43192516e+00   2.06451490e+00   3.66698200e-01
C     2.231759017954305e+00   2.349031537014886e+00   3.561689700000000e+00  1.40257532e+00   6.70271760e-01  -8.29229690e-01
C     3.624205607054711e+00   2.783060650079376e+00   3.491311200000000e+00 -2.50662419e+00  -4.16648920e-01   4.29726480e-01
C     4.628127982772082e+00   1.831524736066629e+00   3.554616600000000e+00 -2.26859120e-01  -1.28328173e+00  -1.87072570e-01
C     5.959505073925929e+00   2.238774123977142e+00   3.593430000000000e+00  2.63315117e+00  -1.32615326e+00  -1.03873093e+00
C     7.042529524900512e+00   1.250711516446027e+00   3.575961000000000e+00 -1.20216095e+00  -1.48353250e-01  -1.66908500e-02
C     8.390532273018900e+00   1.615708442271854e+00   3.448824000000000e+00  3.32115460e-01  -8.56458190e-01   1.00830212e+00
C     1.875663341247888e+00   1.007729494951769e+00   3.477083700000000e+00 -3.27675160e-01  -1.49940858e+00   9.23789700e-02
