64
Lattice="9.86 0 0 4.93 8.53901048131456 0 0 0 30 " PBC="1 1 1" Properties=species:S:1:pos:R:3:force:R:3 Energy="-515.88629113"
C     4.935844317800000e+00   8.514904341074331e+00  -3.009926999999983e-01 -1.21765300e-02  -7.07311720e-01   5.55952130e-01
C     1.251534483500000e+00   6.838966075021080e-01  -2.666712000000011e-01 -7.55635160e-01   6.76756930e-01  -5.02742190e-01
C     9.839141662999999e+00   1.723377251115520e-02   3.533195700000000e+00  8.05307540e-01   5.29175040e-01   4.00242120e-01
C     1.222923573600000e+00   7.505713360825680e-01   3.608992800000000e+00 -4.51585800e-02  -1.01806231e+00  -2.45223510e-01
C     7.390875414100000e+00   8.511008417542831e+00  -3.285048000000010e-01  1.04340547e+00   6.23941830e-01   7.85260350e-01
C     3.707187154200000e+00   7.032930551975327e-01  -2.048865000000006e-01 -1.13821694e+00  -3.53939510e-01  -1.49198950e-01
C     2.469457114400000e+00   1.844921526287840e-02   3.503781300000000e+00 -4.45368620e-01  -9.06817000e-03   1.47122560e-01
C     3.702735265599999e+00   7.212897029049712e-01   3.509693400000000e+00  2.00501660e-01   3.53525300e-01  -1.71908450e-01
C     9.843215420600000e+00   8.503371895080463e+00  -1.352879999999992e-01  5.73467480e-01   7.38231000e-02   7.97896900e-02
C     6.150859481199999e+00   6.441815843695231e-01  -1.523625000000024e-01  4.24255800e-01   1.96890596e+00  -9.99721700e-02
C     4.963519069999999e+00   4.178581856408960e-02   3.412557300000000e+00 -1.74944136e+00  -4.74916580e-01   7.12491990e-01
C     6.170560747200000e+00   7.756034453046879e-01   3.486041400000000e+00 -3.21207160e-01  -1.88108883e+00  -1.32807460e-01
C     1.232418783180000e+01   8.503664270799298e+00  -1.294401000000001e-01  6.49059100e-02  -4.62288280e-01   6.88076000e-03
C     8.631130353400000e+00   6.684923179862928e-01  -2.711411999999989e-01 -8.85738000e-03   9.31508510e-01   1.27417620e-01
C     7.371315195399999e+00   1.042613179608000e-02   3.512223000000000e+00  7.20129110e-01   9.78366220e-01   3.32563730e-01
C     8.603736019599999e+00   7.283557340771712e-01   3.584382900000000e+00  4.79736170e-01  -7.68381410e-01  -1.38640440e-01
C     1.267199262700000e+00   2.122388218215065e+00  -1.506566999999990e-01 -9.18128750e-01  -2.78929490e-01   6.18793220e-01
C     2.477689918600000e+00   2.833655769909765e+00   5.055390000000000e-02 -1.82328710e-01   4.21112450e-01  -7.38077730e-01
C     1.107478113630000e+01   2.169141349955580e+00   3.721249200000000e+00  1.03682125e+00  -4.82145420e-01  -4.06097120e-01
C     2.469602352200000e+00   2.855403434140857e+00   3.683620200000000e+00 -1.02329467e+00   7.04314950e-01  -3.20620300e-02
C     3.682266152100000e+00   2.131488924804439e+00  -1.029014999999980e-01  1.60238117e+00  -7.89311130e-01   2.82653430e-01
C     4.949409656500000e+00   2.822333810524228e+00  -1.223261999999998e-01 -1.19888856e+00   1.32117270e-01   2.25984790e-01
C     3.682639796800000e+00   2.147489749592387e+00   3.589907700000000e+00  3.68713570e-01   2.29450970e-01  -2.16643030e-01
C     4.894091506900000e+00   2.886728196356004e+00   3.504121800000000e+00  1.47096381e+00   9.59094000e-03   3.71378310e-01
C     6.160359344700000e+00   2.105000401954850e+00  -2.120303999999997e-01  9.84202950e-01  -5.38428270e-01  -1.94868550e-01
C     7.416298438100000e+00   2.828572582361125e+00  -2.935865999999976e-01 -6.23349260e-01   7.71523000e-02   2.37079670e-01
C     6.150760585400000e+00   2.168503229702410e+00   3.514289400000000e+00 -2.95224200e-01   8.42867280e-01  -4.63628230e-01
C     7.400789742699999e+00   2.847964333600787e+00   3.500514000000000e+00 -2.46038230e-01  -2.10917970e-01   7.41055120e-01
C     8.649656110199999e+00   2.117526532598277e+00  -3.068297999999992e-01  8.21825000e-03  -2.65899580e-01   6.09135490e-01
C     9.885700928099999e+00   2.836006474104804e+00  -1.399073999999985e-01 -3.04160460e-01  -1.24263650e-01  -4.75844390e-01
C     8.623481902100000e+00   2.131136776012244e+00   3.640886700000000e+00  2.94769910e-01   1.14448923e+00  -5.68189800e-01
C     9.865637257800000e+00   2.881426751699496e+00   3.687387900000000e+00 -1.29152479e+00  -8.58480850e-01   8.42135100e-02
C     2.477334613500000e+00   4.267054800162555e+00   1.813011000000000e-01 -1.10178367e+00  -1.18087805e+00  -1.15794060e-01
C     3.685958574200000e+00   4.965921659277779e+00   1.222392000000000e-01  1.25189612e+00  -9.13654000e-03  -3.58777060e-01
C     1.230333245280000e+01   4.291718621862672e+00   3.643540200000000e+00  4.71333660e-01  -5.11993590e-01   3.43608300e-02
C     3.665524167900000e+00   4.997696427345222e+00   3.550484700000000e+00  1.45464470e+00   7.25014550e-01   1.37998900e-02
C     4.908305929400000e+00   4.242825272535450e+00  -6.062610000000035e-02  1.24733086e+00   5.81289270e-01  -5.34868420e-01
C     6.151831973000000e+00   4.969411723641165e+00  -2.738805000000006e-01 -1.28882360e-01  -6.53446750e-01   7.18575040e-01
C     4.944490058800000e+00   4.327313487048552e+00   3.500147100000000e+00 -1.28774348e+00  -1.47355918e+00  -3.61946420e-01
C     6.191738400300000e+00   4.989621255914495e+00   3.381189000000000e+00 -8.26891470e-01   8.79060040e-01   9.43614330e-01
C     7.405912012700000e+00   4.274724880936110e+00  -2.844252000000012e-01 -2.36864320e-01  -7.28023410e-01   1.01327240e-01
C     8.629190003999998e+00   4.995429405452886e+00  -1.643568000000002e-01  6.10999640e-01  -4.99255270e-01  -1.42429100e-01
C     7.407529299199999e+00   4.249064898273395e+00   3.469847100000000e+00 -2.86193680e-01   1.15372027e+00  -6.16739920e-01
C     8.623538843600000e+00   4.974119792459417e+00   3.466321500000000e+00 -7.55559900e-02   6.56845210e-01   4.93848870e-01
C     9.876401074700000e+00   4.273800960002174e+00  -3.197039999999873e-02 -1.55387230e+00  -1.14797656e+00  -7.60717900e-02
C     1.107626122090000e+01   4.942365347236918e+00   1.684989000000000e-01  1.50531313e+00   1.24690919e+00  -2.67485380e-01
C     9.843203292799998e+00   4.291247097703966e+00   3.629104500000000e+00  5.15301850e-01   4.38304000e-03  -3.56018440e-01
C     1.107586987750000e+01   5.004864585082762e+00   3.615134400000000e+00 -1.61143860e-01  -1.42680150e-01  -3.58445300e-02
C     3.724768125800000e+00   6.388243458185389e+00   5.393040000000000e-02 -1.13265744e+00  -3.74536990e-01  -3.93758410e-01
C     4.925203800199999e+00   7.066110755777673e+00  -1.993847999999971e-01  8.35706860e-01   1.56260072e+00  -1.56086030e-01
C     1.356156463710000e+01   6.422913633926389e+00   3.517269900000000e+00 -4.71840850e-01   1.07444380e-01   1.31066160e-01
C     4.939792360399999e+00   7.138451886322557e+00   3.468005700000000e+00 -6.92467780e-01  -6.70830000e-02   1.57717830e-01
C     6.170602800100000e+00   6.383493292045470e+00  -3.064746000000014e-01 -2.52782170e-01  -2.01740380e-01   2.72710810e-01
C     7.403664967999999e+00   7.100068521874328e+00  -3.261243000000000e-01  8.38690400e-02   5.21026700e-02   4.80585400e-02
C     6.166872022600000e+00   6.443821998817404e+00   3.430912800000000e+00  5.60964200e-02  -1.69367863e+00  -4.17746820e-01
C     7.391992699999999e+00   7.115395362565090e+00   3.422649600000000e+00 -1.00023820e-01   1.48654378e+00   1.46856310e-01
C     8.655329011899999e+00   6.425345714891304e+00  -1.824437999999979e-01 -1.87157248e+00  -1.92196584e+00  -8.21888400e-02
C     9.852839224299998e+00   7.080691030782169e+00  -4.157430000000062e-02  1.76533999e+00   9.91776710e-01  -3.76248500e-02
C     8.603219306300000e+00   6.404844063069452e+00   3.428757900000000e+00  9.92989940e-01   2.78411250e-01  -6.97141300e-02
C     9.834952198300000e+00   7.149390102577123e+00   3.446731200000000e+00  9.01913080e-01  -6.19382140e-01  -1.29598280e-01
C     1.110818878830000e+01   6.370535855982699e+00   1.279041000000000e-01 -1.14791922e+00   2.67517050e-01  -3.55288280e-01
C     1.232831281210000e+01   7.081918769708983e+00   5.898210000000000e-02  6.18604100e-01   4.67301910e-01  -1.31063550e-01
C     1.106951604420000e+01   6.413705421195072e+00   3.510427200000000e+00  4.88751250e-01   9.02023430e-01   3.82756520e-01
C     1.232817245500000e+01   7.139583988331996e+00   3.552008700000000e+00 -9.74324000e-01  -6.23834300e-01  -5.92436600e-01
