64
Lattice="9.86 0 0 4.93 8.53901048131456 0 0 0 30 " PBC="1 1 1" Properties=species:S:1:pos:R:3:force:R:3 Energy="-516.42838843"
C     5.014408699200000e+00   7.137034922923505e+00  -2.848290000000020e-02 -1.90962568e+00   7.58015800e-02   1.55496480e-01
C     6.214699825999999e+00   7.845103675902292e+00  -2.008409999999827e-02  1.31388119e+00   4.74964900e-02  -5.84407010e-01
C     9.817967855299999e+00   1.419108825434300e+00   3.403573500000000e+00 -5.77495950e-01  -3.23784210e-01  -1.92117920e-01
C     1.104792422180000e+01   2.133648184384517e+00   3.432610200000000e+00 -9.97324900e-02  -3.48255490e-01  -1.07106000e-01
C     7.454459793300000e+00   7.100282082526433e+00  -1.019319000000003e-01 -3.68336900e-01   9.20586270e-01   1.76111080e-01
C     8.686855129400000e+00   7.800451994640905e+00  -1.081125000000007e-01  1.03424960e-01   1.22320176e+00   5.92465840e-01
C     2.410300121700000e+00   1.403548186636596e+00   3.465646800000000e+00  9.77299120e-01   6.33648450e-01   2.29891190e-01
C     3.662325485300000e+00   2.145812260983591e+00   3.523929900000000e+00 -1.52714744e+00  -9.30462190e-01  -4.63726310e-01
C     9.918883180500000e+00   7.101162283726711e+00  -1.089509999999905e-02 -1.69416330e-01   7.33407950e-01  -6.82476160e-01
C     1.114628521540000e+01   7.830911498924113e+00  -4.323180000000093e-02  1.13299320e-01  -7.60117190e-01   7.34383330e-01
C     4.879573642900001e+00   1.433122366313238e+00   3.469801200000000e+00 -7.08500590e-01  -1.18621468e+00   7.13775410e-01
C     6.090526436999999e+00   2.119795518463022e+00   3.466706700000000e+00  9.81004620e-01  -9.69566400e-02  -6.32601590e-01
C     1.237741610510000e+01   7.110665690050322e+00   5.541150000000000e-02  5.46931980e-01   1.64023900e-01  -4.73610280e-01
C     1.360794592920000e+01   7.845446090222540e+00   4.877040000000000e-02  5.18031660e-01  -1.75993470e-01  -9.42128700e-02
C     7.324122474600000e+00   1.424917828873739e+00   3.357522300000000e+00  3.55656700e-01  -7.85002780e-01   7.73453280e-01
C     8.567491793500000e+00   2.110365803799854e+00   3.346110300000000e+00  9.66127200e-02   9.47274960e-01  -2.33950350e-01
C     1.296196093000000e+00   7.427244977920768e-01  -1.318350000000024e-02 -2.41718300e-02  -1.04458054e+00   9.11673780e-01
C     2.525693772300000e+00   1.430913324302062e+00   2.281170000000000e-02  4.77746270e-01  -5.78485470e-01  -7.16682660e-01
C     1.103760326680000e+01   3.557772909964874e+00   3.412356000000000e+00 -8.05460840e-01  -5.05266600e-02   1.67333040e-01
C     1.224193714150000e+01   4.274852795313101e+00   3.527987700000000e+00  1.47671137e+00  -9.02493900e-01  -3.20718610e-01
C     3.763934412199999e+00   7.132061632439745e-01  -6.690240000000003e-02 -5.20166080e-01  -3.81910950e-01   5.68677200e-02
C     4.977818633600000e+00   1.445068185804443e+00  -8.820749999999933e-02  4.47603280e-01  -9.49535110e-01  -5.43901600e-02
C     3.631322539400000e+00   3.551886970041009e+00   3.529569000000000e+00  2.58539080e-01   4.32286440e-01  -3.51813000e-02
C     4.884364074600001e+00   4.237017720727792e+00   3.467481000000000e+00 -1.27356675e+00   1.74330156e+00   6.20311240e-01
C     6.216245430300000e+00   7.061115263866664e-01  -7.420439999999928e-02 -8.49458160e-01   4.80631100e-01   4.02142000e-03
C     7.419175635399999e+00   1.414571622215752e+00  -3.876149999999967e-02  2.10422920e+00   1.67997177e+00   2.81620300e-02
C     6.093643675999999e+00   3.514340599400031e+00   3.452723100000000e+00  4.60806620e-01   1.66632394e+00  -8.29761720e-01
C     7.317593084000000e+00   4.251694913501235e+00   3.283396200000000e+00  1.06395080e-01  -1.75645670e-01   1.05514768e+00
C     8.678088997799998e+00   7.376383215897696e-01   5.990100000000000e-02  8.33848500e-02  -5.97265230e-01  -2.32845270e-01
C     9.940611613200000e+00   1.447701275076056e+00   8.528160000000000e-02 -1.58432688e+00   3.74861700e-02  -3.39739990e-01
C     8.552806851800000e+00   3.552325875179682e+00   3.275596200000000e+00  3.70826470e-01  -7.06696510e-01   1.82015720e-01
C     9.789437698799999e+00   4.261013535638059e+00   3.315874500000000e+00  7.88635900e-02   4.72448400e-02   3.58952470e-01
C     2.521593392700000e+00   2.836363746303287e+00   7.187100000000000e-03  2.90946340e-01   7.41756220e-01   8.40441100e-02
C     3.745820458300000e+00   3.544081716731556e+00  -1.039379999999994e-01  6.37577980e-01   8.44871740e-01   6.92596750e-01
C     1.227576581550000e+01   5.671195679516567e+00   3.528936300000000e+00  2.21470700e-02   1.55467144e+00  -9.31920400e-02
C     1.350910322530000e+01   6.444944280964790e+00   3.539085300000000e+00 -7.42663770e-01  -1.97672284e+00  -2.99149260e-01
C     4.983107093899999e+00   2.862540766050566e+00  -1.153265999999995e-01  3.36079100e-01  -6.23036820e-01  -4.39767310e-01
C     6.226502492500000e+00   3.559281496946375e+00  -1.911998999999973e-01 -5.00893300e-02   7.56046710e-01   6.39214150e-01
C     4.853760655899999e+00   5.708341741346244e+00   3.489187500000000e+00  1.55109844e+00  -4.93370510e-01  -2.43873090e-01
C     6.113320489199999e+00   6.435688078994575e+00   3.421217700000000e+00 -6.37796830e-01  -2.55002199e+00   2.62716820e-01
C     7.478404211699999e+00   2.882040621162903e+00  -1.166336999999977e-01 -1.76918551e+00  -1.81059492e+00   1.86745300e-02
C     8.684961565699998e+00   3.587791032796370e+00  -6.239940000000033e-02  7.62811510e-01  -9.05895970e-01   4.51062910e-01
C     7.337481591400000e+00   5.670344254781607e+00   3.383277900000000e+00 -1.15142356e+00   5.47951550e-01  -6.09175350e-01
C     8.544192120500000e+00   6.391884406863956e+00   3.377229600000000e+00  1.17336810e+00  -6.30271760e-01   1.14781240e-01
C     9.911161222899999e+00   2.867204773574742e+00   9.791700000000000e-02  9.46786890e-01   1.71958710e-01  -6.79421780e-01
C     1.117271050840000e+01   3.565279212517422e+00   7.151610000000000e-02 -1.55566296e+00   3.48932480e-01  -1.25541990e-01
C     9.780347912700000e+00   5.685403739054239e+00   3.382601100000000e+00  1.13171409e+00  -3.03767970e-01  -6.39802400e-02
C     1.105215593660000e+01   6.369215468792176e+00   3.466035900000000e+00 -1.46461204e+00   1.34862222e+00   1.55295870e-01
C     3.775791062200000e+00   4.971486873968014e+00  -3.666360000000068e-02 -7.19608700e-01   3.26364770e-01  -4.18415180e-01
C     4.989303512299999e+00   5.722423594309021e+00  -1.233332999999988e-01  4.30021260e-01  -1.01415977e+00   6.30254590e-01
C     1.349626427280000e+01   7.849916774549449e+00   3.465621300000000e+00 -7.22791400e-02  -3.14567930e-01   6.80608000e-03
C     1.473440665780000e+01   8.524545737807300e+00   3.421188300000000e+00  4.81797550e-01   1.07850058e+00   1.98537620e-01
C     6.217977783000000e+00   4.989057937393130e+00  -1.446299999999994e-01  8.12200600e-02  -5.47906500e-02  -4.13608350e-01
C     7.461436581399999e+00   5.686396911363167e+00  -1.248470999999967e-01 -6.72486880e-01   1.88867050e-01  -7.18063100e-02
C     6.117433588200000e+00   7.821640353685559e+00   3.432872100000000e+00 -1.32696870e-01   8.03897040e-01  -1.00405670e-01
C     7.363140121500001e+00   8.518276481702989e+00   3.437780700000000e+00 -8.02111140e-01   5.59821790e-01  -2.44904000e-03
C     8.687482373300000e+00   4.988490007806105e+00  -9.164850000000158e-02 -5.13376300e-02   2.71234910e-01   2.66347840e-01
C     9.906093971699999e+00   5.693799806498804e+00   8.625000000000001e-03  5.07816530e-01   5.54900500e-02  -1.87059890e-01
C     8.574454876200001e+00   7.791026805653291e+00   3.430277400000000e+00  1.90270490e-01   1.47690696e+00   3.68288430e-01
C     9.803314465600000e+00   8.536756352013489e+00   3.514110900000000e+00 -3.75395180e-01  -3.47330540e-01  -7.56920300e-01
C     1.113745415570000e+01   5.003916584139272e+00   4.143240000000000e-02  1.14521966e+00  -1.38413829e+00   1.50344550e-01
C     1.239756683920000e+01   5.669113783371439e+00   4.431420000000000e-02 -5.31128500e-01   1.24286885e+00  -1.11526470e-01
C     1.102614821460000e+01   7.831755153159538e+00   3.496769700000000e+00  4.76579810e-01  -1.21256202e+00  -1.30083050e-01
C     1.225368429620000e+01   8.538608121826183e+00   3.444373500000000e+00  1.53712500e-01   5.27576440e-01  -3.88329900e-02
