64
Lattice="9.86 0 0 4.93 8.53901048131456 0 0 0 30 " PBC="1 1 1" Properties=species:S:1:pos:R:3:force:R:3 Energy="-514.60081504"
C     4.939433012699999e+00   8.505710986221249e+00  -2.458731000000007e-01 -1.35377856e+00   2.24196259e+00   3.38334670e-01
C     1.207974778300000e+00   7.161749210175560e-01  -2.582921999999996e-01  1.27229051e+00  -1.05577968e+00   4.56520600e-01
C     1.261009746300000e+00   7.368509394334087e-01   3.481711200000000e+00 -1.69666600e+00  -1.40765001e+00   1.42533420e-01
C     2.446427654700000e+00   1.436204436755889e+00   3.552018600000000e+00  8.65642050e-01   1.20400853e+00   1.26486160e-01
C     2.461839475600000e+00   2.182588156708960e-02  -2.619446999999973e-01 -1.04947883e+00  -2.57086473e+00   2.94236450e-01
C     3.664223042300000e+00   6.637703305809576e-01  -1.102410000000020e-01  2.55737433e+00   2.11761556e+00  -5.26694780e-01
C     3.643420167800000e+00   7.413488632037488e-01   3.478159500000000e+00  3.04784751e+00   1.52541140e-01  -2.70106450e-01
C     4.960740620600000e+00   1.416904138318469e+00   3.465063000000000e+00 -2.27615252e+00   5.74533450e-01   2.86072100e-02
C     9.861093917700000e+00   8.519512588860072e+00  -8.923679999999834e-02 -2.28447200e-01   1.00580131e+00   1.10255500e-01
C     6.155062010399999e+00   7.403457002525584e-01  -1.569542999999989e-01  1.99125950e-01  -3.31872153e+00   1.07523123e+00
C     6.159654650499998e+00   6.897338750662360e-01   3.368507400000000e+00  4.54907070e-01   1.27459625e+00   3.77512290e-01
C     7.359121924999999e+00   1.443403932661891e+00   3.460033200000000e+00  1.62867137e+00   6.39076130e-01  -5.21270380e-01
C     1.230085512780000e+01   8.522379561628732e+00  -3.507090000000090e-02  1.11194843e+00   5.68831970e-01  -9.44980670e-01
C     8.603858678000000e+00   7.103633558749728e-01  -1.957769999999996e-01  6.87933020e-01  -1.17532494e+00  -6.18612200e-02
C     8.634594516500000e+00   7.300111920389288e-01   3.494997900000000e+00 -5.44769160e-01   1.94190850e-01  -6.33253540e-01
C     9.901875420000000e+00   1.421725605195896e+00   3.515732100000000e+00 -2.07803899e+00   1.21242762e+00   4.57085910e-01
C     1.235374584400000e+00   2.101055976843824e+00  -4.431029999999936e-02  7.12187100e-01   8.05570560e-01  -8.64059610e-01
C     2.470635433700000e+00   2.840007000514684e+00   2.518140000000000e-02  7.62668370e-01  -1.52134757e+00   5.53089930e-01
C     2.462970812000000e+00   2.853181754394171e+00   3.664822800000000e+00 -1.47942828e+00   6.04533610e-01  -3.42721020e-01
C     3.663484725500000e+00   3.571503382646399e+00   3.633781200000000e+00  2.66705232e+00  -1.12265200e+00  -1.75765710e-01
C     3.749477285799999e+00   2.118734461020777e+00  -5.620080000000272e-02 -2.48460345e+00  -5.60941110e-01   3.94605950e-01
C     4.945915124599999e+00   2.822516972299024e+00  -3.230459999999979e-02  1.06847976e+00   4.82647860e-01  -4.06073000e-01
C     4.958267929800000e+00   2.841090003213862e+00   3.535258800000000e+00 -1.54814721e+00   3.50403300e-01  -2.71737430e-01
C     6.157249402100000e+00   3.597763913916172e+00   3.414843000000000e+00 -1.51804404e+00  -6.21887800e-01   4.09139630e-01
C     6.212999863400000e+00   2.104205334689058e+00  -1.646406000000020e-01 -2.22141738e+00   2.33724488e+00   1.27788040e-01
C     7.403544232299999e+00   2.835533412924212e+00  -2.043468000000033e-01  1.13031018e+00  -2.70152700e-01  -5.84456700e-01
C     7.358724665600000e+00   2.914524127100186e+00   3.406791300000000e+00  1.63767016e+00  -2.77391616e+00   5.63250970e-01
C     8.623205082599998e+00   3.560994849399187e+00   3.489642300000000e+00 -4.03045700e-02   8.43580300e-01  -2.17083270e-01
C     8.641147275300000e+00   2.129561328578684e+00  -2.786414999999991e-01 -2.15160060e-01  -7.92947100e-01   1.08522536e+00
C     9.886539175999999e+00   2.799262001938001e+00  -1.045406999999976e-01 -1.52253518e+00   1.24214085e+00   2.81500600e-02
C     9.856642719300000e+00   2.873897820769175e+00   3.603351600000000e+00 -3.52415720e-01  -1.57127320e+00  -6.25677290e-01
C     1.106435788380000e+01   3.577171321632709e+00   3.634956000000000e+00  1.39243542e+00   7.98186470e-01  -2.04562290e-01
C     2.453569203400000e+00   4.215904163414944e+00   2.512812000000000e-01  7.00758660e-01   2.56411449e+00  -4.16572510e-01
C     3.745006268800000e+00   4.989009606593813e+00   2.339688000000000e-01 -2.14250945e+00  -1.10251894e+00  -1.25635802e+00
C     3.725576547200000e+00   4.973124997738497e+00   3.602454600000000e+00 -1.03364029e+00   1.75242536e+00  -2.12354690e-01
C     4.958124220299999e+00   5.729899497984261e+00   3.485161500000000e+00 -2.42894158e+00  -9.34556610e-01   2.47761050e-01
C     4.934586378999999e+00   4.273543679616411e+00  -5.859000000008052e-04 -3.92141730e-01  -1.91165609e+00   2.64141600e-02
C     6.141668038500000e+00   4.912808245581235e+00  -2.471090999999994e-01  1.09454373e+00   2.63917586e+00   1.08459115e+00
C     6.112840504399999e+00   4.993934395498048e+00   3.423607200000000e+00  3.00985837e+00   9.14771990e-01  -2.44301770e-01
C     7.383938509699999e+00   5.692877934927383e+00   3.366668400000000e+00  6.83932400e-02  -5.99615900e-01  -2.65740700e-02
C     7.390875019699999e+00   4.242537934832797e+00  -2.453687999999978e-01 -3.54133520e-01   1.46408360e-01   2.86218330e-01
C     8.612914594999999e+00   4.960766317090584e+00  -1.094262000000015e-01 -1.41865230e-01  -1.11067501e+00  -4.12773140e-01
C     8.644191550300000e+00   4.986297019134630e+00   3.414183300000000e+00 -1.33865554e+00   3.74153710e-01   1.26910010e-01
C     9.836127066600000e+00   5.737380610455894e+00   3.438888900000000e+00  1.32398564e+00  -4.73538040e-01   3.02981800e-02
C     9.805636199799999e+00   4.217272966794888e+00   2.493300000000000e-02  2.85169550e+00   1.11066832e+00   2.97076600e-01
C     1.107188441620000e+01   4.969438877694491e+00   2.232405000000000e-01 -4.83925460e-01  -8.87218300e-01  -2.18900590e-01
C     1.108631339230000e+01   5.016041637460454e+00   3.519134700000000e+00  3.58690440e-01  -1.60298990e-01   7.26054460e-01
C     1.235080071130000e+01   5.711939568021887e+00   3.575112000000000e+00 -8.69676290e-01   1.32252810e-01  -5.82835170e-01
C     3.697056152100000e+00   6.392184126131804e+00   3.019800000000000e-02  1.58158251e+00   3.83223210e-01   8.37048140e-01
C     4.948891809299999e+00   7.132139764385636e+00  -1.364502000000023e-01 -4.31008540e-01  -2.73681776e+00  -7.32812500e-02
C     4.909962951700000e+00   7.136952350692164e+00   3.453904800000000e+00 -7.40531000e-03   3.16499320e-01  -1.29202120e-01
C     6.130358125500000e+00   7.845503386982862e+00   3.434956500000000e+00  1.61247357e+00  -4.77686490e-01  -4.82752540e-01
C     6.164866449300000e+00   6.364944682700604e+00  -1.899726000000008e-01  7.89996680e-01   5.26234640e-01  -8.91263630e-01
C     7.434694733100000e+00   7.086850902162231e+00  -2.800946999999994e-01 -1.48527569e+00   2.56951210e-01   5.19749300e-01
C     7.382044748799999e+00   7.093427904204241e+00   3.340589400000000e+00 -4.08675800e-02   2.22706929e+00   6.15079160e-01
C     8.617081233800000e+00   7.891205622703604e+00   3.370263000000000e+00 -3.17687680e-01  -2.54521116e+00   1.60951810e-01
C     8.647364251799999e+00   6.351524688440131e+00  -1.528053000000007e-01  9.28493460e-01   2.55667337e+00   6.08746480e-01
C     9.918289066200000e+00   7.125023267661499e+00   3.482130000000000e-02 -2.81045475e+00  -1.22290581e+00  -6.80916440e-01
C     9.874916898199999e+00   7.158807862625619e+00   3.400345800000000e+00 -1.57089782e+00  -1.81104530e-01  -4.78609840e-01
C     1.111130020990000e+01   7.824579566482879e+00   3.346396500000000e+00 -1.14826218e+00   6.77069360e-01   6.33966370e-01
C     1.109490421310000e+01   6.420515196662767e+00   2.200482000000000e-01  1.26204271e+00  -1.84526692e+00  -5.69532660e-01
C     1.235218012530000e+01   7.094492633420993e+00   1.096266000000000e-01 -1.34462590e+00   9.82469060e-01  -3.38400700e-02
C     1.231958626840000e+01   7.168170887616939e+00   3.453205500000000e+00  2.01728190e-01  -3.26609041e+00  -7.25443000e-02
C     1.352072959500000e+01   7.828302148101636e+00   3.422347800000000e+00  2.01109310e+00   1.98430458e+00   7.05153910e-01
