64
Lattice="9.86 0 0 4.93 8.53901048131456 0 0 0 30 " PBC="1 1 1" Properties=species:S:1:pos:R:3:force:R:3 Energy="-516.00928294"
C     9.788266232200000e+00   1.208671316412560e-01  -7.456770000000290e-02  2.01314190e+00   2.90455800e-02   2.09407480e-01
C     1.198125624300000e+00   8.449537874289511e-01  -5.941860000000077e-02 -8.74249140e-01  -2.47517450e-01   2.34899160e-01
C     1.288345511700000e+00   5.496269865718633e-01   3.383817600000000e+00  3.84690010e-01   1.39421243e+00  -4.35631600e-02
C     2.526738932300000e+00   1.285761929976524e+00   3.432119400000000e+00 -8.60670600e-01   1.28271603e+00  -5.85045000e-02
C     2.421588391999999e+00   1.071053207912688e-01  -9.615390000000090e-02 -5.41762550e-01   8.49693050e-01   2.36375000e-02
C     3.637762253300000e+00   8.424940400700824e-01  -3.137459999999948e-02  4.33552000e-01  -1.60879092e+00  -5.49077270e-01
C     3.770645719800000e+00   5.886824565349729e-01   3.431458200000000e+00 -1.45621261e+00   2.68785810e-01   3.00742680e-01
C     4.977039151300000e+00   1.297683754848281e+00   3.490921200000000e+00  4.93727690e-01   6.40520680e-01  -4.03053160e-01
C     4.879110075000000e+00   1.266598255706784e-01  -1.073577000000014e-01  5.58394230e-01   6.41483240e-01   6.96028800e-02
C     6.128506023100000e+00   8.443722808152632e-01  -1.304844000000003e-01 -3.78760770e-01  -5.75683390e-01   6.95700840e-01
C     6.191623482000001e+00   5.887564043657296e-01   3.477798600000000e+00  1.41219503e+00  -5.00797370e-01  -2.05869140e-01
C     7.456372436100000e+00   1.277667631162322e+00   3.376852200000000e+00 -2.15784224e+00   1.72295268e+00  -2.29608550e-01
C     7.366890766899999e+00   1.195908057448104e-01  -3.494669999999900e-02 -1.55086678e+00  -6.74124010e-01  -4.87067890e-01
C     8.573621607600000e+00   8.162761184626048e-01  -2.896050000000017e-02  7.01135950e-01   1.26983988e+00  -2.64207550e-01
C     8.659290020400000e+00   6.167213221273103e-01   3.301781400000000e+00  9.11100900e-01  -1.02730041e+00   5.38484410e-01
C     9.910981277899999e+00   1.284428819660386e+00   3.350361300000000e+00  2.78829020e-01  -4.82032800e-02  -3.20738100e-02
C     1.106124409580000e+01   2.272979559947096e+00   5.357729999999999e-02  2.98874900e-02  -1.39512710e-01   4.60453870e-01
C     2.459470659900000e+00   2.982280235967833e+00   1.552662000000000e-01 -2.16092773e+00  -9.40527230e-01  -6.70900630e-01
C     2.481123811500000e+00   2.759633393591475e+00   3.485339400000000e+00  1.15669201e+00  -2.17888027e+00  -1.51569720e-01
C     3.753109512600000e+00   3.430250644335715e+00   3.511461000000000e+00 -1.13189497e+00   3.94334610e-01  -1.58228540e-01
C     3.640668488300000e+00   2.226803409144714e+00   4.247130000000000e-02  1.41818127e+00   1.85487929e+00   2.54004120e-01
C     4.899283191299999e+00   2.943468042413298e+00  -8.249999999989654e-04 -8.99664040e-01   1.04293752e+00  -1.78352380e-01
C     4.984646239900000e+00   2.729770595360609e+00   3.454288500000000e+00 -7.99720550e-01  -3.98640760e-01   5.50383600e-02
C     6.190458029999999e+00   3.448067460482445e+00   3.366179700000000e+00  1.22248874e+00  -9.61798610e-01   3.80310920e-01
C     6.109450340600000e+00   2.267971942641205e+00  -1.123221000000001e-01  1.75420248e+00  -5.11525220e-01   3.16879060e-01
C     7.383672930600000e+00   2.985090851267325e+00  -8.430840000000117e-02 -1.51869776e+00  -4.95508170e-01  -2.39309440e-01
C     7.439101906599999e+00   2.707482838716656e+00   3.325304700000000e+00 -6.86395500e-01   6.28693850e-01   3.45941380e-01
C     8.648647234999999e+00   3.438656617032437e+00   3.368547000000000e+00  9.41714790e-01  -7.25978230e-01   4.31266840e-01
C     8.610015261999999e+00   2.264514838858272e+00  -3.856439999999850e-02 -9.30704390e-01  -3.40759710e-01   2.74651410e-01
C     9.807659274599999e+00   2.984534278564238e+00   8.050350000000001e-02  1.40461128e+00   4.09277960e-01  -6.13880990e-01
C     9.898375169299999e+00   2.690625721957774e+00   3.414539400000000e+00 -7.96074760e-01   1.35314497e+00  -3.79269580e-01
C     1.109700907660000e+01   3.447567416028736e+00   3.460465200000000e+00  1.02778537e+00  -1.73810025e+00   4.51029110e-01
C     1.226317947620000e+01   4.386864546136072e+00   1.492746000000000e-01  1.20734057e+00   6.17653440e-01  -1.40716160e-01
C     3.653500292300000e+00   5.080766141437386e+00   5.153130000000000e-02 -2.93856780e-01   8.41398290e-01   5.37266100e-02
C     3.727240027800000e+00   4.857929989198687e+00   3.521112300000000e+00  1.16691036e+00  -1.97455520e-01   1.62490000e-03
C     4.961236036300000e+00   5.577564575702318e+00   3.448702500000000e+00  1.80744730e-01   6.99292190e-01   1.51906000e-02
C     4.898061438699999e+00   4.395692089780191e+00   5.022599999999999e-03 -1.66088316e+00  -1.32014609e+00  -1.20205970e-01
C     6.068370770500000e+00   5.121144218733743e+00  -1.184835000000000e-01  3.06154665e+00  -8.46305840e-01   1.49500950e-01
C     6.213471960200000e+00   4.851535295030424e+00   3.406546500000000e+00 -3.78669250e-01   1.41900588e+00  -2.75051180e-01
C     7.466372645300000e+00   5.575533486669547e+00   3.384022500000000e+00 -1.18096215e+00  -3.94724300e-02   2.94485420e-01
C     7.331405859399999e+00   4.393371442902041e+00  -1.357830000000000e-01  8.12361160e-01   5.88050970e-01   1.28494890e-01
C     8.598653238899999e+00   5.108037691547992e+00  -1.351049999999994e-01 -1.33500834e+00   3.62598240e-01   1.26246980e-01
C     8.665682800699999e+00   4.869112933493609e+00   3.469935000000000e+00  1.18737999e+00  -8.14569430e-01  -5.76210840e-01
C     9.928349273499999e+00   5.561103412859395e+00   3.544119300000000e+00 -1.67228686e+00   7.63662050e-01  -2.69694290e-01
C     9.829870600800000e+00   4.442793869318606e+00   4.255890000000000e-02 -1.60581105e+00  -2.60429346e+00  -1.43263140e-01
C     1.103180400920000e+01   5.108881772733939e+00   9.755910000000000e-02  1.28319226e+00   4.08933000e-01  -2.07626630e-01
C     1.112517737110000e+01   4.825780529351381e+00   3.549653100000000e+00  2.61744430e-01   2.03866972e+00   1.90933810e-01
C     1.236510387380000e+01   5.553574140368655e+00   3.590875500000000e+00 -1.71974710e-01  -2.71593600e-01  -5.41460620e-01
C     1.352696555200000e+01   6.514254660520006e+00  -3.430859999999925e-02 -1.87273850e-01  -1.52564370e-01   5.01607290e-01
C     4.912099663000000e+00   7.238140905731736e+00  -7.078559999999712e-02 -9.16320990e-01  -1.53709840e-01  -8.82828100e-02
C     4.954004663000000e+00   7.040939631464940e+00   3.405340200000000e+00  5.48212820e-01  -1.87832819e+00  -1.52382980e-01
C     6.228981543000000e+00   7.682012845239533e+00   3.380920800000000e+00 -8.23443820e-01   4.65923720e-01  -2.20315630e-01
C     6.153554071300000e+00   6.524906649143283e+00  -1.128420000000006e-01 -2.43521395e+00   2.98870800e-01  -3.06771820e-01
C     7.340455170199999e+00   7.233274694439394e+00  -1.886441999999988e-01  1.40390110e+00   1.52841390e-01   1.09369500e-01
C     7.471467307299999e+00   6.998073884245444e+00   3.368390700000000e+00 -1.50348123e+00  -8.08157860e-01   2.61943400e-01
C     8.658904691600000e+00   7.711338198150787e+00   3.419991300000000e+00  1.51766106e+00   1.41642560e-01   1.86044740e-01
C     8.573069644799999e+00   6.524369972334615e+00  -2.206383000000010e-01  8.34756920e-01   4.62032020e-01   8.50118210e-01
C     9.814167022499998e+00   7.253108681031814e+00  -1.067610000000023e-01 -4.85281590e-01  -8.28427420e-01  -2.73116970e-01
C     9.887904687399999e+00   7.008160248814525e+00   3.516715500000000e+00  8.52036410e-01  -1.15700756e+00   3.81492300e-02
C     1.112794152350000e+01   7.701967061099511e+00   3.527825700000000e+00  2.95117360e-01  -2.75122360e-01  -1.06546840e-01
C     1.103477241150000e+01   6.518203696696692e+00  -4.534800000001837e-03  2.93834950e-01   6.93457110e-01  -2.06232200e-02
C     1.227190276610000e+01   7.214071057600607e+00  -5.977200000000238e-03  8.24206760e-01   8.36716580e-01  -1.55469760e-01
C     1.237962380840000e+01   6.958892549267859e+00   3.522316200000000e+00 -8.93294900e-01   2.11980182e+00  -2.87263830e-01
C     1.357786267480000e+01   7.754893128906123e+00   3.367680000000000e+00  4.92084780e-01  -2.32691501e+00   6.30877770e-01
