76
Lattice="10.7446858958278 0 0 5.37234294791388 9.3051709414712 0 0 0 30 " PBC="1 1 1" Properties=species:S:1:pos:R:3:force:R:3 Energy="-598.87584769"
C     1.078341447564540e+01   9.051009500944840e-02  -2.535609000000001e-01 -9.04286550e-01  -1.02875545e+00  -1.03313947e+00
C     1.244272190641906e+01   8.569181980465657e+00  -7.009176000000004e-01 -2.73628130e-01  -2.22930066e+00   9.89123340e-01
C     1.379086968034027e+01   8.304373192614111e+00  -6.485202000000001e-01  5.15032279e+00   8.49853470e-01   8.08690220e-01
C     1.446588163210338e+01   6.990071860382273e+00  -3.205086000000001e-01 -1.03563026e+00   1.30335230e-01  -1.74098544e+00
C     8.310180863471018e+00   9.078445425254593e+00  -1.718586000000002e-01  1.27309893e+00  -3.56390165e+00  -6.37629950e-01
C     9.803346009791321e+00   8.772272547126883e+00  -4.546047000000009e-01 -4.36594452e+00   2.16939616e+00   1.28950829e+00
C     1.029893094745430e+01   7.453721357223328e+00  -3.247380000000000e-01 -1.08304395e+00   9.00142910e-01  -1.42068952e+00
C     1.166983242036536e+01   7.298079159909094e+00  -4.705805999999981e-01  2.55653960e-01   3.05513147e+00   1.31120915e+00
C     1.220738024529992e+01   6.092862811865422e+00  -1.879740000000041e-02 -1.78573066e+00  -1.93005319e+00  -1.49550183e+00
C     1.354603154348213e+01   5.819390909868736e+00  -1.006005000000023e-01  3.95694461e+00   3.52264517e+00  -1.11920607e+00
C     5.995832682340008e+00   8.065392767740724e+00  -3.305727000000012e-01  1.77339899e+00  -1.06230369e+00  -3.15506920e-01
C     7.503252266209544e+00   7.887366423420063e+00  -2.836881000000027e-01 -2.88914615e+00  -8.42337580e-01  -6.99921250e-01
C     8.010197506551162e+00   6.470477535660621e+00  -4.322711999999989e-01  8.22426590e-01   2.54585729e+00   1.72165799e+00
C     9.430433634559510e+00   6.346359024250082e+00  -2.200305000000000e-01 -1.94593843e+00  -1.14177458e+00   1.35566628e+00
C     9.920937034196371e+00   5.056800420702831e+00   2.418453000000000e-01 -5.54493000e-01   1.33753712e+00  -3.16638476e+00
C     1.129246137654905e+01   4.938288088680222e+00   8.922660000000000e-02  2.24798156e+00   1.26181220e-01   2.24814891e+00
C     1.183178653370176e+01   3.644685178687319e+00   2.683023000000000e-01  3.86580060e+00   1.46196120e+00  -1.41515882e+00
C     5.202762903292928e+00   6.828111358948068e+00  -4.997267999999977e-01 -1.88447244e+00   1.10409334e+00   1.69517924e+00
C     5.735645869120576e+00   5.479433747609169e+00  -3.922886999999982e-01  1.23820210e-01   1.29972363e+00   1.90027420e-01
C     7.196332462413224e+00   5.293907900769415e+00  -3.273219000000012e-01 -2.75725351e+00   3.43617225e+00  -2.75672150e-01
C     7.718769498332321e+00   4.059888698804905e+00  -1.342661999999990e-01  7.53752870e-01  -7.59974080e-01   9.69820860e-01
C     9.105720523465930e+00   3.902463816841985e+00   8.212020000000000e-02 -4.84485530e-01  -3.60154640e-01  -7.43554380e-01
C     9.660166139851416e+00   2.612344204538762e+00  -1.208510999999994e-01 -1.30600138e+00   8.17279280e-01  -1.05152704e+00
C     1.101796317894512e+01   2.558673095177355e+00   4.967009999999999e-02  2.07890628e+00  -3.57964083e+00   7.52627600e-01
C     3.387062701157837e+00   4.551354329240321e+00  -1.165614000000019e-01  2.77581037e+00   3.07059848e+00   5.68813240e-01
C     4.818788659033349e+00   4.397953747605532e+00  -1.838528999999980e-01  1.51736019e+00  -2.42829980e-01   1.01815054e+00
C     5.431701537467115e+00   3.117981331160670e+00   9.942959999999999e-02  1.14748219e+00  -8.15699130e-01  -1.95717017e+00
C     6.872991608879364e+00   2.934643130008910e+00  -8.061089999999993e-02 -1.11728350e+00   6.82860520e-01  -1.87873420e+00
C     7.432206952506148e+00   1.775565727657553e+00  -6.825720000000004e-01 -1.69433970e-01  -1.91556793e+00   2.67989377e+00
C     8.867279611422362e+00   1.530647766259061e+00  -6.946736999999992e-01 -1.30955871e+00   1.30874966e+00   1.84132704e+00
C     9.317511498518588e+00   2.150376617345112e-01  -6.587373000000021e-01  2.35804753e+00  -1.75494669e+00   1.20055636e+00
C     2.623408702422619e+00   3.514492251687146e+00   1.324824000000000e-01 -3.95472328e+00  -5.13052185e+00   7.27077810e-01
C     3.253330096295507e+00   2.211909014271760e+00   6.487650000000000e-02 -3.44704415e+00  -2.03083635e+00   1.01629874e+00
C     4.623859427010421e+00   1.936497449392631e+00   2.403990000000000e-02 -3.61330790e-01   7.32014520e-01  -2.03712931e+00
C     5.125294953592808e+00   6.748468214769190e-01  -5.405693999999990e-01  3.22871826e+00   1.15983654e+00   2.85411001e+00
C     6.603037124048821e+00   6.194435545450309e-01  -5.829941999999981e-01 -2.30534594e+00  -1.72935061e+00  -2.25382787e+00
C     8.812134337637216e-01   1.240478758579349e+00   2.155650000000000e-02  5.85347800e-01  -1.50918939e+00  -7.04741680e-01
C     2.342703514667971e+00   1.024766192796559e+00   8.511420000000000e-02 -4.71069000e-02   1.96101291e+00  -1.14896289e+00
C     1.600707600790754e+01   9.271488826645063e+00   3.733414800000000e+00  7.17683900e-01   1.11821066e+00  -4.62876995e+00
C     1.176713296502313e+01   8.829471525946772e+00   3.461534700000000e+00  1.86438199e+00   6.66297920e-01   2.35823917e+00
C     1.322322502317808e+01   8.934181032655532e+00   3.505755300000000e+00 -7.10231350e-01   1.17020999e+00   1.36730174e+00
C     1.402578526094005e+01   7.759922430018985e+00   3.623748600000000e+00  2.59675290e+00   6.81181380e-01  -1.26968231e+00
C     7.590366741187257e+00   8.305238759614952e+00   3.902087700000000e+00  2.07364702e+00   6.62818950e-01  -4.42414057e+00
C     9.039247019889554e+00   8.472614219174270e+00   3.641550600000000e+00 -1.38986181e+00   2.92648530e-01   7.11305590e-01
C     9.859286282886210e+00   7.265457184679351e+00   3.605670900000000e+00 -2.16342677e+00   1.48899312e+00   1.49274164e+00
C     1.121981961741464e+01   7.551366471206150e+00   3.736605600000000e+00  1.69599233e+00  -2.19137589e+00  -9.91027200e-01
C     1.211392189287313e+01   6.397524158025637e+00   3.970044600000000e+00 -7.81179380e-01  -1.60651100e-02  -2.31411502e+00
C     1.353177356018655e+01   6.453107480015214e+00   3.778437900000001e+00 -1.31389974e+00   1.01318045e+00   6.68025940e-01
C     4.745220170740056e+00   7.952652154097069e+00   3.427922400000000e+00 -8.13059530e-01   1.26729049e+00   3.21913887e+00
C     5.665452286668473e+00   6.894132477284463e+00   3.576134100000000e+00 -3.23179490e-01  -1.33499982e+00   3.28813230e-01
C     7.154035845197585e+00   6.997007562594111e+00   3.570284400000000e+00 -4.86354931e+00   5.12600590e-01   2.73639511e+00
C     7.823216333582183e+00   5.796619946906334e+00   3.752625600000000e+00  2.86705420e-01  -5.19281190e-01  -3.68742060e-01
C     9.243149622618438e+00   5.925909993170198e+00   3.711784800000000e+00 -2.34402510e-01   2.60193386e+00  -5.70273750e-01
C     1.006956945616652e+01   4.866340320868723e+00   3.504708000000000e+00  3.09735785e+00  -1.25646426e+00   1.55343348e+00
C     1.155265646317663e+01   5.127851449190842e+00   3.771351300000000e+00 -1.11494719e+00  -3.82962266e+00  -1.23560772e+00
C     1.241712220875145e+01   3.908508735039737e+00   3.603237600000000e+00  3.15862810e-01  -2.59682540e-01  -2.46631201e+00
C     3.657741055477464e+00   5.326576587957277e+00   3.785615400000000e+00 -1.19948811e+00   9.20711600e-02  -1.83428266e+00
C     5.023125078455445e+00   5.644306395340757e+00   3.854835600000000e+00  5.69030600e-01  -1.79884740e+00  -1.29941638e+00
C     5.762683205761612e+00   4.442357465020955e+00   3.941943600000000e+00  1.10351437e+00  -9.84790000e-01   5.53847400e-01
C     7.116672220725496e+00   4.511855739634209e+00   3.872753100000000e+00  6.22702826e+00   1.51938925e+00  -1.28585958e+00
C     8.086535115294604e+00   3.408672358930116e+00   3.648362400000000e+00 -5.90400930e-01   1.07016843e+00   4.58477800e-02
C     9.483586789855366e+00   3.553924030165909e+00   3.342683400000000e+00  4.39799940e-01   1.74780123e+00   4.53843210e-01
C     1.035436928254737e+01   2.461226460490684e+00   3.128766600000000e+00  1.49780112e+00  -8.10462290e-01   2.36330768e+00
C     1.180064333023776e+01   2.615495586781012e+00   3.309922800000000e+00  4.97458550e-01  -1.62626280e-01   3.98277700e-02
C     3.171962953805705e+00   3.971088801162519e+00   3.348751500000000e+00 -2.53005764e+00   3.78262527e+00   4.44154565e+00
C     4.018911852851474e+00   2.870324299644279e+00   3.495447600000000e+00 -2.66845738e+00  -5.15064570e-01  -1.76086730e-01
C     5.321089831235270e+00   3.094747994254259e+00   3.968989200000000e+00 -8.52568600e-01  -1.43651328e+00  -1.39707018e+00
C     6.181152458251701e+00   1.917228022254951e+00   3.977210700000000e+00  1.26185252e+00   3.15974805e+00  -1.27984954e+00
C     7.602312038289722e+00   2.122171155398622e+00   3.729996600000000e+00 -1.12132138e+00  -2.05728463e+00   9.22828790e-01
C     8.460319797851207e+00   9.876206948177544e-01   3.637960200000000e+00 -1.11574206e+00  -1.36180517e+00  -2.31493519e+00
C     9.846821587667337e+00   1.154250810184779e+00   3.340019400000000e+00 -5.26017640e-01  -1.38449403e+00   2.05853456e+00
C     1.924691556009788e+00   1.389630971369771e+00   3.352436100000000e+00 -1.86688218e+00   1.97138570e+00   1.42670940e-01
C     3.333136841775481e+00   1.570614592066874e+00   3.346803300000000e+00  1.01306060e-01   2.51607601e+00   1.19638999e+00
C     4.179759156093319e+00   5.518521886125118e-01   3.545571900000000e+00  1.98640574e+00  -4.85840769e+00   7.64093070e-01
C     5.615552514816276e+00   7.184475026402206e-01   3.686049900000000e+00 -1.50445821e+00  -2.67455356e+00  -1.05540613e+00
C     1.309074186411563e+00   1.142660103158496e-01   3.596593800000000e+00  1.44540478e+00   9.11212700e-02   1.36439435e+00
