76
Lattice="10.7446858958278 0 0 5.37234294791388 9.3051709414712 0 0 0 30 " PBC="1 1 1" Properties=species:S:1:pos:R:3:force:R:3 Energy="-605.07795445"
C     1.837626023076350e-01   1.719660725908580e-01  -5.551817999999997e-01  2.37437194e+00  -3.97923180e-01   1.48298293e+00
C     1.262078982519970e+01   8.618081212065613e+00  -6.609732000000008e-01  2.45389808e+00  -3.01829357e+00   5.37010350e-01
C     1.411571387660183e+01   8.378804510549497e+00  -7.963941000000005e-01 -3.18725031e+00   2.16828797e+00   1.72298616e+00
C     1.467668506307496e+01   7.175237690158359e+00  -3.331425000000010e-01 -1.49866770e-01  -2.47921096e+00  -7.10256650e-01
C     8.469878109257559e+00   9.106047074658786e+00  -1.445837999999995e-01  1.21905391e+00   8.38189280e-01   4.81489140e-01
C     9.937650339390391e+00   8.941681093484883e+00  -1.687331999999984e-01 -1.95981987e+00  -1.77905262e+00  -2.82921220e-01
C     1.048990737070491e+01   7.555125108903944e+00  -1.076207999999994e-01 -1.02608452e+00   3.75231743e+00  -2.34037300e-01
C     1.185091836024502e+01   7.385566470138683e+00  -2.547527999999986e-01  2.16761535e+00   1.92117789e+00  -6.80469590e-01
C     1.248220814359070e+01   6.105733910413049e+00  -3.063600000000832e-03 -5.62969150e-01   2.11342437e+00  -4.44282780e-01
C     1.387645846364361e+01   5.938635000534068e+00  -2.274900000000102e-02  5.34774970e-01   2.50863427e+00   1.72708580e-01
C     6.216562215316304e+00   8.139597504763719e+00  -3.730505999999991e-01 -1.58093134e+00   1.37155803e+00  -3.31909270e-01
C     7.620139298794425e+00   7.971878963551844e+00  -1.236797999999979e-01  5.15724280e-01  -9.12254280e-01  -8.66397560e-01
C     8.229500521303946e+00   6.619027145580970e+00  -5.589990000000000e-02 -2.81132615e+00   1.95895108e+00  -6.44941510e-01
C     9.609227141978971e+00   6.502788439025840e+00   3.046260000000000e-02  4.44199010e-01  -2.57719610e+00   7.45176850e-01
C     1.018725729019153e+01   5.200613698614719e+00   1.856970000000000e-01 -6.19526500e-02  -1.60200737e+00  -1.21176584e+00
C     1.162173566053061e+01   5.035062145611350e+00   2.095068000000000e-01 -1.02168298e+00  -9.45406030e-01  -1.30810250e-01
C     1.221158630631891e+01   3.743632365239775e+00   1.942347000000000e-01 -3.17711495e+00  -2.12642892e+00  -1.42742700e-02
C     5.331372710535287e+00   7.033982310686167e+00  -3.262155000000000e-01  1.79901783e+00  -2.62994937e+00   7.86705940e-01
C     5.939402290397791e+00   5.636797401547304e+00  -1.300640999999985e-01 -7.35946350e-01   3.05313507e+00   6.47039970e-01
C     7.349299344398863e+00   5.487200959896207e+00  -1.602302999999985e-01  7.44650370e-01   5.16006000e-01   1.44220309e+00
C     7.915437650321305e+00   4.199051810591238e+00  -2.621639999999914e-02  1.54456850e-01  -9.38846150e-01  -1.09138248e+00
C     9.336308789266342e+00   3.999746215261566e+00  -4.409339999999773e-02 -7.04955560e-01   4.09587384e+00   1.10342352e+00
C     9.858663359721156e+00   2.771642031308486e+00  -2.613072000000010e-01  8.55932760e-01  -3.04129213e+00  -1.36114780e-01
C     1.126586989064944e+01   2.584954340825163e+00  -2.835809999999839e-02  1.60374742e+00   1.05942992e+00  -4.65446640e-01
C     3.702226848721798e+00   4.697654972396180e+00   3.231858000000000e-01  5.97468140e-01  -1.88771000e-01  -1.15108081e+00
C     5.131654894347307e+00   4.564819469900757e+00   2.538522000000000e-01 -7.90933750e-01  -2.37406703e+00  -1.72997255e+00
C     5.656624775073610e+00   3.184173850745779e+00   5.764200000000000e-03  1.87942281e+00   2.95181059e+00   6.59722970e-01
C     7.079462352708636e+00   3.040788889852259e+00  -1.553283000000008e-01 -1.20499196e+00   1.80752931e+00  -4.42971380e-01
C     7.624287123615831e+00   1.848028443628871e+00  -6.148556999999997e-01 -4.03325498e+00  -2.53657914e+00   7.60680960e-01
C     8.933692837310840e+00   1.660195658809672e+00  -6.292149000000009e-01  5.59616608e+00  -1.16110983e+00   4.65717000e-03
C     9.486300951237135e+00   2.957341512637980e-01  -7.732826999999993e-01  2.76865979e+00   7.11931880e-01   5.62544820e-01
C     2.847719922720251e+00   3.518936959638347e+00   2.553186000000000e-01  2.46110990e-01   2.90386828e+00   3.75270520e-01
C     3.409951407126024e+00   2.289452353576318e+00   6.283799999999999e-02  7.17445350e-01  -2.99700055e+00  -5.23194320e-01
C     4.843112747590917e+00   2.103801166084001e+00  -1.221081000000019e-01 -2.56512854e+00  -1.70123797e+00   4.74063900e-01
C     5.354034596184125e+00   7.709813340093410e-01  -3.442214999999997e-01  1.21839927e+00   8.92934710e-01  -2.77776000e-03
C     6.753052118477152e+00   6.184608354420573e-01  -6.497339999999987e-01 -5.43235580e-01   1.10280097e+00   6.09167240e-01
C     1.113990714422540e+00   1.309701600132778e+00  -1.740525000000019e-01 -1.61190679e+00  -1.06443583e+00  -1.11145686e+00
C     2.542614520308434e+00   1.149531041380592e+00  -8.918279999999967e-02 -1.41463760e-01  -1.15546858e+00  -5.90043000e-03
C     1.584647368350422e+01   9.114736708541106e+00   2.991537300000000e+00 -6.12871980e-01   5.72735630e-01  -3.52535090e-01
C     1.159383643891011e+01   8.750490165525147e+00   3.321427500000000e+00 -1.27711815e+00  -2.41938538e+00   2.31449060e-01
C     1.294911234490424e+01   8.870971285615241e+00   3.088998600000000e+00  2.75353930e+00   4.32152930e-01   2.01940700e-02
C     1.379589185397679e+01   7.693100508671495e+00   3.263305500000000e+00  1.06538489e+00  -1.18087806e+00   4.12939300e-01
C     7.412437321407872e+00   8.150256485023780e+00   3.520216500000000e+00 -3.52787845e+00   1.24131106e+00  -1.18364267e+00
C     8.769452147368055e+00   8.394671688036384e+00   3.636877200000000e+00  1.89242045e+00  -5.41998190e-01  -8.81793570e-01
C     9.604042831032221e+00   7.229941952649233e+00   3.668507700000000e+00  8.64520440e-01   4.11388090e-01   8.72664640e-01
C     1.099646993905820e+01   7.407742088264344e+00   3.494745600000000e+00  1.98109225e+00  -3.30686020e-01   9.74622270e-01
C     1.193009756234500e+01   6.255361710490215e+00   3.761861400000000e+00 -3.21118743e+00   8.36435530e-01  -1.18885600e-01
C     1.328015762173926e+01   6.361598754060485e+00   3.728520300000000e+00  2.03168025e+00   2.61484637e+00  -1.03788879e+00
C     1.523182027340151e+01   7.783035544116851e+00   3.161845800000000e+00  2.98379150e-01   2.90899043e+00   7.27949750e-01
C     5.371411385732470e+00   6.763453634257804e+00   3.639313500000000e+00 -1.31583090e+00   1.20092400e-02  -1.15858408e+00
C     6.765388253529230e+00   6.868875451802022e+00   3.664298100000000e+00  2.93660318e+00   3.71161730e-01   7.32335980e-01
C     7.655124264701973e+00   5.733979490224152e+00   3.922954500000000e+00 -7.69682950e-01   2.49273754e+00   1.52248020e-01
C     9.065494084882644e+00   5.940019982176776e+00   3.946257600000000e+00 -3.83924100e-02  -1.19611899e+00  -1.50635832e+00
C     9.924443293822687e+00   4.780283773722868e+00   3.825773400000000e+00  1.40724098e+00  -2.69288260e-01   2.12558350e-01
C     1.140750634018324e+01   4.968259858174543e+00   3.960682500000000e+00 -3.42720249e+00  -3.30562345e+00  -1.86498984e+00
C     1.216695841460355e+01   3.692519712628320e+00   3.799647900000000e+00  8.90054170e-01   3.03363522e+00   6.59454820e-01
C     3.394980675091265e+00   5.240741503879794e+00   3.994212600000000e+00  4.48203600e-02   1.13903180e+00  -6.90841610e-01
C     4.777816109461168e+00   5.545989727171195e+00   3.914730300000000e+00  1.51797814e+00  -5.20759663e+00   1.58706333e+00
C     5.714047062694686e+00   4.298286992184286e+00   4.098424800000000e+00 -4.00867897e+00   1.68642986e+00  -7.74559670e-01
C     7.065923027729475e+00   4.478210288652776e+00   4.024610700000000e+00  2.26856340e+00  -2.38207257e+00  -1.91660673e+00
C     7.881150605486392e+00   3.353921756687960e+00   3.527343600000000e+00  2.40049171e+00   4.22867900e-02   1.49205036e+00
C     9.363503911619819e+00   3.468386525455087e+00   3.482974800000000e+00 -1.61251883e+00   1.69426017e+00   3.67957590e-01
C     1.018933112201709e+01   2.346589359957747e+00   3.176869800000000e+00 -8.32256790e-01  -7.24646860e-01  -2.15827080e-01
C     1.156228278844473e+01   2.466534874408535e+00   3.348983400000000e+00  2.86495431e+00  -1.06914570e-01   1.99474655e+00
C     2.871804780846254e+00   3.900172790704848e+00   4.041163200000001e+00 -1.21466190e+00  -1.59588858e+00  -1.91459756e+00
C     3.705918669073608e+00   2.728855459550724e+00   3.815897100000000e+00 -4.38180110e-01   2.68095362e+00   1.34109325e+00
C     5.140949692331960e+00   2.990603590576685e+00   3.967810800000000e+00 -7.88399260e-01  -1.53243602e+00  -1.11728006e+00
C     5.973351844648585e+00   1.854139335488588e+00   3.652050000000000e+00  1.00826119e+00   1.25259977e+00  -2.77273060e-01
C     7.375314646517090e+00   2.046170799539334e+00   3.369182100000000e+00 -7.95944850e-01  -2.05096800e-01  -4.59366520e-01
C     8.181562890267378e+00   9.303829134350452e-01   2.938064700000000e+00  8.54754810e-01  -1.80469890e+00   1.31728676e+00
C     9.648872776565932e+00   1.030978511019522e+00   2.887370700000000e+00 -1.38732521e+00  -4.60729860e-01   8.28171140e-01
C     1.702569941528287e+00   1.283181769902068e+00   3.425014800000000e+00 -3.17014755e+00   5.13519580e-01  -2.04547865e+00
C     3.050934704381245e+00   1.458268703774493e+00   3.563951100000000e+00  4.25965921e+00   1.39887477e+00   8.04185990e-01
C     3.999352441532832e+00   4.003148744067486e-01   3.533632800000000e+00 -1.10648706e+00  -1.52056766e+00   3.89703740e-01
C     5.431646739569024e+00   5.812329867004337e-01   3.501654300000000e+00 -2.55853579e+00  -1.80816160e-01  -4.90639000e-02
C     6.519288851716720e+00   9.282566818752551e+00   3.146718300000000e+00  7.24501050e-01  -3.93507310e-01   2.05649181e+00
