64
Lattice="9.86 0 0 4.93 8.53901048131456 0 0 0 30 " PBC="1 1 1" Properties=species:S:1:pos:R:3:force:R:3 Energy="-515.45134149"
C     4.956234797800000e+00   8.420880784338422e+00  -7.825799999999816e-02  1.15762133e+00   1.70578250e-01   1.55754110e-01
C     1.283580716000000e+00   5.870579951812576e-01  -5.888010000000321e-02  4.33095300e-02   7.95344900e-01  -2.60384300e-01
C     1.150697791800000e+00   8.296342048970976e-01   3.601714800000000e+00  2.31246768e+00  -1.39837360e-01  -2.05447310e-01
C     2.440258104800000e+00   1.528019719991565e+00   3.519338100000000e+00 -7.30742670e-01  -3.16086900e-01  -3.12720300e-02
C     7.475044120900000e+00   8.409900385372087e+00  -6.341489999999794e-02 -2.35917730e+00   7.52675290e-01   4.50363200e-01
C     3.728678059500000e+00   6.026346019285592e-01  -7.901850000000010e-02  1.10430008e+00   4.41871320e-01  -1.01814119e+00
C     3.692727365600000e+00   7.904208486302128e-01   3.587999100000000e+00 -1.96097786e+00   7.51443900e-01   1.00024620e-01
C     4.888320054500000e+00   1.537830445302351e+00   3.599812200000000e+00  2.52582540e-01  -4.63382190e-01  -1.32565750e-01
C     9.898976875799999e+00   8.430224169605639e+00  -1.709436000000011e-01 -5.37988950e-01  -1.01145158e+00   6.31833700e-02
C     6.184346210399999e+00   5.797062487183968e-01  -1.802898000000006e-01  7.35676960e-01   1.42223788e+00   9.35019910e-01
C     6.115774396699999e+00   8.435388733924153e-01   3.664625400000000e+00  1.31050113e+00  -1.22444822e+00   9.50922400e-02
C     7.397236691700000e+00   1.509368215570415e+00   3.668184600000000e+00 -1.94069807e+00   8.90274710e-01  -5.34408700e-01
C     1.237007908190000e+01   8.405494768305035e+00  -1.240610999999987e-01 -7.58051180e-01   1.52216517e+00  -8.16194660e-01
C     8.672017702800000e+00   5.940984093220176e-01  -6.194910000000320e-02 -4.23079630e-01   1.41887330e-01  -3.21109170e-01
C     8.607866127099999e+00   8.447498758586889e-01   3.592642200000000e+00 -6.64631570e-01  -1.98209160e+00   3.00771710e-01
C     9.789382334899999e+00   1.561957248633381e+00   3.527519400000000e+00  2.10249290e+00  -4.98884950e-01   2.75189200e-01
C     1.281362265300000e+00   2.041357619825524e+00  -1.611647999999981e-01 -1.36476057e+00  -1.01001014e+00  -2.38627540e-01
C     2.489364109300000e+00   2.735380725245969e+00  -3.405233999999986e-01 -7.07728500e-02   7.69372400e-01   5.88087420e-01
C     2.442971034500000e+00   2.957182717925436e+00   3.379856100000000e+00 -5.31699450e-01  -5.73853940e-01   3.64844100e-01
C     3.677348427800000e+00   3.661383555327098e+00   3.381244800000000e+00 -7.58318670e-01   4.63880370e-01   3.53810420e-01
C     3.711553901700000e+00   2.032812290477769e+00  -2.416292999999996e-01 -3.15288470e-01  -4.34453390e-01   3.28669240e-01
C     4.916821814200000e+00   2.755912690555024e+00  -2.107814999999995e-01  1.59151362e+00   1.88429200e-02   3.45322610e-01
C     4.870868939099999e+00   2.944129303384869e+00   3.525833100000000e+00  1.99322514e+00   5.30891210e-01   2.40764480e-01
C     6.159104955500000e+00   3.629764197250391e+00   3.653430900000000e+00 -1.06460153e+00   3.28837140e-01  -3.36047110e-01
C     6.145293856300000e+00   2.038007595234010e+00  -7.992360000000076e-02  1.23941152e+00  -7.02034090e-01  -7.35734110e-01
C     7.404505533000000e+00   2.745368549634110e+00  -6.305040000000162e-02  1.98173360e-01  -1.73483790e-01   1.10986940e-01
C     7.404488277999999e+00   2.931649112617826e+00   3.635837400000000e+00 -1.37709374e+00  -1.57888410e-01   2.61379110e-01
C     8.587831100100001e+00   3.661834671250756e+00   3.578406000000000e+00  1.01349332e+00   1.62451949e+00   3.33880320e-01
C     8.675202827900000e+00   2.020441825995393e+00  -9.280740000000165e-02 -1.62895552e+00   6.51578800e-01   4.79649630e-01
C     9.870170244899999e+00   2.764366054759909e+00  -1.537064999999984e-01  1.88607087e+00  -8.65034860e-01  -4.88445070e-01
C     9.838984691799999e+00   2.968899862715987e+00   3.492052800000000e+00 -9.58095290e-01   4.73190240e-01  -7.93281000e-03
C     1.105453298540000e+01   3.675113088717470e+00   3.416093700000000e+00  8.91192620e-01  -3.63620330e-01  -1.96658760e-01
C     2.491731150200000e+00   4.185330236391303e+00  -4.248026999999972e-01  7.15878550e-01  -2.00570055e+00  -2.19190100e-02
C     3.702301672100000e+00   4.862331251370393e+00  -3.631107000000000e-01  1.80233945e+00   1.37821721e+00   9.40280000e-02
C     3.645124222300000e+00   5.089416500614045e+00   3.422953200000000e+00  9.75578450e-01  -2.38140710e-01   2.88936010e-01
C     4.888893068400000e+00   5.786107278298547e+00   3.550446300000000e+00  5.38720270e-01  -3.04972230e-01   2.67560140e-01
C     4.966376892400000e+00   4.182915916568189e+00  -2.289333000000013e-01 -6.46912260e-01  -1.27010000e-03  -2.28352140e-01
C     6.202467312800000e+00   4.907968419831277e+00  -1.260998999999998e-01 -3.23062720e-01  -5.46732870e-01   9.03750270e-01
C     6.150168591000000e+00   5.047812306802865e+00   3.693521100000000e+00 -1.04174225e+00   1.29767418e+00  -8.01230150e-01
C     7.362017264700000e+00   5.830083438440862e+00   3.702871800000000e+00 -3.79046970e-01  -2.09755741e+00   2.03944490e-01
C     7.429449508899999e+00   4.182337227827960e+00  -3.015450000000186e-02  7.83313180e-01  -5.07690550e-01  -7.45576760e-01
C     8.712446266400001e+00   4.879303644770755e+00  -1.242528000000007e-01 -2.13488009e+00   2.86714780e-01   6.20281000e-03
C     8.576567874200000e+00   5.123958932758265e+00   3.672707700000000e+00  1.43225597e+00  -1.84135769e+00  -9.20440840e-01
C     9.858752216999999e+00   5.782355066313426e+00   3.568670100000000e+00 -2.30456700e+00   8.00785160e-01   5.10473810e-01
C     9.921692688900000e+00   4.178978151885337e+00  -2.939025000000015e-01 -3.58705840e-01  -2.22695570e-01   5.53037460e-01
C     1.116568126510000e+01   4.892934723370293e+00  -4.324365000000014e-01 -2.32158540e+00  -1.16262686e+00   5.22074360e-01
C     1.105851415760000e+01   5.098122790309349e+00   3.435542400000000e+00 -1.42154460e-01  -1.24819673e+00   3.59528880e-01
C     1.226713639280000e+01   5.787237160165260e+00   3.486117600000000e+00  1.57010174e+00   5.99364940e-01  -5.75367040e-01
C     3.709811689000000e+00   6.298591362474611e+00  -3.363776999999999e-01  9.98974250e-01  -9.00152900e-02   5.31379430e-01
C     4.974336426700000e+00   6.998783476016332e+00  -1.382906999999989e-01 -1.82359216e+00   5.18407160e-01   3.12492000e-02
C     4.903564797700000e+00   7.222299418879345e+00   3.585791100000000e+00  5.14716590e-01  -4.46343450e-01   5.98870460e-01
C     6.146481739800000e+00   7.930209602433518e+00   3.706017300000000e+00 -1.48164381e+00   7.92573090e-01  -9.66049480e-01
C     6.191745450199999e+00   6.335789512268216e+00   1.812300000000000e-03 -7.90846000e-03  -1.81010983e+00  -1.08998937e+00
C     7.425357214500000e+00   6.997115124148749e+00  -1.002869999999945e-02  2.87709680e-01   9.98039700e-01   3.73131500e-02
C     7.362997397999999e+00   7.215754694296949e+00   3.686428200000000e+00 -4.83641140e-01   1.26060846e+00   3.20460940e-01
C     8.576672094399999e+00   7.916049873695163e+00   3.678434100000000e+00  1.60789748e+00  -4.13171600e-02  -1.57621860e-01
C     8.635845454700000e+00   6.312321493595718e+00  -1.080656999999974e-01  1.48949084e+00  -1.59276168e+00  -2.15900750e-01
C     9.876159652599998e+00   6.980723895801656e+00  -2.372663999999993e-01 -1.42407030e-01   1.37926266e+00   3.83381090e-01
C     9.824216827499999e+00   7.195024282384338e+00   3.668239200000000e+00  3.71411780e-01   1.05539283e+00  -3.19629340e-01
C     1.104842481400000e+01   7.941889431748272e+00   3.657370800000000e+00  7.00357750e-01  -4.60076030e-01  -3.40972400e-01
C     1.109249797870000e+01   6.267419448547057e+00  -3.517802999999979e-01  1.51012742e+00   2.42922199e+00  -2.86282370e-01
C     1.234985730650000e+01   7.025854017820238e+00  -3.399584999999981e-01 -4.40128290e-01  -1.44314289e+00   5.77519030e-01
C     1.231363911080000e+01   7.196600327548632e+00   3.558891900000000e+00 -1.05968116e+00   1.95782942e+00   5.69147740e-01
C     1.354744605380000e+01   7.942942974861294e+00   3.605457000000000e+00 -6.03744990e-01  -4.70410200e-01  -5.38167970e-01
