64
Lattice="9.86 0 0 4.93 8.53901048131456 0 0 0 30 " PBC="1 1 1" Properties=species:S:1:pos:R:3:force:R:3 Energy="-516.69315285"
C     4.964065659100000e+00   7.112158138302017e+00   1.095690000000000e-02  1.45696941e+00  -3.88235360e-01  -1.73866500e-01
C     6.226973948400000e+00   7.821473672200988e+00  -2.113079999999812e-02 -1.14785791e+00  -1.16637950e-01  -7.89702000e-02
C     9.794136925499998e+00   1.404903669160191e+00   3.387757200000000e+00  6.92104740e-01   1.40090256e+00   2.74497660e-01
C     1.103859784500000e+01   2.141364034254245e+00   3.439548000000000e+00 -5.12032190e-01  -1.07070980e-01  -3.09835580e-01
C     7.433269667299999e+00   7.105011840431304e+00  -5.804009999999948e-02  9.46014140e-01  -2.27173250e-01  -7.36435800e-02
C     8.677089736100001e+00   7.832920984260372e+00  -7.196190000000158e-02  8.55658600e-02  -5.17569240e-01   3.91415060e-01
C     2.420137936700000e+00   1.418728497907521e+00   3.481042800000000e+00 -1.18495677e+00   5.63975650e-01   5.77511400e-02
C     3.634018608500000e+00   2.121135033037020e+00   3.511825800000000e+00  8.67935210e-01   7.82407320e-01  -2.44075590e-01
C     9.919591375000000e+00   7.111810344405166e+00  -5.376600000001730e-03 -2.90448240e-01  -7.57183200e-02  -3.18860860e-01
C     1.114963130500000e+01   7.806635946030521e+00  -1.307159999999996e-02  5.35997730e-01   7.03716750e-01   2.77084690e-01
C     4.885369597400000e+00   1.429559293410248e+00   3.502404900000000e+00 -3.59162290e-01   2.84554310e-01  -1.23997930e-01
C     6.117746248800000e+00   2.162547611453029e+00   3.435855300000000e+00 -1.36209425e+00  -6.30605900e-02  -1.47712600e-02
C     1.238788924920000e+01   7.108124224361160e+00   4.752180000000000e-02 -1.97079280e-01  -1.63916400e-01  -1.37660880e-01
C     1.361431327070000e+01   7.823385983597985e+00   7.976460000000000e-02 -4.04718900e-01  -6.87590000e-03  -2.89654570e-01
C     7.315099342099999e+00   1.433127660499735e+00   3.377272200000000e+00  9.17514290e-01   2.74246780e-01   3.66778280e-01
C     8.563641217000001e+00   2.129222073692314e+00   3.372234000000000e+00  3.73676660e-01  -2.37050350e-01  -6.14384230e-01
C     1.302739435500000e+00   6.967814619757993e-01  -2.685269999999917e-02 -4.08779650e-01   9.70998100e-01   6.50186440e-01
C     2.541674761700000e+00   1.430689943787905e+00  -1.160579999999811e-02 -6.14053390e-01  -2.84394090e-01  -4.09069440e-01
C     1.102334555890000e+01   3.579285666017662e+00   3.394692000000000e+00  4.76228350e-01  -8.17082390e-01   1.73720780e-01
C     1.226617943050000e+01   4.264415221242976e+00   3.478722300000000e+00 -6.23753460e-01   8.24421360e-01  -2.65926350e-01
C     3.774299934400000e+00   7.244344496845456e-01  -5.449559999999920e-02 -3.56232330e-01  -1.09063126e+00   1.53490900e-02
C     5.024686122300000e+00   1.387117251890770e+00  -5.697149999999951e-02 -1.04814870e+00   1.54882036e+00  -2.19714990e-01
C     3.614694586100000e+00   3.555309149271079e+00   3.477703200000000e+00  7.77041690e-01   1.13442530e-01   1.57686160e-01
C     4.827064903099999e+00   4.314305756214053e+00   3.440446500000000e+00  1.62028968e+00  -1.24763682e+00   2.12799080e-01
C     6.237465826499999e+00   6.976835230429064e-01  -5.385900000000277e-02  8.40642920e-01  -3.46328600e-02   2.34182520e-01
C     7.481259519800000e+00   1.450514366688587e+00  -2.878019999999992e-02 -1.28506319e+00  -2.38422241e+00   1.84722450e-01
C     6.094063416199999e+00   3.595794049588541e+00   3.418480500000000e+00 -7.26816040e-01  -8.63163210e-01  -1.41107630e-01
C     7.335764916099999e+00   4.247748951368322e+00   3.349486800000000e+00  5.76053510e-01   8.41656240e-01  -8.27683200e-02
C     8.682720091900000e+00   7.052931476222631e-01   7.643670000000001e-02  3.73510860e-01   4.00216110e-01  -4.81000870e-01
C     9.901957800300000e+00   1.416674524326662e+00   4.403730000000000e-02  1.20791209e+00  -2.19459710e-01   7.42718700e-02
C     8.587975894200000e+00   3.538752605681093e+00   3.273758100000000e+00 -5.84646040e-01   9.78826520e-01   6.67569640e-01
C     9.811475242500000e+00   4.298832898444084e+00   3.293142300000000e+00 -5.82625140e-01  -8.98780520e-01   3.81266390e-01
C     2.511010358900000e+00   2.849401107504151e+00  -1.956210000000169e-02  1.67825180e-01  -2.55713520e-01   1.26102670e-01
C     3.754956980799999e+00   3.555949148106555e+00  -1.047374999999988e-01 -3.54215680e-01  -8.65668610e-01   6.57689300e-01
C     1.227301078360000e+01   5.703526337166258e+00   3.479490000000000e+00 -3.22042250e-01  -6.98041030e-01  -7.69894800e-02
C     1.348830745000000e+01   6.411992154132364e+00   3.503008200000000e+00  8.09216100e-01   1.01726533e+00  -6.26655580e-01
C     4.986093540000000e+00   2.828909958665190e+00  -8.992289999999770e-02  3.91094580e-01  -3.44247300e-02  -2.16826550e-01
C     6.212609604600001e+00   3.551560438280255e+00  -1.185407999999981e-01  9.36726600e-02  -7.40294970e-01  -1.81759300e-02
C     4.885069064600000e+00   5.727228922456642e+00   3.452204400000000e+00 -1.01335461e+00  -6.58601060e-01   3.02878220e-01
C     6.135132386799999e+00   6.392449774747837e+00   3.456737400000000e+00 -9.67875390e-01   1.31535475e+00  -1.44372960e-01
C     7.453742429000000e+00   2.828248356133200e+00  -9.102659999999929e-02  4.09143610e-01   2.01128084e+00   7.82537700e-02
C     8.697482779700000e+00   3.564232586002889e+00  -5.515589999999904e-02 -1.13898992e+00  -8.48134400e-02   3.87789170e-01
C     7.340177709799999e+00   5.675044467710217e+00   3.394794900000000e+00  9.61140210e-01   3.08580170e-01  -2.03150650e-01
C     8.573454677799999e+00   6.412238077634189e+00   3.372144900000000e+00 -2.25202700e-01   3.59457660e-01   5.26355100e-02
C     9.905037522000001e+00   2.849115648383805e+00   7.091610000000001e-02 -3.74964380e-01  -8.47262220e-01  -6.22974560e-01
C     1.111723287330000e+01   3.536252981143282e+00   6.179279999999999e-02  1.99910229e+00   4.99180920e-01  -3.05443630e-01
C     9.814352094699998e+00   5.717347494139081e+00   3.348657000000000e+00 -8.70352730e-01  -4.66705620e-01   8.10124000e-03
C     1.103401846660000e+01   6.408819228618206e+00   3.425964300000000e+00  6.64693660e-01  -5.18048400e-02  -1.17202140e-01
C     3.759068354300000e+00   4.960891925934745e+00  -4.498170000000101e-02  5.80514400e-01   8.54492470e-01  -2.46745300e-01
C     4.996539076099999e+00   5.677825879593867e+00  -8.411070000000009e-02 -9.99278160e-01   5.61577480e-01   4.30652170e-01
C     1.349957121820000e+01   7.844473838489288e+00   3.414095400000000e+00 -5.57443100e-01  -3.23250280e-01   5.03402110e-01
C     9.806190578299999e+00   5.913520927714400e-03   3.427086600000000e+00 -2.23830610e-01  -6.64683810e-01  -2.51358000e-03
C     6.212004595000000e+00   4.967075791934256e+00  -1.199544000000010e-01 -2.30731700e-02  -1.99553070e-01   9.87767100e-02
C     7.427123436300000e+00   5.664714912122666e+00  -7.532070000000246e-02  9.97645530e-01   1.33662524e+00  -1.83779120e-01
C     6.108130086599999e+00   7.843501074415406e+00   3.468824400000000e+00  2.74863900e-02  -1.18279331e+00  -2.08453430e-01
C     2.394275403200000e+00   6.784756166988801e-03   3.459816300000000e+00  4.09275060e-01   1.27193820e-01   7.82402500e-02
C     8.672959184900000e+00   4.990321283993646e+00  -5.986830000000154e-02  1.00991295e+00  -4.81701040e-01   2.90309960e-01
C     9.938680137799999e+00   5.689580254470112e+00   2.194710000000000e-02 -6.75212730e-01  -4.02788940e-01  -2.41374730e-01
C     8.558274566900000e+00   7.855870087266000e+00   3.424380900000000e+00 -2.01804400e-02  -1.37067168e+00   3.28704200e-01
C     4.853733097199999e+00   8.662484571540801e-03   3.489771300000000e+00  1.28976669e+00  -1.84252470e-01  -6.07277770e-01
C     1.117795104910000e+01   4.949008526610148e+00   4.548210000000000e-02 -1.19272514e+00   1.32004953e+00  -5.65096600e-02
C     1.240411875990000e+01   5.690876903211500e+00   2.182560000000000e-02 -4.89156820e-01  -8.00471530e-01   5.93843500e-02
C     1.103404370820000e+01   7.811059153459161e+00   3.420592800000000e+00 -4.68840710e-01   1.51398663e+00   4.29748980e-01
C     7.326709393500000e+00   1.836920473468080e-02   3.412705800000000e+00  4.26759400e-02  -8.45770960e-01  -1.21654000e-01
