52
Lattice="8.88768389401873 1.33226762955019e-15 0 4.44384194700937 7.69696003302603 0 0 0 30 " PBC="1 1 1" Properties=species:S:1:pos:R:3:force:R:3 Energy="-419.15248499"
C     1.237590775825740e+01   6.590544654749988e+00  -2.662677000000002e-01 -3.22696380e-01   1.40689749e+00   1.41022390e-01
C     8.538247448796739e+00   6.406943987160778e+00  -1.859295000000003e-01  1.75020558e+00  -1.22422293e+00  -2.75701720e-01
C     9.949160689176949e+00   5.989443326064710e+00  -2.235462000000012e-01 -2.88745620e-01   1.65201871e+00   3.97255740e-01
C     1.027825802457760e+01   4.619847028022512e+00  -1.948191000000001e-01  1.15044514e+00  -6.62947500e-02   3.61764480e-01
C     6.173874545198773e+00   5.800750426689252e+00  -2.843316000000016e-01  1.01562173e+00  -5.19823100e-02   3.50038830e-01
C     7.526666687905383e+00   5.386164912234945e+00  -2.463474000000012e-01  8.20043560e-01   1.06691844e+00   2.75282430e-01
C     7.888846337977984e+00   4.012168954870001e+00  -2.024265000000014e-01 -5.12865000e-01   4.15539340e-01  -1.87888520e-01
C     9.250713783618082e+00   3.653879621831917e+00  -2.042654999999982e-01  8.31030980e-01  -1.50237969e+00   3.05441340e-01
C     9.652320088174843e+00   2.248679418809349e+00  -1.729976999999998e-01 -2.05828031e+00   1.94044852e+00  -2.15919840e-01
C     3.821105712789835e+00   5.245831320001576e+00  -2.072922000000013e-01 -4.22617450e-01  -2.70786165e+00   3.79414650e-01
C     5.184926404671081e+00   4.814639460343344e+00  -2.331459000000002e-01 -1.16051446e+00   3.26971070e-01   7.11942200e-02
C     5.507733926172165e+00   3.428708211907880e+00  -1.553309999999968e-01 -1.12117560e-01   1.26513526e+00   4.17861690e-01
C     6.845029769896113e+00   3.040947218914925e+00  -1.523553000000000e-01  1.55803240e+00  -2.52194560e-01  -4.03998750e-01
C     7.205976520462468e+00   1.671530644889429e+00  -1.945856999999975e-01  1.21430215e+00   2.62018400e-01  -7.60393000e-02
C     8.601380441416751e+00   1.301842652834117e+00  -2.580596999999969e-01  5.25669000e-02  -1.68447612e+00   4.54618080e-01
C     2.790427496699857e+00   4.222643943251957e+00  -8.421270000000192e-02 -4.34991990e-01   8.11677290e-01  -1.10992617e+00
C     3.135382059928124e+00   2.829582538923102e+00  -8.822430000000026e-02  2.19808740e-01   2.23126378e+00   7.60091860e-01
C     4.498884128398388e+00   2.485329074317325e+00  -2.634510000000034e-02 -4.33340470e-01  -2.82566767e+00  -1.06079652e+00
C     4.825163979090771e+00   1.056778680621346e+00  -1.174199999999992e-01  4.31447570e-01   1.28488643e+00   5.55656250e-01
C     6.209769541873335e+00   6.885583449045544e-01  -1.895178000000008e-01 -7.55856340e-01  -1.32408397e+00   1.67257780e-01
C     1.101317491886436e+01   6.991047349315805e+00  -2.112753000000005e-01 -1.39560245e+00  -2.76340290e-01  -2.86098500e-01
C     2.108646509347404e+00   1.896935118763175e+00  -9.458729999999704e-02 -3.24334050e-01  -2.56656032e+00  -3.57982570e-01
C     2.400151341538058e+00   4.812414192229071e-01  -1.328634000000015e-01  2.18319099e+00   9.85083840e-01   1.14344520e-01
C     3.792292727035455e+00   8.672957652684089e-02  -1.067976000000002e-01 -8.08577580e-01   1.24610750e-01  -3.71447030e-01
C     4.516707581859387e+00   7.582491533160242e+00  -2.869710000000012e-01 -1.17213450e+00   1.13901842e+00   1.64735330e-01
C     5.870257755141931e+00   7.194008873194877e+00  -2.443857000000023e-01 -9.83343210e-01  -3.60883020e-01  -1.02559990e-01
C     9.698276663126153e-01   1.114273278714239e+00   3.527038200000000e+00  4.45733870e-01  -6.08649390e-01  -3.46829400e-02
C     3.374878876151803e+00   5.113737092571520e-01   3.593842200000000e+00  8.98434900e-01  -1.15837666e+00  -3.60086000e-01
C     4.758450757347772e+00   8.947305017209397e-01   3.687134400000000e+00 -5.96250280e-01  -7.97518100e-02  -4.74078250e-01
C     1.021312112448628e+01   7.593470015129433e+00   3.663251700000000e+00 -3.12004060e-01   2.59119960e-01   4.89850700e-02
C     7.119810913067935e+00   2.805404155350463e-01   3.660298200000000e+00  1.31736942e+00   1.62611039e+00  -1.24601220e-01
C     1.262832362470119e+01   7.034690575108310e+00   3.632229300000000e+00 -1.08443868e+00  -7.28920910e-01  -1.50234980e-01
C     5.092669136896729e+00   7.421152475187400e+00   3.550875000000000e+00  1.40839740e-01   3.45187060e-01   2.01729400e-02
C     6.116374830351669e+00   6.430699422779768e+00   3.511070400000000e+00  2.81806690e-01   9.39191100e-02   3.55619520e-01
C     7.496065371105901e+00   6.798457709985959e+00   3.493830900000000e+00 -1.06616093e+00   1.87484456e+00   2.80982690e-01
C     8.503730261635578e+00   5.851641725802808e+00   3.492471000000000e+00  6.70989680e-01  -2.01575924e+00   4.05554300e-01
C     9.865615749748779e+00   6.224265569322363e+00   3.596194500000000e+00  5.80183900e-02   4.78202040e-01  -4.34152000e-02
C     1.089662085356675e+01   5.268590230205482e+00   3.621468000000000e+00 -2.57895330e-01  -1.41588664e+00  -7.18309090e-01
C     3.381685601072497e+00   5.647858551440534e+00   3.628235100000000e+00  1.66578710e-01   3.45706900e-02   3.19419870e-01
C     4.402824753617447e+00   4.665637012936986e+00   3.650708400000000e+00  1.33657000e-02  -1.19726470e+00  -2.53625780e-01
C     5.783804097427156e+00   5.055850257395497e+00   3.612813900000000e+00 -1.11826981e+00   9.74058200e-02  -7.09421170e-01
C     6.781082485035585e+00   4.078184395594506e+00   3.525369600000000e+00  1.31526769e+00  -1.24870315e+00   5.28429380e-01
C     8.172806594265200e+00   4.439289430550764e+00   3.510008100000000e+00 -1.62784720e+00   1.57669105e+00  -3.35872890e-01
C     9.159637642776365e+00   3.461889498718808e+00   3.513270600000000e+00  1.11983637e+00   5.32820470e-01  -1.00737630e-01
C     1.052141096834548e+01   3.875476563518022e+00   3.505463400000000e+00  1.51075213e+00  -4.43970190e-01   1.00956802e+00
C     2.671805445351783e+00   2.865113399752788e+00   3.602530800000000e+00  4.48591900e-01   3.80764610e-01  -7.35184600e-01
C     4.060893289799278e+00   3.246741301054637e+00   3.636493500000000e+00 -2.92408300e-02   1.03090253e+00   2.19528740e-01
C     5.115295665826602e+00   2.267568066601370e+00   3.663780000000000e+00 -1.14650273e+00   3.47564910e-01  -1.21702040e-01
C     6.470479484795774e+00   2.665415771774438e+00   3.591233100000000e+00 -8.15604250e-01   1.38689435e+00   1.65523720e-01
C     7.471413598988813e+00   1.700923487973592e+00   3.613679700000000e+00  2.99210840e-01  -1.52099965e+00  -8.04336900e-02
C     8.830810846699745e+00   2.101247536097112e+00   3.555516600000000e+00  1.96874870e-01  -1.17782333e+00  -1.29300150e-01
C     2.355383811792190e+00   1.464264827022381e+00   3.525494700000000e+00 -8.61945860e-01   1.56662091e+00   5.71993640e-01
