76
Lattice="10.7446858958278 0 0 5.37234294791388 9.3051709414712 0 0 0 30 " PBC="1 1 1" Properties=species:S:1:pos:R:3:force:R:3 Energy="-612.44576151"
C     1.513737136838160e-01   6.929598019701760e-02  -3.612231000000001e-01 -7.14911900e-02  -5.43620780e-01  -1.93808200e-02
C     1.261067279012655e+01   8.533527263923149e+00  -3.279198000000001e-01 -2.33086101e+00   3.65431980e-01   3.28076690e-01
C     1.398988151694119e+01   8.364775197374968e+00  -3.568736999999977e-01  1.27364574e+00   5.61762540e-01   1.95506080e-01
C     1.454255705377151e+01   7.079173245563115e+00  -2.187297000000008e-01  1.38089696e+00  -6.96859200e-02   4.48783450e-01
C     8.372364551201819e+00   9.074585082038423e+00  -1.721378999999992e-01 -2.85555530e-01  -6.35983630e-01  -5.69632740e-01
C     9.760865765893652e+00   8.875567295645926e+00  -2.038010999999997e-01  1.24352946e+00   1.46703530e+00   4.85434810e-01
C     1.031319715043459e+01   7.572236573848929e+00  -1.450260000000014e-01  2.45359000e-01   2.77948560e-01  -1.54170600e-02
C     1.172023993234976e+01   7.395038482793637e+00  -2.059128000000001e-01  1.03573479e+00   5.28148970e-01  -4.84317500e-02
C     1.230467407452900e+01   6.102098659281919e+00  -1.101282000000019e-01 -1.41164614e+00  -5.96906140e-01   5.65753870e-01
C     1.369849885129685e+01   5.962846124802852e+00  -3.340140000000247e-02  7.90042620e-01  -1.22129714e+00  -7.84180120e-01
C     6.084514377203093e+00   8.086652850097598e+00  -2.020364999999984e-01  1.00592420e+00   7.22628000e-03  -2.90202210e-01
C     7.518283437102490e+00   7.935706600349945e+00  -1.212569999999999e-01 -1.68571480e+00   8.73982290e-01  -2.44239410e-01
C     8.033156858829141e+00   6.653528858392301e+00  -7.560929999999999e-02  1.74557255e+00  -1.71377397e+00   4.39552940e-01
C     9.455063248260643e+00   6.453204346844700e+00  -4.783289999999951e-02 -4.42447200e-02   3.34785500e-02  -7.03572820e-01
C     1.001308646898682e+01   5.149966025395137e+00  -1.133237999999999e-01  1.68916870e-01  -1.35955511e+00   6.60113770e-01
C     1.143178111063252e+01   4.931774375970511e+00  -3.787140000000022e-02  4.07989280e-01   1.36301835e+00  -7.13261540e-01
C     1.201021085371370e+01   3.639523786470320e+00  -1.036895999999992e-01 -5.07999000e-03  -1.70290740e-01  -1.58916440e-01
C     5.253076238105416e+00   6.952335856255615e+00  -1.606079999999999e-01 -1.45053022e+00  -1.06671670e-01   3.42313440e-01
C     5.808428652257433e+00   5.675287682830358e+00  -3.406500000000534e-03 -2.09456570e-01  -2.02281557e+00  -2.73606760e-01
C     7.228990774035985e+00   5.487510449881670e+00  -3.608939999999805e-02 -1.50038332e+00   2.95278310e-01  -1.56774850e-01
C     7.758610471308945e+00   4.169396044702038e+00  -1.351206000000005e-01  9.45234570e-01   3.98711540e-01   3.75100380e-01
C     9.159623066879883e+00   3.990640919393357e+00  -1.603376999999995e-01  1.41807348e+00  -8.96394000e-01  -5.44129580e-01
C     9.757075416772139e+00   2.632755748357618e+00  -3.105627000000020e-01 -6.75973210e-01   2.27675887e+00   4.26788580e-01
C     1.116615136187673e+01   2.493856717322563e+00  -2.881319999999974e-01  1.07755570e-01   2.22729600e-01  -3.18124600e-02
C     3.527284612792902e+00   4.627476955045760e+00   8.644799999999999e-03 -1.04588760e-01   1.10328775e+00   1.73526560e-01
C     4.934329597368678e+00   4.490937529257670e+00   3.161700000000000e-02  1.06484348e+00   6.23242950e-01   8.11696600e-02
C     5.516609000237537e+00   3.188002835535880e+00   1.791120000000000e-02  8.13482950e-01  -7.03744000e-02  -1.14624089e+00
C     6.948823035470056e+00   3.035964065668160e+00  -1.500422999999991e-01 -1.14841347e+00  -1.82133259e+00   6.26885010e-01
C     7.528213568364411e+00   1.680940048593052e+00  -2.424642000000006e-01 -1.44571417e+00   1.30108260e+00  -5.68405560e-01
C     8.912248002233895e+00   1.498695949440417e+00  -3.831993000000011e-01  7.04094090e-01   2.39077520e-01   4.20663480e-01
C     9.498155025956311e+00   2.014517399552736e-01  -3.963338999999984e-01 -1.31596618e+00   3.52541600e-02  -1.40005170e-01
C     2.692471406683747e+00   3.490001879238451e+00  -6.238409999999917e-02 -4.17814820e-01  -9.82193900e-02  -1.58604470e-01
C     3.282144657707831e+00   2.196285632263499e+00  -1.669443000000008e-01 -5.68042420e-01   1.46492170e-01  -6.11302700e-02
C     4.684153017044553e+00   2.037095838528390e+00  -1.278789000000025e-01  3.50836370e-01   5.72610140e-01   5.35246180e-01
C     5.258943481287971e+00   7.563893371480707e-01  -1.945197000000007e-01 -5.36537210e-01  -2.08547083e+00  -4.22104750e-01
C     6.660873296970763e+00   5.556430222017584e-01  -2.861280000000015e-01  4.23805400e-01  -1.49910640e-01   3.50819430e-01
C     9.788355131470500e-01   1.196077367456660e+00  -3.931353000000009e-01  2.42169778e+00   7.62225430e-01   7.22945140e-01
C     2.458791518685899e+00   1.058632455484399e+00  -3.052673999999982e-01 -2.36950656e+00   1.52375230e-01   4.77614950e-01
C     1.595934026951904e+01   9.227917922028769e+00   3.343917300000000e+00  8.66492110e-01   4.22066890e-01   8.92054210e-01
C     1.171953201871924e+01   8.734090453105363e+00   3.325638300000000e+00  7.69582180e-01   9.35029430e-01   3.00258250e-01
C     1.314054482634787e+01   8.904914688170173e+00   3.285345600000000e+00  6.27994750e-01  -4.40875960e-01  -5.54936800e-02
C     1.399966498324058e+01   7.734689877136115e+00   3.372065100000000e+00 -9.33463280e-01   1.27116755e+00   4.73665490e-01
C     7.481602422525627e+00   8.269918098709189e+00   3.517359900000000e+00  1.93731675e+00  -7.85867650e-01   1.68171900e-01
C     8.939547294317173e+00   8.417833561229976e+00   3.482789100000000e+00 -1.56221680e+00  -3.58327010e-01   4.12167130e-01
C     9.761820216342148e+00   7.243255325971639e+00   3.552496500000000e+00  4.47237140e-01   1.24756387e+00  -3.37200130e-01
C     1.118965869313561e+01   7.426497497759298e+00   3.492245700000000e+00 -1.67630879e+00   6.68897860e-01   9.02310000e-04
C     1.200517036038772e+01   6.322992809502647e+00   3.667740900000000e+00  1.76811410e-01  -2.17281059e+00   2.41909430e-01
C     1.340805441162530e+01   6.469423166741411e+00   3.630166800000000e+00  7.31142010e-01  -3.74286070e-01  -4.26655930e-01
C     4.659593512418917e+00   7.917607391509678e+00   3.403072500000000e+00  4.02509880e-01  -3.71043600e-02  -5.54078630e-01
C     5.521766825533543e+00   6.782693750107023e+00   3.493938300000000e+00 -7.07848900e-02  -8.77316400e-02   1.12661278e+00
C     6.940638163538872e+00   6.947831129951852e+00   3.593600100000000e+00 -9.04292750e-01   8.37681190e-01  -5.63698510e-01
C     7.773847993894600e+00   5.825662222875459e+00   3.688609200000000e+00  7.89319130e-01  -1.44136606e+00  -5.56562470e-01
C     9.200415213175804e+00   5.953952056314982e+00   3.649981500000000e+00 -6.41532490e-01   3.03698620e-01   4.55748520e-01
C     1.003915646155628e+01   4.812582766469283e+00   3.756026400000000e+00 -7.82186080e-01  -3.81259340e-01  -2.30476500e-01
C     1.142507868301496e+01   4.979444766696132e+00   3.830291700000000e+00  1.35829994e+00   7.82925390e-01  -2.88297810e-01
C     1.228069929571005e+01   3.828788171838638e+00   3.896691000000000e+00 -3.74491630e-01   2.54541910e-01  -5.27707720e-01
C     3.509502533692409e+00   5.333765018611845e+00   3.746541600000000e+00  4.52775620e-01  -9.65517160e-01   2.85994580e-01
C     4.950924872188088e+00   5.484321102541986e+00   3.701457300000000e+00 -1.48166891e+00   1.19720186e+00  -6.49351280e-01
C     5.770715825493593e+00   4.370298035158178e+00   3.711380700000000e+00  1.70447605e+00  -2.25693095e+00  -1.19907190e-01
C     7.219309113635502e+00   4.496554316540474e+00   3.654812100000000e+00 -1.43491065e+00   1.25227415e+00   4.67693400e-01
C     8.040591214450211e+00   3.361714651246791e+00   3.601281900000000e+00  8.56054940e-01  -7.81996280e-01  -5.15665880e-01
C     9.460305902851831e+00   3.501351396233969e+00   3.662595000000000e+00  1.26542920e-01   5.72994240e-01  -1.52857260e-01
C     1.031455624575408e+01   2.373461204805117e+00   3.542696400000000e+00 -2.84593990e-01   1.58902160e-01   7.26921680e-01
C     1.171211463970189e+01   2.518320570034079e+00   3.747319500000000e+00  6.11050200e-02   6.76064420e-01  -7.79298170e-01
C     2.943248400055964e+00   4.000331510513692e+00   3.859754400000000e+00  5.27684900e-01   8.49816660e-01  -1.57719530e-01
C     3.794143553615656e+00   2.859640474577809e+00   3.764398500000000e+00  1.13909120e+00   3.84474740e-01  -2.13506800e-01
C     5.230886097891020e+00   3.027519157781563e+00   3.690087600000000e+00 -6.89159850e-01   1.03238595e+00  -1.67494750e-01
C     6.084058211563208e+00   1.914886841246446e+00   3.475645500000000e+00 -2.26948100e-02  -7.22096400e-01  -7.29418000e-02
C     7.495770741417374e+00   2.052767421322119e+00   3.404961900000000e+00  7.62339700e-02   4.54800630e-01   3.67853790e-01
C     8.360374126418574e+00   9.158636830105256e-01   3.281639700000000e+00 -1.64637427e+00  -1.94435180e-01   2.19607620e-01
C     9.746906592312948e+00   1.087125447212935e+00   3.356436000000000e+00  9.40633350e-01  -8.83808260e-01  -1.38557670e-01
C     1.807204325270533e+00   1.399598298273862e+00   3.572397600000000e+00  1.69971603e+00   7.85567500e-02   9.12526720e-01
C     3.251927484998121e+00   1.570153148639959e+00   3.628552500000000e+00 -1.12491138e+00  -7.05336910e-01  -1.85593780e-01
C     4.104186085475092e+00   4.306863940446522e-01   3.493486500000000e+00  5.04094740e-01   9.79234000e-03  -1.60936870e-01
C     5.524271089476256e+00   6.069692284862855e-01   3.387814200000000e+00 -6.25825930e-01  -6.86438250e-01   2.50906470e-01
C     1.283370856248442e+00   9.446944524441839e-02   3.515919900000000e+00 -1.89337781e+00  -1.00727780e-01  -1.05338627e+00
