76
Lattice="10.7446858958278 0 0 5.37234294791388 9.3051709414712 0 0 0 30 " PBC="1 1 1" Properties=species:S:1:pos:R:3:force:R:3 Energy="-600.29689655"
C     8.161948143816350e-02   5.661610291220780e-02   2.504970000000000e-02 -1.41333433e+00   1.15242536e+00  -3.36095140e-01
C     1.258987494631107e+01   8.420997226297866e+00   7.916310000000000e-02 -4.39669124e+00   2.02717606e+00   1.83140170e-01
C     1.393898479940777e+01   8.374982039379054e+00   1.796019000000000e-01  2.80528221e+00  -3.26873248e+00  -2.68360690e-01
C     1.464090982551947e+01   7.106366491014752e+00   5.368560000000000e-02 -4.46624717e+00  -2.51716491e+00  -9.95833720e-01
C     8.229543177706969e+00   9.055747880090907e+00  -2.481486000000004e-01  3.41367826e+00   1.19590933e+00   7.89307510e-01
C     9.670100515264268e+00   8.827779380611334e+00  -8.360430000000107e-02  1.60727100e-02   2.01945463e+00  -1.32325793e+00
C     1.028682963751256e+01   7.567086254785348e+00  -2.081031000000024e-01  1.51904340e+00  -2.51960982e+00   2.64138190e-01
C     1.173581897477675e+01   7.256602104857719e+00  -1.297499999999729e-02 -8.87237280e-01   1.52828133e+00  -1.37020490e-01
C     1.233083400011945e+01   5.911508938416617e+00  -1.294722000000021e-01 -2.04100260e+00   2.03587474e+00  -3.37974575e+00
C     1.372610990044152e+01   5.850479113772439e+00  -3.550056000000019e-01  8.43943780e-01   1.54390065e+00   1.75500140e+00
C     6.062549230711441e+00   8.155269925022834e+00  -5.695890000000148e-02  1.76345190e-01  -3.70366155e+00  -7.77996300e-02
C     7.433162746040383e+00   7.962777948062268e+00  -3.121344000000015e-01 -2.92534830e-01  -1.03187099e+00   1.02255494e+00
C     8.077429853569226e+00   6.701099776840572e+00  -3.804996000000003e-01 -1.90804409e+00  -3.27602660e+00  -1.16216133e+00
C     9.437024156273422e+00   6.417734989307317e+00  -4.870118999999988e-01  1.28322827e+00   2.37901364e+00   1.47583323e+00
C     9.977490828856148e+00   5.109675379638612e+00  -5.658806999999975e-01  1.42899704e+00  -2.60628230e-01  -1.07684051e+00
C     1.143662508365339e+01   4.920981959559172e+00  -7.325562000000012e-01  2.77726560e-01  -2.80884538e+00   9.86872180e-01
C     1.196445724125660e+01   3.511295460210710e+00  -1.107438000000002e+00  6.25398830e-01   2.38809283e+00   1.31745227e+00
C     5.251676527873224e+00   6.974571306630421e+00  -2.133480000000176e-02  2.80563690e-01   1.68344170e-01  -6.40615980e-01
C     5.782662895469233e+00   5.701184717970054e+00  -2.817161999999982e-01  2.10892544e+00  -1.86893318e+00  -3.51508300e-01
C     7.245943632002146e+00   5.510060228930829e+00  -4.474781999999990e-01 -3.13572154e+00   9.70871330e-01   1.85841611e+00
C     7.675783179728762e+00   4.175423841385261e+00  -2.854811999999995e-01  4.44828783e+00   1.55677995e+00  -7.25776670e-01
C     9.115126636396507e+00   4.014524687748474e+00  -5.306303999999997e-01 -2.13414400e-01  -3.85233409e+00   1.28882131e+00
C     9.713310484504834e+00   2.565859013435770e+00  -4.213899000000012e-01 -1.47375051e+00   2.55006168e+00   1.79283920e-01
C     1.104422931575568e+01   2.354682532382812e+00  -8.225847000000002e-01  1.64313790e+00   1.96980250e+00   1.38613571e+00
C     3.475268997393278e+00   4.591150219057966e+00  -7.343508000000014e-01  4.79246451e+00   5.69885960e-01   5.14011440e-01
C     5.022052758802625e+00   4.499993879926735e+00  -4.223001000000011e-01 -2.76955942e+00  -9.73712600e-01  -1.60488305e+00
C     5.596302281834407e+00   3.162790940132497e+00  -3.965075999999996e-01 -4.48654811e+00   8.13253700e-02   1.81217897e+00
C     6.914477593267277e+00   3.058671381261332e+00   2.022030000000000e-02 -7.15678100e-02  -2.41001640e+00  -1.77742290e+00
C     7.504766729687150e+00   1.739278259491126e+00   1.197870000000000e-01 -2.01755074e+00  -2.95453046e+00   1.95487630e-01
C     8.896302243677141e+00   1.470946813076824e+00   1.388067000000000e-01 -3.35152380e-01   2.98230834e+00  -2.24569952e+00
C     9.372980079902465e+00   1.688386046379240e-01   1.153425000000000e-01  2.92422883e+00   1.44985623e+00   7.65490330e-01
C     2.794403340751854e+00   3.434992314089035e+00  -1.194452999999999e+00 -4.79413453e+00   3.54618200e-01   2.36643368e+00
C     3.288934063557753e+00   2.165860793996110e+00  -8.193710999999979e-01 -3.76364417e+00  -1.49092146e+00   2.09102350e+00
C     4.517044355541341e+00   1.979027663690995e+00  -2.931086999999977e-01  5.99948545e+00   2.82626551e+00  -1.36592431e+00
C     5.081710908112631e+00   7.309293658874272e-01  -8.961929999999896e-02  3.66090550e+00  -3.28001418e+00   1.06897584e+00
C     6.619978055413632e+00   4.864475378508928e-01   2.330880000000000e-02 -1.19075463e+00   2.15968862e+00   7.29491340e-01
C     8.885602201947055e-01   1.151078584359623e+00  -3.122015999999981e-01  1.95849701e+00   1.57939599e+00  -1.33386253e+00
C     2.336811075196982e+00   1.062666060983470e+00  -3.028499999999994e-01 -4.27543200e-01   6.73004460e-01  -2.64096092e+00
C     1.595979245962514e+01   9.244147535923771e+00   4.077726600000000e+00  5.01390350e-01  -3.24074430e-01  -6.30257360e-01
C     1.172666493217739e+01   8.737850951837345e+00   3.736537500000000e+00  2.19463534e+00   3.38489451e+00   9.99439200e-02
C     1.320579966764947e+01   8.947803337653145e+00   3.767229600000000e+00 -1.75585539e+00   6.07798380e-01  -1.38668040e-01
C     1.397749912601632e+01   7.726158896418323e+00   3.727978200000000e+00  1.46338129e+00   3.99135200e+00   2.14123900e-01
C     7.386946789749000e+00   8.291652372577166e+00   3.693726600000000e+00  5.60921465e+00  -1.71963897e+00   3.51076960e-01
C     8.913729855589793e+00   8.468642027803401e+00   3.591483600000000e+00 -1.13771288e+00  -7.62949040e-01  -3.72212910e-01
C     9.813420119844302e+00   7.298918207172753e+00   3.554070300000000e+00 -2.17993905e+00   1.78913000e-01   7.40724230e-01
C     1.121843795825475e+01   7.449238125864436e+00   3.735939600000000e+00 -3.21111953e+00   1.54851438e+00  -9.49913390e-01
C     1.199206624891094e+01   6.355658612087517e+00   3.622488000000000e+00  3.19230346e+00  -3.77563292e+00   7.70308730e-01
C     1.340493297292449e+01   6.500389100698961e+00   3.525478800000000e+00  4.72697580e-01  -2.54624102e+00   8.57213000e-03
C     4.636282486571431e+00   7.925441228820645e+00   3.901979100000000e+00  2.15691247e+00  -1.02469270e+00  -8.41172370e-01
C     5.553311289292481e+00   6.747317165123912e+00   3.666010200000000e+00 -1.37002572e+00   1.79858109e+00  -8.52194890e-01
C     6.968359775501449e+00   6.910165659020921e+00   3.658412100000000e+00 -1.64618481e+00   2.73870308e+00  -1.45238783e+00
C     7.840666509335224e+00   5.879301508552251e+00   3.274959300000000e+00 -2.37779770e-01  -2.93102624e+00   2.27759528e+00
C     9.221939344034691e+00   5.955370257417948e+00   3.504391500000000e+00  1.76288388e+00   2.59483454e+00  -4.27941120e-01
C     1.008063234593945e+01   4.846424928764388e+00   3.715666500000000e+00  9.44333550e-01   4.52928400e-02   7.03990470e-01
C     1.152261942512603e+01   5.014449237893353e+00   3.809586600000000e+00 -2.15024826e+00  -1.51090360e-01  -1.81172535e+00
C     1.230943246612668e+01   3.805995434776236e+00   3.749248200000000e+00  1.53967944e+00   2.64005827e+00   1.75152120e+00
C     3.531983640000979e+00   5.346294617385975e+00   3.386569200000000e+00 -5.28207890e-01  -1.20580067e+00   1.39024169e+00
C     4.974830616400138e+00   5.523060204095975e+00   3.218912100000000e+00 -1.54339600e+00   4.25116400e-02   2.27691398e+00
C     5.811791362880126e+00   4.398185074155101e+00   3.239472000000000e+00  2.80427163e+00  -2.80729233e+00   1.05318425e+00
C     7.316485879511705e+00   4.530665770482582e+00   3.366000000000000e+00 -1.73240384e+00   2.38949170e-01  -1.23668383e+00
C     8.189160887454703e+00   3.373316896685039e+00   3.579660000000000e+00 -2.87415020e+00   2.36472394e+00   1.20934147e+00
C     9.533617485705255e+00   3.561637086358076e+00   3.928280400000000e+00  2.85693880e-01  -4.74561960e-01  -1.15431181e+00
C     1.034969126120023e+01   2.417506673139350e+00   4.163400300000000e+00  1.14265538e+00   6.60282350e-01  -1.28690509e+00
C     1.177183016563460e+01   2.557935102070104e+00   4.000007400000000e+00 -1.78992824e+00  -5.40902930e-01   1.28106957e+00
C     2.991280691775311e+00   3.972835102592829e+00   3.777810000000001e+00  7.14262200e-02   4.34734966e+00  -2.92562438e+00
C     3.867064782030333e+00   2.919760718762602e+00   3.736951200000000e+00  1.41252006e+00  -1.45954370e+00  -4.20360960e-01
C     5.302318220286815e+00   3.042450514227015e+00   3.487179000000000e+00 -6.91104850e-01   1.94902403e+00  -5.95885740e-01
C     6.186040806825334e+00   1.923812268160385e+00   3.537994500000000e+00 -3.17161465e+00  -4.54973100e-01   1.51301896e+00
C     7.539175619260169e+00   2.142705434422176e+00   3.778158000000000e+00  1.65608997e+00  -1.41542455e+00  -1.95148363e+00
C     8.420312121072847e+00   1.032674750630175e+00   3.793006500000000e+00 -1.52608433e+00  -3.77501512e+00   1.56106105e+00
C     9.802898708517304e+00   1.132449539086034e+00   4.062753900000001e+00 -8.85767000e-01  -7.73295770e-01   1.13533300e-02
C     1.848602042063777e+00   1.427820602579753e+00   4.086482400000000e+00  1.88415231e+00  -1.31842770e-01  -1.91015664e+00
C     3.270273176597499e+00   1.652454407949558e+00   3.816860700000000e+00 -7.23790890e-01  -2.42140001e+00  -5.43248000e-02
C     4.088289752473479e+00   4.917927071939570e-01   3.554682300000000e+00  1.54505680e-01  -4.89757200e-01   1.94293829e+00
C     5.503693350551441e+00   6.229878011043674e-01   3.704006400000000e+00  2.05305727e+00  -3.54627950e-01  -1.56100282e+00
C     1.285189233166729e+00   1.135222480026154e-01   3.969101100000000e+00 -2.14706265e+00   4.13112290e-01   8.31798550e-01
