64
Lattice="9.86 0 0 4.93 8.53901048131456 0 0 0 30 " PBC="1 1 1" Properties=species:S:1:pos:R:3:force:R:3 Energy="-516.43957754"
C     9.843685150999999e+00   2.311834619334240e-01   7.591170000000000e-02  2.91800170e-01  -1.16182100e-01  -7.60761200e-02
C     1.220491210200000e+00   9.496882519604480e-01   5.273130000000000e-02  4.16428000e-02  -2.91519610e-01  -3.60634260e-01
C     1.265850611900000e+00   4.627200119501960e-01   3.422755200000000e+00 -4.18609020e-01   1.15805776e+00  -2.77555830e-01
C     2.489244310300000e+00   1.198425101567294e+00   3.404904000000000e+00 -1.21768520e-01   9.63994180e-01   1.23701320e-01
C     2.452741012700000e+00   2.195851801687544e-01   4.390620000000000e-02 -7.37661420e-01  -2.82802280e-01   1.92040220e-01
C     3.656451834000000e+00   9.198551694860528e-01  -1.401900000001177e-03  1.50943560e+00   4.69874840e-01   3.75034360e-01
C     3.729632310300000e+00   4.836257297479608e-01   3.378807000000000e+00 -8.49310700e-01   1.31559357e+00  -4.95241400e-02
C     4.954904338700000e+00   1.207680364246356e+00   3.335175300000000e+00 -4.36672140e-01  -3.74297850e-01   1.32823830e-01
C     4.911232426700000e+00   2.099219235689576e-01   5.951699999999999e-02 -7.86877250e-01   7.20997570e-01  -1.63819540e-01
C     6.121123545300000e+00   9.275147472767176e-01   8.065620000000000e-02  1.32172121e+00   2.32877800e-01  -3.97774770e-01
C     6.157711836100000e+00   4.919297466595512e-01   3.320127000000000e+00  1.57085451e+00  -8.24773860e-01   1.62701920e-01
C     7.426854603400001e+00   1.173428600018875e+00   3.337250400000000e+00 -2.44526591e+00   2.25210586e+00   3.48529590e-01
C     7.377907246299999e+00   2.040479382597656e-01   4.275930000000000e-02 -7.98390480e-01   2.07252790e-01   4.91603880e-01
C     8.597273775600000e+00   9.161755390900113e-01   7.787669999999999e-02  7.61183390e-01   6.16854220e-01  -1.77752960e-01
C     8.626052946400000e+00   5.347669735840432e-01   3.388109400000000e+00  1.31206478e+00  -2.82040786e+00  -1.47185140e-01
C     9.871695833399999e+00   1.174806796310347e+00   3.403103700000000e+00  7.69828560e-01   1.56583199e+00   1.22756880e-01
C     1.109892936090000e+01   2.371368173450276e+00  -3.817799999999849e-02 -7.31428460e-01  -2.73016000e-02   3.05537040e-01
C     2.464662097800000e+00   3.086165922857618e+00  -5.396400000000057e-02 -3.97482500e-02  -1.15706027e+00  -1.85747330e-01
C     2.469225207200000e+00   2.669051485029529e+00   3.400661100000000e+00  5.89535400e-02  -2.74947382e+00   4.11579200e-02
C     3.715623715300000e+00   3.331648726350745e+00   3.388450500000000e+00  3.32129000e-03   3.32735220e-01  -2.30063910e-01
C     3.694919194300000e+00   2.349562614728129e+00  -1.663740000000047e-02 -1.37040754e+00  -4.36008700e-01  -1.40314090e-01
C     4.894586824000000e+00   3.040944518817005e+00   2.509140000000000e-02  1.49657079e+00   1.99609042e+00  -4.42673700e-02
C     4.949322247600000e+00   2.611829526440534e+00   3.343208400000000e+00  1.13020640e-01   9.47836060e-01   1.76931560e-01
C     6.187271770999999e+00   3.337222223881146e+00   3.334922100000000e+00 -3.73826830e-01  -2.77441630e-01   1.02805020e-01
C     6.136861584300000e+00   2.364347057473201e+00   7.283880000000000e-02  6.55410380e-01  -7.00023680e-01   2.99690500e-02
C     7.400301031800000e+00   3.076020724506330e+00   9.331650000000000e-02 -9.54421560e-01  -6.78886630e-01  -1.39835570e-01
C     7.422804608399999e+00   2.608627397510534e+00   3.373750500000000e+00 -9.88546300e-01   2.17109910e-01  -4.80290070e-01
C     8.622592086399999e+00   3.334778700642189e+00   3.349963500000000e+00  1.01920078e+00   1.18881030e-01   1.58313180e-01
C     8.640298822299998e+00   2.348463131738724e+00   7.779390000000000e-02 -1.05417371e+00   3.90312050e-01  -2.86327410e-01
C     9.849474647199997e+00   3.084630779553523e+00  -1.091369999999969e-02  6.73058880e-01  -3.42641690e-01   1.69662770e-01
C     9.862516518500000e+00   2.617046605673500e+00   3.381023700000000e+00 -3.29087850e-01  -6.89765490e-01   5.91773700e-02
C     1.107493677640000e+01   3.327523786558171e+00   3.386854500000000e+00  9.28085970e-01   2.75425440e-01  -8.71000400e-02
C     1.230706594180000e+01   4.479517420909731e+00  -7.958160000000092e-02  4.26242500e-01   1.27513102e+00   5.70608100e-01
C     3.691084640299999e+00   5.199277189307001e+00  -1.008959999999703e-02 -8.94570090e-01   7.15773000e-02   7.97796000e-03
C     3.698179206099999e+00   4.748705712956806e+00   3.361620300000000e+00  1.30401276e+00   5.04029030e-01  -2.39171280e-01
C     4.943722605700000e+00   5.493496992845461e+00   3.342018300000000e+00 -5.83880650e-01  -3.74499320e-01   1.34691550e-01
C     4.907334177099999e+00   4.510437604808335e+00   2.286510000000000e-02 -2.36454920e-01  -1.67228493e+00   2.20814610e-01
C     6.110209215499999e+00   5.218398253914446e+00   1.191003000000000e-01  2.06494065e+00  -3.68616980e-01  -4.45085510e-01
C     6.170445582399999e+00   4.761778681831371e+00   3.321749400000000e+00  8.67202850e-01   7.00850360e-01   2.21691790e-01
C     7.443237930100000e+00   5.493280272759479e+00   3.328140300000000e+00 -1.79864694e+00  -1.59376044e+00   1.65801620e-01
C     7.362290189499999e+00   4.487528122811334e+00   9.779130000000000e-02  7.08515730e-01   5.59574570e-01   1.13097240e-01
C     8.627665993099999e+00   5.195927677056116e+00   8.652599999999999e-02 -1.47455431e+00   7.68665340e-01  -1.16037680e-01
C     8.642065339899998e+00   4.770094055626900e+00   3.319393200000000e+00  6.10186440e-01  -6.32876010e-01   1.54880100e-02
C     9.883802039999999e+00   5.471025818256399e+00   3.292326600000000e+00 -5.34603770e-01  -1.68348720e-01   3.10155980e-01
C     9.855568225799999e+00   4.522044084023066e+00  -1.307400000001735e-03 -4.97856240e-01  -1.68518674e+00   2.01269550e-01
C     1.107832580630000e+01   5.200146119013445e+00  -2.477700000000027e-03  3.10407240e-01   6.58733400e-01  -4.47174280e-01
C     1.110034441880000e+01   4.734867307182813e+00   3.337769100000000e+00 -4.02503630e-01   8.85503820e-01  -3.02775450e-01
C     1.233056907590000e+01   5.437840234877450e+00   3.298834500000000e+00  2.33336980e-01   7.40638930e-01   6.46621100e-01
C     1.354729490000000e+01   6.609039043089683e+00   6.646050000000001e-02  7.19658640e-01   9.56240910e-01  -4.79468660e-01
C     4.950770533700000e+00   7.352282114988210e+00   6.883439999999999e-02 -1.15371869e+00  -6.24152550e-01   2.74613970e-01
C     4.936093282800000e+00   6.935057609315034e+00   3.369485700000000e+00 -4.43650500e-02  -1.10999302e+00  -1.52467680e-01
C     6.187163064500000e+00   7.597242587210276e+00   3.373728900000000e+00  6.04277700e-02  -1.90903350e-01   4.36266810e-01
C     6.187193334700000e+00   6.642043941006874e+00   1.079625000000000e-01 -1.71607200e+00  -6.13400520e-01   5.17677000e-03
C     7.406785953800000e+00   7.324092706641110e+00   1.215375000000000e-01 -6.77175740e-01   1.23348558e+00  -3.07383280e-01
C     7.422673223900000e+00   6.877805849579465e+00   3.385764900000000e+00 -3.92286250e-01   1.68225072e+00  -3.51561190e-01
C     8.628883160799999e+00   7.632267473446616e+00   3.363564900000000e+00  8.49880720e-01  -1.80416734e+00  -8.48783700e-02
C     8.605295033499999e+00   6.628177783448821e+00   1.104051000000000e-01  1.45532948e+00  -6.93155320e-01  -1.86034810e-01
C     9.846940676500001e+00   7.344661731255648e+00   7.121580000000001e-02 -6.96240150e-01  -6.28434260e-01  -8.35069900e-02
C     9.861633259700000e+00   6.892451106453713e+00   3.297816000000000e+00  1.72275560e-01   2.91265740e-01   3.43893230e-01
C     1.109195883390000e+01   7.597658778581071e+00   3.330725400000000e+00  6.27797580e-01  -9.69632400e-02  -2.56870630e-01
C     1.105422264190000e+01   6.630097865345354e+00   2.282940000000000e-02  1.30719637e+00  -5.97097180e-01   2.01860650e-01
C     1.230740118180000e+01   7.315112400099505e+00   4.585440000000000e-02  2.72481600e-02   5.45973530e-01  -1.30391100e-01
C     1.234930820310000e+01   6.867081364757214e+00   3.332077200000000e+00 -8.32685250e-01   1.23820764e+00  -1.00349760e-01
C     1.355729269350000e+01   7.643615732984431e+00   3.366689400000000e+00  1.37829880e-01  -1.24384967e+00   4.74684400e-02
