64
Lattice="9.86 0 0 4.93 8.53901048131456 0 0 0 30 " PBC="1 1 1" Properties=species:S:1:pos:R:3:force:R:3 Energy="-514.58772942"
C     4.971982006599999e+00   8.208946984510272e+00   3.749700000000000e-03 -5.88062240e-01  -3.05346466e+00   1.37353680e-01
C     1.266312750100000e+00   3.411214286712232e-01   6.326220000000000e-02 -1.81060710e-01   5.23879000e-01  -1.39662159e+00
C     9.833595117200000e+00   3.794555230289824e-01   3.277425900000000e+00  2.38281090e-01  -1.47257590e-01   4.81015970e-01
C     1.225396806700000e+00   1.057950181721233e+00   3.340731000000000e+00 -1.17845215e+00   1.46729779e+00   3.17754070e-01
C     7.406259380500000e+00   8.146493942711123e+00  -5.668470000000170e-02  1.38566750e+00   1.84865530e+00   5.12384510e-01
C     3.782814685300000e+00   3.417259906132072e-01  -4.589099999999746e-02 -3.27497389e+00  -1.49653061e+00   6.79552840e-01
C     2.461543133300000e+00   3.964449944503048e-01   3.286760700000000e+00 -1.18795103e+00  -7.31118530e-01  -3.00312980e-01
C     3.624200957200000e+00   1.170915569234611e+00   3.283415700000000e+00  2.04269913e+00  -2.28263597e+00   4.08889810e-01
C     9.872385688300000e+00   8.152354094823339e+00   3.110910000000000e-02  2.88460782e+00   3.07531630e-01  -4.83208870e-01
C     6.240601405100000e+00   2.992606375951192e-01   6.465000000000000e-03 -2.34779239e+00   1.51835375e+00  -2.04535800e-01
C     4.854046152200000e+00   4.145563210684896e-01   3.294023700000000e+00  1.15438129e+00  -6.93558780e-01   2.49427910e-01
C     6.100713739700000e+00   1.090409180698438e+00   3.325387500000000e+00  1.19633706e+00  -3.07567840e-01   2.86465480e-01
C     1.237684826770000e+01   8.129769949125626e+00  -3.423269999999690e-02 -1.90606890e-01   1.19790950e-01   8.70998510e-01
C     8.658644831299998e+00   3.377787476287224e-01   2.086830000000000e-02  3.04483260e-01  -1.30786063e+00  -2.36565670e-01
C     7.386685012699998e+00   3.649536361406936e-01   3.357405900000000e+00 -2.13436169e+00   2.00332092e+00   4.89197330e-01
C     8.600628985700000e+00   1.104491204441425e+00   3.396043800000000e+00  1.10496730e-01  -1.25470074e+00  -8.63937500e-01
C     1.237268739700000e+00   1.775573062745883e+00   1.461480000000000e-02  2.02536330e+00  -9.85076700e-01   1.51241574e+00
C     2.526875937000000e+00   2.414950685209463e+00   1.774038000000000e-01 -2.07930153e+00   1.77359602e+00  -9.74400300e-01
C     1.104403928320000e+01   2.497137124057576e+00   3.514217700000000e+00  1.43200237e+00   1.76141260e-01  -3.86508800e-01
C     2.422400461600000e+00   3.258818395895462e+00   3.580786500000000e+00  8.57000000e-05  -5.36102010e-01  -5.76663860e-01
C     3.758806669900000e+00   1.718462282073337e+00   1.107201000000000e-01 -5.81975410e-01   1.73416543e+00  -3.19517790e-01
C     4.946735772400000e+00   2.494214733110901e+00   8.985420000000000e-02  1.66307552e+00  -2.60567066e+00  -3.98897190e-01
C     3.681619237500000e+00   2.561019766991286e+00   3.393759600000000e+00 -2.35845470e+00   2.59918170e-01   2.47578950e-01
C     4.888157512399999e+00   3.224987519494541e+00   3.300146100000000e+00  1.47864630e+00   1.20726816e+00   7.62696810e-01
C     6.186251655400000e+00   1.762535786935123e+00  -1.440960000000047e-02  1.01101436e+00  -1.17294603e+00   2.68732310e-01
C     7.459211968199999e+00   2.430946813541646e+00  -3.840209999999900e-02 -2.55035125e+00   1.18603242e+00  -1.86175400e-02
C     6.117679891000000e+00   2.491754473411403e+00   3.350391900000000e+00  8.80050630e-01   1.94342235e+00  -1.08826317e+00
C     7.392907017800000e+00   3.251840828871835e+00   3.280221900000000e+00 -2.31198559e+00  -1.33910962e+00   6.37683970e-01
C     8.638372227600000e+00   1.718695994790174e+00   4.906530000000000e-02  1.81610466e+00   1.98554935e+00  -5.32580020e-01
C     9.891432792600000e+00   2.488820640190684e+00   6.392249999999999e-02 -3.63711490e-01  -1.66409915e+00   6.52300500e-02
C     8.581696503900000e+00   2.506677504296566e+00   3.361663500000000e+00  8.67357330e-01   1.09307002e+00   1.18900660e-01
C     9.826284568100000e+00   3.215324177504639e+00   3.442044300000000e+00 -7.04235400e-02  -8.97720320e-01   4.13193740e-01
C     2.473550246900000e+00   3.871487189039069e+00   1.909641000000000e-01  1.60658802e+00  -3.45581960e-01   2.15290420e-01
C     3.753404622400000e+00   4.557561585773996e+00   1.033794000000000e-01 -1.37257260e+00   8.12916370e-01   7.37333640e-01
C     1.228184761140000e+01   4.688603460742802e+00   3.627456600000000e+00  9.46620700e-01  -1.22864185e+00  -3.49707560e-01
C     3.695640058900000e+00   5.373608773365633e+00   3.520872900000000e+00 -1.90728649e+00   1.21932588e+00  -5.73167150e-01
C     4.980069129300000e+00   3.868958958816151e+00   6.751410000000001e-02  6.36782960e-01   1.60225278e+00  -4.64562220e-01
C     6.244190346500000e+00   4.607557919084921e+00  -6.567030000000074e-02 -2.07529408e+00  -1.92955502e+00  -1.18380990e-01
C     4.904494891500000e+00   4.681081702581284e+00   3.319085700000000e+00 -1.91556963e+00  -2.27653800e+00   5.21978750e-01
C     6.078234714500000e+00   5.348984145723619e+00   3.219478800000000e+00  3.38339244e+00   1.85587283e+00   1.97249610e-01
C     7.445950021700000e+00   3.873772740584146e+00  -1.104971999999975e-01  1.43623970e-01  -8.07218340e-01   5.86654540e-01
C     8.649332505000000e+00   4.565525408508064e+00  -2.212890000000201e-02  1.65206680e+00   1.86115884e+00   2.96372270e-01
C     7.346177224000000e+00   4.668827283251331e+00   3.243165000000000e+00  3.64360860e-01  -5.47620790e-01  -1.65909000e-01
C     8.589263807399998e+00   5.354737474814728e+00   3.274675500000000e+00  8.29862750e-01   3.90917540e-01   5.26745890e-01
C     9.925950631299999e+00   3.880365710575754e+00   1.412727000000000e-01 -2.46425277e+00   1.07082240e+00  -5.61473400e-01
C     1.110471417360000e+01   4.625479850450660e+00   2.364363000000000e-01  1.46127834e+00  -9.61633690e-01  -7.99347670e-01
C     9.847022268000000e+00   4.613887460603221e+00   3.480201600000000e+00 -1.95407705e+00   1.43853200e+00  -8.37352620e-01
C     1.104036199620000e+01   5.346090872802680e+00   3.544470600000000e+00  7.77420920e-01   1.50763788e+00   3.98438380e-01
C     3.740137400800000e+00   5.982237419090733e+00   1.326585000000000e-01 -8.70102160e-01   9.50023110e-01  -1.10313681e+00
C     4.941808829000000e+00   6.722191178762260e+00  -3.880290000000031e-02  4.94120800e-01   6.26220140e-01   4.60203870e-01
C     1.350287678320000e+01   6.815070678874058e+00   3.411906300000000e+00  8.71342820e-01  -1.08951358e+00   1.15406510e-01
C     4.899743110999999e+00   7.484657698003886e+00   3.221366700000000e+00 -6.86813460e-01   9.33808610e-01   9.77268550e-01
C     6.182624654400000e+00   5.991622816289511e+00  -1.178414999999973e-01 -4.37412970e-01   1.99464495e+00   5.70460990e-01
C     7.375978778199999e+00   6.757216150388704e+00  -6.450300000000198e-02  2.01836335e+00  -1.75475969e+00  -5.44958350e-01
C     6.134658860300000e+00   6.780889446873141e+00   3.234439200000000e+00  5.74573700e-02   9.48893900e-02  -6.16406650e-01
C     7.393258231000000e+00   7.495123963149222e+00   3.194934000000000e+00 -6.25781590e-01   3.87692610e-01   3.97634990e-01
C     8.642520033799999e+00   6.023248066283448e+00  -2.087189999999950e-02 -2.47878090e-01  -1.12586750e-01   7.89033600e-02
C     9.878535222400000e+00   6.760419987120800e+00   6.274770000000000e-02 -5.32449900e-01  -1.76555401e+00  -2.73647530e-01
C     8.617119441300000e+00   6.796251126726661e+00   3.229904700000000e+00  4.82410290e-01  -1.05851311e+00   5.65688280e-01
C     9.869294282500000e+00   7.496910238751534e+00   3.362151600000000e+00 -2.94964237e+00   1.36636184e+00  -5.79619840e-01
C     1.112557236270000e+01   6.047058499276194e+00   1.266579000000000e-01 -1.66315793e+00  -7.91555810e-01   4.02078570e-01
C     1.232882809570000e+01   6.710804322897075e+00   1.039179000000000e-01  2.64596054e+00   2.99416500e-01  -3.12729060e-01
C     1.105286684260000e+01   6.795602418100496e+00   3.491772900000000e+00  1.47303500e-02  -8.01583010e-01  -3.48118700e-02
C     1.225157341810000e+01   7.528765017347173e+00   3.473044200000000e+00  2.20600244e+00  -1.62650600e+00  -3.86001570e-01
