64
Lattice="9.86 0 0 4.93 8.53901048131456 0 0 0 30 " PBC="1 1 1" Properties=species:S:1:pos:R:3:force:R:3 Energy="-504.61422791"
C     5.063375184700000e+00   8.299800604385689e+00  -2.486291999999999e-01 -4.31095804e+00  -1.60826755e+00   1.02521266e+00
C     1.318178174200000e+00   4.617516027716592e-01  -2.260106999999998e-01  1.05085243e+00  -4.80088100e-02   6.36919700e-01
C     1.181488944900000e+00   1.011312155841988e+00   3.357581700000000e+00 -8.91359500e-02   3.35747507e+00   1.33656990e+00
C     2.367831869200000e+00   1.766543998454435e+00   3.735010200000000e+00  1.17291376e+00  -4.64154023e+00  -2.49143712e+00
C     7.452104633699999e+00   8.266711084874643e+00  -2.271606000000013e-01  1.96659655e+00  -2.51447370e+00  -9.49254830e-01
C     3.755740604300000e+00   3.916201119686856e-01  -1.712477999999997e-01 -9.32519290e-01   2.77043566e+00   3.25974290e-01
C     3.625312228499999e+00   1.018132946633203e+00   3.346126500000000e+00  2.20893740e-01   1.29439401e+00  -2.41580380e-01
C     4.941177936900000e+00   1.645237022383354e+00   3.199796400000000e+00 -2.94660176e+00   1.15630399e+00   1.88516284e+00
C     9.891779913899999e+00   8.258585362501874e+00  -1.975811999999983e-01  9.90989110e-01  -1.79569273e+00   1.89773027e+00
C     6.137221622200000e+00   4.772965297900800e-01  -8.769029999999844e-02  2.10940700e+00  -2.59144780e+00  -3.79967560e-01
C     6.146476070299999e+00   8.940681263473961e-01   3.055098300000000e+00 -7.43003630e-01   5.24649623e+00  -3.20256230e-01
C     7.318544228900000e+00   1.747777046611596e+00   3.118593300000000e+00  1.16856835e+00  -2.78495265e+00   5.89584260e-01
C     1.232395750220000e+01   8.197755586594974e+00   8.335200000000001e-03  2.28417071e+00   3.10589937e+00  -1.32894375e+00
C     8.656087738899998e+00   3.917159196662712e-01  -2.993945999999994e-01  8.09379810e-01   1.42215059e+00   1.04419099e+00
C     8.529315697600000e+00   1.007017118960653e+00   3.317209200000000e+00  1.70791605e+00   4.87474850e-01  -1.42873917e+00
C     9.829110493400000e+00   1.753755293238749e+00   3.405069300000000e+00 -2.54959686e+00  -1.77908389e+00   1.10254430e+00
C     1.350903810000000e+00   1.834845664701650e+00   1.389216000000000e-01 -1.22822529e+00  -4.77467000e-02  -7.03278960e-01
C     2.543459125900000e+00   2.538194991978246e+00   3.665115000000000e-01  6.17853880e-01  -3.26280560e-01   4.00998520e-01
C     2.328926774200000e+00   3.083131329313235e+00   4.094323200000000e+00  4.64562960e-01   2.63710066e+00  -5.76103390e-01
C     3.602560722200000e+00   3.710738865121288e+00   3.912597300000000e+00  3.07712261e+00   3.56764247e+00  -2.31333510e-01
C     3.750779052300000e+00   1.817979496591658e+00   8.108219999999999e-02  1.11300587e+00   1.48972679e+00   8.08911590e-01
C     5.002866336700000e+00   2.610721248270335e+00   1.399920000000000e-01 -3.06740741e+00  -1.10426234e+00  -3.41886560e-01
C     4.848315914600001e+00   3.077742872139936e+00   3.497296500000000e+00  1.25479251e+00  -8.71720100e-02  -7.12002270e-01
C     6.111576896099999e+00   3.886591332336513e+00   3.211115700000000e+00 -1.88737497e+00  -4.82685199e+00   5.43153140e-01
C     6.144429873800000e+00   1.886355537620154e+00  -1.306964999999991e-01  3.14824756e+00   7.48898710e-01  -2.78362110e-01
C     7.412956933399999e+00   2.610963499997653e+00  -2.489526000000026e-01  2.18478197e+00  -1.69006657e+00  -3.21602290e-01
C     7.361809169400000e+00   3.163384194628258e+00   3.090274800000000e+00 -2.93690183e+00  -1.71719500e+00   7.45570810e-01
C     8.532823146100000e+00   3.803873596256333e+00   3.322014000000000e+00  3.06878380e+00   1.60651116e+00   7.96755300e-02
C     8.703343711600001e+00   1.887952503360123e+00  -3.618458999999987e-01 -1.02785935e+00  -2.02972286e+00   2.36796272e+00
C     9.964523345700000e+00   2.511821404209718e+00   1.210914000000000e-01 -2.35970398e+00  -4.11772130e-01  -2.04011663e+00
C     9.770075814000000e+00   3.145392328766688e+00   3.693366600000000e+00 -1.81099720e-01  -1.29320030e-01  -6.49854100e-01
C     1.094362124710000e+01   3.869887832376166e+00   4.079360100000000e+00 -9.12159700e-02   8.04142550e-01  -2.12240020e+00
C     2.495216660200000e+00   3.927471759619408e+00   7.810389000000000e-01  4.53639170e-01   1.33509081e+00  -1.96211007e+00
C     3.716067661800000e+00   4.735039112073671e+00   6.755766000000000e-01  3.11012439e+00  -1.37783331e+00  -2.64459842e+00
C     3.771849527200000e+00   5.277642335575210e+00   3.903638400000000e+00 -4.98306055e+00  -2.03129560e+00  -7.95487100e-01
C     4.850962732999999e+00   5.929469579148315e+00   3.328863300000000e+00  1.56777398e+00   2.48627069e+00  -4.34964600e-02
C     4.962391529700000e+00   4.025383554777385e+00   2.851887000000000e-01  7.58760490e-01   1.12336840e-01  -3.71986000e-01
C     6.216448743499999e+00   4.711028866235692e+00  -1.412861999999997e-01 -1.50336508e+00   4.99134500e-02   3.88226480e-01
C     6.063325852199999e+00   5.200855113053600e+00   3.124299300000000e+00  2.61041006e+00   4.72777785e+00  -7.96728240e-01
C     7.433154305299999e+00   5.916227367086035e+00   2.875685100000000e+00 -5.70330563e+00   2.55557764e+00   1.78191120e-01
C     7.508266010500000e+00   4.014772638794518e+00  -2.470889999999990e-01 -3.86073728e+00   3.01656180e-01   7.23406850e-01
C     8.666035542199999e+00   4.739885000521070e+00  -2.701619999999849e-02  3.48448035e+00  -5.82957263e+00   1.57941400e-02
C     8.588767011300000e+00   5.210943526985196e+00   3.082826700000000e+00  5.51008120e-01   8.36303030e-01   1.39417753e+00
C     9.744709485000000e+00   6.007903293670679e+00   3.340851300000000e+00  1.75212619e+00   1.02628860e-01   2.30832910e-01
C     9.896722238900001e+00   3.889051762816220e+00   2.377623000000000e-01  5.42965600e-01   3.95794027e+00   7.92825560e-01
C     1.111892475070000e+01   4.633971127862076e+00   5.979018000000000e-01 -6.55871430e-01   1.49188724e+00  -7.90060120e-01
C     1.093998670320000e+01   5.338599086567948e+00   3.772398900000000e+00  2.54687540e+00  -1.71818045e+00   1.56171504e+00
C     1.227811929890000e+01   5.997000428919500e+00   3.884393400000000e+00 -5.34156940e-01   1.05041241e+00  -2.15619598e+00
C     3.868402788400000e+00   6.118284520442494e+00   2.927694000000000e-01 -3.03843711e+00   7.43560380e-01   2.01113542e+00
C     5.058898793999999e+00   6.861911079301678e+00   6.190110000000000e-02 -7.47096660e-01   5.39382960e-01  -2.51579539e+00
C     4.829093055800000e+00   7.448261361294353e+00   3.101509800000000e+00  1.61644083e+00  -2.37309758e+00   1.09837559e+00
C     6.061839112099999e+00   8.243936006902596e+00   3.003062700000000e+00  1.03021248e+00  -6.14847470e+00  -6.79726350e-01
C     6.145481689300000e+00   6.111974106307669e+00  -3.358859999999986e-01  6.20439823e+00  -1.97797550e-01   1.75258862e+00
C     7.627868352800000e+00   6.819939281089335e+00  -3.623468999999986e-01 -5.59590316e+00   4.72940260e-01   4.08984450e-01
C     7.314943356900000e+00   7.415767266984076e+00   2.790882600000000e+00  7.44041270e-01   4.06333730e-01   1.96373553e+00
C     8.542515821900000e+00   8.187085495269480e+00   2.982189300000000e+00 -5.76039920e-01  -1.92375148e+00   9.48336540e-01
C     8.820401730200000e+00   6.061670027059047e+00  -1.037558999999995e-01 -4.15694302e+00   3.27038688e+00  -7.88431470e-01
C     9.938767053699999e+00   6.792163160849467e+00   9.763050000000000e-02  3.23327753e+00   3.06362757e+00  -7.49647940e-01
C     9.798388064499999e+00   7.453269576330978e+00   3.197156700000000e+00 -2.44586668e+00  -1.80827746e+00  -1.52443795e+00
C     1.102417665830000e+01   8.078265711954037e+00   3.073658400000000e+00  1.87111409e+00  -1.51164071e+00   2.25654639e+00
C     1.115683354200000e+01   6.168627452188801e+00   4.119093000000000e-01  1.63946183e+00  -3.26255270e+00   4.16224150e-01
C     1.248291470340000e+01   6.832013441908055e+00   3.333336000000000e-01 -3.24672756e+00   1.31419680e-01  -7.04913860e-01
C     1.225291496970000e+01   7.407109393478194e+00   3.405920400000000e+00 -6.32615480e-01  -3.47079882e+00   8.03985190e-01
C     1.347493758580000e+01   8.049502652882891e+00   3.283474200000000e+00 -1.09921190e-01   4.34048594e+00  -5.85506200e-02
