64
Lattice="9.86 0 0 4.93 8.53901048131456 0 0 0 30 " PBC="1 1 1" Properties=species:S:1:pos:R:3:force:R:3 Energy="-515.04236314"
C     9.839610012999998e+00   4.503436555505888e-01   1.968462000000000e-01  1.56316363e+00   4.16417820e-01  -9.51686400e-01
C     1.199595996800000e+00   1.201428015382795e+00   6.772950000000000e-02  8.86560750e-01  -1.03281390e+00   7.66847780e-01
C     1.226897202900000e+00   2.115168399464120e-01   3.553377600000000e+00  2.67202580e-01   2.24737554e+00  -7.76538220e-01
C     2.463006357300000e+00   9.693704149465336e-01   3.457958100000000e+00  6.04126180e-01  -7.57713960e-01   4.67040900e-02
C     2.447567125600000e+00   4.713380082771360e-01   1.433541000000000e-01  1.09996995e+00   4.16201880e-01  -9.55315900e-01
C     3.738910816800000e+00   1.151079960230200e+00  -2.238899999998267e-03 -1.69048198e+00   1.17581121e+00   8.43290050e-01
C     3.728921157800000e+00   2.587786405412208e-01   3.480689700000000e+00 -1.89366345e+00  -1.07323578e+00  -6.89582660e-01
C     4.917503238799999e+00   9.567363512106400e-01   3.368843700000000e+00  9.04089720e-01   2.26872981e+00   1.78809630e-01
C     4.981617938099999e+00   4.812788681076376e-01   4.989660000000000e-02 -1.53090021e+00  -1.78029717e+00  -9.34677100e-02
C     6.207800241700000e+00   1.198151340891305e+00   1.143477000000000e-01 -1.27310925e+00  -6.65045230e-01  -8.43196810e-01
C     6.158124033399999e+00   2.591507706179392e-01   3.363128400000000e+00 -3.84996540e-01  -2.65211300e-02  -2.65897200e-02
C     7.391399423799999e+00   9.312772914645201e-01   3.408870000000000e+00 -2.26331500e-02   1.43807324e+00   5.05314770e-01
C     7.406837768099999e+00   4.623401967640456e-01   9.698400000000000e-02  1.09082997e+00   4.60425700e-02   4.41880680e-01
C     8.662465926399999e+00   1.171852469464477e+00   1.618353000000000e-01 -2.07993657e+00   5.30523960e-01  -4.98981400e-02
C     8.602414976799999e+00   2.335817284168368e-01   3.501859500000000e+00  1.41963960e+00   8.99117830e-01  -6.28194490e-01
C     9.855221942600000e+00   9.407043590344399e-01   3.497058300000000e+00 -5.35285340e-01   1.23510089e+00  -3.54703760e-01
C     1.106296338400000e+01   2.621158395389934e+00  -5.125260000000154e-02  7.49998800e-02  -1.20573607e+00  -2.84528130e-01
C     2.442232816300000e+00   3.272495585151593e+00  -1.526516999999998e-01  1.21800199e+00   1.63669735e+00   5.62378290e-01
C     2.486526154800000e+00   2.386231772822498e+00   3.274095900000000e+00 -1.19961188e+00  -1.06253015e+00   4.01782680e-01
C     3.691390694700000e+00   3.109718306953658e+00   3.237772800000000e+00  2.94380410e-01   5.43481620e-01   5.11623830e-01
C     3.669538864100000e+00   2.580406053264239e+00  -3.569639999999907e-02  2.15437299e+00   1.80725540e-01  -5.15358830e-01
C     4.971749852899999e+00   3.335804833531570e+00  -5.621699999998953e-03 -2.90873688e+00  -2.33052246e+00  -1.30812810e-01
C     4.907032017400000e+00   2.446122513746912e+00   3.327028500000000e+00  1.65045300e+00  -3.07998024e+00   1.87539620e-01
C     6.187496529700001e+00   3.082280758479322e+00   3.386104500000000e+00 -1.10730487e+00   1.22964208e+00  -5.75860460e-01
C     6.164086671200000e+00   2.619760900934777e+00   5.304180000000000e-02  8.98155810e-01  -9.72887460e-01   6.79033440e-01
C     7.389601797899999e+00   3.301685680136844e+00   1.288500000000000e-01  5.31818490e-01   7.36168450e-01   3.40882500e-02
C     7.414058048900000e+00   2.366033341262791e+00   3.438493200000000e+00 -1.19660647e+00   5.28513000e-02  -3.18542350e-01
C     8.588473922800000e+00   3.131399793853531e+00   3.362753100000000e+00  1.77980110e+00  -8.32289830e-01  -4.50867090e-01
C     8.638746661099999e+00   2.612969228169300e+00   1.417506000000000e-01 -5.07191450e-01  -8.82805140e-01  -6.41300360e-01
C     9.839608928399999e+00   3.320748081742291e+00  -4.927650000000128e-02  1.34345040e-01   3.28746440e-01   8.12917450e-01
C     9.828660236499999e+00   2.396614099494815e+00   3.304533900000000e+00  1.17378304e+00  -1.18403811e+00   1.00598049e+00
C     1.110742370160000e+01   3.067454389192794e+00   3.231741300000000e+00 -1.49602390e+00   5.46764650e-01  -2.64007620e-01
C     1.239061120080000e+01   4.726013377996310e+00  -1.641311999999999e-01 -3.69924949e+00  -6.75531660e-01  -1.41120530e-01
C     3.715307702300000e+00   5.405683175310818e+00  -7.787520000000114e-02  1.28148164e+00   1.37525712e+00   2.15375300e-01
C     3.685012457900000e+00   4.524162697913258e+00   3.276790800000000e+00 -9.37847170e-01   5.77419150e-01  -8.84808880e-01
C     4.876581330100000e+00   5.263646982788595e+00   3.332913000000000e+00  2.73459485e+00  -2.17841242e+00  -1.30873870e-01
C     4.941936959700000e+00   4.708199721283459e+00   7.043100000000000e-03  4.51684230e-01   1.46715213e+00   1.25262890e-01
C     6.154327341800000e+00   5.441488868665450e+00   1.345653000000000e-01  1.12348300e-02   1.76079250e-01  -5.62522800e-01
C     6.182928293100000e+00   4.524776652766771e+00   3.314830500000000e+00 -1.74395244e+00   1.27104650e-01   1.51676777e+00
C     7.380236572699999e+00   5.243848091529247e+00   3.498782400000000e+00  7.98951430e-01   6.20207210e-01  -1.51856936e+00
C     7.371836148500000e+00   4.725476188847014e+00   1.584198000000000e-01  7.40071670e-01  -4.68606300e-02  -6.25331730e-01
C     8.604503719200000e+00   5.433948410070981e+00   3.929430000000000e-02  3.66909990e-01  -6.05892160e-01   2.68761340e-01
C     8.615302588399999e+00   4.556720834802136e+00   3.298086300000000e+00 -3.32256680e-01  -9.08264240e-01   1.21345142e+00
C     9.872172958800000e+00   5.213326508639850e+00   3.257407500000000e+00 -6.75362220e-01   6.23314900e-01  -2.63769970e-01
C     9.841100302699999e+00   4.732019120237208e+00  -4.456890000000158e-02  1.20087051e+00   1.00371883e+00  -7.40933010e-01
C     1.111997296730000e+01   5.473043501042718e+00  -1.542896999999996e-01 -6.93478300e-01  -1.80250413e+00   5.59900690e-01
C     1.107134433470000e+01   4.491630946566763e+00   3.147092100000000e+00  9.15719770e-01  -2.26244400e-02   3.62746390e-01
C     1.229864678360000e+01   5.219631884758491e+00   3.156339000000000e+00  4.55802610e-01   3.91979070e-01   8.19399210e-01
C     1.360036186370000e+01   6.835603327303951e+00   1.902900000000000e-02 -2.59398065e+00   5.58087790e-01  -5.21184400e-02
C     4.926893360499999e+00   7.568581398534156e+00   1.134993000000000e-01  5.24329690e-01  -2.87126400e-02   1.15323030e-01
C     4.940919259799999e+00   6.648131316187961e+00   3.399030000000000e+00 -5.10528300e-01   1.33958463e+00   9.46547900e-02
C     6.175380956100000e+00   7.352358112181482e+00   3.492675000000000e+00 -1.89052920e-01  -3.24675600e-02   5.94981000e-01
C     6.156291207300000e+00   6.866512837439456e+00   1.039584000000000e-01  9.62036270e-01   2.84800560e-01   7.70056760e-01
C     7.409144268600000e+00   7.597747328119749e+00   1.796022000000000e-01 -1.42683870e+00  -1.17513533e+00  -8.27579620e-01
C     7.412141018400000e+00   6.683943755360872e+00   3.534593700000000e+00 -5.27229530e-01  -1.72102899e+00  -4.85124170e-01
C     8.640920150199999e+00   7.338759994162396e+00   3.435894000000000e+00  7.75322610e-01   1.56824696e+00   5.68762040e-01
C     8.622527158299999e+00   6.837258870655814e+00   3.989520000000001e-02 -1.70919857e+00   1.03996745e+00   5.51438120e-01
C     9.797721232699999e+00   7.542163407911132e+00   5.723400000000000e-03  3.64842704e+00   2.39560301e+00   6.26807600e-02
C     9.881054698900000e+00   6.639037355416867e+00   3.319230300000000e+00 -6.40706040e-01   2.88273050e-01   7.81706500e-02
C     1.108422548800000e+01   7.390318881001056e+00   3.301049400000000e+00  7.02963000e-01  -1.43259198e+00   6.90598200e-02
C     1.106681706640000e+01   6.877727888413783e+00  -4.953749999999957e-02  7.69614130e-01  -2.96476480e-01  -7.71641200e-02
C     1.232483617610000e+01   7.575573140315180e+00   3.294360000000000e-02  5.27583790e-01  -2.98455160e-01  -2.36245150e-01
C     1.231554672500000e+01   6.641416579906909e+00   3.266559000000000e+00  7.07386050e-01   1.23517351e+00  -4.99075700e-02
C     1.358591326620000e+01   7.399076831709763e+00   3.372949500000000e+00 -1.74023357e+00  -2.91801492e+00   2.18101760e-01
