76
Lattice="10.7446858958278 0 0 5.37234294791388 9.3051709414712 0 0 0 30 " PBC="1 1 1" Properties=species:S:1:pos:R:3:force:R:3 Energy="-606.59878058"
C     2.948157002362520e-01   8.243506766771640e-02  -1.798425000000030e-01 -2.44602810e-01   2.89839648e+00   9.93999090e-01
C     1.274865572411377e+01   8.600441120359527e+00  -3.338085000000000e-01 -2.19904565e+00   3.20460591e+00  -8.02053090e-01
C     1.407607694521045e+01   8.408819642140397e+00  -3.772470000000006e-01  5.32849064e+00  -6.71196190e-01   1.32231360e+00
C     1.468814217537356e+01   7.056314534838749e+00  -2.571830999999989e-01  6.33325990e-01   3.88236529e+00  -1.35078384e+00
C     8.423953011613492e+00   9.137433881497953e+00  -1.264430999999995e-01  1.52822175e+00  -1.85576336e+00   5.16481490e-01
C     9.831483817162233e+00   8.938264420819133e+00  -2.784569999999995e-01  4.36914360e-01   6.66461350e-01   2.78194920e-01
C     1.037982655940338e+01   7.629641476101720e+00  -3.472925999999994e-01  1.65114388e+00  -4.81946800e-02   1.48755813e+00
C     1.187092582496569e+01   7.560699278503841e+00  -2.194272000000019e-01 -3.03403213e+00  -4.67349215e+00   2.49485910e-01
C     1.239698312162850e+01   6.201149877645483e+00   3.356250000000000e-02 -1.93351910e-01   2.55878280e-01  -1.01082445e+00
C     1.382002533180649e+01   6.009336433749862e+00  -1.837698000000003e-01 -1.20756612e+00  -3.82799560e+00   2.02455930e+00
C     6.191516137589686e+00   8.107865010824131e+00  -2.775608999999974e-01  1.73121572e+00   3.73642000e-02   5.33917070e-01
C     7.607203556545698e+00   7.973535842289420e+00  -1.827855000000014e-01 -6.01472900e-01  -1.64936537e+00   3.20479680e-01
C     8.107701555559879e+00   6.604881610821400e+00  -2.845050000000171e-02  1.88543665e+00   2.39472674e+00  -1.89511087e+00
C     9.554344522040649e+00   6.446905583583704e+00  -1.456496999999999e-01 -6.66887080e-01   2.29174638e+00   8.05219400e-01
C     1.012092131859467e+01   5.208804110076107e+00   1.097871000000000e-01 -8.26369240e-01  -2.62326006e+00  -1.06995367e+00
C     1.149236496835625e+01   5.038322398353597e+00   2.387562000000000e-01  2.82528211e+00   4.93522300e-01  -1.31024095e+00
C     1.208196117998243e+01   3.714116642173223e+00   2.590035000000001e-01  1.53585140e+00   1.18197772e+00   2.12700870e-01
C     5.397168331878232e+00   6.971354229881335e+00  -3.136335000000017e-01 -2.35309454e+00  -2.80399695e+00   1.32080700e-01
C     5.894899144485728e+00   5.601193119031291e+00  -2.875206000000006e-01 -2.04104000e-03   2.26557274e+00   9.35161640e-01
C     7.299501270998710e+00   5.464477360253889e+00  -8.625479999999897e-02 -5.66049770e-01   3.34819970e-01  -8.74307300e-02
C     7.913400028087230e+00   4.199033944663032e+00  -3.385860000000207e-02 -2.03609806e+00  -1.47517433e+00  -1.30959340e+00
C     9.277285758339886e+00   3.992435886867683e+00  -5.813490000000243e-02  2.52380244e+00   9.54339180e-01   1.42027725e+00
C     9.896623099366979e+00   2.684538652431880e+00  -6.447479999999928e-02 -8.23079320e-01   3.92867820e-01   6.30995970e-01
C     1.130676583061116e+01   2.545010312686153e+00   1.785171000000000e-01 -1.12837652e+00   6.75960730e-01  -5.65584370e-01
C     3.643675187165774e+00   4.609331406454213e+00  -1.238820000000018e-02 -2.22500799e+00   4.01442246e+00  -4.42894610e-01
C     4.992835217945620e+00   4.497410485318662e+00  -1.875329999999984e-01  2.31300628e+00   4.21414060e-01  -4.59841130e-01
C     5.592070487292692e+00   3.247138964842058e+00  -2.686628999999989e-01  4.93142910e-01  -2.13426959e+00   2.07541758e+00
C     7.017562539579313e+00   3.090801578206896e+00  -2.119166999999997e-01  1.77472960e-01  -7.22015470e-01  -6.90087140e-01
C     7.566738693382291e+00   1.770106383867055e+00  -3.563796000000004e-01  4.29702985e+00   1.99877225e+00   1.22682784e+00
C     9.062309521152173e+00   1.536218027687164e+00  -1.801671000000020e-01 -1.47521461e+00   1.81128194e+00  -7.31688330e-01
C     9.630650433960685e+00   2.542209921491760e-01  -2.288537999999996e-01 -1.33021796e+00  -9.89709810e-01  -7.32226990e-01
C     2.794733524949561e+00   3.558768767415820e+00   2.591934000000000e-01 -1.44363647e+00  -1.84342345e+00   1.57072550e-01
C     3.361892199968497e+00   2.225734358099283e+00   3.420720000000000e-01  1.46324640e+00   8.63627460e-01  -1.63178804e+00
C     4.769422307112658e+00   2.075706342619988e+00   1.108020000000000e-02  7.60733700e-02   2.29318420e-01  -8.35560630e-01
C     5.330857019335517e+00   7.868460921517847e-01  -2.342043000000018e-01  1.37691027e+00  -4.23652310e-01  -1.41098820e-01
C     6.836687625330732e+00   6.637869744527632e-01  -4.096671000000001e-01 -5.01291162e+00  -3.42566111e+00   6.11805340e-01
C     1.155303118409739e+00   1.286349622296882e+00   1.505532000000000e-01 -1.30134267e+00  -3.18339332e+00  -8.78548730e-01
C     2.559439892576392e+00   1.077653155402853e+00   2.457057000000000e-01 -1.68029503e+00   1.08637535e+00  -7.88404940e-01
C     1.591415274083857e+01   9.189702329391865e+00   3.291264300000000e+00 -1.53054069e+00  -1.25898256e+00  -5.67151190e-01
C     1.161630846595909e+01   8.675409998020116e+00   3.720955500000000e+00  5.08581740e-01   8.51711210e-01  -1.67048382e+00
C     1.304729997082991e+01   8.803972007709634e+00   3.521624700000000e+00 -7.96151720e-01   2.46317205e+00  -3.75867650e-01
C     1.390260280943950e+01   7.710934054881424e+00   3.504821700000000e+00  8.59806170e-01  -8.28479420e-01  -2.19193360e-01
C     7.345016351428834e+00   8.255245239912449e+00   3.406156500000000e+00  3.83846210e+00  -1.15451290e+00   1.65181100e+00
C     8.810906488655993e+00   8.422534812743992e+00   3.583375800000000e+00 -1.50707547e+00  -1.38894796e+00  -7.15388320e-01
C     9.604050406035780e+00   7.184830204776985e+00   3.648450900000000e+00  2.85733090e-01   3.75478448e+00   2.86878380e-01
C     1.103094302812947e+01   7.401699589411036e+00   3.652780800000000e+00 -1.39590198e+00   1.04964302e+00   4.26702340e-01
C     1.187676932239240e+01   6.363472350229253e+00   3.518480700000000e+00  2.64060849e+00  -5.13462381e+00  -2.26682790e-01
C     1.334411729860247e+01   6.413348903933039e+00   3.513759000000000e+00 -6.87144580e-01  -1.48118400e-02   5.37039400e-02
C     4.578220030564434e+00   7.880236150083869e+00   3.453729600000000e+00  6.51856310e-01   1.13138450e+00   6.48627880e-01
C     5.454138698010353e+00   6.818275234954233e+00   3.757205400000000e+00 -1.51765567e+00  -2.45052154e+00  -2.12641472e+00
C     6.842232205595709e+00   6.936571500907615e+00   3.684207900000000e+00 -9.84462000e-03  -3.34041140e-01  -6.67239050e-01
C     7.635010803654897e+00   5.704383184377259e+00   3.673241400000000e+00  3.01155200e-01   1.93327968e+00   8.65142310e-01
C     9.029049775736159e+00   5.932834808332037e+00   3.686120700000000e+00  1.26658082e+00  -2.91584083e+00  -2.25174032e+00
C     9.926530341611905e+00   4.778189738054531e+00   3.348787500000000e+00 -6.26466170e-01   1.43900738e+00   2.26677954e+00
C     1.133921080649537e+01   5.017740942113378e+00   3.363886200000000e+00  9.91990000e-04   1.58059800e-02  -5.29253180e-01
C     1.222468794651793e+01   3.894645612218197e+00   3.210892500000000e+00 -1.50418259e+00  -1.16604612e+00   1.25450660e+00
C     3.475038792497870e+00   5.252651006062481e+00   3.508592100000000e+00 -1.17234560e+00   8.88937800e-01   7.02026040e-01
C     4.899392122972809e+00   5.465296401400027e+00   3.628015200000000e+00 -1.66627652e+00   5.46876000e-03   1.58134311e+00
C     5.633711839838719e+00   4.281275092568359e+00   3.807319200000000e+00  2.46064987e+00  -6.25338060e-01  -1.17862661e+00
C     7.108004858673973e+00   4.384964752542095e+00   3.737879100000000e+00 -1.80762334e+00   6.95905540e-01  -2.19255190e-01
C     7.941829929744333e+00   3.259921292058917e+00   3.560786400000000e+00  4.29217070e-01  -2.82523380e-01   1.14841735e+00
C     9.363713540441728e+00   3.470775535042223e+00   3.430807500000000e+00 -4.79513670e-01  -5.37972660e-01  -6.24032160e-01
C     1.021375916541074e+01   2.338509121720289e+00   3.312729000000000e+00  2.56378900e-01  -5.14407240e-01  -1.88323354e+00
C     1.161861712289500e+01   2.578570528301776e+00   3.082607700000000e+00  2.22916490e-01  -1.25702169e+00   2.71859504e+00
C     2.844255083858077e+00   3.950481011288539e+00   3.527551200000000e+00  2.06553784e+00   7.17366080e-01  -1.42216847e+00
C     3.704037865530243e+00   2.754711086679737e+00   3.541078200000000e+00 -2.97205060e-01   5.82044862e+00   7.32365120e-01
C     5.078404284750335e+00   2.963215587897273e+00   3.696450900000000e+00  1.64884666e+00   7.50716400e-02  -6.60816610e-01
C     5.963278325553328e+00   1.837338756304709e+00   3.537825300000000e+00 -1.35076550e-01  -1.07549105e+00   1.70533955e+00
C     7.379735332636928e+00   1.910036520893972e+00   3.644437800000000e+00  5.16925820e-01   3.15140232e+00  -2.36672541e+00
C     8.233183316119600e+00   8.477512275053666e-01   3.318486900000000e+00  4.37516180e-01  -2.69048874e+00   1.85445254e+00
C     9.676827548212540e+00   9.634977835694796e-01   3.216114300000000e+00 -1.31023070e+00   3.38445299e+00   9.04823930e-01
C     1.698824934981272e+00   1.405336238882303e+00   3.326997000000000e+00  1.29245615e+00   7.20731540e-01  -1.46886382e+00
C     3.133814644922338e+00   1.573938957436898e+00   3.476712900000000e+00 -1.72443107e+00  -4.90936361e+00  -4.31126690e-01
C     4.010794296377453e+00   4.268356351545520e-01   3.549884100000000e+00 -1.49644745e+00  -1.84021836e+00  -1.35584660e-01
C     5.404296410227722e+00   5.072467350911090e-01   3.564776400000000e+00  6.68101980e-01   1.76547357e+00   5.60891720e-01
C     1.185263761743587e+00   8.130849062201059e-02   3.234543600000000e+00 -6.28588820e-01   4.35667260e-01   1.18041893e+00
