52
Lattice="8.88768389401873 1.33226762955019e-15 0 4.44384194700937 7.69696003302603 0 0 0 30 " PBC="1 1 1" Properties=species:S:1:pos:R:3:force:R:3 Energy="-417.69916323"
C     1.263778109788030e+01   6.842136187855401e+00  -2.080538999999995e-01  1.69225100e-02   4.25524809e+00   2.96600060e-01
C     8.949401260057414e+00   6.790395529202535e+00  -1.696679999999979e-01 -2.63564758e+00  -2.15132346e+00  -8.07385820e-01
C     1.025837067761642e+01   6.377212785713696e+00  -2.383889999999980e-01  8.17095200e-01  -1.72526900e+00   1.25500065e+00
C     1.061354056695481e+01   4.985142595897504e+00  -1.454462999999997e-01 -1.57525777e+00   4.38351400e-02  -3.27218710e-01
C     6.514540890952175e+00   6.139847082014130e+00  -2.197575000000001e-01  1.46084210e-01  -9.72130840e-01  -1.77874830e-01
C     7.918472411287349e+00   5.775846450694585e+00  -1.978584000000012e-01 -1.02391532e+00   1.24058060e+00   2.15697080e-01
C     8.288870369361012e+00   4.437619729011456e+00  -1.747014000000000e-01 -3.44647633e+00  -2.70426472e+00  -2.51949040e-01
C     9.580551908596089e+00   4.016293139993276e+00  -1.531200000000013e-01  1.98289376e+00  -2.31855045e+00   8.35990600e-02
C     9.909105273239710e+00   2.547345944306244e+00  -1.657454999999999e-01  8.73293320e-01   3.83193222e+00  -5.37202270e-01
C     4.110337876435974e+00   5.528082384903289e+00  -1.802169000000013e-01  1.26311780e-01  -2.11657331e+00   4.14748710e-01
C     5.486018960291530e+00   5.120294440699478e+00  -1.685832000000005e-01  6.07336040e-01   6.28360820e-01  -2.23832230e-01
C     5.847112802014025e+00   3.732034323067736e+00  -1.479420000000005e-01  4.44853160e-01   9.40776510e-01   8.25191900e-02
C     7.234939528062514e+00   3.354071791101773e+00  -2.041721999999986e-01 -3.12428640e-01   1.80604121e+00   5.54112000e-01
C     7.546838972946014e+00   1.987705368396965e+00  -1.860920999999998e-01 -9.38785900e-02  -3.06153130e-01   5.37154100e-02
C     8.918384350870063e+00   1.599970775976914e+00  -2.355818999999997e-01 -2.02979696e+00  -1.63591403e+00   5.88103290e-01
C     3.032404956106721e+00   4.571656053396282e+00  -1.088568000000016e-01  3.30849057e+00  -1.31250601e+00  -1.07545182e+00
C     3.424062520631086e+00   3.164626821761784e+00  -2.435523000000011e-01  1.43057990e-01   1.28054638e+00   1.64214961e+00
C     4.816816134235307e+00   2.773287896898885e+00  -1.080879000000010e-01 -8.53041150e-01  -1.06136200e+00  -1.29309400e+00
C     5.150147695527061e+00   1.358513445295000e+00  -1.804722000000005e-01 -1.06765200e-02   2.13471414e+00   5.22299740e-01
C     6.520569892396915e+00   9.667794354737608e-01  -1.354479000000026e-01 -9.08683000e-03   1.50053893e+00  -4.03329410e-01
C     1.127226556913663e+01   7.299469001954722e+00  -1.572804000000012e-01  1.84383569e+00   8.34210300e-02  -5.34059740e-01
C     2.383239013435030e+00   2.225116176282308e+00  -2.394156000000009e-01  4.56929150e-01  -3.23837762e+00  -2.85552400e-02
C     2.694080957188504e+00   7.627313317472542e-01  -2.724230999999975e-01  2.62996085e+00   3.30416304e+00   3.20075100e-02
C     4.117284486842933e+00   4.150447920592963e-01  -2.231915999999998e-01 -1.46012354e+00   7.74925040e-01   1.05176330e-01
C     2.883426397545990e-01   2.061907064900577e-01  -2.276049000000029e-01  2.13425152e+00  -1.21259462e+00  -6.07797260e-01
C     6.149394931943984e+00   7.515562463280177e+00  -3.091410000000003e-01 -2.04521432e+00  -1.06879858e+00   8.92744960e-01
C     7.165925332318299e-01   7.686258176774288e-01   3.603191700000000e+00 -1.45169816e+00   3.05360637e+00  -9.02519850e-01
C     3.062967876193722e+00   2.066930101016155e-01   3.637791600000000e+00  2.30370510e-01  -6.00546080e-01  -5.85463510e-01
C     4.434101177165219e+00   6.055968921300002e-01   3.614839800000000e+00 -1.02668075e+00  -5.92729120e-01   4.04486070e-01
C     9.880042416690145e+00   7.297897436655797e+00   3.609100200000000e+00 -3.39368840e-01  -1.97738942e+00   3.88312790e-01
C     1.124307726005793e+01   7.630390100274934e+00   3.611714100000000e+00  1.01793771e+00   1.38463767e+00  -1.43286830e-01
C     1.232695768389595e+01   6.685411688329346e+00   3.621865800000000e+00 -1.17600961e+00   6.30413620e-01  -7.30307680e-01
C     4.778251054652227e+00   7.152938356292398e+00   3.576112500000000e+00  7.72686950e-01  -3.85170226e+00   1.58241980e-01
C     5.782146145101812e+00   6.080955485675791e+00   3.546013200000000e+00  6.90792380e-01   1.73670942e+00   3.12492810e-01
C     7.160504555385291e+00   6.493506616624568e+00   3.604480500000000e+00 -7.54921790e-01   3.60694890e-01  -2.71661600e-02
C     8.145815587729297e+00   5.470125892238996e+00   3.645426000000000e+00  1.49622206e+00   6.99926100e-01  -3.96002220e-01
C     9.537154682512881e+00   5.862144997459747e+00   3.651403800000000e+00  2.39915430e-01   1.93656953e+00  -1.44245740e-01
C     1.062624622206261e+01   4.942552699085104e+00   3.632951700000000e+00 -1.37079317e+00  -9.81838920e-01  -5.20136410e-01
C     3.111647012882242e+00   5.300272303141767e+00   3.545536500000000e+00 -4.75968710e-01   1.08730909e+00   9.36336840e-01
C     4.110055691683015e+00   4.312805671225775e+00   3.563187900000000e+00 -2.34540340e-01   5.37560820e-01  -5.35892730e-01
C     5.459533750908033e+00   4.707527256082659e+00   3.538628400000000e+00 -4.03349300e-02  -1.21739720e-01  -4.83534910e-01
C     6.458803735137504e+00   3.693767808704187e+00   3.462222600000000e+00  8.09307120e-01   9.87954790e-01   1.54993397e+00
C     7.815033234561408e+00   4.101858397376378e+00   3.569064900000000e+00  1.03653780e+00  -7.43322770e-01  -9.64159800e-02
C     8.889445297651692e+00   3.109496960698908e+00   3.615710400000000e+00 -6.51765760e-01   1.69954225e+00  -9.08948020e-01
C     1.027551550682994e+01   3.555668643967526e+00   3.598631700000000e+00 -9.93722330e-01  -2.34430020e-01   8.70222900e-01
C     2.412845177421673e+00   2.586701732453239e+00   3.674622000000000e+00 -1.54283454e+00   6.16136800e-02  -1.52379975e+00
C     3.738818023488058e+00   2.961150063378305e+00   3.544746300000000e+00  5.45807240e-01   4.83648430e-01   1.14987528e+00
C     4.712291549692522e+00   1.989411784435616e+00   3.641878500000000e+00  3.14526120e+00  -1.25606157e+00  -4.35751610e-01
C     6.129106479307712e+00   2.343920524646165e+00   3.643255500000000e+00 -1.49544098e+00  -5.69231830e-01  -1.35856737e+00
C     7.125695315945604e+00   1.341732840915995e+00   3.561426000000000e+00  1.05786165e+00  -2.20153220e-01   3.39141640e-01
C     8.509528050685214e+00   1.758140071870202e+00   3.502830000000000e+00  1.09764561e+00  -1.15418795e+00   1.26096488e+00
C     2.070778309782663e+00   1.234344315790233e+00   3.584171100000000e+00 -5.95955580e-01  -2.42691121e+00   9.41848110e-01
