76
Lattice="10.7446858958278 0 0 5.37234294791388 9.3051709414712 0 0 0 30 " PBC="1 1 1" Properties=species:S:1:pos:R:3:force:R:3 Energy="-610.49190851"
C     5.467614683066133e+00   9.259903516617925e+00   4.418070000000000e-02 -2.65631489e+00   2.92053554e+00  -6.97710500e-01
C     1.247624967802485e+01   8.507587983307387e+00   1.292436000000000e-01  2.44850520e-01  -9.65532830e-01  -6.98840840e-01
C     1.390764265808432e+01   8.339882934593373e+00   8.954039999999999e-02 -9.25605840e-01  -8.45708590e-01   2.43156140e-01
C     1.450513852395448e+01   7.050609999793982e+00   2.925000000000000e-04 -3.03479445e+00  -6.94008770e-01   4.83472400e-02
C     8.214146794940282e+00   8.958729748526023e+00  -3.980519999999999e-02 -5.53302360e-01   1.89113345e+00  -3.61427480e-01
C     9.622823037729395e+00   8.861941640786775e+00   2.224770000000000e-02 -8.54624660e-01  -2.68645978e+00  -4.96985490e-01
C     1.015393560166130e+01   7.534607300032953e+00  -2.854620000000097e-02  1.62294156e+00  -5.62949520e-01   2.91248900e-01
C     1.160534346027471e+01   7.378949656134958e+00  -1.283880000000082e-02 -1.20067899e+00  -5.45534240e-01  -2.83220830e-01
C     1.212885324563407e+01   6.063852638736040e+00  -1.803144000000003e-01  2.13950474e+00  -2.78955480e-01   2.47160280e-01
C     1.361768156810798e+01   5.889261856578137e+00  -1.089882000000024e-01 -2.36420868e+00   2.35730554e+00  -2.86779800e-02
C     6.003648957821391e+00   7.996848924510786e+00  -1.017899999997240e-03 -2.44622738e+00   3.36067340e-01   1.66616290e-01
C     7.341824749929098e+00   7.876876145909145e+00  -2.772990000000064e-02  3.99045103e+00  -2.52058791e+00   4.53075040e-01
C     7.945113022244509e+00   6.571546859497654e+00   3.322800000000000e-03 -2.45534515e+00  -1.30278499e+00  -1.00600812e+00
C     9.305543100341437e+00   6.345587253372318e+00  -7.807199999999881e-02  1.44011228e+00   2.39637366e+00  -2.07367410e-01
C     9.861276144991461e+00   5.073476868906370e+00  -2.518343999999999e-01  1.37843915e+00  -1.24713361e+00   3.75313050e-01
C     1.128815087718312e+01   4.914894051471677e+00  -3.147432000000023e-01  1.17489360e-01  -1.26447310e+00   8.62173920e-01
C     1.184651357626031e+01   3.521407575574627e+00  -2.492252999999991e-01  2.21169822e+00   3.62165693e+00  -8.46288830e-01
C     5.120721800380050e+00   6.900597244795027e+00  -6.904500000000979e-03  1.34450850e+00  -1.20753346e+00   6.16985000e-02
C     5.674301126464847e+00   5.587726024284957e+00  -4.189350000000047e-02 -3.36790300e-01   5.25460640e-01  -1.12973270e-01
C     7.064512304194235e+00   5.417189039847066e+00  -1.111671000000030e-01  1.77682040e+00  -4.87573820e-01   7.16955890e-01
C     7.629198197200145e+00   4.089159695875735e+00  -1.242041999999977e-01  5.19070200e-01  -6.77658700e-01   1.35913140e-01
C     9.069546872957265e+00   3.884005428403436e+00  -1.821041999999977e-01 -1.16362587e+00   1.29366320e+00   8.39828300e-02
C     9.664984594243272e+00   2.603843000367978e+00  -1.105026000000002e-01 -1.80372937e+00  -1.93171292e+00   5.83123150e-01
C     1.105724236601946e+01   2.382656946934862e+00  -1.619768999999991e-01 -1.12235051e+00   2.44741227e+00  -3.54498670e-01
C     3.379017939930789e+00   4.625955001286814e+00  -1.528118999999997e-01  1.79492192e+00  -2.33834616e+00  -1.37180350e-01
C     4.824425267533060e+00   4.494401379140085e+00  -4.775760000000062e-02 -2.21269090e-01  -3.95450930e+00  -1.07998573e+00
C     5.428189798050988e+00   3.081992372877998e+00  -1.215102000000030e-01 -3.78438057e+00   2.00558634e+00   6.53291610e-01
C     6.783754252584959e+00   2.903017924690260e+00  -4.810499999999962e-02  1.68596545e+00   1.91390479e+00   5.44492300e-02
C     7.353036990836037e+00   1.634296855687499e+00   1.179198000000000e-01  1.94934972e+00  -1.40409227e+00  -7.85389240e-01
C     8.806283748717807e+00   1.426938286271223e+00   8.577659999999999e-02 -5.05930410e-01   2.26726950e+00  -4.18178710e-01
C     9.376594699686084e+00   1.371987902008984e-01   1.027485000000000e-01  1.56443226e+00   6.38118580e-01   1.03429300e-02
C     2.556675822128617e+00   3.438908209175715e+00  -2.900646000000009e-01 -7.93096890e-01  -7.51898460e-01   8.30401910e-01
C     3.131091511727842e+00   2.111183981759507e+00  -2.310450000000017e-01 -1.35368100e+00   3.47219720e-01   7.88859000e-02
C     4.515074209934717e+00   1.948101928071905e+00  -1.104905999999986e-01  1.50603258e+00   1.07811774e+00  -2.69315840e-01
C     5.070862374823408e+00   6.601913633498377e-01  -2.442179999999894e-02  2.44389060e+00   3.67031730e-01   5.26861230e-01
C     6.538068574903027e+00   4.806179413086922e-01   8.949689999999999e-02 -1.80065963e+00   9.61811670e-01   1.88257230e-01
C     8.920435399166264e-01   1.149795587390416e+00  -1.415555999999967e-01 -8.81942230e-01  -3.71858240e+00   7.43624540e-01
C     2.253314067344652e+00   9.341301057725832e-01  -1.907798999999990e-01  2.59229134e+00   2.08002070e+00   3.29794770e-01
C     1.073163153641894e+01   1.864700425350360e-02   3.509325300000000e+00  4.00877550e-01  -1.78078238e+00   7.96595000e-02
C     1.187170540565116e+01   8.845669223105450e+00   3.540147900000000e+00  3.07712060e-01  -2.59922285e+00  -7.52592820e-01
C     1.331994261490235e+01   8.968403869493793e+00   3.589824300000000e+00 -3.33092986e+00   2.63741944e+00  -9.38873940e-01
C     1.412788927115285e+01   7.880054513147121e+00   3.538357200000000e+00  1.54401518e+00  -2.94337679e+00  -3.56357150e-01
C     7.634497207668877e+00   8.310340598737934e+00   3.366544200000000e+00 -8.66186650e-01   2.48486950e-01   1.68817576e+00
C     9.031796332345918e+00   8.462508059119754e+00   3.496055100000000e+00  2.00107420e-01   8.50304220e-01  -3.85649550e-01
C     9.882990886578211e+00   7.344909758957378e+00   3.439805400000000e+00  3.62723520e-01  -1.04476111e+00   6.28111400e-02
C     1.129555042002188e+01   7.501188709119037e+00   3.372459300000000e+00  5.58160630e-01   4.20372410e-01   1.16571705e+00
C     1.213405603744057e+01   6.324338430272281e+00   3.342873300000000e+00  1.46581127e+00   1.70840601e+00   1.07646145e+00
C     1.359274170160149e+01   6.546961853460499e+00   3.442819500000000e+00 -2.30978336e+00   7.71311400e-02  -3.28094330e-01
C     4.805124212186883e+00   8.017571074935621e+00   3.504934200000000e+00 -5.28731520e-01  -1.91785880e-01   3.59993200e-02
C     5.629332681929886e+00   6.864881207176026e+00   3.474245100000000e+00  7.28016280e-01  -3.88642690e-01  -4.63284770e-01
C     7.071240948845392e+00   7.021248463409905e+00   3.480623700000000e+00 -7.96341460e-01  -8.22123940e-01  -1.22483793e+00
C     7.911397057465180e+00   5.861572180256850e+00   3.400639200000000e+00 -3.91653460e-01   5.62839280e-01   4.91171330e-01
C     9.328539629232630e+00   6.015682281175814e+00   3.479789700000000e+00 -4.25980550e-01   5.78866510e-01  -7.23865340e-01
C     1.015172944902888e+01   4.879362163185577e+00   3.506396100000000e+00  1.79931991e+00  -2.35610610e-01  -3.06857300e-02
C     1.160302652993067e+01   5.016664240783910e+00   3.471054600000000e+00 -2.97292639e+00   2.47175134e+00  -4.18678430e-01
C     1.240095011338621e+01   3.913528595606739e+00   3.520775400000000e+00  8.43602880e-01   2.66793430e-01   4.99440640e-01
C     3.639406968138857e+00   5.387681040072393e+00   3.397552500000000e+00  7.31690910e-01   4.54615880e-01   4.03524210e-01
C     5.060121342116613e+00   5.552028597007835e+00   3.364291800000000e+00  3.28672660e-01  -2.11282390e-01   5.73549530e-01
C     5.926461551870119e+00   4.398038052454249e+00   3.328026900000000e+00 -6.88943900e-01   1.54323738e+00  -3.46214610e-01
C     7.316920394609500e+00   4.581827833551727e+00   3.316635000000000e+00  2.09300843e+00  -1.53700481e+00   5.96249790e-01
C     8.211105028085420e+00   3.405621751689146e+00   3.397646100000000e+00 -9.62243250e-01   9.83772350e-01   4.73252770e-01
C     9.629791933557275e+00   3.561495926914916e+00   3.554819400000000e+00 -2.07759752e+00   8.51830970e-01  -2.81345710e-01
C     1.044062735233542e+01   2.436020706500121e+00   3.671843400000000e+00  1.36892373e+00  -4.34092160e-01  -9.90585610e-01
C     1.186928398323674e+01   2.657517459590924e+00   3.623468100000000e+00 -1.31139953e+00  -3.62255216e+00   1.71123020e-01
C     3.026296172590815e+00   4.106769545776267e+00   3.502701900000000e+00  2.74051808e+00  -9.09884930e-01  -1.05222067e+00
C     3.892004755983689e+00   2.968815625872385e+00   3.436569000000000e+00  1.33226140e+00  -9.45934350e-01   4.13228010e-01
C     5.351013996360487e+00   3.133132941002272e+00   3.314781000000000e+00 -1.18027262e+00  -2.47552207e+00   3.81778970e-01
C     6.186214924460343e+00   1.932810461511075e+00   3.326514600000000e+00  2.70439970e-01   1.48706820e+00   1.33222606e+00
C     7.637550739954798e+00   2.106095169875840e+00   3.467427300000000e+00 -2.05895662e+00   1.04960000e+00  -1.27432036e+00
C     8.454203331679203e+00   9.968697555769861e-01   3.486083100000000e+00  2.11057761e+00  -1.94249791e+00   1.27672758e+00
C     9.888478358837631e+00   1.116268684286759e+00   3.567706800000000e+00 -8.56448940e-01   2.25753213e+00   1.14122080e-01
C     1.954005208082167e+00   1.481652412243294e+00   3.585246900000000e+00 -1.94221550e-01  -1.08589761e+00  -3.52800700e-01
C     3.366841256017467e+00   1.608496780428998e+00   3.561995700000000e+00  1.53098500e-01   1.51505115e+00  -4.58570770e-01
C     4.218983330375853e+00   4.662515948427168e-01   3.568450800000000e+00 -6.06765240e-01   9.05449900e-02  -7.47813920e-01
C     5.613954403958941e+00   6.364174890635225e-01   3.492525900000000e+00  1.07476132e+00   9.05162510e-01  -9.36116200e-02
C     1.386906434687124e+00   1.295557088942012e-01   3.464686500000000e+00  1.11292926e+00   2.21658076e+00   3.82852020e-01
