64
Lattice="9.86 0 0 4.93 8.53901048131456 0 0 0 30 " PBC="1 1 1" Properties=species:S:1:pos:R:3:force:R:3 Energy="-512.73585844"
C     4.968908398100000e+00   8.535089793338109e+00  -6.410009999999744e-02 -3.91899410e-01  -1.59877096e+00   2.37696740e-01
C     1.298714682100000e+00   6.693852423121864e-01  -3.017790000000176e-02 -1.89386970e+00   6.58298430e-01  -1.26460532e+00
C     9.798419665799999e+00   1.052757524058240e-01   3.458926500000000e+00  1.37447453e+00  -2.72802238e+00  -3.98694840e-01
C     1.198570162400000e+00   7.317925150151616e-01   3.445095000000000e+00  3.49740030e-01  -7.43563030e-01  -1.63607900e-01
C     7.448894267000000e+00   8.517822804076186e+00  -3.735479999999924e-02 -8.28747840e-01   7.36922560e-01  -1.40139500e-02
C     3.727773946800000e+00   7.335609440855696e-01  -5.359409999999798e-02 -1.26206026e+00  -1.90070571e+00   3.54688190e-01
C     7.370716299000000e+00   8.534179107870417e+00   3.411668700000000e+00 -3.92089990e-01  -9.26324280e-01   2.64010390e-01
C     3.675209399400000e+00   6.542048456511568e-01   3.441705900000000e+00  1.27881920e+00   1.19514677e+00  -3.74466340e-01
C     9.826423889899999e+00   8.488789912273871e+00  -2.362170000000319e-02  1.85049098e+00   6.14909680e-01   2.22120000e-04
C     6.124566361499999e+00   6.037525291806008e-01  -7.410899999999998e-03  1.49810152e+00   4.80518701e+00  -8.73745080e-01
C     9.863875226499999e+00   8.523110415535717e+00   3.447374400000000e+00  7.96569320e-01   9.99997420e-01  -3.50563050e-01
C     6.224327721600000e+00   7.261776032839328e-01   3.391019400000000e+00 -2.16135814e+00  -1.10438250e+00   4.19566640e-01
C     1.234339866140000e+01   8.497155495451022e+00  -6.511740000000188e-02 -1.03431020e+00   1.67396663e+00   8.31544800e-01
C     8.668005520900000e+00   7.007435628385191e-01  -1.742910000000109e-02 -1.08455246e+00   5.21523020e-01  -3.32014830e-01
C     1.237273309810000e+01   8.507434670876741e+00   3.386866500000000e+00 -1.53411187e+00   9.56837860e-01   9.04343850e-01
C     8.584034605699999e+00   7.975113867624903e-01   3.494005200000000e+00  1.21690077e+00  -1.53694501e+00  -8.32849650e-01
C     1.234308767700000e+00   2.082863871186498e+00  -1.789076999999999e-01 -2.13344340e-01   1.15816890e+00   3.10340593e+00
C     2.426526970200000e+00   2.799130671956819e+00   7.431840000000001e-02  1.18889780e-01   2.66817230e+00  -1.79253165e+00
C     1.105849655750000e+01   2.120426636727599e+00   3.429706200000000e+00  2.35842074e+00   1.30458640e+00   4.00245040e-01
C     2.488441164000000e+00   2.781203019454059e+00   3.494425200000000e+00 -1.79505474e+00   2.90866670e+00  -3.23343000e-01
C     3.642500870700000e+00   2.127730906292191e+00   1.840830000000000e-02  1.41414655e+00   8.27498680e-01  -1.45663300e-01
C     4.853566512500000e+00   2.893651796833397e+00  -7.057199999998431e-03  1.45913492e+00  -1.24801264e+00   1.74232900e-01
C     3.709695291700000e+00   2.074133928432166e+00   3.392759700000000e+00 -4.31295830e-01   1.48012970e+00   4.77768680e-01
C     4.919642070000000e+00   2.853542100636427e+00   3.328139400000000e+00  1.35811541e+00  -2.68439249e+00   1.15337253e+00
C     6.073740279999999e+00   2.170765725919190e+00  -7.400909999999783e-02  2.45617384e+00  -2.04160981e+00   2.86792290e-01
C     7.381571764599999e+00   2.888818119170984e+00  -1.204877999999994e-01 -9.39549640e-01  -1.57220180e+00   1.17855620e+00
C     6.187810965099999e+00   2.168258757832367e+00   3.421840500000000e+00 -4.73335220e-01  -1.73740574e+00  -9.17587920e-01
C     7.410691549099999e+00   2.868465473082009e+00   3.399916200000000e+00 -9.91349040e-01   2.39509940e-01   1.03448681e+00
C     8.633070949300000e+00   2.154089977742903e+00   2.418810000000000e-02 -7.35388280e-01  -3.78182940e-01  -1.13933028e+00
C     9.873547393500001e+00   2.850463701968283e+00   1.459590000000000e-02  3.92738770e-01  -1.03082808e+00  -1.13602489e+00
C     8.640602461000000e+00   2.198383105954235e+00   3.438981300000000e+00 -5.86638020e-01  -2.08438590e-01  -1.26173470e-01
C     9.878466547499999e+00   2.881460480790892e+00   3.390544200000000e+00 -3.39719010e-01  -7.28036300e-02   1.08400959e+00
C     1.233121461010000e+01   4.323658534392798e+00   4.305780000000000e-02  4.03067000e-01  -3.60198671e+00   5.08372410e-01
C     3.685186388300000e+00   5.014970674766053e+00  -5.063099999999920e-02  6.56259630e-01  -4.20341800e-01   1.81737413e+00
C     1.230239294270000e+01   4.318624275374209e+00   3.542959200000000e+00  7.22829760e-01  -2.99348168e+00  -1.10188392e+00
C     3.730299585800000e+00   4.911207437286550e+00   3.444312900000000e+00 -1.10182409e+00   2.04672608e+00  -6.35193500e-02
C     4.935353339100000e+00   4.298423196721253e+00   5.400300000000000e-02 -9.40120710e-01   4.51630430e-01  -9.39565620e-01
C     6.178410884800000e+00   4.997795223696476e+00   4.163970000000000e-02 -2.76734250e-01  -7.19041140e-01  -1.23938418e+00
C     4.966792540699999e+00   4.227695426816462e+00   3.394111200000000e+00 -1.96494365e+00   7.11273980e-01  -2.88107860e-01
C     6.149146010400000e+00   4.963247753536073e+00   3.368097000000000e+00  1.63253900e-02   1.85538029e+00   1.11761571e+00
C     7.413573577799999e+00   4.313389776559863e+00  -8.593830000000224e-02  5.79450330e-01  -1.28395100e+00   1.68492210e-01
C     8.686558935000001e+00   4.968517176903280e+00  -1.029309000000005e-01 -6.87393150e-01   1.56938157e+00   8.61306390e-01
C     7.345335179999999e+00   4.258459346823281e+00   3.509961000000000e+00  2.59728339e+00   1.44993314e+00  -1.97129167e+00
C     8.623252361300001e+00   4.959994134372878e+00   3.379634700000000e+00 -6.73289410e-01   6.69095310e-01   9.33243450e-01
C     9.931871906400000e+00   4.268502247829019e+00   1.296660000000000e-02 -1.94343945e+00  -7.96217600e-02   1.97898640e-01
C     1.112912531510000e+01   4.999219786814853e+00   1.599435000000000e-01 -5.72596480e-01  -1.14350046e+00  -1.42014232e+00
C     9.873865427800000e+00   4.299128775157215e+00   3.470340000000000e+00 -9.94076430e-01  -3.40826370e-01  -1.05083869e+00
C     1.105048087050000e+01   5.063012513968209e+00   3.424772700000000e+00  2.08283267e+00  -2.84992441e+00   5.15771090e-01
C     1.350936559990000e+01   6.425820825434410e+00   7.190700000000000e-02  1.32211588e+00  -9.78823760e-01  -1.59894841e+00
C     4.900046404599999e+00   7.064838443216154e+00  -9.062070000000233e-02  6.32001310e-01   2.55771128e+00   7.54433450e-01
C     3.722126385300000e+00   6.342039128648423e+00   3.374432400000000e+00  2.73156440e-01   1.71141231e+00   5.65686710e-01
C     4.912699496100000e+00   7.201667120197150e+00   3.352454400000000e+00 -2.73320710e-01  -2.21028738e+00   9.29125920e-01
C     6.149245793600000e+00   6.384238662270269e+00  -1.018506000000023e-01 -2.88812400e-02   1.12567447e+00   9.28407540e-01
C     7.375937366200000e+00   7.120320663809953e+00  -2.839680000000300e-02  1.68822341e+00  -9.92588200e-01  -7.09598060e-01
C     6.138229807199999e+00   6.433503116992951e+00   3.420844800000000e+00  3.07096900e-01  -4.58478840e-01  -9.55967200e-01
C     7.403872077299999e+00   7.094291283553875e+00   3.376795800000000e+00 -7.53530270e-01   6.52068320e-01   2.60623090e-01
C     8.653335714299999e+00   6.437463937004100e+00  -4.257840000000002e-02 -1.18015372e+00  -2.87161854e+00  -1.11280690e-01
C     9.886317227399999e+00   7.077271584035453e+00  -3.261599999998310e-03 -1.39012543e+00   7.98289390e-01   4.41435000e-02
C     8.646767080899998e+00   6.386246439804431e+00   3.328356300000000e+00 -9.55419890e-01   6.39378400e-02   9.47719350e-01
C     9.862475451600000e+00   7.121010957417157e+00   3.430636500000000e+00 -4.87910690e-01   3.58031020e-01  -1.03317846e+00
C     1.110170588760000e+01   6.372258259786619e+00   6.893700000000000e-02 -7.58468770e-01   1.65982078e+00   5.58372500e-02
C     1.228197194600000e+01   7.106241884890948e+00   3.821100000000000e-02  1.73800198e+00   6.36826000e-02  -9.64629700e-02
C     1.107165285410000e+01   6.439445670556298e+00   3.336670800000000e+00  1.37765087e+00  -1.33600800e-01   1.31975809e+00
C     1.235413891290000e+01   7.048140493612618e+00   3.435945300000000e+00 -1.80455060e-01   2.09735178e+00  -1.06260748e+00
