64
Lattice="9.86 0 0 4.93 8.53901048131456 0 0 0 30 " PBC="1 1 1" Properties=species:S:1:pos:R:3:force:R:3 Energy="-514.32185351"
C     9.797905072399999e+00   1.123810630262320e-01  -1.842413999999977e-01  1.57368134e+00  -3.38017120e-01   1.96234270e-01
C     1.187327198800000e+00   7.866971569400943e-01  -9.685410000000161e-02  2.23110990e-01   1.99619544e+00  -1.08514882e+00
C     1.254823533000000e+00   6.307683359273295e-01   3.370185300000000e+00  1.26492405e+00  -4.76966640e-01   3.40916990e-01
C     2.536026460700000e+00   1.292542928978902e+00   3.501973500000000e+00 -1.43863237e+00   2.28120409e+00   6.41366040e-01
C     2.439692584499999e+00   1.020957395129672e-01  -3.150714000000008e-01 -1.53304442e+00   1.45474000e-02   1.39790618e+00
C     3.655106387700000e+00   8.027276974845129e-01  -1.671234000000013e-01  1.34561780e+00   5.15503910e-01   1.13728110e-01
C     3.763255896300000e+00   6.021758862855736e-01   3.490324500000000e+00 -9.40714650e-01   3.07004400e-01  -9.75138500e-02
C     4.951756287199999e+00   1.372550126962414e+00   3.498756300000000e+00  1.80838240e-01   3.77819900e-02   1.54120210e-01
C     4.911081963099999e+00   1.227700501267240e-01  -1.845020999999996e-01 -3.05679440e-01  -2.53354614e+00  -4.04605590e-01
C     6.173384207500000e+00   8.094303083706840e-01  -1.532178000000002e-01 -2.59895406e+00  -8.27421760e-01  -3.73810910e-01
C     6.150674261100001e+00   6.506651696368825e-01   3.411227400000000e+00  2.38543223e+00  -1.07705695e+00   2.95639420e-01
C     7.425825071499999e+00   1.298751643498910e+00   3.265797600000000e+00 -5.12902860e-01   1.07213886e+00   8.87391540e-01
C     7.374386831900000e+00   8.368426667641039e-02  -2.086799999999975e-01 -1.03663200e-01   1.48226490e-01   8.50901990e-01
C     8.584941528500000e+00   8.142797832024856e-01  -1.753181999999995e-01 -3.90677300e-02  -1.04390220e+00   8.41348700e-02
C     8.665662686299999e+00   5.943317804784359e-01   3.300557700000000e+00 -4.20086520e-01   1.52369070e+00   5.78955360e-01
C     9.887508808400000e+00   1.344879463501974e+00   3.386974800000000e+00  3.17497640e-01  -7.45586250e-01  -1.64043130e-01
C     1.102940768410000e+01   2.260858519960841e+00   3.334920000000000e-02  1.08130145e+00  -2.25583287e+00   4.78702510e-01
C     2.446890680300000e+00   2.939489546650457e+00   1.951293000000000e-01 -1.11260290e+00  -9.56503730e-01  -1.11874702e+00
C     2.530580536200000e+00   2.766964731819288e+00   3.755090400000000e+00 -7.83992970e-01  -1.34830926e+00  -4.48583470e-01
C     3.738467757700000e+00   3.516197748789326e+00   3.750343500000000e+00  6.72303310e-01  -2.04942226e+00  -3.99060590e-01
C     3.688129894100000e+00   2.220845229192189e+00   3.377850000000000e-02 -1.56678199e+00   4.77452100e-01  -1.17282020e-01
C     4.887920132900000e+00   2.959767305617522e+00  -6.735120000000094e-02  5.42185280e-01  -6.79752010e-01   2.29638620e-01
C     4.981832097300000e+00   2.816783282932018e+00   3.572630100000000e+00 -1.24544821e+00  -1.87048688e+00  -3.09086460e-01
C     6.200919095600000e+00   3.449464271816763e+00   3.382882200000000e+00  1.01494997e+00   1.75341409e+00   3.59499720e-01
C     6.086740246300000e+00   2.204278524179732e+00  -1.481108999999989e-01  1.82565814e+00   1.00843337e+00  -4.70934920e-01
C     7.350043625800000e+00   2.869374109187186e+00  -2.244471000000026e-01 -1.34068448e+00   2.67100577e+00   6.37441810e-01
C     7.438203759199999e+00   2.731412903246227e+00   3.330263100000000e+00  2.27148750e-01  -6.86831600e-02  -9.18639750e-01
C     8.683590581999999e+00   3.450395707079922e+00   3.351044400000000e+00 -1.31954927e+00   1.66322519e+00   9.64863720e-01
C     8.557960673800000e+00   2.206975399859630e+00  -1.241279999999989e-01  1.10331023e+00   1.74552410e-01  -2.34168220e-01
C     9.780305070999999e+00   2.928024815009694e+00   9.218100000000000e-03  1.21080237e+00   5.19983490e-01  -7.24931900e-02
C     9.893904941100001e+00   2.743406370415911e+00   3.523909800000000e+00  8.58000550e-01   1.11777651e+00   2.20431030e-01
C     1.113695563410000e+01   3.474890627152745e+00   3.822914400000000e+00 -4.75215830e-01  -2.17115412e+00  -9.11504410e-01
C     1.228144133010000e+01   4.343930486832737e+00   2.104272000000000e-01  8.61538410e-01   7.83916200e-01   3.04164620e-01
C     3.666164279100000e+00   5.047297319080817e+00   1.440060000000000e-01  1.08196260e+00   2.13045489e+00  -1.51514490e-01
C     3.722920411100000e+00   4.892332552351244e+00   3.708889500000000e+00  1.36827751e+00   1.44748154e+00  -1.71366830e-01
C     4.978994586500000e+00   5.624854298861397e+00   3.507288600000000e+00 -9.20027100e-01  -1.20983582e+00   3.58432300e-02
C     4.924905880299999e+00   4.391090075472100e+00  -6.393990000000116e-02 -1.38420824e+00  -1.18351547e+00   4.08539630e-01
C     6.143758506399999e+00   5.082283267429368e+00  -2.323541999999996e-01 -5.31274100e-02  -9.32076250e-01   2.37944330e-01
C     6.206078587100000e+00   4.903090339314367e+00   3.362959500000000e+00 -1.10086912e+00  -3.65542910e-01  -2.08348510e-01
C     7.391295006399999e+00   5.644636709830518e+00   3.227467500000000e+00  2.12674797e+00  -1.44232720e+00   1.43752678e+00
C     7.378863567700000e+00   4.324055769160327e+00  -2.333046000000003e-01 -1.26803651e+00  -3.07208970e-01  -3.78593000e-03
C     8.574496140299999e+00   5.043120547494630e+00  -1.567554000000015e-01  1.15361649e+00   3.15720590e-01  -8.95935000e-03
C     8.631705339300000e+00   4.933068755747132e+00   3.427190400000000e+00  1.15375991e+00  -2.09969735e+00  -6.82262570e-01
C     9.908469442900000e+00   5.573104992089034e+00   3.606640800000000e+00 -1.30362092e+00   1.15286068e+00   4.93877870e-01
C     9.841883926200000e+00   4.349659223573664e+00   2.184420000000000e-02 -1.50680308e+00   6.30985360e-01   1.40911100e-02
C     1.105901297500000e+01   5.072157879582393e+00   1.598259000000000e-01  1.25682180e-01   1.62644230e-01  -7.86012690e-01
C     1.111443056270000e+01   4.869234016662215e+00   3.895031400000000e+00  9.80453200e-02   4.44212280e-01  -1.57859171e+00
C     1.235423174480000e+01   5.557653225674951e+00   3.746623500000000e+00 -2.83536620e-01   1.96560236e+00   4.94977270e-01
C     1.357627240470000e+01   6.519972979668148e+00   1.447986000000000e-01 -2.50906885e+00  -9.93389330e-01  -1.93440618e+00
C     4.899863550899999e+00   7.230456906371098e+00  -1.838925000000025e-01 -1.21353932e+00  -8.89530480e-01   1.03002270e+00
C     4.964715975400000e+00   7.030625531486357e+00   3.427974900000000e+00  5.40187870e-01   3.53034450e-01   3.75621400e-02
C     6.198677966899999e+00   7.733150502691213e+00   3.298258200000000e+00 -1.57578800e-02   9.29629410e-01   4.82497450e-01
C     6.086998183900000e+00   6.485076776319741e+00  -2.858732999999987e-01  1.53852900e+00   1.27199584e+00  -3.96580000e-03
C     7.307728745600000e+00   7.225297380068768e+00  -3.508502999999976e-01  1.58650360e+00  -1.23941524e+00   1.40892500e-01
C     7.449003121400001e+00   7.038914178179083e+00   3.322227600000000e+00 -1.69483386e+00   3.60781380e-01  -5.44496490e-01
C     8.662694086799998e+00   7.714766269298088e+00   3.427830000000000e+00  1.85321338e+00   4.62255320e-01   1.01858890e-01
C     8.540507339900000e+00   6.466676404196808e+00  -2.450328000000006e-01  1.17272512e+00   1.01950845e+00  -3.54545800e-01
C     9.817952572299998e+00   7.171984153526993e+00  -2.346696000000001e-01 -1.14468990e-01   1.65599494e+00   8.33287500e-01
C     9.910262631799998e+00   7.008433497149885e+00   3.556547100000000e+00  2.67804130e-01   3.00601390e-01  -4.06263000e-03
C     1.115334216530000e+01   7.761503091528586e+00   3.596445300000000e+00 -1.35581839e+00  -1.23795589e+00  -8.54122070e-01
C     1.108918206070000e+01   6.510348831736350e+00  -3.266849999999977e-02 -2.43285199e+00  -1.44578978e+00   1.78907480e-01
C     1.227558463800000e+01   7.216298629264525e+00  -2.058059999999884e-02  2.73425026e+00   1.26952000e-03   2.92812400e-01
C     1.237262828630000e+01   6.989067277551559e+00   3.599742900000000e+00 -1.46881420e-01   1.75865319e+00   3.58244610e-01
C     1.360472264590000e+01   7.763638356489215e+00   3.510597900000000e+00 -5.39133070e-01  -2.65678677e+00  -8.81205140e-01
