52
Lattice="8.88768389401873 1.33226762955019e-15 0 4.44384194700937 7.69696003302603 0 0 0 30 " PBC="1 1 1" Properties=species:S:1:pos:R:3:force:R:3 Energy="-412.52076578"
C     1.270105323049359e+01   6.820087476153463e+00  -1.716258000000010e-01 -2.51543236e+00  -1.88730765e+00   2.56143950e-01
C     8.976198071356935e+00   6.770348334986799e+00  -8.170589999999933e-02 -1.77443739e+00   1.00371922e+00  -1.11978123e+00
C     1.031063399169976e+01   6.350907347236767e+00   9.676799999999999e-02 -2.79606490e-01   2.11862457e+00   1.39719680e-01
C     1.063832885062221e+01   5.042339475576437e+00   1.446453000000000e-01  1.81127999e+00  -6.13429725e+00  -3.92045540e-01
C     6.583269972582558e+00   6.095420998416973e+00  -4.774560000000001e-01 -2.27756120e+00  -6.95075570e-01   1.64707109e+00
C     7.951704216827939e+00   5.810865078834276e+00  -1.504784999999984e-01  2.62473050e-01  -1.93075817e+00  -7.18998690e-01
C     8.385245969345775e+00   4.429418079312289e+00  -7.295909999999850e-02 -4.36291506e+00  -2.43472511e+00  -2.32476760e-01
C     9.680926832983086e+00   3.957282548652874e+00   8.353500000000000e-03 -4.43984710e-01   2.61195544e+00   1.39492420e-01
C     9.935375755953944e+00   2.611468240741770e+00  -2.112642000000022e-01 -2.08249100e-02  -3.99101843e+00  -1.03544558e+00
C     4.128287976002246e+00   5.406461949773256e+00  -1.837275000000034e-01  6.74880570e-01   1.60072083e+00   1.49144832e+00
C     5.516290633771275e+00   5.056112800702121e+00  -1.995840000000015e-01  1.43941018e+00   1.95765682e+00  -1.41269179e+00
C     5.919831964925443e+00   3.744626318768015e+00  -7.332360000000193e-02  5.25512380e-01  -2.13650134e+00   5.13083610e-01
C     7.337550415998259e+00   3.350020265281182e+00  -1.348229999999973e-01 -2.02072562e+00   1.38939211e+00   4.42291060e-01
C     7.561909596285902e+00   1.925686266289637e+00  -1.642961999999990e-01  1.69662290e+00   1.70986368e+00   1.13460925e+00
C     8.868754057493859e+00   1.497443958684501e+00  -3.059051999999980e-01  2.50384091e+00   1.90454853e+00  -7.59881000e-03
C     3.094098147193869e+00   4.480838313519107e+00   1.076046000000000e-01  1.46992281e+00   2.50281100e-01  -2.35687946e+00
C     3.518874377020245e+00   3.073948012013151e+00  -2.325392999999991e-01 -4.18504677e+00   1.61409403e+00   2.20759502e+00
C     4.850351276363251e+00   2.710078998710119e+00   1.459860000000000e-02  1.87970412e+00   8.73898370e-01  -1.89395005e+00
C     5.187989231605793e+00   1.352486263773908e+00  -8.339189999999874e-02  1.12289924e+00  -5.96491300e-02   7.36150990e-01
C     6.668654126098027e+00   9.085350765043451e-01   1.278315000000000e-01 -6.06538799e+00   3.67126536e+00  -1.95327413e+00
C     1.136594966737807e+01   7.302826415919808e+00   5.471730000000000e-02  1.10235743e+00  -3.43199934e+00   5.39527000e-02
C     2.370360181732721e+00   2.153925684481633e+00  -4.087736999999976e-01  2.97731968e+00  -7.53125220e-01   4.27305040e-01
C     2.752653949131710e+00   7.324443328164062e-01  -5.820882000000012e-01 -2.22177276e+00   2.07818107e+00   4.25365240e-01
C     4.123331267043251e+00   4.571283058713228e-01  -3.675716999999992e-01  1.79815690e+00  -2.66799875e+00   1.43899852e+00
C     2.634125086113821e-01   8.598097019432309e-02  -4.273503000000005e-01  4.90876835e+00   3.00978878e+00  -5.74370010e-01
C     6.115071541035732e+00   7.430831941212328e+00  -6.343160999999995e-01  1.99312501e+00   3.33641620e-01   9.28855870e-01
C     6.864268009826368e-01   8.922008958070803e-01   3.354910500000000e+00 -1.75206352e+00  -1.60259482e+00   2.04877084e+00
C     2.985868773773396e+00   1.770474758196678e-01   3.621161400000000e+00  1.91806450e+00   3.78178053e+00   1.51391314e+00
C     4.389049818571412e+00   5.681401749312074e-01   3.733148400000000e+00 -2.75674616e+00   2.84902520e+00  -6.72453110e-01
C     9.811840374691826e+00   7.307513402760476e+00   3.740416500000000e+00  1.62465235e+00  -1.61880097e+00   9.35756620e-01
C     1.119861906554178e+01   7.677355180077187e+00   3.643158300000000e+00  1.31213693e+00  -3.83910240e-01  -8.40573140e-01
C     1.231436987945936e+01   6.701575612270747e+00   3.581818500000000e+00 -2.43140921e+00   1.50422203e+00  -9.38145100e-02
C     4.759387923213984e+00   7.111458822933925e+00   3.465393300000000e+00  1.19494995e+00   1.64475368e+00  -1.50589262e+00
C     5.770501590552366e+00   6.090795433317344e+00   3.313167000000000e+00  1.51288614e+00   3.71746582e+00   1.93527544e+00
C     7.127345406718873e+00   6.548342838662300e+00   3.655997100000000e+00 -1.11779477e+00  -4.09027651e+00  -1.35002502e+00
C     8.118246614417870e+00   5.435459246081478e+00   3.809625899999999e+00 -5.16818470e-01   4.16007157e+00  -3.23523200e-01
C     9.486135733065545e+00   5.910879069585694e+00   3.926714400000000e+00  1.00138327e+00  -1.22626455e+00  -1.77303494e+00
C     1.058818324933771e+01   4.945427590625910e+00   3.731256900000000e+00 -1.66212184e+00   1.40350954e+00   1.29818119e+00
C     1.195414911757399e+01   5.334605363051585e+00   3.581491800000000e+00 -1.56174078e+00   1.68754976e+00  -2.74184160e-01
C     4.059576313568823e+00   4.429556085805626e+00   3.327585300000000e+00  1.91905796e+00  -1.00213178e+00   1.03204685e+00
C     5.435041205006135e+00   4.779733284789693e+00   3.250266300000000e+00 -9.39138460e-01  -2.44361483e+00  -1.84781960e-01
C     6.363774130431903e+00   3.690329884537187e+00   3.296275800000000e+00  1.57359705e+00   2.56743607e+00   1.43726744e+00
C     7.700528536982125e+00   4.116682049667755e+00   3.619356600000000e+00  2.44854914e+00  -9.49187470e-01  -7.54784150e-01
C     8.818411595176887e+00   3.194986095147314e+00   3.589098300000000e+00 -1.03314450e+00  -1.28177145e+00   1.32517220e-01
C     1.022987893873304e+01   3.583853064326979e+00   3.769082400000000e+00 -1.76247654e+00   6.45094500e-01  -1.38755901e+00
C     2.397974260363987e+00   2.687504122820531e+00   3.675392100000000e+00  8.38530600e-01  -1.27094363e+00   4.64547270e-01
C     3.806778453901512e+00   3.108067558251737e+00   3.612559800000000e+00 -4.10308345e+00  -3.05817316e+00  -5.55685770e-01
C     4.684537401534718e+00   2.027822616799728e+00   3.614108400000000e+00  9.45236140e-01  -2.34135351e+00   7.71287800e-02
C     6.022347131606222e+00   2.355933708952187e+00   3.472881000000000e+00  1.82917801e+00  -1.43047666e+00  -1.08817977e+00
C     7.076190205655058e+00   1.328594591962387e+00   3.394077300000000e+00 -2.70601160e-01   1.75982887e+00   1.15735437e+00
C     8.436044502558062e+00   1.802852944198077e+00   3.371910000000000e+00  2.36651416e+00   6.77401200e-02   4.62627940e-01
C     2.036198953690612e+00   1.322383760974979e+00   3.657808200000000e+00 -5.50496290e-01  -3.08555201e+00  -1.96728171e+00
