52
Lattice="8.88768389401873 1.33226762955019e-15 0 4.44384194700937 7.69696003302603 0 0 0 30 " PBC="1 1 1" Properties=species:S:1:pos:R:3:force:R:3 Energy="-419.06419269"
C     1.226985915855029e+01   6.469700304099780e+00  -1.613483999999978e-01 -1.89408799e+00   4.31501810e-01   3.55106360e-01
C     8.472807876630943e+00   6.302386788782051e+00  -2.836143000000000e-01 -9.01606110e-01  -4.06978830e-01  -7.47682000e-03
C     9.813675547194844e+00   5.914351091285627e+00  -2.565968999999981e-01  2.28311578e+00  -1.23443237e+00   3.30404990e-01
C     1.022763355487898e+01   4.513509907636848e+00  -2.152469999999980e-01 -2.06362418e+00   5.63482250e-01  -1.62017520e-01
C     6.080306342277215e+00   5.677257321183920e+00  -1.686503999999971e-01 -1.36998030e-01   1.63221349e+00  -5.13023930e-01
C     7.433185717636368e+00   5.316801986623794e+00  -2.826123000000003e-01  8.63056900e-01  -9.04376840e-01   7.00905390e-01
C     7.811297340968846e+00   3.935880612502256e+00  -2.100192000000014e-01 -1.78021194e+00  -4.30599070e-01  -3.51757220e-01
C     9.142070424602309e+00   3.537691778060658e+00  -2.384339999999980e-01  1.96441135e+00   5.11606710e-01   2.02702340e-01
C     9.494253296714119e+00   2.166530457135562e+00  -2.239785000000012e-01 -9.69720000e-04  -8.76421930e-01   3.91631450e-01
C     3.710418408646062e+00   5.090545613213928e+00  -7.680090000000206e-02  7.44716700e-02   6.91353900e-01  -3.53285250e-01
C     5.064564901076832e+00   4.698408205717516e+00  -7.061640000000224e-02  5.93703080e-01   7.69373200e-02  -5.15620310e-01
C     5.423231605220756e+00   3.333162768271477e+00  -1.372965000000015e-01 -6.48659420e-01  -7.13006760e-01   1.06775021e+00
C     6.765880856423063e+00   2.890069869014860e+00  -1.590714000000020e-01  8.13678380e-01   4.36053536e+00  -2.13748990e-01
C     7.113496436707963e+00   1.591755348719293e+00  -1.617384000000008e-01  1.07248338e+00  -4.16184152e+00  -1.72356590e-01
C     8.509508008556438e+00   1.139914469540579e+00  -1.960121999999984e-01 -1.95773340e+00   1.93767985e+00   5.52173100e-02
C     2.697136767279829e+00   4.115290901111933e+00  -1.298834999999983e-01 -8.35258740e-01  -2.14626250e-01   1.51172970e-01
C     3.021538872587599e+00   2.731761027236228e+00  -9.358860000000035e-02 -4.41541530e-01  -4.42194100e-02   2.42122340e-01
C     4.397359493098834e+00   2.352614702817651e+00  -2.567580000000191e-02 -8.67745010e-01  -5.20482430e-01  -1.11148058e+00
C     4.702201583700401e+00   9.674070455946069e-01  -1.340523000000005e-01  1.01644951e+00  -3.83803390e-01   4.16892000e-02
C     6.092016617940599e+00   5.744501427638014e-01  -1.810734000000025e-01 -4.62220850e-01   1.48220580e-01   2.84486970e-01
C     1.086237491992885e+01   6.885272183981931e+00  -1.961814000000004e-01  9.09468340e-01  -2.91304000e-02  -1.38731570e-01
C     1.951545098077751e+00   1.763890932526217e+00  -1.493019000000011e-01  1.83145301e+00  -3.25192810e-01  -5.64498220e-01
C     2.308936152929540e+00   3.626181803285561e-01  -2.463059999999970e-01  5.58787080e-01   1.10016136e+00   5.96770240e-01
C     8.128921835176758e+00   7.662207254859745e+00  -2.190356999999992e-01 -1.77177770e-01   1.22450306e+00  -5.66706700e-02
C     4.372572545952160e+00   7.480306999680364e+00  -1.655346000000009e-01  9.96139160e-01  -7.87367560e-01  -3.98201380e-01
C     5.750833146755644e+00   7.094246265158037e+00  -2.388078000000000e-01 -8.36103960e-01  -1.66207755e+00   5.87754510e-01
C     1.081379608737140e+00   1.197996576592563e+00   3.671764800000000e+00  3.71686210e-01   1.02741390e+00  -8.59812150e-01
C     3.461550414113617e+00   6.121095209201841e-01   3.736371900000000e+00  1.01967538e+00   3.71776950e-01  -7.51248520e-01
C     4.841810655419372e+00   1.001685457088212e+00   3.639097500000000e+00  3.90125080e-01  -6.29375150e-01   1.72850360e-01
C     5.896635418614093e+00   7.928869435703900e-03   3.575103300000000e+00 -1.41531811e+00   5.92204690e-01  -2.09297320e-01
C     7.250284867839745e+00   4.107772895402631e-01   3.515760300000000e+00 -4.58847460e-01   7.33999900e-01   1.86264730e-01
C     1.270622488508351e+01   7.145143183052414e+00   3.514345800000000e+00  1.04816601e+00  -8.50898100e-01   1.43727020e-01
C     5.186579604512420e+00   7.525447669046706e+00   3.602505900000000e+00  8.69283350e-01  -3.49947870e-01   2.53110620e-01
C     6.251572677961105e+00   6.519765719402117e+00   3.640857600000000e+00 -1.77182926e+00   1.49522340e+00  -3.57999940e-01
C     7.581877247862064e+00   6.927841222032649e+00   3.680524500000000e+00  1.11147501e+00   1.14818530e-01  -5.36296930e-01
C     8.621999471114172e+00   5.948334016483681e+00   3.514352400000000e+00 -1.68748857e+00  -1.16903120e-01   8.44278100e-01
C     9.965835450841455e+00   6.326607043817254e+00   3.535144800000000e+00  7.15533180e-01   8.07653810e-01   2.83332990e-01
C     1.097724485589655e+01   5.360238856917896e+00   3.591872700000000e+00  1.96285655e+00  -5.99128590e-01  -1.27030430e+00
C     3.501126073986645e+00   5.766275588775682e+00   3.513054300000000e+00 -1.50054285e+00  -7.62302140e-01   5.88301020e-01
C     4.522660728459561e+00   4.776142037178895e+00   3.535450500000000e+00  2.52611660e-01   4.81821200e-02   8.41697600e-02
C     5.900121927050740e+00   5.183144583581245e+00   3.535292700000000e+00 -6.37664390e-01  -2.18074653e+00   1.30694520e-01
C     6.898517140976834e+00   4.143977394174144e+00   3.515536200000000e+00 -7.81957490e-01   8.89689000e-01  -5.22275000e-03
C     8.234780680747090e+00   4.572297979862784e+00   3.508936800000000e+00  1.69821256e+00  -6.71840450e-01  -3.33016400e-01
C     9.273396797072710e+00   3.570485753842878e+00   3.505539300000000e+00  6.33457540e-01   7.10583290e-01   1.29538150e-01
C     1.066512859417438e+01   3.970826889217664e+00   3.525513600000000e+00 -7.63129060e-01   2.59106580e-01   1.11019381e+00
C     2.809438873888816e+00   3.007102762027812e+00   3.697136400000000e+00  3.08991550e-01  -3.88180140e-01  -1.34034279e+00
C     4.196742649108846e+00   3.385951060154027e+00   3.616526100000000e+00 -9.47233600e-01   2.75151280e-01   1.57009970e-01
C     5.194507415195803e+00   2.373876169447721e+00   3.603615600000000e+00 -2.75168010e-01   2.15137980e-01  -1.56741740e-01
C     6.548370924276652e+00   2.759341851990129e+00   3.513491100000000e+00  5.68379410e-01   6.83374700e-01   1.48888530e-01
C     7.588068893950478e+00   1.798628852533612e+00   3.514689600000000e+00 -5.68559590e-01  -4.47600390e-01   6.65087900e-02
C     8.935909619616996e+00   2.202794530377706e+00   3.556181100000000e+00  7.20951450e-01  -6.37165840e-01   5.50635900e-02
C     2.466438132845001e+00   1.623860754457229e+00   3.662812500000000e+00 -8.67815850e-01  -6.00522300e-01   1.05602548e+00
