64
Lattice="9.86 0 0 4.93 8.53901048131456 0 0 0 30 " PBC="1 1 1" Properties=species:S:1:pos:R:3:force:R:3 Energy="-513.87620685"
C     5.159328218400000e+00   6.638553962033594e+00  -2.834508000000007e-01 -1.28757501e+00   5.00423570e-01   7.17556320e-01
C     6.384678190099999e+00   7.371582157255316e+00  -2.360384999999994e-01 -5.84428100e-01  -9.69280470e-01  -2.04741510e+00
C     9.597946688099999e+00   1.815280486159140e+00   3.715529700000000e+00  1.45397867e+00   3.33053308e+00   8.61723580e-01
C     1.087532442880000e+01   2.575311594221766e+00   3.890985000000000e+00 -5.03694430e-01  -2.25137915e+00  -2.89441370e-01
C     7.588275966499999e+00   6.676700027380583e+00  -4.493819999999999e-01  1.68815013e+00  -4.10567000e-01   7.95467210e-01
C     8.856571365399999e+00   7.410138095105345e+00  -4.197161999999999e-01 -1.32458183e+00  -4.55713000e-02   3.44159050e-01
C     2.258002857500000e+00   1.811564650358663e+00   3.983251500000000e+00 -6.47744500e-02   3.79043210e+00  -3.13786490e-01
C     3.488864322700000e+00   2.617953277806266e+00   3.909210000000000e+00 -1.23858850e-01  -1.98681774e+00  -8.04895020e-01
C     1.007943055320000e+01   6.675652546965002e+00  -2.626266000000008e-01 -1.34315676e+00   9.44114590e-01  -3.14293060e-01
C     1.126783145670000e+01   7.399414720354456e+00  -1.142871000000021e-01  1.67833105e+00  -7.11201660e-01  -8.07148180e-01
C     4.747856072099999e+00   1.945085741630231e+00   3.696128100000000e+00 -1.63666961e+00  -1.27376430e+00   1.15748586e+00
C     5.991977314600000e+00   2.607001740695352e+00   3.619815000000000e+00 -1.48400357e+00  -3.56866360e-01   2.48469620e-01
C     1.253018093050000e+01   6.724216034317381e+00  -2.063583000000015e-01 -8.21539290e-01  -2.65685937e+00   9.23087560e-01
C     1.376433110010000e+01   7.354844672033258e+00  -2.228025000000002e-01  1.14568580e+00   2.20684260e-01  -4.31184210e-01
C     7.152828046999999e+00   1.874415610046179e+00   3.662613000000000e+00  2.57725927e+00  -1.23692710e+00  -2.81675570e-01
C     8.379330554099999e+00   2.590387473394521e+00   3.622646100000000e+00  1.65712212e+00  -8.27760100e-02   7.83467760e-01
C     1.449244048300000e+00   2.178177757796040e-01  -4.078841999999980e-01 -1.70457968e+00   1.67907718e+00   1.05223272e+00
C     2.643431785800000e+00   9.551438257561200e-01  -3.795363000000016e-01  5.60179230e-01   1.30334724e+00  -1.08512325e+00
C     1.091690005550000e+01   3.985660248804634e+00   3.840885300000001e+00 -1.47406521e+00   3.59064250e-01  -2.98022950e-01
C     1.208914347560000e+01   4.713677923456903e+00   3.755359800000000e+00  1.74456303e+00   2.42536210e-01   3.63265950e-01
C     3.884307954400000e+00   3.308788002103584e-01  -4.252686000000026e-01  2.16239489e+00  -3.07343607e+00   6.12738370e-01
C     5.176249358800000e+00   9.831495599877952e-01  -3.735435000000003e-01 -2.57412229e+00   9.86984200e-01   3.43933550e-01
C     3.454499018200000e+00   4.007432419995805e+00   3.811035900000000e+00  1.46452805e+00   7.77317470e-01  -5.66392620e-01
C     4.727605554800000e+00   4.696197885883503e+00   3.653957400000000e+00  5.65970240e-01  -2.94661150e-01   6.29614620e-01
C     6.363073500400000e+00   2.524295446889216e-01  -1.691580000000030e-01 -3.79639000e-02   1.14377924e+00  -1.19288464e+00
C     7.598137741300000e+00   9.365748081762072e-01  -3.284273999999989e-01  6.19291810e-01   5.17292240e-01   5.40606420e-01
C     6.023832805400000e+00   3.996556623907848e+00   3.616559700000000e+00 -2.07544155e+00   1.89839472e+00  -3.57039020e-01
C     7.221830742700000e+00   4.758596961136418e+00   3.574301400000000e+00  7.33168130e-01  -2.61851275e+00   8.80537260e-01
C     8.824438660700000e+00   2.095839495341592e-01  -3.256934999999999e-01  6.23074770e-01   1.73487040e+00   3.61413600e-02
C     1.004966449500000e+01   9.460023026966512e-01  -4.184355000000011e-01  5.59534940e-01  -2.91246630e-01   1.34463500e-01
C     8.475077316600000e+00   4.038865371473733e+00   3.696165000000000e+00 -8.38511470e-01  -4.91479370e-01  -8.89367830e-01
C     9.721233219400000e+00   4.747890664406490e+00   3.766272300000000e+00 -2.27269725e+00  -4.90518940e-01  -2.88103140e-01
C     2.656524337500000e+00   2.376075900708110e+00  -4.193522999999999e-01 -8.54838480e-01   1.00199840e+00   8.70832500e-01
C     3.876552374199999e+00   3.125155557049926e+00  -3.653183999999996e-01 -1.11965510e-01  -1.98678494e+00   1.94282690e-01
C     1.210605786190000e+01   6.134739791368188e+00   3.659504700000000e+00  5.98378500e-02  -8.64527960e-01   5.30710500e-01
C     1.334190853640000e+01   6.787262195784471e+00   3.787848600000000e+00  6.11045630e-01   2.02843979e+00  -4.34839400e-01
C     5.116682929600000e+00   2.413527061382237e+00  -4.238597999999989e-01  1.71038070e+00  -1.85833850e-01   4.47086220e-01
C     6.385082351499999e+00   3.107329433381774e+00  -4.013451000000003e-01 -5.22724300e-01  -4.70709400e-01   3.59870800e-02
C     4.717493336000000e+00   6.110525633959947e+00   3.746862300000000e+00  1.61492971e+00   7.58731000e-02  -4.41452300e-01
C     5.999171367800000e+00   6.854929925893649e+00   3.734185200000000e+00 -2.78288655e+00   1.74039950e-01   1.24506694e+00
C     7.636237520800000e+00   2.362509035467381e+00  -4.047207000000022e-01 -7.54651200e-01   1.49995993e+00   2.43833260e-01
C     8.873340464600000e+00   3.137584086803566e+00  -3.795411000000009e-01 -2.05614934e+00  -1.17322605e+00  -7.83450190e-01
C     7.202348023599999e+00   6.124057916208232e+00   3.659584500000000e+00  4.55109790e-01   3.07612242e+00  -7.08684390e-01
C     8.420468939099999e+00   6.886994166416364e+00   3.554659200000000e+00  3.79716290e-01  -1.98364250e-01   1.53106084e+00
C     1.005824096950000e+01   2.384843244328345e+00  -4.321637999999979e-01  9.01887700e-02  -3.26872690e-01   6.88441700e-01
C     1.126599641210000e+01   3.094001233483961e+00  -3.330510000000011e-01  1.84718414e+00   3.96976360e-01  -5.22753830e-01
C     9.651798655699999e+00   6.187469547323865e+00   3.682068000000000e+00  6.16607700e-01  -1.37382804e+00  -1.03117081e+00
C     1.089752061990000e+01   6.842581748228627e+00   3.592647300000000e+00 -7.27271360e-01   2.04898928e+00   5.78909700e-01
C     3.865680343800000e+00   4.499430564129301e+00  -1.623783000000003e-01  1.33554599e+00   2.27343619e+00  -1.57745858e+00
C     5.114606857300000e+00   5.229843602001418e+00  -3.076808999999976e-01  2.40663300e-02  -4.29601170e-01   7.33711180e-01
C     1.338521207880000e+01   8.234630620232016e+00   3.805263900000000e+00 -2.25243506e+00  -6.19165420e-01  -3.91757920e-01
C     9.633122632499999e+00   4.299520715738248e-01   3.815896200000000e+00  7.32377730e-01  -4.16009010e-01   7.11255380e-01
C     6.342172568199999e+00   4.535995290125499e+00  -3.873633000000005e-01  9.11475460e-01  -8.14678830e-01  -3.81536490e-01
C     7.577186473799999e+00   5.233045133200684e+00  -4.886486999999988e-01 -7.62607000e-03   1.43474517e+00   6.89539040e-01
C     5.928859066900000e+00   8.292636203812760e+00   3.987162900000000e+00  1.93101836e+00  -1.95916199e+00  -1.99049311e+00
C     2.262505722300000e+00   4.348951339604872e-01   3.938636100000000e+00 -7.64767400e-01  -4.81076310e-01  -3.32436900e-01
C     8.818024188399999e+00   4.568215367589474e+00  -4.302293999999982e-01  7.33101740e-01  -9.56938120e-01   1.46744360e-01
C     1.005161426070000e+01   5.278211631403911e+00  -3.197486999999981e-01  7.51141530e-01  -1.43600206e+00   4.43985200e-02
C     8.424397754699999e+00   8.322508565735363e+00   3.687700800000000e+00 -6.57708380e-01  -1.40896527e+00   4.75096150e-01
C     4.695299708499999e+00   5.051131249396232e-01   3.714390000000000e+00  2.41111412e+00  -2.77754090e-01  -1.05119997e+00
C     1.129597160090000e+01   4.525721408886278e+00  -2.563409999999990e-01 -3.85671000e-01   1.00354663e+00  -5.59693000e-02
C     1.254808018290000e+01   5.272196752421799e+00  -1.968116999999978e-01 -1.98775292e+00  -6.61553860e-01   2.44517960e-01
C     1.088973501600000e+01   8.285841627783720e+00   3.615669600000000e+00 -1.44367630e-01   5.75627700e-02   5.92332930e-01
C     7.220678996099999e+00   4.206030505596920e-01   3.734368200000000e+00 -1.23328060e+00   7.27191470e-01  -7.47959870e-01
