64
Lattice="9.86 0 0 4.93 8.53901048131456 0 0 0 30 " PBC="1 1 1" Properties=species:S:1:pos:R:3:force:R:3 Energy="-516.38861168"
C     4.932435173499999e+00   8.490557999783860e+00  -7.445429999999931e-02  7.14338960e-01   8.08442700e-02  -4.32889930e-01
C     1.236432217300000e+00   6.562194543937031e-01  -7.686269999999951e-02  7.49884720e-01   8.03193760e-01   9.44565800e-02
C     1.203898950100000e+00   7.485589474827464e-01   3.538200300000000e+00  1.55256637e+00   5.10079850e-01  -1.76036020e-01
C     2.474827018300000e+00   1.467315979879350e+00   3.527926200000000e+00 -1.81313125e+00  -1.10421600e-01   7.98275200e-02
C     7.429632017499999e+00   8.506734813577800e+00  -5.846430000000069e-02 -1.90240402e+00  -1.92768883e+00  -7.36715390e-01
C     3.700717811000000e+00   6.368834628924768e-01  -1.904937000000011e-01  1.43447136e+00   1.83788822e+00   1.07909455e+00
C     3.686780306600000e+00   7.516320519643936e-01   3.569834700000000e+00  4.77364500e-02   1.22108759e+00  -1.97248540e-01
C     4.905820075499999e+00   1.507075320476326e+00   3.551497200000000e+00  3.31417000e-03  -2.07413852e+00   2.46591010e-01
C     9.880160248999999e+00   8.506342787606664e+00  -1.659345000000023e-01  7.99374500e-02  -1.25625958e+00  -1.80427970e-01
C     6.185279410100001e+00   6.751962097240360e-01  -1.114151999999997e-01 -2.90970900e-02  -2.78331400e-01  -8.53396980e-01
C     6.116930678899999e+00   7.617182457532649e-01   3.601496700000000e+00  1.16377605e+00   1.98481090e-01  -5.76120360e-01
C     7.366384308000001e+00   1.454620776828419e+00   3.528844500000000e+00  5.79647570e-01   4.51034520e-01   6.09798390e-01
C     1.235860430970000e+01   8.488320608257890e+00  -2.057472000000011e-01 -1.19830160e+00   2.20999790e-01   8.00654050e-01
C     8.635694399500000e+00   6.651908803644104e-01  -1.216670999999998e-01  6.09093600e-01  -6.21225780e-01   3.89036970e-01
C     8.627008972000000e+00   7.808431529154256e-01   3.552205800000000e+00 -1.18745804e+00  -5.07607290e-01  -1.22573560e-01
C     9.852493138299998e+00   1.489763501409383e+00   3.541719900000000e+00 -1.51835200e-01  -8.35038660e-01  -3.14657170e-01
C     1.245396978600000e+00   2.094754187109584e+00  -1.521630000000016e-01 -4.06176140e-01  -1.01859075e+00   1.27449790e-01
C     2.487013830400000e+00   2.780684872298133e+00  -1.996968000000017e-01 -2.95666370e-01   4.65175410e-01   1.04039500e-02
C     2.451640538099999e+00   2.892269501816895e+00   3.518905500000000e+00 -4.83673500e-02   3.87092380e-01   1.55837430e-01
C     3.680942792200000e+00   3.621296999848528e+00   3.547734300000000e+00  1.47743300e-02  -5.00485940e-01  -2.73880160e-01
C     3.730322461000000e+00   2.079116526437351e+00  -1.506770999999993e-01 -1.19641878e+00  -3.84356700e-01  -5.64499630e-01
C     4.930622708300000e+00   2.802500592442751e+00  -1.583603999999994e-01  1.12863408e+00   1.24462630e-01   2.66189300e-02
C     4.913848925600000e+00   2.896988585958667e+00   3.529255500000000e+00  3.73421800e-02   1.02628229e+00   2.51750610e-01
C     6.161724806800000e+00   3.590307393794721e+00   3.561545100000000e+00 -4.23674890e-01   3.18593300e-01  -3.76574740e-01
C     6.173114832300000e+00   2.102070667459162e+00  -1.245903000000013e-01  2.86850830e-01  -6.26775110e-01   2.31704070e-01
C     7.417916217599998e+00   2.788911184214355e+00  -1.110155999999982e-01 -3.86819740e-01   2.42498300e-02   3.96893990e-01
C     7.395034411399999e+00   2.876432796810373e+00   3.558560400000000e+00 -7.03327060e-01   6.07764840e-01  -1.15179630e-01
C     8.603760225900000e+00   3.620917611612902e+00   3.566446200000000e+00  5.44724970e-01   1.26510930e-01  -6.26468170e-01
C     8.657519263000001e+00   2.068121184202674e+00  -4.080539999999999e-02 -1.61049577e+00   6.28962480e-01  -1.02165186e+00
C     9.843984254100000e+00   2.786702056813074e+00  -1.543260000000011e-01  2.26294419e+00   2.58555430e-01   4.82430200e-01
C     9.843607503499999e+00   2.895210507806417e+00   3.496919700000000e+00 -2.71785500e-01   1.11859564e+00   6.86394590e-01
C     1.106499341010000e+01   3.613257606871713e+00   3.536294400000000e+00  6.85975370e-01  -5.48918020e-01  -1.59437090e-01
C     2.473850779700000e+00   4.205019572146193e+00  -2.847575999999989e-01  7.81930150e-01   4.55502570e-01   3.92027100e-02
C     3.729895572299999e+00   4.912519968587431e+00  -2.916401999999998e-01 -9.37190660e-01   8.49674450e-01   6.53266030e-01
C     3.679965518300000e+00   5.039592228364294e+00   3.559237800000000e+00  5.95221980e-01  -5.04950570e-01  -4.62845000e-02
C     4.925186150800000e+00   5.744206183092977e+00   3.577325100000000e+00 -9.86050570e-01   5.61351810e-01  -3.04610390e-01
C     4.960404098800000e+00   4.231951696590217e+00  -1.880309999999987e-01 -6.90822810e-01  -9.47026940e-01   2.86545370e-01
C     6.177826186800000e+00   4.921898107627301e+00  -6.294809999999984e-02 -3.89910400e-02   8.23629000e-01  -1.24148344e+00
C     6.139226406700000e+00   5.014978530655694e+00   3.532541100000000e+00  3.95266940e-01   4.62013790e-01   7.43609670e-01
C     7.359365368400000e+00   5.757978411535751e+00   3.605586000000000e+00  5.66244690e-01  -1.06747164e+00  -7.45557740e-01
C     7.392963416999999e+00   4.208408278455181e+00  -1.140161999999982e-01  1.26647252e+00  -4.08572500e-02   2.31110990e-01
C     8.646033398300000e+00   4.908657091026489e+00  -1.674551999999991e-01 -4.74254470e-01   4.18747190e-01   4.36477540e-01
C     8.601203330699999e+00   5.072518823555383e+00   3.545671800000000e+00  5.96227840e-01  -1.52293471e+00   8.18410670e-01
C     9.865309363500000e+00   5.752283489276324e+00   3.607530900000000e+00 -1.22463386e+00   3.10371880e-01  -4.80528460e-01
C     9.882474292399998e+00   4.202471958369484e+00  -1.841207999999988e-01 -4.01044310e-01   8.33130940e-01  -4.64280340e-01
C     1.111447626380000e+01   4.947393031217437e+00  -2.865006000000001e-01 -3.69791550e-01  -1.34689736e+00   1.64849270e-01
C     1.108113807550000e+01   5.030741373221565e+00   3.589805100000000e+00 -1.99354380e-01  -2.74137450e-01  -3.30158370e-01
C     1.231072597380000e+01   5.716067069517605e+00   3.554758500000000e+00  2.61727790e-01   1.86864222e+00   5.24955410e-01
C     3.706695731800000e+00   6.343293082337411e+00  -2.069967000000013e-01  9.87698210e-01   3.43056800e-01  -3.99948050e-01
C     4.971894597700000e+00   7.082076058282025e+00  -1.467485999999987e-01 -2.02390603e+00  -9.79781090e-01   6.91246600e-02
C     4.895397365300000e+00   7.194742153478080e+00   3.576756300000000e+00  1.07588090e+00  -1.74907391e+00  -2.78669020e-01
C     6.153793620000000e+00   7.856334353265799e+00   3.530739900000000e+00 -1.02266278e+00   1.25228977e+00   5.12268410e-01
C     6.176106011200000e+00   6.359883013458374e+00  -1.495742999999976e-01  4.01787190e-01  -6.64836040e-01   9.39131000e-01
C     7.407573817099999e+00   7.043942203720022e+00  -8.628900000000073e-02  7.13386400e-02   1.48100712e+00  -4.57021300e-02
C     7.372749480300000e+00   7.150300702654709e+00   3.587079600000000e+00  2.97588830e-01   1.32964674e+00  -6.84771000e-02
C     8.604004408800000e+00   7.895502111216720e+00   3.599266500000000e+00  5.22153410e-01  -1.58949417e+00  -1.99610560e-01
C     8.620658589700000e+00   6.337850402447564e+00  -1.300755000000002e-01  1.50597511e+00   5.21578500e-02  -5.08763840e-01
C     9.875170497399999e+00   7.065528224482728e+00  -2.237627999999994e-01 -6.75597910e-01   2.56429810e-01   3.32908470e-01
C     9.852738849500000e+00   7.177962827104670e+00   3.588241500000000e+00 -3.17589670e-01  -2.69546310e-01   3.87914570e-01
C     1.108351300440000e+01   7.874658557415249e+00   3.608548500000000e+00 -3.94179200e-02   2.79150120e-01  -3.02007800e-02
C     1.110083830620000e+01   6.362253955108251e+00  -3.094856999999998e-01  1.89297730e-01   2.32302000e-03   5.90092900e-01
C     1.234052836610000e+01   7.064552471755178e+00  -2.365104000000002e-01  2.45262010e-01   3.49129000e-03  -3.24782810e-01
C     1.233366265090000e+01   7.167326464870571e+00   3.604571400000000e+00 -1.53279273e+00  -5.54734430e-01  -3.53365460e-01
C     1.353008791820000e+01   7.894273859949276e+00   3.570540000000000e+00  9.19635010e-01   1.82011870e-01   1.51467620e-01
