64
Lattice="9.86 0 0 4.93 8.53901048131456 0 0 0 30 " PBC="1 1 1" Properties=species:S:1:pos:R:3:force:R:3 Energy="-514.59486628"
C     4.971644548100000e+00   8.519351030781792e+00  -2.810088000000022e-01 -2.25389921e+00   1.47499900e-02  -2.95147910e-01
C     1.232171316900000e+00   7.148061176376119e-01  -3.263232000000009e-01  3.11666390e-01  -5.63204670e-01   8.30334210e-01
C     2.934878300000000e-02   1.535860580974720e-02   3.631097700000000e+00 -1.57150961e+00   4.34392720e-01  -4.55310090e-01
C     1.239720971000000e+00   7.064673469533680e-01   3.627347400000000e+00 -5.83701680e-01   8.44005130e-01   1.53666440e-01
C     2.452729131400000e+00   2.675767245991840e-02  -2.922092999999997e-01  1.80590509e+00  -2.84600854e+00  -5.63767080e-01
C     3.737672844500000e+00   6.538795947419735e-01  -2.524911000000003e-01 -1.15624218e+00   2.52791437e+00   9.40143760e-01
C     2.429959285500000e+00   3.919106944953200e-02   3.533872800000000e+00  3.05888874e+00  -6.20485730e-01  -2.87250780e-01
C     3.675907635300000e+00   7.861430605500471e-01   3.520676400000000e+00 -2.91426190e-01  -1.14312793e+00   5.24948260e-01
C     9.904764843700001e+00   8.525479137042868e+00  -1.706316000000001e-01 -9.46069040e-01  -3.46577090e-01  -2.30234220e-01
C     6.213317158200001e+00   7.248169973540496e-01  -1.711836000000027e-01 -1.14192438e+00  -2.15072600e+00  -3.89500570e-01
C     9.813760248199998e+00   8.535634155256208e+00   3.537987900000000e+00 -1.72191740e-01   2.50501878e+00  -6.62343130e-01
C     6.090795516399999e+00   7.143785693828784e-01   3.497457300000000e+00  3.36086242e+00  -2.75379210e-01   7.02269400e-01
C     1.234756145480000e+01   8.528607574312426e+00  -1.898705999999990e-01  4.84104990e-01  -1.10168263e+00   6.43690340e-01
C     8.642949880500000e+00   6.859792721581800e-01  -2.841798000000004e-01  3.35609860e-01   5.07308120e-01   4.27475640e-01
C     1.231884055660000e+01   8.530808760433960e+00   3.553923300000000e+00  5.28789900e-02   2.35995158e+00  -2.69472030e-01
C     8.676837467999999e+00   7.488934205232480e-01   3.604738500000000e+00 -3.21945611e+00  -1.07297371e+00  -1.51171640e-01
C     1.105639608170000e+01   2.107324379047087e+00  -1.428275999999968e-01  1.12985681e+00   1.54890700e-02  -6.20597830e-01
C     2.439799023200000e+00   2.790713940106893e+00  -4.040129999999920e-02  1.52427928e+00   4.04775490e-01   2.83877470e-01
C     1.230616592100000e+00   2.111978822879526e+00   3.707542500000000e+00  3.66299220e-01   1.96095442e+00   4.39680800e-02
C     2.428007252000000e+00   2.913392366651166e+00   3.692403000000000e+00  1.76698462e+00  -1.40879255e+00  -3.42281130e-01
C     3.708552813500000e+00   2.105397636722380e+00  -9.440820000000016e-02  3.16471550e-01  -9.36391670e-01  -8.55294050e-01
C     4.964323843200000e+00   2.809148468271745e+00  -1.652681999999999e-01 -1.89776037e+00   8.02552870e-01   6.83437500e-02
C     3.721671790000000e+00   2.221454658370147e+00   3.607034100000000e+00 -2.23437996e+00  -1.94754732e+00   1.90907930e-01
C     4.956394529800000e+00   2.854998855824315e+00   3.618540900000000e+00 -6.28972710e-01   1.27118407e+00  -8.81746080e-01
C     6.174892787500000e+00   2.109452983579541e+00  -2.648864999999994e-01 -1.59128440e-01   2.10512110e-01   3.15867230e-01
C     7.381297262199999e+00   2.804529034382275e+00  -3.083795999999985e-01  8.06062960e-01   5.56025100e-01   2.62348720e-01
C     6.168169697199999e+00   2.129911342618259e+00   3.534177300000000e+00 -4.57577720e-01   1.17368961e+00   3.18794330e-01
C     7.379367413700000e+00   2.915529766364415e+00   3.573312300000000e+00  2.45067270e-01  -2.19102649e+00  -8.41588190e-01
C     8.600563909700000e+00   2.128980675866044e+00  -2.663171999999996e-01  1.41907102e+00  -1.67225478e+00  -5.03449290e-01
C     9.857809946100000e+00   2.802732853527807e+00  -2.061236999999991e-01 -1.01989259e+00   1.53201457e+00   7.93400080e-01
C     8.591545608600001e+00   2.164840335766909e+00   3.591855000000000e+00  1.63687363e+00   2.75225100e-02   8.21746520e-01
C     9.865889772399999e+00   2.824577264747639e+00   3.732178500000000e+00 -1.31472598e+00   1.07129965e+00  -8.68577660e-01
C     2.510506167800000e+00   4.195759271450947e+00   8.976479999999999e-02 -1.78106854e+00   2.14351102e+00  -6.64426460e-01
C     3.759899700200000e+00   4.947567397811438e+00  -4.442700000002020e-03 -1.98820505e+00  -4.82719230e-01   1.52485240e-01
C     1.233458885000000e+01   4.328415360960891e+00   3.664069500000000e+00 -1.02559654e+00  -5.73638460e-01   4.92207900e-02
C     3.713879481300000e+00   5.013622194231051e+00   3.588081300000000e+00 -1.39489405e+00   5.38993600e-01  -3.02990000e-04
C     4.958811215799999e+00   4.252946220096974e+00  -1.644752999999994e-01  9.76922220e-01  -1.42289001e+00   4.95660920e-01
C     6.207294374400000e+00   4.926747411678893e+00  -2.157147000000030e-01 -1.38643960e+00   1.59618130e+00  -9.27392130e-01
C     4.890385625900000e+00   4.287350661831838e+00   3.528005100000000e+00  2.12156546e+00  -4.98051130e-01   7.02815420e-01
C     6.113669927600000e+00   4.987345524231470e+00   3.500128500000000e+00  1.26004198e+00   1.95955468e+00  -8.95581040e-01
C     7.417368741100000e+00   4.208449692656009e+00  -2.841629999999995e-01 -1.06324173e+00   5.23796290e-01   1.52079760e-01
C     8.606599560799999e+00   4.919575155216322e+00  -2.162663999999985e-01  1.93309213e+00   5.45524220e-01   4.46102070e-01
C     7.386987221699999e+00   4.322472295056916e+00   3.456459600000000e+00 -1.29276513e+00  -2.80513190e-01   1.16295506e+00
C     8.605276348800000e+00   5.018961381313880e+00   3.549747000000000e+00  1.43739391e+00  -3.93188750e-01  -4.28793160e-01
C     9.865859847299999e+00   4.240534682974189e+00  -7.479840000000237e-02 -4.37961480e-01  -4.50030720e-01  -5.70604200e-01
C     1.107045269490000e+01   4.957936062066988e+00   5.464800000000000e-02  2.20688752e+00   5.32060850e-01  -6.74178100e-02
C     9.830207122600001e+00   4.254915315913663e+00   3.671769900000000e+00  1.54901217e+00   1.34908298e+00  -1.02963840e-01
C     1.110411976350000e+01   5.013587525848502e+00   3.649721700000000e+00 -1.97269790e+00   4.88140780e-01   2.30940000e-01
C     3.710409451500000e+00   6.366418515909452e+00  -2.494860000000187e-02 -4.48275090e-01   3.38464800e-01  -3.24986420e-01
C     4.900360987899999e+00   7.100852146866078e+00  -2.301512999999993e-01  1.62577228e+00  -5.68319970e-01  -2.12027000e-02
C     1.354656540790000e+01   6.437290765871565e+00   3.575131500000000e+00 -7.77585000e-02  -4.10720640e-01  -2.32191400e-01
C     4.898915659800000e+00   7.150390618435065e+00   3.532310700000000e+00  1.35670172e+00  -3.10904250e-01   1.27932100e-01
C     6.137932084499999e+00   6.376281243794061e+00  -3.277217999999991e-01  1.30564474e+00  -3.65010710e-01   7.34844500e-01
C     7.395859446899999e+00   7.088596788244971e+00  -3.434424000000007e-01 -8.54885510e-01   5.36592540e-01   5.00342790e-01
C     6.142769055400001e+00   6.445903126451588e+00   3.446941800000000e+00  7.20466180e-01  -1.03658912e+00   5.62314120e-01
C     7.430171507399999e+00   7.149035648252097e+00   3.458387100000000e+00 -1.72345811e+00  -1.06495050e-01  -1.03503090e-01
C     8.619201577499998e+00   6.333075729347567e+00  -2.047236000000012e-01 -5.56422760e-01   1.98071060e+00  -4.60562000e-01
C     9.826389133399999e+00   7.106874113226889e+00  -1.286966999999990e-01  1.79453984e+00  -5.27867730e-01   2.09965690e-01
C     8.671591159199998e+00   6.444721498181367e+00   3.459064800000000e+00 -2.11952908e+00  -9.91949800e-01   4.05893150e-01
C     9.866677142699999e+00   7.146481374047216e+00   3.512856300000000e+00 -5.02242310e-01  -8.23929500e-02   2.98648800e-01
C     1.109550734930000e+01   6.447832345089336e+00   4.823399999999999e-03 -1.35854167e+00  -3.47812286e+00   1.90296160e-01
C     1.233277322960000e+01   7.072927277063648e+00   3.918600000000000e-03  4.79077730e-01   2.05308611e+00  -7.42528710e-01
C     1.107047374600000e+01   6.467326137504232e+00   3.605485800000000e+00  9.86962360e-01  -2.38410345e+00  -3.90907520e-01
C     1.230521650160000e+01   7.140289310597643e+00   3.560594700000000e+00  6.37316810e-01  -1.50783300e-01   4.38111080e-01
