64
Lattice="9.86 0 0 4.93 8.53901048131456 0 0 0 30 " PBC="1 1 1" Properties=species:S:1:pos:R:3:force:R:3 Energy="-514.3491546"
C     4.954902366700000e+00   7.735671389365119e+00  -2.594273999999999e-01  1.31367437e+00  -8.63268070e-01   3.50485880e-01
C     6.201603774000000e+00   8.392003729477368e+00  -1.088276999999991e-01  3.06565250e-01   2.00664438e+00  -1.49933158e+00
C     9.795794440800000e+00   8.529079610811761e-01   3.388927200000000e+00  1.29681717e+00  -7.18831710e-01   6.92555410e-01
C     1.220274388800000e+00   1.517368158318813e+00   3.438886500000000e+00 -1.51703058e+00   2.41126710e+00   9.16006640e-01
C     7.454064900299999e+00   7.701261909614073e+00  -3.266193000000008e-01 -1.35668774e+00   1.02191400e-01   1.18180764e+00
C     8.674911612799999e+00   8.402571950407834e+00  -2.490071999999977e-01  1.03173788e+00   8.59935790e-01   3.10149590e-01
C     2.443543703300000e+00   8.285561548239977e-01   3.450942600000000e+00 -1.00538478e+00  -4.25628010e-01  -1.07236670e-01
C     3.630410242900000e+00   1.571191334566454e+00   3.543850800000000e+00  5.33389160e-01   3.05310300e-01   8.53092000e-02
C     9.927665038800001e+00   7.731037182987519e+00  -2.018127000000014e-01 -3.17181580e-01  -2.38634425e+00  -4.74117570e-01
C     1.118094355910000e+01   8.430364977888454e+00  -1.637145000000011e-01 -2.43823869e+00  -7.21225910e-01  -4.02418500e-01
C     4.839516061799999e+00   8.491482347668320e-01   3.491439000000000e+00  2.39726578e+00  -7.77036960e-01   6.25137400e-01
C     6.122790131800000e+00   1.499693089746051e+00   3.461693400000000e+00 -1.08815010e+00   1.73134468e+00   8.36771830e-01
C     1.237887425120000e+01   7.703640792543696e+00  -2.154138000000003e-01  3.02486180e-01   7.95445000e-02   8.67571490e-01
C     1.359580886080000e+01   8.434923528633201e+00  -2.129327999999973e-01 -4.06640500e-02  -1.53110098e+00   1.03245980e-01
C     7.353496154099999e+00   8.113037672699960e-01   3.545622900000000e+00 -2.05717570e-01   1.34670500e+00   1.81698690e-01
C     8.579399469000000e+00   1.565903723106923e+00   3.500797800000000e+00 -7.48208400e-02  -9.09543310e-01  -4.14770650e-01
C     1.253560220500000e+00   1.325744480307447e+00  -1.731180000000165e-02  1.25723842e+00  -2.07841469e+00   3.38975980e-01
C     2.534198367400000e+00   2.012607027709678e+00   5.931540000000000e-02 -1.23418742e+00  -9.82127040e-01  -1.15882789e+00
C     1.106603950680000e+01   2.991552832838170e+00   3.705131700000000e+00 -8.97098540e-01  -1.64995857e+00  -7.18134810e-01
C     2.419241317600000e+00   3.708836373586344e+00   3.833136000000000e+00  3.48148910e-01  -1.30792897e+00  -4.65672340e-01
C     3.768477308600000e+00   1.296051864555448e+00  -1.509131999999980e-01 -1.65500392e+00   4.29329550e-01   3.39542460e-01
C     4.957020294699999e+00   2.045857166007855e+00  -2.468237999999978e-01  9.68196360e-01  -1.03612580e+00   4.80387370e-01
C     3.650379306500000e+00   3.005569533150985e+00   3.701537700000000e+00 -1.61416490e-01  -1.46244151e+00  -3.83130410e-01
C     4.890889521200000e+00   3.655359624993877e+00   3.598145400000000e+00  3.16299450e-01   1.73046215e+00   3.76914650e-01
C     6.170182172500000e+00   1.292506211233838e+00  -1.900412999999972e-01  1.47507535e+00   8.06539500e-01  -6.55940450e-01
C     7.431717801900000e+00   1.952954269007342e+00  -2.161926000000030e-01 -1.11862061e+00   2.39585059e+00   2.58723070e-01
C     6.122493444399999e+00   2.945999773630513e+00   3.528985500000000e+00  2.50059220e-01  -3.56075680e-01  -1.34118618e+00
C     7.353046932500000e+00   3.673608942021418e+00   3.393399000000000e+00 -1.09092252e+00   1.31430211e+00   8.48523930e-01
C     8.643799023699998e+00   1.275737814793842e+00  -1.437245999999988e-01  8.66603690e-01   9.43315790e-01  -1.21530710e-01
C     9.872092599799998e+00   1.998925483558203e+00  -5.008769999999885e-02  1.01520395e+00   3.76653180e-01   8.59198700e-02
C     8.580251915300000e+00   2.970093530990987e+00   3.493252500000000e+00  2.43448250e-01   9.15590190e-01   8.83563000e-02
C     9.806665435899999e+00   3.701129489677620e+00   3.676456200000000e+00  4.69877640e-01  -1.83102140e+00  -1.06167660e-01
C     2.500195467200000e+00   3.417303113525101e+00   6.711090000000000e-02  9.84437390e-01   6.98327120e-01   2.46503290e-01
C     3.734148239600000e+00   4.122050020646959e+00  -5.644559999999998e-02  1.33411443e+00   2.09023310e+00   1.58262790e-01
C     1.227324022580000e+01   5.094894702787490e+00   3.881935500000000e+00  1.31351951e+00   1.30586376e+00   2.42479500e-02
C     3.671645009400000e+00   5.844001940133157e+00   3.800149500000000e+00 -9.36271360e-01  -1.01770050e+00  -2.28258420e-01
C     4.987287783199999e+00   3.469736053476493e+00  -2.662295999999991e-01 -7.92438050e-01  -1.03208594e+00   4.95284690e-01
C     6.230507427299999e+00   4.158133914963028e+00  -3.538569000000003e-01 -5.17102390e-01  -9.39061910e-01   3.29871080e-01
C     4.888072617800000e+00   5.121034321668866e+00   3.607291800000000e+00 -8.44455150e-01  -5.31833370e-01  -4.98604710e-01
C     6.049861085500000e+00   5.862003796636988e+00   3.314042400000000e+00  2.36915338e+00  -1.57986273e+00   1.21920345e+00
C     7.457682830099999e+00   3.404982943814452e+00  -2.651919000000014e-01 -9.09087420e-01  -4.03854230e-01  -8.99532700e-02
C     8.666238608900001e+00   4.111990127010365e+00  -1.858865999999999e-01  8.81456530e-01   3.65492930e-01  -7.91833500e-02
C     7.303459119099999e+00   5.147359322467763e+00   3.354616500000000e+00  1.28778564e+00  -1.94966905e+00  -2.04823920e-01
C     8.597470236099999e+00   5.791671895258048e+00   3.439446000000000e+00 -1.37574516e+00   1.05698399e+00   8.88584280e-01
C     9.930994514299998e+00   3.417477736289417e+00  -4.020990000000069e-02 -1.44637956e+00   8.06216410e-01   2.06093260e-01
C     1.114595308130000e+01   4.151220048957581e+00   8.842050000000000e-02 -1.64893800e-02  -1.63101710e-01  -8.43765930e-01
C     9.796694855999998e+00   5.094126533404709e+00   3.769998600000000e+00 -2.55989100e-02   1.13984740e-01  -1.52549322e+00
C     1.104790583290000e+01   5.764610746365671e+00   3.807523800000000e+00 -4.71314000e-01   1.80800456e+00   4.52031990e-01
C     3.808011718099999e+00   5.585701569568920e+00   1.207320000000000e-02 -2.47002625e+00  -6.21401100e-01  -1.99261462e+00
C     4.988304349199999e+00   6.306030206844367e+00  -3.327882000000031e-01 -1.34036718e+00  -6.93372150e-01   1.40333943e+00
C     1.351932336180000e+01   7.262285470204564e+00   3.724323600000000e+00  2.05834980e-01  -4.26881600e-02  -4.24766480e-01
C     4.876889948100001e+00   7.947440727851425e+00   3.427834800000000e+00 -5.41023300e-02   1.19583762e+00   6.00145250e-01
C     6.180272304900000e+00   5.561811126047977e+00  -3.972329999999999e-01  1.42458937e+00   1.07047656e+00   1.53056570e-01
C     7.404800199100000e+00   6.287926906896034e+00  -3.699593999999991e-01  1.50653035e+00  -1.03351476e+00  -4.30608900e-02
C     6.132464517300000e+00   7.259011528196428e+00   3.362116500000000e+00 -2.16199034e+00   1.48516820e-01  -4.21560250e-01
C     7.346107957499999e+00   7.932607612746617e+00   3.371801700000000e+00  1.86473265e+00   7.71722960e-01  -5.84162200e-02
C     8.640274665300000e+00   5.533629317420204e+00  -2.630865000000000e-01  9.98551190e-01   1.12556760e+00  -2.27773420e-01
C     9.910110689200000e+00   6.249711504783947e+00  -2.261751000000025e-01 -1.47183670e-01   1.49301932e+00   5.95189440e-01
C     8.592291764099999e+00   7.222051104454586e+00   3.444771300000000e+00  5.07131980e-01   3.14624130e-01   2.48137030e-01
C     9.838161579000001e+00   7.960450849608858e+00   3.606927000000000e+00 -1.36674001e+00  -1.36918381e+00  -8.36205520e-01
C     1.118059643780000e+01   5.588260454839462e+00  -6.038249999999934e-02 -2.36330173e+00  -1.43152130e+00   3.32318180e-01
C     1.237116338610000e+01   6.290606619164868e+00  -4.670429999999826e-02  2.38649605e+00   2.60657520e-01  -1.22121740e-01
C     1.106080394540000e+01   7.192390424601783e+00   3.738045300000000e+00 -3.90665530e-01   2.16406115e+00   2.50197100e-01
C     1.227501221570000e+01   7.986434973109393e+00   3.787051500000000e+00  4.42297190e-01  -2.73820607e+00  -1.13588022e+00
