64
Lattice="9.86 0 0 4.93 8.53901048131456 0 0 0 30 " PBC="1 1 1" Properties=species:S:1:pos:R:3:force:R:3 Energy="-512.38886772"
C     5.031611096100000e+00   8.329533438877050e+00  -1.220505000000003e-01 -1.05612680e-01   1.65824695e+00  -2.43987670e-01
C     1.343076596900000e+00   5.380421110536472e-01  -1.120836000000018e-01 -3.06497560e-01  -1.23397318e+00  -2.52129160e-01
C     1.098591833000000e+00   8.966073718938335e-01   3.792727500000000e+00  7.27075190e-01  -2.02808775e+00  -3.82299290e-01
C     2.331662776300000e+00   1.555735384037234e+00   3.584575800000000e+00  2.68964160e-01   2.24935539e+00  -4.87908380e-01
C     7.518734668299999e+00   8.320746797093131e+00   4.692000000000000e-02 -3.87333800e-01   3.84542833e+00  -8.27051550e-01
C     3.832994345199999e+00   5.598805449661424e-01  -7.045889999999844e-02 -1.99035433e+00  -7.15160650e-01   5.21407980e-01
C     3.560145812300000e+00   8.442088441546759e-01   3.552279600000000e+00  1.70882430e-01   1.36957067e+00   8.39493640e-01
C     4.784336149400000e+00   1.581759982447445e+00   3.665600400000000e+00 -4.10177320e-01   5.78155700e-01  -1.62661946e+00
C     9.939851160699998e+00   8.363739177838044e+00   2.817000000000000e-02  2.67183820e+00   5.26845610e-01  -1.24073389e+00
C     6.306392600200000e+00   5.502560554739248e-01  -2.396039999999999e-02 -4.00271230e+00   1.48078329e+00  -1.91889610e-01
C     6.020474292199999e+00   9.521994041624064e-01   3.674763000000000e+00  2.07389553e+00  -4.12727624e+00   4.78183700e-01
C     7.311982694700000e+00   1.535834707772966e+00   3.800795700000000e+00 -6.44134180e-01   2.54379912e+00  -4.21153320e-01
C     1.240657212510000e+01   8.408418867053806e+00  -1.424007000000032e-01  1.05674963e+00  -9.13565800e-01  -1.72369980e-01
C     8.709031846999999e+00   5.892586689621632e-01  -1.409024999999993e-01  1.74609156e+00  -3.68764823e+00  -1.15032080e-01
C     8.579805060099998e+00   8.974242990264552e-01   3.848655300000000e+00 -3.43467778e+00  -1.78803401e+00  -3.81548700e-01
C     9.734155094499998e+00   1.604903347941494e+00   3.817749900000000e+00  2.39776122e+00   1.77544532e+00  -3.87970750e-01
C     1.292855968700000e+00   1.945359502306220e+00  -4.060844999999986e-01  2.14304843e+00  -6.56036290e-01   3.16650820e-01
C     2.547110875500000e+00   2.654838558255884e+00  -5.133198000000014e-01  7.56065000e-03   4.12059140e-01   1.63665630e-01
C     2.376648089600000e+00   3.029455621776584e+00   3.382482000000000e+00 -9.12588420e-01  -1.69296024e+00   6.93836840e-01
C     3.640357405300000e+00   3.746327667609727e+00   3.313936200000000e+00 -2.66528271e+00  -1.29307971e+00   2.54860660e-01
C     3.786928326600000e+00   1.987278614823903e+00  -2.961857999999999e-01 -6.50557740e-01  -1.11222391e+00   5.71481900e-02
C     4.975662892499999e+00   2.718506445076021e+00  -2.715566999999979e-01  3.43194832e+00  -1.64191401e+00   6.23920830e-01
C     4.815930005100000e+00   2.971408197044487e+00   3.470510100000000e+00  1.39768812e+00   1.80766949e+00   9.39460060e-01
C     6.100922032200000e+00   3.652619968871473e+00   3.627680700000000e+00 -1.66525726e+00   1.61920068e+00  -3.42835160e-01
C     6.268040503299999e+00   1.992914447130807e+00  -8.850659999999877e-02 -6.88781200e-01  -6.45320770e-01  -1.54130000e-03
C     7.530435579599999e+00   2.647154900455665e+00  -9.810329999999823e-02 -1.60169609e+00   2.86504300e+00  -4.77147200e-02
C     7.300898526399999e+00   2.958287922051862e+00   3.749028900000000e+00  1.59963182e+00   1.56824424e+00   1.01913850e-01
C     8.547644648799999e+00   3.784092893089309e+00   3.712207200000000e+00 -1.38106976e+00  -1.15145332e+00  -3.53547880e-01
C     8.750834007200000e+00   1.964304407127462e+00  -1.735629000000003e-01 -3.33943700e-01   6.08920690e-01  -3.44649980e-01
C     9.956753567099998e+00   2.650817025880223e+00  -4.349004000000001e-01  4.72215800e-02   1.49773384e+00   9.18616950e-01
C     9.747088456500000e+00   3.050918851568588e+00   3.653943900000000e+00 -2.40098170e-01  -1.30118320e+00   4.58258270e-01
C     1.095555140340000e+01   3.709120551855118e+00   3.466096800000000e+00  2.83333476e+00   1.44216812e+00  -2.89832880e-01
C     2.608657143400000e+00   4.087468565224845e+00  -6.633518999999986e-01 -1.60135885e+00  -8.09963220e-01   6.08694400e-01
C     3.841738784800000e+00   4.747724324482339e+00  -5.043545999999992e-01 -2.25878067e+00   4.44878895e+00   5.86313400e-02
C     3.525661053900000e+00   5.143792407010056e+00   3.338386800000000e+00  3.71790807e+00   1.36454206e+00   7.73062670e-01
C     4.830336352500000e+00   5.854879017072686e+00   3.612891300000000e+00 -1.47711306e+00  -1.58137814e+00  -5.52165620e-01
C     5.045062699699999e+00   4.110955882061028e+00  -3.266157000000014e-01  1.09270924e+00   9.07577100e-02   6.22467810e-01
C     6.270963845399999e+00   4.826222423143721e+00  -4.671390000000031e-02  1.31597265e+00  -1.38560087e+00  -3.83840010e-01
C     6.091423943499999e+00   5.127767587602659e+00   3.665573700000000e+00 -2.01996207e+00  -2.68851500e-02   1.39072580e-01
C     7.233096433600000e+00   5.944082900123369e+00   3.774073500000000e+00  3.74371533e+00  -5.97097224e+00  -1.26082049e+00
C     7.527284471499999e+00   4.121466037720231e+00  -5.709810000000104e-02  7.90187600e-02  -1.86424952e+00  -1.45900670e-01
C     8.799082388900000e+00   4.792667100610990e+00  -1.312164000000031e-01 -1.70665476e+00   3.96131110e-01  -6.79081600e-02
C     8.561964967699998e+00   5.201661451813226e+00   3.605550000000000e+00 -2.52292165e+00  -8.30743000e-02   1.14676169e+00
C     9.780633655500001e+00   5.901365560906015e+00   3.528219900000000e+00 -1.31193700e-01  -1.66670177e+00  -2.28692910e-01
C     1.000380124730000e+01   4.105808566543684e+00  -4.156760999999989e-01 -6.01128810e-01  -1.35111252e+00  -2.41454910e-01
C     1.120125836360000e+01   4.817993207963936e+00  -6.065883000000021e-01  1.05678939e+00  -2.40566710e-01   3.33161190e-01
C     1.101377154820000e+01   5.160523487974254e+00   3.427004700000000e+00 -3.09673401e+00  -7.73556990e-01  -1.66935040e-01
C     1.216967970910000e+01   5.874519253517314e+00   3.341691000000000e+00  2.98145841e+00   8.69924340e-01   4.40494550e-01
C     3.748367838600000e+00   6.249719873014217e+00  -3.675438000000000e-01  1.25144150e+00  -9.27993560e-01  -2.29403830e-01
C     5.060455934499999e+00   6.903531326452561e+00  -1.842489000000000e-01 -1.81836534e+00   6.37464390e-01   9.64433950e-01
C     4.815640959200000e+00   7.254943458213651e+00   3.802355100000000e+00  4.40580680e-01   3.96007300e-01  -7.15720430e-01
C     6.065124119000000e+00   7.931327529685560e+00   3.834148200000000e+00 -1.42725284e+00   3.57183703e+00   5.92742300e-02
C     6.323987375800000e+00   6.217232012181590e+00   6.811290000000000e-02 -3.54902369e+00   2.69734650e-01  -1.14438005e+00
C     7.490952146300000e+00   6.947111874239337e+00   1.499964000000000e-01  2.74433912e+00  -1.74470539e+00  -4.04284110e-01
C     7.288825843799999e+00   7.272481731838523e+00   3.744859800000000e+00 -2.98454420e-01   3.18647544e+00   1.18406100e-01
C     8.505109644099999e+00   8.013091031344599e+00   3.623519100000000e+00  8.84839570e-01  -2.25745205e+00  -1.13571540e-01
C     8.756493302100001e+00   6.198592974715742e+00  -1.844699999999833e-02 -5.13931000e-01   1.40376679e+00   7.71999100e-02
C     9.950951400799999e+00   6.944120061137459e+00  -1.724552999999993e-01 -4.57398080e-01  -3.77655200e-01   5.42321180e-01
C     9.751417489500000e+00   7.282312779994252e+00   3.531938700000000e+00  7.78792910e-01   2.51624552e+00   3.71127590e-01
C     1.100536269370000e+01   8.022119839465732e+00   3.567375600000000e+00 -1.09908868e+00   4.49096630e-01  -1.73254540e-01
C     1.116140508170000e+01   6.234474067532911e+00  -4.630581000000014e-01 -8.38186010e-01   6.69161440e-01   6.42413850e-01
C     1.231311485460000e+01   7.002125388547889e+00  -3.704985000000001e-01  4.85059704e+00  -1.49068704e+00   2.05819800e-01
C     1.224990249320000e+01   7.316423479768604e+00   3.497987400000000e+00 -1.25016154e+00   3.64953590e-01   4.01451860e-01
C     1.346539207050000e+01   8.033223114792875e+00   3.720136200000000e+00  6.26351900e-01  -1.98172202e+00   5.99637900e-02
