76
Lattice="10.7446858958278 0 0 5.37234294791388 9.3051709414712 0 0 0 30 " PBC="1 1 1" Properties=species:S:1:pos:R:3:force:R:3 Energy="-609.88181742"
C     1.761138902028610e-01   2.685230398839560e-02  -7.432500000000175e-02 -3.35507285e+00   2.10507452e+00  -7.85488690e-01
C     1.257555931777564e+01   8.449514504522556e+00   5.349000000000000e-03 -1.97781276e+00   2.85298591e+00  -3.51388780e-01
C     1.399010033246955e+01   8.443627495075656e+00  -4.647959999999784e-02 -1.98791025e+00  -6.44460414e+00   2.91856330e-01
C     1.450835634248781e+01   7.050966201737564e+00  -5.216399999998345e-03 -7.40872530e-01  -1.14221540e-01   2.94634660e-01
C     8.348088867454234e+00   9.029691540424718e+00  -9.055409999999853e-02  7.39229490e-01  -1.85786400e-02   1.41199610e-01
C     9.760056153811087e+00   8.918124681043436e+00  -4.147079999999903e-02 -3.75293300e-01  -9.24974870e-01   3.84418160e-01
C     1.027231184771192e+01   7.597146423403600e+00  -5.137500000000017e-03 -1.87842930e-01  -2.23892175e+00   2.51602700e-01
C     1.164823436606748e+01   7.345747782652235e+00  -5.625690000000105e-02  2.37809213e+00   5.70143820e-01   1.50191650e-01
C     1.222101788415507e+01   6.021421338404768e+00  -8.641139999999936e-02 -1.50671652e+00   8.47902760e-01   9.12838420e-01
C     1.359285876495437e+01   5.866715427390516e+00   1.702560000000000e-02  3.41446706e+00   1.71194416e+00  -4.35251230e-01
C     6.026740147395364e+00   8.076038720761469e+00  -3.001019999999954e-02  2.87609548e+00  -4.03018742e+00   6.47269150e-01
C     7.534851098079136e+00   7.875489489335665e+00  -2.040150000000196e-02 -3.35580287e+00   1.05478188e+00   1.56531890e-01
C     8.034735844145576e+00   6.585994626209354e+00   1.403640000000000e-01 -3.58709920e-01  -1.38797034e+00  -5.98383270e-01
C     9.427072481916271e+00   6.362970429308750e+00   1.091706000000000e-01  8.19741400e-02   3.36939210e+00  -6.26812530e-01
C     9.949535305081529e+00   5.083308805573284e+00   4.345260000000000e-02  1.32005825e+00  -8.24401440e-01  -2.00054560e-01
C     1.137030162961561e+01   4.907892468649584e+00   3.623700000000000e-03  5.08041880e-01  -1.23844818e+00  -1.73647210e-01
C     1.199473179058901e+01   3.589336626160558e+00   2.918520000000000e-02 -2.99230512e+00   9.90714160e-01  -5.49200830e-01
C     5.159599136201731e+00   6.866077014693525e+00   1.019379000000000e-01  3.56706780e-01   1.99145024e+00  -8.40268290e-01
C     5.721283501201476e+00   5.570786611950654e+00   1.253118000000000e-01  9.09453290e-01   1.15138786e+00  -1.89112840e-01
C     7.153761103579123e+00   5.436865940420208e+00   1.208451000000000e-01 -9.53364810e-01   7.32788310e-01  -1.35230700e-01
C     7.669527838491500e+00   4.149537786347276e+00  -8.420099999998598e-03  2.29134632e+00  -1.04643020e+00  -1.20076770e-01
C     9.103445282503175e+00   3.955480493531182e+00  -4.080270000000041e-02  5.25045600e-02  -4.26016270e-01   2.17578530e-01
C     9.699393054028853e+00   2.647457453184271e+00  -1.136349000000010e-01 -5.55529000e-02   4.44233450e-01   5.83650160e-01
C     1.112016448228874e+01   2.443177313470075e+00  -8.372100000000060e-02  5.73808420e-01   1.57764704e+00  -2.23068130e-01
C     3.488965570850585e+00   4.585502724711062e+00   5.300400000000000e-02 -2.09805976e+00   9.03966650e-01   1.59686110e-01
C     4.865672666170563e+00   4.466629631211108e+00   6.051030000000000e-02  2.02799233e+00  -1.35435214e+00  -4.71614100e-02
C     5.500160014316656e+00   3.160987598004324e+00  -9.136200000000372e-03 -1.83660727e+00   8.05483660e-01   2.29371210e-01
C     6.869852602617108e+00   2.993176842548433e+00  -8.755919999999762e-02  1.16739708e+00  -1.32260298e+00   1.07787216e+00
C     7.491747984739844e+00   1.642896508566828e+00   2.572080000000000e-02 -2.69412403e+00   1.48212931e+00  -6.54902890e-01
C     8.854804547581598e+00   1.518633022593042e+00  -3.346170000000015e-02  1.74710690e+00  -9.77883490e-01  -3.80138470e-01
C     9.416977634619503e+00   1.925619518460352e-01  -4.761720000000125e-02  3.77490113e+00   3.46172604e+00   3.83045000e-03
C     2.620411472290813e+00   3.457974132224937e+00   6.237450000000000e-02  1.36504674e+00  -2.98309400e-02   1.29852920e-01
C     3.211110625924630e+00   2.187066906361532e+00   9.143310000000000e-02  1.94601397e+00  -6.35990420e-01  -1.23664461e+00
C     4.648687709953847e+00   2.056509402763930e+00   3.582210000000000e-02 -4.60554990e-01  -9.46552960e-01   2.29274530e-01
C     5.226031971141976e+00   7.598465803591181e-01   2.484030000000000e-02  1.34420750e-01  -1.34254724e+00  -2.32014020e-01
C     6.635578049978124e+00   4.987391103523764e-01   6.051119999999999e-02  5.53978000e-02   6.11304200e-02  -4.34351820e-01
C     9.895369516863026e-01   1.192341434375960e+00  -1.967426999999979e-01  1.13814004e+00  -1.28331479e+00   1.17040562e+00
C     2.468191238528366e+00   1.028044404518721e+00  -1.170192000000014e-01 -3.95821597e+00   3.76187750e-01   3.75531970e-01
C     5.349613211659704e+00   9.248749966522404e+00   3.302068800000000e+00 -2.67994175e+00   1.56765584e+00   1.61635620e-01
C     1.181274893805386e+01   8.754022315362262e+00   3.296381100000000e+00 -2.23636162e+00   1.10392636e+00  -8.07926230e-01
C     1.318265658124260e+01   8.943437537551517e+00   3.233992800000000e+00  2.04553467e+00  -4.25480140e-01   8.42356000e-03
C     1.407403282244140e+01   7.819951483528566e+00   3.226505400000000e+00 -9.74818120e-01  -3.22360530e-01   8.22204900e-01
C     7.489995042958688e+00   8.256309007054311e+00   3.392775300000000e+00  3.25857636e+00   1.32875991e+00   4.92999580e-01
C     8.971794191916823e+00   8.454603409457933e+00   3.383531100000000e+00 -1.32264647e+00  -1.31122982e+00   6.54620000e-04
C     9.850313449414548e+00   7.274823862799265e+00   3.423464700000000e+00 -1.26262893e+00   3.86680285e+00  -6.06900540e-01
C     1.123331263279757e+01   7.453178400498979e+00   3.352518300000000e+00  8.75633900e-02   9.14653910e-01   7.96689140e-01
C     1.205342055433712e+01   6.346524470189394e+00   3.520808400000000e+00 -3.83576450e-01  -1.80597046e+00  -8.46711960e-01
C     1.344200611481327e+01   6.528880975806985e+00   3.435661200000000e+00  2.00852927e+00   7.84868940e-01  -1.75863590e-01
C     4.763151493527700e+00   7.946607980312992e+00   3.252213000000000e+00 -1.68480320e+00   7.78529460e-01   2.28661870e-01
C     5.542286919218505e+00   6.794187125045274e+00   3.357708900000000e+00  4.96322900e-01  -6.43501720e-01  -4.79446100e-02
C     6.921034161773745e+00   6.978071818886339e+00   3.424046700000000e+00  2.04708028e+00  -7.16119970e-01  -3.05384750e-01
C     7.843001598198443e+00   5.872820177837413e+00   3.438006300000000e+00 -1.18134766e+00  -1.06935883e+00  -4.71976070e-01
C     9.254774029676501e+00   6.053771695694772e+00   3.427914600000000e+00 -1.38094935e+00  -3.02539111e+00   4.70061630e-01
C     1.003921620200989e+01   4.861839502736754e+00   3.475371300000000e+00  9.21236540e-01  -9.38783850e-01  -3.29427780e-01
C     1.145964315563982e+01   5.011808523432290e+00   3.521937600000000e+00  1.27735961e+00  -3.89776780e-01   8.57473900e-01
C     1.236557506165706e+01   3.840378785813211e+00   3.631525200000000e+00 -2.84912783e+00   1.32034793e+00  -1.26164415e+00
C     3.561348060714236e+00   5.434259468988205e+00   3.529239600000000e+00  9.45143430e-01  -3.27981003e+00  -2.41217010e-01
C     5.013312601504129e+00   5.474568352879771e+00   3.400254600000000e+00 -2.26511835e+00   2.36048071e+00   6.33314100e-01
C     5.831830631871062e+00   4.359843303400250e+00   3.440563500000000e+00  1.21695972e+00  -5.27463340e-01  -6.19674700e-01
C     7.292356914450082e+00   4.519912249685770e+00   3.367333200000000e+00 -1.98415043e+00   2.05610164e+00   1.33468754e+00
C     8.071897092458739e+00   3.385199134716872e+00   3.489720300000000e+00  3.27474820e-01  -1.50723144e+00  -1.12233505e+00
C     9.472127689789875e+00   3.517495588659741e+00   3.426261900000000e+00  9.68652290e-01   1.67815211e+00   9.89945950e-01
C     1.033599447284920e+01   2.392420118388529e+00   3.452240100000000e+00  3.18640430e-01   3.66709670e-01  -7.27488190e-01
C     1.174323441975063e+01   2.521479768619919e+00   3.444954000000000e+00  2.43774211e+00   1.65844386e+00   1.21204508e+00
C     3.006449770711784e+00   4.091843493278250e+00   3.623006100000000e+00 -1.97181740e-01  -9.09314410e-01  -3.73867580e-01
C     3.797926811244475e+00   2.893203202589586e+00   3.501120900000000e+00  2.72509036e+00   2.90491682e+00  -1.29721580e-01
C     5.230527279105388e+00   3.070859201106835e+00   3.402369300000000e+00 -7.23649030e-01   7.01508400e-01   3.89131420e-01
C     6.067650968747049e+00   1.970756204190719e+00   3.309019500000000e+00  6.08591970e-01  -2.96215524e+00  -1.49743640e-01
C     7.456183235581133e+00   2.080116435335292e+00   3.404228100000000e+00  2.54596729e+00   2.87915070e-01  -4.98371430e-01
C     8.360459546671478e+00   9.345373000529176e-01   3.275785500000000e+00 -6.51865500e-02   1.26819210e+00   4.29243490e-01
C     9.796948838700180e+00   1.115666546675231e+00   3.315800100000000e+00 -2.66250090e-01  -2.36406237e+00   1.29383110e-01
C     1.921731502491197e+00   1.419310000186320e+00   3.434632500000000e+00 -1.70774677e+00   7.94032750e-01   8.59409300e-02
C     3.309952710668474e+00   1.618774806990775e+00   3.422259000000000e+00 -1.04685412e+00  -1.51290069e+00   2.34902000e-02
C     4.133167082072009e+00   4.626879935278250e-01   3.330224100000000e+00  1.56711303e+00  -6.99670600e-01  -3.21807980e-01
C     5.573552558378338e+00   6.087580545477912e-01   3.193618500000000e+00 -1.07670969e+00   2.11368320e-01   1.56193416e+00
C     1.359269275955721e+00   1.419822063743148e-01   3.424834800000000e+00 -5.56676190e-01  -1.51757047e+00  -7.73249970e-01
