52
Lattice="8.88768389401873 1.33226762955019e-15 0 4.44384194700937 7.69696003302603 0 0 0 30 " PBC="1 1 1" Properties=species:S:1:pos:R:3:force:R:3 Energy="-418.70910668"
C     1.269413674610203e+01   6.956278718437889e+00  -1.670169000000001e-01 -3.99548260e-01   2.52206890e-01  -9.99104100e-02
C     8.902020217305900e+00   6.725164870522689e+00  -3.594110999999991e-01  8.08508450e-01   3.93410130e-01   1.06593378e+00
C     1.029908511305385e+01   6.339911854985911e+00  -2.116163999999969e-01 -3.76690660e-01   3.50576880e-01  -9.80774050e-01
C     1.065684691763043e+01   4.925269406246541e+00  -2.361956999999997e-01 -1.44747937e+00   1.84959112e+00  -6.16482700e-02
C     6.529010218088921e+00   6.155468062395015e+00  -2.366703000000001e-01  8.90146000e-03  -1.06108954e+00   1.25077270e-01
C     7.855158906438954e+00   5.695388665078590e+00  -3.356477999999967e-01  1.71374266e+00   3.62790944e+00  -6.58797000e-02
C     8.230704966538674e+00   4.371963197533151e+00  -3.269750999999985e-01 -4.74559640e-01  -1.22032579e+00   4.88452780e-01
C     9.582236791252001e+00   3.989298438745660e+00  -3.080138999999988e-01  1.73742763e+00  -1.88885268e+00   1.13688040e-01
C     9.959429605789852e+00   2.555920742627666e+00  -2.888765999999983e-01 -9.45223220e-01   2.82979503e+00   4.63133310e-01
C     4.147699744248965e+00   5.574089116212208e+00  -9.433830000000043e-02 -6.35630630e-01  -4.48233910e-01  -4.59812850e-01
C     5.516854557397671e+00   5.184768411238775e+00  -1.036775999999975e-01 -1.11082063e+00  -2.77359190e-01  -1.68086880e-01
C     5.822555420453911e+00   3.797716793301343e+00  -9.647160000000099e-02  5.62514220e-01   1.49730370e-01  -2.84924170e-01
C     7.190149556311578e+00   3.408463359758572e+00  -1.990026000000000e-01  2.61019100e-02  -1.10150152e+00  -9.11508400e-02
C     7.518342392107172e+00   2.014899959696560e+00  -1.970580000000020e-01  1.47531073e+00   7.88524810e-01   6.51207000e-02
C     8.920214769375566e+00   1.612836090727859e+00  -2.275139999999993e-01 -6.61577990e-01  -3.07647690e-01  -4.12042050e-01
C     3.118859723385883e+00   4.560672183555070e+00  -1.668269999999978e-01  7.15790650e-01  -2.01016710e-01   9.08407570e-01
C     3.446772197188544e+00   3.159991635462118e+00  -6.762030000000152e-02 -1.87797200e-02   2.00680521e+00  -1.07654114e+00
C     4.796726235841484e+00   2.811481751959751e+00  -9.735419999999806e-02  9.76127560e-01  -2.63800410e-01   6.95652690e-01
C     5.152228524572593e+00   1.442849729070113e+00  -1.096989000000015e-01 -3.93793180e-01  -4.50565810e-01  -8.45173710e-01
C     6.503396087556071e+00   1.051543054469739e+00  -1.675710000000024e-01  5.80396980e-01  -7.37846960e-01   5.36500100e-02
C     1.132266891324100e+01   7.376459768894803e+00  -2.107029000000011e-01 -7.12555000e-01  -1.60901906e+00   5.02156900e-01
C     2.438317545839050e+00   2.214353901920360e+00  -2.060510999999998e-01 -1.08572108e+00  -2.03613751e+00  -1.83029370e-01
C     2.748454207470965e+00   8.035897204313056e-01  -2.910518999999994e-01  1.99972424e+00   1.65610149e+00   6.04685170e-01
C     4.141964918461468e+00   4.647615350722744e-01  -2.694788999999993e-01 -7.08901180e-01  -2.27151790e+00   5.24324500e-02
C     3.874560907903181e-01   2.420806305051438e-01  -2.241816000000014e-01  1.64000600e-01  -7.14700720e-01   3.72569160e-01
C     6.216479703208779e+00   7.518705747817228e+00  -2.441543999999993e-01 -1.80945098e+00   6.70097680e-01  -2.95743360e-01
C     6.328868598540121e-01   7.163542996912931e-01   3.661536000000000e+00  4.51662590e-01   2.37300150e+00   5.20844570e-01
C     3.045617250788641e+00   1.479102487781013e-01   3.770179800000000e+00 -3.10613660e-01   1.15288130e-01   2.84431010e-01
C     4.415598307962583e+00   5.165888614950788e-01   3.717104700000000e+00 -4.95905570e-01   2.53334811e+00  -1.61545720e-01
C     9.889249301748833e+00   7.300636861700074e+00   3.592473900000000e+00  3.77030240e-01  -2.24415283e+00  -4.25208330e-01
C     1.124401242218849e+01   7.679119708164064e+00   3.499264500000000e+00  9.19607780e-01  -1.14676300e-02   1.92238380e-01
C     1.227044485705620e+01   6.681460146019544e+00   3.489227700000000e+00 -6.58316660e-01  -2.90942120e-01   5.48474050e-01
C     4.751593779921100e+00   7.067263802076869e+00   3.621601500000000e+00 -2.47842660e-01  -1.39531051e+00  -5.13916350e-01
C     5.794291165130807e+00   6.070656337398849e+00   3.628808400000000e+00 -5.19292640e-01   7.27584390e-01  -3.36021910e-01
C     7.158489584119041e+00   6.473295708068994e+00   3.702408300000000e+00 -6.37954590e-01   3.78661900e-02  -3.90956630e-01
C     8.173553738105852e+00   5.508301967322192e+00   3.580303800000000e+00  1.02833703e+00  -3.01986870e-01   1.50977040e-01
C     9.555082163026107e+00   5.898243663030846e+00   3.544743000000000e+00 -8.82967110e-01   4.81063240e-01   1.97339610e-01
C     1.054739673473190e+01   4.902641036484742e+00   3.541518900000000e+00 -2.49292530e-01  -5.95507550e-01   4.49478530e-01
C     1.189103700766678e+01   5.291468443289853e+00   3.548520600000000e+00  1.84275092e+00   5.73684510e-01  -6.14182360e-01
C     4.055234990990018e+00   4.325684301717572e+00   3.535350600000000e+00  3.62204420e-01  -1.03623278e+00   8.76302300e-01
C     5.446926304682174e+00   4.711564619496795e+00   3.483258000000000e+00 -5.68593380e-01  -4.20176910e-01   1.15298003e+00
C     6.483359339227917e+00   3.731341750604237e+00   3.574551000000000e+00 -2.18895500e-01  -4.67427640e-01  -1.11108978e+00
C     7.847430619895235e+00   4.129566991666776e+00   3.544864200000000e+00 -3.84560000e-01  -1.79034130e-01  -6.05978700e-02
C     8.862209523642754e+00   3.126330674102120e+00   3.532382400000000e+00 -5.44248400e-01   2.52258430e-01   7.78537760e-01
C     1.019906316115767e+01   3.512748316661038e+00   3.649477500000000e+00  1.48735261e+00   7.02568400e-02  -6.14443920e-01
C     2.346409740298422e+00   2.516657394970631e+00   3.751347600000000e+00  2.19477370e-01   2.78789340e-01   5.05676840e-01
C     3.741259692421946e+00   2.926064317747153e+00   3.772015500000000e+00 -4.16963470e-01  -6.80309900e-02  -1.50543855e+00
C     4.761176699536844e+00   1.915610791671166e+00   3.679479600000000e+00  8.21195550e-01   8.30692180e-01  -1.30865580e-01
C     6.175076868823683e+00   2.334456804410878e+00   3.506104800000000e+00 -2.81436148e+00   4.78409490e-01   1.07380352e+00
C     7.167501603385945e+00   1.361411581655096e+00   3.509413800000000e+00  6.26207400e-02  -5.00089980e-01   6.47034000e-03
C     8.513673666401328e+00   1.764362833145656e+00   3.588040200000000e+00  7.39380050e-01  -1.62376940e+00  -4.59669320e-01
C     1.997168378689184e+00   1.122945443580040e+00   3.819201300000000e+00  5.75349510e-01   4.15579420e-01  -9.00325910e-01
