64
Lattice="9.86 0 0 4.93 8.53901048131456 0 0 0 30 " PBC="1 1 1" Properties=species:S:1:pos:R:3:force:R:3 Energy="-515.43188167"
C     5.093065863200000e+00   6.684118634295502e+00  -4.628340000000009e-01 -3.66464220e-01  -3.41685900e-02   3.70374540e-01
C     6.325926640599999e+00   7.406844769543420e+00  -3.659606999999987e-01 -2.85314800e-01  -1.78879900e-01   5.29121000e-03
C     9.689037460000000e+00   1.823159687299350e+00   3.589239600000000e+00  1.02194596e+00   5.93926000e-02   1.07851850e-01
C     1.094804883080000e+01   2.568500367122290e+00   3.554488500000000e+00 -1.18737537e+00  -1.09795260e-01   9.14814460e-01
C     7.564016619699999e+00   6.696189464900135e+00  -3.803480999999991e-01 -1.20645951e+00  -8.30447400e-02   1.02991060e-01
C     8.757291271900000e+00   7.422796068070583e+00  -3.562283999999991e-01  6.53758860e-01  -1.87104490e-01  -1.12371250e-01
C     2.305772191100000e+00   1.858225219225575e+00   3.675795900000000e+00  3.20112520e-01   3.00908310e-01  -6.48815890e-01
C     3.583546846100000e+00   2.553359079129259e+00   3.757778700000000e+00 -1.05303627e+00  -1.64894965e+00   2.07965940e-01
C     9.966533257399998e+00   6.672210130280094e+00  -3.762980999999996e-01  1.78947949e+00   2.73860744e+00  -2.28677600e-02
C     1.122703841820000e+01   7.418254424566586e+00  -4.248554999999996e-01 -2.41676970e-01   5.55345000e-02   3.21738490e-01
C     4.810663926999999e+00   1.853382148651634e+00   3.794232600000000e+00 -5.35741730e-01  -1.58094489e+00  -2.05032100e-02
C     6.039021839599999e+00   2.540958301159678e+00   3.820897800000000e+00 -1.47227214e+00   1.53352785e+00  -1.02353900e-02
C     1.247197217400000e+01   6.730636772467609e+00  -3.943469999999998e-01 -1.81725911e+00  -2.53968511e+00  -1.44848220e-01
C     1.367636836390000e+01   7.392783837156318e+00  -4.205751000000006e-01  2.47519047e+00   5.30967140e-01   1.69701990e-01
C     7.236436952300000e+00   1.865434534993630e+00   3.795714300000000e+00  8.70623440e-01  -1.52686079e+00  -9.13243300e-02
C     8.454815361700000e+00   2.529396566359863e+00   3.673242900000000e+00  1.58447823e+00   9.54595850e-01   2.05383330e-01
C     1.400534218600000e+00   2.892646157569168e-01  -2.253479999999968e-01  1.65571480e-01  -2.95859600e-02  -6.27157030e-01
C     2.628105401800000e+00   1.034356810374888e+00  -2.557004999999997e-01 -8.88298900e-01  -5.51637950e-01   2.21333100e-02
C     1.094100381150000e+01   3.997275523200159e+00   3.683785800000000e+00  5.97792800e-02  -8.68038530e-01   2.25959300e-01
C     1.219034996660000e+01   4.660282295463996e+00   3.798710700000000e+00 -5.49879980e-01   3.88938300e-01   5.88559100e-02
C     3.832986605100000e+00   3.154929549571800e-01  -3.652196999999973e-01  4.85265950e-01  -5.80622360e-01   6.26949900e-02
C     5.056218500900000e+00   1.008391472697409e+00  -4.549959000000001e-01  1.47852952e+00   1.71420500e-02   4.18761610e-01
C     3.579967370300000e+00   3.927078708967014e+00   3.846894900000000e+00 -1.61254161e+00   2.39278325e+00  -5.75232370e-01
C     4.762003594499999e+00   4.674754125035395e+00   3.826560300000000e+00  2.03499035e+00   2.85292890e-01   5.60226900e-02
C     6.328890753800000e+00   3.115326472866608e-01  -4.263291000000002e-01 -1.03590244e+00  -4.45570840e-01   5.35734000e-03
C     7.568518005500000e+00   1.021535742309482e+00  -3.240962999999972e-01 -1.07974602e+00  -2.01655540e-01  -5.40274880e-01
C     6.013867303400000e+00   3.961362238313480e+00   3.809722200000000e+00  4.18820240e-01   1.31989696e+00  -3.60356400e-01
C     7.265546778199999e+00   4.706464679744028e+00   3.730986300000000e+00 -4.47740070e-01  -1.90734424e+00   3.37616610e-01
C     8.781778779100000e+00   2.677762812741016e-01  -3.377787000000012e-01  4.38660210e-01   1.22278928e+00   3.24471470e-01
C     1.003558170350000e+01   9.826345722657465e-01  -2.405958000000012e-01 -9.54746090e-01   2.18481390e-01   6.20305700e-02
C     8.491166864599998e+00   3.955201513032369e+00   3.725949300000000e+00 -8.58429040e-01   7.17098980e-01  -1.22939400e-01
C     9.694044614500001e+00   4.694381552964303e+00   3.780807900000000e+00  8.63921710e-01  -2.99931610e-01  -6.26791670e-01
C     2.603099160000000e+00   2.447864301104623e+00  -2.474916000000000e-01  5.29037690e-01   1.07765250e-01  -7.48256700e-02
C     3.868715794100000e+00   3.148315659004516e+00  -3.154818000000006e-01 -1.95406386e+00  -2.05032720e-01  -4.83049410e-01
C     1.214108639930000e+01   6.090334716729463e+00   3.850335900000000e+00  2.41465539e+00  -1.71481000e-03  -1.46142960e-01
C     1.341605085570000e+01   6.794999307790293e+00   3.804079800000000e+00 -9.43634800e-01   1.41879908e+00   3.18271070e-01
C     5.075261513299999e+00   2.424743307818031e+00  -4.443420000000025e-01 -1.14646133e+00   5.05813500e-02   3.83780760e-01
C     6.261997457200000e+00   3.147717330540182e+00  -4.404134999999982e-01  2.82314860e+00  -4.79527470e-01   2.35851230e-01
C     4.793699944899999e+00   6.119904797681074e+00   3.780319500000000e+00  6.70748000e-02  -1.21562016e+00  -3.39282460e-01
C     6.052020129700000e+00   6.807132558561535e+00   3.657731700000000e+00 -1.12720798e+00  -5.64118400e-02   2.42479850e-01
C     7.501878554599999e+00   2.459054161998034e+00  -3.261222000000004e-01  1.70880231e+00  -1.18496926e+00   7.82204800e-02
C     8.773711228500000e+00   3.130366829755765e+00  -2.404368000000012e-01 -5.05821260e-01   6.95678620e-01  -1.83784550e-01
C     7.285264313200000e+00   6.106852322431661e+00   3.696569100000000e+00 -6.12871510e-01   4.96335520e-01   3.90772100e-02
C     8.489717099500000e+00   6.850021958840061e+00   3.748203300000000e+00 -5.27102060e-01   2.26600460e-01   9.01175100e-02
C     1.002228036630000e+01   2.419813737067927e+00  -2.045888999999974e-01 -1.96350184e+00  -1.00414948e+00  -1.40842120e-01
C     1.120031352910000e+01   3.133264457572049e+00  -2.430078000000009e-01  2.21020210e+00   7.78145240e-01   1.33071100e-01
C     9.702687150999999e+00   6.112993749549087e+00   3.829146300000000e+00  1.96841840e-01   9.02900120e-01  -2.55107350e-01
C     1.094477161330000e+01   6.829433379891523e+00   3.850402500000000e+00 -4.48173630e-01  -4.79398430e-01   2.89922050e-01
C     3.828118230100000e+00   4.562283402399123e+00  -3.728048999999984e-01  1.54287107e+00   2.78346010e-01  -1.82108580e-01
C     5.118342219699999e+00   5.250055781367998e+00  -4.820810999999985e-01 -9.94966700e-01   8.60784270e-01   2.78373310e-01
C     1.342376847490000e+01   8.254637436396552e+00   3.796528200000000e+00 -1.54726519e+00  -1.16441572e+00  -1.32633290e-01
C     9.708651464999999e+00   3.792210418012016e-01   3.648966300000000e+00  1.42781720e-01   1.44008200e+00  -2.43742870e-01
C     6.376742911399999e+00   4.543882261765246e+00  -4.679544000000000e-01 -3.00019456e+00   8.84692490e-01   1.29421010e-01
C     7.570841317299999e+00   5.267085129968261e+00  -3.986112000000013e-01  3.80802010e-01   3.55546340e-01   2.40626330e-01
C     6.008633270300000e+00   8.217735248706182e+00   3.583779300000000e+00 -3.50111120e-01   4.17913370e-01   4.19813050e-01
C     2.252662237800000e+00   4.475179262025472e-01   3.636029700000000e+00  1.80098370e+00  -3.39462040e-01   1.10348230e-01
C     8.786111903999998e+00   4.569221263024017e+00  -2.734616999999986e-01  3.70802660e-01  -7.86466290e-01  -3.42913050e-01
C     1.001219693870000e+01   5.295090522639518e+00  -3.020426999999977e-01 -7.50832220e-01  -1.59401220e+00  -5.18577000e-03
C     8.420362796199999e+00   8.297439653378076e+00   3.742226100000000e+00  1.85980708e+00  -1.51751472e+00  -2.80844520e-01
C     4.776029148700000e+00   4.038466087343688e-01   3.783275100000000e+00 -4.03459340e-01   1.41146816e+00   4.56501130e-01
C     1.122018670420000e+01   4.556844479673886e+00  -3.070092000000031e-01  2.94636830e-01   3.13197180e-01   2.83925590e-01
C     1.244555866370000e+01   5.260729032127369e+00  -3.484733999999996e-01  8.82229520e-01   1.09799872e+00  -1.41718370e-01
C     1.095103557270000e+01   8.251826906487164e+00   3.890306400000000e+00 -2.80212700e-01   9.82890000e-02  -5.88662210e-01
C     7.248082746200001e+00   4.587229865346128e-01   3.863127600000000e+00  2.68915450e-01  -1.74295404e+00  -2.61613320e-01
