52
Lattice="8.88768389401873 1.33226762955019e-15 0 4.44384194700937 7.69696003302603 0 0 0 30 " PBC="1 1 1" Properties=species:S:1:pos:R:3:force:R:3 Energy="-418.01283415"
C     1.225532739546779e+01   6.505766796377954e+00  -1.199343000000006e-01 -2.41016325e+00  -4.23303870e-01  -1.19259402e+00
C     8.484814559843155e+00   6.265866791618909e+00  -2.568731999999976e-01 -1.08945450e+00  -5.10901090e-01   3.16423580e-01
C     9.833825792977464e+00   5.899532134139868e+00  -2.798172000000001e-01 -1.72898540e-01  -2.94171046e+00   1.56935140e-01
C     1.018962808545318e+01   4.492262526443634e+00  -2.239350000000009e-01 -2.92253828e+00   3.70639410e-01   3.02564340e-01
C     6.080172271553094e+00   5.657799021380079e+00  -2.995820999999985e-01 -6.90704590e-01   2.36885801e+00   1.19350827e+00
C     7.448059478795420e+00   5.281457315257233e+00  -2.249997000000015e-01  2.80888900e-02  -1.32890041e+00  -7.74564180e-01
C     7.781862220646103e+00   3.862833998790347e+00  -2.298515999999999e-01 -1.28274109e+00   1.04595048e+00   3.37292430e-01
C     9.115696000419424e+00   3.465012694190182e+00  -2.274774000000015e-01  2.50946812e+00   1.88495077e+00   4.42324500e-02
C     9.533073144572704e+00   2.123035012975632e+00  -1.887816000000022e-01 -1.40353307e+00  -4.32960090e-01  -9.92776700e-02
C     3.649844354681563e+00   5.130901159499220e+00  -6.806339999999977e-02  7.74557220e-01   1.22387590e-01  -3.64594400e-02
C     5.002317162922411e+00   4.741572141808954e+00  -1.322150999999998e-01  1.54166262e+00  -2.28354265e+00   4.03560240e-01
C     5.362780912263387e+00   3.303842353581197e+00   3.615000000000000e-03  3.24280150e-01   1.50022014e+00  -1.28095862e+00
C     6.719523897084755e+00   2.881768620652904e+00  -1.343259000000003e-01  4.63940330e-01   2.78070951e+00   1.41271440e-01
C     7.081218679605215e+00   1.573161956314023e+00  -1.666598999999991e-01  1.01023284e+00  -4.25667665e+00   2.13587000e-03
C     8.501270369873678e+00   1.151500549534538e+00  -2.109161999999998e-01 -2.08124820e+00   1.15211964e+00  -9.45323000e-03
C     2.617608883082121e+00   4.143616483718336e+00  -2.706059999999866e-02  1.43176641e+00  -6.98045360e-01  -2.81006300e-01
C     2.976744145916647e+00   2.772091096583821e+00   3.889980000000000e-02  1.32070746e+00  -1.99785664e+00  -1.01665673e+00
C     4.383136043724616e+00   2.318075903166232e+00  -2.612939999999853e-02 -2.04987658e+00   1.65946570e-01   1.13773034e+00
C     4.723240997792472e+00   9.136039865017018e-01  -4.544160000000019e-02 -1.19006829e+00   4.45922230e-01  -6.07395160e-01
C     6.050365020602996e+00   5.003259546476918e-01  -1.537875000000000e-01  1.53623638e+00   2.39988161e+00  -2.21118900e-02
C     1.082398750227206e+01   6.839675854581812e+00  -2.498831999999993e-01  3.10662942e+00   1.47800744e+00   9.85453980e-01
C     1.991882162469515e+00   1.745514209545791e+00  -1.185015000000007e-01  9.07242110e-01   2.83425690e-01   6.86737210e-01
C     2.334766606362275e+00   3.465313799266555e-01  -1.312181999999993e-01  6.32127290e-01   1.02725625e+00  -3.98408900e-01
C     8.147080484292403e+00   7.612774221793473e+00  -1.271936999999994e-01 -6.19812300e-01   1.63069098e+00  -9.64097000e-03
C     4.364963177644026e+00   7.492573490940973e+00  -2.302806000000004e-01  9.93246000e-01  -5.92872090e-01   3.95857850e-01
C     5.752199317104956e+00   7.125280638907797e+00  -2.566193999999982e-01 -6.45790160e-01  -3.21601682e+00   5.13877400e-02
C     1.106656359492647e+00   1.226735332013376e+00   3.561378600000000e+00  1.86103670e-01  -2.18502270e-01   7.81158870e-01
C     3.526393355999502e+00   6.237250033014571e-01   3.666066300000000e+00 -7.27456720e-01   2.43891280e-01   5.44489290e-01
C     4.887633553867648e+00   1.063740580968481e+00   3.708432600000000e+00  8.26135300e-02  -1.52310493e+00  -6.86979110e-01
C     5.902669667177811e+00   4.644499621302599e-02   3.636216600000000e+00 -4.86202780e-01   7.18731000e-03  -3.18418480e-01
C     7.248626292717788e+00   4.218232738489164e-01   3.551075400000000e+00  8.65403930e-01   1.42070469e+00  -1.31572380e-01
C     1.272921034647164e+01   7.139838515169338e+00   3.518781000000000e+00 -2.95404900e-02   8.55625400e-02   5.24095930e-01
C     5.196677213273087e+00   7.562858050546118e+00   3.560646300000000e+00 -1.04775530e-01  -7.95604110e-01  -2.30778490e-01
C     6.205461196483666e+00   6.560456391327115e+00   3.552324300000000e+00  3.93597440e-01   1.06152940e-01   2.08629490e-01
C     7.584545863844008e+00   6.954216394967450e+00   3.578283000000000e+00  1.49923081e+00  -1.02958390e+00  -1.82008510e-01
C     8.664967956532054e+00   5.958264018557584e+00   3.485952300000000e+00 -2.32960842e+00   4.52800620e-01  -2.90422790e-01
C     1.000821223871118e+01   6.347028849077650e+00   3.530942700000000e+00 -2.78943330e-01   8.13877280e-01  -1.38649190e-01
C     1.099295712561070e+01   5.353370089787123e+00   3.446218500000000e+00  2.79411736e+00  -3.92920200e-02   1.83769350e+00
C     3.523768648526542e+00   5.755187579065264e+00   3.592282500000000e+00 -2.34296762e+00  -3.89841850e-01  -1.08467010e+00
C     4.487814830637670e+00   4.725668067238166e+00   3.615441600000000e+00  1.07079422e+00   1.49580201e+00  -3.13293740e-01
C     5.854008756884776e+00   5.179831888953934e+00   3.558847500000000e+00  1.19942277e+00  -7.63042080e-01  -3.69948160e-01
C     6.939234198354095e+00   4.219165148227198e+00   3.441138600000000e+00 -1.30513157e+00   3.68408000e-03   3.09030140e-01
C     8.307873792954698e+00   4.579530505324573e+00   3.339958200000000e+00  1.01164430e-01   9.51593510e-01   1.35316341e+00
C     9.331417819456057e+00   3.614290538826413e+00   3.489120300000000e+00 -6.68642760e-01  -1.56704801e+00  -1.16427070e-01
C     1.069130988893200e+01   3.959873576307772e+00   3.606022800000000e+00 -9.33682020e-01   1.22901967e+00  -1.91568338e+00
C     2.779084367118178e+00   2.952692104910139e+00   3.532570500000000e+00  1.46278499e+00   2.98224900e-01   1.98349900e+00
C     4.144226924767737e+00   3.357934741401630e+00   3.598424400000000e+00  2.81209090e-01   4.95086880e-01  -2.16364030e-01
C     5.212414631808833e+00   2.439334119357253e+00   3.628509300000000e+00  1.10905240e-01  -5.77589890e-01   1.91042780e-01
C     6.579030100876606e+00   2.853113377248417e+00   3.551803500000000e+00  4.62409920e-01  -9.12824900e-01  -4.61004780e-01
C     7.607023035275472e+00   1.845830613856788e+00   3.498640800000000e+00 -4.36837570e-01  -9.88956170e-01   4.18279230e-01
C     8.982373008972123e+00   2.214537782295477e+00   3.511977300000000e+00 -4.36583700e-01   8.06030870e-01  -2.04660360e-01
C     2.476850098935147e+00   1.584746266007175e+00   3.725978400000000e+00 -4.23055110e-01   4.17536400e-01  -1.91147839e+00
