64
Lattice="9.86 0 0 4.93 8.53901048131456 0 0 0 30 " PBC="1 1 1" Properties=species:S:1:pos:R:3:force:R:3 Energy="-515.11175486"
C     5.010197098799999e+00   7.046041177886110e+00   8.324370000000000e-02 -8.62181550e-01  -1.58297680e-01  -3.13450770e-01
C     6.212551726399999e+00   7.780291561677835e+00   2.417640000000000e-02  6.57815660e-01  -9.20416900e-01   5.36356510e-01
C     9.780229937800000e+00   1.421961623445563e+00   3.399957300000000e+00 -9.36469900e-02   2.66967533e+00  -9.48922100e-02
C     1.101013256730000e+01   2.199933021746460e+00   3.406127100000000e+00 -1.97919370e-01  -2.02111809e+00   3.61325500e-01
C     7.442707116999999e+00   7.094955703959323e+00   5.101290000000000e-02  1.95549781e+00  -1.73128461e+00   6.33681100e-02
C     8.708484222599999e+00   7.764211409482527e+00   9.121409999999999e-02 -9.03393110e-01   1.93881052e+00  -1.12884660e+00
C     2.360244944300000e+00   1.463182586466401e+00   3.510183000000000e+00  1.49512675e+00   1.03772241e+00  -4.18370110e-01
C     3.613726482000000e+00   2.230733147157715e+00   3.447186600000000e+00 -1.77178000e-03  -2.68453006e+00   1.97019990e-01
C     9.956562036599999e+00   7.070850418934703e+00   1.182330000000000e-02 -2.11443280e+00   1.38715462e+00   7.96030900e-01
C     1.115059620460000e+01   7.802239721874998e+00   8.448360000000001e-02  1.09724703e+00  -9.23182530e-01  -6.38245950e-01
C     4.862358674499999e+00   1.504999316248428e+00   3.453810900000000e+00 -1.02537569e+00  -8.99201600e-02  -7.02235370e-01
C     6.102540501900000e+00   2.180233183008681e+00   3.394648200000000e+00  1.97685030e-01   3.04458970e-01   3.14112490e-01
C     1.237168547310000e+01   7.059633660158279e+00   2.797500000000000e-02  8.45805090e-01   8.26672800e-02   2.07055720e-01
C     1.363850172410000e+01   7.739106120940594e+00   6.417900000000000e-02 -8.25366170e-01   4.19194880e-01  -3.06576400e-01
C     7.314077846099999e+00   1.504380921109466e+00   3.437680500000000e+00  1.80739948e+00  -1.29726951e+00  -1.07244028e+00
C     8.567956939000000e+00   2.202420691669599e+00   3.352410900000000e+00 -6.11844280e-01  -4.04745110e-01   1.15730552e+00
C     1.299573192300000e+00   6.321572059819015e-01   3.011700000000000e-03 -3.48119800e-01   1.58070423e+00  -1.04968534e+00
C     2.500672346100000e+00   1.370010710635767e+00  -1.342140000000001e-01  1.54586894e+00  -1.09666433e+00   1.21635833e+00
C     1.104706950770000e+01   3.617351379276034e+00   3.343297800000000e+00 -1.22935559e+00  -1.07235467e+00  -1.33545950e-01
C     1.224112630440000e+01   4.312432895045475e+00   3.284082000000000e+00  2.25123682e+00   3.20580930e-01   3.84753980e-01
C     3.764590792400000e+00   6.949779375723184e-01  -2.161650000000037e-02 -1.04264310e+00  -2.68252800e+00   3.85990500e-02
C     4.977930889700001e+00   1.352659441340407e+00  -1.439819999999870e-02  7.20869160e-01   2.43923545e+00   3.75356610e-01
C     3.651900655200000e+00   3.608330000094019e+00   3.351861600000000e+00 -7.35044640e-01   7.47578570e-01   7.61229000e-03
C     4.914592123100000e+00   4.267066583997017e+00   3.375737400000000e+00 -7.70109950e-01   1.78283575e+00  -2.52768270e-01
C     6.213952388700000e+00   6.657643603082471e-01   8.554860000000000e-02  7.89704680e-01   4.86662980e-01  -5.04790890e-01
C     7.478467167800000e+00   1.369197711447967e+00   3.735090000000000e-02 -4.23936130e-01  -1.96165103e+00   9.51014300e-02
C     6.179024275400000e+00   3.578408965811680e+00   3.352703400000000e+00 -2.65302438e+00   2.01110263e+00   9.19113060e-01
C     7.335940078999999e+00   4.379763163460485e+00   3.452991900000000e+00  1.48112072e+00  -1.85274668e+00  -5.21786300e-01
C     8.715927191499999e+00   6.145014355728248e-01   3.562500000000000e-03 -2.50251020e-01   1.55776714e+00   2.61843070e-01
C     9.952472009999999e+00   1.363507827204723e+00  -5.179590000000189e-02 -1.33713393e+00  -3.94581070e-01  -1.72711300e-02
C     8.559370357999999e+00   3.636285012603443e+00   3.442383300000000e+00  1.08697470e+00  -2.99317000e-01  -7.75162690e-01
C     9.821843771999999e+00   4.309207710787179e+00   3.344934900000000e+00 -1.17550271e+00   9.71370630e-01   1.00301150e-01
C     2.539368557000000e+00   2.752143400548942e+00  -8.401800000000037e-02 -1.34867619e+00   2.83572194e+00  -4.14037200e-02
C     3.768090599400000e+00   3.515724943779048e+00  -7.550999999992314e-04 -1.87936860e+00  -1.91327102e+00  -8.76368850e-01
C     1.225073507160000e+01   5.723154448216005e+00   3.263937600000000e+00  2.76281440e-01   3.42688800e-01  -3.22434510e-01
C     1.348081616710000e+01   6.429796417933689e+00   3.267973800000000e+00  5.54321580e-01   3.12440660e-01   1.15292775e+00
C     4.961484902700000e+00   2.818824447997158e+00  -1.719749999999820e-02  2.62114554e+00  -1.20873595e+00   3.91300880e-01
C     6.224958810900000e+00   3.515360584201866e+00   4.842809999999999e-02 -6.90152600e-02  -4.09541930e-01  -2.00340880e-01
C     4.842191474200000e+00   5.723277068406498e+00   3.414558600000000e+00  2.02309998e+00  -8.17153690e-01  -5.39776420e-01
C     6.116522672100000e+00   6.442700912131484e+00   3.484048200000000e+00 -1.91235806e+00   7.79351130e-01  -8.81482200e-02
C     7.467428799199999e+00   2.752699973252029e+00   5.063040000000000e-02 -2.00469300e-01   2.56214793e+00  -5.67331900e-02
C     8.696985687800000e+00   3.503204363492434e+00   4.527180000000000e-02 -3.77485020e-01  -5.27405170e-01  -6.30109430e-01
C     7.359024360299999e+00   5.792419912576097e+00   3.445659900000000e+00 -5.91892820e-01  -9.16197630e-01   1.18266670e-01
C     8.580924712400000e+00   6.481083849629189e+00   3.369220800000000e+00  8.75661330e-01  -1.89159360e-01   3.19404420e-01
C     9.926761172599999e+00   2.798248250613816e+00  -1.291106999999982e-01  1.01460000e-04  -3.21020770e-01   1.28141182e+00
C     1.114937657190000e+01   3.510144956600683e+00  -7.079670000000249e-02  3.88972080e-01   2.49289000e-01  -1.24757790e-01
C     9.813196897099999e+00   5.735484693959020e+00   3.276428100000000e+00 -3.46208070e-01   5.14039930e-01   4.40480640e-01
C     1.104451690160000e+01   6.443523816571441e+00   3.250878900000000e+00 -6.37350490e-01   1.58605868e+00   1.40290000e-04
C     3.709985126399999e+00   4.884461548661094e+00  -4.941390000000112e-02  1.99320485e+00   3.16853304e+00   9.65439830e-01
C     4.998190921900000e+00   5.633155754069844e+00   7.852440000000001e-02 -1.06767150e+00  -5.44716500e-01  -7.72272170e-01
C     1.351137462420000e+01   7.862489101239573e+00   3.363528000000000e+00 -2.75854894e+00  -7.99676660e-01  -5.05425460e-01
C     9.753369720200000e+00   8.672560603907200e-03   3.444160800000000e+00  2.66353612e+00   1.17118363e+00   1.48245140e-01
C     6.242881875200000e+00   4.963307185049013e+00   5.301240000000000e-02 -2.42065610e-01  -2.02297326e+00   1.02177120e-01
C     7.499601042500000e+00   5.627349397723654e+00   4.415640000000000e-02 -3.20559435e+00   2.45861377e+00   4.83713640e-01
C     6.070730120600000e+00   7.864438386551947e+00   3.522704700000000e+00  1.27180388e+00  -2.70147440e-01  -1.01610100e-01
C     2.403492876300000e+00   3.573669814995280e-02   3.556988700000000e+00 -1.16406708e+00   6.33397430e-01  -3.52451670e-01
C     8.660991018299999e+00   4.926772772540018e+00   8.696490000000000e-02  2.66191883e+00  -5.01383500e-02  -7.13122240e-01
C     9.894004576399999e+00   5.697597872970203e+00   9.998099999999999e-03  2.93987320e-01  -2.92842509e+00   3.79288420e-01
C     8.586198727799999e+00   7.903652938280300e+00   3.460080300000000e+00 -1.34898804e+00  -8.34434480e-01  -4.16583250e-01
C     4.832560965700000e+00   8.860734777854960e-02   3.339974400000000e+00  2.74875271e+00  -1.45781460e-01   7.43031970e-01
C     1.110390294210000e+01   4.966194480662615e+00   7.950300000000000e-03  1.07255044e+00  -1.58782547e+00  -7.19608050e-01
C     1.235679805630000e+01   5.633261637799795e+00  -3.911880000000068e-02 -1.51956640e-01   3.41910780e-01   3.80795050e-01
C     1.104701360150000e+01   7.912156341086598e+00   3.276092400000000e+00 -9.76309610e-01  -8.23452530e-01   1.46226390e-01
C     7.349514094499999e+00   8.054532642396239e-02   3.333685200000000e+00 -4.07640750e-01  -7.75483500e-01   3.34036340e-01
