64
Lattice="9.86 0 0 4.93 8.53901048131456 0 0 0 30 " PBC="1 1 1" Properties=species:S:1:pos:R:3:force:R:3 Energy="-514.91551879"
C     4.922079264799999e+00   8.428470256853046e+00  -1.709733000000000e-01 -6.28597610e-01   1.59937660e-01   1.06784400e-02
C     1.223203055300000e+00   6.128568221543768e-01  -1.749453000000010e-01 -2.76616480e-01  -3.50041720e-01   9.97974770e-01
C     1.259057121200000e+00   8.534177400068320e-01   3.392120400000000e+00 -8.41033700e-02  -1.16503703e+00  -2.23853230e-01
C     2.487154877700000e+00   1.545879658141218e+00   3.577185600000000e+00 -2.19217810e-01   2.85603880e-01  -4.15821500e-02
C     7.366848122400000e+00   8.421199801769955e+00  -2.167820999999996e-01  7.63962300e-02  -9.80237000e-02  -1.80744210e-01
C     3.658518194200000e+00   5.823249924524031e-01  -1.480917000000019e-01  1.59567680e-01   7.14261110e-01  -6.65958500e-02
C     3.718000418999999e+00   8.459741137912064e-01   3.424856100000000e+00 -3.10150290e-01  -1.34328738e+00  -3.07615440e-01
C     4.960851496300000e+00   1.506082916678340e+00   3.385167600000000e+00  4.73364010e-01   4.70757870e-01   3.71585580e-01
C     9.799341378599999e+00   8.373007505203141e+00  -1.825317000000020e-01  9.86554670e-01   2.80833850e+00   7.82336610e-01
C     6.091778607699999e+00   5.681673984666680e-01  -1.167128999999996e-01  1.45719786e+00   9.99544370e-01  -1.13715720e-01
C     6.209879370600000e+00   8.259188814372497e-01   3.284185800000000e+00 -3.04330520e-01  -1.35630242e+00   2.13461110e-01
C     7.434727616199999e+00   1.544068277848096e+00   3.247935900000000e+00 -1.32089879e+00   6.72628830e-01   2.46891670e-01
C     1.228587808360000e+01   8.410330153769545e+00  -6.293940000000120e-02 -6.52287500e-02  -7.60859600e-02  -3.60356880e-01
C     8.594599940799998e+00   5.798064967014320e-01  -1.821741000000010e-01  7.98402800e-02   7.89210000e-01   4.49423460e-01
C     8.637711952700000e+00   8.455259011311113e-01   3.334467900000000e+00  1.36404779e+00  -9.46600590e-01  -7.87634320e-01
C     9.891653804500001e+00   1.545850967066005e+00   3.343378800000000e+00 -2.55986990e-01   6.21654930e-01   1.32207077e+00
C     1.221591487600000e+00   2.004365345574592e+00   1.309731000000000e-01  1.31652550e-01   7.63484300e-01  -1.58239260e+00
C     2.451543910100000e+00   2.745533437926479e+00   1.649625000000000e-01 -6.08911600e-02  -2.97231080e-01   5.50567680e-01
C     2.462589575100000e+00   2.958488674188247e+00   3.849937800000000e+00  7.39579560e-01  -7.19114510e-01  -8.04550220e-01
C     3.719487257699999e+00   3.627424337598661e+00   3.751266600000000e+00  4.43504480e-01   1.06679721e+00   2.82042420e-01
C     3.682245889799999e+00   2.035692413322568e+00  -1.459200000002880e-03 -1.22777617e+00  -1.24407953e+00   2.44510480e-01
C     4.876578322799999e+00   2.745093935057074e+00  -2.925599999997530e-03  2.00850511e+00   2.16211270e-01  -3.25789000e-01
C     4.967314923500000e+00   2.906882652011738e+00   3.526464600000000e+00 -6.35278070e-01   1.67791537e+00  -2.06180010e-01
C     6.176469845200000e+00   3.658208922010843e+00   3.371298600000000e+00  2.30693800e-01   9.43993390e-01  -5.24040450e-01
C     6.133002873299999e+00   2.025734475471106e+00  -1.212915000000017e-01 -5.66068260e-01  -3.61835490e-01  -3.88323900e-02
C     7.373628252800000e+00   2.755982198100331e+00  -1.678418999999991e-01 -9.77201200e-02  -1.00905680e+00  -2.96163870e-01
C     7.409755736500000e+00   2.977584975665300e+00   3.220783800000000e+00  7.82348620e-01  -7.84530550e-01   9.27192620e-01
C     8.676816318300000e+00   3.656517087864441e+00   3.374781300000000e+00 -1.25584818e+00   5.45339520e-01  -6.17165600e-01
C     8.621724751500000e+00   2.025804153796623e+00  -2.057825999999991e-01 -5.51365710e-01  -2.45874300e-01   9.94517760e-01
C     9.852457888800000e+00   2.723972180294165e+00   2.308290000000000e-02 -6.55083910e-01   1.58875860e-01  -3.32859940e-01
C     9.882114846099999e+00   2.969182589352980e+00   3.563427300000000e+00  5.21359670e-01  -8.66181500e-01  -2.25918310e-01
C     1.109192461970000e+01   3.674801841785475e+00   3.870425400000000e+00 -5.83878600e-02   5.25494440e-01  -1.10949359e+00
C     2.446955312600000e+00   4.173794545573453e+00   3.388395000000000e-01 -6.18348170e-01  -5.80432260e-01  -8.97033780e-01
C     3.678646891200000e+00   4.893831746421218e+00   2.728644000000000e-01 -8.41128900e-02  -4.91113020e-01  -1.34819271e+00
C     3.721730555600000e+00   5.070785148257628e+00   3.776294700000000e+00  1.19334972e+00   1.02704620e+00  -1.09082888e+00
C     4.976153230300000e+00   5.823149078810263e+00   3.426671100000000e+00 -1.31940883e+00  -1.90435166e+00   9.43448550e-01
C     4.888577992100000e+00   4.179295119954355e+00   3.254370000000000e-02 -2.53008640e-01  -6.03712010e-01   2.50607790e-01
C     6.099884710900000e+00   4.862259523682360e+00  -1.966794000000007e-01  1.33852010e+00   8.87369290e-01   3.49576380e-01
C     6.205223725100000e+00   5.123386562885791e+00   3.301065600000000e+00 -8.44077520e-01  -1.80493124e+00   3.01428910e-01
C     7.436604072800000e+00   5.799525820927238e+00   3.189637200000000e+00  2.68335680e-01  -1.90315560e-01  -1.38672070e-01
C     7.350342235899999e+00   4.178755283711808e+00  -2.036405999999999e-01  4.19495530e-01  -5.80596880e-01   2.33792610e-01
C     8.603945544600000e+00   4.874559199767857e+00  -1.145549999999993e-01 -4.13061920e-01   2.67538940e-01  -3.65763460e-01
C     8.682262489299999e+00   5.063109687907471e+00   3.284309400000000e+00 -7.10704280e-01   1.38262818e+00   9.77347280e-01
C     9.861344312400000e+00   5.825733922672663e+00   3.524018100000000e+00  1.03817901e+00  -1.35824556e+00   1.07900190e-01
C     9.821965592300000e+00   4.161690412827948e+00   3.939660000000000e-02  3.36695150e-01  -7.62739360e-01   2.64341710e-01
C     1.104583163400000e+01   4.860195559459240e+00   1.992726000000000e-01  8.38751230e-01   6.22850110e-01   3.26071960e-01
C     1.110411320660000e+01   5.115605901926520e+00   3.803855400000000e+00 -5.16900600e-01   4.47127300e-02  -1.05596000e-02
C     1.234983753720000e+01   5.837791347030843e+00   3.830805300000000e+00  1.25386510e-01  -2.42192400e+00  -3.28956270e-01
C     3.665877155900000e+00   6.290043386033608e+00   4.838040000000000e-02  1.95185329e+00   4.09581050e-01   8.67958430e-01
C     4.929945720699999e+00   7.019305279902915e+00  -8.891369999999910e-02 -1.82115660e-01  -9.88496520e-01  -8.54187230e-01
C     4.970754387300000e+00   7.213473326867008e+00   3.338392500000000e+00 -1.53351675e+00   2.08732202e+00  -6.79384100e-02
C     6.172922956699999e+00   7.955897080709978e+00   3.234444600000000e+00  1.08219390e+00  -2.96778220e-01   6.87972200e-02
C     6.180963096499999e+00   6.295151080542325e+00  -2.548401000000027e-01 -2.65062963e+00  -6.16223340e-01   7.59294480e-01
C     7.387121169799999e+00   6.981169290588292e+00  -3.011921999999991e-01  7.41138670e-01   1.32528248e+00   3.99531230e-01
C     7.413817464899999e+00   7.220612110408497e+00   3.153307200000000e+00  2.61832950e-01   9.55170630e-01   7.94943310e-01
C     8.647449392900000e+00   7.946924800838223e+00   3.274906200000000e+00 -5.54432330e-01   3.47681820e-01   3.24661500e-01
C     8.627931276399998e+00   6.303319071016968e+00  -1.768298999999978e-01 -1.45246670e-01  -9.90277440e-01   4.11209300e-02
C     9.858669294399999e+00   7.007037539716615e+00  -6.651659999999993e-02 -5.77218840e-01  -1.86471313e+00  -1.86147370e-01
C     9.862718155500000e+00   7.234245836101284e+00   3.452184600000000e+00  5.91551320e-01   4.23428700e-01  -8.66108300e-01
C     1.113068723770000e+01   7.911228833768259e+00   3.401570400000000e+00 -1.06250859e+00   1.27405472e+00   7.66232480e-01
C     1.108071966640000e+01   6.291152859665273e+00   1.237812000000000e-01 -6.67455770e-01  -6.06936090e-01  -2.26673310e-01
C     1.231375683920000e+01   6.972082758756315e+00   8.304510000000000e-02 -6.46375310e-01   1.73428217e+00  -3.76665020e-01
C     1.232933430810000e+01   7.207768755525738e+00   3.604140600000000e+00  1.71985168e+00   2.06950749e+00  -1.09031413e+00
C     1.357338327680000e+01   7.960650662454090e+00   3.387190200000000e+00 -7.09221000e-03  -1.37077628e+00   7.77299290e-01
