76
Lattice="10.7446858958278 0 0 5.37234294791388 9.3051709414712 0 0 0 30 " PBC="1 1 1" Properties=species:S:1:pos:R:3:force:R:3 Energy="-602.36223986"
C     1.433240636246835e-01   8.966937281501940e-02  -3.952458000000014e-01  2.79826567e+00  -1.35580917e+00   1.18068285e+00
C     1.263018180886832e+01   8.569246465300271e+00  -6.551669999999987e-01 -2.84568772e+00   1.45440901e+00   7.69812520e-01
C     1.399511353429334e+01   8.445317779376907e+00  -7.300757999999981e-01  2.16147207e+00   4.52426710e-01   9.08331850e-01
C     1.448311933169274e+01   7.146106735910176e+00  -3.356112000000024e-01  3.93394849e+00  -4.94926930e-01  -1.15270321e+00
C     8.350992511371850e+00   8.973467650467633e+00  -9.983040000000187e-02 -3.36177342e+00   1.54827469e+00   8.78635590e-01
C     9.707031558682022e+00   8.862823677940177e+00  -2.237643000000027e-01  3.34214163e+00  -4.31436720e-01  -8.54016260e-01
C     1.036043041358699e+01   7.557230031622281e+00  -1.656201000000017e-01  7.26921640e-01   2.48402921e+00  -1.44614158e+00
C     1.180552550061701e+01   7.411528083164701e+00  -2.995526999999996e-01 -1.81684997e+00   1.12811550e+00   4.53459170e-01
C     1.231884916257287e+01   6.154309880374549e+00   6.147810000000001e-02  9.87668110e-01  -3.47652600e-01  -4.81592740e-01
C     1.373194539307724e+01   6.025423306322644e+00   9.419100000000000e-03 -1.31784377e+00  -2.15381550e+00   9.29551930e-01
C     6.133357409197025e+00   7.933771776156390e+00  -3.194762999999980e-01 -4.01768601e+00   3.32172595e+00  -8.05681750e-01
C     7.468683818050911e+00   7.787655933695399e+00  -1.835994000000021e-01  4.51536842e+00  -8.13865730e-01   3.31491700e-02
C     8.166521189582248e+00   6.407149147690845e+00  -1.789841999999986e-01 -4.31654044e+00   3.87384937e+00  -7.87266600e-02
C     9.552260482763486e+00   6.436629697211243e+00  -1.600650000000030e-01 -8.77160200e-02  -2.77515529e+00   2.23396726e+00
C     1.008359272179861e+01   5.159745108691111e+00   2.168430000000000e-01 -2.64318060e-01  -1.04803915e+00  -1.45721633e+00
C     1.150794379588952e+01   4.986621751990445e+00   3.174717000000000e-01 -2.19261718e+00   3.23020647e+00  -3.79389020e-01
C     1.200221374516862e+01   3.758799421665137e+00   4.885407000000000e-01  2.80842844e+00  -5.81942464e+00  -1.37185920e-01
C     5.209574550642664e+00   6.864655835935859e+00  -3.785070000000026e-01  9.10059800e-02  -1.02663343e+00   8.83553410e-01
C     5.782817995010199e+00   5.515746153633716e+00  -2.119560000000007e-01 -2.02582700e-02   5.80991700e-01   1.13580198e+00
C     7.245709666466674e+00   5.291094575387416e+00  -9.875040000000013e-02 -1.22116607e+00   3.03035596e+00  -3.39316090e-01
C     7.789350211817402e+00   4.031034759495606e+00   3.019830000000000e-02  5.31066640e-01   9.96148730e-01  -4.74777770e-01
C     9.198420677132187e+00   4.012602146380560e+00   1.150458000000000e-01  1.15648963e+00  -1.34458050e+00  -4.77827700e-02
C     9.774414707366693e+00   2.693988332676578e+00  -4.613489999999842e-02  1.09771206e+00   1.58743254e+00   2.35767320e-01
C     1.115998246163754e+01   2.560396412835443e+00   2.821872000000000e-01  8.93894200e-01  -1.41514156e+00  -1.21070968e+00
C     3.495427693567993e+00   4.653247998170928e+00   3.154365000000000e-01  4.15367774e+00   2.10837615e+00  -1.49537833e+00
C     4.925930100336641e+00   4.368325990280863e+00   9.238919999999999e-02  5.43972110e-01   3.16878849e+00  -8.09744710e-01
C     5.519065826392001e+00   3.106458737985668e+00  -7.457279999999855e-02 -4.25641820e-01  -4.41631580e-01   7.01187910e-01
C     6.954547911564434e+00   2.924333279762518e+00  -1.786577999999999e-01 -1.12053513e+00   5.38057360e-01  -1.22130487e+00
C     7.522796581244497e+00   1.760718396905689e+00  -7.282758000000022e-01  5.60666090e-01  -6.98935720e-01   2.67418146e+00
C     9.006834439233327e+00   1.649189037363294e+00  -5.969619000000002e-01 -2.02299568e+00  -5.32069060e-01  -3.89151100e-02
C     9.566927731144999e+00   3.778064103165638e-01  -7.440630000000006e-01 -1.32292600e+00  -3.66695223e+00   8.29965930e-01
C     2.787211062904112e+00   3.519376628965262e+00   5.059941000000000e-01 -5.44319125e+00   2.94904210e-01  -5.95786820e-01
C     3.299930927235826e+00   2.247818692498023e+00   2.301252000000000e-01 -4.62035933e+00  -2.65946281e+00   1.02402861e+00
C     4.573764907726288e+00   2.014737559897176e+00  -8.486100000000008e-02  5.09542041e+00  -3.46176180e-01  -1.43207573e+00
C     5.135240073691559e+00   7.531478808511216e-01  -4.571961000000009e-01  2.13100839e+00  -9.86701500e-01   1.55661250e+00
C     6.643842217691250e+00   6.399396823677311e-01  -6.238529999999969e-01 -1.43331156e+00  -2.44470638e+00  -1.20714067e+00
C     1.015913758761636e+00   1.153084407007450e+00   8.254440000000000e-02 -2.59652378e+00   2.75501085e+00  -4.12209690e-01
C     2.381091107706331e+00   1.048178840346984e+00   1.860207000000000e-01  2.98586204e+00  -1.56800346e+00  -1.39004956e+00
C     1.598521863061547e+01   9.262451830731555e+00   3.132680400000000e+00 -8.81287790e-01  -1.16739644e+00  -5.26266040e-01
C     1.171655606306552e+01   8.700227819434190e+00   3.518831100000000e+00  1.93565089e+00   1.04765217e+00   9.10669170e-01
C     1.318169283664080e+01   8.956594025691874e+00   3.437474400000000e+00 -2.39333158e+00   5.53203060e-01  -7.94792340e-01
C     1.401363028129225e+01   7.779816234126740e+00   3.460472700000000e+00  3.50549420e-01   3.14374587e+00  -3.93014890e-01
C     7.431069251439626e+00   8.231020716197511e+00   3.340482900000000e+00  2.07710740e-01  -1.03487810e-01   4.07373660e-01
C     8.812628432018327e+00   8.386368404851494e+00   3.558361500000000e+00  3.40558675e+00   2.31591624e+00  -2.66527330e-01
C     9.750116406055284e+00   7.308057559966603e+00   3.654268200000000e+00 -1.60347914e+00  -1.71720408e+00   1.83190323e+00
C     1.119891180173897e+01   7.401120621675149e+00   3.575493900000000e+00 -2.74862957e+00   1.96733056e+00  -6.51491150e-01
C     1.201700031328705e+01   6.310867706509280e+00   3.445019400000000e+00  1.64683863e+00  -1.33392469e+00   1.69642652e+00
C     1.343472492468970e+01   6.556496024657332e+00   3.519328200000000e+00  2.98062160e-01  -5.20177923e+00   8.15501940e-01
C     4.668455729349237e+00   7.936819964052916e+00   3.392295600000000e+00  1.95266026e+00  -5.57205780e-01   8.89004160e-01
C     5.531356994933589e+00   6.738825638330906e+00   3.765992100000000e+00 -2.78198293e+00   3.47042663e+00  -1.39866874e+00
C     6.878305876802074e+00   6.937820068744344e+00   3.661554000000000e+00  1.73193656e+00   5.32772630e-01   4.18425230e-01
C     7.758461281345223e+00   5.845538812416974e+00   3.942409800000000e+00 -1.56709509e+00  -1.63184010e-01   1.36028770e-01
C     9.110209169724087e+00   6.015167053860866e+00   4.014445800000000e+00  4.35998745e+00  -5.82177220e-01  -3.87547014e+00
C     9.969612234196543e+00   4.843224322167865e+00   3.623456400000000e+00  1.04270242e+00   6.04169230e-01   1.53324036e+00
C     1.146361659420907e+01   5.013167543648077e+00   3.604460400000000e+00 -2.37772860e+00  -1.40890049e+00  -9.71273330e-01
C     1.225426650882117e+01   3.821540374193472e+00   3.512664000000000e+00  1.57574007e+00   1.17538744e+00  -5.13288520e-01
C     3.577532190127681e+00   5.322960226323155e+00   3.764321700000000e+00 -3.37546693e+00   1.64450170e+00  -7.12203700e-01
C     4.935418839901791e+00   5.506298334423206e+00   4.042451700000000e+00  7.54176240e-01  -2.25448920e+00  -1.41125720e+00
C     5.816613363018329e+00   4.323190421171009e+00   3.985966800000000e+00 -9.74239490e-01   5.93407960e-01   7.87061970e-01
C     7.210309955683387e+00   4.527119290682220e+00   3.943611900000000e+00  5.37915400e-02  -1.80400449e+00  -2.02179067e+00
C     7.968675312571766e+00   3.369401466856906e+00   3.391794900000000e+00  9.22133300e-01   2.91592390e+00   2.77522255e+00
C     9.412023904632168e+00   3.548747284416859e+00   3.380946000000000e+00  7.43068070e-01  -8.70874010e-01  -1.24582908e+00
C     1.030577106822167e+01   2.389718641161228e+00   3.018928800000000e+00  1.64050900e-01   1.18379006e+00   2.05749596e+00
C     1.175617381519257e+01   2.516314840437962e+00   3.219222600000000e+00 -1.31893515e+00   1.06582952e+00  -1.96243750e-01
C     2.947635347862075e+00   4.032218656394302e+00   3.580304700000000e+00  1.10445851e+00  -9.45900000e-03   1.03384875e+00
C     3.856558198369878e+00   2.909688987840565e+00   3.615831900000000e+00 -2.18428732e+00  -2.35735060e-01   8.10557810e-01
C     5.230165774148283e+00   3.015595697842465e+00   3.896029500000000e+00  5.99751420e-01  -6.84439170e-01  -1.87766762e+00
C     6.024524163375348e+00   1.793312363570902e+00   3.606763800000000e+00 -1.06050840e-01   3.38977184e+00   1.69705661e+00
C     7.380801903882791e+00   2.105533044499355e+00   3.362466000000000e+00  5.83206830e-01  -1.55429748e+00  -5.14265500e-02
C     8.275035909190422e+00   1.029106961988360e+00   3.241718400000000e+00  1.63073521e+00  -4.00119472e+00  -7.54639200e-02
C     9.719480620382910e+00   1.100178647955858e+00   3.036441600000000e+00 -2.59976770e-01   4.61802770e-01   3.77173340e-01
C     1.915981483831811e+00   1.424473439540926e+00   3.143808300000000e+00 -1.89719901e+00  -1.13486896e+00   2.73419870e-01
C     3.266358242842974e+00   1.607518062549529e+00   3.478848600000000e+00  1.55272177e+00  -6.72482600e-01  -1.50326270e-01
C     4.106239878461448e+00   4.476457194447681e-01   3.622637700000000e+00 -4.18907818e+00  -2.27657515e+00  -5.16815480e-01
C     5.465064109527192e+00   5.000933849309840e-01   3.742680600000000e+00  2.27587951e+00   1.04519919e+00  -1.81219997e+00
C     1.298674780992960e+00   8.915479686203739e-02   3.002621100000000e+00 -2.98321740e-01   4.61935720e-01   2.11461299e+00
