52
Lattice="8.88768389401873 1.33226762955019e-15 0 4.44384194700937 7.69696003302603 0 0 0 30 " PBC="1 1 1" Properties=species:S:1:pos:R:3:force:R:3 Energy="-416.14379558"
C     1.238760986049033e+01   6.473397307941389e+00  -1.962516000000001e-01  2.41036890e-01   7.06111310e-01   2.72834330e-01
C     8.488910404434669e+00   6.126131638027871e+00  -1.921337999999970e-01  3.03535618e+00   3.68190788e+00   1.02104719e+00
C     9.933984657762682e+00   5.830646497020177e+00  -2.064507000000013e-01 -3.52419330e-01  -1.29171627e+00  -7.05813360e-01
C     1.022848592812928e+01   4.400863589114594e+00  -3.328410000000019e-01  1.28475096e+00   2.86230180e+00   1.42755689e+00
C     6.164819728283057e+00   5.600375543197862e+00  -6.325980000000087e-02  9.30949970e-01   3.77165407e+00   4.42091820e-01
C     7.472690183696284e+00   5.136738918833973e+00  -9.666239999999959e-02  1.61759679e+00   1.43422934e+00  -1.27818571e+00
C     7.777910578588736e+00   3.791721323255575e+00  -3.358100999999998e-01  2.92334547e+00   3.51191900e-01   1.84607649e+00
C     9.213498073654057e+00   3.434526036116155e+00  -1.886651999999991e-01 -3.48457600e-01  -4.61539700e-01  -1.47700004e+00
C     9.646601974441136e+00   2.077844390338695e+00  -1.006476000000021e-01 -1.91967581e+00   5.10154610e-01  -4.32159500e-01
C     3.796453321772665e+00   5.132524833217547e+00  -2.797173000000015e-01  3.34581250e-01  -2.68499081e+00   2.37096470e-01
C     5.177278152668674e+00   4.707979837332423e+00  -2.196513000000024e-01 -3.65596736e+00  -3.27828871e+00   8.53180350e-01
C     5.451620956121388e+00   3.256589022625820e+00  -1.104725999999978e-01  4.28421570e-01   2.08703059e+00  -2.06520924e+00
C     6.766373945095448e+00   2.844147496387871e+00  -2.909366999999996e-01  1.49453365e+00  -3.10792400e-01   4.32951930e-01
C     7.169744810447508e+00   1.494025353887177e+00  -2.899998000000004e-01 -1.27638690e-01  -9.61290560e-01   1.16122456e+00
C     8.535290201869007e+00   1.128995562042021e+00  -1.085001000000005e-01  2.48227817e+00  -5.97581600e-02  -4.48744360e-01
C     2.757484274199799e+00   4.102376710664798e+00  -2.931555000000010e-01 -1.97756670e-01   6.30725800e-01  -8.57181500e-02
C     3.119731470691958e+00   2.762237525323015e+00  -2.180768999999998e-01  8.07803380e-01  -2.64134403e+00  -2.31639240e-01
C     4.482812884993644e+00   2.279337796061645e+00  -2.356271999999997e-01 -1.89057505e+00   2.43137274e+00   8.03421450e-01
C     4.820558381230295e+00   9.510549309804722e-01  -2.223558000000025e-01 -9.13307230e-01  -4.46676285e+00   4.19233650e-01
C     6.154537963416282e+00   4.892733509534127e-01  -1.808180999999998e-01  1.92022906e+00   7.28855160e-01  -5.52400780e-01
C     1.104615689148225e+01   6.828185447801027e+00  -1.525257000000018e-01 -4.58617493e+00  -2.08366010e-01  -5.11058030e-01
C     2.162766504931540e+00   1.713225385250340e+00  -1.359624000000004e-01 -3.21091353e+00   2.36605854e+00   4.64213440e-01
C     2.421528532022617e+00   3.754821096266951e-01  -2.325959999999938e-02  2.75676385e+00  -3.03277730e+00  -1.91959230e-01
C     8.235761527513581e+00   7.608580764029929e+00  -1.338417000000014e-01 -7.51434050e-01  -6.97219020e-01  -7.01503900e-02
C     4.526816077935716e+00   7.470422101792236e+00  -7.467180000000084e-02 -1.10410443e+00  -8.13915680e-01   2.23671540e-01
C     5.884324159030193e+00   7.056721814710980e+00   5.674560000000000e-02 -1.22169006e+00  -6.31967550e-01  -1.09044854e+00
C     9.447035616220543e-01   1.230444958869435e+00   3.587655300000000e+00  2.59523899e+00   5.40325380e-01   7.09696000e-01
C     3.465259600135027e+00   6.533007261559327e-01   3.484907100000000e+00 -3.56596801e+00  -2.83236730e-01   8.12866340e-01
C     4.789977638591941e+00   1.090152237493824e+00   3.474501000000000e+00  6.07091260e-01  -1.54482484e+00  -3.57414570e-01
C     5.811528601963987e+00   9.877354867298399e-02   3.341030100000000e+00 -3.47385940e-01   9.53536030e-01   1.63822760e+00
C     7.126818585308520e+00   4.711741033820683e-01   3.564796500000000e+00  2.40599930e+00   7.82084140e-01  -2.31774070e-01
C     1.259726961287939e+01   7.148679782246999e+00   3.639034500000000e+00  1.57338540e-01   1.39036536e+00  -2.60592660e-01
C     5.096660506950554e+00   7.568419181137394e+00   3.688100400000000e+00 -2.39635613e+00  -5.68021220e-01  -6.04159350e-01
C     6.093370304985429e+00   6.595848629906660e+00   3.638551200000000e+00  1.89042996e+00  -5.21293600e-01   1.07779440e-01
C     7.482320390325398e+00   6.966343340342717e+00   3.536316300000000e+00  1.35226840e+00   9.58858170e-01   1.25185670e-01
C     8.548263557225276e+00   6.027395265671832e+00   3.557129100000000e+00  2.14071150e-01   6.67290110e-01  -2.30376430e-01
C     9.939731167946007e+00   6.462671286261183e+00   3.467460900000000e+00 -2.09552575e+00  -3.03765398e+00  -6.87294660e-01
C     1.091709047837454e+01   5.414770202368839e+00   3.455856000000000e+00 -7.99437900e-01   5.70980700e-02   9.60393080e-01
C     3.361674180986491e+00   5.776982906843015e+00   3.564274500000000e+00  1.64262373e+00   7.83393450e-01  -2.90715920e-01
C     4.400612209245896e+00   4.811022966703648e+00   3.582903900000000e+00  1.11783203e+00  -9.83481040e-01   7.91518840e-01
C     5.803797831206541e+00   5.210468021991742e+00   3.677452800000000e+00 -7.87903980e-01  -4.84998400e-02  -5.35575740e-01
C     6.904975420998046e+00   4.273477746074089e+00   3.664340100000000e+00 -4.40250728e+00  -7.53790420e-01   5.75960340e-01
C     8.204425907441335e+00   4.664743780725504e+00   3.644318100000000e+00  2.25168099e+00  -1.10590800e-01  -9.39127430e-01
C     9.204253682723103e+00   3.668472596231195e+00   3.503152800000000e+00  8.90869800e-02  -1.50681582e+00   1.44578595e+00
C     1.056400346039642e+01   4.039382326752070e+00   3.568265700000000e+00 -2.93032130e-01  -6.61358910e-01  -1.32564326e+00
C     2.659659003374144e+00   2.999760785794396e+00   3.540249900000000e+00  1.59577941e+00   5.40444000e-03   1.05579204e+00
C     4.048926912325586e+00   3.425009206856662e+00   3.620145900000000e+00  7.36994150e-01  -1.18537307e+00  -4.32109900e-01
C     5.136260512376156e+00   2.406681151882783e+00   3.644537400000000e+00 -2.96296220e-01   4.32685745e+00  -1.34509360e-01
C     6.528899475431786e+00   2.898322395619825e+00   3.709280400000000e+00 -1.59448557e+00  -1.36857971e+00  -7.36577390e-01
C     7.501698337527403e+00   1.888473696662996e+00   3.650619900000000e+00 -2.07656760e-01  -1.38660300e+00  -2.53001720e-01
C     8.853517990366926e+00   2.249985592926440e+00   3.588425100000000e+00  5.75322700e-01   1.14671936e+00  -1.74055390e-01
C     2.366379432179080e+00   1.572451988720856e+00   3.632243700000000e+00 -3.89947700e-01   2.35146190e+00  -1.49194150e+00
