64
Lattice="9.86 0 0 4.93 8.53901048131456 0 0 0 30 " PBC="1 1 1" Properties=species:S:1:pos:R:3:force:R:3 Energy="-514.68102282"
C     4.986844231100000e+00   6.913105606563156e+00   6.617700000000000e-02  1.35252624e+00  -2.72059740e-01   4.95518400e-02
C     6.258121392600000e+00   7.623913247153403e+00   1.030479000000000e-01 -1.76427905e+00   8.98576690e-01  -5.01277740e-01
C     9.750670002900000e+00   1.631632329326199e+00   3.468274200000000e+00  1.87715747e+00  -3.86452450e-01  -7.90394640e-01
C     1.103890153300000e+01   2.293441932320739e+00   3.350763600000000e+00 -6.31807810e-01  -2.81640300e-02  -3.80441690e-01
C     7.488288516599999e+00   6.924082077584672e+00   1.311033000000000e-01 -1.79176877e+00   8.52784000e-03   6.97357890e-01
C     8.694550464999999e+00   7.643875404293128e+00   1.924611000000000e-01  7.95184370e-01  -5.87377140e-01  -1.18094319e+00
C     2.436161915700000e+00   1.566432031685321e+00   3.202713600000000e+00 -2.07130542e+00   1.76791404e+00   6.15345580e-01
C     3.610992451900000e+00   2.325057020892205e+00   3.177157500000000e+00  7.62321990e-01   4.11735560e-01   1.10780460e-01
C     9.900190395299999e+00   6.918843821605717e+00   2.614530000000000e-02  1.34690019e+00  -1.42088130e+00   2.04387250e-01
C     1.114989693340000e+01   7.592140784618790e+00  -5.457150000000155e-02  1.61694000e-03   1.66019599e+00   6.25655580e-01
C     4.850622760200000e+00   1.652167881019656e+00   3.245944200000000e+00  2.99911710e-01  -4.52541100e-01   8.48408430e-01
C     6.079361959000000e+00   2.339598187228702e+00   3.421029900000000e+00  6.03039000e-01  -6.86703850e-01  -1.10603322e+00
C     1.241605049380000e+01   6.910217286268296e+00  -8.039940000000101e-02 -1.25104495e+00   9.51578240e-01  -1.83537790e-01
C     1.363556378920000e+01   7.652420733640883e+00  -1.651800000001202e-03  8.12293600e-02  -9.20666050e-01  -3.37642320e-01
C     7.332937117399999e+00   1.590550722956395e+00   3.365303400000000e+00 -2.07056374e+00   1.28242211e+00   8.44670300e-01
C     8.496065411200000e+00   2.342921911667938e+00   3.476527800000000e+00  2.88588969e+00  -1.22702265e+00  -3.54255870e-01
C     1.292103700000000e+00   5.300068168018623e-01  -8.501999999985799e-04 -1.90942360e-01  -1.00753198e+00   5.12524830e-01
C     2.540186838400000e+00   1.200555670072158e+00   2.626980000000000e-02 -9.72860140e-01   1.39395934e+00   2.68757380e-01
C     1.103438185690000e+01   3.700878271989299e+00   3.275482200000000e+00  6.98119780e-01   2.27246715e+00   6.03646560e-01
C     1.228164735480000e+01   4.475211368704876e+00   3.242913600000000e+00 -2.26230675e+00  -2.22677990e-01  -2.65252620e-01
C     3.762849664300000e+00   5.095047380294873e-01   1.570170000000000e-01  7.00823850e-01   1.36205137e+00  -3.13078440e-01
C     5.011290770000000e+00   1.278661486592090e+00   1.684224000000000e-01 -3.63891360e-01  -3.87668108e+00  -2.56471430e-01
C     3.596399405400000e+00   3.750759670219162e+00   3.183216900000000e+00  1.90859260e+00   6.61038650e-01   5.09172000e-01
C     4.848699024900000e+00   4.494714895591720e+00   3.287483100000000e+00  7.78018670e-01  -2.32503955e+00   5.03254630e-01
C     6.216816915900000e+00   5.072091104520440e-01   6.530909999999999e-02  6.04279610e-01   6.62979300e-02  -3.08520830e-01
C     7.454795033300000e+00   1.233471079159519e+00   1.158990000000000e-02 -5.64067000e-03   5.05369570e-01   5.50871690e-01
C     6.077970269300000e+00   3.751243575943063e+00   3.416180100000000e+00  9.60963700e-01   6.55655950e-01  -8.59266000e-03
C     7.354840811599999e+00   4.463122520788131e+00   3.464788500000000e+00 -1.67800627e+00  -2.97514140e-01   3.30205650e-01
C     8.707665694699999e+00   5.357097657311399e-01  -5.218800000001522e-03 -1.90522790e+00  -4.70042920e-01  -6.07862500e-02
C     9.885806282199999e+00   1.250504953435338e+00   6.278100000000000e-03  2.61474453e+00  -2.09097320e-01  -4.64486950e-01
C     8.594595996799999e+00   3.736799925106248e+00   3.458740200000000e+00 -1.34741338e+00   1.91055388e+00  -1.71596300e-02
C     9.821707260299998e+00   4.473029907697551e+00   3.368198100000000e+00 -9.07360300e-02  -1.99687331e+00   2.24022020e-01
C     2.521342307799999e+00   2.653254315641529e+00  -2.345400000002940e-03  1.16286245e+00  -1.28664012e+00   2.37101350e-01
C     3.767884771900000e+00   3.306838802181314e+00   8.657220000000000e-02  1.91600700e-01   2.50612889e+00  -3.16106920e-01
C     1.226308989810000e+01   5.922355473347113e+00   3.264393900000000e+00 -6.82373210e-01  -1.20381345e+00   1.70417640e-01
C     1.350240049590000e+01   6.583975424918892e+00   3.214237800000000e+00  5.82787000e-01   1.89389219e+00   3.27169160e-01
C     5.037522757700000e+00   2.644968316042052e+00   2.109762000000000e-01 -1.91121339e+00   8.91924710e-01  -4.67943800e-01
C     6.243006949300000e+00   3.353199310219959e+00   2.464194000000000e-01 -3.12752600e-01  -2.49107000e-03  -3.36056300e-02
C     4.917821667500000e+00   5.881362074955567e+00   3.329669700000000e+00 -3.24546315e+00   1.01291382e+00  -7.03154200e-01
C     6.094906889900000e+00   6.617910477247670e+00   3.369520500000000e+00  6.77878510e-01  -2.47989400e-02   1.27405370e-01
C     7.456301000400000e+00   2.686717331470973e+00   1.278171000000000e-01  1.45500776e+00  -1.54456566e+00  -1.67619170e-01
C     8.706315811400000e+00   3.413085696249029e+00   8.780819999999999e-02 -8.90302610e-01  -1.57317921e+00  -8.27962100e-02
C     7.286952690300000e+00   5.884524412096730e+00   3.495961200000000e+00  2.74775736e+00  -7.66250300e-02  -8.61103380e-01
C     8.580919289400001e+00   6.556552307372267e+00   3.433796100000000e+00 -2.01531530e+00   1.92243358e+00  -4.48906400e-02
C     9.916405017400001e+00   2.657478051785357e+00  -2.989979999999903e-02  3.34574870e-01   1.51736549e+00   6.60802420e-01
C     1.118029196100000e+01   3.390243160094190e+00  -1.186739999999986e-02 -1.29260881e+00  -2.68787137e+00  -3.97704500e-01
C     9.795705010599999e+00   5.889283288027339e+00   3.382959600000000e+00  4.47918340e-01  -8.08758470e-01   3.43459540e-01
C     1.099368465760000e+01   6.618306089603208e+00   3.380466300000000e+00  2.01531195e+00   7.84486190e-01  -8.35582090e-01
C     3.757495881500000e+00   4.772343743327960e+00  -1.981530000000120e-02 -5.94999830e-01  -8.29142840e-01   3.48428620e-01
C     4.991685343200000e+00   5.457933295047834e+00   1.082052000000000e-01 -9.78346340e-01   1.18289576e+00   2.00059430e-01
C     1.348318345450000e+01   8.055588491042093e+00   3.200831100000000e+00  2.39371448e+00  -2.42932643e+00   1.15454721e+00
C     9.834800798000000e+00   2.155131822411568e-01   3.350942700000000e+00 -2.87884725e+00   7.62408000e-03  -6.82946650e-01
C     6.189270442300000e+00   4.736981993128185e+00   3.078993000000000e-01  1.50094214e+00   2.80510463e+00  -1.30767208e+00
C     7.412644667199999e+00   5.518143053403780e+00   2.141721000000000e-01  1.37263334e+00  -1.28025275e+00   6.66790000e-02
C     6.107391819099999e+00   8.039065505763292e+00   3.270837000000000e+00  1.78959140e-01  -4.65121760e-01   7.38670270e-01
C     2.414019017900000e+00   1.800937937206408e-01   3.257210400000000e+00  7.13301260e-01  -1.14506071e+00   2.53069740e-01
C     8.686442833499999e+00   4.825091260425436e+00   1.394364000000000e-01 -1.53672073e+00  -1.26766863e+00  -1.13338820e-01
C     9.910021308299999e+00   5.442060555417086e+00   1.698900000000000e-03  2.93689590e-01   3.48913687e+00   3.52398490e-01
C     8.576194821100000e+00   7.999952909820071e+00   3.335507400000000e+00  6.23410330e-01   2.40848980e-01   2.10561380e-01
C     4.878840995600000e+00   2.416376016838784e-01   3.345868800000000e+00 -9.27148250e-01  -1.42049275e+00  -4.55655660e-01
C     1.114270371830000e+01   4.759497826742058e+00  -3.325410000000062e-02  6.51998410e-01   2.14220962e+00  -6.16805030e-01
C     1.236747224580000e+01   5.513229194432960e+00  -1.262841000000030e-01  1.38078874e+00  -1.74973118e+00   7.47407650e-01
C     1.103692568760000e+01   8.064987123707114e+00   3.343240200000000e+00 -1.26606975e+00  -1.90345296e+00   2.80772400e-01
C     7.339379148399999e+00   1.690292001109712e-01   3.301172400000000e+00  4.38117000e-03   1.86017361e+00  -1.29578850e-01
