64
Lattice="9.86 0 0 4.93 8.53901048131456 0 0 0 30 " PBC="1 1 1" Properties=species:S:1:pos:R:3:force:R:3 Energy="-509.74436079"
C     4.971871081600000e+00   7.937000677468262e+00   1.934823000000000e-01 -1.08792190e-01  -5.76706139e+00   5.42679400e-01
C     6.189305889000000e+00   8.523493219375535e+00   2.060430000000000e-01  3.29313843e+00   2.52179250e+00  -1.10261221e+00
C     9.794573427700000e+00   7.252027044574312e-01   3.659095500000000e+00  2.45250050e-01   3.18013960e-01  -6.72694370e-01
C     1.201841661100000e+00   1.426910236189038e+00   3.442226400000000e+00 -2.91872737e+00   1.47028945e+00   4.63129760e-01
C     7.469015519699999e+00   7.768870037430101e+00   2.749239000000000e-01 -4.14132180e-01   3.09431164e+00  -5.27760920e-01
C     3.794116217300000e+00   9.939493588824800e-03   8.317950000000000e-02 -9.66378770e-01  -2.54430978e+00   2.52758000e-03
C     2.429618770400000e+00   7.263215710006257e-01   3.595551300000000e+00 -8.83994860e-01   1.13776274e+00  -7.69418230e-01
C     3.645456109900000e+00   1.426107056863289e+00   3.404266800000000e+00  3.42997650e-01  -3.88375190e-01   1.05494379e+00
C     9.960728133100000e+00   7.812120467071721e+00   4.408350000000000e-02  4.47922520e-01  -1.77820935e+00  -1.20763082e+00
C     1.122580754510000e+01   8.470869603320125e+00   8.493000000000000e-04 -2.96068958e+00   3.09265392e+00   1.60968660e+00
C     4.862230938200000e+00   6.717596849563601e-01   3.537860400000000e+00  4.43082020e-01   2.51741346e+00  -5.14766620e-01
C     6.097585457500000e+00   1.478561344340881e+00   3.471498000000000e+00 -2.39933149e+00  -1.82367703e+00  -5.53846900e-02
C     1.242030700650000e+01   7.822419879952277e+00   1.202580000000000e-01  1.28814540e-01  -2.89377700e+00  -1.90249776e+00
C     8.659079755899999e+00   5.069243344525360e-02   1.666641000000000e-01  1.75526182e+00  -2.49790085e+00  -2.02413380e-01
C     7.276919597999999e+00   6.843994698292751e-01   3.422380200000000e+00 -7.62398800e-02   2.19422366e+00   1.13157086e+00
C     8.496319454100000e+00   1.398246998150402e+00   3.550898400000000e+00  3.29886802e+00  -3.51558820e-01  -3.61852120e-01
C     1.276611322900000e+00   1.410558714240676e+00  -1.674216000000008e-01  3.46634016e+00  -3.42008620e-01   6.74336760e-01
C     2.619528385000000e+00   2.150414873022416e+00  -3.467073000000020e-01 -4.41776311e+00  -1.16195334e+00  -3.38697400e-02
C     1.095985425810000e+01   2.913987279511308e+00   3.144614700000000e+00  1.12487256e+00  -3.02923486e+00   1.16247186e+00
C     2.338950302300000e+00   3.514961812412450e+00   3.014510100000000e+00  1.22887489e+00   3.09491188e+00   3.12242800e-01
C     3.771190041100000e+00   1.396717832153644e+00  -1.654742999999996e-01  1.89788420e+00   7.95350870e-01   8.18949970e-01
C     5.012048609599999e+00   2.119289838262397e+00  -3.488550000000146e-02  8.26785000e-01  -2.56590220e-01  -6.48317500e-02
C     3.582042949599999e+00   2.853906033263085e+00   3.265368600000000e+00 -4.23930290e-01   3.17684420e-01  -1.01167607e+00
C     4.718709764200000e+00   3.675132557661365e+00   3.302482800000000e+00  4.37100870e+00  -2.04096985e+00   1.53895600e+00
C     6.235691815300000e+00   1.397674542887823e+00   1.656447000000000e-01  1.85688676e+00  -8.86311600e-02  -5.92177590e-01
C     7.551123634400000e+00   2.110659460370261e+00   2.494158000000000e-01 -3.75741281e+00   9.50143580e-01  -9.42010650e-01
C     6.015954024500000e+00   2.901026940184974e+00   3.494046900000000e+00  3.54866250e-01   1.06676370e-01  -1.34862614e+00
C     7.310810932299999e+00   3.549311519090137e+00   3.434711100000000e+00 -4.32137610e-01  -1.07982928e+00   1.83963031e+00
C     8.739600657099999e+00   1.404929115411421e+00   9.406470000000000e-02 -9.51552620e-01   2.18534584e+00   5.10030450e-01
C     9.944090319800001e+00   2.115093085391687e+00  -1.416426000000008e-01 -2.53797400e-02  -2.43073860e-01  -2.32774090e-01
C     8.602907385200000e+00   2.792946037446365e+00   3.489449700000000e+00 -3.14646917e+00   3.40644569e+00  -6.35189980e-01
C     9.772524890100000e+00   3.663900941006706e+00   3.319107900000000e+00 -4.26692500e-01  -5.24679041e+00  -1.29532160e-01
C     2.543394838699999e+00   3.544870892080117e+00  -5.868696000000000e-01  7.46661110e-01   8.29322490e-01   5.91339160e-01
C     3.851315901400000e+00   4.292624098533971e+00  -4.260386999999994e-01 -1.74503923e+00  -1.03096739e+00   1.07296202e+00
C     1.224118383750000e+01   5.009723452826091e+00   2.944098600000000e+00  1.61735195e+00  -1.27225073e+00   1.17857663e+00
C     3.649952910800000e+00   5.763356792676683e+00   3.210101700000000e+00 -2.15042325e+00   9.51166000e-01   1.60888070e-01
C     5.039304607600000e+00   3.564552884285994e+00  -7.056719999999927e-02 -2.32529313e+00  -1.56738082e+00  -1.37792333e+00
C     6.213173399400000e+00   4.251142951863808e+00   9.186480000000000e-02  2.55298847e+00  -1.07099038e+00   2.08563701e+00
C     4.853718011400000e+00   5.107006606032531e+00   3.420321000000000e+00 -1.07696834e+00  -3.19714966e+00  -9.89307760e-01
C     6.103229025699999e+00   5.693633295794444e+00   3.627017100000000e+00 -8.22963420e-01   2.13171162e+00   1.06401357e+00
C     7.480070551699999e+00   3.548313479545234e+00   2.118063000000000e-01 -5.87094560e-01  -9.33827230e-01  -1.00130898e+00
C     8.648735284799999e+00   4.260552429072139e+00  -6.763379999999941e-02  2.63168560e+00  -1.43375800e-02   1.60663050e-01
C     7.279304041799999e+00   4.940092348037246e+00   3.690676200000000e+00  2.06122365e+00   1.15473550e-01  -2.14869105e+00
C     8.509450558399999e+00   5.636229370892121e+00   3.512882100000000e+00  5.21701270e-01   3.50620000e+00   1.35800830e+00
C     9.913413739899999e+00   3.509193369272791e+00  -3.262524000000013e-01 -1.69324233e+00   1.87114824e+00   1.25610100e-01
C     1.107471970850000e+01   4.235370118655676e+00  -6.233019000000013e-01  4.30279966e+00   2.86281040e-01   1.02614566e+00
C     9.776146517399999e+00   5.024338566993345e+00   3.301498200000000e+00 -1.26901476e+00   2.09738720e-01  -3.72886620e-01
C     1.101556670910000e+01   5.675821603054002e+00   3.079215600000000e+00 -4.51010870e-01   8.23645130e-01   5.32232700e-01
C     3.838404330000000e+00   5.696122161179050e+00  -1.962803999999991e-01  2.16325260e-01   5.68775700e-02  -1.55806320e-01
C     5.053599931399999e+00   6.396953078094779e+00   1.701837000000000e-01 -1.57413014e+00   8.23034640e-01   2.90260470e-01
C     1.350347784880000e+01   7.180453058730953e+00   3.439494300000000e+00 -2.32316320e+00  -1.25838708e+00  -1.97394960e-01
C     4.861311591799999e+00   7.838495848032450e+00   3.734334900000000e+00 -1.18126750e-01   7.19015950e-01  -6.63573130e-01
C     6.242836519200000e+00   5.593588455818564e+00   4.090485000000000e-01 -3.63469050e-01   4.47162745e+00  -2.18731225e+00
C     7.468483572700000e+00   6.396910639212694e+00   3.649704000000000e-01  2.03853294e+00  -2.39144112e+00  -9.13772790e-01
C     6.089583032200000e+00   7.142102313302757e+00   3.791946900000000e+00  7.53324980e-01  -7.81191640e-01  -5.16890850e-01
C     7.331695348999999e+00   7.873419546994602e+00   3.781645500000000e+00 -8.31701690e-01  -1.32411589e+00  -1.75590060e-01
C     8.749623544300000e+00   5.688526967527404e+00   5.912100000000000e-03 -1.24503405e+00  -7.11686870e-01   4.49365600e-01
C     1.002379210150000e+01   6.315836150309285e+00  -1.800020999999994e-01 -2.87096895e+00   4.04537828e+00   1.13998378e+00
C     8.515742125799999e+00   7.127120448635387e+00   3.665960700000000e+00  9.00545580e-01  -1.95580949e+00  -4.26115130e-01
C     9.769514484200000e+00   7.798443277815591e+00   3.571239900000000e+00  1.75207450e-01  -7.28976100e-01  -1.01865378e+00
C     1.124583695190000e+01   5.697148294068431e+00  -4.503230999999985e-01 -2.85426919e+00  -2.82093682e+00  -8.47903500e-02
C     1.242669673020000e+01   6.348819529920068e+00  -2.461506000000000e-01  2.59429913e+00   3.19102504e+00   1.16630346e+00
C     1.098207914180000e+01   7.056768907532343e+00   3.274609200000000e+00  2.37279870e-01   2.38722123e+00   9.30992110e-01
C     1.217822704730000e+01   7.830052389079721e+00   3.384045900000000e+00  2.10516426e+00  -1.06357718e+00  -4.39374230e-01
