64
Lattice="9.86 0 0 4.93 8.53901048131456 0 0 0 30 " PBC="1 1 1" Properties=species:S:1:pos:R:3:force:R:3 Energy="-510.52149184"
C     5.047353769300000e+00   8.126157606132166e+00  -8.229596999999984e-01 -4.18349805e+00   7.30607300e-02   1.04262120e-01
C     1.245939327900000e+00   3.619508077152968e-01  -8.997708000000024e-01  3.20466952e+00  -7.27844650e-01   1.69781227e+00
C     9.799672230900001e+00   3.283964244737176e-01   4.229552099999999e+00 -1.40896188e+00   1.24308543e+00  -1.15753432e+00
C     1.130846210100000e+00   1.048694065141123e+00   4.178750700000000e+00  2.57204538e+00  -8.23427310e-01  -1.30192600e-01
C     7.462031040799999e+00   8.191716798383519e+00  -8.525205000000007e-01  5.75070320e-01   3.32171161e+00   1.64095580e-01
C     3.830262878700000e+00   4.118865994419176e-01  -6.955050000000007e-01 -3.97751679e+00  -2.50506948e+00  -3.75979970e-01
C     2.362476804600000e+00   3.398259753913024e-01   3.896330400000000e+00  8.70390560e-01  -5.77943550e-01   1.28190190e-01
C     3.623078346900000e+00   1.004568386925303e+00   3.969938400000000e+00 -2.72666175e+00   4.38187070e+00   4.12583100e-01
C     9.905636024000000e+00   8.169018229945372e+00  -6.829091999999974e-01  2.10094988e+00   7.43085670e-01   1.34408130e-01
C     6.256865376500000e+00   3.150663459935992e-01  -7.093269000000006e-01 -1.74892997e+00   2.11086774e+00  -1.76783210e-01
C     4.821970142500000e+00   3.624733951566728e-01   3.907379700000000e+00  1.95108356e+00   2.02952497e+00  -4.66771130e-01
C     6.081758974300000e+00   1.109536222613218e+00   3.918591600000000e+00  1.19322265e+00  -2.11088656e+00   4.07170090e-01
C     1.238622315570000e+01   8.198037630111129e+00  -6.649971000000008e-01  1.99764308e+00  -1.09198321e+00   7.10605970e-01
C     8.742507335799999e+00   3.712351884200960e-01  -7.422137999999983e-01 -1.09631281e+00  -1.41195846e+00  -2.58982380e-01
C     7.330044291999998e+00   2.969165938282544e-01   4.030904700000000e+00 -9.10466900e-02   2.74862675e+00  -5.59961980e-01
C     8.552140118600001e+00   1.053363964582530e+00   4.192076100000000e+00 -2.63666760e-01  -8.11466130e-01   2.79865530e-01
C     1.243575590100000e+00   1.760352618125702e+00  -5.726627999999998e-01  3.28697149e+00   3.39245200e-01  -1.17824178e+00
C     2.495083205100000e+00   2.504840421581898e+00  -4.506288000000005e-01  8.33382600e-01  -6.39704190e-01   6.04680160e-01
C     1.107307294060000e+01   2.437310425711762e+00   4.384714500000000e+00 -1.25394803e+00   1.16655218e+00   3.82685980e-01
C     2.387911019700000e+00   3.207361721012249e+00   4.381096200000000e+00  9.26830090e-01   4.43782430e-01  -9.07779920e-01
C     3.735530513000000e+00   1.784144436075602e+00  -5.116209000000005e-01  1.46569780e+00   1.07159171e+00  -9.78685030e-01
C     5.012046588300000e+00   2.459349355590327e+00  -6.334941000000001e-01 -4.12367420e-01   4.37919570e-01   2.47109440e-01
C     3.602990963300000e+00   2.518465608264206e+00   4.151959199999999e+00  1.59683742e+00  -1.53935134e+00  -4.72801060e-01
C     4.868394128399999e+00   3.237686394319978e+00   3.982073400000000e+00 -2.12816550e-01  -2.63268202e+00  -2.41662790e-01
C     6.259988975200001e+00   1.767950885821120e+00  -7.972529999999978e-01 -7.32808450e-01  -5.37261970e-01   5.81133380e-01
C     7.492121985999999e+00   2.482986105109910e+00  -8.347577999999984e-01 -5.36578640e-01   1.57123386e+00   4.54123920e-01
C     6.145691214299999e+00   2.537094655087793e+00   3.880435499999999e+00 -2.37394547e+00  -1.81300030e+00   8.15604280e-01
C     7.347936642400000e+00   3.212691173623131e+00   3.998894400000000e+00  2.04939653e+00  -6.29536610e-01  -9.02205700e-02
C     8.703663422100000e+00   1.792435046740738e+00  -7.729223999999988e-01  1.83501401e+00  -3.81944750e-01  -4.78996620e-01
C     9.989319175100000e+00   2.512805439777433e+00  -6.955907999999980e-01 -4.50707852e+00   1.18134240e+00   6.97713820e-01
C     8.587784610200000e+00   2.465841821428586e+00   4.240490700000000e+00 -1.49385780e-01   1.02525301e+00  -7.19367700e-02
C     9.867680792099998e+00   3.172642275180778e+00   4.434133800000000e+00 -2.84592557e+00  -1.47119750e-01  -1.04427184e+00
C     2.564822344200000e+00   3.942481290680733e+00  -2.531154000000022e-01 -2.22093840e-01  -2.03239984e+00  -5.25430590e-01
C     3.815861855700000e+00   4.646099255227029e+00  -3.478482000000014e-01 -1.18752965e+00  -2.30599782e+00  -3.99938660e-01
C     1.222548415390000e+01   4.678623492244301e+00   4.321932300000000e+00 -1.14014615e+00  -1.35291314e+00  -6.59609970e-01
C     3.587319725800000e+00   5.266697885842993e+00   4.039456800000000e+00  2.40245325e+00   3.03148098e+00   1.51324620e-01
C     5.022321842199999e+00   3.871892365086345e+00  -5.818635000000008e-01 -3.26801170e-01   1.19839855e+00   1.03802547e+00
C     6.235712422700000e+00   4.604847978718988e+00  -6.101601000000016e-01  5.95788890e-01   7.09204550e-01  -1.58401703e+00
C     4.863973101600000e+00   4.599302489142962e+00   3.879200700000000e+00 -1.09974410e-01   1.67972748e+00   2.90933430e-01
C     6.123313599199999e+00   5.306455860198293e+00   3.715125900000000e+00 -1.35690489e+00   2.00999637e+00  -6.23709000e-03
C     7.509227261900000e+00   3.963042459405630e+00  -7.832565000000002e-01 -3.57085507e+00  -3.07624325e+00   3.08503850e-01
C     8.650663555700000e+00   4.667996522921732e+00  -7.464360000000028e-01  4.80575363e+00  -3.89142310e-01   8.80772180e-01
C     7.368729854100000e+00   4.610903674171194e+00   3.822601800000000e+00 -1.27087378e+00   3.30210800e-01   5.97098070e-01
C     8.576466020400000e+00   5.296322616461676e+00   3.984559200000000e+00  4.27919860e-01   1.31995960e+00  -7.51743140e-01
C     9.935020253699999e+00   3.946498980501678e+00  -5.502851999999976e-01  6.42974020e-01  -6.27834040e-01  -4.07861000e-02
C     1.119202003660000e+01   4.596666496607786e+00  -2.493653999999985e-01 -2.39244222e+00   3.07102418e+00  -9.09375860e-01
C     9.773187284900001e+00   4.592985585360172e+00   4.299258300000000e+00  1.45993472e+00   1.82269572e+00  -3.83914860e-01
C     1.097003628570000e+01   5.435878653389985e+00   4.242241200000000e+00  7.18282830e-01  -1.41886110e+00   7.83760840e-01
C     3.723662671900000e+00   6.025681769660353e+00  -4.740275999999994e-01 -2.08413265e+00   3.18838510e-01   7.41141130e-01
C     4.902525208600000e+00   6.642064349241922e+00  -7.328072999999975e-01  3.36481384e+00   4.83387902e+00  -3.16900230e-01
C     1.350951187300000e+01   6.732429281547570e+00   4.034208300000000e+00  5.00268960e-01  -1.36917710e+00  -7.71998810e-01
C     4.864680951000000e+00   7.509717473619961e+00   3.950607300000000e+00  2.50586340e-01  -2.55435704e+00  -7.77294800e-02
C     6.152197088799999e+00   6.031318114307886e+00  -7.441998000000005e-01  2.84929549e+00  -2.62843960e-01  -1.44973480e-01
C     7.460766397200000e+00   6.844061131794287e+00  -8.670783000000029e-01 -6.42806310e-01  -4.76287508e+00   6.34491480e-01
C     6.086308526200000e+00   6.810099266972601e+00   3.675781800000000e+00  8.16747100e-02  -3.12752281e+00   6.51863990e-01
C     7.340891327300000e+00   7.439608013464026e+00   3.648552300000000e+00 -7.31401220e-01   1.68854300e+00   8.12306050e-01
C     8.739350903300000e+00   6.055839163752778e+00  -7.463687999999991e-01 -4.39323650e+00   1.17719446e+00  -2.88380780e-01
C     9.899734764700000e+00   6.745911439804336e+00  -6.054458999999994e-01  1.54181918e+00   1.30124211e+00   6.85914780e-01
C     8.578737468600000e+00   6.739952832901288e+00   3.737676000000000e+00 -1.59086200e-02  -4.65916520e-01   1.03451964e+00
C     9.749899690399999e+00   7.536484368211198e+00   3.898329300000000e+00  1.30270039e+00  -2.37809315e+00   1.25527140e-01
C     1.112503302070000e+01   6.105015837447728e+00  -2.874087000000003e-01 -2.37589150e-01  -2.87009707e+00  -7.45804760e-01
C     1.231254711580000e+01   6.784325630080398e+00  -3.873542999999984e-01  3.18818241e+00   1.77525650e-01  -7.78185270e-01
C     1.100363837690000e+01   6.889852344004230e+00   4.107373500000000e+00 -4.48669560e-01  -4.63435609e+00  -9.41583350e-01
C     1.230475727210000e+01   7.401128841318212e+00   3.971928600000000e+00 -1.86859973e+00   3.45886771e+00   1.34575070e+00
