64
Lattice="9.86 0 0 4.93 8.53901048131456 0 0 0 30 " PBC="1 1 1" Properties=species:S:1:pos:R:3:force:R:3 Energy="-514.39446913"
C     9.897971007899999e+00   3.815934350828600e-01   4.482900000000000e-02  2.26078960e-01   1.53294841e+00  -3.62044230e-01
C     1.288295570800000e+00   1.128826957358901e+00  -4.472459999999856e-02 -1.29636655e+00  -4.32278150e-01  -2.20425350e-01
C     1.170847490600000e+00   2.828308129206560e-01   3.545301600000000e+00  1.47389591e+00   1.19675322e+00   1.00918450e-01
C     2.424361911400000e+00   1.009195591314310e+00   3.484043100000000e+00  4.11992300e-02  -2.32790302e+00   1.98741950e-01
C     2.514421425900000e+00   4.250920083690280e-01   5.725800000000000e-03 -9.16899900e-02   4.83135500e-02   1.36840500e-02
C     3.741437836200000e+00   1.122035711543947e+00  -1.060731000000033e-01  1.00637940e-01   5.41310160e-01   8.80502910e-01
C     3.657382519400000e+00   2.575114513859888e-01   3.514217700000000e+00 -1.34394820e-01   4.43340840e-01  -7.70738950e-01
C     4.881362887799999e+00   9.344876178445808e-01   3.502629600000000e+00  5.74286570e-01   2.18204693e+00  -3.84158600e-02
C     4.982749373100000e+00   4.568682280682520e-01   6.742410000000000e-02 -9.24082260e-01  -2.11626745e+00  -4.63149880e-01
C     6.193317035599999e+00   1.198303591448163e+00   1.348968000000000e-01 -7.06897700e-02  -2.06659475e+00  -1.29163151e+00
C     6.144124558900001e+00   2.470063337429688e-01   3.446781900000000e+00 -8.31260280e-01   3.09420315e+00   2.36519890e-01
C     7.369181392799999e+00   9.844720819309376e-01   3.460087500000000e+00  1.50168681e+00  -8.87702340e-01   9.68996390e-01
C     7.400968405900000e+00   4.265040191420008e-01   2.109660000000000e-02  1.72609637e+00   2.05004060e+00   4.34945530e-01
C     8.701112442900000e+00   1.156867274583020e+00  -1.261500000001803e-03 -2.17161572e+00  -6.12287890e-01   1.61673120e-01
C     8.641708753000000e+00   2.873071329944816e-01   3.561967200000000e+00 -1.52181958e+00   3.99012770e-01  -5.01579160e-01
C     9.835827519800000e+00   1.048451130292966e+00   3.578419200000000e+00 -6.46300700e-02  -1.39752521e+00  -2.37077860e-01
C     1.111336898580000e+01   2.547090676925995e+00  -2.206851000000007e-01 -1.16278625e+00  -3.45059290e-01   7.03811900e-01
C     2.457513844300000e+00   3.247441445282434e+00  -2.697737999999994e-01  1.25328854e+00   7.23353210e-01  -3.79651910e-01
C     2.458931465800000e+00   2.383660505986760e+00   3.376986600000000e+00 -3.91121770e-01   3.10228576e+00  -6.47055300e-02
C     3.695644249400000e+00   3.141998072100888e+00   3.267579000000000e+00 -7.59436020e-01  -8.22073640e-01   1.24867891e+00
C     3.686886449500000e+00   2.532374802435077e+00  -2.043627000000008e-01  1.68475052e+00   1.30646375e+00   4.26595020e-01
C     4.957397094600000e+00   3.295593352329679e+00  -8.982479999999882e-02 -2.01389607e+00  -1.50470472e+00  -2.32677050e-01
C     4.869362577600000e+00   2.394711693349976e+00   3.486063000000000e+00  2.36409966e+00  -2.88748460e-01  -6.33195420e-01
C     6.181472957100000e+00   3.084740505838191e+00   3.516642600000000e+00 -1.98945693e+00  -4.91477570e-01  -8.15046700e-02
C     6.175248585600000e+00   2.605211793318535e+00   3.238860000000000e-02 -7.37885790e-01  -4.95634040e-01   2.19980060e-01
C     7.354346135399998e+00   3.323023898815421e+00   3.307920000000000e-02  3.48930265e+00  -6.97275160e-01   1.59771240e-01
C     7.415406453199999e+00   2.395644494854811e+00   3.553380600000000e+00 -1.31309556e+00   3.58514000e-01  -9.84107190e-01
C     8.592136321200000e+00   3.172824583054527e+00   3.438321600000000e+00  1.30456132e+00  -1.53914452e+00   6.28969380e-01
C     8.639212053100000e+00   2.608030093727459e+00  -4.561259999999834e-02 -6.53499120e-01  -1.44055513e+00   5.03635310e-01
C     9.868209090899999e+00   3.282641637403929e+00  -1.237284000000010e-01  4.91451130e-01  -6.28388240e-01  -1.44731900e-01
C     9.828532894600000e+00   2.453596026499218e+00   3.494353500000000e+00  1.23679955e+00   1.11785206e+00  -1.59258200e-02
C     1.110304117810000e+01   3.163549253700836e+00   3.443713500000000e+00 -1.05039096e+00  -1.18619558e+00  -8.46903550e-01
C     1.236165124690000e+01   4.692929238061865e+00  -3.380715000000016e-01 -1.77694824e+00  -1.25324516e+00   3.00270730e-01
C     3.682981593700000e+00   5.370457024597465e+00  -2.099951999999981e-01  2.32771396e+00   1.90320695e+00   3.74265850e-01
C     3.689499053700001e+00   4.585220550790080e+00   3.277650300000000e+00 -2.11932526e+00  -1.25135584e+00  -3.89781480e-01
C     4.880573101800000e+00   5.234094406808468e+00   3.473122800000000e+00  2.93609427e+00   7.13432780e-01  -3.72072300e-02
C     4.940995280399999e+00   4.686861331824672e+00  -9.317760000000064e-02  3.95971590e-01   9.61885830e-01   3.31351900e-02
C     6.186989873600000e+00   5.406422226667862e+00   5.442660000000001e-02 -6.77577000e-01   1.03542665e+00  -4.95394200e-02
C     6.168571738700001e+00   4.482880680967489e+00   3.490155600000000e+00 -1.41715664e+00   1.80364245e+00   4.23367590e-01
C     7.370595415400000e+00   5.234357920671879e+00   3.519282600000000e+00 -1.63845620e-01   2.39328495e+00  -4.61928010e-01
C     7.423652864200000e+00   4.724882983788969e+00   1.283601000000000e-01 -8.72110980e-01  -6.13754980e-01  -7.05325010e-01
C     8.667524106400000e+00   5.399538417979305e+00   8.513850000000001e-02 -5.05839750e-01  -7.57122740e-01  -2.09357430e-01
C     8.608277584900000e+00   4.577927894279741e+00   3.397890000000000e+00  1.54095220e-01  -5.07325200e-02   5.21905280e-01
C     9.856508524699999e+00   5.272469488416530e+00   3.344119500000000e+00 -9.06874650e-01   1.04256164e+00   1.29324680e-01
C     9.873752481500000e+00   4.678474401121322e+00  -8.714879999999781e-02  1.58074809e+00   1.66528244e+00  -7.29127220e-01
C     1.114272723440000e+01   5.426614083189500e+00  -2.973192000000004e-01 -1.91520474e+00  -2.20361747e+00   7.18239030e-01
C     1.107707250170000e+01   4.586455120925278e+00   3.304146000000000e+00  2.78670290e-01  -9.84465740e-01  -2.95210360e-01
C     1.227946479450000e+01   5.298769469914721e+00   3.160693500000000e+00  1.93584273e+00   1.21631109e+00   1.51102571e+00
C     1.356966009150000e+01   6.813193377420030e+00  -7.025669999999806e-02 -1.18093702e+00  -3.12924500e-01  -3.72726240e-01
C     4.939410236100000e+00   7.481593474093138e+00   6.125700000000001e-02 -5.13612570e-01   2.20016998e+00  -4.03039570e-01
C     4.924888723900000e+00   6.664284306142663e+00   3.580681200000000e+00 -4.12655400e-02  -3.85001800e-01  -6.37532250e-01
C     6.148250919599999e+00   7.399975477172679e+00   3.552543000000000e+00 -1.00553599e+00   5.45773130e-01   5.51091510e-01
C     6.164883556400000e+00   6.848797891687752e+00   5.525370000000000e-02  1.93406937e+00  -1.41200486e+00   1.06002686e+00
C     7.424883096400000e+00   7.573838952676797e+00   1.780443000000000e-01 -9.45101830e-01  -1.97598503e+00  -1.14854755e+00
C     7.367272644700000e+00   6.735740112080980e+00   3.533355900000000e+00  8.45141380e-01  -3.43480174e+00  -5.83622630e-01
C     8.620528191200000e+00   7.386279075142968e+00   3.416627100000000e+00 -1.37268799e+00   5.88203510e-01   9.84933090e-01
C     8.634418318300000e+00   6.791966080487588e+00   1.012266000000000e-01 -5.69647930e-01   1.48952703e+00   1.51206110e-01
C     9.837541089199998e+00   7.467304720906430e+00   8.867699999999999e-03  2.27450142e+00   3.49087216e+00  -2.25253440e-01
C     9.847215030999999e+00   6.712044443389085e+00   3.378549300000000e+00 -4.11963420e-01  -1.68657293e+00  -4.33898230e-01
C     1.104387195900000e+01   7.431079847527337e+00   3.356844300000000e+00  2.02702154e+00  -1.74423049e+00   6.34019400e-02
C     1.107503064360000e+01   6.803144755277271e+00  -2.125884000000013e-01  1.42097373e+00   1.97740850e+00   1.10265931e+00
C     1.234057939160000e+01   7.576872179979502e+00  -8.945250000000016e-02 -7.62801480e-01  -2.09960444e+00  -3.43127340e-01
C     1.230765522470000e+01   6.755256362093439e+00   3.317120700000000e+00  2.08441010e-01  -2.23155640e+00  -9.44282500e-02
C     1.358129262370000e+01   7.398428123083598e+00   3.518772000000000e+00 -1.33306946e+00   4.76979050e-01  -4.01142010e-01
