64
Lattice="9.86 0 0 4.93 8.53901048131456 0 0 0 30 " PBC="1 1 1" Properties=species:S:1:pos:R:3:force:R:3 Energy="-514.71657407"
C     5.083418987100000e+00   6.689248103280944e+00  -2.711639999999989e-01  1.56403385e+00  -1.80611388e+00  -1.48642340e-01
C     6.322973817099999e+00   7.367143067267182e+00  -3.293457000000011e-01  7.31877660e-01   4.04244090e-01  -9.41162150e-01
C     9.669221177099999e+00   1.826036906880586e+00   3.765243600000000e+00 -6.24701850e-01  -5.99754000e-01   1.38229690e-01
C     1.086623829090000e+01   2.548585943051148e+00   3.882380400000000e+00  1.23415480e+00   1.16947895e+00   1.79978340e-01
C     7.545127571199999e+00   6.637336299139146e+00  -4.996647000000003e-01  9.62179270e-01   2.14719150e+00   5.72666590e-01
C     8.821882800799999e+00   7.397379617986759e+00  -4.525734000000021e-01 -4.35414730e-01  -1.05500879e+00   4.71901440e-01
C     2.267211555200000e+00   1.867546488455648e+00   4.017305700000001e+00 -1.16279731e+00  -1.80727372e+00  -7.43671510e-01
C     3.473124656800000e+00   2.562089961174744e+00   3.934833600000000e+00  7.83901360e-01   1.96772974e+00  -6.19064260e-01
C     1.006336309160000e+01   6.721030044117189e+00  -2.613296999999974e-01 -4.48354170e-01  -1.52824213e+00  -1.11631110e-01
C     1.130666102410000e+01   7.392879986414322e+00  -1.219143000000003e-01 -9.58388980e-01   4.10046800e-01  -7.19947040e-01
C     4.718635764900000e+00   1.917071809948495e+00   3.737769600000000e+00  9.60640480e-01  -9.08359690e-01   7.58495190e-01
C     5.968437698499999e+00   2.620385700331599e+00   3.642615900000000e+00  2.84415110e-01  -6.60774270e-01  -2.42010400e-02
C     1.250385408960000e+01   6.631569222241163e+00  -1.457270999999984e-01  1.17848411e+00   2.17282709e+00   3.37784650e-01
C     1.375475570900000e+01   7.372788804826246e+00  -1.949207999999985e-01 -1.85011559e+00   3.00948440e-01  -1.91488560e-01
C     7.208168874599999e+00   1.864815883684354e+00   3.643933200000000e+00 -6.56163830e-01   1.08073439e+00  -1.54260190e-01
C     8.456493730900000e+00   2.561731066564270e+00   3.618335100000000e+00 -1.40030780e-01   5.09384920e-01   3.79137860e-01
C     1.403815182900000e+00   2.623078989627096e-01  -3.737624999999980e-01  1.48967485e+00  -7.93678000e-01  -1.13426060e-01
C     2.648337628799999e+00   9.746657115154960e-01  -4.300992000000008e-01  3.05587080e-01  -6.39707250e-01   6.01945600e-02
C     1.087736515300000e+01   4.007143459881162e+00   3.814059900000000e+00  6.87146150e-01  -8.08348140e-01   4.92341410e-01
C     1.212434614060000e+01   4.694538926927449e+00   3.846563400000000e+00 -5.03468980e-01  -2.08618810e-01  -2.09975490e-01
C     3.917872281799999e+00   2.568848587969664e-01  -4.488740999999976e-01 -5.67440400e-01   2.08653800e+00   1.69883670e-01
C     5.179430835700000e+00   1.036020124226287e+00  -4.073054999999997e-01 -1.59445705e+00  -3.11648589e+00   3.03435590e-01
C     3.470298189200000e+00   4.018501197720609e+00   3.867013800000000e+00  2.03511762e+00  -1.77281917e+00  -1.80631900e-01
C     4.736245823499999e+00   4.711082832781925e+00   3.725700600000000e+00 -2.48870120e-01   5.17243010e-01  -2.24658600e-02
C     6.380734140800000e+00   2.899190455201040e-01  -2.175381000000023e-01  3.46165340e-01  -1.72188710e-01  -6.18644620e-01
C     7.627104991600000e+00   9.647485047440241e-01  -3.123041999999998e-01 -6.28615010e-01   1.01625993e+00  -1.58415270e-01
C     5.989845582599999e+00   4.041647039527698e+00   3.601363200000000e+00 -2.42987300e-01  -1.05415600e+00   1.99083150e-01
C     7.241969151799999e+00   4.712374187336816e+00   3.536426100000000e+00 -3.11488690e-01   1.63234069e+00   2.46358500e-01
C     8.838168957200001e+00   2.575708828989296e-01  -3.103380000000016e-01 -8.27248730e-01  -1.15927182e+00   3.31830310e-01
C     1.004521788150000e+01   9.388248374376872e-01  -4.014458999999988e-01  6.16518200e-02   2.21035846e+00   7.80128280e-01
C     8.479619572099999e+00   4.006655626212440e+00   3.597612300000000e+00 -4.83050980e-01  -8.46726000e-03   2.15498040e-01
C     9.698744531399999e+00   4.772830210755006e+00   3.749355900000000e+00 -1.36962535e+00  -1.96155087e+00  -1.11665761e+00
C     2.632745715000000e+00   2.396668322211363e+00  -3.661940999999977e-01  4.32841560e-01  -4.32265510e-01   1.14367240e-01
C     3.859641291000000e+00   3.072297545156840e+00  -3.702281999999997e-01  2.00106748e+00   2.18625544e+00  -1.26501200e-02
C     1.216243142590000e+01   6.081482495345057e+00   3.751227900000000e+00 -1.40888098e+00   2.57873618e+00   9.75972800e-02
C     1.334201477790000e+01   6.859239308312591e+00   3.824716800000000e+00  1.32128989e+00  -2.21816214e+00  -5.81551540e-01
C     5.139326616800000e+00   2.422944906820839e+00  -4.873419000000005e-01 -9.42888420e-01  -4.67765720e-01   7.71227980e-01
C     6.374189122100000e+00   3.087077633006567e+00  -4.672733999999998e-01 -2.55440040e-01   1.26263899e+00  -3.75661420e-01
C     4.771320801500000e+00   6.133082540214230e+00   3.754361700000000e+00 -2.58928921e+00   2.05642670e-01   5.35894430e-01
C     5.965058183500000e+00   6.840978975961530e+00   3.788334900000000e+00  1.66487119e+00  -1.00704200e-01  -8.05441170e-01
C     7.617174739099999e+00   2.394937891737591e+00  -4.620213000000000e-01 -1.35455114e+00  -4.47690370e-01   5.13115270e-01
C     8.793196363300000e+00   3.138360026685884e+00  -4.086278999999990e-01  2.02933324e+00  -5.01258350e-01  -9.16135500e-02
C     7.220119687599999e+00   6.185494559589945e+00   3.580435800000000e+00 -3.10043800e-01  -2.12826366e+00   4.31148310e-01
C     8.444576688400000e+00   6.883663183818221e+00   3.562380900000000e+00  2.19291390e-01  -4.91738400e-01   5.52618660e-01
C     1.001246616600000e+01   2.380307748911893e+00  -3.314483999999993e-01  1.83115829e+00   1.23458529e+00  -3.69219790e-01
C     1.129521134560000e+01   3.129317812318297e+00  -2.763144000000004e-01 -2.40314245e+00  -4.96415130e-01  -2.08991250e-01
C     9.676700233599998e+00   6.172406135106411e+00   3.639375900000000e+00  4.98652650e-01  -8.31768700e-02  -2.76628380e-01
C     1.092993729260000e+01   6.838286369786871e+00   3.642091200000000e+00 -4.28947660e-01   4.44058900e-02   7.19735300e-01
C     3.922320965900000e+00   4.523863149425620e+00  -2.272067999999976e-01 -2.67107416e+00  -1.03761369e+00  -6.93285070e-01
C     5.097151699299999e+00   5.246216813036400e+00  -3.460053000000016e-01  1.46725874e+00  -1.25680450e-01   2.43161920e-01
C     1.330015552830000e+01   8.251821270740248e+00   3.788089500000000e+00  2.30554232e+00   6.35857440e-01   8.62957800e-02
C     9.650773265000000e+00   3.796215213927136e-01   3.832112400000000e+00 -1.81150210e-01   1.62438616e+00   8.39963100e-02
C     6.334911467000000e+00   4.509639805059188e+00  -4.850951999999999e-01  2.79094230e-01   8.53577470e-01   7.85448400e-02
C     7.555099334299999e+00   5.245737774548471e+00  -5.568242999999988e-01  1.15120544e+00  -8.40830460e-01   7.91723950e-01
C     5.978189731500000e+00   8.247941144378135e+00   3.898647900000000e+00 -1.29296544e+00  -2.72113100e-01  -2.27315430e-01
C     2.269932422200000e+00   3.883106476769520e-01   3.935337300000000e+00  4.92214820e-01   2.60894151e+00  -4.94729630e-01
C     8.841385239899999e+00   4.562706424978301e+00  -4.438545000000005e-01 -1.49561387e+00  -1.87185930e-01   6.60924000e-02
C     1.005551931370000e+01   5.266338137331472e+00  -2.594552999999991e-01 -2.29469180e-01   1.08930183e+00  -5.03123360e-01
C     8.436097187000000e+00   8.275935350945662e+00   3.704139600000000e+00  7.00843750e-01   1.32883556e+00   7.37991560e-01
C     4.758329413399999e+00   4.933705338978416e-01   3.748808400000000e+00 -1.24564918e+00  -1.55870827e+00  -6.38959100e-01
C     1.128309611710000e+01   4.572693651635709e+00  -2.180265000000006e-01 -3.42129000e-02  -1.93705764e+00   2.27289750e-01
C     1.251568293440000e+01   5.242286904243189e+00  -1.685258999999988e-01  9.12255780e-01  -5.94193650e-01   9.70481300e-02
C     1.089325878280000e+01   8.260691338656557e+00   3.699735600000000e+00  3.63453240e-01   1.12866587e+00  -2.62375990e-01
C     7.183301116500000e+00   4.559137374767976e-01   3.722441700000000e+00 -3.82622180e-01  -4.29087150e-01  -1.73362060e-01
