64
Lattice="9.86 0 0 4.93 8.53901048131456 0 0 0 30 " PBC="1 1 1" Properties=species:S:1:pos:R:3:force:R:3 Energy="-512.76076289"
C     5.011990041200000e+00   8.308128615916729e+00  -4.442039999999992e-02 -2.42515145e+00  -1.79748931e+00   4.82282140e-01
C     1.265873980100000e+00   4.808329609803720e-01  -3.280320000000003e-02  1.65426372e+00  -2.82588044e+00  -4.67536620e-01
C     1.195042747400000e+00   9.328288296687360e-01   3.396430800000000e+00  9.15360400e-02   3.93263156e+00   7.46811650e-01
C     2.429992267199999e+00   1.742421635408854e+00   3.418549500000000e+00 -2.54013880e-01  -2.32854395e+00  -1.18610200e-01
C     7.393969728599999e+00   8.194085690670880e+00  -4.507499999999709e-02  2.20144018e+00   4.26051312e+00   6.20384850e-01
C     3.761145659100000e+00   3.920079538246872e-01   5.261970000000000e-02 -1.60915534e+00   2.70497780e-01  -1.05823371e+00
C     3.685982287500000e+00   1.017586449962482e+00   3.328870500000000e+00 -1.03877096e+00   3.31143150e-01   2.73437060e-01
C     4.905507020500000e+00   1.764585405620638e+00   3.341022900000000e+00 -1.73649060e+00   7.84462300e-02   8.05497400e-02
C     9.918284974300001e+00   8.260779546634815e+00   1.202940000000000e-02 -3.26815000e-02  -9.85246200e-01   7.77874280e-01
C     6.239229879100000e+00   4.188636541249160e-01   3.261270000000000e-02 -1.15742240e+00  -1.22968370e+00   2.59379660e-01
C     6.104149160900000e+00   1.034584204223970e+00   3.265735800000000e+00  2.01888800e-01  -4.92919140e-01   6.78823430e-01
C     7.322787184100000e+00   1.735486165706894e+00   3.357600300000000e+00  6.66979110e-01  -1.29695092e+00  -2.84873050e-01
C     1.237600203320000e+01   8.192036157375471e+00   9.431039999999999e-02  9.91545950e-01   1.84557898e+00  -1.16806404e+00
C     8.656663612199999e+00   3.959832901536512e-01  -6.644879999999986e-02  1.16886554e+00   1.19399588e+00   5.59290090e-01
C     8.542648291000001e+00   1.054471474241786e+00   3.398308800000000e+00  6.48910920e-01  -1.99279247e+00   3.31489460e-01
C     9.805883932299999e+00   1.713714421466247e+00   3.422769900000000e+00  2.53346390e-01  -9.93390640e-01   4.55491410e-01
C     1.304586016300000e+00   1.856677267405761e+00  -1.149810000000073e-02  9.49220100e-02   6.26118530e-01   6.03888540e-01
C     2.530507818700000e+00   2.542231723792561e+00   6.683280000000000e-02  4.61384920e-01  -4.57182330e-01  -4.70667300e-01
C     2.406513635200000e+00   3.144078858174654e+00   3.496023300000000e+00 -1.33484840e+00   6.51821310e-01  -1.75238670e-01
C     3.619195281700000e+00   3.861438652286415e+00   3.409678200000000e+00  3.85298250e-01   9.99909370e-01   5.04726340e-01
C     3.760644820400000e+00   1.803312806801106e+00   1.571670000000000e-02  9.31480680e-01   1.99870520e+00   6.38011170e-01
C     5.052041607700000e+00   2.581362934778628e+00   3.519720000000000e-02 -3.69934925e+00  -2.14313853e+00   2.91317850e-01
C     4.823978723100000e+00   3.229890363141843e+00   3.417552600000000e+00  3.82811522e+00  -3.54594433e+00  -7.37189910e-01
C     6.140120758000000e+00   3.872412220044368e+00   3.344049600000000e+00 -2.16515027e+00  -7.05609500e-02   1.32924180e-01
C     6.215957123899999e+00   1.836890159980876e+00   5.245800000000000e-02  1.29339624e+00  -6.03295660e-01  -8.21600690e-01
C     7.443436954199999e+00   2.505186166116234e+00  -2.529750000000064e-02  1.45589557e+00   2.65884963e+00   2.85091770e-01
C     7.376793805799998e+00   3.105892232527885e+00   3.341668800000000e+00 -4.23410462e+00   1.88284796e+00  -8.14094000e-03
C     8.504186156499999e+00   3.827917571185708e+00   3.372197400000000e+00  4.94887887e+00   1.20662087e+00   7.06614230e-01
C     8.684152749899999e+00   1.855265768973417e+00  -1.034064000000008e-01  3.29486800e-02  -2.20677343e+00   1.15927717e+00
C     9.937886210600000e+00   2.534784767362848e+00   5.909040000000000e-02 -1.66878096e+00   1.42585573e+00  -1.77802049e+00
C     9.781094462599999e+00   3.125691636127861e+00   3.518751600000000e+00 -1.05534590e-01   4.15632630e-01  -8.52132070e-01
C     1.099882674620000e+01   3.855576023861162e+00   3.549163800000000e+00  1.55494510e-01  -8.26857830e-01  -6.12834280e-01
C     2.493609923900000e+00   3.959247723148317e+00   1.099701000000000e-01  6.27476690e-01  -6.34582170e-01  -2.54098460e-01
C     3.693713168400000e+00   4.634536495745957e+00   1.313466000000000e-01  4.50365829e+00   2.54469007e+00  -1.93448020e-01
C     3.699960563000000e+00   5.286113546311999e+00   3.387916500000000e+00 -3.99292940e+00  -1.66438752e+00   5.02079560e-01
C     4.828479270800000e+00   6.019235072918267e+00   3.329603100000000e+00  3.77873851e+00   1.42524323e+00   2.69679100e-02
C     4.988741147199999e+00   3.978767303374864e+00   7.384350000000001e-02 -1.07919552e+00  -5.98619060e-01  -5.61655470e-01
C     6.203324984900000e+00   4.662913079202779e+00  -6.219090000000094e-02  8.80901550e-01   1.30997338e+00   1.27723817e+00
C     6.090811538899999e+00   5.275874333455326e+00   3.305595300000000e+00  1.66727651e+00   1.39410888e+00  -4.22318840e-01
C     7.402679806100000e+00   5.981372331939004e+00   3.212753100000000e+00 -3.34468863e+00   4.96016080e-01   1.01825617e+00
C     7.484446074599999e+00   3.959077540669451e+00   3.666480000000000e-02 -3.55608667e+00  -3.65809950e-01  -9.13425740e-01
C     8.622100368200000e+00   4.726188256930941e+00   5.842500000000000e-02  3.82149132e+00  -2.67079460e+00  -4.18560700e-01
C     8.576419678399999e+00   5.266905383797657e+00   3.331789800000000e+00  1.89768150e-01  -7.31632120e-01  -5.09464260e-01
C     9.808540709299999e+00   5.985332041878789e+00   3.322759200000000e+00 -1.12990712e+00   7.45602160e-01   6.23192870e-01
C     9.898744229100000e+00   3.962828813363420e+00  -2.142719999999798e-02  4.57009620e-01   1.02983486e+00   1.29032051e+00
C     1.116917338130000e+01   4.664547104248231e+00   3.932400000000000e-02 -3.34851871e+00   2.32409444e+00   4.22296000e-01
C     1.097333317390000e+01   5.267380408950659e+00   3.419784300000000e+00  3.53613956e+00  -1.05479812e+00   6.06661910e-01
C     1.228722767110000e+01   5.883579485197014e+00   3.439897200000000e+00 -1.45021136e+00   4.25278425e+00  -1.21360179e+00
C     3.857763651200000e+00   6.095384943697650e+00   1.286691000000000e-01 -4.87374282e+00  -8.82476290e-01  -1.59804790e-01
C     5.013782145500000e+00   6.855807309220470e+00   7.430760000000000e-02  6.21829980e-01   1.00507700e-01  -9.57909780e-01
C     4.853283875600000e+00   7.505299731158029e+00   3.357596400000000e+00  1.16559540e-01  -4.25046290e+00   8.00630900e-01
C     6.124821587600000e+00   8.085503121066571e+00   3.426204900000000e+00  1.87378270e-01   8.27863930e-01  -1.22788634e+00
C     6.181332550700000e+00   6.102301456796345e+00  -4.675350000000122e-02  2.91635200e+00   6.70815100e-02   2.28192850e-01
C     7.461442793200000e+00   6.844351628930816e+00  -3.981599999999830e-02 -1.65211855e+00  -3.23105995e+00   2.56984450e-01
C     7.371161182200000e+00   7.410415271385526e+00   3.273397800000000e+00 -8.89680810e-01  -1.37089481e+00   2.90761810e-01
C     8.572906018099999e+00   8.101676775426634e+00   3.284425800000000e+00  7.86716970e-01   2.25019713e+00   3.15946430e-01
C     8.698078570200000e+00   6.102529192205846e+00   8.651160000000001e-02 -2.70852584e+00   1.46003195e+00  -7.54512330e-01
C     9.867928228800000e+00   6.817204748373220e+00   9.810450000000000e-02  2.88569374e+00   1.55248503e+00  -3.83316080e-01
C     9.801581373399999e+00   7.423523164812955e+00   3.337425600000000e+00  4.13886310e-01  -8.38667060e-01  -9.52878560e-01
C     1.102118237350000e+01   8.142952644284858e+00   3.270363900000000e+00  1.33592120e+00  -1.24297431e+00   2.54499670e-01
C     1.111981003080000e+01   6.169659476995414e+00   1.151763000000000e-01  2.31879163e+00  -3.73178657e+00  -4.14303040e-01
C     1.243628326310000e+01   6.787788967340981e+00   1.061160000000000e-01 -1.50623748e+00   2.78862800e-01   4.01381950e-01
C     1.228770647270000e+01   7.358833585388886e+00   3.285751500000000e+00 -1.54555494e+00   4.68721140e-01   1.57539206e+00
C     1.347455432760000e+01   8.139546347614282e+00   3.456172500000000e+00 -4.78782100e-02   8.50214490e-01  -1.61515333e+00
