64
Lattice="9.86 0 0 4.93 8.53901048131456 0 0 0 30 " PBC="1 1 1" Properties=species:S:1:pos:R:3:force:R:3 Energy="-514.69903825"
C     4.949461569399999e+00   8.408799109190481e+00  -2.911116000000007e-01 -2.73112280e-01  -6.39251010e-01   4.67945000e-01
C     1.256812245700000e+00   5.326295738707943e-01  -3.611816999999995e-01  5.08739620e-01   1.91185502e+00   1.53565887e+00
C     1.186915839600000e+00   8.243147429284767e-01   3.585356700000000e+00  1.14807650e-01   2.06993500e+00  -5.63646680e-01
C     2.432683061200000e+00   1.558107606538683e+00   3.584503200000000e+00 -3.02870980e-01  -1.56762970e-01   1.60137420e-01
C     7.431388773700000e+00   8.391867190699793e+00  -2.815250999999996e-01  3.16931750e-01  -8.83336330e-01   1.78576360e-01
C     3.736389368300000e+00   5.597853349992903e-01  -8.580089999999885e-02 -4.42118070e-01   1.30846213e+00  -1.32934462e+00
C     3.642854647500000e+00   7.834686424677112e-01   3.519066900000000e+00  1.08442884e+00   4.06573614e+00   8.36657100e-02
C     4.903631549900000e+00   1.556731203439412e+00   3.550645200000000e+00 -5.85629100e-01  -2.09592748e+00  -1.52873780e-01
C     9.906491872000000e+00   8.413987582738336e+00  -1.511792999999990e-01 -8.52762200e-02  -4.24256410e-01   4.61999460e-01
C     6.212611330099999e+00   6.167627363281384e-01  -2.210123999999993e-01 -1.37196746e+00  -8.27731160e-01   5.96433260e-01
C     6.167975011499999e+00   8.683115674761528e-01   3.514977000000000e+00 -2.29819856e+00  -1.19829888e+00  -8.06044000e-01
C     7.376055193200000e+00   1.543436732632995e+00   3.516503100000000e+00  7.04915300e-01  -6.82875800e-02  -1.91512100e-01
C     1.236824270620000e+01   8.492176569220344e+00  -1.284348000000008e-01 -6.70668830e-01  -3.26738256e+00   2.14433380e-01
C     8.650212362100000e+00   6.204415128231321e-01  -1.974200999999987e-01  1.03741421e+00  -1.78517572e+00  -7.59879690e-01
C     8.596444253800000e+00   8.273822970533120e-01   3.570420000000000e+00  8.03428530e-01   9.35369390e-01  -9.63046990e-01
C     9.808872153199999e+00   1.554689440643539e+00   3.564923100000000e+00  1.02265843e+00   1.28388303e+00   7.85620160e-01
C     1.247464423400000e+00   1.976521169421198e+00  -1.235403000000019e-01 -1.98068870e-01  -3.12234170e-01  -1.12878606e+00
C     2.474485763700000e+00   2.718239515608417e+00  -6.900989999999751e-02  5.34719180e-01  -1.07023909e+00   9.44588350e-01
C     2.453090303200000e+00   3.019270802416669e+00   3.666507000000000e+00 -1.78595630e-01  -1.77194117e+00  -8.63067400e-02
C     3.684447972900000e+00   3.708788811297970e+00   3.682859700000000e+00 -3.32948500e-01  -1.70474739e+00  -5.61846000e-03
C     3.729283907200000e+00   2.029740210677379e+00  -6.002850000000137e-02 -8.84661540e-01  -2.30348378e+00  -1.41101470e-01
C     4.945360203800000e+00   2.704071845590315e+00  -8.188290000000009e-02  5.39842280e-01   1.37856270e+00  -6.93787220e-01
C     4.898630952300000e+00   2.942735224533905e+00   3.579506700000000e+00 -5.76110450e-01   1.18169677e+00  -6.46021600e-02
C     6.114610275800000e+00   3.621710971076598e+00   3.447228600000000e+00  1.15578932e+00   2.26681391e+00   1.20799890e-01
C     6.179750957400000e+00   2.013448461802378e+00  -2.686712999999976e-01 -3.05663890e-01   3.16225710e-01   7.67804120e-01
C     7.412935192099999e+00   2.692608138630810e+00  -2.674737000000000e-01 -5.23735970e-01   1.50524529e+00  -3.88294910e-01
C     7.359934536899999e+00   2.928963166871342e+00   3.403671900000000e+00  9.71871450e-01   2.62078600e+00   1.35292332e+00
C     8.604243661700000e+00   3.731673530164580e+00   3.566148600000000e+00 -8.14040470e-01  -1.60750416e+00  -7.10086750e-01
C     8.616294997400001e+00   1.989008618347150e+00  -2.787699000000003e-01  1.76943530e+00   1.74392109e+00   6.24470050e-01
C     9.866598016199999e+00   2.689013812949464e+00  -1.392366000000003e-01  7.38650490e-01   1.93571600e-02   3.83134000e-02
C     9.839202301999999e+00   3.040573584201754e+00   3.636388800000000e+00 -6.25071100e-02  -1.92234958e+00  -4.31210180e-01
C     1.109209909240000e+01   3.740370597728564e+00   3.650890800000000e+00 -8.27802080e-01  -8.63302580e-01  -7.28414400e-02
C     2.508211351400000e+00   4.101377588615507e+00   1.290273000000000e-01 -6.07165490e-01   1.58250510e+00   8.68898200e-02
C     3.756955602800000e+00   4.853771149534508e+00   1.377801000000000e-01 -1.71983765e+00  -3.41723040e-01  -1.37663500e+00
C     3.654748913400000e+00   5.094511813557567e+00   3.718836000000000e+00  1.32712119e+00   7.27412070e-01  -1.15511939e+00
C     4.890709822700000e+00   5.778014431116127e+00   3.536005200000000e+00  5.91952900e-02   1.91206748e+00   3.21454080e-01
C     4.941828844800000e+00   4.144424960587912e+00  -7.985400000000098e-02  1.78814587e+00  -3.56903040e-01   3.67865880e-01
C     6.207544769099999e+00   4.852301158880375e+00  -2.186151000000010e-01 -1.09891681e+00  -7.87101090e-01   1.58647210e-01
C     6.105346312800000e+00   5.108827635407496e+00   3.448442700000000e+00  1.74445815e+00  -1.52768086e+00   2.15737490e-01
C     7.356606047400000e+00   5.868997502390422e+00   3.448108800000000e+00 -7.07451090e-01  -1.67601448e+00  -3.32355510e-01
C     7.432443843000000e+00   4.130397757292206e+00  -2.834673000000016e-01  4.88853400e-02  -2.93244870e-01   5.96899450e-01
C     8.666277210800001e+00   4.828434368418461e+00  -1.688508000000013e-01  4.92413080e-01  -3.49403000e-03  -3.71676970e-01
C     8.606865534299999e+00   5.138998948087004e+00   3.536905200000000e+00 -1.53474127e+00   4.75773920e-01  -2.74697220e-01
C     9.808838925000000e+00   5.852392542611015e+00   3.543973500000000e+00  1.77079663e+00  -1.59629100e-02  -4.81881980e-01
C     9.919702349300000e+00   4.109659831050374e+00  -1.371870000000186e-02 -2.27108955e+00  -2.77460210e-01  -3.80578980e-01
C     1.110669499830000e+01   4.801607444583549e+00   1.647798000000000e-01  1.98151843e+00   1.91754901e+00  -2.90407100e-01
C     1.109267969850000e+01   5.145176751389075e+00   3.561197100000000e+00 -1.52190390e+00   2.67010840e-01   7.97284270e-01
C     1.232120005460000e+01   5.806809426086469e+00   3.618057300000000e+00 -6.72503840e-01   2.75302433e+00  -3.86239630e-01
C     3.716999431800000e+00   6.266709771386064e+00  -6.044789999999978e-02  1.00428470e-01   1.12903475e+00   1.52861252e+00
C     4.958789868900000e+00   6.980614511077407e+00  -1.661769000000000e-01 -5.50579040e-01   1.10463840e-01  -5.35056010e-01
C     4.931957900200000e+00   7.225985282753037e+00   3.506588100000000e+00 -1.37664072e+00  -1.92023510e-01  -1.69953050e-01
C     6.131126268800000e+00   7.962067113512512e+00   3.497409600000000e+00 -6.80880640e-01  -1.19357140e-01  -2.59526350e-01
C     6.193082762000000e+00   6.263358038992454e+00  -2.162810999999998e-01  4.99160300e-02   8.30640100e-02  -5.13336150e-01
C     7.434319412200000e+00   6.940370923196110e+00  -3.176397000000009e-01 -2.95785910e-01   1.69163378e+00   1.91166070e-01
C     7.331925333500000e+00   7.280273151951000e+00   3.387408300000000e+00  1.42420197e+00  -1.35159630e+00   6.68161700e-01
C     8.580118164399998e+00   7.958522911822683e+00   3.408924900000000e+00 -7.29792690e-01  -7.05736550e-01   2.31030850e-01
C     8.660578081499999e+00   6.252459785306935e+00  -2.686683000000016e-01  5.80905080e-01  -3.74731680e-01   1.24181933e+00
C     9.881438302199999e+00   6.975618421435664e+00  -7.200989999999763e-02  7.51538920e-01   1.33848820e-01  -1.56553710e-01
C     9.787834660000000e+00   7.265848970058078e+00   3.444976800000000e+00  2.44747955e+00  -1.77836820e-01  -2.35716810e-01
C     1.106892089460000e+01   7.984081024090370e+00   3.388904400000000e+00 -4.54176600e-02  -7.03337920e-01   1.34251365e+00
C     1.111735094680000e+01   6.275679831115094e+00   1.537323000000000e-01 -6.62655900e-02  -8.20264300e-02  -1.00205000e+00
C     1.235200018030000e+01   7.033829624388767e+00   5.102550000000000e-02 -2.01573200e-02  -7.92185410e-01  -4.92797420e-01
C     1.232849896890000e+01   7.285060975127135e+00   3.496029900000000e+00 -1.11360016e+00  -1.89412912e+00  -3.80575270e-01
C     1.356293004990000e+01   7.967868944183148e+00   3.454298400000000e+00 -1.62153620e-01  -8.65892680e-01   1.19133428e+00
