64
Lattice="9.86 0 0 4.93 8.53901048131456 0 0 0 30 " PBC="1 1 1" Properties=species:S:1:pos:R:3:force:R:3 Energy="-506.4840353"
C     4.984413938299999e+00   7.656844880360675e+00  -6.663728999999989e-01 -2.67118958e+00  -9.89363290e-01  -4.53773660e-01
C     6.174777425499999e+00   8.303153532240767e+00  -5.204960999999990e-01  3.59118978e+00   4.61304790e-01  -1.67265350e+00
C     9.764604549300000e+00   9.416946280798056e-01   3.587916900000000e+00  1.03953336e+00  -4.14607756e+00   2.35114360e-01
C     1.112840568300000e+00   1.603755534152772e+00   3.848918100000000e+00 -8.30518350e-01   3.84418600e-01  -9.73030240e-01
C     7.479541020400000e+00   7.570863961425565e+00  -7.566050999999980e-01 -5.16647960e-01   6.29173924e+00   8.17471570e-01
C     8.720231032199999e+00   8.454948020549431e+00  -7.088573999999994e-01 -1.07048797e+00  -3.35107730e+00   1.71124498e+00
C     2.314333727700000e+00   9.322711468942871e-01   3.782053200000000e+00  3.58648387e+00  -2.42638934e+00   7.65201650e-01
C     3.625222206700000e+00   1.603151484551417e+00   3.922279500000000e+00  3.14392050e-01  -3.59369280e-01  -2.96413590e-01
C     9.913330866599999e+00   7.716294752174008e+00  -3.551994000000001e-01 -1.88228860e-01  -3.70035860e-01  -1.62026451e+00
C     1.117566417000000e+01   8.439072633825434e+00  -4.277502000000020e-01 -1.46238490e+00  -5.38674809e+00   8.35773800e-02
C     4.938958943900000e+00   9.833438224762152e-01   3.760807800000000e+00 -2.05569491e+00  -2.53343251e+00   1.60838174e+00
C     6.182334425300000e+00   1.665289522253958e+00   3.866565900000000e+00 -2.00786773e+00   5.39805100e-02   4.20550150e-01
C     1.230947123950000e+01   7.579328938684703e+00  -5.931674999999998e-01  2.61681482e+00   2.83064385e+00   3.66680940e-01
C     1.359138512250000e+01   8.398327635248751e+00  -6.668813999999976e-01 -3.82524710e-01  -2.64484095e+00   5.81876180e-01
C     7.354468202200000e+00   9.438347602764079e-01   3.740954400000000e+00  1.28513043e+00  -3.46494007e+00   7.62595020e-01
C     8.592140314500000e+00   1.619442891865999e+00   3.602097300000000e+00 -1.34854037e+00   1.50394057e+00  -6.82810900e-02
C     1.308696748900000e+00   1.177721587537695e+00  -3.811491000000018e-01 -4.38366560e-01   6.77408660e-01   1.28968679e+00
C     2.545803094400000e+00   1.906688800155339e+00  -2.419295999999989e-01 -2.19803361e+00   1.71872204e+00  -1.52314394e+00
C     1.094277422380000e+01   2.993549595048813e+00   4.017793500000000e+00  2.17292448e+00   2.67630648e+00  -4.83449300e-01
C     2.354911916800000e+00   3.629862993601645e+00   4.274032200000001e+00  6.91250190e-01   3.78890965e+00   6.93468090e-01
C     3.734255960100000e+00   1.354139081076382e+00  -5.841468000000027e-01  2.68082840e+00  -4.17329387e+00   6.15235240e-01
C     5.001216561500000e+00   1.963526759443049e+00  -5.000405999999984e-01 -6.62840940e-01   1.85616058e+00   9.81441340e-01
C     3.621974914300000e+00   2.973497180568314e+00   4.238022000000000e+00 -4.84959500e-02   4.16574780e-01  -3.95870560e-01
C     4.856664031499999e+00   3.706116442578149e+00   4.258426800000000e+00  2.10976830e+00   1.10026321e+00  -2.43022980e-01
C     6.220798285299999e+00   1.239102727351289e+00  -4.787631000000019e-01  1.31741173e+00   2.79281437e+00  -2.14716192e+00
C     7.473090016800000e+00   1.915806926326093e+00  -7.753350000000019e-01 -1.10511950e+00   1.59558535e+00   2.65662007e+00
C     6.184661040199999e+00   3.059654515459942e+00   4.114398899999999e+00 -1.61124579e+00   4.37166440e-01  -2.58251627e+00
C     7.381760435699999e+00   3.755443915198175e+00   3.652413300000000e+00 -9.34438300e-02  -1.69622291e+00   2.36281917e+00
C     8.684910096499999e+00   1.289405184187921e+00  -5.825259000000003e-01  1.27597739e+00  -3.14009554e+00  -2.09843930e-01
C     9.952357288899998e+00   1.933459366521082e+00  -3.026492999999988e-01 -1.66776637e+00  -2.70756377e+00  -1.26855767e+00
C     8.648354294399999e+00   3.041807471216114e+00   3.563761800000000e+00 -1.76960786e+00   2.00628756e+00   1.17999400e-01
C     9.837281228900000e+00   3.843872370707169e+00   3.693048000000000e+00 -6.26494770e-01  -1.22791260e-01   2.34895814e+00
C     2.517040192600000e+00   3.324724357362408e+00  -2.026485000000022e-01 -2.00608798e+00   7.90580560e-01   1.14719159e+00
C     3.735826214400000e+00   4.072950027266120e+00  -3.170276999999970e-01  1.08035913e+00   8.05735990e-01   5.51519150e-01
C     1.233084392340000e+01   5.146985740759263e+00   4.421099700000000e+00 -2.02026317e+00  -2.34007300e-02  -1.64202157e+00
C     3.730563094300000e+00   5.870603775651815e+00   4.112052900000000e+00 -4.55515629e+00  -1.41224699e+00   1.09122009e+00
C     4.990818649200000e+00   3.400522250129805e+00  -3.551526000000003e-01  1.65969820e+00  -1.44430110e+00  -2.37328829e+00
C     6.304409162599999e+00   4.031247720224525e+00  -7.200434999999992e-01 -4.82737636e+00   1.43074495e+00   1.64236163e+00
C     4.876217545399999e+00   5.174537541193820e+00   4.139008200000000e+00  2.61234264e+00  -2.93626254e+00  -1.68669632e+00
C     6.066412525200000e+00   5.846652619766359e+00   3.677306700000000e+00  1.00436978e+00  -2.06236072e+00   2.31317901e+00
C     7.502509249500000e+00   3.333078839825935e+00  -6.694476000000016e-01 -1.75043222e+00  -5.92751170e-01  -1.00871993e+00
C     8.645532954000000e+00   4.040234174853676e+00  -4.937027999999977e-01  3.51922374e+00   1.68368899e+00   7.81100130e-01
C     7.354104072399999e+00   5.119337278726070e+00   3.757642500000000e+00 -4.62639410e-01   4.19391558e+00  -1.64469671e+00
C     8.540183488199999e+00   5.964569864847193e+00   3.735532800000000e+00  1.71233794e+00  -1.30532912e+00   1.62289948e+00
C     9.839287196600001e+00   3.287560705171142e+00  -2.146983000000020e-01  8.97964430e-01   2.50323976e+00   1.31832600e-02
C     1.103830027020000e+01   3.979312604584117e+00  -5.894100000000080e-02  4.23033850e+00   2.73532188e+00  -7.14563430e-01
C     9.807725731000000e+00   5.357047789490197e+00   4.029647100000000e+00  1.70448350e-01  -4.97214646e+00  -1.73485185e+00
C     1.106957485910000e+01   5.973651529443197e+00   4.330796100000000e+00 -4.36085360e-01  -3.36759325e+00  -1.00928374e+00
C     3.789881002200000e+00   5.528435805856163e+00  -3.832088999999996e-01 -2.84830754e+00  -1.78485403e+00  -1.92177377e+00
C     4.922940338599999e+00   6.208860366306999e+00  -8.011524000000030e-01  2.78617979e+00  -5.38854790e-01   1.79134280e+00
C     1.351199817060000e+01   7.208097422039113e+00   3.766148700000000e+00 -2.34116765e+00   3.58063259e+00   1.14547560e+00
C     4.783130271399999e+00   7.996738911665504e+00   3.532649700000000e+00  2.85021207e+00  -4.65211800e-02   8.60476300e-01
C     6.172014061899999e+00   5.424910123648215e+00  -8.150624999999998e-01  2.65654351e+00   3.16159379e+00  -3.92887730e-01
C     7.498816482300000e+00   6.249918063447459e+00  -8.478737999999986e-01 -2.07369710e-01  -5.62918623e+00   1.35734533e+00
C     6.033293672599999e+00   7.226785900375641e+00   3.618215400000000e+00  1.65430502e+00   3.69070807e+00  -3.54949910e-01
C     7.312710904999999e+00   8.015351563588970e+00   3.737760000000000e+00 -1.25286726e+00   6.24374640e-01  -7.96141820e-01
C     8.777921941500001e+00   5.502760111414165e+00  -4.968851999999977e-01 -4.03857933e+00  -4.40416760e-01  -1.32807711e+00
C     9.934779472499999e+00   6.230761988897045e+00  -2.800218000000001e-01  9.48933550e-01   8.42343250e-01   1.91284440e-01
C     8.596944155799999e+00   7.369880759417176e+00   3.825722100000000e+00 -2.91580490e+00   1.03497460e-01  -6.66837110e-01
C     9.825493845399999e+00   8.039704992258139e+00   3.885207000000000e+00 -4.36610090e-01   2.56567262e+00  -5.69128880e-01
C     1.116451768650000e+01   5.452502569772658e+00  -1.277961000000012e-01 -1.90616008e+00  -5.02213910e-01  -8.84105920e-01
C     1.235164734020000e+01   6.142461362374937e+00  -4.590020999999993e-01  6.93848160e-01   1.49872321e+00   1.57392918e+00
C     1.099644703520000e+01   7.327928942489356e+00   4.079826600000000e+00  3.33460319e+00   1.41970717e+00   8.23563360e-01
C     1.227488625420000e+01   7.975641236912149e+00   4.012429500000000e+00  2.75047210e-01   2.34545510e+00  -2.65440021e+00
