64
Lattice="9.86 0 0 4.93 8.53901048131456 0 0 0 30 " PBC="1 1 1" Properties=species:S:1:pos:R:3:force:R:3 Energy="-515.21036017"
C     9.832689426900000e+00   2.557998067352728e-01  -1.022955000000003e-01  1.47690523e+00  -3.08643810e-01   1.34429190e-01
C     1.227995853400000e+00   9.435324793054161e-01  -3.182999999999936e-04 -1.77225110e-01   4.49292190e-01  -1.68886510e-01
C     1.199986551400000e+00   4.768605279149712e-01   3.254853900000000e+00  1.21459280e+00  -3.73211130e-01   9.28363460e-01
C     2.455552345200000e+00   1.185464506070645e+00   3.422045400000000e+00 -8.07924000e-02  -2.95421150e-01  -4.97812550e-01
C     2.456282133100000e+00   2.317501960589816e-01  -1.649312999999992e-01  1.62268800e-01   1.03299750e+00   6.09879810e-01
C     3.700880895400000e+00   9.780071970965296e-01  -6.170939999999803e-02 -6.98786500e-01  -4.08037030e-01  -3.17299300e-01
C     3.704050688200000e+00   4.543716775742144e-01   3.431086800000000e+00 -1.30112920e+00  -3.36432210e-01  -1.30022730e-01
C     4.929485455900000e+00   1.137291593057620e+00   3.441477300000000e+00  4.07141460e-01   1.41320214e+00  -2.10061390e-01
C     4.912602177899999e+00   2.608595120050920e-01  -1.713302999999975e-01  1.09708047e+00  -1.22105898e+00   7.04953460e-01
C     6.166267653899999e+00   9.539255651309384e-01  -6.558180000000036e-02 -1.17462468e+00   1.05409052e+00  -7.87333690e-01
C     6.196387143800000e+00   4.745249377684816e-01   3.379022400000000e+00 -1.79199801e+00  -9.46708180e-01   7.12443960e-01
C     7.388749598100000e+00   1.184041309193943e+00   3.276658800000000e+00  9.59453880e-01  -5.83206300e-01   4.58250540e-01
C     7.397521399200000e+00   2.859402081968432e-01  -1.088240999999996e-01 -1.29408320e-01  -1.35541000e+00   1.12985010e-01
C     8.628815570499999e+00   9.868268848510072e-01  -1.278105000000025e-01 -4.63950680e-01  -1.26601154e+00   4.14133430e-01
C     8.614298840400000e+00   4.248140635779040e-01   3.309040500000000e+00  2.32427110e-01   2.68995555e+00  -3.63397940e-01
C     9.831332888099999e+00   1.187722476611871e+00   3.240142500000000e+00  9.27458210e-01  -4.31902830e-01   7.55423440e-01
C     1.109325157850000e+01   2.365992866353116e+00   2.339814000000000e-01 -3.80050600e-02  -4.44249360e-01  -9.81374380e-01
C     2.472879520400000e+00   3.085929221487112e+00   2.778141000000000e-01 -3.78791220e-01   9.58919740e-01  -1.75344100e-02
C     2.473480635300000e+00   2.607065868664057e+00   3.522233700000000e+00 -9.83013800e-02   9.98343800e-02   2.68869310e-01
C     3.722473457300000e+00   3.297477314211881e+00   3.511948200000000e+00 -1.26672776e+00   4.36098100e-01   6.97431700e-01
C     3.692492993400000e+00   2.400094173215940e+00   1.189338000000000e-01  1.07502943e+00   5.30695800e-02  -4.00489200e-01
C     4.955353412399999e+00   3.157361288976295e+00  -8.772900000000305e-03 -1.45482442e+00  -3.81328123e+00   6.07191530e-01
C     4.917274979800000e+00   2.586420505295827e+00   3.461286300000000e+00  7.05873360e-01  -1.27928249e+00  -1.28226910e-01
C     6.143779212400000e+00   3.275318496626176e+00   3.429239700000000e+00  1.05784109e+00   1.99321152e+00  -7.63236560e-01
C     6.156061715800000e+00   2.390519722325135e+00  -8.578320000000161e-02  5.12786070e-01  -3.48062500e-02  -4.29233800e-01
C     7.402335544200000e+00   3.072927211789635e+00  -1.896149999999999e-01 -8.43463810e-01   1.47613093e+00   6.84714070e-01
C     7.377755500900000e+00   2.599668523885233e+00   3.295565400000000e+00  1.35282717e+00  -1.01386140e-01   4.00010460e-01
C     8.655338477499999e+00   3.302587228863322e+00   3.366955200000000e+00 -1.29101163e+00   5.72083150e-01  -2.11385280e-01
C     8.616357066100001e+00   2.375888042477549e+00  -8.925029999999978e-02  8.06437350e-01   6.02793760e-01   7.42953600e-02
C     9.847377720999999e+00   3.059274358713373e+00   1.106334000000000e-01  3.48853870e-01   5.28943370e-01  -3.80497840e-01
C     9.894928409100000e+00   2.613027976561403e+00   3.392846700000000e+00 -8.92922490e-01  -1.29963810e-01   2.13553430e-01
C     1.110715639700000e+01   3.348372292985720e+00   3.620672400000000e+00 -6.96440800e-02  -1.30196495e+00  -1.15948717e+00
C     1.233810640500000e+01   4.553704173179762e+00   3.235914000000000e-01 -9.97965290e-01  -1.96849116e+00  -3.96622340e-01
C     3.692868807300000e+00   5.230549436607695e+00   2.174160000000000e-01  1.33355036e+00   1.32302370e+00  -8.44859270e-01
C     3.711310014600000e+00   4.719978859290094e+00   3.598408500000000e+00 -4.04420750e-01   1.65734300e-02  -4.98439360e-01
C     4.909092757400000e+00   5.446000711022872e+00   3.441057900000000e+00  1.64216001e+00  -7.32220280e-01  -5.40299300e-02
C     4.934154116599999e+00   4.512917760402250e+00   2.055090000000000e-02 -7.67857700e-02   2.34557008e+00  -3.31800100e-02
C     6.171033484900000e+00   5.219769789777743e+00  -1.969941000000013e-01 -1.46152415e+00  -4.40225800e-02   4.72944660e-01
C     6.188691463100000e+00   4.739868178670425e+00   3.374611200000000e+00 -2.08396224e+00  -9.35004750e-01   3.00172430e-01
C     7.385506594799999e+00   5.462094867195366e+00   3.327134700000000e+00  1.16836239e+00  -9.49487000e-01   3.10565870e-01
C     7.380491897400000e+00   4.528377638876291e+00  -2.044901999999986e-01  1.46303534e+00  -1.01976086e+00  -1.12417760e-01
C     8.624027948899998e+00   5.246799685891764e+00  -1.542206999999998e-01  6.24981710e-01  -1.82075165e+00   1.88306040e-01
C     8.642827468600000e+00   4.730545543198676e+00   3.399882300000000e+00 -8.37441200e-01  -1.70884500e-01   2.32898590e-01
C     9.858404356199999e+00   5.431841665405355e+00   3.560406900000000e+00 -4.01891630e-01   1.32592300e+00   4.63454900e-02
C     9.855971647699999e+00   4.470841700871946e+00   3.161160000000000e-02 -3.88051920e-01   1.91409042e+00   4.71777150e-01
C     1.107839255850000e+01   5.222401342027469e+00   1.996245000000000e-01  5.71590390e-01  -3.13677940e-01  -1.87113750e-01
C     1.109308134560000e+01   4.766957762467700e+00   3.665629200000000e+00  2.79867500e-01  -1.13063724e+00  -4.99430600e-02
C     1.233664983650000e+01   5.436759708491310e+00   3.657840300000000e+00  1.65673570e-01   5.48293880e-01  -2.06257890e-01
C     1.359215104730000e+01   6.680369923304677e+00   7.018500000000000e-02 -2.21884256e+00  -1.11639979e+00  -1.29879700e-01
C     4.933141149500000e+00   7.357209807156009e+00  -9.719039999999879e-02  9.37665200e-02   7.10193480e-01  -3.15721430e-01
C     4.919458476799999e+00   6.846939973787514e+00   3.338257500000000e+00  1.07681673e+00   1.01096960e+00   7.26451330e-01
C     6.173159448800000e+00   7.575121682831102e+00   3.305020500000000e+00 -1.84303014e+00   6.05746490e-01  -5.55822610e-01
C     6.134232563199999e+00   6.619180996616989e+00  -2.464770000000023e-01  1.64443562e+00   1.75374481e+00   3.69837330e-01
C     7.380418045999999e+00   7.368275596227146e+00  -2.971977000000017e-01  5.55057550e-01  -1.06327544e+00   5.43811720e-01
C     7.383560033599998e+00   6.882231533321144e+00   3.331965600000000e+00 -6.67681210e-01  -1.09544374e+00  -9.01476800e-02
C     8.582086664100000e+00   7.555562140035510e+00   3.401366400000000e+00  2.13334961e+00   1.45777524e+00   5.08347130e-01
C     8.661745209699999e+00   6.656435760050076e+00  -1.964510999999973e-01 -2.38007508e+00  -3.80533020e-01  -6.98225890e-01
C     9.863472445499999e+00   7.327641775566913e+00  -1.758194999999994e-01  1.64994645e+00   2.14105687e+00   9.11445700e-01
C     9.809436243799999e+00   6.862445621357726e+00   3.568168800000000e+00  2.01205912e+00   5.14104190e-01  -5.47507440e-01
C     1.110569499710000e+01   7.600447960964258e+00   3.563729400000000e+00 -8.82345890e-01  -1.38713735e+00  -6.86533190e-01
C     1.112356491600000e+01   6.633999936964400e+00   7.081140000000000e-02 -1.55674452e+00   1.06411006e+00  -1.03179804e+00
C     1.232786018880000e+01   7.394668482159358e+00  -1.332869999999886e-02  1.00619890e+00  -7.89891110e-01   6.88472030e-01
C     1.233748399250000e+01   6.853748895354161e+00   3.543957300000000e+00 -1.95590370e-01   8.51202620e-01   5.56645590e-01
C     1.358072843450000e+01   7.584293519377775e+00   3.450726300000000e+00 -1.23194149e+00  -1.38940765e+00  -7.60887380e-01
