76
Lattice="10.7446858958278 0 0 5.37234294791388 9.3051709414712 0 0 0 30 " PBC="1 1 1" Properties=species:S:1:pos:R:3:force:R:3 Energy="-612.45957074"
C     8.620746231746351e-02   3.328924903785000e-03   8.857199999999999e-03  5.39198670e-01   1.02371485e+00  -2.34564350e-01
C     1.248887495257450e+01   8.526491158916869e+00   1.576656000000000e-01  2.17796658e+00   3.53242000e-02  -6.48353940e-01
C     1.395340432905585e+01   8.314040893013933e+00   1.470204000000000e-01 -1.88622859e+00   1.58470200e+00   1.88088300e-02
C     1.448374520964642e+01   7.024517556064547e+00  -8.293800000000573e-03  1.19008548e+00   1.11723150e+00  -1.78317650e-01
C     8.282614189879119e+00   9.018460571306976e+00  -1.102191000000019e-01 -5.11196120e-01  -1.50098864e+00   1.09507600e-01
C     9.677793388028089e+00   8.817449152040583e+00  -3.314310000000020e-02  8.88196870e-01   6.19857630e-01  -5.81733370e-01
C     1.025293579445816e+01   7.516978188428576e+00  -1.125171000000016e-01  1.61320620e-01   7.71095860e-01   3.63831840e-01
C     1.169256103051364e+01   7.389516329099293e+00  -7.622579999999957e-02 -1.87602790e+00  -6.54608640e-01  -1.16330770e-01
C     1.222182948400452e+01   6.079018764644308e+00  -2.843087999999980e-01  4.91281690e-01   2.96113480e-01   1.62945770e-01
C     1.363527921467500e+01   5.954934961521374e+00  -2.390621999999993e-01 -1.88376320e-01  -3.49517883e+00   2.34161210e-01
C     6.034553414364696e+00   8.026742251414085e+00  -1.894799999998753e-03 -8.31357440e-01  -6.76948940e-01  -9.58558900e-02
C     7.427783204150829e+00   7.842545276036271e+00  -5.038620000000193e-02  6.22234760e-01   9.29403620e-01  -1.39618220e-01
C     7.972158524846828e+00   6.534859827291062e+00  -9.133770000000041e-02 -1.07144920e-01   7.76748870e-01  -4.65058050e-01
C     9.377874767840781e+00   6.411471120437346e+00  -1.894559999999998e-01  6.90773380e-01  -1.72571772e+00   5.55209300e-02
C     9.933824640252267e+00   5.091002134803057e+00  -2.842626000000017e-01  1.05979265e+00  -8.52218320e-01  -2.54823750e-01
C     1.137570314438783e+01   4.916647424831901e+00  -4.109948999999986e-01 -9.98330940e-01   1.14615388e+00   1.29588177e+00
C     1.194950225018668e+01   3.630282728158096e+00  -2.995710000000003e-01 -5.57783710e-01  -1.49018157e+00  -6.83335980e-01
C     5.167398811143400e+00   6.902188894284315e+00  -4.606050000000295e-02  3.52307260e-01  -1.68705020e+00   1.12312750e-01
C     5.742068343947013e+00   5.567283773402001e+00  -1.361688000000001e-01 -2.51485246e+00   4.85098580e-01   1.63935700e-02
C     7.112632165103666e+00   5.399850900937982e+00  -1.635749999999980e-01  2.10372388e+00  -5.83577040e-01   3.21260840e-01
C     7.720749421603114e+00   4.088238390900965e+00  -1.646150999999989e-01 -2.07417165e+00  -3.67775920e-01   1.61836010e-01
C     9.108435222081994e+00   3.890905584862283e+00  -2.055731999999999e-01  3.75420180e-01   2.59590522e+00  -1.68367900e-02
C     9.678968211984397e+00   2.627379406691905e+00  -1.263453000000005e-01  1.64117153e+00  -1.72371067e+00   1.52719680e-01
C     1.112224524443670e+01   2.442423315468807e+00  -1.930547999999987e-01 -9.65552590e-01   1.51868169e+00  -2.53939890e-01
C     3.460413340944508e+00   4.579460225857753e+00  -2.822327999999992e-01 -1.18865916e+00   1.60123304e+00  -6.63278600e-02
C     4.838956864255085e+00   4.424596685247778e+00  -1.921610999999999e-01  1.88435338e+00   1.14319180e-01  -3.83521660e-01
C     5.420477262511968e+00   3.109520790586894e+00  -2.012493000000006e-01  8.13550840e-01   1.11261702e+00   8.81313920e-01
C     6.831949433742549e+00   2.944798514417697e+00  -8.125079999999940e-02  1.30498836e+00   1.03772642e+00  -4.89735730e-01
C     7.436774303588519e+00   1.668035544481751e+00   3.730710000000000e-02  1.80924870e-01  -1.81572450e-01   2.62953470e-01
C     8.870653872582398e+00   1.471955958865267e+00   4.385280000000000e-02 -1.09552963e+00   3.93555850e-01  -6.38690200e-02
C     9.431327055192094e+00   1.590860410791288e-01   1.264026000000000e-01 -4.18662130e-01   2.06094970e-01  -2.29926180e-01
C     2.600842175861144e+00   3.439908701155183e+00  -3.373062000000004e-01  1.01601570e+00   1.24929620e-01   3.06827440e-01
C     3.190203454930121e+00   2.124135197828927e+00  -2.818599000000006e-01 -1.37181500e-02   1.34182194e+00   1.96019420e-01
C     4.607303800081983e+00   1.992223326601009e+00  -1.490222999999986e-01 -1.08039228e+00  -2.11209664e+00  -5.54327450e-01
C     5.170116733165235e+00   6.542585724619125e-01  -4.707720000000037e-02 -4.30206360e-01   1.46609143e+00   5.57789880e-01
C     6.573660561840496e+00   5.616079159294266e-01   1.244799000000000e-01 -5.43489900e-02  -2.28021482e+00  -4.50975630e-01
C     9.368850897111094e-01   1.150276292521176e+00  -1.794027000000007e-01 -4.20777110e-01  -1.20609000e-01   4.82370680e-01
C     2.350936093004551e+00   1.004788735202054e+00  -2.426102999999991e-01 -3.15296970e-01  -7.63827390e-01   5.18842880e-01
C     1.602726683069310e+01   9.287023530374265e+00   3.692965800000000e+00  1.24910158e+00  -4.05034810e-01  -6.65310760e-01
C     1.180451673578128e+01   8.820875222928981e+00   3.586219800000000e+00 -4.15223670e-01  -1.68544759e+00  -1.97644710e-01
C     1.321069671941868e+01   8.961974833839637e+00   3.682970400000000e+00  2.44881770e-01   1.10272020e-01  -3.46819290e-01
C     1.406256657715979e+01   7.830455439640766e+00   3.625818900000000e+00  6.65210800e-01  -1.68078567e+00  -6.55601520e-01
C     7.614241970491351e+00   8.299461737288560e+00   3.512021100000000e+00 -2.89035856e+00   4.65346460e-01   4.02523990e-01
C     8.982498048010402e+00   8.462740223134706e+00   3.575151300000000e+00  1.12835957e+00   3.38141530e-01  -3.53981390e-01
C     9.816769399609621e+00   7.308686496470437e+00   3.481171200000000e+00  6.51650210e-01   5.21653740e-01   3.34682970e-01
C     1.123922860313068e+01   7.494704493801208e+00   3.460760100000000e+00  1.17755990e-01   3.85872800e-01   5.89751600e-01
C     1.210312004524414e+01   6.361736470590396e+00   3.443765700000000e+00 -3.04146720e-01   1.02145710e-01   5.28102420e-01
C     1.351588324420904e+01   6.482398669306984e+00   3.498405000000000e+00 -7.10676940e-01   2.15525163e+00   9.15622200e-02
C     4.751337711380651e+00   7.975403948407335e+00   3.556996800000000e+00 -1.32582670e+00   1.26935070e+00   8.52946700e-01
C     5.613008710429451e+00   6.878412786756973e+00   3.465130500000000e+00 -6.00790210e-01  -1.20974438e+00  -6.15403180e-01
C     7.023247445442143e+00   7.009102982092180e+00   3.423227700000000e+00  4.06023460e-01  -7.02777550e-01   2.78712130e-01
C     7.843449544153613e+00   5.816400693187167e+00   3.404780100000000e+00 -2.72428240e-01   1.98277426e+00   1.41561560e-01
C     9.251819026160282e+00   6.008846888706708e+00   3.489259800000000e+00  2.11492000e-01  -8.58991380e-01  -8.49257900e-01
C     1.011749752443264e+01   4.862028490758545e+00   3.466296600000000e+00 -2.27819590e-01   7.46237970e-01   5.55802720e-01
C     1.153113829561842e+01   5.075012966525146e+00   3.513577800000000e+00 -6.32761060e-01  -1.35044781e+00  -5.77664500e-01
C     1.235002680275518e+01   3.909971507911505e+00   3.526316100000000e+00  9.30885250e-01   9.93937100e-02   1.07640140e-01
C     3.589934297551186e+00   5.348635333135931e+00   3.427200900000000e+00  1.26551964e+00   1.28011538e+00  -3.72705800e-02
C     5.006041672555599e+00   5.589417797413559e+00   3.367982700000000e+00  5.84363640e-01  -2.16725380e+00   4.54525840e-01
C     5.844200720130584e+00   4.395150378756439e+00   3.354351600000000e+00 -6.39098380e-01   1.05640866e+00  -2.72822220e-01
C     7.240529384777137e+00   4.548837373552761e+00   3.361073400000000e+00  1.11457405e+00  -6.65796220e-01   7.53996600e-02
C     8.100574981466416e+00   3.411997282610397e+00   3.418401600000000e+00  1.22545613e+00  -6.61213320e-01   8.99140670e-01
C     9.546599913614219e+00   3.557190796527815e+00   3.528461700000000e+00 -7.50056490e-01   6.11944010e-01  -1.41503310e-01
C     1.040727923187788e+01   2.435967573974054e+00   3.691624200000000e+00 -1.18315470e+00  -5.60563520e-01  -6.93400920e-01
C     1.179599550145800e+01   2.600170528553088e+00   3.621582600000000e+00  8.31406920e-01   9.05298500e-02   2.58461570e-01
C     3.030700043277218e+00   4.066639228115037e+00   3.451854300000000e+00 -4.77457900e-02  -1.48316300e+00  -4.31173020e-01
C     3.888110129685516e+00   2.899639496277074e+00   3.385605300000000e+00 -5.97903990e-01   1.10685781e+00   6.67268470e-01
C     5.297905807575122e+00   3.087659501135586e+00   3.364700100000000e+00 -1.76773900e-02  -8.16600070e-01   5.95007200e-02
C     6.152502988938228e+00   1.928278378004747e+00   3.455239800000000e+00 -2.00975890e-01   4.59149720e-01   5.71561360e-01
C     7.570453829702505e+00   2.091949449012852e+00   3.564407100000000e+00 -7.25240860e-01   5.43331650e-01  -7.30538880e-01
C     8.408486089983871e+00   9.575946761768530e-01   3.691637400000000e+00  6.66642930e-01   2.52529060e-01  -2.90727900e-02
C     9.835108751844318e+00   1.122416424623398e+00   3.717452700000000e+00 -7.85388530e-01   4.11239260e-01   1.94835430e-01
C     1.913539915131325e+00   1.453518879268170e+00   3.648655200000000e+00 -1.16907964e+00  -3.52784830e-01  -5.43976650e-01
C     3.307215985446315e+00   1.616006611687835e+00   3.536034000000000e+00  7.63921250e-01  -3.38666890e-01   1.05271510e-01
C     4.159514180090828e+00   4.764312657476580e-01   3.605513400000000e+00  2.43817350e-01  -4.44794270e-01  -6.09777530e-01
C     5.573981593686324e+00   6.253964446021865e-01   3.562635000000000e+00 -9.71538500e-02   1.12877914e+00  -7.84077500e-02
C     1.328122902809378e+00   1.354270856539224e-01   3.616403400000000e+00  1.31007171e+00   2.30382080e-01   2.79827300e-01
