52
Lattice="8.88768389401873 1.33226762955019e-15 0 4.44384194700937 7.69696003302603 0 0 0 30 " PBC="1 1 1" Properties=species:S:1:pos:R:3:force:R:3 Energy="-415.51957837"
C     1.263586006941255e+01   6.790803698992926e+00  -1.813409999999749e-02 -1.14856925e+00   3.24994628e+00  -2.10032480e-01
C     8.966326209668290e+00   6.580869268113877e+00  -5.761199999998468e-03 -5.63201704e+00   1.10942730e-01   2.59178250e-01
C     1.021622323632593e+01   6.197393634587225e+00   8.550300000000000e-02  4.93690180e+00  -7.29990000e-04  -8.06103000e-01
C     1.057719473910089e+01   4.841795181994788e+00   1.738230000000000e-02 -1.30177647e+00  -1.07976204e+00   2.32401380e-01
C     6.473631415223180e+00   6.071561345959177e+00  -1.573095000000002e-01  1.85462650e+00  -4.51465020e+00   1.75128924e+00
C     7.944656016752807e+00   5.626377721449610e+00   5.243430000000000e-02 -3.69486049e+00  -2.12423038e+00  -1.75885905e+00
C     8.234664829518694e+00   4.158371094278245e+00  -2.725500000000380e-03 -2.34278689e+00   2.79029345e+00   6.15827680e-01
C     9.577711982384830e+00   3.801599601758077e+00  -3.450929999999985e-02  1.21992340e-01   1.56821810e-01   3.01554800e-02
C     9.868112386558119e+00   2.418579574514759e+00  -7.665569999999988e-02  3.26959812e+00   2.26438045e+00   5.49831080e-01
C     4.059753756851265e+00   5.466456597453495e+00  -7.454099999996799e-03  3.08093360e-01  -3.06321963e+00  -3.44421020e-01
C     5.403324483106561e+00   5.003773549467721e+00  -6.983460000000008e-02  1.78950049e+00   4.13601256e+00   2.23191190e-01
C     5.767519815489983e+00   3.695952128991101e+00   7.002270000000001e-02  5.04816730e-01  -3.67066450e+00  -1.32766149e+00
C     7.126839250961121e+00   3.222922211576199e+00   4.614990000000000e-02  1.44068930e+00   1.02133200e-01  -5.65044510e-01
C     7.510920864861231e+00   1.816541371854629e+00  -4.021769999999947e-02 -2.49363442e+00   2.51083519e+00   7.59160930e-01
C     8.860299603761757e+00   1.507725326983774e+00  -4.570650000000143e-02 -8.13491950e-01  -2.72638821e+00  -3.03555160e-01
C     3.010078338669000e+00   4.490206745389221e+00   7.686599999999999e-03  2.48490954e+00  -2.59926502e+00   1.42030890e-01
C     3.382329112111757e+00   3.011196313250167e+00   9.892800000000000e-03  3.31999610e-01   3.44932645e+00  -7.96672900e-01
C     4.759207144834683e+00   2.664190107859261e+00  -8.672759999999968e-02 -5.34176010e-01  -1.73348249e+00   1.68722353e+00
C     5.036818616225650e+00   1.206039745884712e+00  -3.479370000000159e-02  3.60667553e+00   2.68224053e+00  -2.82516250e-01
C     6.505125141866991e+00   8.183834315481662e-01   1.954410000000000e-02 -3.04568117e+00   2.65338414e+00  -7.17191730e-01
C     1.124245023367914e+01   7.198814162311205e+00  -1.965000000001993e-03  1.43346695e+00  -2.91283566e+00   6.67315570e-01
C     2.376999281542912e+00   2.068274221146194e+00  -1.164629999999889e-02 -7.09907160e-01  -3.07726858e+00   2.16653000e-03
C     2.731750116542887e+00   6.099977059967531e-01   1.574940000000000e-02  6.95668420e-01   4.00118241e+00  -9.61317530e-01
C     4.070982897647346e+00   2.098337546418570e-01  -8.218619999999888e-02  8.15039260e-01   1.71736873e+00   8.88498710e-01
C     2.678868353458284e-01   1.378640226077447e-01  -5.775180000000191e-02  3.12910945e+00  -2.07527112e+00  -3.81514700e-02
C     6.183441382496666e+00   7.407011081433082e+00  -8.239740000000140e-02 -5.03429846e+00  -2.14669690e-01  -1.07069600e-02
C     7.482602842033627e-01   8.681540532813543e-01   3.360873900000000e+00 -2.54227863e+00   3.68190900e+00   8.85251680e-01
C     3.072246307154415e+00   2.813052624532274e-01   3.444813000000000e+00  1.70812227e+00   3.57141200e+00  -3.10975380e-01
C     4.487834958644824e+00   7.280875455610251e-01   3.438573000000000e+00 -2.25996247e+00   1.43410647e+00   4.44809130e-01
C     9.924633615543932e+00   7.479112970270910e+00   3.573807900000000e+00  1.31981028e+00  -2.78015324e+00  -1.68331700e+00
C     6.876547583690251e+00   1.383993461778312e-01   3.430443900000000e+00 -9.57122920e-01  -1.15108637e+00   1.08522561e+00
C     1.233885558196392e+01   6.812940694826408e+00   3.423920400000000e+00 -2.43732588e+00   9.50573300e-02   7.08775000e-02
C     4.747247258245943e+00   7.269303461053148e+00   3.357550800000000e+00  3.21444063e+00  -3.71479208e+00   5.11945540e-01
C     5.775470428069402e+00   6.221113587220477e+00   3.421171800000000e+00  1.81976445e+00   2.05569443e+00  -8.90717600e-01
C     7.212290289897177e+00   6.655576193073857e+00   3.379092300000000e+00 -2.11494772e+00  -2.77156722e+00   8.28085610e-01
C     8.251999235823769e+00   5.638153608477908e+00   3.425681100000000e+00 -1.52924261e+00   8.56382050e-01  -7.03807210e-01
C     9.575543611150211e+00   6.022084748099134e+00   3.474386700000000e+00  2.28592066e+00   1.57101432e+00   5.92964510e-01
C     1.062143945159484e+01   5.017792099739960e+00   3.457919700000000e+00 -3.44864300e-01   4.92893840e-01   3.84290070e-01
C     1.199316076171980e+01   5.397147242684151e+00   3.475588500000000e+00  3.55018800e-02   1.28529528e+00  -3.22206240e-01
C     4.115918319100611e+00   4.397191369484280e+00   3.453842100000000e+00 -2.14207230e-01   2.74806597e+00  -7.57831060e-01
C     5.479060792409978e+00   4.867723931247848e+00   3.387110700000000e+00 -4.11211490e-01  -1.90597177e+00   1.07368059e+00
C     6.511557693934709e+00   3.859440178204319e+00   3.459769200000000e+00  1.58810107e+00   2.40145619e+00  -2.13429616e+00
C     7.906579711630544e+00   4.287629376785246e+00   3.312096300000000e+00 -1.02922659e+00  -2.09039138e+00   2.12100477e+00
C     8.907792321351289e+00   3.250802371105666e+00   3.450696300000000e+00  7.36277820e-01   1.45450574e+00  -5.41967340e-01
C     1.029403232968517e+01   3.627556018529317e+00   3.469863900000000e+00 -9.20272700e-01   9.42711780e-01  -1.09111798e+00
C     2.415624311772950e+00   2.644112048833804e+00   3.307892400000000e+00 -1.11715062e+00   2.51201506e+00   1.47789867e+00
C     3.737678933551022e+00   3.066945009899456e+00   3.338529600000000e+00  1.22808990e+00   3.34839800e-01   3.12609850e-01
C     4.773633010867862e+00   2.172820028024076e+00   3.379784400000000e+00  2.43800929e+00  -4.01653485e+00  -4.85088820e-01
C     6.192371013083186e+00   2.524919388836433e+00   3.313465500000000e+00 -1.20763255e+00  -1.70264239e+00   2.03434276e+00
C     7.218614717964401e+00   1.497874141780578e+00   3.472737000000000e+00 -1.85800100e-02   1.04588904e+00  -1.33123011e+00
C     8.598157989813441e+00   1.891592120019150e+00   3.451172400000000e+00 -8.02064760e-01  -1.17183988e+00  -3.83021470e-01
C     2.053013074037001e+00   1.349343210145658e+00   3.430628100000000e+00  1.50086140e+00  -5.17230192e+00  -9.06380190e-01
