64
Lattice="9.86 0 0 4.93 8.53901048131456 0 0 0 30 " PBC="1 1 1" Properties=species:S:1:pos:R:3:force:R:3 Energy="-512.61000957"
C     9.802552238300001e+00   5.754328155335760e-02  -1.776045000000011e-01  3.47774477e+00  -4.10838792e+00  -3.20222570e-01
C     1.218171941000000e+00   7.031000735606848e-01  -2.525460000000024e-01 -1.98285430e-01   8.19303900e-02   1.64045933e+00
C     4.930753747700000e+00   8.507628506414639e+00   3.496556400000000e+00  5.02494840e-01   2.10935166e+00  -9.94686500e-02
C     1.245970929200000e+00   7.330316962160192e-01   3.520706700000000e+00 -1.38605419e+00  -9.00652040e-01   8.64230800e-02
C     7.369342110800000e+00   8.476179074646483e+00  -1.714661999999976e-01  1.26888548e+00   2.97616604e+00  -3.65769120e-01
C     3.730782183500000e+00   7.202861130032568e-01  -8.874420000000072e-02 -2.17572658e+00  -2.58427576e+00  -5.13155260e-01
C     2.496994023800000e+00   3.323417034857920e-02   3.487482000000000e+00 -4.21851013e+00  -1.89700726e+00  -4.00167290e-01
C     3.645414895100000e+00   7.231442905911224e-01   3.475457700000000e+00  3.97562678e+00  -4.74380480e-01  -2.55559600e-02
C     4.955261763699999e+00   5.038383360650640e-02  -9.015570000000039e-02 -1.11644500e-02  -2.81491155e+00   1.70120340e-01
C     6.182507566900000e+00   7.215884828816664e-01  -1.538520000000005e-01 -6.05529800e-01   2.25601753e+00   7.23130040e-01
C     9.815904502399999e+00   8.517485000821598e+00   3.443196000000000e+00  2.14905652e+00   5.72297310e-01  -4.52934160e-01
C     6.172894806400000e+00   6.801981058929056e-01   3.466006800000000e+00 -1.60161311e+00   8.32719230e-01  -2.20220130e-01
C     7.406497844600000e+00   4.042094312896639e-02  -4.859399999999781e-02 -1.47940796e+00  -1.37341841e+00  -3.80708610e-01
C     8.612013686799999e+00   7.102204128395376e-01  -1.361217000000003e-01 -2.79327210e-01   6.22196680e-01  -1.39174890e-01
C     7.413105030599999e+00   5.169909739074080e-02   3.512285400000000e+00 -5.60078960e-01  -1.42615019e+00  -8.10910160e-01
C     8.630142529299999e+00   7.460500154235128e-01   3.517958400000000e+00  9.06366950e-01  -1.09594425e+00   1.78738180e-01
C     1.108021976440000e+01   2.120335696265987e+00  -3.379710000000102e-02  3.37936170e-01  -6.13739910e-01  -1.90862238e+00
C     2.497534795500000e+00   2.769807112237765e+00  -6.224489999999960e-02 -2.09435932e+00   3.48273866e+00   1.99657001e+00
C     1.105684934590000e+01   2.146793222507533e+00   3.580594800000000e+00  2.42924808e+00   2.17453930e-01   1.21164490e-01
C     2.521582891800000e+00   2.816345658644918e+00   3.601510800000000e+00 -4.20081529e+00   2.89683865e+00  -4.53914000e-02
C     3.707354872800000e+00   2.084557754695416e+00  -3.965340000000239e-02  9.21572980e-01   2.25727392e+00  -1.93482970e-01
C     4.964348591799999e+00   2.851199508501344e+00  -2.777160000000123e-02 -2.01614029e+00  -7.63459780e-01  -4.57539070e-01
C     3.681768074200000e+00   2.130261612828149e+00   3.501706200000000e+00  1.62798492e+00  -4.32985510e-01  -9.00569000e-02
C     4.916700585499999e+00   2.820990624175724e+00   3.413024400000000e+00  1.40790597e+00  -2.44740000e-02  -1.14201550e-01
C     6.155449902800000e+00   2.210855697001952e+00  -1.595586000000004e-01  1.99088750e+00  -4.63815297e+00   1.82184700e-01
C     7.424658633500000e+00   2.824110266264487e+00  -1.649187000000012e-01 -2.47081556e+00   1.92126990e-01  -4.45930560e-01
C     6.183764914099999e+00   2.082704020910313e+00   3.380008800000000e+00 -1.31456023e+00   2.63793297e+00   1.32382016e+00
C     7.371786996400000e+00   2.896048782465238e+00   3.535545000000000e+00  2.80599610e-01  -1.10021152e+00  -1.40674357e+00
C     8.609511958299999e+00   2.098253217433974e+00  -1.806570000000001e-01  3.67343070e-01   1.34747223e+00   1.16559460e-01
C     9.802252543599998e+00   2.822919501253051e+00  -1.209570000000006e-01  3.28688454e+00  -8.31374390e-01   9.97394310e-01
C     8.613666863700001e+00   2.142402634098927e+00   3.544305000000000e+00  3.72486130e-01   2.36337958e+00   2.41875260e-01
C     9.853323251700001e+00   2.880943187536014e+00   3.573188100000000e+00 -4.52162090e-01  -1.99251160e-01  -4.62047990e-01
C     1.232187654920000e+01   4.294159754178695e+00   1.850649000000000e-01  1.09271760e-01  -3.42193787e+00  -1.15424075e+00
C     3.688975537000000e+00   4.949837749917861e+00   1.500570000000000e-01  1.81542610e+00   1.70794756e+00  -1.46853100e+00
C     2.495249641900000e+00   4.302651031590112e+00   3.611767200000000e+00 -4.08732100e-01  -2.95483788e+00  -2.88425600e-01
C     3.678933028399999e+00   4.993186207399790e+00   3.510876300000000e+00  1.47686090e+00   5.23211160e-01  -3.79062700e-01
C     4.966982592199999e+00   4.224339510307717e+00  -2.400959999999941e-02 -1.65409223e+00   3.35085292e+00   3.97831590e-01
C     6.185767529400000e+00   4.995112095823449e+00  -1.658213999999987e-01 -1.32873106e+00  -2.54215909e+00   3.68360590e-01
C     4.946980990600000e+00   4.247026465691610e+00   3.400030500000000e+00 -3.30793582e+00  -3.51713000e-01   9.41265120e-01
C     6.100495488600000e+00   4.973077179279810e+00   3.452015100000000e+00  2.12156790e+00   2.05095699e+00  -1.31439072e+00
C     7.360742317400000e+00   4.212214969327165e+00  -2.126927999999992e-01  2.13000158e+00   1.40212351e+00   3.36534400e-01
C     8.609796370000000e+00   4.858024772215014e+00  -1.392003000000024e-01  1.37942270e+00   4.43154832e+00   3.63757460e-01
C     7.335150243699999e+00   4.345863035684570e+00   3.420963000000000e+00  3.37790540e+00  -1.93432666e+00   1.15301441e+00
C     8.662407210100000e+00   5.065415562297490e+00   3.467728800000000e+00 -2.23385552e+00  -1.82828940e+00  -7.62301450e-01
C     9.870359211800000e+00   4.213808177902523e+00   2.500830000000000e-02 -1.80115777e+00   7.18414060e-01  -7.96333260e-01
C     1.107254242330000e+01   4.964843609204679e+00   1.629822000000000e-01  9.96019610e-01  -5.68456200e-02   7.73057100e-02
C     9.893176484300000e+00   4.307985863777597e+00   3.468405300000000e+00 -1.84725835e+00  -2.66660460e-01   1.06249785e+00
C     1.112038442510000e+01   4.985396324309201e+00   3.555526500000000e+00  4.72049020e-01  -9.59445660e-01  -2.39634420e-01
C     3.731288445200000e+00   6.418599811221998e+00  -5.087639999999993e-02 -1.59270429e+00  -1.01007153e+00   1.64825377e+00
C     4.957271823300000e+00   7.092131938583692e+00  -1.329165000000003e-01 -7.04093730e-01   2.03292864e+00  -1.41374420e-01
C     1.351535042270000e+01   6.437206400448023e+00   3.454115100000000e+00  1.99446246e+00  -8.97583620e-01  -1.16505480e-01
C     4.930938869200000e+00   7.095414761162728e+00   3.439288800000000e+00 -1.64630824e+00   1.30470370e+00  -2.25870340e-01
C     6.199924221599999e+00   6.382973180917133e+00  -1.445252999999980e-01 -1.73796415e+00   5.90541460e-01  -6.44723520e-01
C     7.386061170500000e+00   7.090418671520985e+00  -2.186421000000003e-01  2.33009653e+00  -4.66690000e-01   4.61303900e-01
C     6.128145689399999e+00   6.412273258357367e+00   3.348644100000000e+00  6.47959500e-01  -7.99868450e-01   1.08549870e+00
C     7.351211493499999e+00   7.124361579739404e+00   3.390915900000000e+00  9.79445300e-01   1.26222084e+00   1.38990630e-01
C     8.660820834699999e+00   6.386335416293633e+00  -1.409523000000021e-01 -1.63418032e+00  -1.79731434e+00   1.42497880e-01
C     9.850351743499999e+00   7.113033899216846e+00  -3.669600000002049e-03  1.52638228e+00   2.62037090e-01  -5.06597000e-03
C     8.605979909100000e+00   6.478002035356852e+00   3.395732400000000e+00  9.32341540e-01  -2.13158972e+00  -3.69985400e-02
C     9.881665032899999e+00   7.098588113627411e+00   3.357281400000000e+00 -4.83248590e-01   8.03941900e-01   1.15051957e+00
C     1.111318618140000e+01   6.383467760404135e+00   1.723596000000000e-01 -1.28468345e+00   1.84211125e+00  -1.10791138e+00
C     1.232132064240000e+01   7.173647296598182e+00   6.081839999999999e-02  1.14838132e+00  -2.61995829e+00  -2.04532170e-01
C     1.113699172170000e+01   6.346360038731513e+00   3.470318100000000e+00 -1.09350155e+00   4.81977609e+00  -8.53720700e-01
C     1.234058831490000e+01   7.187499364788943e+00   3.392517300000000e+00 -9.23190970e-01  -2.70232398e+00   1.50363405e+00
