64
Lattice="9.86 0 0 4.93 8.53901048131456 0 0 0 30 " PBC="1 1 1" Properties=species:S:1:pos:R:3:force:R:3 Energy="-515.07820677"
C     4.930483041400000e+00   8.335922924248921e+00   1.367253000000000e-01  2.49176970e-01   2.72563021e+00  -2.94138400e-01
C     1.259572059700000e+00   5.491540961714807e-01   1.250961000000000e-01 -1.14134428e+00  -9.94236820e-01  -7.10323400e-02
C     1.217136542400000e+00   9.005544440981088e-01   3.406773600000000e+00  4.72145860e-01  -3.75961700e-01  -4.48676870e-01
C     2.465705630900000e+00   1.593356214849599e+00   3.283779000000000e+00  5.65291320e-01  -5.79509740e-01   5.83894060e-01
C     7.411396046099999e+00   8.360796805606846e+00   1.635930000000000e-01 -3.06343550e-01   4.19277050e-01  -4.39313000e-01
C     3.686803231100000e+00   5.403414957957016e-01   3.643410000000000e-02  7.41834500e-01   1.84254380e-01   7.28976280e-01
C     3.700538654800000e+00   8.539063421864976e-01   3.419994000000000e+00  1.80190990e-01   2.06533740e-01  -6.60180420e-01
C     4.953101092600000e+00   1.548619228873517e+00   3.342540900000000e+00 -1.31690478e+00   1.71897542e+00   5.69692420e-01
C     9.877879137999999e+00   8.352288962515097e+00   9.361680000000000e-02 -1.88440731e+00   4.41469520e-01  -1.01673380e-01
C     6.138256429200000e+00   5.555142073472992e-01   1.225923000000000e-01  4.10960910e-01  -1.54871467e+00  -7.82902230e-01
C     6.184983166399999e+00   8.842608166408016e-01   3.465477300000000e+00 -3.12515330e-01  -5.81295670e-01  -7.10650930e-01
C     7.422221980999999e+00   1.584287871109944e+00   3.484289700000000e+00 -5.20141770e-01  -1.37217650e-01   2.80005600e-01
C     1.230229237070000e+01   8.374812395848299e+00   1.919820000000000e-02  8.80444140e-01   6.81842600e-02   8.99235310e-01
C     8.632982061399998e+00   5.088160668342752e-01   1.096527000000000e-01 -7.70008310e-01   2.19887298e+00  -1.81735170e-01
C     8.626347858999999e+00   8.895290445465424e-01   3.477848100000000e+00  1.23890131e+00  -1.67100772e+00  -5.90003700e-01
C     9.847337048500000e+00   1.613607502884177e+00   3.390507900000000e+00  6.00414810e-01  -2.25619600e-01  -2.10974000e-02
C     1.223070241100000e+00   1.952222134248786e+00  -1.617419999999825e-02  1.70880020e-01   9.60577630e-01  -5.11775260e-01
C     2.445765259900000e+00   2.714913058685828e+00  -1.328700000000005e-01 -3.49557670e-01  -2.42280520e+00   5.25110640e-01
C     2.516242420000000e+00   3.005878389160046e+00   3.125326500000000e+00 -2.68205078e+00  -1.28158340e-01   5.54232300e-02
C     3.705878387099999e+00   3.709531022088892e+00   3.135706200000000e+00  1.33505155e+00   5.53854230e-01   2.14106770e-01
C     3.638438107000000e+00   1.972411514457384e+00  -2.609909999999971e-02  2.47379038e+00   5.04066150e-01  -5.07598400e-02
C     4.936756417100000e+00   2.703160818562204e+00   4.828050000000000e-02 -3.21826580e+00  -3.21164690e-01  -7.48148450e-01
C     4.912741992700000e+00   2.998928744700688e+00   3.276827700000000e+00  2.27250519e+00  -6.34831800e-01   6.49257990e-01
C     6.199423382900000e+00   3.695775700886870e+00   3.467331000000000e+00 -1.40479752e+00  -9.94900700e-02  -6.57705310e-01
C     6.090762436099999e+00   1.946474355514489e+00   1.092285000000000e-01  2.23236363e+00   1.66080713e+00   3.33523010e-01
C     7.330727787200000e+00   2.685243669042334e+00   1.398165000000000e-01  1.94161991e+00  -1.18769500e-02  -3.86962000e-01
C     7.449811690700000e+00   2.998400521512396e+00   3.518442000000000e+00 -2.38599955e+00  -3.23928760e-01  -1.19689950e-01
C     8.610052680700001e+00   3.721450285257505e+00   3.442247700000000e+00  2.96283682e+00   1.27510226e+00  -8.20049200e-01
C     8.612601540000000e+00   2.008730487731968e+00   1.184247000000000e-01 -7.67301440e-01  -2.69433556e+00  -5.18394590e-01
C     9.845247418700000e+00   2.662474653767729e+00  -5.651250000000019e-02 -4.10999200e-01   1.58629129e+00   1.04078269e+00
C     9.883246872699999e+00   3.028242313777481e+00   3.272468400000000e+00 -7.45949940e-01   2.37834970e-01   5.65422040e-01
C     1.111577738940000e+01   3.731268866457933e+00   3.108568800000000e+00 -3.11030880e-01   1.27288740e-01   4.01749680e-01
C     2.469370888700000e+00   4.104403045418676e+00  -1.887471000000005e-01 -8.17897240e-01   5.66010290e-01   1.78983780e-01
C     3.645352925000000e+00   4.830285284330106e+00  -1.092680999999978e-01  2.97321407e+00   1.34555780e-01  -5.93714500e-02
C     3.716234542300000e+00   5.137080915552986e+00   3.151105500000000e+00 -9.97505770e-01   3.32189880e-01   5.42012000e-03
C     4.908147232700000e+00   5.840765911331551e+00   3.345604500000000e+00  2.60212994e+00  -4.20293030e-01   3.28136870e-01
C     4.925095783900000e+00   4.136194122996135e+00  -2.653979999999834e-02 -8.60217490e-01  -7.01450950e-01   6.61819730e-01
C     6.138085752599999e+00   4.828802228989939e+00   1.459458000000000e-01  1.39186159e+00   6.56083790e-01  -1.02641692e+00
C     6.178952050900000e+00   5.102904209227625e+00   3.465013200000000e+00 -3.94482600e-02   1.99183233e+00   3.67841260e-01
C     7.429884581400000e+00   5.896682340608259e+00   3.579681900000000e+00 -1.61267608e+00  -2.01616166e+00  -1.02796620e+00
C     7.410707818100001e+00   4.108807979364889e+00   1.071117000000000e-01 -1.78308837e+00   2.82823690e-01   6.70336260e-01
C     8.651989922900000e+00   4.849265540654735e+00   1.083804000000000e-01 -1.51656300e+00  -2.84938429e+00  -3.50808730e-01
C     8.633038214099999e+00   5.162581816450459e+00   3.397217400000000e+00  1.33511270e-01  -2.38800920e-01   9.52776300e-01
C     9.887969763399999e+00   5.859202403468815e+00   3.302785200000000e+00 -1.78431085e+00   4.55356800e-02  -1.32537730e-01
C     9.842499831100000e+00   4.126222437337801e+00  -2.321189999999973e-02  2.06723887e+00  -1.21407637e+00  -5.55501950e-01
C     1.112102788870000e+01   4.811104702819615e+00  -1.329902999999995e-01 -2.57535825e+00   3.58734860e-01   1.59773350e-01
C     1.106838855320000e+01   5.179617910869002e+00   3.120120000000000e+00  2.73852434e+00  -1.80113710e+00  -1.80612370e-01
C     1.234168583150000e+01   5.867787951555930e+00   3.093567300000000e+00 -6.95225060e-01   8.45991600e-02   1.13565975e+00
C     3.680260628100000e+00   6.252389936201209e+00  -5.330400000000068e-02 -1.30447160e-01  -3.65142120e-01   9.91889000e-02
C     4.909826390700000e+00   6.963927064456763e+00   6.751560000000001e-02  5.85788500e-01  -1.60772675e+00   5.06150900e-02
C     4.971220617400000e+00   7.272897069308271e+00   3.433182000000000e+00 -1.16173831e+00  -7.89199890e-01  -5.91548900e-01
C     6.161912639800000e+00   8.006292356590528e+00   3.462844500000000e+00  8.92328900e-01   4.61944940e-01   6.27509420e-01
C     6.150505260699999e+00   6.270045365049866e+00   1.305459000000000e-01  9.98297900e-02  -1.16571928e+00   4.18470580e-01
C     7.402659642400000e+00   6.944129112488568e+00   2.198187000000000e-01 -1.09025577e+00   6.86881100e-02  -4.93112800e-01
C     7.398109646799999e+00   7.307525147727604e+00   3.558887100000000e+00 -1.93554660e-01  -5.50194660e-01  -2.00079120e-01
C     8.631533134400000e+00   7.966845031436491e+00   3.512876100000000e+00  5.14546100e-01   1.05917719e+00  -4.93050100e-01
C     8.605692835199999e+00   6.214673041520944e+00   1.477122000000000e-01  6.03821200e-01   2.07660029e+00   8.95545100e-02
C     9.827806163300000e+00   6.921471958251250e+00   8.238270000000000e-02  1.07055593e+00   7.56151200e-01  -4.07405040e-01
C     9.872565978400001e+00   7.264251150417061e+00   3.362485500000000e+00 -5.78477040e-01   9.90969250e-01   5.04527290e-01
C     1.107175105970000e+01   8.009464001253114e+00   3.346451100000000e+00  2.12211037e+00  -8.39535480e-01   6.18270180e-01
C     1.106135226000000e+01   6.230092615865519e+00  -8.267010000000141e-02  1.21447805e+00   3.38893000e-02   5.80353100e-01
C     1.231977040390000e+01   6.949461468363014e+00  -3.290610000000171e-02 -1.44567909e+00   5.10068820e-01  -5.08705790e-01
C     1.234107495520000e+01   7.277512575252921e+00   3.328426800000000e+00  7.29665900e-02   1.74271770e-01  -9.99909220e-01
C     1.361194622980000e+01   7.960120731463700e+00   3.370844700000000e+00 -2.02175468e+00   1.88100452e+00   8.40086630e-01
