64
Lattice="9.86 0 0 4.93 8.53901048131456 0 0 0 30 " PBC="1 1 1" Properties=species:S:1:pos:R:3:force:R:3 Energy="-513.46825459"
C     5.074584574999999e+00   8.497733586460518e+00  -2.431757999999995e-01  4.43091700e-02   4.41848650e-01  -5.62343730e-01
C     1.371097040700000e+00   7.386974150596041e-01  -3.433665000000019e-01 -5.90477240e-01  -2.16347505e+00   1.34763772e+00
C     1.142500779400000e+00   7.130510948136576e-01   3.487043100000000e+00 -1.02198017e+00   1.94807415e+00  -7.31257800e-02
C     2.331616730100000e+00   1.521194745085215e+00   3.638721900000000e+00  1.37999038e+00  -4.87718496e+00  -3.08398060e-01
C     2.577285926500000e+00   2.478166004474160e-02  -3.697337999999988e-01 -7.52717300e-02  -4.10829347e+00  -7.26375730e-01
C     3.801400045799999e+00   6.270074141515184e-01  -3.269736000000023e-01  1.47776749e+00   2.63950220e+00  -6.48016570e-01
C     3.582075093200000e+00   7.646648020995984e-01   3.692925900000000e+00 -2.63521130e-01   9.37472640e-01   3.38923310e-01
C     4.821798677099999e+00   1.485715498101234e+00   3.750378300000000e+00 -7.13498260e-01  -2.08733318e+00  -5.15175660e-01
C     9.961742924299999e+00   8.449840411430818e+00  -4.875945000000002e-01  1.39425670e-01   2.93952299e+00   1.43469513e+00
C     6.255175914800000e+00   6.453000239621935e-01  -3.755439000000003e-01  1.44711834e+00   7.27247450e-01  -1.15349680e-01
C     6.060470100400000e+00   7.570456138285040e-01   3.695179800000000e+00 -2.63183469e+00  -9.59508930e-01   1.50322080e-01
C     7.216690724699999e+00   1.461294440469063e+00   3.539652900000000e+00  2.12017707e+00   8.23863740e-01  -3.71217220e-01
C     1.244113911590000e+01   8.484943429613050e+00  -2.742378000000016e-01  2.26011860e-01   3.32199070e-01  -3.03674500e-01
C     8.771315741500000e+00   6.506556059451448e-01  -2.571933000000008e-01 -7.57414170e-01   9.26135990e-01   5.44351020e-01
C     8.467274506999999e+00   8.099794521346528e-01   3.435825000000000e+00  1.33716443e+00  -1.31406533e+00  -2.40246210e-01
C     9.774389909100000e+00   1.448301652902905e+00   3.383799000000000e+00 -1.94149934e+00  -2.94199650e-01   6.77330870e-01
C     1.423834384600000e+00   2.116119303671173e+00  -1.229171999999998e-01 -4.17776751e+00  -2.74509170e-01   1.04294600e-02
C     2.590389620000000e+00   2.785979400356152e+00  -1.092389999999988e-01  3.45064590e+00   1.03112773e+00   5.18181090e-01
C     2.366585713100000e+00   2.866408083896958e+00   3.740871600000000e+00 -2.46080358e+00   2.89367680e+00  -1.23231690e-01
C     3.579496013000000e+00   3.596380679608516e+00   3.847488600000000e+00 -2.81416690e-01   2.71036020e-01  -1.28503220e-01
C     3.838706736200000e+00   2.071937438766395e+00  -2.102532000000004e-01 -3.32249830e-01  -6.59506070e-01  -4.95955020e-01
C     5.067279448900000e+00   2.781480622684764e+00  -2.994251999999982e-01 -1.60581800e-02  -7.08047200e-01   1.45138400e-01
C     4.770929901800000e+00   2.862838009005375e+00   3.740342100000000e+00  2.31175160e+00   2.16994338e+00   7.90305800e-01
C     6.052248290100000e+00   3.580025998226278e+00   3.761117400000000e+00 -2.50206906e+00   2.55871128e+00  -1.35971165e+00
C     6.315880040099999e+00   2.096525775613869e+00  -3.781587000000002e-01 -7.22723900e-01  -9.47934710e-01   5.86693340e-01
C     7.541155667399999e+00   2.838092127414544e+00  -2.789088000000000e-01  2.08058160e-01  -2.83528995e+00  -1.16128080e-01
C     7.212742386300000e+00   2.866707973945015e+00   3.523167600000000e+00  1.97722594e+00   1.29972443e+00   1.21886471e+00
C     8.496173723300000e+00   3.558480366983142e+00   3.595877700000000e+00 -1.53867700e+00   2.23081218e+00  -6.46862230e-01
C     8.781165388500000e+00   2.095559159627534e+00  -1.787588999999983e-01 -1.35729620e-01   3.80945100e-02  -1.07539140e-01
C     1.000569693090000e+01   2.821411597392388e+00  -2.470140000000143e-02 -1.40262460e-01  -6.04593250e-01  -1.27597540e+00
C     9.700126706200001e+00   2.869543864715528e+00   3.509907600000000e+00  1.98203213e+00  -9.44439820e-01   1.55876090e-01
C     1.092831995680000e+01   3.536483449036138e+00   3.673227600000000e+00  1.37720014e+00   2.86405162e+00   1.67184420e-01
C     2.628272775300000e+00   4.198938088882337e+00   9.420899999999999e-03 -1.23886976e+00   1.40607413e+00  -8.50086450e-01
C     3.845919917800000e+00   4.896798369442179e+00  -1.748715000000018e-01 -6.82130390e-01   1.54441690e+00  -1.74330100e-01
C     3.574020508500000e+00   5.024201686655352e+00   3.917194800000000e+00 -1.31063708e+00  -1.07538560e-01  -1.16910121e+00
C     4.746581223400000e+00   5.788616381137990e+00   3.682804500000000e+00  1.59401781e+00  -1.06050055e+00   5.50753140e-01
C     5.036655669300000e+00   4.174659120384553e+00  -2.736422999999988e-01  1.84145661e+00   1.99461770e+00   4.11292700e-02
C     6.284759809500000e+00   4.936307431641985e+00  -3.424367999999980e-01  8.59138600e-02  -8.11221930e-01  -6.78406940e-01
C     6.020122388799999e+00   5.091244275807290e+00   3.676233000000000e+00  2.60794760e-01  -2.23322929e+00   6.00255030e-01
C     7.286232762399999e+00   5.776697117969377e+00   3.681776400000000e+00 -2.95926450e-01  -2.34936027e+00  -5.03562830e-01
C     7.520506017299999e+00   4.213196016241212e+00  -3.368933999999975e-01  5.77805020e-01   2.37735892e+00  -3.15212800e-02
C     8.778543762400000e+00   4.957106497198856e+00  -3.487098000000017e-01 -1.20663202e+00  -1.47310205e+00   5.05023160e-01
C     8.537867965800000e+00   5.036283105632979e+00   3.680685600000000e+00 -1.70896773e+00  -1.69385925e+00   3.18121490e-01
C     9.758072397899999e+00   5.732552910100816e+00   3.807591900000000e+00 -2.04752549e+00   5.45578660e-01  -7.81633620e-01
C     9.968732037399999e+00   4.237496076094882e+00  -1.385378999999993e-01  1.84762441e+00   1.37091240e-01   6.99686810e-01
C     1.124027758810000e+01   4.945708199059628e+00  -1.997820000000061e-02 -8.91945640e-01   1.30423000e-03  -4.66824210e-01
C     1.093321460870000e+01   5.030440458492249e+00   3.759758700000000e+00  1.63756759e+00  -3.25227189e+00   8.03648820e-01
C     1.215881758800000e+01   5.688865197732517e+00   3.896177700000000e+00  1.76774525e+00   2.58902781e+00  -7.76195240e-01
C     3.853934470900000e+00   6.370501870720989e+00  -3.173066999999996e-01 -1.28362648e+00  -1.69414254e+00   1.85974259e+00
C     5.062766132499999e+00   7.067756820827903e+00  -2.511182999999981e-01  1.98440442e+00   5.79146020e-01  -1.63823814e+00
C     4.759555208599999e+00   7.194806964567622e+00   3.528414600000000e+00 -7.73816700e-02   4.58017300e-02   8.93835200e-02
C     6.034619152399999e+00   7.832330511685679e+00   3.524461800000000e+00 -3.52108080e-01   1.16501125e+00  -3.44423010e-01
C     6.339663592599999e+00   6.359470237691771e+00  -4.537997999999988e-01 -1.94140991e+00  -5.83251650e-01   1.27747112e+00
C     7.569845161500000e+00   7.031505476516321e+00  -4.902692999999978e-01 -2.38277485e+00   3.36465399e+00   3.46102210e-01
C     7.260616531699999e+00   7.151631592828123e+00   3.607860600000000e+00  1.15506538e+00   1.57757335e+00   5.70283470e-01
C     8.501888431399999e+00   7.900413920825025e+00   3.723630000000000e+00 -2.43279810e-01  -1.49352120e+00  -3.42330020e-01
C     8.768746225499999e+00   6.355187838545946e+00  -4.418982000000007e-01 -1.08974900e-02  -1.78943750e-01   2.89126510e-01
C     9.944743396900000e+00   7.100139310271207e+00  -3.494675999999970e-01  2.44932079e+00  -2.85456788e+00   1.48761250e-01
C     9.728351449199998e+00   7.144730449948291e+00   3.812138700000000e+00 -2.27066590e-01   1.37392730e+00  -2.31894000e-03
C     1.095517021580000e+01   7.860294404766003e+00   3.781581300000000e+00 -5.63519000e-03   7.86297960e-01  -1.73416720e-01
C     1.118587415070000e+01   6.379515650183675e+00  -1.280996999999999e-01  1.23279426e+00  -5.00921440e-01  -7.58367550e-01
C     1.245792842810000e+01   7.068556584549460e+00  -2.167235999999981e-01 -4.29463580e-01  -1.67176520e-01  -1.53141990e-01
C     1.218334488030000e+01   7.188175312858540e+00   3.757791300000000e+00  2.45221170e-01  -1.87799183e+00  -1.72499950e-01
C     1.338306708510000e+01   7.936363581896350e+00   3.500885700000000e+00  5.36884060e-01  -1.45277980e+00   9.39719280e-01
