64
Lattice="9.86 0 0 4.93 8.53901048131456 0 0 0 30 " PBC="1 1 1" Properties=species:S:1:pos:R:3:force:R:3 Energy="-515.05061802"
C     4.944046999699999e+00   7.546330957366000e+00  -1.392206999999992e-01  2.47474467e+00  -1.15851354e+00   5.55372000e-02
C     6.222983014800000e+00   8.252494913277014e+00  -1.641510000000004e-01 -1.09216193e+00  -9.81363860e-01  -3.59801510e-01
C     9.832374350599999e+00   1.010039587110154e+00   3.702531900000000e+00 -2.31797760e-01   1.57749086e+00   2.46806530e-01
C     1.204612962000000e+00   1.750413807657715e+00   3.702474000000000e+00 -6.38508420e-01  -5.59391780e-01  -1.97452320e-01
C     7.441968159300000e+00   7.520716146068726e+00  -9.454769999999968e-02 -4.46122310e-01  -1.09764778e+00   1.12996430e-01
C     8.667623938899998e+00   8.216570356896503e+00  -1.705821000000007e-01  7.31994410e-01   1.60817380e-01  -2.13143720e-01
C     2.443837876400000e+00   1.010613408614410e+00   3.798082200000000e+00 -1.23294804e+00   2.02277885e+00  -3.09439340e-01
C     3.632872531399999e+00   1.764517862047741e+00   3.668754000000000e+00  1.19745947e+00  -1.64458114e+00   6.89137800e-02
C     9.914565880900000e+00   7.504505347013074e+00  -1.711331999999999e-01 -2.52688050e-01   1.89055020e-01   1.45392500e-02
C     1.113607227670000e+01   8.205128424413720e+00  -2.049069000000010e-01  8.09404790e-01   1.14314010e+00   6.53404680e-01
C     4.856640466100000e+00   1.013104494141740e+00   3.647431500000000e+00  1.19964651e+00   3.23073210e-01   6.51625110e-01
C     6.120385277800001e+00   1.703789273415029e+00   3.731179500000000e+00 -1.32460564e+00   1.89410337e+00  -8.14958940e-01
C     1.240446100050000e+01   7.491210107695714e+00  -1.916861999999995e-01 -2.17848489e+00   3.01877070e-01  -7.96797500e-01
C     1.358735198810000e+01   8.225164358603992e+00  -2.136762000000019e-01  6.77883540e-01   9.19378800e-02   3.00352550e-01
C     7.343630386000000e+00   1.037144114175770e+00   3.625993500000000e+00 -1.71766800e-02  -8.03969970e-01   4.26569210e-01
C     8.584889418400000e+00   1.733639946251013e+00   3.676319400000000e+00  4.72729440e-01  -1.78074780e-01   5.16268500e-02
C     1.289334075300000e+00   1.098978931616166e+00  -3.885884999999973e-01 -3.68450150e-01   9.85580790e-01   8.65303840e-01
C     2.537142464800000e+00   1.811917909222221e+00  -4.102443000000022e-01 -1.00279937e+00   4.30103730e-01  -4.26249770e-01
C     1.101189898630000e+01   3.166481891460087e+00   3.492451800000000e+00  1.57618018e+00  -3.24053280e-01   9.86859000e-03
C     2.430948342100000e+00   3.848176544329717e+00   3.362358600000000e+00 -1.53276413e+00   1.68812232e+00   2.54730760e-01
C     3.761882989900000e+00   1.099752395185444e+00  -3.127011000000017e-01 -3.51116770e-01   1.95385940e-01   6.85062800e-01
C     4.976321195400000e+00   1.834334861094736e+00  -1.929006000000015e-01  1.77502450e-01  -1.42128200e-02  -6.66264400e-02
C     3.641213943499999e+00   3.165929929822660e+00   3.526970400000000e+00  1.99248960e-01   3.85239960e-01  -1.66810430e-01
C     4.860641851300000e+00   3.913845633645948e+00   3.592095000000000e+00  1.08007127e+00  -2.36879507e+00   7.62567440e-01
C     6.192371412300000e+00   1.127848130587578e+00  -1.170479999999969e-01  1.36358477e+00  -1.30568617e+00  -5.11185400e-01
C     7.468186145800000e+00   1.836369365731701e+00  -1.301264999999994e-01 -1.81619667e+00  -2.34065041e+00  -1.91081220e-01
C     6.105313183200000e+00   3.160857159866806e+00   3.764293500000000e+00 -5.08627850e-01  -1.54391860e-01  -7.72598710e-01
C     7.327884705499999e+00   3.879256663894612e+00   3.735912900000000e+00  6.01573000e-01  -7.35479240e-01   8.90149020e-01
C     8.678503019199999e+00   1.092166252884907e+00  -2.474699999999999e-01 -4.49659140e-01   1.26654582e+00   5.06661110e-01
C     9.882036508399999e+00   1.817157958393378e+00  -3.282336000000008e-01  1.88122562e+00  -1.93603350e-01  -7.11275850e-01
C     8.607384367500000e+00   3.156861671473110e+00   3.715647900000000e+00 -2.68859843e+00   6.47104100e-02  -6.06441530e-01
C     9.771671605700000e+00   3.874679071156494e+00   3.516470700000000e+00  1.91535619e+00   2.31840000e-01  -4.77284800e-02
C     2.501680284600000e+00   3.240329388843747e+00  -5.048220000000008e-01  9.11755660e-01   5.55540500e-01   4.69138740e-01
C     3.772358155300000e+00   3.959280000607932e+00  -3.718557000000011e-01 -1.59637317e+00  -5.30906740e-01   1.83127710e-01
C     1.230258442390000e+01   5.319862021261788e+00   3.260375700000000e+00 -8.05666570e-01  -2.12185734e+00   4.04288480e-01
C     3.659455732300000e+00   6.008665912696648e+00   3.407469300000000e+00 -7.03844400e-02   1.88402984e+00   5.48447120e-01
C     4.989934503000000e+00   3.270303364991062e+00  -1.805003999999997e-01 -7.67025600e-01  -1.27705720e+00  -7.89881660e-01
C     6.207516668099999e+00   3.955623596320396e+00  -1.405089000000004e-01  3.90745780e-01  -6.09012980e-01   1.01177941e+00
C     4.874873282300000e+00   5.299626445006494e+00   3.641866800000000e+00  1.90397630e-01   1.14422480e+00  -6.94989040e-01
C     6.120658695600000e+00   6.005998240432590e+00   3.805315500000000e+00 -1.56273560e+00   8.41335300e-01   5.12460400e-01
C     7.419655965300000e+00   3.202366912222077e+00  -1.007667000000012e-01  2.20216153e+00   2.87729109e+00  -4.86783000e-01
C     8.709977766100000e+00   3.935201528076218e+00  -1.922792999999992e-01 -2.37824140e+00   8.36049780e-01   2.92261560e-01
C     7.308013600999999e+00   5.300231946239631e+00   3.856140600000000e+00  2.51789546e+00  -6.78550810e-01  -1.30777544e+00
C     8.580510000799999e+00   5.992062404549021e+00   3.692002800000000e+00 -5.02491160e-01   1.02228747e+00   5.52615750e-01
C     9.915489614999998e+00   3.254148069503531e+00  -3.888399000000007e-01 -9.65822620e-01  -1.02827915e+00   4.08465450e-01
C     1.110727708340000e+01   3.978362554278112e+00  -5.038643999999977e-01  2.16517771e+00  -1.08282837e+00   4.10335970e-01
C     9.798655171899998e+00   5.298999852417471e+00   3.436597200000000e+00 -5.48687420e-01  -3.31201610e-01   4.31711900e-01
C     1.103670684490000e+01   5.988771042959505e+00   3.297200700000000e+00  5.42352480e-01   3.20539750e-01   3.40090570e-01
C     3.751883815999999e+00   5.362689855274752e+00  -3.053898000000004e-01  1.50115295e+00   1.15216911e+00   2.92350240e-01
C     5.003230022800000e+00   6.110314378840672e+00  -1.031613000000000e-01 -1.79143993e+00  -5.94679920e-01  -4.93885630e-01
C     1.348689806160000e+01   7.478462816680856e+00   3.510681300000000e+00  1.13593911e+00  -1.86645663e+00   2.91722490e-01
C     4.890177481299999e+00   8.154414216491743e+00   3.744682200000000e+00 -6.81725700e-01  -1.02382586e+00  -3.92274530e-01
C     6.207583518900000e+00   5.357422225099745e+00  -2.885969999999816e-02 -1.31318090e-01   1.01361576e+00  -4.44808730e-01
C     7.422078024999999e+00   6.056369692473901e+00  -9.198899999997678e-03  1.27212262e+00   1.72229260e+00  -2.38395740e-01
C     6.114662484499999e+00   7.433455827193396e+00   3.897785700000000e+00  1.65581630e-01   1.10143540e-01  -5.69936610e-01
C     7.360264304599999e+00   8.159192561366247e+00   3.932986800000000e+00 -2.74838000e-03  -1.31863968e+00  -4.43056880e-01
C     8.670795654399999e+00   5.378123092036095e+00  -1.013246999999993e-01  8.08188480e-01  -7.98336980e-01  -2.68337910e-01
C     9.929193831799999e+00   6.091397225803489e+00  -1.880370000000013e-01 -1.08708110e+00  -4.40276370e-01  -2.66855100e-01
C     8.598255486499999e+00   7.438364904318348e+00   3.811187400000001e+00 -5.44304060e-01  -1.25394853e+00  -5.90791530e-01
C     9.818452424999998e+00   8.121540819335944e+00   3.635180400000000e+00 -3.98398100e-02   2.91881530e-01  -1.83903010e-01
C     1.114216220710000e+01   5.377703058110583e+00  -3.798020999999991e-01  2.72620080e-01   7.15976990e-01   1.28930690e-01
C     1.240516766670000e+01   6.079811752554540e+00  -3.498383999999994e-01 -1.07275530e+00  -1.75417300e-02   4.97985330e-01
C     1.105715535100000e+01   7.395396688973093e+00   3.433566000000000e+00 -1.73192164e+00   9.81609510e-01   2.95682290e-01
C     1.223564005250000e+01   8.144540046333089e+00   3.504261600000000e+00  1.95287039e+00   4.25381430e-01  -2.48974860e-01
