76
Lattice="10.7446858958278 0 0 5.37234294791388 9.3051709414712 0 0 0 30 " PBC="1 1 1" Properties=species:S:1:pos:R:3:force:R:3 Energy="-612.30132217"
C     9.235637744088598e-02   1.075435826219560e-02  -2.828426999999998e-01 -8.95155350e-01  -1.01868998e+00  -7.91632000e-03
C     1.250422690606499e+01   8.505417459133922e+00  -4.366106999999992e-01 -9.82819230e-01  -7.64244670e-01   1.55593490e-01
C     1.392397989927185e+01   8.323368954674446e+00  -4.324115999999982e-01  4.85279400e-02   1.86086197e+00  -1.78591790e-01
C     1.446836591093032e+01   7.044382234987259e+00  -3.132752999999973e-01 -3.21419870e-01  -7.71049570e-01   5.36012870e-01
C     8.244779786994322e+00   8.991424583244225e+00  -1.666713000000009e-01  8.24384950e-01  -8.10520600e-01  -2.49998880e-01
C     9.671645332479539e+00   8.854307027185634e+00  -2.528442000000020e-01 -8.23867680e-01  -1.89455030e-01   2.55552280e-01
C     1.019175206092064e+01   7.528584062883492e+00  -2.672010000000000e-01  7.01383490e-01   1.55765240e-01   8.22805240e-01
C     1.160489379516980e+01   7.382739466155401e+00  -2.307048000000016e-01  1.42917486e+00  -5.85350290e-01  -6.30794790e-01
C     1.218834533582349e+01   6.076259688408889e+00  -7.520009999999999e-02 -8.88741690e-01  -4.84813990e-01   6.52066690e-01
C     1.360025320406732e+01   5.922414598758296e+00  -1.039026000000014e-01  3.32207300e-01  -5.91020730e-01  -2.06617670e-01
C     5.998752120945896e+00   7.965366460514357e+00  -2.818170000000002e-01 -5.84389500e-02   2.04941142e+00  -3.20680900e-02
C     7.403278228806135e+00   7.834156850537280e+00  -2.360849999999992e-01 -1.87784400e-01   4.16881890e-01   2.60771230e-01
C     7.938189791331703e+00   6.543585937443467e+00  -1.832646000000011e-01  1.30787306e+00  -7.74393940e-01  -1.03767370e-01
C     9.364973892097797e+00   6.381089085956281e+00  -1.167122999999997e-01 -3.53240900e-01  -7.26307290e-01  -3.43527090e-01
C     9.932051176121043e+00   5.043695855416320e+00  -9.602099999998615e-03 -7.48030300e-01   1.31583648e+00   4.46837120e-01
C     1.132108366180720e+01   4.901791812477900e+00   1.402920000000000e-01  1.26844744e+00   5.37306720e-01  -1.67568769e+00
C     1.188484153629192e+01   3.582096179600435e+00   8.233680000000000e-02  1.15556225e+00   1.23669348e+00   6.70047330e-01
C     5.132473478242598e+00   6.862710124692305e+00  -2.758313999999977e-01 -5.33513230e-01   2.51136450e-01  -3.58251870e-01
C     5.665326305226296e+00   5.578730343330422e+00  -2.351828999999981e-01  1.20899230e+00  -1.79369858e+00   8.04257870e-01
C     7.091873378221438e+00   5.406376152059657e+00  -1.956372000000002e-01 -2.03455040e-01  -5.60149720e-01   4.29715100e-01
C     7.663803069843980e+00   4.088297850943272e+00  -9.942600000000112e-02  1.21620270e-01  -4.79983160e-01  -5.76055960e-01
C     9.081936516545127e+00   3.900255699777923e+00  -4.537499999999994e-02 -1.10089500e-02   5.86102500e-01  -2.99754320e-01
C     9.675079011752604e+00   2.605414643739744e+00  -1.467162000000002e-01 -7.55315040e-01   3.67114400e-01   3.79917150e-01
C     1.108091188831200e+01   2.444718994191414e+00   4.720200000000000e-03 -5.54679160e-01  -1.05886847e+00  -5.12564220e-01
C     3.420764268058059e+00   4.604111856918839e+00   1.042080000000000e-02  1.09581680e-01  -5.35757340e-01  -1.36028780e-01
C     4.849733623042496e+00   4.406038917583589e+00  -6.686519999999874e-02 -9.41035940e-01   1.44605450e+00  -2.80222960e-01
C     5.406298843615476e+00   3.118102856693147e+00  -8.074470000000034e-02  5.38657270e-01  -6.78098390e-01  -5.74880520e-01
C     6.831144280704634e+00   2.920516019487802e+00  -1.867973999999997e-01 -5.48921720e-01   6.23423120e-01   2.35786190e-01
C     7.380482195753836e+00   1.608153884879859e+00  -3.533322000000005e-01  1.29896268e+00   1.61856400e+00  -3.60278010e-01
C     8.822346946691447e+00   1.495166218947747e+00  -3.670176000000005e-01  1.31791410e-01  -1.20451932e+00   2.66162730e-01
C     9.439035185409896e+00   1.959302376228964e-01  -4.406958000000003e-01 -1.63417261e+00  -7.91984370e-01   4.64703170e-01
C     2.565487001800911e+00   3.450943517269510e+00   8.069939999999999e-02  3.56967590e-01  -5.78804910e-01  -2.52762300e-02
C     3.138978648412737e+00   2.121092313879838e+00   3.047670000000000e-02  1.65901740e-01   4.31777220e-01  -4.78329410e-01
C     4.551276602478164e+00   1.979758491816622e+00  -1.247000999999983e-01  3.35449660e-01   8.15545700e-02   6.87124090e-01
C     5.159477452633913e+00   6.989814572405783e-01  -2.397831000000004e-01 -1.29715585e+00  -1.21329019e+00  -9.60592100e-01
C     6.538715136377061e+00   4.942061893806648e-01  -4.963259999999998e-01  4.88032840e-01   1.31623480e-01   1.52286099e+00
C     9.123582489306090e-01   1.125289768357960e+00  -6.363029999999981e-02 -2.41495770e-01   8.43050380e-01  -3.54764540e-01
C     2.309027305226473e+00   9.514568923731196e-01  -4.638359999999864e-02  1.58630950e-01   1.69714275e+00   2.27715110e-01
C     1.609304235947341e+01   9.298173172297991e+00   3.379227000000000e+00  1.61040400e-01   3.14800330e-01   1.47997879e+00
C     1.184908811044881e+01   8.812560029125288e+00   3.553982400000000e+00 -3.48962230e-01  -3.27786280e-01  -1.20548560e-01
C     1.326088187012838e+01   8.973844044632155e+00   3.494057400000000e+00 -5.39862930e-01  -2.93959660e-01  -6.46225100e-02
C     1.412315763382306e+01   7.859141513666308e+00   3.523499400000000e+00 -6.74537310e-01  -6.98861540e-01   5.68554810e-01
C     7.615598648256515e+00   8.298543968278748e+00   3.549725400000000e+00 -9.17248260e-01   4.67530630e-01   5.79426510e-01
C     9.018930323108680e+00   8.457227374611303e+00   3.572424300000000e+00 -7.93903350e-01   8.27588710e-01  -3.09772500e-01
C     9.848617132128087e+00   7.352361339846130e+00   3.624260100000000e+00  1.04056817e+00  -1.74227364e+00  -2.67306740e-01
C     1.125963356750622e+01   7.514303696197002e+00   3.596666400000000e+00  9.36116620e-01  -1.36534541e+00   2.86500220e-01
C     1.211674591866823e+01   6.312085195075070e+00   3.647239800000000e+00 -7.23602500e-02   2.33239340e+00  -1.93631360e-01
C     1.353369309832259e+01   6.560482080732900e+00   3.641093100000000e+00  2.94547700e-02  -9.16734210e-01  -5.28944660e-01
C     4.791855868186121e+00   8.014870993483960e+00   3.561603600000000e+00 -6.30353900e-01  -9.83636150e-01  -1.00679693e+00
C     5.591685934984332e+00   6.837703315256439e+00   3.625750800000000e+00  1.28150570e+00   1.08725410e-01   4.25109480e-01
C     7.026393972984529e+00   7.004401916681582e+00   3.664060800000000e+00 -5.63482290e-01   3.59017720e-01  -6.28128520e-01
C     7.871067792237832e+00   5.881361580346657e+00   3.669403200000000e+00  8.68712890e-01  -1.15802170e+00   1.70311870e-01
C     9.306899616936310e+00   6.020670597213329e+00   3.616525800000000e+00 -5.23425820e-01   4.72598830e-01   4.50080310e-01
C     1.015127607700733e+01   4.871815204294690e+00   3.604444800000000e+00 -4.75838140e-01   2.85833300e-02  -5.73042820e-01
C     1.156850127540935e+01   4.994380031313380e+00   3.611261400000000e+00 -1.22916979e+00   2.73494708e+00  -3.33730380e-01
C     1.240277783818123e+01   3.921409796237791e+00   3.460829700000000e+00  6.09553450e-01  -1.21765301e+00   8.57765150e-01
C     3.635025983633421e+00   5.409618631925409e+00   3.638625900000000e+00 -3.20228610e-01  -6.46006460e-01   5.07979980e-01
C     5.044286898505783e+00   5.513641789225635e+00   3.686908200000000e+00  2.72245200e-01   1.46404880e+00   2.52654690e-01
C     5.914602964382865e+00   4.393976531442358e+00   3.799193400000000e+00 -1.13359121e+00  -4.67006450e-01  -7.22471220e-01
C     7.312436583460002e+00   4.562005865363630e+00   3.739846500000000e+00  5.04382710e-01   8.36057900e-02  -3.21755610e-01
C     8.155750770159520e+00   3.415031326647093e+00   3.600737400000000e+00 -2.05396980e-01  -1.02591830e-01   1.77478710e-01
C     9.565928636526587e+00   3.580964577762421e+00   3.470985000000000e+00 -3.03999300e-02  -1.91638620e-01   6.59763900e-01
C     1.041135372421802e+01   2.437214466880013e+00   3.397540200000000e+00  2.45324840e-01   1.69635130e-01  -1.94645500e-02
C     1.184101772314589e+01   2.631986489876008e+00   3.384377400000000e+00 -6.13361560e-01  -1.54916181e+00   2.49301570e-01
C     3.050140833263524e+00   4.106762380794642e+00   3.628609200000000e+00  2.54640570e-01  -1.17969790e-01  -1.01281237e+00
C     3.874297621067348e+00   2.970077220948430e+00   3.577092600000000e+00  1.56209979e+00  -1.96968451e+00   5.09380040e-01
C     5.305897275160105e+00   3.095548611161937e+00   3.719913900000000e+00 -7.47230900e-02   1.74426540e-01  -9.22009800e-02
C     6.144629229387279e+00   1.941548017023735e+00   3.685642500000000e+00  1.07888849e+00   7.82712830e-01  -5.52885110e-01
C     7.581986853206987e+00   2.104449457343392e+00   3.610893300000000e+00 -3.35489340e-01   2.07688300e-01  -4.18445820e-01
C     8.424130460101129e+00   9.575001356401026e-01   3.437935500000000e+00  2.56004270e-01   1.19819101e+00   6.86761120e-01
C     9.833089825363707e+00   1.125996496090854e+00   3.408935400000000e+00  1.18226295e+00   2.49088030e-01  -6.26867900e-01
C     1.928331533252131e+00   1.468552778697381e+00   3.439722300000000e+00  8.28317570e-01  -2.62900050e-01   1.19061320e-01
C     3.352478834374937e+00   1.596264947124949e+00   3.496468500000000e+00 -3.54801030e-01   1.69722997e+00   7.60086000e-03
C     4.199723642070391e+00   4.499333957203670e-01   3.510558900000000e+00  3.85450460e-01   1.16164788e+00   3.78734980e-01
C     5.619330024038139e+00   6.502270141004481e-01   3.560270100000000e+00 -6.62707780e-01  -9.75362070e-01   1.83260270e-01
C     1.400168493046635e+00   1.504491675160396e-01   3.514332600000000e+00 -9.24200340e-01   1.24132260e-01  -1.18184462e+00
