64
Lattice="9.86 0 0 4.93 8.53901048131456 0 0 0 30 " PBC="1 1 1" Properties=species:S:1:pos:R:3:force:R:3 Energy="-516.30906363"
C     4.954834825700000e+00   8.495302615566967e+00  -2.265828000000027e-01 -5.71170830e-01  -7.52987370e-01   5.98219700e-02
C     1.261064666500000e+00   6.668416418704040e-01  -2.182395000000028e-01 -8.32773050e-01  -1.12879430e+00  -4.83315000e-03
C     9.866901704199998e+00   6.428713586014720e-02   3.662221500000000e+00 -1.94398333e+00  -7.34531330e-01  -5.52872900e-02
C     1.188836863400000e+00   7.765637424232689e-01   3.643906800000000e+00  1.89746583e+00  -5.68256200e-02  -2.84705750e-01
C     7.388786622400000e+00   8.459110275817801e+00  -2.170106999999994e-01  1.57317771e+00   2.21693843e+00  -5.21928800e-02
C     3.715097388500000e+00   6.734766237935736e-01  -2.355518999999973e-01 -1.12335641e+00  -1.92399784e+00  -2.19442500e-02
C     2.443120413500000e+00   7.719342325014321e-02   3.613027500000000e+00 -6.37656280e-01  -1.83212184e+00   1.78861670e-01
C     3.681925439800000e+00   7.189694829773456e-01   3.662455200000000e+00  6.88461620e-01   1.57658848e+00  -2.20305500e-01
C     9.855457251499999e+00   8.470964557116661e+00  -2.723022000000022e-01  3.93979130e-01   1.17902736e+00  -5.16345000e-02
C     6.146554950300000e+00   6.475243508021288e-01  -2.769021000000009e-01  8.16336320e-01   1.15151901e+00   3.27613400e-01
C     4.922883002699999e+00   1.429336425236720e-02   3.684977400000000e+00  3.97907120e-01   8.39703790e-01   3.15230000e-03
C     6.161192909100000e+00   7.619450418716136e-01   3.674438700000000e+00 -7.19205150e-01   2.31142860e-01  -2.80802680e-01
C     1.230973529030000e+01   8.464093727724034e+00  -2.442455999999993e-01  9.80111120e-01   1.19507926e+00  -2.35635380e-01
C     8.640936024800000e+00   6.425648081252400e-01  -2.060607000000019e-01 -5.57494280e-01   9.81908280e-01  -1.19170420e-01
C     7.392234762999999e+00   6.803661536191519e-02   3.639054300000000e+00  2.00123000e-01  -8.77844180e-01   3.91866200e-01
C     8.630293781699999e+00   7.764099548445239e-01   3.649574700000000e+00 -3.80201030e-01   1.73237800e-01  -2.80865470e-01
C     1.262788194500000e+00   2.066278380350985e+00  -2.514140999999981e-01  9.50171400e-02   1.15398968e+00   3.06576720e-01
C     2.482369770400000e+00   2.783667548658797e+00  -2.630547000000014e-01 -1.18335920e-01   1.20681217e+00  -1.99136590e-01
C     1.104496055230000e+01   2.183115952946729e+00   3.625530900000000e+00  1.26597874e+00   4.08615350e-01   1.25858170e-01
C     2.458457002600000e+00   2.857869671147691e+00   3.655279200000000e+00 -5.96951610e-01   1.42870016e+00   5.24451500e-02
C     3.693417614900000e+00   2.066817533472692e+00  -2.408043000000006e-01  1.02143271e+00   1.35884397e+00  -2.18290940e-01
C     4.928473573400000e+00   2.820767670612091e+00  -2.693493000000018e-01  2.14560200e-02  -1.03572407e+00   2.56209300e-01
C     3.691020303800000e+00   2.166457282791402e+00   3.656413800000000e+00  1.87843600e-02  -5.95691770e-01   3.24023700e-02
C     4.919436341099999e+00   2.897059886696175e+00   3.653694900000000e+00 -1.72396940e-01  -8.25418030e-01   1.89375340e-01
C     6.167769430500000e+00   2.114830510819426e+00  -2.574927000000002e-01 -1.30601200e-02  -1.16090815e+00  -1.22560400e-02
C     7.412404872000000e+00   2.825087897574342e+00  -2.397792000000010e-01 -8.50841500e-02  -9.05649140e-01   2.48535210e-01
C     6.154105984799999e+00   2.199485150646784e+00   3.646256700000000e+00  8.91008200e-02  -8.94828110e-01  -1.52361200e-02
C     7.393211741099999e+00   2.905095266338065e+00   3.619009800000000e+00 -6.76677620e-01  -5.26384020e-01   1.81146770e-01
C     8.646416015599998e+00   2.091576992090185e+00  -1.944642000000023e-01  5.04674450e-01  -1.09667770e-01  -2.97147460e-01
C     9.917049614900000e+00   2.807016362744994e+00  -2.259479999999989e-01 -1.92855450e+00  -6.81831630e-01  -4.02947100e-02
C     8.612253580599999e+00   2.208139437768264e+00   3.610610700000000e+00  2.24322770e-01  -1.11252772e+00   8.02204200e-02
C     9.834706980099998e+00   2.904431443663349e+00   3.612377100000000e+00  2.15831040e-01   8.68647410e-01   3.34839450e-01
C     2.475629523700000e+00   4.248685851598188e+00  -3.321506999999997e-01 -3.69600890e-01  -1.71716754e+00   2.48455460e-01
C     3.683465128099999e+00   4.958790475455617e+00  -3.409760999999989e-01  1.23934764e+00  -7.93397750e-01   4.31116710e-01
C     1.233367620840000e+01   4.314043693982422e+00   3.701188200000000e+00 -1.02076563e+00  -5.71364780e-01  -3.78953000e-02
C     3.688276512300000e+00   5.027576132816837e+00   3.708374700000000e+00  4.62665800e-01  -7.46035210e-01  -2.27663210e-01
C     4.916916667400000e+00   4.225761255552636e+00  -2.563989000000007e-01  2.49096890e-01   9.59153230e-01  -3.78338070e-01
C     6.161186697300000e+00   4.951892833570082e+00  -2.332602000000001e-01  1.79376280e-01  -1.16081451e+00  -1.38861000e-03
C     4.930535792400000e+00   4.297762533480416e+00   3.682414800000000e+00 -1.10260663e+00   5.49496120e-01  -6.71837800e-02
C     6.146701026200000e+00   4.983563084149250e+00   3.663684600000000e+00  2.42032950e-01   1.97829825e+00  -2.28583000e-02
C     7.404124542600000e+00   4.241315575482585e+00  -2.346617999999978e-01 -2.02050510e-01  -1.91218960e-01  -5.66016900e-02
C     8.641976747799999e+00   4.923895211398364e+00  -2.684540999999996e-01  3.41839150e-01   1.01890318e+00   1.10142050e-01
C     7.380613717699999e+00   4.302904640201366e+00   3.655769700000000e+00  4.54213540e-01   1.07548246e+00  -2.37261330e-01
C     8.602124796999998e+00   5.055934272011022e+00   3.667791300000000e+00  4.79475470e-01  -1.19804243e+00  -6.20227800e-02
C     9.877758254400000e+00   4.229332952856211e+00  -2.644554000000028e-01  2.40578650e-01  -5.74039060e-01  -1.08170050e-01
C     1.110362942570000e+01   4.941048290260483e+00  -3.187112999999968e-01 -3.25189500e-02  -1.12143500e-02   8.88075000e-03
C     9.845129098699999e+00   4.333215736482433e+00   3.680832300000000e+00 -1.81432550e-01   1.96406590e-01  -1.12187840e-01
C     1.108483710380000e+01   5.051611654125837e+00   3.728905800000000e+00  2.16163240e-01  -2.33646948e+00  -3.45562880e-01
C     3.724425342900000e+00   6.368542167815828e+00  -3.203862000000015e-01 -9.75584130e-01  -4.64336910e-01   4.91162200e-02
C     4.931544076000000e+00   7.049155355008166e+00  -2.636654999999983e-01  1.79424000e+00   1.45751595e+00   2.46258490e-01
C     1.353257283540000e+01   6.434210488621115e+00   3.679176600000000e+00  2.52966870e-01   1.49244620e+00   1.89382860e-01
C     4.898814101799999e+00   7.181300299350777e+00   3.677765700000000e+00  9.14579720e-01  -1.20325994e+00  -2.42554560e-01
C     6.185469609500000e+00   6.348555247545711e+00  -2.203206000000009e-01 -4.75390500e-01   8.34814330e-01  -2.22646360e-01
C     7.420700878800000e+00   7.077743962095206e+00  -2.227019999999982e-01  2.20822840e-01  -1.79254778e+00  -1.90602930e-01
C     6.138348916000000e+00   6.438268397181421e+00   3.643774800000000e+00  5.88572200e-02   9.24796500e-02  -4.26203700e-02
C     7.379801007199999e+00   7.160394239992594e+00   3.591363900000000e+00 -7.05536150e-01   8.19128980e-01   4.97422820e-01
C     8.683555924099998e+00   6.361611736130051e+00  -2.887056000000001e-01 -1.96505495e+00  -5.96197240e-01   3.40169500e-01
C     9.888323540199998e+00   7.064793869581448e+00  -3.073917000000002e-01  1.93178450e-01  -2.02902990e-01   1.44030030e-01
C     8.616158929399999e+00   6.467070821090880e+00   3.651331500000000e+00 -4.15653160e-01  -3.53597860e-01   7.43164500e-02
C     9.859097317000000e+00   7.140050218304203e+00   3.709945500000000e+00 -6.60375460e-01   7.26522750e-01  -3.54016080e-01
C     1.111702034100000e+01   6.352571058784351e+00  -3.197136000000000e-01  1.12302020e-01   1.88457550e-01  -1.24860250e-01
C     1.235074441070000e+01   7.058675583182422e+00  -3.107616000000029e-01 -6.90262310e-01   1.39930100e-01   1.12767900e-01
C     1.106811336060000e+01   6.431844670377527e+00   3.714297000000000e+00  1.30894812e+00   1.57571510e+00   5.06965900e-02
C     1.231003044940000e+01   7.165591423331141e+00   3.676472400000000e+00 -2.38826200e-01  -7.08180200e-02   3.13102600e-02
