76
Lattice="10.7446858958278 0 0 5.37234294791388 9.3051709414712 0 0 0 30 " PBC="1 1 1" Properties=species:S:1:pos:R:3:force:R:3 Energy="-604.22487024"
C     1.078292091849858e+01   1.171695028042578e-01  -2.557799999998167e-03  4.95550974e+00   9.53389600e-02   4.01633760e-01
C     1.255528930665500e+01   8.530801034941149e+00   4.006464000000000e-01  2.80051807e+00  -2.13732524e+00  -4.28786120e-01
C     1.404507825777180e+01   8.330065979251675e+00   4.439325000000000e-01 -2.36827555e+00   2.33422989e+00  -1.70060744e+00
C     1.461016412171034e+01   7.022987134600045e+00   2.229012000000000e-01 -5.13426990e-01   3.22099353e+00  -1.77984220e-01
C     8.445542953673515e+00   9.051565577960215e+00  -9.545340000000024e-02 -2.54228756e+00   2.07172340e-01   8.09008050e-01
C     9.819011976727239e+00   8.878103419985623e+00   6.967620000000001e-02 -1.27212200e-01  -2.24060730e-01  -2.93525860e-01
C     1.037057699654637e+01   7.517417206393525e+00   2.422200000000000e-02  2.02511676e+00   2.87756367e+00  -4.20656340e-01
C     1.177749266882733e+01   7.361470823041262e+00   1.106514000000000e-01 -5.16865300e-01   1.54582036e+00   8.86940380e-01
C     1.233855437927917e+01   6.088107869515081e+00  -9.986880000000298e-02  4.48954923e+00   5.08151117e+00  -4.14954300e-02
C     1.379165157113322e+01   5.971227013113383e+00  -1.927923000000007e-01 -7.28609820e-01  -1.92699728e+00   1.56270075e+00
C     6.156407231730282e+00   8.092812966311588e+00   1.357359000000000e-01 -2.18666840e+00   6.82177890e-01  -1.71708500e-02
C     7.591265910226799e+00   7.874141077014751e+00   7.416570000000000e-02  7.60971000e-02   2.30954281e+00  -9.93179870e-01
C     8.227153452115950e+00   6.602251597306918e+00   6.470100000000000e-03 -3.33452995e+00  -3.15847070e-01  -5.37063470e-01
C     9.604643351527173e+00   6.425751859330674e+00  -2.549697000000002e-01 -1.91287559e+00  -3.06415591e+00   1.75307537e+00
C     1.013613353744503e+01   5.046558591256010e+00  -2.870136000000016e-01 -2.71476140e-01   3.50273681e+00  -4.65233990e-01
C     1.157283519819055e+01   5.089431328896676e+00  -3.831995999999975e-01 -4.14900502e+00  -7.71161315e+00  -1.30234371e+00
C     1.212097873395511e+01   3.768794477978629e+00  -6.121217999999971e-01 -2.05826658e+00  -2.27744583e+00   1.07340497e+00
C     5.259324595296844e+00   6.980312783203820e+00   2.091519000000000e-01  2.28347855e+00  -3.37638757e+00  -1.20890640e+00
C     5.820858588417418e+00   5.593318338968189e+00   3.201120000000000e-02  2.31290886e+00   2.84156912e+00   9.16523680e-01
C     7.302931458248856e+00   5.493498048226432e+00   5.974680000000000e-02 -6.91513150e-01  -5.93003110e-01  -1.56805300e-02
C     7.874655120519265e+00   4.193172431384508e+00   1.114269000000000e-01 -1.03914666e+00  -2.97027410e-01  -1.40510180e+00
C     9.233941319355278e+00   3.934046404477730e+00  -1.906664999999990e-01  9.82641340e-01   1.84021674e+00   7.47146600e-01
C     9.730947510345679e+00   2.635723818732350e+00  -1.635078000000014e-01  2.66941100e+00   1.56458090e+00  -1.19501889e+00
C     1.125372855675273e+01   2.584165541484579e+00  -4.875755999999996e-01 -2.50936927e+00  -1.15473721e+00   1.76122174e+00
C     3.618448168928599e+00   4.667066083965119e+00  -2.917532999999999e-01 -1.46422994e+00  -1.22452957e+00  -5.75150940e-01
C     5.001837867920654e+00   4.453851863528009e+00  -9.551850000000073e-02 -2.33605790e-01   1.25649409e+00  -1.42768840e-01
C     5.555201010925144e+00   3.170963764820808e+00  -1.955489999999926e-02  1.57170499e+00   7.94156310e-01   2.29763000e-03
C     7.012174885451905e+00   3.065663565860776e+00   1.398255000000000e-01 -3.50320502e+00   7.33554030e-01  -4.65837130e-01
C     7.462628327971389e+00   1.780290428202338e+00   1.554717000000000e-01 -1.05238176e+00  -3.61697088e+00   1.84373691e+00
C     8.799950293614051e+00   1.622588252145406e+00   1.343316000000000e-01  4.73567587e+00  -3.26201640e+00  -8.68343490e-01
C     9.402877705653511e+00   2.823417770401124e-01   1.853016000000000e-01  6.06162700e-02  -1.86828279e+00   9.08610780e-01
C     2.726710960006982e+00   3.473726949160972e+00  -5.033022000000003e-01  2.01428015e+00   3.94432111e+00  -8.81104500e-02
C     3.295057728669311e+00   2.224037932385212e+00  -4.328772000000001e-01  8.50703420e-01  -2.29279063e+00   1.59014936e+00
C     4.719605269341892e+00   2.064303506994984e+00  -1.375163999999991e-01 -7.65211340e-01  -1.36550798e+00   4.50886870e-01
C     5.237688075023444e+00   7.571710645587399e-01   1.872960000000000e-01  7.87628000e-01  -1.50243876e+00  -8.36440840e-01
C     6.632409818170220e+00   4.875396857641206e-01   3.834387000000000e-01 -2.17660980e-01   5.04669630e+00  -1.51418953e+00
C     1.014290988850159e+00   1.256805239303835e+00  -2.275233000000014e-01 -6.28745800e-01  -2.00945350e-01  -6.43351490e-01
C     2.446303077711188e+00   1.078835656525908e+00  -2.244126000000009e-01  3.34426510e-01  -1.33537977e+00  -6.75639360e-01
C     1.590944629979723e+01   9.256507222276534e+00   3.653871300000000e+00  5.85602990e-01  -2.58365382e+00   3.11082200e-02
C     1.165117411212972e+01   8.803569186859642e+00   3.364973400000000e+00  3.37466633e+00  -1.77431114e+00   1.24541870e-01
C     1.310551193914121e+01   8.886497056380341e+00   3.473881500000000e+00 -1.93439647e+00   2.01793489e+00   2.58817950e-01
C     1.389268401382120e+01   7.731973511635310e+00   3.489478800000000e+00  1.81471478e+00   4.78976950e-01  -5.89750300e-02
C     7.464417479344027e+00   8.220897155473338e+00   3.389744400000000e+00 -2.30309009e+00   1.22872909e+00  -4.73134580e-01
C     8.842638232290167e+00   8.341838509318125e+00   3.340033800000000e+00  2.75217829e+00   2.64487266e+00  -1.47973510e-01
C     9.741745113823736e+00   7.297728448016365e+00   3.304638900000000e+00 -2.15507933e+00  -3.75741865e+00  -4.84390000e-02
C     1.111691899618921e+01   7.462290954400521e+00   3.297608100000000e+00  6.88403900e-02   1.97171260e-01   2.41665710e-01
C     1.192039774342535e+01   6.268009019676734e+00   3.315568500000000e+00  2.23675162e+00   1.12717050e+00  -5.04648900e-02
C     1.333460492072835e+01   6.450664872643464e+00   3.308718600000000e+00  8.77009970e-01  -1.11222066e+00   8.99342990e-01
C     4.591068203623077e+00   7.913433464032831e+00   3.560851500000000e+00 -1.82374030e-01   1.37419279e+00  -6.78894530e-01
C     5.433908657121263e+00   6.804007709403640e+00   3.331737600000000e+00  7.91735120e-01   1.50216637e+00   3.41976900e-01
C     6.849778198503279e+00   6.941604481765642e+00   3.242075700000000e+00  8.21285200e-02   1.16706801e+00   9.89692220e-01
C     7.677553474177646e+00   5.817311576370483e+00   3.274241400000000e+00  2.66431602e+00   4.00330840e-01  -1.01423410e-01
C     9.134122005428829e+00   5.939468557746872e+00   3.343652100000000e+00  8.08224490e-01   1.77875199e+00   6.67079830e-01
C     1.001483162087070e+01   4.850530463234825e+00   3.624308100000000e+00 -3.22229400e-02  -4.99730580e-01  -1.98327686e+00
C     1.147696020473456e+01   4.955599800903835e+00   3.472401900000000e+00 -2.45386005e+00  -1.37613499e+00   1.97066473e+00
C     1.230851766356915e+01   3.756376727359199e+00   3.747190200000000e+00  7.21285810e-01   2.97713799e+00  -2.27119410e+00
C     3.514975984136727e+00   5.317680658435218e+00   3.349053900000000e+00 -2.30209978e+00  -5.93994860e-01  -4.29217620e-01
C     4.873796938073271e+00   5.559067679668817e+00   3.293139600000000e+00  1.94235799e+00  -4.15627086e+00  -9.90923720e-01
C     5.778259508293695e+00   4.336874884710500e+00   3.132300600000000e+00 -3.66066749e+00   1.45203181e+00   1.33879175e+00
C     7.154082638304680e+00   4.546383320820754e+00   3.229536900000000e+00  3.00832280e-01  -3.55372306e+00  -2.43568380e-01
C     8.041723167109774e+00   3.353098249059769e+00   3.315976200000000e+00  1.13136020e-01   2.97741611e+00  -1.54275700e-01
C     9.415087698093123e+00   3.565118336910148e+00   3.592872300000000e+00  9.16415930e-01  -2.34801814e+00   7.99196230e-01
C     1.022572503858670e+01   2.360032633466474e+00   3.835861800000000e+00  1.25979010e+00   1.07015714e+00  -1.16962700e-01
C     1.170205573337946e+01   2.493444963508467e+00   3.925472100000000e+00 -2.03793106e+00   1.08433539e+00  -9.34785380e-01
C     3.018374438017322e+00   3.942654804217743e+00   3.403543200000000e+00 -3.44944252e+00   8.11071060e-01   2.15748429e+00
C     3.791883408936591e+00   2.784090488992017e+00   3.497493000000000e+00 -1.91222452e+00  -8.73457220e-01  -9.03728660e-01
C     5.115482315471203e+00   3.027162490579432e+00   3.251935500000000e+00  5.34068734e+00   4.81674730e-01   3.30756400e-01
C     6.095439949890220e+00   1.975173927146194e+00   3.352136700000000e+00 -1.35306157e+00  -6.76172150e-01  -1.54744301e+00
C     7.510539527080643e+00   2.084736824913839e+00   3.178923300000000e+00 -1.05241167e+00  -1.02432956e+00   3.08780198e+00
C     8.278937788151577e+00   9.290522739906252e-01   3.570237000000000e+00 -1.63199640e-01  -1.67217007e+00  -1.11788842e+00
C     9.662415163780574e+00   1.036532023139933e+00   3.808341000000000e+00  6.58367490e-01   2.17461651e+00  -9.40558970e-01
C     1.752559216614030e+00   1.362072777113867e+00   3.734893800000000e+00  2.08825199e+00  -4.45243230e-01  -4.00030610e-01
C     3.150521127240812e+00   1.411329048122791e+00   3.548316000000000e+00  3.86983029e+00   3.06735641e+00  -2.50788650e-01
C     4.136851972101414e+00   3.433035808847190e-01   3.345813000000000e+00 -3.78053030e+00   2.15563262e+00   1.33261013e+00
C     5.548173341665390e+00   6.854435501433910e-01   3.393246900000000e+00 -2.45058501e+00  -2.60837360e+00  -3.58225580e-01
C     1.239003684336444e+00   1.151299023859192e-01   3.521713500000000e+00 -2.17682659e+00  -3.33759205e+00   9.34196830e-01
