52
Lattice="8.88768389401873 1.33226762955019e-15 0 4.44384194700937 7.69696003302603 0 0 0 30 " PBC="1 1 1" Properties=species:S:1:pos:R:3:force:R:3 Energy="-419.09832147"
C     1.234000253744329e+01   6.618010256012239e+00  -2.870705999999998e-01  8.94848900e-02  -9.30846560e-01   3.47895700e-02
C     8.617810794847808e+00   6.370364492496605e+00  -1.974993000000005e-01 -2.47087646e+00   1.11606937e+00   3.65526940e-01
C     9.935565910150792e+00   5.998165059353104e+00  -1.340280000000007e-01  1.48474311e+00  -7.98949500e-01  -8.29572960e-01
C     1.028029765915478e+01   4.621801132234929e+00  -1.625949000000020e-01 -6.14018110e-01  -6.46359000e-02   3.90653800e-02
C     6.190997601425138e+00   5.809174056715684e+00  -2.467688999999993e-01 -1.99923110e-01   2.67005030e-01   6.05350000e-02
C     7.576304980141266e+00   5.402761020482031e+00  -2.368827000000024e-01 -8.59613970e-01  -5.75480400e-01   2.38590340e-01
C     7.889365112083563e+00   4.007426857795518e+00  -2.088494999999995e-01  1.86170490e-01   1.05484640e-01  -2.16291200e-02
C     9.265914878167752e+00   3.607680697431050e+00  -1.880474999999997e-01 -2.36199520e-01   1.31646633e+00   2.04879980e-01
C     9.610706307986833e+00   2.258671535350694e+00  -1.765472999999993e-01  1.01051734e+00  -1.10180001e+00   1.87130300e-02
C     3.772761556188357e+00   5.203346640632786e+00  -2.559104999999988e-01  5.28533900e-01   2.47058208e+00   1.72827890e-01
C     5.126411582605257e+00   4.823871040264126e+00  -2.285627999999988e-01  1.47404762e+00  -1.20605380e-01  -1.13070660e-01
C     5.486941234166046e+00   3.453519131655784e+00  -1.802603999999981e-01  1.67546880e-01  -1.69698917e+00   3.07317100e-02
C     6.854787735777408e+00   3.017527370753244e+00  -1.879545000000000e-01  1.45128390e-01   9.46169020e-01   1.36884000e-02
C     7.229737121187876e+00   1.645923166748020e+00  -1.895462999999999e-01 -1.19621149e+00  -2.72761660e-01  -3.59278630e-01
C     8.593901677595552e+00   1.271267941537348e+00  -2.311181999999974e-01 -5.19748340e-01   1.04105727e+00   9.57929400e-02
C     2.747841581674362e+00   4.273278163900511e+00  -1.791555000000002e-01  4.79354040e-01  -2.39701496e+00   3.92628800e-01
C     3.124897881412417e+00   2.878002421140625e+00  -7.443239999999918e-02 -9.87446410e-01  -1.18531583e+00  -7.86185550e-01
C     4.472065408896039e+00   2.409873543024826e+00  -1.280300999999966e-01  8.96691500e-02   2.55460145e+00   4.61623230e-01
C     4.798892163261371e+00   1.050254737299918e+00  -8.752679999999913e-02  1.75372551e+00  -7.62838060e-01  -8.50647040e-01
C     6.201962644746319e+00   6.324335747882001e-01  -2.102675999999981e-01 -1.03765984e+00   1.83965158e+00   6.59467080e-01
C     1.096678236434458e+01   6.971218133008118e+00  -2.336846999999977e-01  5.34692830e-01   1.29937420e-01   3.18275080e-01
C     2.106132094666500e+00   1.848315115584872e+00  -1.177083000000003e-01 -7.22357700e-02   1.57950075e+00   1.73666400e-01
C     2.472234901727924e+00   4.812743622118354e-01  -1.329123000000010e-01 -2.14004655e+00  -4.19515770e-01  -3.59407460e-01
C     3.790227095967367e+00   6.087695020847660e-02  -1.420016999999980e-01  1.54533219e+00  -3.57572100e-01   2.39545190e-01
C     4.467669297202592e+00   7.626971572447210e+00  -2.916768000000012e-01  1.42952139e+00  -2.36699167e+00   3.91918250e-01
C     5.864482227088642e+00   7.205353653491894e+00  -2.289899999999996e-01 -6.28530620e-01  -3.11910500e-01  -1.10249930e-01
C     9.890338178567026e-01   1.072795515656574e+00   3.510313500000000e+00 -1.58467840e-01   1.46062722e+00   2.24816990e-01
C     3.425821391536037e+00   4.908888658941093e-01   3.538368000000000e+00 -1.69933454e+00   1.14393667e+00  -2.69268100e-02
C     4.779013924946991e+00   9.154242405791966e-01   3.628003800000000e+00 -5.70627440e-01   7.25980300e-02   8.25620600e-02
C     1.022291748519276e+01   7.617421569289987e+00   3.689099700000000e+00  3.86951340e-01  -2.59407800e-02  -7.32711250e-01
C     7.146988828279998e+00   3.025765042225351e-01   3.673727700000000e+00 -5.66831490e-01   1.08562670e-01   3.54377220e-01
C     1.259915575706178e+01   7.005918107002565e+00   3.670829400000000e+00  6.34571410e-01   5.67861900e-01  -4.11086150e-01
C     5.064955249920483e+00   7.418826069018333e+00   3.558663300000000e+00  6.24038880e-01  -7.73966840e-01   1.47314810e-01
C     6.095059986901509e+00   6.431644686441052e+00   3.540066900000000e+00  1.43922580e-01   3.09979130e-01  -4.82284990e-01
C     7.475087726400593e+00   6.827211474478831e+00   3.491178300000000e+00  8.10543990e-01  -4.67461000e-01   5.38129680e-01
C     8.529592133030716e+00   5.835325479022414e+00   3.535741800000000e+00 -8.29477160e-01   1.53395303e+00  -2.19277450e-01
C     9.892782022093016e+00   6.243328476289463e+00   3.585458400000000e+00 -1.96559210e-01  -3.98141380e-01   5.14124680e-01
C     1.092216894528376e+01   5.254748171226731e+00   3.638347200000000e+00 -2.78852850e-01  -6.28840000e-03  -5.04821330e-01
C     3.395065475898551e+00   5.633531891858294e+00   3.667615200000000e+00 -5.81201530e-01  -9.60197300e-02  -1.39048150e-01
C     4.392828064506826e+00   4.627418989421625e+00   3.619236000000000e+00  3.47032370e-01   1.34194288e+00   2.29015340e-01
C     5.737721811968020e+00   5.060712888864050e+00   3.539324700000000e+00  1.28927156e+00  -4.91380260e-01   1.01970254e+00
C     6.806837037671223e+00   4.098002220401348e+00   3.647751000000000e+00 -1.14808689e+00  -9.31469300e-02  -1.52648834e+00
C     8.150300978966635e+00   4.500542069378304e+00   3.543352500000000e+00  1.65566125e+00  -1.96015362e+00   3.15776990e-01
C     9.205189822353111e+00   3.492786096884032e+00   3.516207900000000e+00 -5.63374120e-01  -7.47958340e-01   1.66542480e-01
C     1.059512608510778e+01   3.879079587477666e+00   3.527280900000000e+00 -1.58328368e+00  -3.46666310e-01   3.42126420e-01
C     2.699267322053165e+00   2.870268823580882e+00   3.562810800000000e+00  9.41046300e-02  -1.50840780e-01   3.16011970e-01
C     4.060408422221437e+00   3.272568219526502e+00   3.691654800000000e+00 -4.83964520e-01  -5.34425550e-01  -9.63773740e-01
C     5.087710428107942e+00   2.316469932455972e+00   3.657596400000000e+00  6.06977450e-01  -8.09997870e-01  -2.48551840e-01
C     6.448649244597119e+00   2.728376519971837e+00   3.577752600000000e+00  6.47911400e-01  -1.53209305e+00   1.38796764e+00
C     7.465510399334431e+00   1.678381555072932e+00   3.656478300000000e+00  6.26350770e-01   1.50259616e+00  -8.49716720e-01
C     8.846434995016104e+00   2.075871197665404e+00   3.559278000000000e+00  1.17305950e-01   9.40103670e-01  -4.29605400e-02
C     2.357508368203829e+00   1.489132396396106e+00   3.511890600000000e+00  6.88781680e-01  -5.60589820e-01   7.82187200e-02
