52
Lattice="8.88768389401873 1.33226762955019e-15 0 4.44384194700937 7.69696003302603 0 0 0 30 " PBC="1 1 1" Properties=species:S:1:pos:R:3:force:R:3 Energy="-416.3031625"
C     1.196502955396542e+01   6.039703320516606e+00  -3.913577999999980e-01  4.10644841e+00   1.57841005e+00   4.34899110e-01
C     8.316211907807611e+00   5.959210513732473e+00  -2.586918000000011e-01 -1.92198013e+00  -1.50086258e+00   1.07239884e+00
C     9.623329398664072e+00   5.530049650917357e+00  -2.096675999999995e-01  2.50605340e+00  -4.94711580e-01  -1.21819894e+00
C     1.000634715681149e+01   4.137426819371012e+00  -3.381587999999986e-01 -2.00635812e+00   9.06484480e-01   1.02191807e+00
C     5.871274371638052e+00   5.307275459194662e+00  -2.593946999999979e-01  1.61623544e+00   6.43964000e-01  -7.44729370e-01
C     7.302694209549315e+00   4.971727487291617e+00  -2.733327000000010e-01 -1.59309335e+00  -2.05960047e+00  -9.46092610e-01
C     7.693883659774631e+00   3.582303512333739e+00  -4.544706000000005e-01 -3.45985424e+00  -6.04876370e-01   1.34412877e+00
C     9.004493788218358e+00   3.169447812676575e+00  -2.588186999999991e-01 -8.34661920e-01  -2.80576300e+00  -1.33063303e+00
C     9.281505296509733e+00   1.713456678899242e+00  -2.769036000000007e-01  8.71578300e-01   1.26596288e+00   1.19383590e-01
C     3.450125521324398e+00   4.705782124335057e+00  -4.158344999999990e-01  5.62268500e-01  -2.84215800e+00  -3.48838560e-01
C     4.864043465454554e+00   4.317274911067194e+00  -4.395921000000023e-01 -4.02538850e-01  -1.02089520e-01   1.00696966e+00
C     5.272684371821977e+00   2.930128081734192e+00  -4.155560999999999e-01 -3.55665000e+00  -2.76306070e-01  -6.23615050e-01
C     6.592871823997055e+00   2.532523985346073e+00  -5.121548999999987e-01  2.25385011e+00   8.63162940e-01   8.22582530e-01
C     6.922613338714005e+00   1.144383401503597e+00  -4.301579999999987e-01 -8.76018040e-01  -5.03283060e-01   5.62081820e-01
C     8.253644698422914e+00   7.178717553612076e-01  -2.807057999999998e-01  5.58261390e-01   1.63399277e+00  -8.43206950e-01
C     2.387890739246860e+00   3.673133567346962e+00  -4.254914999999997e-01  4.54351641e+00   1.67926700e-02   3.19067880e-01
C     2.752175526089419e+00   2.243369440023852e+00  -3.795824999999979e-01  2.74348348e+00   3.44968866e+00  -2.48784700e-02
C     4.179857915159454e+00   1.889647713976372e+00  -3.558057000000012e-01  2.10609330e-01   2.30524734e+00  -1.07581330e-01
C     4.519589986490903e+00   5.485974394758367e-01  -2.575874999999996e-01  6.59173740e-01  -1.10435976e+00  -1.79472850e-01
C     5.931510645816814e+00   9.533346935717579e-02  -3.222363000000001e-01 -2.38289059e+00   5.62454887e+00  -1.26110400e-01
C     1.068468523320130e+01   6.498029042459796e+00  -3.007937999999974e-01 -1.98365478e+00  -3.31824967e+00   2.89497770e-01
C     1.773171548464650e+00   1.301776305038659e+00  -3.064362000000003e-01 -2.35516504e+00   5.72504700e-02   2.05065360e-01
C     6.542670189247017e+00   7.640890908904662e+00  -2.621934000000010e-01  1.81660842e+00   1.32122611e+00   5.40109150e-01
C     7.900523912403919e+00   7.282522528087070e+00  -1.917158999999984e-01  1.73166312e+00   9.76305080e-01  -6.15245790e-01
C     4.135667198819212e+00   7.061610461904434e+00  -3.216572999999983e-01  1.14181519e+00  -1.35957855e+00   3.32636890e-01
C     5.561416738843964e+00   6.721273364501122e+00  -2.346026999999999e-01 -3.95673143e+00  -3.64666953e+00  -4.00772730e-01
C     1.337310909631146e+00   1.587285954938674e+00   3.725445900000000e+00 -1.47167256e+00   3.27104870e+00  -5.28317940e-01
C     3.695384133234489e+00   9.980608046708844e-01   3.669511800000000e+00 -1.61753720e-01   2.02902862e+00  -6.98975680e-01
C     5.057136928276490e+00   1.446542961401308e+00   3.676182000000000e+00 -1.51525285e+00  -2.75234437e+00  -2.63776100e-01
C     6.037348296484793e+00   4.286098374465680e-01   3.572979000000000e+00  2.31087406e+00  -6.09684270e-01   1.52271049e+00
C     7.445999310731788e+00   7.588333602792612e-01   3.733737600000000e+00 -8.23049180e-01   1.94106987e+00  -9.17213900e-02
C     1.293337066648125e+01   7.478263071944397e+00   3.795647100000000e+00 -9.67391170e-01   2.38950944e+00  -9.09281530e-01
C     9.398836366953789e-01   2.485130569718151e-01   3.771364200000000e+00  1.86197424e+00  -2.38915977e+00  -5.97509300e-02
C     6.429594541857099e+00   6.880925787622590e+00   3.738584400000000e+00  6.68594470e-01   5.10031591e+00  -4.20355610e-01
C     7.804060635443947e+00   7.331308477723621e+00   3.630960000000000e+00 -7.30742380e-01  -5.08193510e-01   8.18735070e-01
C     8.830538664138537e+00   6.346774387579058e+00   3.695616000000000e+00 -1.70383572e+00  -1.38214140e-01  -3.71680000e-03
C     1.017572530518532e+01   6.723107165228270e+00   3.669405600000000e+00  8.31525800e-02   1.37063929e+00  -5.29289390e-01
C     1.121463289313855e+01   5.774304133843774e+00   3.710698800000000e+00  1.35732000e-02  -2.95430110e-01  -2.32333280e-01
C     3.682712210193947e+00   6.131258660073455e+00   3.681113400000000e+00  4.00257110e-01   1.10143571e+00   8.53697770e-01
C     4.715021048387461e+00   5.215178792438903e+00   3.757633200000000e+00  4.13302420e-01  -2.19426210e+00   8.10525000e-03
C     6.076607199308725e+00   5.590078627039328e+00   3.773306100000001e+00 -3.72180250e-01  -3.64524540e+00   1.51275940e-01
C     7.058633921354773e+00   4.517947897820546e+00   3.810011100000000e+00  7.18264070e-01   2.27825053e+00   1.47355000e-03
C     8.415528930595102e+00   4.997993517333193e+00   3.793909200000000e+00  1.99027195e+00  -2.33580097e+00  -6.18235340e-01
C     9.524592117883634e+00   4.008085255756484e+00   3.719261700000000e+00 -1.14641455e+00   3.66305720e-01   4.88868420e-01
C     1.092386493701450e+01   4.411834297154154e+00   3.732651900000000e+00 -1.99685989e+00  -1.00988739e+00  -2.32578430e-01
C     3.068245384985452e+00   3.436101142016694e+00   3.730603800000000e+00 -1.88601164e+00  -5.34898190e-01  -4.08326790e-01
C     4.398353759248872e+00   3.820061837964436e+00   3.785928300000000e+00 -2.48685810e-01   4.06104150e-01  -1.36211910e-01
C     5.331588563228122e+00   2.780967153920816e+00   3.802719600000000e+00  2.30798878e+00   1.52233828e+00  -2.00985820e-01
C     6.701902108658130e+00   3.152324616606635e+00   3.831662700000000e+00  6.39191800e-01   4.74725430e-01  -1.20387730e-01
C     7.736094958058094e+00   2.198450212197573e+00   3.815386500000000e+00  2.06062205e+00  -1.15430655e+00  -7.15061900e-01
C     9.140217830754445e+00   2.645745959508972e+00   3.718429500000000e+00  5.87132820e-01  -2.14540919e+00   6.69121700e-01
C     2.711569075870043e+00   2.063307449808435e+00   3.630151200000000e+00 -1.00692326e+00  -2.48030467e+00   1.10564812e+00
