32
Lattice="9.86 0 0 4.93 8.53901048131456 0 0 0 30 " PBC="1 1 1" Properties=species:S:1:pos:R:3:force:R:3 Energy="-256.82250327"
C     9.811543621600000e+00   1.287005978413355e+00   3.501563400000000e+00 -7.35437180e-01  -1.41024109e+00   3.15705130e-01
C     1.190963369600000e+00   1.928186100599158e+00   3.578325300000000e+00  2.54153940e-01   1.42768463e+00  -5.50256100e-01
C     2.399542713800000e+00   1.238757153597163e+00   3.438426900000000e+00  1.63064551e+00  -4.69169350e-01   4.30583640e-01
C     3.633999628000000e+00   1.973603047979763e+00   3.482763300000000e+00 -6.25580330e-01   4.69775760e-01   3.12071940e-01
C     4.851363887100000e+00   1.249588119880100e+00   3.564561900000000e+00  4.56560550e-01   5.23010700e-01  -5.45130000e-01
C     6.084170335900000e+00   1.967218686014182e+00   3.585180300000000e+00  6.05635950e-01  -2.56725640e-01  -6.06457480e-01
C     7.336098627799999e+00   1.211856025761181e+00   3.591111600000000e+00 -1.14380080e-01   6.97874660e-01  -1.94989900e-02
C     8.569862729099999e+00   1.950515698394463e+00   3.529377000000000e+00 -5.51390650e-01   9.54583390e-01   3.29075220e-01
C     1.108471025490000e+01   3.359060828573850e+00   3.697562400000000e+00 -2.59311643e+00  -6.71509590e-01  -2.88814960e-01
C     1.222225367280000e+01   4.115524508838142e+00   3.748168200000000e+00  3.19422164e+00   6.21298330e-01  -2.23124340e-01
C     3.620339041700000e+00   3.417226006260467e+00   3.557531400000000e+00 -9.42510400e-02  -6.87346430e-01   3.88082360e-01
C     4.854727823299999e+00   4.115517421459444e+00   3.515032800000000e+00 -4.80692580e-01   5.52330210e-01   1.04857910e-01
C     6.077360132500000e+00   3.417511379990708e+00   3.459152100000000e+00  4.44397160e-01  -2.18187426e+00   1.03515843e+00
C     7.319613693800000e+00   4.075953026471726e+00   3.540411600000000e+00  7.97191090e-01   8.45784900e-01  -5.53201190e-01
C     8.580403217000001e+00   3.394245394306166e+00   3.556113300000000e+00 -3.60593390e-01  -1.33069074e+00   3.05840000e-02
C     9.845931554800000e+00   4.054504227607434e+00   3.626628300000000e+00 -1.16583775e+00   1.54988805e+00   7.31032400e-02
C     1.224455876760000e+01   5.546056053981643e+00   3.861051900000000e+00  1.06281328e+00   5.10385000e-03  -9.59754720e-01
C     3.683584680600000e+00   6.250503241835653e+00   3.687788700000000e+00 -2.89509021e+00  -1.26899462e+00   2.65297270e-01
C     4.846632960500000e+00   5.548931053420155e+00   3.559561200000000e+00  2.42198158e+00  -1.21786721e+00  -1.75308400e-01
C     6.107641178500000e+00   6.253240592425226e+00   3.468481800000000e+00 -5.94095000e-01  -1.01698309e+00  -4.39512800e-02
C     7.323987984200000e+00   5.491881326672541e+00   3.497949600000000e+00 -2.54460650e-01   8.33075090e-01  -1.91291820e-01
C     8.550732110599998e+00   6.192187606784379e+00   3.502456200000000e+00  1.50545778e+00  -1.55909260e-01   1.44251860e-01
C     9.808964639999999e+00   5.508836385881628e+00   3.601633800000000e+00  4.93460600e-02  -9.52946710e-01   9.29131260e-01
C     1.101697925270000e+01   6.254835167242262e+00   3.812716500000000e+00 -3.08763820e-01  -6.39043620e-01  -1.18848042e+00
C     1.355356566280000e+01   7.626476999659919e+00   3.575845500000000e+00 -1.95648546e+00   2.04686079e+00   7.44685920e-01
C     4.855677242700001e+00   8.408137592048595e+00   3.501753300000000e+00  2.24472537e+00  -1.42562810e+00  -7.36996710e-01
C     6.113415687500000e+00   7.658026679411108e+00   3.393933300000000e+00  4.72936570e-01   1.19681842e+00   6.39261540e-01
C     7.398184878600000e+00   8.351804288280253e+00   3.384897000000000e+00 -1.62764455e+00  -4.79745520e-01   3.13696970e-01
C     8.622457645299999e+00   7.603107179607940e+00   3.481962300000000e+00 -1.86336550e+00   1.43227840e+00  -3.65411530e-01
C     9.808679883200000e+00   8.368000229457669e+00   3.551719500000000e+00 -8.15449800e-02  -2.23342930e-01   1.77508400e-01
C     1.101575173200000e+01   7.667167946300262e+00   3.652282200000000e+00  1.43039832e+00  -6.05372870e-01   7.70373540e-01
C     1.228603249120000e+01   8.307367277742333e+00   3.659367300000000e+00 -2.67735210e-01   1.83702382e+00  -5.55750680e-01
