32
Lattice="9.86 0 0 4.93 8.53901048131456 0 0 0 30 " PBC="1 1 1" Properties=species:S:1:pos:R:3:force:R:3 Energy="-257.5016647"
C     4.965175303499999e+00   8.094451064758458e+00   1.222425000000000e-01 -4.57050570e-01   5.19764960e-01  -3.76152890e-01
C     1.265421208900000e+00   2.726892863438744e-01   6.253920000000000e-02 -5.45640830e-01   5.12047100e-01   1.16351241e+00
C     7.403758095700000e+00   8.106789422561430e+00   1.354512000000000e-01  1.69549470e+00   1.08683250e+00  -7.03079480e-01
C     3.735307430500000e+00   3.103189977271384e-01   1.267995000000000e-01 -1.63832337e+00  -9.36186910e-01  -4.92977990e-01
C     9.860186994899999e+00   8.106296380096314e+00   2.835990000000000e-02  1.68764488e+00   1.75738701e+00   4.94133210e-01
C     6.192337543200000e+00   2.862153351145088e-01   3.530670000000000e-02 -4.17542970e-01   4.99971870e-01   4.61057660e-01
C     1.234151559860000e+01   8.129952256999372e+00   1.086243000000000e-01  6.31394390e-01  -1.03523765e+00  -6.67339990e-01
C     8.661340604599999e+00   2.756221802734400e-01   1.264842000000000e-01 -1.76687210e-01   1.00199429e+00   5.16160500e-02
C     1.271933886800000e+00   1.699995903399394e+00   1.247487000000000e-01  6.07501010e-01   8.23688070e-01  -6.23066300e-01
C     2.512493993100000e+00   2.446352640079348e+00   4.776540000000000e-02 -8.57134750e-01  -4.19836030e-01   7.36344800e-01
C     3.721442939400000e+00   1.731390258549952e+00   9.369570000000001e-02  1.01052524e+00  -7.15481180e-01  -1.12646480e-01
C     4.977112460400000e+00   2.407122632742027e+00   8.214630000000001e-02 -3.62273190e-01   5.72168500e-01  -1.81140010e-01
C     6.221607446200000e+00   1.715003726658622e+00   6.850230000000000e-02 -2.50016430e-01   5.45562400e-02   1.44919830e-01
C     7.457154334100000e+00   2.460571287990015e+00   1.075815000000000e-01 -9.55571430e-01  -1.21436930e+00  -1.66208550e-01
C     8.668992161799999e+00   1.725772614335370e+00   1.322790000000000e-01  6.80733290e-01  -3.99128670e-01   4.35397900e-02
C     9.921738242100000e+00   2.437410929865111e+00   1.407453000000000e-01 -1.11564477e+00  -6.86507940e-01  -1.74214580e-01
C     2.505003992000000e+00   3.873825938619436e+00   5.691540000000000e-02 -4.89097180e-01  -7.91094080e-01  -2.10478670e-01
C     3.731232982699999e+00   4.587390484133256e+00   3.098700000000000e-02 -2.24260680e-01  -1.33997697e+00  -2.51844840e-01
C     4.942345952500000e+00   3.821911572774495e+00   5.480190000000000e-02  9.00423170e-01   1.60314141e+00  -1.24436870e-01
C     6.179333583599999e+00   4.570966295205711e+00   3.217410000000000e-02  1.74375830e-01  -6.77414980e-01   3.09255760e-01
C     7.417234201399999e+00   3.875044796975352e+00   7.303770000000000e-02  2.76128280e-01  -1.48959880e-01  -1.46192780e-01
C     8.648484101299999e+00   4.576879816133425e+00   4.957379999999999e-02  5.95484650e-01   1.99424900e-01   2.10234770e-01
C     9.888610515500000e+00   3.857697882575337e+00   9.747030000000001e-02 -4.65423400e-01  -4.16959680e-01  -1.40756660e-01
C     1.110698660780000e+01   4.541266592075012e+00   5.967090000000001e-02  1.12821873e+00   1.20319552e+00   2.02319020e-01
C     3.719639890500000e+00   5.994147203957713e+00  -3.591090000000108e-02  7.06802430e-01  -8.70927700e-02   1.12678201e+00
C     4.953430120799999e+00   6.680176514717306e+00   8.413950000000001e-02  1.00999647e+00   3.13335840e-01  -4.85331050e-01
C     6.224838321700000e+00   5.986330252203902e+00   6.828690000000001e-02 -2.04219702e+00  -1.92664210e-01  -2.48923290e-01
C     7.431290666700000e+00   6.705113413972573e+00   5.957670000000000e-02  5.53142530e-01  -4.23698160e-01   2.52373100e-01
C     8.674949130100000e+00   6.003347646189494e+00   2.521260000000000e-02 -2.42805590e-01  -3.12465820e-01   2.80755850e-01
C     9.906726244200000e+00   6.718097747918357e+00   4.390170000000000e-02 -1.79287240e-01  -1.82815458e+00   1.88553900e-02
C     1.114583569800000e+01   5.964637835370614e+00   7.547460000000000e-02 -1.28565830e+00   8.38796640e-01  -5.70017320e-01
C     1.235308137860000e+01   6.687755569639144e+00   3.280440000000000e-02  4.67493000e-02   6.38923950e-01   1.79108080e-01
