32
Lattice="9.86 0 0 4.93 8.53901048131456 0 0 0 30 " PBC="1 1 1" Properties=species:S:1:pos:R:3:force:R:3 Energy="-256.60927254"
C     9.776486588799999e+00   1.350719292769246e+00   3.333526500000000e+00  7.18248730e-01  -5.79636480e-01   1.10480345e+00
C     1.102587090210000e+01   2.054415816211959e+00   3.419567100000000e+00  3.21137270e-01   5.51111930e-01  -1.06630140e-01
C     2.419034306900000e+00   1.335648366222570e+00   3.398691000000000e+00 -1.25497815e+00  -4.96365010e-01   3.44239270e-01
C     3.650341394800000e+00   2.004904327916090e+00   3.526123500000000e+00 -1.88695770e-01   1.98475604e+00   1.18876610e-01
C     4.912882990699999e+00   1.360211854549548e+00   3.492576300000000e+00 -1.47093644e+00  -1.53664619e+00   1.39607000e-03
C     6.114640940399999e+00   2.061786433887981e+00   3.397281000000000e+00  7.74578570e-01  -1.35934900e+00   8.45113890e-01
C     7.340546670999998e+00   1.281491997786000e+00   3.481944600000000e+00 -1.90598720e-01   2.98632261e+00  -3.88748290e-01
C     8.538791256200000e+00   2.054387381307061e+00   3.370790700000000e+00  1.32056434e+00  -4.30987010e-01   1.55292830e-01
C     1.104172474680000e+01   3.489661322090944e+00   3.574764900000000e+00 -6.85078000e-02  -7.36125930e-01  -2.31837780e-01
C     2.425065964700000e+00   4.166502999134476e+00   3.680455500000000e+00 -1.06507416e+00   3.36276210e-01   2.30280010e-01
C     3.620333668000000e+00   3.456373355976341e+00   3.682615200000000e+00  1.29399519e+00  -1.48503785e+00  -4.28598020e-01
C     4.861508298800000e+00   4.136666928006413e+00   3.675915600000000e+00  1.13601517e+00   2.41811962e+00  -1.57852730e+00
C     6.087737733200000e+00   3.463735690812197e+00   3.399321600000000e+00  1.41563901e+00   4.89733170e-01   6.70714440e-01
C     7.369003124000001e+00   4.172848423212269e+00   3.347434800000000e+00 -1.59023097e+00   1.21207895e+00  -4.88902080e-01
C     8.607374507499999e+00   3.491398071432471e+00   3.366762900000000e+00 -1.01228762e+00  -5.64015590e-01   3.56892880e-01
C     9.824140856200000e+00   4.223634871162907e+00   3.550217100000000e+00 -7.14120670e-01  -8.96680210e-01  -4.78548050e-01
C     1.227576335050000e+01   5.581039099066632e+00   3.733254300000000e+00 -1.12022024e+00   3.66502970e-01   4.27183070e-01
C     1.347628949040000e+01   6.303670707468534e+00   3.680917200000000e+00  2.13389471e+00  -2.10127260e-01  -1.23791390e-01
C     4.909615682500000e+00   5.622380889085760e+00   3.576915300000000e+00 -1.98725772e+00  -1.39343942e+00   1.42324600e-02
C     6.091106599400000e+00   6.352515384436021e+00   3.306573900000000e+00  6.47534450e-01  -1.65007973e+00   6.43208920e-01
C     7.345906764200000e+00   5.617858543745448e+00   3.252165600000000e+00 -1.11180430e+00  -8.56265140e-01   9.63665690e-01
C     8.547998622799998e+00   6.319707652270813e+00   3.409447500000000e+00  3.76610110e-01   7.52341540e-01   1.75106460e-01
C     9.768887831899999e+00   5.640758035100188e+00   3.625632000000000e+00  9.21938310e-01  -9.34157550e-01  -2.80333360e-01
C     1.101680818170000e+01   6.301901851447602e+00   3.764808900000000e+00  6.09553320e-01   4.55299170e-01  -8.62135450e-01
C     1.349785799390000e+01   7.711478152532555e+00   3.625648500000000e+00  1.29673018e+00   1.16386349e+00   3.59420500e-02
C     4.890989846700000e+00   8.451271549587267e+00   3.455716800000000e+00 -2.43273991e+00   5.00708670e-01  -4.05359840e-01
C     6.091249668000000e+00   7.767583635501290e+00   3.325992600000000e+00 -6.70912540e-01  -1.23348912e+00   8.46834200e-02
C     7.287966446200000e+00   8.439554746357135e+00   3.343580700000000e+00  2.43460383e+00   1.55652280e+00  -1.18324180e-01
C     8.517661374799999e+00   7.737346999391610e+00   3.432242100000000e+00  2.01510785e+00   9.53743170e-01   2.72061400e-02
C     9.812814822100000e+00   8.468595323268881e+00   3.541197600000000e+00 -6.80082420e-01  -1.24383447e+00  -2.53070760e-01
C     1.104449170930000e+01   7.717458875472746e+00   3.646704300000000e+00 -3.87023420e-01   9.70766040e-01   7.70052290e-01
C     1.230015728630000e+01   8.445572784773123e+00   3.700425000000000e+00 -1.47068018e+00  -1.09191040e+00  -1.22408329e+00
