32
Lattice="9.86 0 0 4.93 8.53901048131456 0 0 0 30 " PBC="1 1 1" Properties=species:S:1:pos:R:3:force:R:3 Energy="-256.86382423"
C     4.954254268900000e+00   8.415693250081718e+00  -3.209426999999998e-01  1.33478483e+00   2.04150770e-01   1.19972710e-01
C     1.285079830400000e+00   5.779902491723360e-01  -3.158384999999981e-01 -1.50337300e-02   9.97516460e-01  -1.45013930e-01
C     7.478287814400000e+00   8.403261048553571e+00  -3.201701999999997e-01 -2.64296132e+00   7.65222650e-01   5.26048150e-01
C     3.725579209400000e+00   5.981059377204911e-01  -2.982374999999990e-01  1.30760863e+00   5.00774600e-01  -1.19851935e+00
C     9.896388330000001e+00   8.427578784158934e+00  -3.938039999999994e-01 -4.97594700e-01  -1.18350698e+00   1.23140400e-02
C     6.180971477500000e+00   5.748027219502568e-01  -4.205529000000006e-01  8.14592590e-01   1.52462691e+00   1.11835701e+00
C     1.236966890590000e+01   8.400072496650234e+00  -3.425133000000002e-01 -8.88849450e-01   1.56772514e+00  -1.03983580e+00
C     8.670917474700000e+00   5.886465073008520e-01  -3.000642000000013e-01 -4.17633820e-01   2.06895460e-01  -3.78940750e-01
C     1.283410532400000e+00   2.037769783792142e+00  -3.898256999999994e-01 -1.47800960e+00  -1.15185715e+00  -3.49003120e-01
C     2.490604398699999e+00   2.734665326947955e+00  -5.516369999999995e-01 -1.48945850e-01   6.58045990e-01   6.51646040e-01
C     3.710057203000000e+00   2.029455520067976e+00  -4.505021999999990e-01 -3.98751690e-01  -3.80652880e-01   2.77085160e-01
C     4.909860161199999e+00   2.756417516854602e+00  -4.239831000000009e-01  1.77812234e+00  -1.93087600e-02   3.13679490e-01
C     6.138306961700000e+00   2.035945253422881e+00  -3.190347000000031e-01  1.42077826e+00  -7.32008020e-01  -7.45616810e-01
C     7.401259275899999e+00   2.742841258702345e+00  -3.104454000000025e-01  2.19310880e-01  -1.96638690e-01   1.53618830e-01
C     8.676090967400000e+00   2.015496458075900e+00  -3.484064999999994e-01 -1.82218680e+00   6.52168070e-01   6.08506800e-01
C     9.868217077499999e+00   2.759425212515972e+00  -3.868149000000010e-01  2.05117336e+00  -8.47747450e-01  -5.00174850e-01
C     2.488651280600000e+00   4.182776730697364e+00  -6.161571000000023e-01  8.71049070e-01  -2.07331150e+00  -1.07570860e-01
C     3.695459029300000e+00   4.858844261050780e+00  -5.536643999999988e-01  2.05882031e+00   1.53834689e+00  -1.39835900e-02
C     4.964937923999999e+00   4.184589050281640e+00  -4.333361999999994e-01 -8.47199900e-01  -1.37196380e-01  -3.01521390e-01
C     6.199043378499999e+00   4.907922053004370e+00  -3.527850000000008e-01 -1.37948010e-01  -6.11529100e-01   1.02630045e+00
C     7.427595237299999e+00   4.180574776064887e+00  -2.586981000000002e-01  8.45994420e-01  -5.93590740e-01  -8.60826870e-01
C     8.717205441899999e+00   4.873708970494364e+00  -3.469769999999990e-01 -2.46494767e+00   4.00096030e-01  -6.51251400e-02
C     9.924419718399999e+00   4.176307064017088e+00  -5.074740000000020e-01 -3.67083800e-01  -3.36750750e-01   4.98624210e-01
C     1.116831718820000e+01   4.890076118831904e+00  -6.308496000000012e-01 -2.50986662e+00  -1.24968174e+00   4.84789820e-01
C     3.708173351399999e+00   6.296518432290486e+00  -5.472554999999986e-01  1.05070941e+00  -2.39214940e-01   6.00731470e-01
C     4.977710370799999e+00   6.995193078279806e+00  -3.640308000000019e-01 -2.07639808e+00   5.34598730e-01   9.39806000e-03
C     6.193134083299999e+00   6.335147634850434e+00  -2.229941999999987e-01 -1.52742280e-01  -1.93843525e+00  -1.28262086e+00
C     7.421345180499999e+00   6.992230297813561e+00  -2.676630000000024e-01  5.43178930e-01   1.05742763e+00   1.51167360e-01
C     8.631139818999999e+00   6.308087425249210e+00  -3.471617999999985e-01  1.73220622e+00  -1.68516454e+00  -1.45252560e-01
C     9.876121198600000e+00   6.973901909548974e+00  -4.569416999999980e-01 -2.65082090e-01   1.52352161e+00   3.49474090e-01
C     1.109261822140000e+01   6.260600792508462e+00  -5.510730000000024e-01  1.50577547e+00   2.56074885e+00  -4.01645910e-01
C     1.234815818200000e+01   7.018894980449351e+00  -5.497040999999996e-01 -4.02869290e-01  -1.31527091e+00   6.33938120e-01
