32
Lattice="9.86 0 0 4.93 8.53901048131456 0 0 0 30 " PBC="1 1 1" Properties=species:S:1:pos:R:3:force:R:3 Energy="-257.19157373"
C     9.689037460000000e+00   1.823159687299350e+00   3.589239600000000e+00  1.01942012e+00   5.37220600e-02   1.23684360e-01
C     1.094804883080000e+01   2.568500367122290e+00   3.554488500000000e+00 -1.18174958e+00  -1.01950950e-01   9.29657080e-01
C     2.305772191100000e+00   1.858225219225575e+00   3.675795900000000e+00  3.26640670e-01   3.19132550e-01  -6.33120710e-01
C     3.583546846100000e+00   2.553359079129259e+00   3.757778700000000e+00 -1.05446250e+00  -1.64457224e+00   2.27420830e-01
C     4.810663926999999e+00   1.853382148651634e+00   3.794232600000000e+00 -5.37815890e-01  -1.57185784e+00  -3.12270000e-04
C     6.039021839599999e+00   2.540958301159678e+00   3.820897800000000e+00 -1.47911446e+00   1.53715330e+00   1.08476400e-02
C     7.236436952300000e+00   1.865434534993630e+00   3.795714300000000e+00  8.70233100e-01  -1.52317963e+00  -7.40110800e-02
C     8.454815361700000e+00   2.529396566359863e+00   3.673242900000000e+00  1.58044577e+00   9.47950160e-01   2.22298310e-01
C     1.094100381150000e+01   3.997275523200159e+00   3.683785800000000e+00  6.09607500e-02  -8.59196710e-01   2.45262470e-01
C     1.219034996660000e+01   4.660282295463996e+00   3.798710700000000e+00 -5.53975230e-01   3.93521550e-01   6.87220600e-02
C     3.579967370300000e+00   3.927078708967014e+00   3.846894900000000e+00 -1.60429483e+00   2.39261709e+00  -5.55186790e-01
C     4.762003594499999e+00   4.674754125035395e+00   3.826560300000000e+00  2.03757795e+00   2.73987260e-01   8.01522900e-02
C     6.013867303400000e+00   3.961362238313480e+00   3.809722200000000e+00  4.21507180e-01   1.32151091e+00  -3.40436430e-01
C     7.265546778199999e+00   4.706464679744028e+00   3.730986300000000e+00 -4.53232590e-01  -1.90734729e+00   3.61898670e-01
C     8.491166864599998e+00   3.955201513032369e+00   3.725949300000000e+00 -8.57651260e-01   7.21396340e-01  -1.02134010e-01
C     9.694044614500001e+00   4.694381552964303e+00   3.780807900000000e+00  8.69444690e-01  -2.96510860e-01  -6.09688060e-01
C     1.214108639930000e+01   6.090334716729463e+00   3.850335900000000e+00  2.40960890e+00  -6.82075000e-03  -1.27792570e-01
C     1.341605085570000e+01   6.794999307790293e+00   3.804079800000000e+00 -9.38031110e-01   1.41902814e+00   3.30615210e-01
C     4.793699944899999e+00   6.119904797681074e+00   3.780319500000000e+00  6.45062400e-02  -1.20919563e+00  -3.22324010e-01
C     6.052020129700000e+00   6.807132558561535e+00   3.657731700000000e+00 -1.12588039e+00  -6.70513200e-02   2.60199460e-01
C     7.285264313200000e+00   6.106852322431661e+00   3.696569100000000e+00 -6.05455120e-01   5.08293030e-01   6.86244700e-02
C     8.489717099500000e+00   6.850021958840061e+00   3.748203300000000e+00 -5.30009030e-01   2.34698850e-01   1.10160460e-01
C     9.702687150999999e+00   6.112993749549087e+00   3.829146300000000e+00  2.04615280e-01   9.14427940e-01  -2.30246880e-01
C     1.094477161330000e+01   6.829433379891523e+00   3.850402500000000e+00 -4.44859730e-01  -4.74862940e-01   3.14519350e-01
C     1.342376847490000e+01   8.254637436396552e+00   3.796528200000000e+00 -1.54197958e+00  -1.15976321e+00  -1.15217790e-01
C     9.708651464999999e+00   3.792210418012016e-01   3.648966300000000e+00  1.32657210e-01   1.43991704e+00  -2.29069290e-01
C     6.008633270300000e+00   8.217735248706182e+00   3.583779300000000e+00 -3.48646440e-01   4.17945200e-01   4.43150810e-01
C     2.252662237800000e+00   4.475179262025472e-01   3.636029700000000e+00  1.80257876e+00  -3.46067520e-01   1.31155650e-01
C     8.420362796199999e+00   8.297439653378076e+00   3.742226100000000e+00  1.86176432e+00  -1.52014573e+00  -2.56006870e-01
C     4.776029148700000e+00   4.038466087343688e-01   3.783275100000000e+00 -3.95521230e-01   1.41061717e+00   4.75117160e-01
C     1.095103557270000e+01   8.251826906487164e+00   3.890306400000000e+00 -2.80526530e-01   1.13568900e-01  -5.68867920e-01
C     7.248082746200001e+00   4.587229865346128e-01   3.863127600000000e+00  2.71244530e-01  -1.73096489e+00  -2.39071580e-01
