32
Lattice="9.86 0 0 4.93 8.53901048131456 0 0 0 30 " PBC="1 1 1" Properties=species:S:1:pos:R:3:force:R:3 Energy="-256.52046364"
C     5.146197409899999e+00   6.599340520376604e+00  -1.924413000000023e-01  1.16225681e+00   7.92581880e-01  -4.14795260e-01
C     6.385703285000000e+00   7.327117565713546e+00  -1.930206000000005e-01 -8.64650000e-02   1.90865600e+00   3.04210290e-01
C     7.649394507599999e+00   6.652248485480998e+00  -1.452855000000000e-01 -9.00874090e-01   9.10406440e-01  -4.92083100e-01
C     8.891206340900000e+00   7.359831795713998e+00  -2.239190999999998e-01 -9.86949960e-01  -5.58335130e-01   5.48783860e-01
C     1.009730594440000e+01   6.669294741322013e+00  -2.692250999999999e-01  2.03175694e+00  -1.43486741e+00  -3.98743000e-01
C     1.139374691050000e+01   7.368214542302213e+00  -3.063603000000015e-01 -2.64264872e+00   3.53775900e-02  -6.97541850e-01
C     1.259650052300000e+01   6.641301132485219e+00  -4.723073999999983e-01 -1.23891990e+00   1.42077660e-01   9.55496750e-01
C     1.380820129670000e+01   7.362708076004081e+00  -3.238802999999990e-01  7.42619650e-01  -6.66490680e-01   3.61076100e-02
C     1.439742262100000e+00   2.895249701864520e-01  -2.385887999999987e-01  1.85728276e+00  -2.65448732e+00  -7.51414060e-01
C     2.726462155600000e+00   9.494021951093680e-01  -2.571021000000009e-01 -1.69278416e+00  -1.17317782e+00   5.98767470e-01
C     3.934402374600000e+00   2.000500589431344e-01  -1.873235999999991e-01  6.70598710e-01   2.87408943e+00  -2.78942490e-01
C     5.164537847999999e+00   9.703852763420816e-01  -1.775912999999996e-01  4.34982170e-01  -1.99230024e+00  -8.55056300e-02
C     6.395131071900000e+00   2.615870356979880e-01  -2.626379999999990e-01  1.70758333e+00  -6.04010070e-01  -5.86551000e-03
C     7.664113269100000e+00   9.492197164554104e-01  -3.166443000000001e-01 -9.16668920e-01   1.45363834e+00   7.91451490e-01
C     8.906917955100001e+00   2.566429486300680e-01  -2.814477000000011e-01 -1.33183573e+00   3.43410800e-02  -9.81704110e-01
C     1.010912571800000e+01   1.011700253868304e+00  -3.734324999999998e-01  2.99109830e-01  -1.23074319e+00   1.19253551e+00
C     2.713116596300000e+00   2.349698384994761e+00  -2.582862000000006e-01  7.19652370e-01   3.56579780e-01  -3.41309880e-01
C     3.948689268100000e+00   3.013106063800633e+00  -1.637525999999987e-01  6.80855900e-02   2.94251007e+00  -7.60562550e-01
C     5.201738395500000e+00   2.360445925145308e+00  -1.335255000000011e-01 -7.25105110e-01   6.96655770e-01   2.84541420e-01
C     6.419680746399999e+00   3.108543766062134e+00  -9.939779999999843e-02  8.30796600e-02  -1.09175156e+00  -5.76432070e-01
C     7.642264149999999e+00   2.419228046339104e+00  -2.109257999999983e-01  9.55887120e-01  -2.00205174e+00   6.88867900e-02
C     8.869762714299998e+00   3.123710500306396e+00  -1.991960999999982e-01  1.25333706e+00  -7.48137790e-01  -6.67340950e-01
C     1.016999558990000e+01   2.411332108738353e+00  -3.494634000000012e-01 -3.59411441e+00   4.25992720e-01   2.98401020e-01
C     1.136900467020000e+01   3.094171415962828e+00  -3.781353000000003e-01  1.20015140e-01  -1.79349730e-01   2.70287290e-01
C     3.939668945700000e+00   4.470370859834079e+00  -2.852813999999988e-01 -1.59658056e+00  -4.43784580e-01  -1.07998900e-02
C     5.171600812499999e+00   5.165711193011169e+00  -1.520384999999997e-01 -8.28918010e-01   1.08095078e+00  -5.81229630e-01
C     6.428808986500000e+00   4.502055029000329e+00  -1.189785000000008e-01 -7.95214850e-01   1.07327445e+00   3.95147120e-01
C     7.634067877100000e+00   5.265216965255447e+00  -1.344659999999998e-01  4.02601700e-02  -1.79321666e+00   3.81539480e-01
C     8.855582210199998e+00   4.533656967495656e+00  -1.519325999999985e-01 -2.87438530e-01  -1.08786950e-01  -6.05989660e-01
C     1.005582901630000e+01   5.216801458954685e+00  -3.274110000000015e-01  1.73356390e+00   1.21950106e+00   3.17549360e-01
C     1.130700148990000e+01   4.500920023727327e+00  -4.373870999999987e-01 -1.06690064e+00   5.49548020e-01   1.84026880e-01
C     1.248337339060000e+01   5.208917646748816e+00  -4.976433000000000e-01  4.81134737e+00   1.85309800e-01   1.02252728e+00
