32
Lattice="9.86 0 0 4.93 8.53901048131456 0 0 0 30 " PBC="1 1 1" Properties=species:S:1:pos:R:3:force:R:3 Energy="-257.15689754"
C     9.635250666999999e+00   1.910864205499850e+00   3.908450400000000e+00  4.04021860e-01  -1.06011850e+00  -1.05967495e+00
C     1.086642109530000e+01   2.597646827763988e+00   3.804824700000000e+00  2.73132040e-01  -1.24627690e-01  -4.25773900e-02
C     2.258494723600000e+00   1.905980233065709e+00   3.733600500000000e+00 -1.15488943e+00  -1.32365849e+00   1.35886850e-01
C     3.475794153200000e+00   2.574142603687054e+00   3.640045800000000e+00  6.21326990e-01   9.07789940e-01  -2.19517080e-01
C     4.709172284799999e+00   1.842439748281933e+00   3.575973000000000e+00 -1.48083220e-01   1.75633407e+00   9.32655340e-01
C     5.901724839900000e+00   2.648690299930074e+00   3.648875400000000e+00  1.20254893e+00  -3.04658649e+00  -2.02476840e-01
C     7.168073529699999e+00   1.874932988691162e+00   3.685760400000000e+00 -7.60347910e-01   1.42385979e+00   6.67200200e-02
C     8.413608203199999e+00   2.619961055340429e+00   3.808751700000000e+00 -1.01715420e+00  -2.55657146e+00  -6.60164700e-02
C     1.083841095520000e+01   3.993895697462071e+00   3.681630900000000e+00  1.74432205e+00   1.89886586e+00   2.06216210e-01
C     1.209767774930000e+01   4.728364252971559e+00   3.627318000000000e+00 -5.13132180e-01   1.94737230e-01  -3.72246600e-02
C     3.460122669200000e+00   4.023619992942950e+00   3.621605100000000e+00  7.06390600e-02  -2.69285580e-01  -8.10144500e-02
C     4.663963691799999e+00   4.779806240756747e+00   3.617250900000000e+00  7.66542990e-01  -1.65653811e+00   5.79214360e-01
C     5.889732220499999e+00   4.049176995139276e+00   3.707228700000000e+00  7.28671470e-01  -3.09035900e-02  -6.04606540e-01
C     7.164105076899999e+00   4.697289769153581e+00   3.724069800000000e+00 -4.00684830e-01   7.40424000e-01   7.97295020e-01
C     8.402730059600000e+00   3.988910964704266e+00   3.765677699999999e+00  2.23325170e-01   2.70356321e+00  -2.76611970e-01
C     9.651176539000000e+00   4.748219928650599e+00   3.694282200000000e+00 -1.68173234e+00  -1.19042689e+00   5.07298980e-01
C     1.212791738330000e+01   6.182443827315756e+00   3.599578500000000e+00 -1.54576988e+00  -1.70551484e+00  -2.83966490e-01
C     1.333379375640000e+01   6.888134380485758e+00   3.605538000000000e+00  5.12123050e-01   6.52644890e-01   5.81662000e-02
C     4.707793363800000e+00   6.172674943156322e+00   3.660327900000000e+00 -1.34193395e+00   1.24196990e-01  -2.05276000e-01
C     5.926213530300000e+00   6.829396491366249e+00   3.738418200000000e+00  9.56553800e-01   2.13821897e+00   5.99889580e-01
C     7.155402443700000e+00   6.120667672877357e+00   3.832134300000000e+00  5.54080070e-01   3.84908410e-01  -1.35952823e+00
C     8.385256561999999e+00   6.861262626845827e+00   3.737411100000000e+00 -3.98566900e-02  -1.37021330e-01   5.72309740e-01
C     9.630402159899999e+00   6.164606517543874e+00   3.695691300000000e+00  3.38775100e-02  -4.05862890e-01  -5.11997300e-01
C     1.086419209440000e+01   6.854570433552442e+00   3.578579100000000e+00  3.58265690e-01   4.01072500e-01   4.37461920e-01
C     1.331304309060000e+01   8.317180991706786e+00   3.634402500000000e+00  1.62945366e+00  -7.48391120e-01   3.64316700e-01
C     9.645920961800000e+00   4.839169953954336e-01   3.794112900000000e+00 -1.20760794e+00  -1.90805460e-01   4.01214000e-03
C     5.931713142500000e+00   8.297245903230284e+00   3.795842100000000e+00  4.13882740e-01  -9.34372810e-01  -3.45095780e-01
C     2.246105584300000e+00   4.619656757643928e-01   3.753463500000000e+00 -6.28122230e-01   5.89163230e-01   3.57006820e-01
C     8.387250204699999e+00   8.288437743139955e+00   3.733309200000000e+00  8.21429510e-01  -5.98308930e-01  -1.23649700e-01
C     4.723751132899999e+00   4.309425967895048e-01   3.677161200000000e+00 -1.42947085e+00   5.79844580e-01  -8.07365520e-01
C     1.085339771150000e+01   8.269898526706616e+00   3.572867100000000e+00  7.57341530e-01  -3.98333740e-01   2.74882790e-01
C     7.155220280200000e+00   4.378543280423312e-01   3.590223000000000e+00 -2.02752470e-01   1.88170426e+00   3.33266710e-01
