32
Lattice="9.86 0 0 4.93 8.53901048131456 0 0 0 30 " PBC="1 1 1" Properties=species:S:1:pos:R:3:force:R:3 Energy="-256.55717791"
C     5.004972087600000e+00   7.908998871181408e+00   9.147840000000000e-02 -1.48420615e+00   1.87834800e-02  -5.55044480e-01
C     1.281167185200000e+00   5.522536715856160e-02   5.658150000000000e-02  1.17243721e+00   2.29942348e+00  -3.16334350e-01
C     7.489009874200001e+00   7.913221070303349e+00   1.379826000000000e-01 -2.32009478e+00   1.81061977e+00  -5.85632880e-01
C     3.737092534199999e+00   1.258738950460992e-01   3.146460000000000e-02  9.48324040e-01  -8.20254460e-01   8.69593210e-01
C     9.889505557000000e+00   7.931686168125720e+00   9.023790000000000e-02  9.98602920e-01  -4.03127170e-01  -9.42480060e-01
C     6.206254045800000e+00   9.045100553128640e-02   4.759860000000000e-02 -5.56029430e-01   1.40550073e+00  -3.27302710e-01
C     1.237151312030000e+01   7.958831597051535e+00  -6.280950000000018e-02  1.64097180e-01   3.81488220e-01   1.14192077e+00
C     8.695106223900000e+00   1.398781284036136e-01   4.341300000000000e-02 -8.44535100e-02  -2.15513556e+00  -2.37678090e-01
C     1.254254216600000e+00   1.530263088824870e+00  -1.468641000000019e-01  8.14114990e-01  -1.00999616e+00   2.36790950e-01
C     2.482346698000000e+00   2.258516354776281e+00  -1.929096000000001e-01  3.55591080e-01  -8.74806300e-01   7.49878740e-01
C     3.727576105900000e+00   1.543181843170167e+00  -2.743800000001073e-03 -1.99087219e+00  -1.18617500e-02  -9.21096930e-01
C     4.894852501700000e+00   2.259074379111150e+00   2.727180000000000e-02  4.27687943e+00  -3.66151790e-01   1.28184320e-01
C     6.203089922499999e+00   1.527113304029113e+00   6.295770000000001e-02 -1.51787366e+00   3.75707110e-01   2.33273480e-01
C     7.422762654100000e+00   2.234549999452170e+00   7.559430000000000e-02  5.43972290e-01   1.82185874e+00   1.23342770e-01
C     8.682201406599999e+00   1.530827858978018e+00   6.325560000000000e-02 -5.44910730e-01   1.37500141e+00  -1.13107159e+00
C     9.901325281299998e+00   2.265275579301935e+00  -1.744031999999969e-01 -3.36139790e-01  -1.08172686e+00   1.54688182e+00
C     2.510696219300000e+00   3.684152741381913e+00  -2.064075000000010e-01  1.70820855e+00  -1.32125289e+00   1.28071890e-01
C     3.763074570900000e+00   4.371836143861586e+00  -1.156199999999998e-01 -1.19949186e+00   1.42834221e+00   4.29483980e-01
C     4.975136072700000e+00   3.671868691685594e+00   9.681599999999999e-03 -1.80610900e-01   3.67689540e-01   4.61613900e-01
C     6.201188766600000e+00   4.406722527347941e+00   2.038728000000000e-01  6.76238400e-02  -9.29331590e-01  -1.21130128e+00
C     7.438370294599999e+00   3.747942138321181e+00   1.111197000000000e-01 -6.39577500e-02  -3.89617422e+00   1.62211920e-01
C     8.674950757000000e+00   4.397764251453372e+00   3.463500000000000e-02  6.14478010e-01   1.40321040e-01   2.07364550e-01
C     9.920527236900000e+00   3.665281869781532e+00  -8.611709999999917e-02  1.15320900e-01   1.07822704e+00  -4.82674600e-01
C     1.119411050450000e+01   4.377461814746020e+00  -1.378053000000001e-01 -3.51208003e+00   1.89181310e-01  -2.68520630e-01
C     3.707913639000000e+00   5.816446040973569e+00  -1.467840000000109e-02  4.41073910e-01  -5.60894720e-01  -5.64501500e-01
C     4.983782898299999e+00   6.467306753950442e+00   4.913310000000000e-02 -1.29858145e+00   1.87353534e+00   7.07330780e-01
C     6.211516081300000e+00   5.802250875341721e+00   1.683516000000000e-01  2.66283200e-02   5.12774610e-01   8.02820000e-02
C     7.451950620499999e+00   6.532941174884123e+00   1.939395000000000e-01 -4.47773600e-02  -1.53314676e+00  -1.79776450e-01
C     8.665125513500000e+00   5.818844051286667e+00   1.011087000000000e-01  7.57360900e-01  -7.68531420e-01  -2.57297050e-01
C     9.915553803600000e+00   6.480514297630173e+00  -1.294710000000165e-02 -2.00960114e+00   1.87736805e+00   6.81872690e-01
C     1.110455744890000e+01   5.784035287405575e+00  -1.188020999999999e-01  1.93329269e+00   9.69364050e-01   4.27953590e-01
C     1.230785479110000e+01   6.562266357015169e+00  -6.578820000000007e-02  2.20567446e+00  -2.19279447e+00  -3.35338780e-01
