32
Lattice="9.86 0 0 4.93 8.53901048131456 0 0 0 30 " PBC="1 1 1" Properties=species:S:1:pos:R:3:force:R:3 Energy="-256.66077295"
C     9.833750214999998e+00   5.309184415607072e-01   3.349944900000000e+00 -4.03488470e-01  -7.73570570e-01   2.96941630e-01
C     1.197637652900000e+00   1.241966028345442e+00   3.355049100000000e+00  3.25383440e-01  -1.55418869e+00  -3.53379470e-01
C     2.416776810600000e+00   5.140234969853984e-01   3.421749600000000e+00  1.19127261e+00  -8.58799790e-01   5.43159710e-01
C     3.684573687900000e+00   1.166645124703458e+00   3.393422700000000e+00 -1.01269065e+00   2.04995218e+00  -2.09228010e-01
C     4.908663798100000e+00   4.556527853165288e-01   3.396724800000000e+00 -5.65093950e-01   2.11544849e+00   1.73605830e-01
C     6.126792848099999e+00   1.214180088243522e+00   3.376734300000000e+00 -3.81047040e-01   2.65484180e-01   5.76630800e-02
C     7.333870317099999e+00   4.878158221904968e-01   3.314956200000000e+00  1.56920619e+00  -7.39631100e-02  -1.58141850e-01
C     8.597727582099999e+00   1.210524708637244e+00   3.288545100000000e+00 -1.17059729e+00  -3.69047260e-01   2.05996160e-01
C     1.106086034460000e+01   2.608327165902057e+00   3.154927200000000e+00  3.75817400e-02   1.76232316e+00  -2.36044250e-01
C     2.437315782200000e+00   3.321623842657120e+00   3.053385900000000e+00 -1.92182300e-02   8.72648500e-01   5.17733050e-01
C     3.657144992000000e+00   2.630885865348541e+00   3.292730400000000e+00  4.35533850e-01  -2.76024330e-01  -2.15512300e-02
C     4.868248791999999e+00   3.406748896571821e+00   3.439121400000000e+00  3.80717260e-01  -2.87438727e+00  -9.89443160e-01
C     6.118711049800000e+00   2.683390874548384e+00   3.437801400000000e+00 -1.59258021e+00  -2.50487895e+00   1.27344210e-01
C     7.323239906000000e+00   3.332184890818784e+00   3.412286400000000e+00  2.34153761e+00   2.52584670e-01  -7.85633330e-01
C     8.586482449300000e+00   2.616355628945458e+00   3.280920300000000e+00 -4.96746700e-01   5.09151350e-01   2.24113420e-01
C     9.824137848900000e+00   3.315097049996732e+00   3.175491600000000e+00 -4.95050070e-01   7.74979680e-01  -2.44322300e-02
C     1.230251846050000e+01   4.783722657913399e+00   2.954242800000000e+00 -1.20306846e+00  -3.38505380e-01   1.18742416e+00
C     3.646372794099999e+00   5.483849618805158e+00   3.178984800000000e+00  1.42996390e+00   2.74732150e-01   3.31533700e-01
C     4.893521204499999e+00   4.775245469869274e+00   3.357221100000000e+00  6.16763200e-02   1.85100800e+00   4.99499660e-01
C     6.167092640100000e+00   5.466238080470367e+00   3.537625800000000e+00 -2.19241122e+00   1.51596908e+00  -7.78603620e-01
C     7.353524501599999e+00   4.742282583883644e+00   3.405342600000000e+00  5.75180630e-01   6.08326290e-01   1.36553337e+00
C     8.601463043099999e+00   5.435151471257507e+00   3.441695100000000e+00 -7.02494740e-01   1.26594954e+00  -6.79553980e-01
C     9.786808579099999e+00   4.750725018155116e+00   3.192127200000000e+00  2.37035766e+00   2.52337450e-01  -1.07208090e-01
C     1.103942080990000e+01   5.533336770921160e+00   3.058909200000000e+00 -1.85013530e-01  -2.96962909e+00   2.82443760e-01
C     1.353652787860000e+01   6.909024728064659e+00   3.322436100000000e+00 -2.05251640e-01  -3.62653680e-01  -7.62724740e-01
C     4.893187147700000e+00   7.653142536196758e+00   3.436727100000000e+00  8.58588890e-01  -1.01201843e+00   2.84106120e-01
C     6.144955017399999e+00   6.937814855799027e+00   3.588600900000000e+00 -8.78201540e-01  -1.57593092e+00  -5.61360670e-01
C     7.367710724500000e+00   7.619173840166689e+00   3.584786100000000e+00  3.15470580e-01   4.01579810e-01  -5.87122690e-01
C     8.611716555699999e+00   6.882261334467719e+00   3.506658900000000e+00 -1.65440412e+00  -3.23302900e-01  -6.37561200e-02
C     9.786139380900000e+00   7.612322138157537e+00   3.377383800000000e+00  2.35196007e+00  -1.13758291e+00  -1.97803100e-02
C     1.104431511670000e+01   6.913911859932678e+00   3.228541200000000e+00 -9.15824700e-02  -1.66927280e-01  -2.72121630e-01
C     1.230329035060000e+01   7.572968485948465e+00   3.238144500000000e+00 -9.95490410e-01   2.39893602e+00   5.12987510e-01
