32
Lattice="9.86 0 0 4.93 8.53901048131456 0 0 0 30 " PBC="1 1 1" Properties=species:S:1:pos:R:3:force:R:3 Energy="-256.76908566"
C     4.986844231100000e+00   6.913105606563156e+00   6.617700000000000e-02  1.36440205e+00  -2.87567340e-01   1.12067880e-01
C     6.258121392600000e+00   7.623913247153403e+00   1.030479000000000e-01 -1.77086184e+00   8.86602410e-01  -4.63553820e-01
C     7.488288516599999e+00   6.924082077584672e+00   1.311033000000000e-01 -1.80138096e+00   4.07134000e-03   7.56698300e-01
C     8.694550464999999e+00   7.643875404293128e+00   1.924611000000000e-01  8.07192760e-01  -5.90223730e-01  -1.12758440e+00
C     9.900190395299999e+00   6.918843821605717e+00   2.614530000000000e-02  1.34154241e+00  -1.44937180e+00   2.24948670e-01
C     1.114989693340000e+01   7.592140784618790e+00  -5.457150000000155e-02 -1.51072600e-02   1.66652370e+00   6.43710030e-01
C     1.241605049380000e+01   6.910217286268296e+00  -8.039940000000101e-02 -1.24059444e+00   9.29048560e-01  -1.48429710e-01
C     1.363556378920000e+01   7.652420733640883e+00  -1.651800000001202e-03  6.35901200e-02  -9.31800940e-01  -2.83521620e-01
C     1.292103700000000e+00   5.300068168018623e-01  -8.501999999985799e-04 -1.81988470e-01  -1.04164314e+00   5.67532430e-01
C     2.540186838400000e+00   1.200555670072158e+00   2.626980000000000e-02 -9.73898280e-01   1.40335430e+00   3.17835060e-01
C     3.762849664300000e+00   5.095047380294873e-01   1.570170000000000e-01  6.91192610e-01   1.34274499e+00  -2.14868520e-01
C     5.011290770000000e+00   1.278661486592090e+00   1.684224000000000e-01 -3.57079850e-01  -3.88786525e+00  -1.64562990e-01
C     6.216816915900000e+00   5.072091104520440e-01   6.530909999999999e-02  5.86357050e-01   4.07924600e-02  -2.73977860e-01
C     7.454795033300000e+00   1.233471079159519e+00   1.158990000000000e-02 -4.35698000e-03   4.98230630e-01   5.77751300e-01
C     8.707665694699999e+00   5.357097657311399e-01  -5.218800000001522e-03 -1.90334810e+00  -4.88693600e-01  -1.74046400e-02
C     9.885806282199999e+00   1.250504953435338e+00   6.278100000000000e-03  2.61395780e+00  -2.09655330e-01  -4.62252170e-01
C     2.521342307799999e+00   2.653254315641529e+00  -2.345400000002940e-03  1.17501535e+00  -1.31285912e+00   3.09006230e-01
C     3.767884771900000e+00   3.306838802181314e+00   8.657220000000000e-02  1.74165940e-01   2.50924124e+00  -2.27054890e-01
C     5.037522757700000e+00   2.644968316042052e+00   2.109762000000000e-01 -1.92907378e+00   8.41831340e-01  -3.37316700e-01
C     6.243006949300000e+00   3.353199310219959e+00   2.464194000000000e-01 -3.03659090e-01  -5.45181000e-03   5.63493600e-02
C     7.456301000400000e+00   2.686717331470973e+00   1.278171000000000e-01  1.47576650e+00  -1.55960318e+00  -1.30660030e-01
C     8.706315811400000e+00   3.413085696249029e+00   8.780819999999999e-02 -8.99441430e-01  -1.57443334e+00  -6.86793400e-02
C     9.916405017400001e+00   2.657478051785357e+00  -2.989979999999903e-02  3.44527580e-01   1.50393491e+00   6.77772750e-01
C     1.118029196100000e+01   3.390243160094190e+00  -1.186739999999986e-02 -1.32295926e+00  -2.68020866e+00  -3.81923380e-01
C     3.757495881500000e+00   4.772343743327960e+00  -1.981530000000120e-02 -6.05642520e-01  -8.56176830e-01   4.10769240e-01
C     4.991685343200000e+00   5.457933295047834e+00   1.082052000000000e-01 -9.97121190e-01   1.18873992e+00   2.75920620e-01
C     6.189270442300000e+00   4.736981993128185e+00   3.078993000000000e-01  1.49977998e+00   2.78474001e+00  -1.20621516e+00
C     7.412644667199999e+00   5.518143053403780e+00   2.141721000000000e-01  1.38750375e+00  -1.30078108e+00   1.11201340e-01
C     8.686442833499999e+00   4.825091260425436e+00   1.394364000000000e-01 -1.53115174e+00  -1.27722444e+00  -7.97760900e-02
C     9.910021308299999e+00   5.442060555417086e+00   1.698900000000000e-03  2.81602510e-01   3.49635457e+00   3.74541740e-01
C     1.114270371830000e+01   4.759497826742058e+00  -3.325410000000062e-02  6.46983490e-01   2.11180710e+00  -5.84565400e-01
C     1.236747224580000e+01   5.513229194432960e+00  -1.262841000000030e-01  1.38408531e+00  -1.75445793e+00   7.56241790e-01
