32
Lattice="9.86 0 0 4.93 8.53901048131456 0 0 0 30 " PBC="1 1 1" Properties=species:S:1:pos:R:3:force:R:3 Energy="-256.79798807"
C     9.812086266700000e+00   9.067929597646920e-01   3.455208300000000e+00 -7.13719220e-01  -9.69751500e-02   2.97961410e-01
C     1.185587993400000e+00   1.575312858754835e+00   3.503091300000000e+00  8.49096710e-01  -5.54555870e-01  -5.11654600e-02
C     2.428075483200000e+00   8.511911076340672e-01   3.484674900000000e+00  2.19532930e-01   1.10146678e+00   2.71699310e-01
C     3.639110657600000e+00   1.597689677278094e+00   3.595153200000000e+00  7.01620170e-01  -5.26292830e-01   2.92621580e-01
C     4.880093856500000e+00   8.666631968930937e-01   3.617639100000000e+00 -3.68505430e-01   5.93145460e-01  -7.45998040e-01
C     6.110962765999999e+00   1.584986191386998e+00   3.511444800000000e+00 -9.18184800e-02  -1.17347860e-01   7.70559160e-01
C     7.335257421900000e+00   8.428393576538936e-01   3.562013700000000e+00  4.91118060e-01   6.32488800e-02  -4.13994300e-02
C     8.566560812299999e+00   1.588482830788454e+00   3.475740000000000e+00 -1.28944570e-01  -1.05759620e-01   3.10210140e-01
C     1.105123368150000e+01   2.961124666723423e+00   3.654328200000000e+00  1.24077733e+00   1.60735607e+00  -1.05414200e-01
C     2.428213917600000e+00   3.716135348964439e+00   3.749701800000000e+00 -9.49024150e-01   9.19799220e-01   2.07409300e-01
C     3.649261429000000e+00   3.024457226602011e+00   3.721588800000000e+00 -5.07289900e-02  -8.39536800e-02  -3.72779550e-01
C     4.863338955700000e+00   3.779975296845748e+00   3.668126700000000e+00  1.06495343e+00  -3.51971268e+00  -8.31149160e-01
C     6.101993321200000e+00   3.032045162094749e+00   3.495030900000000e+00 -5.97301600e-01  -8.58325250e-01   6.18056400e-01
C     7.322314495699999e+00   3.724543968754409e+00   3.488314500000000e+00  1.33071184e+00  -1.53165287e+00  -6.53666390e-01
C     8.609714679900000e+00   3.009454099798547e+00   3.494057700000000e+00 -2.13776003e+00  -3.17701050e-01   1.77355440e-01
C     9.839772259299998e+00   3.671114526280001e+00   3.626122800000000e+00 -6.55590190e-01   1.37718145e+00  -1.57537220e-01
C     1.229212902780000e+01   5.194937408010750e+00   3.829041300000001e+00 -1.56607383e+00  -2.49967679e+00  -1.67317670e-01
C     3.659360238200000e+00   5.839495050401813e+00   3.785436300000000e+00  7.17631360e-01   1.80000148e+00  -4.33692960e-01
C     4.872302139399999e+00   5.140120034772924e+00   3.599878500000000e+00  6.25404970e-01   1.83777803e+00   3.60289210e-01
C     6.113688020700000e+00   5.850940313098681e+00   3.430611300000000e+00 -1.38453563e+00   1.27631744e+00   1.69133690e-01
C     7.301409865999999e+00   5.100022378580729e+00   3.387290100000000e+00  1.77732259e+00   2.53965585e+00   1.04084965e+00
C     8.564614349699999e+00   5.815173813802153e+00   3.536683500000000e+00  4.93098060e-01   8.16007200e-02  -2.20272520e-01
C     9.804118154200001e+00   5.107381980933232e+00   3.675681600000000e+00  3.69880280e-01   7.39143100e-01  -6.69596400e-02
C     1.102851984040000e+01   5.890246659189692e+00   3.783937200000000e+00 -7.30770000e-03  -2.21602966e+00  -2.14316750e-01
C     1.353782392630000e+01   7.274347932578927e+00   3.737302500000000e+00 -1.05704150e-01  -1.18294400e-02  -5.14572190e-01
C     4.871820922100000e+00   8.057860550950611e+00   3.515002800000000e+00  5.54356170e-01  -2.74785195e+00   2.40255390e-01
C     6.103315152800000e+00   7.321242043382467e+00   3.424165500000000e+00  1.18183246e+00  -1.36429500e+00   1.36216840e-01
C     7.401294673300001e+00   7.982187327736222e+00   3.428832000000000e+00 -1.78994936e+00  -2.98284250e-01   2.05098140e-01
C     8.622906620399998e+00   7.258931346888021e+00   3.546043800000000e+00 -1.55924039e+00  -9.24847720e-01  -5.16861670e-01
C     9.817335237700000e+00   7.980216011776808e+00   3.598452300000000e+00  4.66693380e-01   7.42758960e-01   3.85835100e-01
C     1.103945384090000e+01   7.279768496431632e+00   3.701143200000000e+00 -3.62281700e-02  -3.79237890e-01   3.96008760e-01
C     1.228766890610000e+01   7.913910424619399e+00   3.736121400000000e+00  5.84021600e-02   3.47487611e+00  -7.86456690e-01
