32
Lattice="9.86 0 0 4.93 8.53901048131456 0 0 0 30 " PBC="1 1 1" Properties=species:S:1:pos:R:3:force:R:3 Energy="-257.30510002"
C     4.920623337199999e+00   8.291539367916604e+00  -3.038289000000027e-01  1.60968707e+00   1.65653060e+00   1.54033300e-02
C     1.248172815100000e+00   4.677809126814824e-01  -3.013103999999984e-01 -1.65270390e-01   6.04915090e-01   8.10011800e-02
C     7.435454150300000e+00   8.331500485331224e+00  -2.998908000000000e-01 -1.41831449e+00  -1.12134284e+00   1.41735520e-01
C     3.712621394600000e+00   5.037539706415216e-01  -3.106413000000003e-01  9.12647290e-01  -1.34896990e-01  -9.06122290e-01
C     9.887219466700000e+00   8.319185695197177e+00  -4.049976000000015e-01 -3.99725840e-01  -5.22936200e-01   2.58709510e-01
C     6.188001164499999e+00   4.965360304728824e-01  -3.955395000000017e-01 -3.89388690e-01  -7.66595360e-01   3.35926120e-01
C     1.236090144320000e+01   8.356311007231387e+00  -3.878267999999991e-01 -1.21812352e+00  -1.78833435e+00  -5.26952510e-01
C     8.647275659699998e+00   4.929595513234392e-01  -3.134111999999973e-01  6.32146000e-03   2.98802230e-01  -2.72365010e-01
C     1.223961535800000e+00   1.895593380717837e+00  -3.589050000000000e-01  9.42015970e-01   5.89694000e-03  -6.52606750e-01
C     2.474974819700000e+00   2.634096960239545e+00  -5.287269000000023e-01 -3.74670800e-01  -1.65719562e+00   8.94213390e-01
C     3.702147215200000e+00   1.921541042643622e+00  -4.458602999999997e-01  6.97503990e-01  -5.59350300e-02   4.16106350e-01
C     4.971799843099999e+00   2.611784013514676e+00  -4.027839000000029e-01 -1.68111001e+00   1.42793400e-01  -1.57079170e-01
C     6.160926294700000e+00   1.887505486161495e+00  -3.135369000000026e-01  1.46049488e+00   1.09942074e+00  -4.06724400e-01
C     7.411326434500000e+00   2.610659425834460e+00  -3.081920999999994e-01 -7.81231700e-01   1.42070630e-01  -1.62918400e-02
C     8.643687753600000e+00   1.925523466351285e+00  -3.404547000000022e-01 -1.33802182e+00  -1.82791052e+00   5.92400570e-01
C     9.839765751700000e+00   2.578235095239804e+00  -3.643784999999973e-01  2.12367653e+00   2.33909780e+00  -5.80951840e-01
C     2.507123842700000e+00   4.030213389885082e+00  -5.789343000000002e-01 -1.01637496e+00   6.27842360e-01  -8.51412400e-02
C     3.723838130600000e+00   4.746680003500635e+00  -5.282112000000012e-01  4.70800020e-01   9.85701700e-01  -2.13591540e-01
C     4.980251440700000e+00   4.031765098869508e+00  -4.474164000000016e-01 -2.21427453e+00  -1.53078640e-01  -1.30206800e-02
C     6.162531551999999e+00   4.729313022425991e+00  -3.730182000000006e-01  1.66170577e+00   1.47364660e+00   6.44722100e-01
C     7.395949764499999e+00   4.027560319328947e+00  -3.000539999999994e-01  6.32424360e-01   1.87074290e-01  -4.08007890e-01
C     8.639624694100000e+00   4.749993566517399e+00  -3.605897999999996e-01 -1.16822300e-01  -5.81345940e-01  -2.24831010e-01
C     9.865451347500001e+00   4.020464913960695e+00  -4.883289000000026e-01  6.05085600e-02  -4.09982700e-02   6.14652370e-01
C     1.110907658270000e+01   4.715606800534229e+00  -5.850780000000029e-01  2.49840190e-01   1.25723507e+00   2.96442010e-01
C     3.696578287200000e+00   6.208713324546533e+00  -5.235648000000026e-01  9.41555830e-01  -1.29988029e+00   4.84792350e-01
C     4.952170210000000e+00   6.910835169066629e+00  -3.572117999999982e-01 -8.44595520e-01  -2.08646325e+00  -2.13767300e-01
C     6.183281182500000e+00   6.166004865900080e+00  -2.927486999999971e-01 -5.83861480e-01   4.42738880e-01  -6.11271360e-01
C     7.405326624499999e+00   6.890461517011873e+00  -2.959692000000018e-01  5.79377900e-01  -4.15191400e-02   1.49622280e-01
C     8.637185970999999e+00   6.165781229215608e+00  -3.532454999999999e-01  3.24148640e-01   4.73495440e-01  -2.49997680e-01
C     9.877195839999999e+00   6.876231512217267e+00  -4.557101999999986e-01  1.57467740e-01   4.37935180e-01   2.38108650e-01
C     1.112907177530000e+01   6.169972090169087e+00  -5.462603999999978e-01 -1.67048301e+00  -5.79649950e-01  -1.37840580e-01
C     1.232001542490000e+01   6.910381833000245e+00  -5.399381999999981e-01  1.38209285e+00   4.82885460e-01   5.12727340e-01
