32
Lattice="9.86 0 0 4.93 8.53901048131456 0 0 0 30 " PBC="1 1 1" Properties=species:S:1:pos:R:3:force:R:3 Energy="-256.92030819"
C     5.072307703800000e+00   6.670359214368450e+00  -4.787324999999996e-01  9.28238030e-01   1.55815172e+00   4.92683200e-01
C     6.298142047999999e+00   7.383203323568072e+00  -4.103294999999996e-01  1.27298772e+00   1.22853798e+00   4.80822770e-01
C     7.554815908600000e+00   6.671582342229605e+00  -4.110258000000009e-01  4.68339930e-01   2.32242710e-01  -2.70275850e-01
C     8.802156293199999e+00   7.389970660153682e+00  -3.983163000000012e-01 -6.56788180e-01   1.04215945e+00   5.85004760e-01
C     1.005040197370000e+01   6.723829217142638e+00  -3.582410999999972e-01 -1.59212388e+00  -2.37171553e+00   3.56154600e-02
C     1.126179265040000e+01   7.431505431809660e+00  -3.639036000000004e-01 -4.42242240e-01  -4.77854010e-01  -1.05639460e-01
C     1.245911557210000e+01   6.670576532185166e+00  -3.536468999999975e-01  1.58904689e+00   2.46991296e+00   5.23402490e-01
C     1.373065565050000e+01   7.405221589041275e+00  -3.255894000000019e-01 -1.30678190e+00  -9.52359870e-01  -3.04761240e-01
C     1.385160309400000e+00   3.085332344654561e-01  -2.333864999999982e-01  4.25041000e-03  -1.13696240e+00  -1.54435793e+00
C     2.612483217800000e+00   1.038893074302283e+00  -3.102108000000001e-01  6.31915730e-01  -1.39770996e+00   5.95572170e-01
C     3.865027266700000e+00   2.887018095761800e-01  -3.426408000000016e-01 -1.17515983e+00   3.69824620e-01  -8.36103940e-01
C     5.071680607800000e+00   1.018199465524842e+00  -4.714706999999976e-01 -4.97401800e-02   2.85705750e-01   3.06817400e-01
C     6.301745582200000e+00   3.164830532223360e-01  -4.179621000000004e-01  5.92510410e-01  -7.02894810e-01   2.04018600e-02
C     7.537272405000000e+00   9.914629698109136e-01  -3.484122000000021e-01  5.37006180e-01  -5.06601980e-01   1.07472090e-01
C     8.798501585599999e+00   2.778908245777664e-01  -2.222723999999978e-01 -1.40840766e+00   9.86972600e-02  -1.28007791e+00
C     9.999186077099999e+00   1.010941221226737e+00  -2.957123999999993e-01  9.46370800e-01  -9.65181750e-01   1.44603139e+00
C     2.618566739200000e+00   2.460215125862895e+00  -2.710875000000001e-01  3.96198380e-01  -7.25708480e-01  -6.43358800e-02
C     3.850686389700000e+00   3.166928481708191e+00  -3.140330999999996e-01  2.93534570e-01   1.40991580e-01  -6.77134220e-01
C     5.055398148899999e+00   2.453139104048433e+00  -5.160330000000002e-01  1.41283459e+00  -2.94788360e-01   1.32849303e+00
C     6.335516476600000e+00   3.146317957502720e+00  -4.327833000000005e-01 -1.89306232e+00  -4.18524100e-01  -1.01113956e+00
C     7.528764703999999e+00   2.391927634373077e+00  -4.069215000000028e-01  3.31512050e-01   7.28149730e-01   7.21420840e-01
C     8.746807873399998e+00   3.093107967597648e+00  -2.760278999999990e-01  1.22608085e+00  -3.02127180e-01  -5.15678700e-02
C     9.993425322799999e+00   2.400963615263013e+00  -1.995402000000013e-01  7.78800390e-01   1.41680587e+00  -8.93380630e-01
C     1.126194439580000e+01   3.141556434478862e+00  -2.513795999999999e-01 -2.03417249e+00  -3.18239230e-01   4.74428790e-01
C     3.891115544899999e+00   4.585622055062848e+00  -3.048330000000021e-01 -9.14942400e-01   4.29047900e-02  -8.57285420e-01
C     5.133088589200000e+00   5.277205138238634e+00  -5.362133999999976e-01 -2.16671500e+00  -6.61905120e-01   1.13468474e+00
C     6.332904069600000e+00   4.572355250650388e+00  -4.899386999999997e-01  1.45937514e+00  -9.72027680e-01  -1.56415100e-02
C     7.596396169500000e+00   5.239763199695825e+00  -4.439196000000010e-01 -1.77078873e+00   7.21092510e-01   2.98461470e-01
C     8.774977203199999e+00   4.489375879289101e+00  -2.989515000000011e-01  4.50982600e-01   1.87551667e+00  -4.21761020e-01
C     9.990036144999998e+00   5.238673707348681e+00  -2.911452000000025e-01  1.10209947e+00   1.26501699e+00  -7.77932100e-02
C     1.122553886010000e+01   4.552893223354476e+00  -2.664422999999978e-01  1.00031358e+00   4.75653320e-01   2.08823390e-01
C     1.248141016600000e+01   5.292526684742897e+00  -2.705699999999993e-01 -1.14729100e-02  -1.74676344e+00  -3.48880180e-01
