32
Lattice="9.86 0 0 4.93 8.53901048131456 0 0 0 30 " PBC="1 1 1" Properties=species:S:1:pos:R:3:force:R:3 Energy="-256.99543815"
C     4.947229807699999e+00   8.035122703064257e+00   1.667910000000000e-01  5.21297100e-02  -1.35656953e+00  -6.65638000e-03
C     1.239474914700000e+00   1.978294892678104e-01   1.220874000000000e-01  6.98801130e-01   1.87883880e-01   1.37530850e-01
C     7.382311856199999e+00   8.000528695296738e+00   2.164149000000000e-01  2.31496980e+00   1.30924464e+00  -3.18075330e-01
C     3.753563713500000e+00   1.916168468029816e-01   1.410480000000000e-01 -1.85918631e+00   1.35128060e-01  -6.76493610e-01
C     9.908796992100001e+00   8.021391974212417e+00   7.904130000000001e-02 -4.11436080e-01   1.43719280e-01   5.57283440e-01
C     6.223726212300000e+00   1.812878889461640e-01   9.329369999999999e-02 -8.98826590e-01   6.15012920e-01   3.88551990e-01
C     1.235403212910000e+01   8.012099652227871e+00   1.246770000000000e-01  3.22453850e-01  -1.47950699e+00  -1.19780900e+00
C     8.641113751299999e+00   1.652926145150280e-01   1.173003000000000e-01  6.17111610e-01   1.15200838e+00   1.93857440e-01
C     1.275387549000000e+00   1.623425400963767e+00  -4.230089999999720e-02  7.38592000e-02  -3.24014850e-01   4.47461300e-01
C     2.514633366600000e+00   2.324842606339053e+00  -1.443252000000008e-01  2.21487020e-01   2.48964060e-01  -1.04030940e-01
C     3.751980887700000e+00   1.626150455378249e+00  -4.050180000000125e-02 -4.93040200e-02  -1.37343290e+00   7.77972790e-01
C     4.998331870600000e+00   2.313070726491325e+00   6.059130000000000e-02 -6.69497450e-01  -4.23759240e-01  -1.08532200e-01
C     6.231638122800001e+00   1.607079173201903e+00   1.660827000000000e-01 -1.63286020e-01  -2.90198400e-01  -3.55493480e-01
C     7.468389508300000e+00   2.314635500161785e+00   1.903017000000000e-01 -1.47375542e+00  -1.02783650e-01  -2.06915480e-01
C     8.661648039399999e+00   1.591065796068549e+00   9.360299999999999e-02  1.25215302e+00   6.39975920e-01   6.44579380e-01
C     9.914429024099999e+00   2.336714307219292e+00   4.377720000000000e-02 -8.16600620e-01  -1.15265403e+00  -1.04919770e+00
C     2.521922568800000e+00   3.754813138494018e+00  -2.720151000000008e-01 -1.42525492e+00  -6.64129830e-01   3.73933120e-01
C     3.744715250900000e+00   4.448492377962433e+00  -1.399170000000005e-01  1.21850280e-01   2.88004600e-02  -7.45375000e-03
C     4.938759130999999e+00   3.706402926379754e+00   5.885460000000000e-02  2.07088143e+00   2.19421071e+00  -3.69552250e-01
C     6.204954399200000e+00   4.468332854202817e+00   1.540419000000000e-01 -1.42531776e+00  -1.25636199e+00   8.65941820e-01
C     7.413789216000000e+00   3.733591306528283e+00   2.272113000000000e-01  9.06195760e-01   4.80117330e-01  -5.92728630e-01
C     8.638252872299999e+00   4.444331830496157e+00   1.303317000000000e-01  1.36178572e+00   7.13121790e-01  -3.03171740e-01
C     9.894596965200000e+00   3.740644529184763e+00  -9.643170000000012e-02 -1.33380046e+00   2.53771420e-01   8.27000250e-01
C     1.109942423430000e+01   4.436180320311740e+00  -2.697921000000001e-01  1.76954027e+00   1.39573522e+00   7.00181020e-01
C     3.770638522000000e+00   5.872872676126456e+00  -1.006377000000001e-01 -8.42688940e-01   3.99297530e-01   8.20557650e-01
C     4.962234509200000e+00   6.591503331167956e+00   1.954812000000000e-01  4.77528710e-01   1.87435060e-01  -7.83659440e-01
C     6.212318882500000e+00   5.881475131454322e+00   2.755626000000000e-01 -1.13603243e+00  -2.69506840e-01  -5.87971990e-01
C     7.426871858399999e+00   6.588681017424106e+00   2.851539000000000e-01  2.85529010e-01   2.71885670e-01  -8.18246000e-02
C     8.669558963899998e+00   5.888017721284099e+00   1.795821000000000e-01 -6.13663800e-01  -6.57666460e-01  -1.91272100e-02
C     9.877022106800000e+00   6.611573250619938e+00   7.768259999999999e-02  1.88402833e+00  -1.20771723e+00  -6.18663380e-01
C     1.114849952490000e+01   5.878260535569022e+00  -1.271649000000004e-01 -1.86553438e+00  -2.24824030e-01  -9.08321800e-02
C     1.236901903330000e+01   6.579313979097860e+00  -1.096685999999991e-01  5.53880350e-01   4.26813650e-01   7.43338220e-01
