32
Lattice="9.86 0 0 4.93 8.53901048131456 0 0 0 30 " PBC="1 1 1" Properties=species:S:1:pos:R:3:force:R:3 Energy="-256.94430119"
C     4.932426644600000e+00   8.437251946010887e+00  -2.247740999999976e-01  1.15915174e+00   1.03343088e+00  -1.60659060e-01
C     1.251421093500000e+00   6.092412343369352e-01  -2.291852999999975e-01  1.52856580e-01   5.05210310e-01  -1.64128020e-01
C     7.438669496299999e+00   8.464350751939483e+00  -1.668009000000019e-01 -1.95417410e+00  -1.67450586e+00  -6.77632060e-01
C     3.701011293900000e+00   6.101767683251239e-01  -3.291269999999997e-01  1.72863108e+00   5.65404050e-01   5.51145450e-01
C     9.880831221999999e+00   8.466189798626560e+00  -3.596708999999976e-01  7.64817320e-01  -9.14817540e-01  -1.33277450e-01
C     6.199995361499999e+00   6.439676821569992e-01  -3.150632999999985e-01 -5.88874940e-01  -9.16277970e-01  -8.81534230e-01
C     1.236494813510000e+01   8.472693365178442e+00  -4.232027999999985e-01 -8.72753250e-01  -7.11197860e-01   7.71024760e-01
C     8.644957968099998e+00   6.366453098901895e-01  -2.557182000000005e-01  3.08395080e-01  -7.39615390e-01  -9.37114700e-02
C     1.241195041000000e+00   2.026119499453650e+00  -4.452458999999998e-01  9.71910680e-01  -2.26144270e-01   7.59618190e-01
C     2.507262671500000e+00   2.744185811292526e+00  -5.432711999999995e-01 -9.59338580e-01  -5.65093230e-01  -1.08512960e-01
C     3.743733835800000e+00   2.025558315684904e+00  -4.046999999999983e-01 -1.02207283e+00   7.47636020e-01  -4.95952460e-01
C     4.964190092300000e+00   2.743313978322518e+00  -3.915776999999991e-01  2.43617790e-01   3.77633330e-01  -1.29077750e-01
C     6.195686147100000e+00   2.048647031511881e+00  -3.121931999999994e-01  4.64481400e-01   1.87275620e-01   6.34367860e-01
C     7.441775544200000e+00   2.750966554124589e+00  -2.243921999999969e-01 -1.24627855e+00   1.06022640e-01  -8.95556900e-02
C     8.662178408799999e+00   2.054011323285521e+00  -1.781781000000002e-01 -7.80721000e-01  -9.72543090e-01  -8.49733800e-01
C     9.861752269899998e+00   2.717884805113077e+00  -3.736214999999987e-01  1.70172433e+00   1.60663141e+00  -5.23159300e-02
C     2.481117846200000e+00   4.152420036100336e+00  -7.394694000000008e-01  8.36663240e-01   7.53611630e-01   7.16519870e-01
C     3.748313362100000e+00   4.879709162378450e+00  -6.829827000000002e-01 -5.07711790e-01   6.70587720e-01   1.00767639e+00
C     4.985855963300000e+00   4.177222018990020e+00  -4.405440000000027e-01 -2.24762021e+00  -8.50805160e-01  -5.67352500e-02
C     6.170732114000000e+00   4.852625555888511e+00  -1.922958000000001e-01  8.81065350e-01   1.51660631e+00  -1.32366802e+00
C     7.399434436399998e+00   4.161472582670603e+00  -2.410992000000007e-01  1.20717260e+00   7.55982000e-03   3.39843420e-01
C     8.643572933900000e+00   4.862606036727639e+00  -3.525348000000008e-01  1.35846500e-02   5.23244250e-01   3.29291450e-01
C     9.876455107500000e+00   4.150466054332197e+00  -4.694463000000013e-01 -1.94439300e-02   3.65931020e-01  -3.13502440e-01
C     1.109805768760000e+01   4.879859534353003e+00  -6.747827999999991e-01  5.91271480e-01  -1.48079680e-01  -3.76153000e-02
C     3.725249786800000e+00   6.333896584425009e+00  -5.386448999999978e-01  8.01038720e-01  -1.05894656e+00  -1.01741570e-01
C     4.975895588500000e+00   7.043378629028341e+00  -3.117140999999997e-01 -1.29757348e+00  -1.80626523e+00  -2.64261790e-01
C     6.192239978500000e+00   6.284382875986415e+00  -2.409633000000007e-01 -2.29456720e-01   8.66952650e-01   7.00460000e-01
C     7.414516489600000e+00   7.011264691464634e+00  -1.571783999999994e-01  1.04797891e+00   7.74760900e-02  -5.43425240e-01
C     8.657397146899999e+00   6.290378969145471e+00  -3.134987999999979e-01  5.44397590e-01   7.86950010e-01  -1.86827520e-01
C     9.920151570900000e+00   7.029583857597902e+00  -4.670346000000016e-01 -1.60535646e+00  -3.45878500e-02   3.29129590e-01
C     1.114331779910000e+01   6.329678057077576e+00  -6.677460000000011e-01 -1.49635052e+00  -1.10253227e+00   7.55416750e-01
C     1.234550658150000e+01   7.030458081490845e+00  -5.621978999999975e-01  1.40896783e+00   1.02324818e+00  -2.30625710e-01
