32
Lattice="9.86 0 0 4.93 8.53901048131456 0 0 0 30 " PBC="1 1 1" Properties=species:S:1:pos:R:3:force:R:3 Energy="-256.85762109"
C     4.936289348899999e+00   7.816969941903522e+00  -1.736943000000011e-01  2.26148283e+00  -6.21956840e-01   1.06115010e-01
C     1.272604268200000e+00   2.001971007036000e-02  -1.791444000000020e-01 -5.61313450e-01  -2.76277669e+00  -3.61008760e-01
C     7.422363915700000e+00   7.813072054399612e+00  -2.430738000000012e-01  6.33734620e-01   1.76132390e-01   6.94364240e-01
C     8.696505703000000e+00   8.526513979722939e+00  -1.285533000000001e-01 -6.49671390e-01  -7.80130890e-01  -5.89760200e-01
C     9.955022989200000e+00   7.806759590902272e+00  -1.627754999999986e-01 -1.91344108e+00   1.14513670e+00   2.39111600e-01
C     1.116834242980000e+01   8.529685368215212e+00  -1.722444000000003e-01 -8.87221400e-02  -3.11171920e-01   2.34305130e-01
C     1.241030236030000e+01   7.826084310909665e+00  -1.069119000000001e-01 -2.11545439e+00  -2.11461806e+00  -1.61325950e-01
C     1.359996800600000e+01   8.495547428997430e+00  -1.129175999999994e-01  3.70351140e-01   2.26929548e+00  -3.20744230e-01
C     1.266416477300000e+00   1.396290710849434e+00  -9.862200000000243e-02 -1.57005260e-01   9.90230090e-01   1.20288127e+00
C     2.505205974100000e+00   2.078384989409529e+00   5.796270000000000e-02  2.96280000e-02   1.09409180e+00  -5.55858840e-01
C     3.740172847500000e+00   1.398254512479625e+00  -1.629540000000063e-02  1.19607856e+00   4.00066700e-02  -1.81417450e-01
C     5.018338550099999e+00   2.119878261474573e+00  -5.591250000000159e-02 -2.32424091e+00   3.22071310e-01   8.05149700e-02
C     6.195275330199999e+00   1.416508269792616e+00  -2.022830999999989e-01  1.68787572e+00  -1.01185494e+00   1.87110300e-01
C     7.456544049400000e+00   2.100217275234479e+00  -2.427551999999977e-01 -9.37194840e-01  -6.95304960e-01   5.81831600e-01
C     8.663527897699998e+00   1.399281755440369e+00  -1.283679000000006e-01  6.28369830e-01  -8.37980470e-01  -4.83489300e-02
C     9.878784384599999e+00   2.086490815887879e+00  -7.875000000002075e-03  9.44158470e-01   1.93778120e+00  -7.94181420e-01
C     2.520083333700000e+00   3.508620743230003e+00   1.071006000000000e-01 -1.36944472e+00   3.87928010e-01   2.20671030e-01
C     3.729591095500000e+00   4.215289098490070e+00   1.884480000000000e-02  1.32333956e+00   4.92155190e-01   2.00970230e-01
C     5.014471113000000e+00   3.552176784056701e+00  -1.552200000000070e-02 -1.80489214e+00  -1.31668574e+00  -5.80908550e-01
C     6.209461158700000e+00   4.231481111722665e+00  -1.809705000000008e-01  1.48572430e+00   2.57727830e-01   9.69871300e-02
C     7.461563085200000e+00   3.473627622112648e+00  -2.296602000000014e-01 -8.81836200e-02   3.32421714e+00   1.05228750e-01
C     8.701554269499999e+00   4.239543816198091e+00  -1.628240999999981e-01 -1.59891644e+00   4.69349120e-01   6.48158600e-02
C     9.918034579600000e+00   3.571668270938768e+00  -7.089000000028989e-04 -9.57849860e-01  -2.69574351e+00   1.60067140e-01
C     1.111039131510000e+01   4.252490493107657e+00   1.448151000000000e-01  2.32442742e+00   9.85528920e-01  -6.76915450e-01
C     3.735618858600000e+00   5.639821561820846e+00  -6.757890000000089e-02 -1.97670120e-01   2.86996880e-01   1.47078090e-01
C     4.930472293999999e+00   6.393120257850726e+00  -1.777130999999983e-01  1.69103263e+00  -1.00261623e+00   1.64746080e-01
C     6.200429990300000e+00   5.658607470266952e+00  -2.096252999999990e-01 -1.82347559e+00   1.38412920e-01  -1.33782380e-01
C     7.384130878300000e+00   6.367705686349207e+00  -2.486354999999989e-01  2.19783291e+00   1.15884477e+00  -1.12788760e-01
C     8.651268861100000e+00   5.675463306174262e+00  -1.957325999999995e-01 -2.92166310e-01  -1.11137880e-01   3.22377370e-01
C     9.865561089300000e+00   6.412676555822337e+00  -9.457349999999920e-02  1.67752901e+00  -1.31066570e+00   1.57338600e-01
C     1.112435647680000e+01   5.708586554776705e+00   7.480860000000000e-02 -2.54379540e-01  -1.36253824e+00  -6.93220680e-01
C     1.239038678720000e+01   6.362898650399491e+00  -3.632999999999953e-02 -1.31754319e+00   1.45927564e+00   2.43747200e-01
