32
Lattice="9.86 0 0 4.93 8.53901048131456 0 0 0 30 " PBC="1 1 1" Properties=species:S:1:pos:R:3:force:R:3 Energy="-255.77014334"
C     4.967567536700000e+00   8.416812372795226e+00  -1.845794999999981e-01 -4.69101130e-01   2.92366738e+00  -3.99941700e-02
C     1.268373933800000e+00   6.522977430505535e-01  -1.672781999999984e-01 -9.47640450e-01  -3.80384040e-01  -2.33851550e-01
C     7.412355670600000e+00   8.488000480754994e+00  -2.113148999999979e-01 -7.14174100e-02  -1.27875121e+00   6.85706980e-01
C     3.711486114200000e+00   6.200851799158016e-01  -2.327792999999971e-01  3.84040070e-01   7.85825630e-01  -1.31636434e+00
C     9.851011081699999e+00   8.414629118595700e+00  -3.363140999999992e-01  1.30535085e+00   2.53501112e+00   5.34321300e-02
C     6.198714448900000e+00   6.221955963559336e-01  -3.674067000000001e-01 -1.30566846e+00  -1.58387492e+00   1.16277892e+00
C     1.233931622700000e+01   8.421439235623815e+00  -3.258377999999986e-01  6.40918100e-01  -6.16039140e-01  -1.31808753e+00
C     8.647921045999999e+00   5.919170337047969e-01  -2.385422999999989e-01  1.23952770e-01   1.06553417e+00  -1.54813970e-01
C     1.263513496100000e+00   2.083078029569337e+00  -2.730804000000013e-01  1.53947251e+00  -4.78334430e-01  -1.24103951e+00
C     2.503224064800000e+00   2.812871818401445e+00  -5.442941999999995e-01 -6.08413200e-01  -3.88079492e+00   1.28096703e+00
C     3.714471327799999e+00   2.041722662523544e+00  -4.489821000000020e-01  5.92841180e-01   7.48332910e-01   8.35559700e-01
C     4.947139292900000e+00   2.762345383319923e+00  -3.643043999999982e-01  1.98102150e-01  -1.93255340e-01   2.89648380e-01
C     6.170327952599999e+00   2.005791701885171e+00  -1.723668000000025e-01  1.09691985e+00   2.64703733e+00  -1.08364744e+00
C     7.449495727000000e+00   2.762350762896525e+00  -1.220996999999997e-01 -1.45804888e+00   8.87084900e-01  -8.60894760e-01
C     8.658900353200000e+00   2.068231849778495e+00  -2.624132999999986e-01  1.17861642e+00  -1.30431964e+00   1.03599404e+00
C     9.942926494700000e+00   2.776882536321494e+00  -3.234203999999998e-01 -3.29961436e+00   1.48339624e+00  -2.35408310e-01
C     2.482178042700000e+00   4.164834476486684e+00  -6.313020000000016e-01 -3.38850600e-01   2.97374492e+00  -1.54442730e-01
C     3.712538324100000e+00   4.894286277949068e+00  -4.992380999999995e-01 -1.70664180e-01   5.38580100e-02  -9.36749630e-01
C     4.928482644599999e+00   4.219201246141481e+00  -4.003559999999986e-01  8.87350870e-01  -2.32116987e+00  -1.87519410e-01
C     6.157751571900000e+00   4.913229048017691e+00  -3.826910999999988e-01  1.85076010e+00  -2.83227000e-03   2.50322756e+00
C     7.439314389599999e+00   4.239574129685295e+00  -1.669671000000008e-01 -1.38864757e+00  -1.73879738e+00  -9.78334200e-01
C     8.653863175000000e+00   4.972222595110972e+00  -2.614094999999992e-01  2.28692280e-01  -3.50100495e+00  -6.41891240e-01
C     9.892782035000000e+00   4.247163089859289e+00  -4.830648000000011e-01 -1.13265644e+00  -2.22328530e+00   9.64792800e-01
C     1.108312836580000e+01   4.898599075972202e+00  -6.760461000000006e-01  1.82403548e+00   1.45496390e+00   9.29004410e-01
C     3.740637894400000e+00   6.301493601356554e+00  -5.314467000000000e-01 -7.81681520e-01   3.93719510e-01   7.69500390e-01
C     4.937476147800000e+00   7.043504067092292e+00  -2.339181000000004e-01  7.15581840e-01  -2.25147485e+00  -5.37483480e-01
C     6.184408476300000e+00   6.314785168899407e+00  -1.457708999999987e-01 -4.09077440e-01   9.15672150e-01  -1.53154265e+00
C     7.419270636499999e+00   7.051912174541634e+00  -1.720314000000016e-01 -3.92368500e-01  -3.34980940e-01  -1.17059700e-02
C     8.648283302399999e+00   6.323810305246034e+00  -2.952699000000010e-01 -2.50616170e-01   2.76083351e+00   2.65450300e-01
C     9.874782161300001e+00   7.038086833453676e+00  -3.911121000000009e-01  3.26601710e-01  -5.97509430e-01  -2.67385300e-01
C     1.112419289940000e+01   6.365916507483332e+00  -5.633675999999994e-01 -2.61929748e+00  -3.73698671e+00  -6.99441210e-01
C     1.232972535570000e+01   6.946490746617022e+00  -6.062283000000015e-01  2.75052761e+00   4.79511369e+00   1.65453474e+00
