32
Lattice="9.86 0 0 4.93 8.53901048131456 0 0 0 30 " PBC="1 1 1" Properties=species:S:1:pos:R:3:force:R:3 Energy="-257.3065995"
C     4.952171097400000e+00   8.534894335388222e+00  -3.797249999999863e-02 -1.84595240e-01  -8.25141020e-01   1.53549810e-01
C     1.271233136600000e+00   6.864558343330688e-01  -1.841909999999913e-02 -1.12074680e+00   3.83770890e-01  -7.17211290e-01
C     7.426437969099999e+00   8.526618582601319e+00  -2.246309999999951e-02 -5.10231240e-01   4.12149330e-01   1.71174600e-02
C     3.714389391200000e+00   7.245925921586353e-01  -3.167850000000172e-02 -7.07907040e-01  -1.14090987e+00   2.25689340e-01
C     9.840733214899998e+00   8.510088253773507e+00  -1.480710000000229e-02  1.07763659e+00   4.12962370e-01   2.28095400e-02
C     6.140010178100000e+00   6.555850059150392e-01  -5.174699999997756e-03  8.54912110e-01   2.74550880e+00  -4.63415510e-01
C     1.233543340830000e+01   8.514988450327559e+00  -3.845850000000084e-02 -6.02805160e-01   1.06600641e+00   5.14825170e-01
C     8.651190523399999e+00   7.052642003767361e-01  -1.115549999999743e-02 -6.84132100e-01   2.91500530e-01  -1.79182880e-01
C     1.233005768700000e+00   2.105064444533451e+00  -1.043699999999994e-01 -9.56489500e-02   6.58032650e-01   1.81495286e+00
C     2.444601582700000e+00   2.823585287900177e+00   4.143090000000001e-02  4.04662100e-02   1.49988052e+00  -1.02548147e+00
C     3.664921327500000e+00   2.130844741853828e+00   9.409200000000000e-03  8.69584450e-01   5.36048350e-01  -7.16187400e-02
C     4.886343223100000e+00   2.873329293451417e+00  -5.253299999999683e-03  8.49249620e-01  -8.03764750e-01   1.36992060e-01
C     6.111995255900000e+00   2.150475073046300e+00  -4.365269999999910e-02  1.43700681e+00  -1.19374977e+00   1.85266340e-01
C     7.385499199800000e+00   2.869601246865954e+00  -7.091340000000201e-02 -5.19165400e-01  -9.44622890e-01   6.81379850e-01
C     8.630769181600000e+00   2.145641736944306e+00   1.295250000000000e-02 -4.56857420e-01  -2.36837810e-01  -6.28204280e-01
C     9.868034470299998e+00   2.848558136389566e+00   7.456800000000000e-03  1.91626800e-01  -5.45413450e-01  -6.21656230e-01
C     1.232901918250000e+01   4.296569548326255e+00   2.372580000000000e-02  1.86511840e-01  -1.97946006e+00   3.24529780e-01
C     3.689915737300000e+00   4.999911617443944e+00  -3.021509999999950e-02  3.98906340e-01  -2.77497420e-01   1.07665568e+00
C     4.932766913200000e+00   4.285692129826307e+00   3.006600000000000e-02 -5.38160590e-01   2.70214140e-01  -5.10227470e-01
C     6.171433110700000e+00   4.991225565203478e+00   2.247330000000000e-02 -1.78623450e-01  -4.73617280e-01  -7.01945190e-01
C     7.405683014200000e+00   4.294970789394084e+00  -5.064780000000013e-02  3.35742010e-01  -7.73505410e-01   9.44143500e-02
C     8.661660857399999e+00   4.976237296278248e+00  -6.075869999999739e-02 -4.28231940e-01   7.92570720e-01   5.13722590e-01
C     9.901812562499998e+00   4.269623334514939e+00   7.046999999999999e-03 -1.15958848e+00  -7.87840900e-02   1.37385370e-01
C     1.111397399540000e+01   4.992219249853035e+00   9.039509999999999e-02 -2.52968250e-01  -7.37625860e-01  -8.17574850e-01
C     1.352926874940000e+01   6.416609880219739e+00   4.035570000000000e-02  7.11410840e-01  -5.66221820e-01  -8.93204700e-01
C     4.912742091300000e+00   7.088394926037225e+00  -5.309850000000083e-02  3.97703320e-01   1.38430309e+00   4.60543590e-01
C     6.154863725799999e+00   6.392140662568460e+00  -5.954429999999888e-02  1.12627000e-02   7.53334580e-01   5.65343410e-01
C     7.384846862200000e+00   7.118570679002183e+00  -1.749389999999806e-02  9.76565800e-01  -6.07228550e-01  -3.81612610e-01
C     8.643997850600000e+00   6.422479937584110e+00  -2.534370000000052e-02 -8.06112710e-01  -1.60521138e+00  -2.38933000e-02
C     9.873575001500001e+00   7.092866635045391e+00  -2.949000000000979e-03 -6.52908920e-01   5.45198010e-01   5.87842400e-02
C     1.109804521470000e+01   6.384812739944839e+00   3.908550000000000e-02 -4.54331230e-01   9.95732630e-01   7.51986600e-02
C     1.229957327850000e+01   7.110124999906729e+00   2.087430000000000e-02  1.01442950e+00   4.23783900e-02  -2.39315700e-02
