32
Lattice="9.86 0 0 4.93 8.53901048131456 0 0 0 30 " PBC="1 1 1" Properties=species:S:1:pos:R:3:force:R:3 Energy="-256.58905769"
C     4.938304683599999e+00   8.507801421376858e+00  -2.661824999999993e-01 -1.22998280e+00   2.11494658e+00   2.94423420e-01
C     1.210359419300000e+00   7.143521838404953e-01  -2.773634999999999e-01  1.17939000e+00  -9.68617220e-01   4.05784220e-01
C     2.462484171700000e+00   1.855842920691760e-02  -2.814779999999999e-01 -9.41196570e-01  -2.36956086e+00   2.65651740e-01
C     3.667415661000000e+00   6.672526244448065e-01  -1.403940000000006e-01  2.32681689e+00   1.92452876e+00  -5.38683530e-01
C     9.861403521700000e+00   8.520916402182984e+00  -1.219575000000006e-01 -2.26202750e-01   9.13654560e-01   8.77860400e-02
C     6.154990032399999e+00   7.386030589938001e-01  -1.851401999999993e-01  2.25539460e-01  -3.08187800e+00   9.86315330e-01
C     1.230211020720000e+01   8.523351471801567e+00  -7.070309999999935e-02  1.04945021e+00   5.73503360e-01  -8.66583010e-01
C     8.606220394499999e+00   7.106689670600520e-01  -2.170154999999987e-01  5.97280380e-01  -1.12593282e+00  -1.04399040e-01
C     1.235352744500000e+00   2.103038137346546e+00  -7.804799999999901e-02  6.38068370e-01   7.49992530e-01  -8.05113160e-01
C     2.470137109300000e+00   2.839753221123218e+00  -1.055339999999916e-02  7.18082680e-01  -1.45741713e+00   4.77368370e-01
C     3.745474766700000e+00   2.118756064717292e+00  -9.151740000000075e-02 -2.30990527e+00  -4.64296870e-01   3.70894280e-01
C     4.944184793200000e+00   2.824492899324096e+00  -7.477590000000234e-02  9.63405880e-01   4.42285280e-01  -3.57278680e-01
C     6.208292896600000e+00   2.106697017947122e+00  -1.949286000000008e-01 -2.05299950e+00   2.14931754e+00   1.21525640e-01
C     7.402226985600000e+00   2.836518046222661e+00  -2.271815999999980e-01  1.04464069e+00  -2.97302170e-01  -5.71219170e-01
C     8.639024022899999e+00   2.129162215228849e+00  -2.935890000000008e-01 -1.87199960e-01  -7.08068050e-01   9.79330110e-01
C     9.883959405599999e+00   2.801886381418925e+00  -1.341938999999996e-01 -1.38258010e+00   1.14226267e+00   1.27807700e-02
C     2.454991409800000e+00   4.219058132325837e+00   2.014539000000000e-01  6.60837070e-01   2.44063846e+00  -4.12301880e-01
C     3.741161608300000e+00   4.988368583077079e+00   1.761615000000000e-01 -2.04879492e+00  -1.04236722e+00  -1.12653874e+00
C     4.933675610800000e+00   4.273221758921315e+00  -4.407180000000110e-02 -3.40193840e-01  -1.78689980e+00   2.64623900e-02
C     6.144302581200000e+00   4.918259976822192e+00  -2.688668999999990e-01  1.00499207e+00   2.43160873e+00   9.58560310e-01
C     7.391307627200000e+00   4.243391238150064e+00  -2.656832999999992e-01 -3.31039480e-01   1.96509610e-01   2.22717130e-01
C     8.614520295999998e+00   4.961496573266833e+00  -1.433868000000018e-01 -1.23518810e-01  -1.03667387e+00  -3.73974380e-01
C     9.810077636799999e+00   4.220369724335565e+00  -1.595760000000013e-02  2.66812014e+00   1.05874734e+00   2.95823430e-01
C     1.107397118660000e+01   4.969453735572726e+00   1.746216000000000e-01 -4.64306860e-01  -8.24891360e-01  -2.10874190e-01
C     3.696854712300000e+00   6.392945635086410e+00  -1.444380000000223e-02  1.46487254e+00   3.75251590e-01   8.05978290e-01
C     4.947720687800000e+00   7.130856948841226e+00  -1.689459000000006e-01 -4.22696300e-01  -2.56156363e+00  -9.06255200e-02
C     6.164765187100000e+00   6.367788173190444e+00  -2.188124999999985e-01  7.52521850e-01   4.91851200e-01  -8.20401180e-01
C     7.432371865000000e+00   7.088039447030942e+00  -3.009194999999991e-01 -1.40888766e+00   2.60292220e-01   4.57617610e-01
C     8.646369772200000e+00   6.353796577568440e+00  -1.845092999999984e-01  8.73537950e-01   2.42164753e+00   5.76629750e-01
C     9.913792659700000e+00   7.123335873800547e+00  -7.874399999998616e-03 -2.61341836e+00  -1.13150509e+00  -5.96413200e-01
C     1.109506793840000e+01   6.418644043296284e+00   1.675122000000000e-01  1.15190644e+00  -1.71325196e+00  -4.83027460e-01
C     1.234977635590000e+01   7.096449433062589e+00   6.223350000000000e-02 -1.23653944e+00   8.83188090e-01   1.17842800e-02
