32
Lattice="9.86 0 0 4.93 8.53901048131456 0 0 0 30 " PBC="1 1 1" Properties=species:S:1:pos:R:3:force:R:3 Energy="-257.29899762"
C     5.023706334100000e+00   7.003010627764350e+00   9.008850000000000e-02 -1.61337260e+00   8.17371280e-01  -1.06660170e-01
C     6.231334434800000e+00   7.717804961567501e+00   1.202928000000000e-01  4.14051740e-01   6.32315170e-01  -8.58067720e-01
C     7.470760197399999e+00   7.028491632767405e+00   1.719702000000000e-01 -2.12571600e-01  -1.41726415e+00   1.08214030e-01
C     8.693980162599999e+00   7.714092541371216e+00   9.129599999999999e-02  7.74135500e-02   1.65671999e+00   3.77406930e-01
C     9.915453428799999e+00   6.995398014531326e+00   1.365054000000000e-01  2.45303840e-01   7.01047660e-01  -6.64328010e-01
C     1.113332227340000e+01   7.736076053071766e+00   7.875720000000000e-02  1.02999350e+00  -8.68402670e-01   1.39012740e-01
C     1.238137785310000e+01   7.019610122577053e+00   2.950020000000000e-02  3.57373730e-01   4.61613030e-01  -5.37162500e-02
C     1.362652197200000e+01   7.746709341262092e+00  -4.354799999997994e-03 -2.05275080e-01  -1.22871901e+00   4.15486700e-01
C     1.288554001400000e+00   5.973502352930111e-01  -1.010661000000006e-01  7.95160300e-02   2.33862170e-01   6.35918350e-01
C     2.504793135900000e+00   1.343032048584626e+00  -6.968970000000141e-02  1.21190746e+00  -1.11317427e+00  -3.58813230e-01
C     3.772055058900000e+00   6.518894929595048e-01   1.953750000000000e-02 -1.14116028e+00  -2.00393118e+00   3.13456350e-01
C     4.988730695600000e+00   1.334017329830786e+00   9.779760000000000e-02  2.60137190e-01   4.70345480e-01  -1.46568020e-01
C     6.230432442000000e+00   6.062280737088576e-01   1.251099000000000e-01 -1.16427339e+00   6.85653760e-01  -4.49860300e-02
C     7.433000637199999e+00   1.335156946169446e+00   1.158960000000000e-01  1.34263222e+00  -6.67028810e-01  -4.26352110e-01
C     8.661029275099999e+00   6.161964291531048e-01  -2.641169999999704e-02  1.02902918e+00   3.86958710e-01   1.34562960e-01
C     9.925049525899999e+00   1.321265940090897e+00  -1.412793000000008e-01 -1.03206072e+00  -8.07388970e-01   4.96129870e-01
C     2.531584727900000e+00   2.740556048717687e+00  -1.574673000000004e-01 -2.16857770e-01   1.45083687e+00   1.76708980e-01
C     3.773997232400000e+00   3.491101511598501e+00  -1.505550000000255e-02 -9.87072980e-01  -1.72413610e+00   7.39469700e-02
C     4.985532062300000e+00   2.766553920025095e+00   1.025532000000000e-01  1.13699958e+00  -5.21331310e-01   1.99447500e-02
C     6.259235128900000e+00   3.436651059640999e+00   1.931757000000000e-01 -1.99523137e+00   1.13791660e+00   1.75637010e-01
C     7.482705883200000e+00   2.750931202621202e+00   1.662834000000000e-01 -7.27376060e-01  -4.26061600e-01  -2.63377550e-01
C     8.691158772900000e+00   3.459604944492497e+00   5.345070000000000e-02  5.05538270e-01  -6.65431950e-01  -7.01314700e-02
C     9.907912057100001e+00   2.725023247094148e+00  -1.226258999999992e-01  7.64923590e-01   1.41974041e+00  -2.73665790e-01
C     1.114805355710000e+01   3.458264661407556e+00  -2.254434000000032e-01  1.76113790e-01  -2.04184900e-02   6.81603070e-01
C     3.735221254100000e+00   4.883354295172153e+00   6.630090000000000e-02  1.70619240e+00   7.20934010e-01  -4.78894440e-01
C     4.990198750999999e+00   5.593396498862973e+00   1.417281000000000e-01 -4.72123830e-01  -4.62532330e-01   3.04703020e-01
C     6.196057869099999e+00   4.865981336790173e+00   2.415096000000000e-01  2.02633801e+00   9.51942900e-02  -2.90448180e-01
C     7.473494572599999e+00   5.569677518672467e+00   2.438097000000000e-01 -1.53369622e+00   1.20202239e+00  -3.62619620e-01
C     8.679569378200000e+00   4.868758479168585e+00   1.135809000000000e-01  1.28911162e+00   2.73569480e-01   7.32330300e-02
C     9.936791011099999e+00   5.584116558443623e+00   4.872570000000000e-02 -7.00539860e-01  -2.21789300e-01  -2.38177180e-01
C     1.116454953430000e+01   4.894163999318994e+00  -1.369361999999974e-01 -2.95560880e-01  -7.38810150e-01   6.53614860e-01
C     1.240315095160000e+01   5.594785112747230e+00  -2.125170000000054e-02 -1.35540307e+00   5.40318980e-01  -1.42773840e-01
