4
Lattice="2.5103880000000003 0.0 0.0 -1.2551939999999995 2.1740597813556097 0.0 0.0 0.0 6.792362722455342" Properties=species:S:1:pos:R:3 Energy=-13.0627422675 pbc="T T T"
C        0.00000000       0.00000000       0.00000000
C        0.00000000       1.44937319       0.00000000
C        0.00000000       1.44937319       3.39618136
C        1.25519400       0.72468659       3.39618136
