4
Lattice="2.3525640000000005 0.0 0.0 -1.1762819999999998 2.0373801880287346 0.0 0.0 0.0 6.7000526274377945" Properties=species:S:1:pos:R:3 Energy=-12.9278880625 pbc="T T T"
C        0.00000000       0.00000000       0.00000000
C        0.00000000       1.35825346       0.00000000
C        0.00000000       1.35825346       3.35002631
C        1.17628200       0.67912673       3.35002631
