4
Lattice="2.5695720000000004 0.0 0.0 -1.2847859999999995 2.225314628853188 0.0 0.0 0.0 6.856324006798413" Properties=species:S:1:pos:R:3 Energy=-12.973325707499999 pbc="T T T"
C        0.00000000       0.00000000       0.00000000
C        0.00000000       1.48354309       0.00000000
C        0.00000000       1.48354309       3.42816200
C        1.28478600       0.74177154       3.42816200
