4
Lattice="2.6484840000000003 0.0 0.0 -1.3242419999999995 2.2936544255166256 0.0 0.0 0.0 6.891271349555774" Properties=species:S:1:pos:R:3 Energy=-12.768123464999999 pbc="T T T"
C        0.00000000       0.00000000       0.00000000
C        0.00000000       1.52910295       0.00000000
C        0.00000000       1.52910295       3.44563567
C        1.32424200       0.76455148       3.44563567
