4
Lattice="2.68794 0.0 0.0 -1.3439699999999994 2.3278243238483443 0.0 0.0 0.0 6.926143112944597" Properties=species:S:1:pos:R:3 Energy=-12.635648719999999 pbc="T T T"
C        0.00000000       0.00000000       0.00000000
C        0.00000000       1.55188288       0.00000000
C        0.00000000       1.55188288       3.46307156
C        1.34397000       0.77594144       3.46307156
