4
Lattice="2.6090280000000003 0.0 0.0 -1.3045139999999995 2.259484527184907 0.0 0.0 0.0 6.7" Properties=species:S:1:pos:R:3 Energy=-12.8808988 pbc="T T T"
C        0.00000000       0.00000000       0.00000000
C        0.00000000       1.50632302       0.00000000
C        0.00000000       1.50632302       3.35000000
C        1.30451400       0.75316151       3.35000000
