4
Lattice="2.5893 0.0 0.0 -1.2946499999999994 2.242399578019047 0.0 0.0 0.0 6.84936012691847" Properties=species:S:1:pos:R:3 Energy=-12.930392757499998 pbc="T T T"
C        0.00000000       0.00000000       0.00000000
C        0.00000000       1.49493305       0.00000000
C        0.00000000       1.49493305       3.42468006
C        1.29465000       0.74746653       3.42468006
