72
Lattice="7.395 0 0 3.6975 6.40425786098592 0 0 0 13.6 " PBC="1 1 1" Properties=species:S:1:pos:R:3:force:R:3 Energy="-579.86483608"
C     4.412112127499999e-02   7.566822789325801e-03   1.351343491200000e+01 -7.51880420e-01  -4.99383710e-01   2.52615860e-01
C     1.307079265200000e+00   6.861177322131132e-01   1.356950268000000e+01 -1.83534261e+00   1.63678275e+00  -6.52015740e-01
C     1.259576151600000e+00   7.653291798099948e-01   3.451140080000000e+00 -9.04724330e-01  -1.19568702e+00  -8.71817310e-01
C     2.468411030025000e+00   1.471413786966123e+00   3.438799576000000e+00 -5.44917310e-01   1.24351829e+00  -6.02365030e-01
C     6.228430726425000e+00   6.403202118091779e+00   1.355312624000000e+01 -2.21991444e+00  -3.79176070e-01   2.17778120e-01
C     3.716250244350000e+00   7.157627856767389e-01   1.350746165600000e+01 -2.25957210e-01   6.10518000e-01  -4.41734400e-01
C     3.645007738725000e+00   7.189922607878011e-01   3.405068584000000e+00  1.84501956e+00   1.05968381e+00   2.40881870e-01
C     4.906679522399999e+00   1.388062819216273e+00   3.444965544000000e+00 -1.73776710e-01   4.65338910e-01  -2.86162340e-01
C     8.590538372624998e+00   6.378024162570661e+00   1.356108251200000e+01  1.00224141e+00   9.09265900e-01  -2.18838760e-01
C     6.131467486425001e+00   6.087441144943159e-01   1.359489075200000e+01  2.28009447e+00   2.90229327e+00  -4.44437350e-01
C     6.169574476049999e+00   6.667169296223436e-01   3.446681728000000e+00 -7.91451360e-01   2.39272937e+00  -2.61477790e-01
C     7.379615626875000e+00   1.411158046038741e+00   3.384377952000000e+00  1.65329760e+00   2.71543020e-01   4.33233030e-01
C     1.273280380725000e+00   2.119159383529789e+00   1.352149495200000e+01 -1.80389668e+00   1.20898950e+00   7.11869620e-01
C     2.476935024675000e+00   2.860294814166590e+00   1.353812652800000e+01 -7.46163900e-02   5.02298790e-01  -1.39962008e+00
C     2.465239351500000e+00   2.918508813645625e+00   3.368529872000000e+00  1.56272900e-02  -6.19885150e-01   6.33566200e-01
C     3.700099453425000e+00   3.609798688549053e+00   3.496968408000000e+00  2.12238700e-02  -3.21184030e-01  -1.11532515e+00
C     3.713408863500000e+00   2.130405580544842e+00   1.337640240000000e+01 -9.17346380e-01   3.08024180e-01   2.74334763e+00
C     4.915959507899999e+00   2.792846899534692e+00   8.107327200000000e-02  7.13114850e-01   1.12813597e+00  -1.77128875e+00
C     4.871539037025000e+00   2.822242122899199e+00   3.450300824000000e+00  2.36810277e+00  -4.38972680e-01   7.18475480e-01
C     6.158804102250000e+00   3.464639715851714e+00   3.493545016000000e+00  4.36790410e-01   3.01773712e+00  -9.84805650e-01
C     6.131742765300000e+00   2.039198189465237e+00   3.337263200000000e-02  1.25190142e+00   2.36657371e+00   3.17721450e-01
C     7.365031170900000e+00   2.874127178590668e+00   1.358718757600000e+01  7.41367040e-01  -2.84637914e+00   2.27302450e-01
C     7.444894397774999e+00   2.835772910820650e+00   3.372601984000000e+00 -2.99537603e+00  -4.83224710e-01   2.14289060e-01
C     8.610750608475000e+00   3.613225863100253e+00   3.319490040000000e+00  1.06991859e+00  -3.53420880e-01   1.44155286e+00
C     9.822282776174999e+00   4.313325242988162e+00   1.349674567200000e+01  7.87734940e-01  -7.09559640e-01  -6.19302800e-02
C     3.702259422000000e+00   5.017421328078759e+00   1.345122538400000e+01 -4.37623500e-02  -2.36187274e+00   1.22611395e+00
C     3.761038912275000e+00   5.039670936693393e+00   3.442352848000000e+00 -9.78333890e-01  -1.22463159e+00   1.34371940e-01
C     4.982244664350000e+00   5.742641537507676e+00   3.389261984000000e+00  4.68041860e-01  -1.32099368e+00   8.04196240e-01
C     4.926636187050000e+00   4.243041907231327e+00   3.913413599999999e-02 -4.47433210e-01   6.61915990e-01  -4.84067870e-01
C     6.148086602700000e+00   4.992636850160560e+00   4.337380000000000e-02 -5.79555330e-01  -5.23442470e-01  -1.35570000e-03
C     6.206926140375000e+00   4.937458468907164e+00   3.436833696000000e+00 -1.53660363e+00   7.21918060e-01  -2.75113560e-01
C     7.388192902499999e+00   5.740016816466333e+00   3.389463944000000e+00  7.49143200e-02  -2.79903941e+00   1.16183175e+00
C     7.351617898050000e+00   4.306116290128053e+00   2.510505600000000e-02  6.36644910e-01  -2.29467262e+00  -5.10549000e-01
C     8.562422323800000e+00   5.014222785533161e+00   1.351235126400000e+01  1.49862604e+00  -2.58842056e+00   6.82520490e-01
C     8.620670187524999e+00   5.025262125019337e+00   3.536410584000000e+00  4.83819240e-01  -4.42597090e-01  -2.07611510e+00
C     9.892548291374998e+00   5.683290269917861e+00   3.465316312000000e+00 -5.18318800e-01   1.73020500e-02   4.19002770e-01
C     1.735857930000000e-02   1.364952286217520e-02   6.902936768000000e+00  4.76614180e-01  -6.08370400e-01   3.95309410e-01
C     1.238487645225000e+00   7.535050625656554e-01   6.863391232000000e+00 -2.02045700e-02  -1.54934734e+00  -4.16412480e-01
C     1.219803327300000e+00   6.593219330714016e-01   1.019930667200000e+01  2.65776590e-01   2.09315552e+00   8.42602000e-02
C     2.460163312575000e+00   1.383497415915615e+00   1.014820154400000e+01 -6.11246680e-01   1.04435080e-01   9.88997200e-01
C     2.475604959975000e+00   5.380915092292740e-02   6.708667296000000e+00 -3.88705100e-01  -1.58801195e+00   9.14226840e-01
C     3.766367601374999e+00   6.551788265340319e-01   6.657562032000000e+00 -6.91272450e-01   7.62125930e-01   5.30197990e-01
C     3.666234494625000e+00   6.716654356281870e-01   1.032769788000000e+01  5.40806690e-01   1.20408913e+00  -1.65852979e+00
C     4.909446250725000e+00   1.403318209736844e+00   1.019448968800000e+01  7.17258100e-01   1.99808970e-01   1.50234969e+00
C     5.023358941650000e+00   6.338550174356401e-03   6.819764336000000e+00 -7.55091260e-01  -2.23360280e-01   4.28290710e-01
C     6.245207688975000e+00   7.864322981825310e-01   6.975150455999999e+00 -2.24942013e+00  -1.76919100e+00  -1.84588966e+00
C     6.187308906224999e+00   7.294320976957015e-01   1.027460484000000e+01 -1.12660421e+00  -1.72839740e-01  -9.99709640e-01
C     7.410816241125000e+00   1.468660980767581e+00   1.020314228000000e+01 -1.06739010e-01  -1.60255237e+00  -3.85251630e-01
C     8.607617605800000e+00   2.138746870237177e+00   6.888251216000000e+00  2.33252100e-02   1.23728826e+00  -1.43966985e+00
C     2.468782887600000e+00   2.761047709897277e+00   6.704228528000000e+00 -2.12616880e-01   1.46672423e+00   1.31953703e+00
C     2.471196467700000e+00   2.814946200217352e+00   1.014751420000000e+01 -1.04090100e-01   2.34021680e-01   4.76481900e-02
C     3.676972995975000e+00   3.551471653918789e+00   1.012469516800000e+01  1.15770968e+00  -3.98561630e-01   4.18595440e-01
C     3.697638878100000e+00   2.051189265711987e+00   6.656857960000000e+00  1.28256425e+00   2.36644653e+00   4.95677480e-01
C     4.916424098775000e+00   2.849278081710661e+00   6.765769071999999e+00 -4.45211460e-01  -4.42059740e-01  -2.83600880e-01
C     4.931108720025000e+00   2.848016186741927e+00   1.021023400000000e+01 -1.06730946e+00  -1.38735232e+00  -1.01368502e+00
C     6.158812384650000e+00   3.534883281167238e+00   1.016004619200000e+01  1.56143790e-01   3.86193000e-02   1.20974140e-01
C     6.169541124600000e+00   2.189811732624516e+00   6.779295904000000e+00  7.83622290e-01  -5.06043200e-02   1.04176477e+00
C     7.400699548350000e+00   2.918987595963239e+00   6.795396400000000e+00 -8.38840890e-01  -6.16893690e-01   3.35225870e-01
C     7.415028359174999e+00   2.896576087709905e+00   1.011229863200000e+01  3.22312780e-01  -1.87589067e+00   1.20463296e+00
C     8.668193415525000e+00   3.561827723133880e+00   1.023371331200000e+01 -1.43483314e+00   6.85600770e-01  -7.43264360e-01
C     2.445054662025000e+00   4.186964880515017e+00   6.859206784000000e+00  5.26467910e-01   1.52251205e+00  -7.96334420e-01
C     3.669415453875000e+00   4.952713154959370e+00   6.852785408000000e+00 -7.11989210e-01   9.33454610e-01   3.57440550e-01
C     3.690695194950000e+00   4.972667605642137e+00   1.010821332800000e+01 -1.03862543e+00  -5.70403980e-01   9.89508000e-01
C     4.911603446175000e+00   5.654199440929440e+00   1.023870356000000e+01  5.86893600e-02   8.18940500e-02  -8.32155820e-01
C     4.892387242874999e+00   4.273429022053191e+00   6.851399840000000e+00  2.70033370e-01  -1.00207090e-01  -5.14708710e-01
C     6.095016274275000e+00   5.040216579463065e+00   6.824190727999999e+00  1.32883730e+00  -6.42917170e-01  -8.41155580e-01
C     6.132690915225000e+00   4.923139060672834e+00   1.022344096000000e+01 -1.15818070e-01   1.90844224e+00   3.60595540e-01
C     7.322260043849999e+00   5.678102885093840e+00   1.031830218400000e+01  2.31951326e+00  -1.22972223e+00   5.69343500e-02
C     7.341559810650000e+00   4.342621072270681e+00   6.752598015999999e+00  1.31006004e+00  -6.06917470e-01   7.60587770e-01
C     8.631711920850000e+00   4.981394687827959e+00   6.850993608000000e+00  3.10440010e-01  -8.39317500e-02  -3.88394900e-01
C     8.613900101999999e+00   4.995864724207157e+00   1.032411754400000e+01  1.43178460e-01  -4.64632840e-01  -8.94305260e-01
C     9.857167838250000e+00   5.685446775667058e+00   1.020563216800000e+01 -8.34335300e-02   1.12539556e+00   5.87454250e-01
