72
Lattice="7.395 0 0 3.6975 6.40425786098592 0 0 0 13.6 " PBC="1 1 1" Properties=species:S:1:pos:R:3:force:R:3 Energy="-577.06128189"
C     3.757457070075000e+00   6.377016004298340e+00   1.347829849600000e+01 -1.32061443e+00   1.43980004e+00   4.34940770e-01
C     1.281810846000000e+00   7.222079027018856e-01   1.353779999200000e+01 -6.45097240e-01   1.24618110e-01  -5.13901550e-01
C     1.314871598550000e+00   7.283041157588196e-01   3.453132887999999e+00 -3.95572822e+00   1.08377543e+00  -7.82869060e-01
C     2.465056214325000e+00   1.497387535568925e+00   3.442466000000000e+00 -7.16662750e-01   1.47058645e+00  -6.79080800e-01
C     2.526313732125000e+00   1.867270251466620e-02   1.353667241600000e+01 -3.69643115e+00  -2.30206182e+00   3.05219930e-01
C     3.682385396475000e+00   6.857150965214550e-01   1.345183520800000e+01  3.01745062e+00   3.09466234e+00  -8.14011100e-02
C     3.608845929900000e+00   7.209141145290084e-01   3.412614816000000e+00  4.29336187e+00   9.83440070e-01   3.32531610e-01
C     4.937016770400000e+00   1.402378384895889e+00   3.458852368000000e+00 -2.18494819e+00  -5.92507700e-02  -2.04991060e-01
C     8.614640748225000e+00   6.383515557515296e+00   1.353754240800000e+01 -1.01258550e-01   3.08101010e-01  -3.36447710e-01
C     6.174420678375000e+00   6.777964878478794e-01   1.358136160800000e+01  7.41301850e-01  -2.55325182e+00  -6.32915170e-01
C     6.167488975125000e+00   6.918396163981303e-01   3.460595752000000e+00 -1.76087127e+00   1.83972900e+00  -6.98824400e-02
C     7.342072505999999e+00   1.377714947451242e+00   3.388078104000000e+00  5.38501451e+00   3.32440576e+00   2.77747300e-01
C     8.642910576075000e+00   2.161774724266958e+00   1.350477429600000e+01 -7.82132700e-01  -8.54095170e-01   3.36782500e-01
C     2.451855917475000e+00   2.895403083840267e+00   1.347168359200000e+01  1.55164333e+00  -1.55563714e+00  -9.56992680e-01
C     2.424607450050000e+00   2.991796066551693e+00   3.368598824000000e+00  5.04364352e+00  -5.05843549e+00   8.41197600e-01
C     3.733442399175000e+00   3.567919837465784e+00   3.513653023999999e+00 -2.05894710e+00   2.93585569e+00  -1.04452734e+00
C     3.702465076950000e+00   2.161836269184993e+00   1.334205192800000e+01 -6.85564680e-01  -1.03523751e+00   2.60501536e+00
C     4.916559279374999e+00   2.835246352739401e+00   7.309183999999999e-02  5.94435050e-01  -2.09824322e+00  -1.62849170e+00
C     4.920286174499999e+00   2.828050336480169e+00   3.495478256000000e+00 -6.54404240e-01  -1.78053798e+00   2.12402160e-01
C     6.106900482975000e+00   3.506445110097330e+00   3.513408496000000e+00  4.88819543e+00   1.67294322e+00  -1.08958356e+00
C     6.179751253200000e+00   2.023891757009523e+00   5.830483200000000e-02 -9.72697480e-01   4.77820848e+00   7.83499500e-02
C     7.376784820874999e+00   2.814966757885082e+00   1.358666574400000e+01 -3.60555800e-02  -1.05480940e+00   3.39629730e-01
C     7.432270984875000e+00   2.867322334401525e+00   3.362114072000000e+00 -3.41105506e+00  -2.48372415e+00   5.10124790e-01
C     8.642328626550000e+00   3.608818516883580e+00   3.320444216000000e+00 -2.78017564e+00   1.19564724e+00   1.18498861e+00
C     2.486719053375000e+00   4.285242828442376e+00   1.344649992800000e+01 -3.41248999e+00   9.19646150e-01   7.69631500e-02
C     3.685427847374999e+00   4.975277660932980e+00   1.341248347200000e+01  1.82938865e+00  -5.25033400e-01   1.27994315e+00
C     3.771799931400000e+00   5.052762584653384e+00   3.464124680000000e+00 -1.04781696e+00  -1.66531270e+00   2.56578890e-01
C     5.014105023525000e+00   5.745202151927839e+00   3.405498344000000e+00 -4.29002200e-01  -2.19050315e+00   7.00021150e-01
C     4.899961460700000e+00   4.226614985820428e+00   4.639191199999999e-02  7.20688940e-01   2.11893607e+00  -6.06656510e-01
C     6.141959068724999e+00   4.978978169209645e+00   6.429413600000000e-02 -7.35855500e-01  -3.05727870e-01  -2.40416640e-01
C     6.206060222850000e+00   4.926505843072414e+00   3.445887896000000e+00 -2.18352489e+00   1.52889447e+00  -1.13079140e-01
C     7.358872836749999e+00   5.713308243316675e+00   3.414541256000000e+00  2.07005950e+00  -1.62662251e+00   9.39924780e-01
C     7.313962595025000e+00   4.221358819266990e+00   2.490364000000000e-02  2.30190403e+00   1.62151899e+00  -6.09430920e-01
C     8.558807647800000e+00   4.993452112186138e+00   1.348863164000000e+01  1.66299380e+00  -2.11968124e+00   7.37969440e-01
C     8.641243890975000e+00   4.990795690068389e+00   3.546543400000000e+00 -3.03575860e-01   2.68504234e+00  -1.76461202e+00
C     9.891008763300000e+00   5.737800687076458e+00   3.507974208000000e+00 -1.58304310e-01  -3.83485953e+00   1.05155100e-01
C     2.429194642500000e-02   2.797872961103220e-02   6.964145471999999e+00  5.09466210e-01  -2.09945028e+00   5.42558200e-02
C     1.217994251475000e+00   7.361312075875759e-01   6.883534056000000e+00  1.85219719e+00  -2.71653630e-01  -6.17183990e-01
C     1.140024292500000e+00   6.584907884863308e-01   1.020285518400000e+01  6.99676167e+00   3.67759560e-01   2.36767100e-02
C     2.472081168524999e+00   1.412113177055982e+00   1.014718127200000e+01 -1.12865738e+00  -1.76776191e+00   1.07289870e+00
C     2.487850858124999e+00   3.877233772311901e-02   6.688269200000000e+00 -1.19834588e+00  -9.54953850e-01   9.76612110e-01
C     3.791878687500000e+00   6.626951837714209e-01   6.602732136000000e+00 -1.66246440e+00  -5.47264000e-02   9.20779400e-01
C     3.713689651650000e+00   6.746620519234596e-01   1.034423711200000e+01 -3.19728296e+00   1.80716920e-01  -1.37420676e+00
C     4.887886719825000e+00   1.404059566626717e+00   1.023383000000000e+01  2.70500629e+00  -2.60342250e-01   8.73923270e-01
C     5.009444213850000e+00   3.143594013159600e-03   6.839270272000000e+00  1.07983662e+00  -2.97354010e-01   3.07061780e-01
C     6.275541683175000e+00   7.969071023383471e-01   7.009224440000001e+00 -4.47342117e+00  -2.36496738e+00  -1.73771018e+00
C     6.165996479249999e+00   7.293116336053548e-01   1.028253078400000e+01 -1.34882310e-01   1.96742300e-02  -7.22645330e-01
C     7.455341166375000e+00   1.394735351438029e+00   1.019578291200000e+01 -5.89291071e+00   3.90079069e+00  -4.31070900e-01
C     8.608869468375000e+00   2.136824632240498e+00   6.894598200000000e+00 -1.32405590e-01   2.30339149e+00  -1.60199906e+00
C     2.486912987250000e+00   2.777815593996643e+00   6.693464128000000e+00 -1.49768536e+00   1.22543790e-01   1.17363261e+00
C     2.472101985450000e+00   2.827663263135111e+00   1.012366823200000e+01 -8.03513490e-01  -1.16474444e+00   2.17198070e-01
C     3.672643999950000e+00   3.488780950110456e+00   1.010034246400000e+01  2.35115018e+00   2.86012765e+00   3.62439950e-01
C     3.717226828050000e+00   2.051098837591003e+00   6.600575584000000e+00  1.00705775e+00   2.88249361e+00   8.23382250e-01
C     4.932070070025000e+00   2.831167737078681e+00   6.741717608000000e+00 -2.35344360e+00   8.49193180e-01  -1.18646800e-01
C     4.930030233225000e+00   2.802524181459202e+00   1.018783752000000e+01 -1.61812075e+00   7.47318200e-01  -8.24993760e-01
C     6.143033081550000e+00   3.541977533769075e+00   1.014448072000000e+01  1.11804559e+00  -1.36321788e+00   2.10022040e-01
C     6.134494075049999e+00   2.168199539794688e+00   6.797992231999999e+00  3.51490761e+00   2.11058994e+00   7.85413040e-01
C     7.389994509375000e+00   3.004364102389049e+00   6.800231200000001e+00 -3.35383840e-01  -6.27607972e+00   6.31701620e-01
C     7.419504811500000e+00   2.905399938231991e+00   1.010073863200000e+01  5.25698390e-01  -2.73270447e+00   1.27232472e+00
C     8.669719484700000e+00   3.582694780561697e+00   1.023008932000000e+01 -1.85237123e+00  -4.38210860e-01  -7.63541200e-01
C     9.799338383624999e+00   4.189587296023530e+00   6.865924232000000e+00  3.92051610e+00   6.51948700e-01  -6.46607130e-01
C     3.685080393300000e+00   4.942097393088056e+00   6.885986680000000e+00 -4.09542725e+00   2.80165324e+00   4.21025530e-01
C     3.689927741850000e+00   4.975804667312279e+00   1.008949020800000e+01 -2.02796099e+00  -1.26831640e+00   1.14889179e+00
C     4.878633763050000e+00   5.668557979179296e+00   1.023484075200000e+01  1.35261425e+00  -1.44322143e+00  -6.95462650e-01
C     4.848177825300001e+00   4.307424295753379e+00   6.863931424000000e+00  4.00375090e+00  -2.96419971e+00  -7.91854290e-01
C     6.078510079650000e+00   5.040948265923570e+00   6.814163448000000e+00  2.30948055e+00  -1.38203930e-01  -7.64986280e-01
C     6.149391154649999e+00   4.913838349110491e+00   1.024317687200000e+01 -1.77883741e+00   2.71540110e+00   2.69256910e-01
C     7.337708235825000e+00   5.637170135024228e+00   1.037730415200000e+01  2.26921101e+00   7.34301380e-01  -3.22597610e-01
C     7.382258119200000e+00   4.350230227204462e+00   6.749849999999999e+00 -1.40068704e+00   1.04761456e+00   6.32098700e-01
C     8.654277208725000e+00   4.948661821437134e+00   6.864658479999999e+00 -1.07721556e+00   2.66658186e+00  -3.38314700e-01
C     8.624068781624999e+00   4.986002615400808e+00   1.035862808800000e+01 -6.90015030e-01   1.89062110e-01  -8.70014500e-01
C     9.821533884525000e+00   5.732698863137447e+00   1.022542248000000e+01  1.79157036e+00  -1.28342238e+00   2.63703330e-01
