72
Lattice="7.395 0 0 3.6975 6.40425786098592 0 0 0 13.6 " PBC="1 1 1" Properties=species:S:1:pos:R:3:force:R:3 Energy="-577.40276002"
C     3.647856255750000e+00   6.221377744464683e+00   1.351811548800000e+01  8.97506440e-01   6.68748490e-01   5.81305150e-01
C     1.169871473850000e+00   5.642955549447217e-01   1.353732045600000e+01  1.18826829e+00  -6.97653320e-01   5.37959000e-03
C     1.380033861225000e+00   9.283810085423874e-01   3.488448552000000e+00 -9.75523210e-01   2.26137270e+00   4.61883600e-02
C     2.587073344575000e+00   1.690486925371445e+00   3.454120520000000e+00  1.84475674e+00  -2.51658692e+00   5.93034490e-01
C     6.091953967800000e+00   6.232825611559748e+00   1.359270686400000e+01  2.15774157e+00  -2.91300910e-01  -2.77772240e-01
C     3.680891347650000e+00   5.425584790866240e-01   1.352594310400000e+01 -4.25537480e-01  -2.42441670e-01   7.43958580e-01
C     3.869145123150000e+00   9.959249870421852e-01   3.554443096000000e+00 -1.49251188e+00  -1.85722620e+00  -3.19792540e-01
C     5.097561591824999e+00   1.735484906202848e+00   3.586947504000000e+00 -1.54067575e+00  -1.72660725e+00   8.39719700e-02
C     8.647318328850000e+00   6.260649934513776e+00   1.356869892000000e+01 -4.10105990e-01  -1.17961958e+00   2.36860600e-02
C     6.194389618724999e+00   6.303199311394987e-01   2.819824000000000e-02 -2.75678006e+00  -3.07860663e+00  -6.90333830e-01
C     6.260739222600000e+00   1.011263568872357e+00   3.595271928000000e+00  3.33348547e+00  -2.27316943e+00  -2.70167790e-01
C     7.553122441275001e+00   1.701663764273874e+00   3.496202864000000e+00 -2.28517994e+00  -9.09113180e-01   3.02913310e-01
C     1.197160798650000e+00   2.028158785936483e+00   1.351761079200000e+01  1.02753956e+00  -4.40485818e+00   2.26779780e-01
C     2.435953894350000e+00   2.660030532798038e+00   1.341851412000000e+01  5.05915810e-01   3.46609100e-02   5.33160720e-01
C     2.609242149525000e+00   3.085298679605743e+00   3.495588688000000e+00 -2.81280000e-01  -6.53902570e-01  -2.27838530e-01
C     3.830950687650000e+00   3.747713933266103e+00   3.573839416000000e+00  1.27246879e+00   2.87070630e+00   4.83668710e-01
C     3.658734300750000e+00   1.986296970179122e+00   1.353298083200000e+01  2.23564153e+00  -1.08396525e+00  -2.34519420e-01
C     4.939605094350000e+00   2.732360221068879e+00   5.594047199999999e-02 -2.05818444e+00  -1.47061128e+00  -6.20921800e-02
C     5.108383730625000e+00   3.108108596740548e+00   3.627416616000000e+00 -1.00198995e+00   2.87896753e+00  -7.30658350e-01
C     6.316219026899999e+00   3.948223177497799e+00   3.563969623999999e+00 -1.75953073e+00  -8.21634825e+00  -2.71788900e-02
C     6.175074396375000e+00   2.038429614479458e+00   1.150100320000000e-01 -2.39721274e+00  -2.69299301e+00  -9.56245800e-02
C     7.388533811999999e+00   2.626228859812959e+00   1.265063840000000e-01  3.60800650e-01   3.68165349e+00  -7.45516140e-01
C     7.473396465600000e+00   3.131577704136882e+00   3.459871416000000e+00  3.94539876e+00   2.71847560e-01   4.42423460e-01
C     8.803424856149999e+00   3.773514126480899e+00   3.476170064000000e+00 -2.89153718e+00   1.49821223e+00   1.09152600e-02
C     2.476506299550000e+00   4.048583405825759e+00   1.340264999200000e+01 -8.91723390e-01   7.93424580e-01   7.25962160e-01
C     3.669426509400000e+00   4.755412251787797e+00   1.349235640800000e+01 -3.31988170e-01   3.55036216e+00   1.07009930e-01
C     3.809296648649999e+00   5.220223937050122e+00   3.637766352000000e+00 -5.84387810e-01  -3.29298970e-01  -5.84465240e-01
C     5.043554132024999e+00   5.933299688256541e+00   3.582762104000000e+00 -1.21506910e+00   5.67013080e-01  -6.59387500e-02
C     4.884663128400000e+00   4.144034001993086e+00   7.523384000000000e-02  1.23853260e+00  -2.24189440e+00  -4.11282690e-01
C     6.133623239849999e+00   4.767687933253846e+00   1.132518240000000e-01  5.24110150e-01   2.63101012e+00  -4.46823510e-01
C     6.250741848150000e+00   5.253323575288589e+00   3.553619480000000e+00  2.20437921e+00   3.16292421e+00   7.41119500e-02
C     7.536864164024999e+00   5.858288281049404e+00   3.555297040000000e+00 -8.61724530e-01   5.43339675e+00  -2.51033630e-01
C     7.354019720100000e+00   4.019111523494668e+00   8.798601600000000e-02  2.12135990e+00   3.41546192e+00  -2.44598190e-01
C     8.669349993525000e+00   4.740562250789766e+00   1.353894892000000e+01 -3.01950680e+00   2.69246623e+00   1.51892840e-01
C     8.756616835574999e+00   5.213131925938537e+00   3.541580352000000e+00  3.40213270e-01  -1.52403131e+00   1.26941030e-01
C     9.944781690675001e+00   5.950023639146989e+00   3.612154288000000e+00  1.96637557e+00   9.78612860e-01  -1.47474750e-01
C     7.382684477925000e+00   1.575077907881478e-01   7.109399727999999e+00  3.37042970e-01   9.86307400e-02  -8.97114030e-01
C     1.200653050425000e+00   8.619855056046234e-01   6.943356511999999e+00  2.71840574e+00  -6.84999060e-01  -5.19301940e-01
C     1.100676163050000e+00   4.906877048901829e-01   9.944762816000001e+00 -3.96504530e-01  -1.41003905e+00   1.26466360e-01
C     2.315903908050000e+00   1.207988024793951e+00   9.939760872000001e+00  9.19447100e-01  -9.55476030e-01   1.24684450e-01
C     2.497089986250000e+00   1.054920882363348e-01   6.833608320000000e+00 -1.53053218e+00   2.30685383e+00   2.00966870e-01
C     3.672589387875000e+00   9.002135454522210e-01   6.778596592000000e+00  1.14508584e+00  -3.38588910e-01   4.03535970e-01
C     3.561835840950000e+00   4.850463222264660e-01   1.004818129600000e+01  1.54539843e+00   2.47454240e-01   1.01470300e-02
C     4.870093980075000e+00   1.204520055120182e+00   1.003086536800000e+01 -6.18807206e+00  -5.90226740e-01  -5.20557630e-01
C     4.905551415150000e+00   1.127953758147216e-01   6.928514832000000e+00 -7.13558560e-01   2.09214802e+00  -2.87213130e-01
C     6.139416187049999e+00   7.822757427036553e-01   7.022328040000001e+00 -1.76260000e-04   3.74810000e+00  -4.39438100e-01
C     5.983811299575000e+00   4.876589392204531e-01   1.003571948000000e+01  2.93655082e+00  -2.72701484e+00   8.86244200e-02
C     7.228818820499999e+00   1.099860200192754e+00   9.936765063999999e+00  1.52050272e+00   3.18766323e+00   5.95199840e-01
C     8.663739000300000e+00   2.275279115469360e+00   6.851195296000000e+00 -7.14631610e-01   4.27896980e-01   4.87398440e-01
C     2.480648165100000e+00   3.060227226892836e+00   6.793002528000000e+00 -6.16505000e-02   8.05094600e-02   1.71985180e-01
C     2.324842355475000e+00   2.613491623482940e+00   9.845354975999999e+00  5.69476990e-01   3.77585090e-01   4.58626710e-01
C     3.581441501925000e+00   3.302829928888690e+00   9.830101488000000e+00 -1.32334324e+00   4.14371030e-01   4.13042000e-01
C     3.711810064500000e+00   2.401035556426307e+00   6.737986176000000e+00 -1.14500864e+00  -4.61867929e+00   3.97397160e-01
C     4.950938893199999e+00   2.985274738858012e+00   6.809421535999999e+00  1.14932307e+00   2.81230049e+00   2.53642640e-01
C     4.788866745450000e+00   2.561854284485496e+00   9.846744623999999e+00  1.42956534e+00   2.87835440e+00   1.15698696e+00
C     6.001511527875000e+00   3.288362582297793e+00   9.976574983999999e+00  1.90071016e+00   1.69511832e+00   1.42294100e-02
C     6.168805580925000e+00   2.271028033144471e+00   6.930386192000000e+00 -1.99279490e-01  -1.47250617e+00  -1.88734790e-01
C     7.408534218074999e+00   2.981453510320685e+00   6.942015143999999e+00  8.17102500e-01  -2.01280405e+00  -5.39826940e-01
C     7.268091336074999e+00   2.533629119032011e+00   9.985899416000001e+00 -1.24553638e+00   2.17760018e+00  -3.95294510e-01
C     8.501840524125001e+00   3.321895020282439e+00   9.915712672000000e+00 -4.04041960e-01  -2.03499983e+00   7.45522710e-01
C     9.907579627200001e+00   4.503307616447640e+00   6.941380024000000e+00 -2.10944329e+00  -3.18376942e+00  -2.24475980e-01
C     3.689581692825000e+00   5.166000686813967e+00   7.052405663999999e+00  3.76540856e+00  -4.33610690e-01  -1.13322537e+00
C     3.561514454250000e+00   4.720436037911194e+00   9.919695568000000e+00  5.05456900e-02   1.46687812e+00   2.60987560e-01
C     4.820397250649999e+00   5.471185796617741e+00   9.951459048000000e+00 -1.29463377e+00   3.29713120e-01   4.39491700e-01
C     4.972660559474999e+00   4.457081363001267e+00   6.856386143999999e+00 -1.07041585e+00  -1.64668767e+00   6.01643530e-01
C     6.221707747049999e+00   5.091694068184323e+00   6.850587784000001e+00  5.15966510e-01   3.41596490e-01   3.05386240e-01
C     6.047505248024999e+00   4.844740569568700e+00   1.004387648800000e+01  4.17268530e-01  -5.22608332e+00  -4.10893340e-01
C     7.312860148424999e+00   5.461743166701222e+00   1.010564904800000e+01 -1.25071255e+00   8.54742760e-01  -1.53084330e-01
C     7.490148728849999e+00   4.348464957567931e+00   6.901931456000001e+00 -3.11242570e+00   2.47587351e+00  -2.50366740e-01
C     8.650475402249999e+00   5.123938609913324e+00   6.958068584000000e+00 -1.87619400e-02  -1.17138360e-01  -2.90968070e-01
C     8.545125751575000e+00   4.708506762752793e+00   1.006411940800000e+01 -3.31546037e+00   9.38795150e-01  -1.94445930e-01
C     9.661668848474999e+00   5.474677462045593e+00   1.003474395200000e+01  4.34532205e+00  -1.51391930e+00  -2.31909880e-01
