72
Lattice="7.395 0 0 3.6975 6.40425786098592 0 0 0 13.6 " PBC="1 1 1" Properties=species:S:1:pos:R:3:force:R:3 Energy="-574.12090838"
C     3.633284851950000e+00   6.220085493313693e+00   1.355201430400000e+01 -1.96528120e-01   1.39888559e+00   1.06160347e+00
C     1.185352166850000e+00   4.999541536729740e-01   1.350092427200000e+01  4.32576240e-01  -3.92205430e-01   5.11562320e-01
C     1.341440317575000e+00   9.833646363142602e-01   3.338909616000000e+00  1.18505200e-01  -1.31130004e+00   1.18820949e+00
C     2.665685744175000e+00   1.592062191853934e+00   3.177047992000000e+00 -2.77443230e+00   3.20364105e+00   1.91735876e+00
C     6.139545488625000e+00   6.213593048822960e+00   8.111611199999999e-02 -8.12751930e-01  -2.61520810e-01  -7.17755700e-02
C     3.670475379225000e+00   4.847592193466023e-01   4.704335200000000e-02  8.51987180e-01   1.31742026e+00   3.12955300e-01
C     3.882833083275000e+00   9.848237824250827e-01   3.469169056000000e+00  1.20512611e+00   1.20236246e+00  -5.67909120e-01
C     5.093348068725000e+00   1.735643859882933e+00   3.557788696000000e+00  9.00337130e-01   3.46507680e-01   1.14293950e+00
C     8.632365084224999e+00   6.248038221637813e+00   7.116322400000000e-02 -2.05757852e+00  -1.53594284e+00   8.15511960e-01
C     6.080323962225000e+00   5.823492218946402e-01   1.062024000000000e-01  3.54170735e+00   3.46216570e-01  -3.83969240e-01
C     6.355511028300000e+00   9.986143910879137e-01   3.716676952000000e+00 -3.39580654e+00   1.39252735e+00  -1.04863926e+00
C     7.511863665675000e+00   1.706594146229973e+00   3.466352224000000e+00  2.79397459e+00   1.58979951e+00  -4.99656720e-01
C     1.212655320300000e+00   1.899929404849476e+00   1.340467856800000e+01 -1.06209331e+00   2.30519919e+00   1.95046180e+00
C     2.452628547075000e+00   2.610224939633712e+00   1.321001415200000e+01  4.69944230e-01  -3.75336200e-02   2.47360970e+00
C     2.620889977050000e+00   3.041218877223728e+00   3.341451728000000e+00  1.23708255e+00   5.39029460e-01  -1.01329790e-01
C     3.861340255275000e+00   3.816139778073223e+00   3.531215928000000e+00 -2.88081559e+00   2.79100640e-01   1.16970455e+00
C     3.714709052400000e+00   1.893363887776561e+00   1.358390807200000e+01 -2.40342144e+00   1.74860243e+00  -2.43802341e+00
C     4.879882223925000e+00   2.683045706397256e+00   7.781457600000000e-02  1.28126170e+00  -2.16048490e-01   1.33145195e+00
C     5.120965620600000e+00   3.217089276360960e+00   3.661371600000000e+00 -1.86942676e+00  -4.75272305e+00  -2.03940581e+00
C     6.309629897024999e+00   3.826809912093769e+00   3.483564248000000e+00  2.98498568e+00   5.10502995e+00   4.61012120e-01
C     6.119498309174999e+00   2.014107652063907e+00   2.836016160000000e-01  8.55187440e-01  -1.18777797e+00  -7.77899620e-01
C     7.410722398575000e+00   2.688035519866297e+00   3.454080400000000e-01  3.41521650e-01  -1.60270556e+00  -3.59739196e+00
C     7.576948761524999e+00   3.168938799597972e+00   3.335529744000000e+00 -4.74553043e+00  -3.36162153e+00   1.12323611e+00
C     8.762791882424999e+00   3.788942431963689e+00   3.389501072000000e+00  3.79257386e+00   6.85094070e-01  -7.06310190e-01
C     2.442624886875000e+00   4.043019834895041e+00   1.329446838400000e+01  4.36954000e-03   1.53378738e+00   2.78090569e+00
C     3.663157472100000e+00   4.821749347893879e+00   1.355223584800000e+01  3.37088560e-01  -2.22616615e+00  -9.13225310e-01
C     3.744537524400000e+00   5.215477613464920e+00   3.804248440000000e+00  2.13587848e+00   1.26090852e+00  -1.52322889e+00
C     4.961097071925000e+00   5.975098358031403e+00   3.663652320000000e+00  2.99903650e+00   7.54079510e-01  -1.11555166e+00
C     4.915573710749999e+00   4.097116536995882e+00   1.322325280000000e-01 -4.71429910e-01   1.52065073e+00   1.61070500e-02
C     6.170543258025000e+00   4.834891589490963e+00   3.604186320000000e-01 -8.39528320e-01  -1.86484240e+00  -2.09611861e+00
C     6.296434037175000e+00   5.387146243062785e+00   3.528832936000000e+00 -1.42887841e+00  -4.48134766e+00   3.77092740e-01
C     7.554889439549999e+00   6.012542580759515e+00   3.523307800000000e+00  6.65912600e-01  -3.23523555e+00  -9.26926300e-01
C     7.436976090600000e+00   4.099771101878853e+00   2.449222640000000e-01 -1.21766840e+00   7.35824210e-01   1.39312628e+00
C     8.647268634449999e+00   4.818431686152085e+00   1.394209440000000e-01  8.82645000e-01  -1.53145598e+00  -2.84627034e+00
C     8.792676371550000e+00   5.177938671763058e+00   3.436840632000000e+00 -9.03047660e-01   4.72899323e+00   2.18239422e+00
C     9.979115159699999e+00   6.012178050402124e+00   3.750754880000000e+00 -8.08812210e-01  -4.04856528e+00  -1.30804509e+00
C     7.380806369774999e+00   1.923702650451582e-01   7.073669128000000e+00  8.03475240e-01  -9.08370450e-01  -1.60286515e+00
C     1.264041585375000e+00   8.388488432338014e-01   6.812821944000000e+00 -2.48756108e+00   1.51434943e+00  -2.22304200e-02
C     1.101198545850000e+00   4.566143632866816e-01   1.004270607200000e+01  1.09157539e+00   1.29126947e+00  -5.98860840e-01
C     2.342240498025000e+00   1.180161204179357e+00   9.856292639999999e+00 -6.07745160e-01   3.52961700e-01   2.25050680e-01
C     2.449951668000000e+00   1.577031846954564e-01   6.826935072000000e+00  1.78118583e+00  -2.02585065e+00  -4.45494900e-01
C     3.622898093775000e+00   9.528236271760208e-01   6.778710832000000e+00  3.55328740e-01  -1.35182746e+00  -1.46657020e-01
C     3.593713097699999e+00   4.896824925764773e-01   9.942766880000001e+00 -3.56637098e+00  -1.20331244e+00   6.82621840e-01
C     4.717575950475000e+00   1.184164249597329e+00   1.003674519200000e+01  6.78863963e+00   1.38508085e+00  -4.09903560e-01
C     4.789510406250000e+00   1.921769205003648e-01   6.920050872000001e+00  3.20844387e+00  -1.35624052e+00  -2.90333570e-01
C     6.067649782649999e+00   8.499400572086424e-01   6.929909920000000e+00  1.15820951e+00  -1.71339549e+00   6.64685060e-01
C     6.033768998549999e+00   3.868146130408560e-01   1.020561394400000e+01 -1.05909344e+00   2.13957406e+00  -8.56465060e-01
C     7.260131690850000e+00   1.144573703890016e+00   1.009558640800000e+01 -1.71813043e+00  -7.98302930e-01   1.06327039e+00
C     8.660297145450000e+00   2.271227653861967e+00   6.596383792000000e+00  4.63729900e-01   1.43035370e-01   1.92394862e+00
C     2.469113185275000e+00   3.128935499471582e+00   6.657902711999999e+00 -1.90899540e-01  -3.46561680e+00  -7.91963830e-01
C     2.321794802025000e+00   2.624932189724044e+00   9.729200640000000e+00 -2.79083800e-01  -2.18211767e+00   9.92008440e-01
C     3.560539756275000e+00   3.315968007718166e+00   9.777203063999998e+00  1.16133159e+00   9.92515000e-01   7.05859620e-01
C     3.672013539225000e+00   2.350519987235620e+00   6.635876696000000e+00  1.44925144e+00   1.99761117e+00   8.94295260e-01
C     4.981716994125000e+00   3.070321938344661e+00   6.715786624000000e+00 -2.01628309e+00  -5.01360960e+00   3.26691150e-01
C     4.827022542074999e+00   2.641346943045010e+00   9.838152280000001e+00 -1.91876916e+00  -1.72132172e+00   1.69824154e+00
C     6.039150598875000e+00   3.328559162926398e+00   1.012527792800000e+01 -9.75844940e-01  -5.45593150e-01   3.61243200e-02
C     6.151064199449999e+00   2.210206604120315e+00   6.868771664000000e+00 -1.91263000e-02   3.35853712e+00  -9.32673050e-01
C     7.424960694599999e+00   2.856986182428378e+00   6.819008176000000e+00 -6.21753400e-01   3.45514015e+00  -4.49193720e-01
C     7.195595969549999e+00   2.549700924344574e+00   1.020384145600000e+01  3.05509387e+00   2.76468310e-01  -2.26258250e+00
C     8.443748805824999e+00   3.230468219328551e+00   9.893131639999998e+00 -3.96215680e-01   2.55281080e+00   2.06765938e+00
C     9.876081623025000e+00   4.507073256026741e+00   6.806995023999999e+00  1.73319663e+00   4.52273970e-01   1.25202035e+00
C     3.815756550900000e+00   5.174061149799142e+00   7.028626743999999e+00 -4.03743649e+00  -1.37207380e-01  -1.72707284e+00
C     3.591033038775000e+00   4.733102443149281e+00   1.003493149600000e+01  9.00005450e-01  -1.10549760e+00  -6.82616580e-01
C     4.820533910249999e+00   5.469869977797826e+00   1.005358498400000e+01  5.77058720e-01  -2.15785170e+00   9.41060360e-01
C     4.983922478924999e+00   4.421430268431377e+00   6.781734792000000e+00  1.50757905e+00   2.42226735e+00   8.26634270e-01
C     6.275924189550000e+00   5.073397871989247e+00   6.803902928000000e+00 -3.45804778e+00   2.70966851e+00   7.62523670e-01
C     6.077175947699999e+00   4.729710427973731e+00   1.019598582400000e+01 -1.06668270e+00   2.04375858e+00  -1.51780334e+00
C     7.302791966850000e+00   5.483511431295097e+00   1.012029856000000e+01 -1.16107500e+00  -1.86367274e+00   2.18835350e-01
C     7.438472653724999e+00   4.358525342197627e+00   6.873662768000000e+00  6.13935620e-01  -1.79326817e+00  -5.70239450e-01
C     8.615859998849999e+00   5.132030389719434e+00   6.918518696000000e+00 -3.41987250e-01   1.65557516e+00  -3.75109290e-01
C     8.452910471325000e+00   4.688127901901645e+00   1.008533799200000e+01  2.73886691e+00  -2.31191910e-01  -4.78044370e-01
C     9.776947358925000e+00   5.380047507480445e+00   1.015027132800000e+01 -3.40938292e+00   8.57499130e-01  -3.45714800e-01
