72
Lattice="7.395 0 0 3.6975 6.40425786098592 0 0 0 13.6 " PBC="1 1 1" Properties=species:S:1:pos:R:3:force:R:3 Energy="-575.45017011"
C     3.760524220275000e+00   6.361813448905115e+00   1.345922028000000e+01 -1.38607309e+00   2.10110054e+00   4.99600410e-01
C     1.261998790575000e+00   7.462642805439823e-01   1.351581763200000e+01  1.91360900e-02  -1.02971700e+00  -3.40661800e-01
C     1.329840742425000e+00   7.094670799874658e-01   3.450086488000000e+00 -4.21501689e+00   2.23437618e+00  -6.68605280e-01
C     2.459267223450000e+00   1.521021360477419e+00   3.441146391999999e+00 -2.43227530e-01   3.36048430e-01  -6.63231550e-01
C     2.505174902775000e+00   2.003309496928740e-02   1.352827373600000e+01 -2.75483044e+00  -2.13224825e+00   2.16605010e-01
C     3.674934933975000e+00   6.818610141413070e-01   1.341744828800000e+01  3.09769771e+00   2.94647426e+00   3.47186400e-01
C     3.607800979424999e+00   7.276865531733798e-01   3.418839128000000e+00  4.05070403e+00   5.07379200e-01   4.03659820e-01
C     4.945446700650000e+00   1.411044498546883e+00   3.466038064000000e+00 -2.65860789e+00  -1.14025900e-01  -1.13977580e-01
C     8.629676594999999e+00   6.389192227639822e+00   1.352170031200000e+01 -5.74628050e-01  -2.18163100e-01  -3.87359740e-01
C     6.205920753150000e+00   7.115877218926476e-01   1.357005198400000e+01 -5.05529980e-01  -4.78486211e+00  -7.03306050e-01
C     6.157773645974999e+00   7.176471104668866e-01   3.468410040000000e+00 -1.02810528e+00   3.64264080e-01   4.21957600e-02
C     7.344708379799999e+00   1.372262618479553e+00   3.391954376000000e+00  5.18913378e+00   3.80814706e+00   1.87683070e-01
C     8.622166676699999e+00   2.185028776684354e+00   1.349687854400000e+01  9.84193510e-01  -2.23790259e+00  -3.73908600e-02
C     2.443536579450000e+00   2.910530004948166e+00   1.342606973600000e+01  1.64323942e+00  -2.76673317e+00  -4.99354350e-01
C     2.421625046550000e+00   3.013604613927508e+00   3.372888400000000e+00  5.99290435e+00  -6.15360734e+00   8.08632880e-01
C     3.744472041675000e+00   3.555355452055407e+00   3.518098048000000e+00 -2.08964129e+00   3.52331041e+00  -8.35779920e-01
C     3.691934153250000e+00   2.176522769479859e+00   1.333529830400000e+01 -1.94335400e-01  -1.54496040e+00   2.20199865e+00
C     4.920297045150000e+00   2.852838272697614e+00   5.950394400000000e-02  3.15536740e-01  -3.13945459e+00  -1.34674961e+00
C     4.949509994325000e+00   2.823232861590141e+00   3.524362072000000e+00 -2.25507488e+00  -1.21549964e+00  -1.12149100e-01
C     6.097277813174999e+00   3.541972602490523e+00   3.519741744000000e+00  5.46065852e+00  -2.39690880e-01  -1.02785701e+00
C     6.205738725225000e+00   2.037619475860168e+00   7.399841600000000e-02 -2.45457098e+00   4.28481089e+00  -1.11793210e-01
C     7.384482128475000e+00   2.771540381932522e+00   1.358802003200000e+01 -6.69223970e-01   1.48698026e+00   4.29479260e-01
C     7.406432078400000e+00   2.874704970734797e+00   3.358203256000000e+00 -1.90573135e+00  -2.29661962e+00   6.20345500e-01
C     8.651005327949999e+00   3.610995964555980e+00   3.327559192000000e+00 -4.23495805e+00   1.23686642e+00   9.53211340e-01
C     2.508578488500000e+00   4.271709799030674e+00   1.341644297600000e+01 -4.95769425e+00   1.41839149e+00   1.57352610e-01
C     3.682997517600000e+00   4.944925257188717e+00   1.339582116000000e+01  2.52006422e+00   1.26720803e+00   1.21714320e+00
C     3.772747415775000e+00   5.052163594415738e+00   3.478499879999999e+00 -8.97989430e-01  -1.53286736e+00   2.92870860e-01
C     5.032133478900000e+00   5.735933205484483e+00   3.419097800000000e+00 -1.58012623e+00  -1.84128619e+00   5.72364870e-01
C     4.886560907250000e+00   4.226530705786990e+00   4.766881600000000e-02  1.30249961e+00   2.14862844e+00  -5.99160920e-01
C     6.134319848850000e+00   4.969002705039173e+00   7.591492800000001e-02 -3.47504080e-01  -2.45335180e-01  -4.49479640e-01
C     6.194453770350000e+00   4.927185719086832e+00   3.450572824000000e+00 -1.50810976e+00   1.92454044e+00  -8.16410000e-03
C     7.350251043225000e+00   5.686930834340957e+00   3.434896104000000e+00  2.73482380e+00   1.16980770e-01   6.28730260e-01
C     7.302070325775000e+00   4.175048093659443e+00   2.163855200000000e-02  2.57772030e+00   3.41086519e+00  -5.71092230e-01
C     8.565325748699999e+00   4.968780733461745e+00   1.347817582400000e+01  1.37145075e+00  -9.58170080e-01   6.75561800e-01
C     8.652824423999999e+00   4.981321423118040e+00   3.542971088000000e+00 -8.29776830e-01   3.40606683e+00  -1.34335529e+00
C     9.888890687400000e+00   5.753783793417660e+00   3.534593216000000e+00  5.88532200e-02  -4.05015519e+00  -2.13759750e-01
C     3.137424885000000e-02   2.685535873980960e-02   7.001674264000000e+00 -1.55935550e-01  -2.13348438e+00  -1.43216780e-01
C     1.213621846800000e+00   7.227123020509393e-01   6.892614095999999e+00  2.42122055e+00   7.62395110e-01  -7.00203880e-01
C     1.122006375000000e+00   6.625152241255549e-01   1.020517248800000e+01  8.97269305e+00  -1.00382351e+00   4.21007700e-02
C     2.473613227650000e+00   1.421609730823683e+00   1.015219491200000e+01 -1.12522739e+00  -2.24328334e+00   9.52743060e-01
C     2.489569419150000e+00   2.390440480307880e-02   6.681074528000000e+00 -1.17601861e+00  -1.51520800e-02   8.74325080e-01
C     3.799427762325000e+00   6.676468919061942e-01   6.574114744000000e+00 -1.85535127e+00  -1.87859530e-01   1.18970326e+00
C     3.728987281424999e+00   6.787133214031170e-01   1.034661180800000e+01 -4.18106346e+00  -6.13564650e-01  -9.78350200e-01
C     4.887306249300000e+00   1.403590198568158e+00   1.026283363200000e+01  2.74750952e+00  -6.00690280e-01   3.96149570e-01
C     8.702668720649999e+00   6.403927016038953e+00   6.852819816000000e+00  1.28627742e+00  -4.52819100e-02   4.12065600e-02
C     6.272033051474999e+00   7.911241855759242e-01   7.020474224000000e+00 -4.29429059e+00  -2.06566451e+00  -1.55294159e+00
C     6.151385253375000e+00   7.291390388560278e-01   1.028319392000000e+01  5.57859630e-01   2.33025220e-01  -4.73331490e-01
C     7.457314928850000e+00   1.365004160706186e+00   1.018909633600000e+01 -7.65095285e+00   5.96808559e+00  -4.15971920e-01
C     8.608957764675001e+00   2.147204653379986e+00   6.890087760000000e+00 -9.70638600e-02   1.72480541e+00  -1.47382098e+00
C     2.491057145250000e+00   2.789850091111683e+00   6.693340776000000e+00 -1.58200076e+00  -3.33612050e-01   8.95961870e-01
C     2.469173565450000e+00   2.830405950606234e+00   1.011023252000000e+01 -8.97738340e-01  -1.27918758e+00   3.35190250e-01
C     3.681504688950000e+00   3.463095136941040e+00   1.008762347200000e+01  1.67362854e+00   3.75708931e+00   2.88460820e-01
C     3.734858800500000e+00   2.066018965212602e+00   6.570644295999999e+00  5.48077900e-02   2.06402209e+00   9.68467250e-01
C     4.930731390149999e+00   2.823408658468398e+00   6.726422503999999e+00 -2.10457721e+00   1.57290025e+00   5.56413100e-02
C     4.921021126575000e+00   2.776726293777236e+00   1.016979086400000e+01 -8.64312000e-01   2.15634407e+00  -6.26483640e-01
C     6.138623369099999e+00   3.540339708863958e+00   1.013609944800000e+01  1.20845214e+00  -1.41962104e+00   3.23663870e-01
C     6.129604094325000e+00   2.164542260258578e+00   6.813673304000000e+00  3.72447102e+00   2.23150340e+00   5.91314440e-01
C     7.381169612174999e+00   3.028135298628640e+00   6.806188271999999e+00  1.09026890e-01  -7.61557465e+00   7.08661360e-01
C     7.424996079675000e+00   2.896805360141293e+00   1.010045384800000e+01 -2.78133300e-02  -2.42942695e+00   1.16203052e+00
C     8.660972863574999e+00   3.594230450032022e+00   1.022388064800000e+01 -1.27487804e+00  -1.39540395e+00  -7.33314840e-01
C     9.792239775224999e+00   4.195563365203010e+00   6.866393296000000e+00  4.72049898e+00   2.84689340e-01  -4.61472890e-01
C     3.675987501300000e+00   4.948762688498429e+00   6.908161072000000e+00 -3.62114645e+00   2.58669277e+00   3.61855150e-01
C     3.679403547600000e+00   4.971475388998919e+00   1.008412283200000e+01 -1.66008994e+00  -1.09854718e+00   1.15496224e+00
C     4.864779785174999e+00   5.670858708815500e+00   1.022868688800000e+01  1.68495047e+00  -1.61984281e+00  -5.30713330e-01
C     4.838989500825000e+00   4.314929381496935e+00   6.867608456000000e+00  4.29528492e+00  -3.22321704e+00  -9.09404730e-01
C     6.079948148324999e+00   5.040268325866574e+00   6.803969296000000e+00  2.29497043e+00  -3.10821800e-01  -5.68721740e-01
C     6.151484642174999e+00   4.922177013057104e+00   1.025661489600000e+01 -1.88126074e+00   1.86870906e+00   1.15806030e-01
C     7.359245766600000e+00   5.614199022719087e+00   1.041158934400000e+01  1.15999423e+00   2.03037478e+00  -6.31938420e-01
C     7.401978735449999e+00   4.358588808393019e+00   6.751694432000000e+00 -2.42079177e+00   1.20561063e+00   4.93195450e-01
C     8.663620976099999e+00   4.940314960040460e+00   6.871057144000000e+00 -1.62009014e+00   3.52800155e+00  -2.70977300e-01
C     8.627264272049999e+00   4.980357326139796e+00   1.037481848000000e+01 -6.23023160e-01   5.47144220e-01  -7.83978880e-01
C     9.807879238875000e+00   5.756882493583221e+00   1.023906980800000e+01  2.16242490e+00  -2.88118798e+00   5.54208400e-02
