72
Lattice="7.395 0 0 3.6975 6.40425786098592 0 0 0 13.6 " PBC="1 1 1" Properties=species:S:1:pos:R:3:force:R:3 Energy="-574.22050946"
C     3.668625224175000e+00   6.244675730090998e+00   8.778840800000000e-02  2.89660110e-01  -2.88751584e+00  -1.02899265e+00
C     1.234684507650000e+00   4.344109293712188e-01   1.352277090400000e+01 -6.36040330e-01   3.14105449e+00   9.83138550e-01
C     1.369379367075000e+00   9.829898591442930e-01   3.278810264000000e+00  4.47725170e-01   1.13655135e+00   7.81628950e-01
C     2.592141101100000e+00   1.692212936907293e+00   3.072665680000000e+00  2.72383217e+00   6.44105940e-01   1.31796416e+00
C     6.163131138599999e+00   6.195813612194606e+00   1.690833600000000e-01 -8.31084940e-01  -4.26612120e-01   5.10076800e-02
C     3.660760234950000e+00   5.329274999464417e-01   2.040633760000000e-01 -2.57720730e-01  -3.13018830e-01  -1.51958523e+00
C     3.896245727550000e+00   1.074157479782587e+00   3.308347288000000e+00 -2.55172776e+00  -3.81998372e+00   8.72853080e-01
C     5.112508402800001e+00   1.737788069457040e+00   3.607348048000000e+00 -1.70318890e+00  -6.42500120e-01  -1.53634071e+00
C     8.565209203500000e+00   6.202682947260400e+00   2.566525360000000e-01  2.78630405e+00   5.99259820e-01  -1.07785356e+00
C     6.131371536300000e+00   4.929130564113756e-01   1.655919680000000e-01 -5.93447160e-01   8.97890480e-01   8.57961210e-01
C     6.301526345099999e+00   1.012794955011840e+00   3.734064280000000e+00  1.85400180e+00  -8.44406100e-01  -8.87231400e-01
C     7.548570153225000e+00   1.728298176117513e+00   3.424349032000000e+00 -1.09827166e+00  -2.31439114e+00   5.50643330e-01
C     1.228809512925000e+00   1.892286883732245e+00   1.344873889600000e+01 -1.22433489e+00   1.43292778e+00   9.45751240e-01
C     2.455641824700000e+00   2.614939305972193e+00   1.324061347200000e+01 -1.29309198e+00   1.91250790e+00   1.85882746e+00
C     2.665244040825000e+00   3.130552318410917e+00   3.168317472000000e+00 -2.57791803e+00   1.09219564e+00   1.08185030e+00
C     3.783969993825000e+00   3.868024001211170e+00   3.581968000000000e+00  4.00980652e+00  -5.77295630e-01  -9.63371600e-01
C     3.656115620325000e+00   1.927119642232785e+00   1.343979200000000e+01  2.02104874e+00  -1.22053410e-01   2.13164272e+00
C     4.886508069974999e+00   2.625749885367609e+00   2.247809360000000e-01 -4.62524500e-02   8.69849770e-01  -1.09335200e+00
C     5.040335088525000e+00   3.112203094960760e+00   3.491347800000000e+00  2.15252021e+00   3.91366603e+00   1.11539716e+00
C     6.351488998724999e+00   3.881368681399209e+00   3.465800200000000e+00 -2.65459887e+00  -3.39736191e+00   3.65089870e-01
C     6.134717921699999e+00   1.889257989977358e+00   3.799903920000000e-01  4.76736330e-01   2.32500044e+00  -1.48620468e+00
C     7.388733587925000e+00   2.667721726275006e+00   2.676036640000000e-01  1.54791940e-01  -5.35843290e-01   1.39631100e-01
C     7.536198429149999e+00   3.100078361852472e+00   3.297338904000000e+00  2.13111296e+00   3.58891859e+00   9.59080700e-02
C     8.854539576824999e+00   3.871674684361685e+00   3.220197664000000e+00 -3.14951366e+00  -1.65726260e-01   1.17309819e+00
C     2.445713778375000e+00   4.108376823378228e+00   1.343354375200000e+01  6.75707380e-01  -2.44401066e+00  -2.25770920e-01
C     3.678523172850000e+00   4.793914009616333e+00   1.354889664000000e+01  3.13161700e-01   5.49591530e-01   9.19223540e-01
C     3.876162941175000e+00   5.308483896534820e+00   3.824594992000000e+00 -1.88657284e+00  -1.56598618e+00  -1.63917055e+00
C     5.104266601349999e+00   6.039755297087913e+00   3.646773496000000e+00 -3.18719720e-01  -2.37927804e+00  -7.01624620e-01
C     4.899495464775000e+00   4.085113356701778e+00   1.959565520000000e-01  5.35479000e-01  -1.24820320e+00   1.91682350e-01
C     6.150066503025000e+00   4.791043044860273e+00   4.370157359999999e-01 -1.41624041e+00   1.08903064e+00  -9.94964350e-01
C     6.319374177600000e+00   5.251613382269655e+00   3.523623320000000e+00  6.13125890e-01   2.53142910e+00  -5.44145440e-01
C     7.563414654375000e+00   5.957088688332982e+00   3.406911384000000e+00 -1.61221246e+00   4.04995739e+00   2.39177330e-01
C     7.382757244724999e+00   4.178299023034336e+00   5.312785600000000e-01  2.55957942e+00  -5.17979482e+00  -3.67860892e+00
C     8.661911880675000e+00   4.797829893084829e+00   1.072122000000000e-01 -3.57411801e+00   4.89403880e-01   1.94327905e+00
C     8.780425592700000e+00   5.354494838831940e+00   3.515038864000000e+00  4.46157210e-01  -6.06410791e+00  -9.42429660e-01
C     9.974845656450000e+00   5.935502304662331e+00   3.777707904000000e+00  3.11548376e+00   4.62261127e+00  -2.95708150e-01
C     7.412621545500000e+00   1.640626127504364e-01   6.857830871999999e+00 -1.68515676e+00   8.39792480e-01  -4.24750130e-01
C     1.204647422700000e+00   9.006652377590869e-01   6.655942952000000e+00  1.56702731e+00  -1.85624360e+00   6.31485030e-01
C     1.120064004300000e+00   4.580093387337469e-01   1.011591786400000e+01 -1.62853426e+00  -9.04275530e-01   1.00275261e+00
C     2.306966421975000e+00   1.158275165283436e+00   9.798858344000001e+00  2.16892600e-01  -9.65255080e-01   1.09165145e+00
C     2.470847238825000e+00   1.532086124867298e-01   6.773284432000000e+00 -1.34394584e+00   3.68861898e+00  -5.22566780e-01
C     3.660549958125000e+00   8.882597419862166e-01   6.764756008000000e+00  1.38765457e+00   9.44516080e-01  -4.37773470e-01
C     3.514604234775000e+00   4.152301130379402e-01   9.909468095999999e+00  3.36549578e+00   6.98621500e-01   5.25970200e-01
C     4.882167241950000e+00   1.179616906303836e+00   1.000376260800000e+01 -4.25824662e+00  -1.66307261e+00   5.33109850e-01
C     4.910829300600000e+00   1.960097407444176e-01   6.875934512000000e+00 -8.02557420e-01  -6.03347130e-01  -9.41349100e-02
C     6.144394685925000e+00   8.576632719749095e-01   6.871758360000000e+00  1.30923174e+00   2.23441369e+00  -8.55981460e-01
C     6.037473191024999e+00   4.170259950270414e-01   1.031620724000000e+01 -6.22274240e-01   4.77296350e-01  -6.37203910e-01
C     7.250784299925000e+00   1.155232630459307e+00   1.036534839200000e+01  2.28278935e+00  -4.65166170e-01  -1.72155985e+00
C     8.649751875449999e+00   2.282401546805781e+00   6.504563527999999e+00 -1.87497207e+00   9.68318090e-01   5.47899330e-01
C     2.463137729475000e+00   2.987771694955047e+00   6.456933880000000e+00  3.72597600e-01   2.95315165e+00   1.87280667e+00
C     2.299327682775000e+00   2.554087905021253e+00   9.723218407999999e+00  5.31044040e-01   3.11697943e+00   1.47942114e+00
C     3.570719232600000e+00   3.338511956024045e+00   9.797709416000000e+00 -6.38965060e-01  -2.68546172e+00   9.77545410e-01
C     3.691587623550000e+00   2.332673818240366e+00   6.603064384000001e+00 -1.49315478e+00  -3.24500699e+00   1.92850000e-02
C     4.901782553399999e+00   2.953209516349092e+00   6.655966343999999e+00  1.84214224e+00   5.19008629e+00   7.26953680e-01
C     4.781596425149999e+00   2.613222324439927e+00   1.001385285600000e+01  1.58296232e+00  -1.46388808e+00   3.19620800e-02
C     6.011544287400000e+00   3.264445689191887e+00   1.028948392000000e+01  5.46874040e-01   1.97224190e+00  -1.06042859e+00
C     6.140092718625000e+00   2.351088429163274e+00   6.707976824000000e+00  1.17625728e+00  -4.32393540e+00   4.65290720e-01
C     7.394068488825000e+00   3.012282454892311e+00   6.627495424000000e+00 -6.28342800e-02  -6.93905540e-01   2.02100860e-01
C     7.281160260749999e+00   2.578799310357270e+00   1.024647296800000e+01 -2.00755297e+00  -5.77981500e-01   3.51399750e-01
C     8.475295432124998e+00   3.298296610919911e+00   1.003923181600000e+01  1.47385892e+00  -2.16494253e+00  -8.61443080e-01
C     9.886961368874999e+00   4.449957266557803e+00   6.749736168000000e+00 -2.61278898e+00  -6.54736010e-01  -9.95843800e-01
C     3.706307925675000e+00   5.148350936407279e+00   6.817025432000000e+00  1.08288773e+00  -3.72410780e-01   1.91746650e-01
C     3.639622329974999e+00   4.681950995195674e+00   1.011035832000000e+01 -3.84248340e+00   1.61807482e+00   4.03691970e-01
C     4.845613793925000e+00   5.393219016535951e+00   1.025370490400000e+01 -2.17428382e+00   3.17593247e+00  -9.79484640e-01
C     4.962443368650000e+00   4.449472015939751e+00   6.774541072000000e+00 -1.61984171e+00  -7.66815800e-01  -4.29690820e-01
C     6.163995688049999e+00   5.214589855240366e+00   6.832617424000000e+00  3.66680400e-02  -5.74034749e+00  -2.61309060e-01
C     6.023383238699999e+00   4.745551872131070e+00   1.022520025600000e+01  7.76594460e-01  -4.27210937e+00   3.30891250e-01
C     7.215522795375000e+00   5.400679848857694e+00   1.014142629600000e+01  2.81889258e+00   2.12104374e+00  -7.96881000e-01
C     7.370893261350000e+00   4.384199435575160e+00   6.771667936000000e+00  1.13657787e+00   4.20222213e+00  -2.29994300e-02
C     8.588837818424999e+00   5.187932964451638e+00   6.825757855999999e+00  1.60601055e+00  -2.79115701e+00  -2.38313960e-01
C     8.493048238875000e+00   4.685395076987626e+00   1.008175724800000e+01 -8.15336010e-01   1.63845201e+00   8.82683860e-01
C     9.701443299674999e+00   5.383518615240567e+00   1.023459024000000e+01  2.38551102e+00   3.94715030e-01  -9.18826620e-01
