72
Lattice="7.395 0 0 3.6975 6.40425786098592 0 0 0 13.6 " PBC="1 1 1" Properties=species:S:1:pos:R:3:force:R:3 Energy="-577.83393901"
C     3.707487871875000e+00   6.210992407791172e+00   1.138626000000000e-01  6.77272090e-01  -2.05776563e+00   7.76788820e-01
C     1.205271412800000e+00   5.640516808054128e-01   1.181298720000000e-01  1.07937911e+00  -2.86675594e+00  -2.22967680e-01
C     1.422244040550000e+00   1.050092200022065e+00   3.359702112000000e+00  7.70498890e-01  -5.78704810e-01  -2.47895820e-01
C     2.642563058175000e+00   1.794973160868287e+00   3.184045056000000e+00 -1.02726944e+00  -1.18427560e-01   7.94435630e-01
C     6.108966387150000e+00   6.206124211178892e+00   2.326380640000000e-01  2.46780028e+00  -5.54717000e-02  -3.46154520e-01
C     3.718878834074999e+00   5.228668591464318e-01   1.531364080000000e-01 -2.61969012e+00  -2.04863940e-01   3.45308940e-01
C     3.802626839325000e+00   1.005651581752217e+00   3.298339320000000e+00  1.14300679e+00   1.68447149e+00   1.99693920e-01
C     5.020875552750000e+00   1.702046034425537e+00   3.416487416000000e+00  2.70124770e+00   8.46596490e-01   4.83529890e-01
C     8.602011197474999e+00   6.188957918198056e+00   2.960526880000000e-01  9.21428600e-01  -8.70913000e-03  -2.24869090e-01
C     6.212274278324999e+00   4.545347086318038e-01   2.962252720000000e-01 -3.66073363e+00   1.62387196e+00  -1.11250525e+00
C     6.317609471775000e+00   1.073337670733929e+00   3.580663216000000e+00  1.08159457e+00  -2.88971934e+00  -6.94677210e-01
C     7.612486543274999e+00   1.753830159013132e+00   3.405386552000000e+00 -3.28168016e+00  -2.02518407e+00   5.14397190e-01
C     1.212440939250000e+00   1.935494810449200e+00   1.198105600000000e-02 -1.42567350e-01   1.16240556e+00   6.82926160e-01
C     2.459513181150000e+00   2.660762155215965e+00   1.356300310400000e+01 -1.60583337e+00   7.72446670e-01   2.97896970e-01
C     2.647873296750000e+00   3.266534501935505e+00   3.211356032000000e+00 -1.67408705e+00  -1.83858806e+00   6.55628000e-01
C     3.879915718800000e+00   3.940586228084907e+00   3.434414120000000e+00  3.74429320e-01  -4.21762612e+00  -5.02394490e-01
C     3.682227993900000e+00   1.967170397909917e+00   2.508588000000000e-02  2.36741930e-01  -1.79670858e+00   5.27149070e-01
C     4.913460108825000e+00   2.616940444425708e+00   2.037138560000000e-01 -2.68509630e-01  -1.60134000e-03  -2.10087380e-01
C     5.087853657675000e+00   3.111733022433836e+00   3.466945864000000e+00 -2.31304530e-01   1.94025381e+00  -2.41166040e-01
C     6.372730766475000e+00   3.803039100109650e+00   3.478274528000000e+00 -4.17452524e+00   1.81345302e+00  -1.73257890e-01
C     6.130660544025000e+00   1.918808068296920e+00   2.563496640000000e-01  6.45969510e-01  -2.39653232e+00   8.97086300e-02
C     7.342360763099999e+00   2.586531170871648e+00   1.883389200000000e-01  1.66919937e+00   2.22884787e+00  -1.78302150e-01
C     7.515128188425000e+00   3.114262448118222e+00   3.325529256000000e+00  4.09187086e+00   2.02860329e+00  -1.91825890e-01
C     8.724755034374999e+00   3.922727762914561e+00   3.251961280000000e+00  2.63412071e+00  -8.24895470e-01   1.06691020e+00
C     2.386413495225000e+00   4.103451949083888e+00   3.422127200000000e-02  2.31553545e+00  -1.45889151e+00   6.31677440e-01
C     3.713771921025000e+00   4.729784269066857e+00   7.710234399999999e-02 -2.04194275e+00   1.99132684e+00   4.94013020e-01
C     3.891739510350000e+00   5.278841468816916e+00   3.596920656000000e+00  1.42946230e+00   3.05021815e+00  -2.97317950e-01
C     5.127465492824999e+00   6.017533739122706e+00   3.491805304000000e+00  8.97753900e-01  -6.34904790e-01  -9.49270700e-02
C     4.909792854375000e+00   4.004511032382862e+00   2.530862080000000e-01  8.11693700e-01   2.00224583e+00  -4.25893040e-01
C     6.158825399850000e+00   4.752592969392668e+00   3.816883520000000e-01 -1.77271987e+00   8.97277390e-01  -1.08785782e+00
C     6.373908235350000e+00   5.255152375163091e+00   3.432868208000000e+00 -9.15347730e-01   8.72690720e-01   1.42378500e-02
C     7.585387602749999e+00   6.033366025191305e+00   3.373928392000000e+00 -1.49403673e+00  -1.85044408e+00   6.29394680e-01
C     7.374062203725000e+00   4.032684259305102e+00   3.118406560000000e-01 -1.90807756e+00  -7.50067350e-01  -2.16286630e-01
C     8.532723966824999e+00   4.756806394681341e+00   2.860720560000000e-01  3.11349239e+00   1.19118946e+00  -1.14747659e+00
C     8.806138562325000e+00   5.328344268669622e+00   3.502918000000000e+00  3.85894430e-01  -7.21878630e-01  -7.09957310e-01
C     1.008943587727500e+01   5.969964448760513e+00   3.658786919999999e+00 -2.82610342e+00   3.13702752e+00  -1.11548713e+00
C     7.410920177850000e+00   1.428460749711996e-01   6.570553856000000e+00 -1.84865210e+00   1.87015019e+00   8.65677260e-01
C     1.217871864225000e+00   8.991658088663251e-01   6.561055208000000e+00 -2.12786510e-01   4.97414950e-01   7.29489200e-02
C     1.115562372000000e+00   4.345824353967097e-01   1.027374083200000e+01 -9.35297780e-01  -1.04391115e+00  -6.48390820e-01
C     2.359498172550000e+00   1.119839563438596e+00   9.947897343999999e+00 -2.34117777e+00  -1.48245570e-01   1.09269929e+00
C     2.452863523200000e+00   1.832861454836412e-01   6.686627136000000e+00 -1.23979940e-01   7.77927820e-01  -1.46643500e-02
C     3.757514714100000e+00   8.288714577859717e-01   6.684435496000000e+00 -1.45002771e+00   1.55526044e+00   4.06476000e-02
C     3.555813796649999e+00   4.215098080825633e-01   9.946874352000000e+00  7.18060400e-02  -2.10159606e+00   6.97199130e-01
C     4.742515994700001e+00   1.085302297395716e+00   1.009234308000000e+01  3.60579345e+00   2.09789247e+00   9.15844760e-01
C     5.020714563600000e+00   1.888497804569376e-01   6.792375976000000e+00 -2.83912080e+00  -1.03057583e+00  -6.41873130e-01
C     6.165075284099999e+00   9.430939584222158e-01   6.689972736000000e+00  2.95101562e+00  -1.37409784e+00  -6.67109430e-01
C     6.066942968549999e+00   4.417698059078304e-01   1.032663164000000e+01 -2.15508812e+00   9.85128320e-01  -9.20478580e-01
C     7.267834914449999e+00   1.175781012016011e+00   1.038950661600000e+01  1.66202376e+00  -9.75856580e-01  -7.80555540e-01
C     8.551257759524999e+00   2.378059961140664e+00   6.489922040000000e+00  1.56029140e+00  -3.37246601e+00   2.38515370e-01
C     2.413474277550000e+00   2.968703337389790e+00   6.527834080000000e+00  2.08113951e+00   1.73482560e-01   3.41089900e-02
C     2.361511128525000e+00   2.514331553077945e+00   9.939061560000001e+00 -1.30117284e+00   2.29206321e+00   1.07549985e+00
C     3.594630484425000e+00   3.252641809402386e+00   1.005323995200000e+01 -2.16177362e+00   5.07183510e-01   2.21186960e-01
C     3.715328975250000e+00   2.266047890104799e+00   6.584423680000000e+00 -1.57209908e+00  -3.34636410e-01   4.89064620e-01
C     4.899758467950000e+00   3.014693465848865e+00   6.675720752000000e+00  1.00668519e+00   6.16903940e-01  -3.30066200e-01
C     4.775636055150000e+00   2.524528860740687e+00   1.017204180000000e+01  1.79590746e+00   3.19263650e-01  -9.70319800e-02
C     6.066289916100000e+00   3.262367763686632e+00   1.029961700800000e+01 -2.38669313e+00  -6.14178660e-01  -1.14502270e-01
C     6.183247904999999e+00   2.343728848158298e+00   6.604705360000001e+00 -1.90448603e+00   5.13284720e-01   4.30574000e-01
C     7.370514156674999e+00   3.092416115621032e+00   6.493413024000000e+00 -6.76104880e-01   1.43053367e+00   9.29231950e-01
C     7.294782257475000e+00   2.591828708930862e+00   1.031064402400000e+01 -1.09876897e+00  -1.02589258e+00  -2.60336800e-01
C     8.469607050224999e+00   3.271910812366396e+00   1.013109396800000e+01  3.54753248e+00   1.02039707e+00  -9.58661600e-02
C     9.831570082724999e+00   4.356343667715039e+00   6.562874888000000e+00 -1.11692086e+00   2.58210416e+00   7.08025740e-01
C     3.613498974825000e+00   5.132103078046145e+00   6.617478072000000e+00  2.13103588e+00  -1.99183160e-01   2.51562400e-01
C     3.510351740025000e+00   4.706560252618825e+00   1.022242980000000e+01  2.18323222e+00  -2.20438076e+00  -2.35843600e-01
C     4.726024959825000e+00   5.352071915955765e+00   1.029805817600000e+01  3.16543090e+00   2.62398328e+00  -3.59883190e-01
C     4.867356794775000e+00   4.458365929042826e+00   6.718972832000000e+00 -9.83803150e-01  -1.25419374e+00  -3.37258610e-01
C     6.043953429525001e+00   5.187067749214751e+00   6.780948984000000e+00  3.40175316e+00   2.51585260e-01  -8.50819190e-01
C     6.009873239250000e+00   4.653433923668930e+00   1.026176317600000e+01  1.84773880e-01   1.41079110e+00  -5.67958300e-01
C     7.261034176650000e+00   5.400063310953511e+00   1.010124237600000e+01 -1.06917697e+00  -2.77984370e-01   6.15089630e-01
C     7.356555354675000e+00   4.558583470505665e+00   6.640326072000001e+00 -8.57587690e-01  -2.81249461e+00   3.25618350e-01
C     8.626994687324999e+00   5.157192142468165e+00   6.702752384000000e+00  5.07624900e-01   1.06811790e-01  -4.23060280e-01
C     8.496517011525000e+00   4.735065476268527e+00   1.017284787200000e+01  4.80346590e-01  -9.78967850e-01  -6.54761530e-01
C     9.772721781974999e+00   5.470934941837365e+00   1.020371348000000e+01 -3.20236412e+00  -1.85631115e+00   2.52203170e-01
