72
Lattice="7.395 0 0 3.6975 6.40425786098592 0 0 0 13.6 " PBC="1 1 1" Properties=species:S:1:pos:R:3:force:R:3 Energy="-579.8336405"
C     3.719074727625000e+00   6.255534789718415e+00   1.353676584800000e+01 -1.47700358e+00  -5.24187490e-01  -5.35714260e-01
C     1.267989738900000e+00   5.124648714024841e-01   1.357086825600000e+01 -1.30724699e+00   2.67902481e+00  -9.04691700e-02
C     1.348052519850000e+00   9.846162204278400e-01   3.616657384000000e+00  7.30709090e-01  -1.13837384e+00  -4.33612320e-01
C     2.578809616950000e+00   1.682765759967693e+00   3.716205984000000e+00  2.39974920e-01   4.62247980e-01  -1.19356671e+00
C     6.200288240474999e+00   6.270320043669482e+00   1.349543816800000e+01 -2.31018188e+00  -1.36630864e+00   1.78542820e-01
C     3.693687988425000e+00   5.597968840109646e-01   1.349437410400000e+01 -3.05553900e-02   1.14012750e-01  -3.13614810e-01
C     3.808077841725000e+00   9.796537531398619e-01   3.600665552000000e+00 -1.00467268e+00  -1.79091789e+00   4.25177010e-01
C     5.030007638250000e+00   1.618760710318752e+00   3.592610544000000e+00  1.12939436e+00   1.31937718e+00  -8.26129640e-01
C     8.567807067000000e+00   6.222674350511019e+00   1.347772933600000e+01  1.83171821e+00   1.62715573e+00  -3.67172540e-01
C     6.105312924375000e+00   4.877331005264718e-01   1.350769503200000e+01  2.12265206e+00   1.68748874e+00   3.57383090e-01
C     6.295869465900000e+00   9.136959812268289e-01   3.483664616000000e+00 -6.81233030e-01   1.27986167e+00   5.57897200e-01
C     7.512793069274999e+00   1.664828522425668e+00   3.546781944000000e+00  1.64334450e-01  -1.85471128e+00   7.84861800e-02
C     1.226148311250000e+00   1.959516028915645e+00   2.019912800000000e-02 -1.01605990e-01   1.21124462e+00  -6.87254830e-01
C     2.460531435675000e+00   2.692656832338073e+00   3.262123200000000e-02 -6.75694750e-01   6.71322370e-01  -1.07794427e+00
C     2.593008053925000e+00   3.100384933676230e+00   3.621734128000000e+00 -1.01256097e+00   1.54221113e+00   3.62587620e-01
C     3.807011371800000e+00   3.856373055099365e+00   3.626996104000000e+00  9.69985510e-01  -2.29195945e+00  -1.30879098e+00
C     3.697351471425000e+00   1.955440551341277e+00   1.348616065600000e+01 -1.40839111e+00   1.42552323e+00   1.67441768e+00
C     4.902497871750000e+00   2.640097536379103e+00   1.546102400000000e-02  9.88102090e-01   1.98843085e+00  -1.13303146e+00
C     4.998357740775000e+00   3.047963649474144e+00   3.549481408000000e+00  2.26030595e+00   1.10842579e+00   1.16676860e+00
C     6.304082500800000e+00   3.710134132399095e+00   3.608091560000000e+00 -1.88523143e+00   2.78685826e+00  -6.32830460e-01
C     6.106391817900001e+00   1.902961052435243e+00   1.356116411200000e+01  1.85834366e+00   2.30312828e+00  -2.41283750e-01
C     7.379413595474999e+00   2.722055834214717e+00   1.349853216800000e+01 -8.16370870e-01  -1.96378003e+00   1.31941893e+00
C     7.539854702025000e+00   3.039121290646841e+00   3.605436024000000e+00 -6.05066300e-01   2.39999351e+00  -3.32644640e-01
C     8.734647917475000e+00   3.829659806841469e+00   3.566035464000000e+00  8.28574060e-01  -7.20718590e-01   8.64182290e-01
C     2.410246766774999e+00   4.168015834273691e+00   1.355428060800000e+01  1.84501154e+00  -2.00855123e+00  -6.37690530e-01
C     3.682648362675000e+00   4.859997433068578e+00   1.348607416000000e+01  1.75143670e-01  -1.83294842e+00   8.74581350e-01
C     3.860112574350000e+00   5.258991599665004e+00   3.454041504000000e+00 -7.83534880e-01  -1.12316285e+00   9.15715220e-01
C     5.076601462649999e+00   5.959766244501670e+00   3.505795896000000e+00  5.89581140e-01  -3.14044920e-01   3.87860340e-01
C     4.925666480699999e+00   4.115948897658998e+00   1.356101220000000e+01 -1.20183738e+00  -6.54534020e-01  -2.52733210e-01
C     6.131657353050000e+00   4.848035752365406e+00   1.348585710400000e+01  2.09607490e-01  -1.45988850e-01   5.32370150e-01
C     6.304741506225000e+00   5.205688513198174e+00   3.580066992000000e+00 -3.42764680e-01  -9.27261700e-01  -2.16752450e-01
C     7.518218115224999e+00   5.951183065989962e+00   3.566840176000000e+00 -4.96892730e-01   1.78139300e-01   5.71613850e-01
C     7.347905940824999e+00   4.170869571576108e+00   1.352296769600000e+01  1.23486737e+00  -2.77147004e+00  -1.03831444e+00
C     8.594952780900000e+00   4.862309434198616e+00   1.340724706400000e+01 -9.63484420e-01  -2.38259656e+00   1.51911951e+00
C     8.750469483000000e+00   5.278643705334200e+00   3.617818280000000e+00  1.06598190e-01  -2.64432807e+00  -1.18556319e+00
C     1.000704662932500e+01   5.906897879058376e+00   3.487062304000000e+00 -2.75028750e-01   1.71731964e+00   2.42003710e-01
C     7.441290629399999e+00   1.457871663508260e-01   7.024596519999999e+00 -6.16032280e-01  -3.52456100e-02  -3.11184940e-01
C     1.275338668050000e+00   8.778874699987391e-01   7.007507712000001e+00 -1.05117243e+00  -9.70383250e-01  -3.33152560e-01
C     1.118435662275000e+00   4.659727131697638e-01   9.901412407999999e+00 -1.28928214e+00   5.52546440e-01   7.00043160e-01
C     2.342141257125000e+00   1.164279285112344e+00   1.001914611200000e+01 -9.64212590e-01   9.73013160e-01   4.69521100e-02
C     2.489422406550000e+00   1.641106446843864e-01   6.859441384000000e+00  1.28219850e-01   9.13073910e-01   4.32739590e-01
C     3.747595172025000e+00   8.134134365467111e-01   6.823683312000000e+00  1.74271460e-01   8.70966270e-01   4.38426590e-01
C     3.525305650200000e+00   4.631583620531868e-01   1.011751300800000e+01  2.69700620e+00   1.50073610e-01  -1.04206634e+00
C     4.790540529750000e+00   1.206078915525885e+00   9.973727960000000e+00  1.17395280e-01  -7.40094310e-01   8.55194430e-01
C     5.005831867275001e+00   1.598694249166014e-01   6.918993471999999e+00 -7.97733360e-01  -7.10326550e-01   7.50406100e-02
C     6.212986934475000e+00   8.909914141338210e-01   7.039085008000001e+00  2.91883020e-01  -7.94825000e-03  -1.08748827e+00
C     6.066183871800000e+00   4.823663964823704e-01   9.909298231999999e+00 -1.26150549e+00   1.09902164e+00   3.19457100e-01
C     7.281819635925000e+00   1.258140600649132e+00   9.866970816000000e+00  5.76693990e-01  -3.00585512e+00  -5.79129800e-02
C     8.642942152724999e+00   2.277297417333939e+00   7.075113583999999e+00 -8.16121740e-01   1.43590530e-01  -1.43790360e+00
C     2.477332801725000e+00   2.906179528541289e+00   6.933778848000000e+00  1.04678672e+00   2.52330866e+00   6.70416480e-01
C     2.351628413550000e+00   2.587028397451899e+00   9.997527143999999e+00 -6.71192060e-01   1.78447952e+00   4.21168200e-02
C     3.566593746975000e+00   3.354661252856714e+00   9.931140920000001e+00  1.14280540e-01  -1.93837254e+00   6.04408540e-01
C     3.733972435800000e+00   2.217176614119667e+00   6.869720672000000e+00 -7.01985170e-01   9.33196090e-01   1.18049900e-02
C     4.935829133400000e+00   2.971930699095759e+00   6.908011472000000e+00  9.91740100e-02   1.23705475e+00   1.51077900e-02
C     4.804064875500000e+00   2.652939482325132e+00   9.961987488000000e+00  1.99107240e-01  -1.91209875e+00  -6.27468870e-01
C     6.059780652224999e+00   3.315380865357561e+00   9.858983400000000e+00 -1.27558344e+00   6.74446930e-01   2.15905550e-01
C     6.182687955599999e+00   2.346584506738072e+00   6.952668159999999e+00  3.25885500e-01  -2.95104624e+00   1.96541150e-01
C     7.405215157200000e+00   3.019950080700353e+00   6.981278888000000e+00  1.91346440e-01   8.62772580e-01   4.11298400e-02
C     7.295626359750000e+00   2.660585653869343e+00   9.799479456000000e+00 -6.09427300e-01  -1.21474877e+00   1.67758597e+00
C     8.494488895800000e+00   3.341407321002551e+00   9.999637999999999e+00  1.59587334e+00  -3.05798900e-02  -7.88186610e-01
C     9.873638278049999e+00   4.357627401203076e+00   7.013595479999999e+00 -1.93646480e-01   8.87434270e-01  -1.10320562e+00
C     3.716342275125000e+00   5.099315455250617e+00   6.960125720000001e+00 -8.33569920e-01   5.00979660e-01   4.08504480e-01
C     3.589867254000000e+00   4.744650152624382e+00   9.862249439999999e+00 -2.19048395e+00   3.10272040e-01   7.95801990e-01
C     4.785513002025000e+00   5.429555366696861e+00   9.910494352000001e+00  1.29386348e+00   1.57174075e+00  -1.80157420e-01
C     4.934483169450000e+00   4.403205223541124e+00   6.963518103999999e+00  2.49075380e-01   6.37317040e-01  -7.33895800e-01
C     6.153178577849999e+00   5.197760618350701e+00   6.911289480000000e+00 -5.80752540e-01  -3.61331517e+00  -2.21976890e-01
C     6.018531564074999e+00   4.717892330731781e+00   9.902747520000000e+00 -2.34693400e-02   7.53114370e-01   8.30194570e-01
C     7.214061987074999e+00   5.443767695739774e+00   1.006430695200000e+01  1.32634388e+00   5.08126880e-01  -4.20287990e-01
C     7.349111880450000e+00   4.450557793817335e+00   6.908727920000000e+00  3.00763388e+00   2.82248800e-01   2.69550790e-01
C     8.652678003000000e+00   5.146137945103757e+00   6.955550000000000e+00 -1.85354920e-01  -1.68920856e+00  -1.25686480e-01
C     8.468669068424999e+00   4.765961153207054e+00   1.002031748000000e+01  1.37670905e+00  -1.38554580e-01   5.17323700e-02
C     9.747034805775000e+00   5.453858500594304e+00   9.935939680000001e+00 -7.63270910e-01   7.74587430e-01   2.62161700e-01
