72
Lattice="7.395 0 0 3.6975 6.40425786098592 0 0 0 13.6 " PBC="1 1 1" Properties=species:S:1:pos:R:3:force:R:3 Energy="-571.69511175"
C     1.102132223760000e+01   6.296805044177248e+00   2.864010400000000e-02  2.08276163e+00  -4.60489261e+00  -1.91412020e-01
C     1.224491942175000e+00   4.403437698101442e-01   1.349892289600000e+01 -8.90744820e-01   1.54312146e+00   8.60784580e-01
C     1.302971749425000e+00   1.006709180895218e+00   3.291696128000000e+00  3.94155658e+00  -1.62436782e+00   7.72156740e-01
C     2.650263360750000e+00   1.571694026113411e+00   3.091151616000000e+00 -1.58144001e+00   4.88494219e+00   1.71346587e+00
C     6.154669114050000e+00   6.176876349787744e+00   1.340977680000000e-01  5.31035200e-02   2.04731722e+00  -3.24068270e-01
C     3.697409078475000e+00   4.962657494436643e-01   1.469190320000000e-01 -2.51772287e+00   9.40867310e-01  -8.85938300e-01
C     3.891687634425000e+00   9.976212828215634e-01   3.379530232000000e+00 -1.54293160e-01   2.38137684e+00   7.19377700e-02
C     5.106933792974999e+00   1.731870214981507e+00   3.588141176000000e+00 -2.21465810e-01   3.95371020e-01  -2.59363010e-01
C     8.560747578150000e+00   6.180642693835209e+00   1.748522080000000e-01  2.73671391e+00   3.54339765e+00  -1.30021370e-01
C     6.100569734400000e+00   4.657200651971868e-01   1.269768080000000e-01 -1.45934640e-01   4.69098554e+00   8.53694770e-01
C     6.348359249849999e+00   1.006535689549790e+00   3.745170856000000e+00 -1.20099664e+00  -1.13689380e-01  -1.17985041e+00
C     7.546930459875000e+00   1.736379452940733e+00   3.437519816000000e+00 -1.59735222e+00  -1.44437141e+00   4.89647810e-01
C     1.235535783075000e+00   1.810928472730377e+00   1.340362212000000e+01 -7.17181150e-01   5.60868533e+00   1.48361910e+00
C     2.497796023875000e+00   2.583794951700963e+00   1.318763059200000e+01 -3.16891491e+00   1.99405842e+00   2.33553894e+00
C     2.666928473925000e+00   3.071065344597050e+00   3.235514664000000e+00 -1.54568720e+00   1.33295060e+00   6.98459710e-01
C     3.798072813450000e+00   3.904435985657408e+00   3.565357504000000e+00  1.60441278e+00  -4.48882147e+00  -5.59525210e-01
C     3.675671771775000e+00   1.915305579673286e+00   1.350777010400000e+01  7.65055630e-01  -4.64616850e-01  -6.30113800e-02
C     4.852240416450000e+00   2.641226863210135e+00   1.486977760000000e-01  2.03782649e+00   7.13148860e-01   6.55126030e-01
C     5.059426833974999e+00   3.175688631212097e+00   3.578922960000000e+00  1.51194439e+00  -7.63504620e-01  -6.58559570e-01
C     6.354525496650000e+00   3.796259232526161e+00   3.459374744000000e+00 -2.11860640e+00   3.92620543e+00   9.97754190e-01
C     6.115683450524999e+00   1.942856568901849e+00   3.616044160000000e-01  7.47564460e-01   1.69839200e-01  -1.56426465e+00
C     7.384430141625000e+00   2.700630261458930e+00   3.407907040000000e-01  9.24683790e-01  -1.50913218e+00  -2.29225901e+00
C     7.551644069850000e+00   3.098881149888124e+00   3.307041008000000e+00  9.70058400e-01   2.65723560e+00   3.52448670e-01
C     8.821896900599999e+00   3.848894418940771e+00   3.298499392000000e+00 -1.02978917e+00  -1.09460567e+00  -1.71431330e-01
C     2.420978797500000e+00   4.081448776311706e+00   1.334563512000000e+01  1.63515563e+00  -1.59049030e-01   1.49837174e+00
C     3.686290178325000e+00   4.843433844794946e+00   1.355351166400000e+01 -1.16096783e+00  -2.38410165e+00  -1.76130890e-01
C     3.769794333450000e+00   5.245456328763051e+00   3.836677368000000e+00  3.42275788e+00   1.52636020e+00  -1.17220277e+00
C     5.009905329075000e+00   6.057547414146829e+00   3.669582600000000e+00  1.75597698e+00  -3.29751219e+00  -8.84659120e-01
C     4.899667805249999e+00   4.057872397596217e+00   1.628940000000000e-01  5.05767290e-01   2.17570639e+00   2.95108600e-01
C     6.194594682075000e+00   4.855564790033357e+00   4.258157280000000e-01 -2.24948978e+00  -3.08763319e+00  -1.28995779e+00
C     6.324394014525000e+00   5.330095064683389e+00   3.527485992000000e+00 -8.92203140e-01  -9.14418190e-01  -1.30140940e-01
C     7.572788556374999e+00   6.074836861006314e+00   3.460691224000000e+00 -8.27826770e-01  -6.18118646e+00  -1.08716700e-02
C     7.464196530975000e+00   4.257720786459340e+00   4.062806880000000e-01 -4.34099009e+00  -7.90380911e+00  -5.50752200e-02
C     8.608697793449998e+00   4.850119441702736e+00   1.482920880000000e-01  3.66341717e+00  -3.18696278e+00  -1.80451349e+00
C     8.778980868525000e+00   5.284756761589305e+00   3.463396128000000e+00  5.93584650e-01  -9.67267700e-01   9.90675650e-01
C     1.000775710395000e+01   5.924337633849835e+00   3.784236856000000e+00 -2.60206729e+00   3.60551176e+00  -1.16871204e+00
C     7.420571170500000e+00   1.796872087366356e-01   6.974837111999999e+00 -1.60352039e+00  -1.55927790e-01  -1.21128348e+00
C     1.252802701350000e+00   8.507735073265429e-01   6.722874808000000e+00 -1.11655723e+00   1.47236853e+00   1.90436390e-01
C     1.103861966025000e+00   4.645596777155335e-01   1.007974064000000e+01  4.64740550e-01  -6.23709520e-01   2.40188350e-01
C     2.354416439475000e+00   1.166323011880627e+00   9.814951360000000e+00 -2.28204828e+00   1.75742690e-01   5.92082700e-01
C     2.458041021525000e+00   1.761297075379842e-01   6.804162552000000e+00 -1.24761930e-01  -1.55278364e+00  -3.84729370e-01
C     3.634613770425000e+00   9.224536117226430e-01   6.777002400000000e+00  5.47014770e-01  -2.20391530e-01  -3.80346260e-01
C     3.547153512150000e+00   4.685151394976052e-01   9.909588319999999e+00  1.04102207e+00  -1.04460992e+00   9.97007870e-01
C     4.752560475299999e+00   1.173773021006586e+00   1.001251516000000e+01  2.87089550e+00   1.45510370e-01   3.96992320e-01
C     4.832122245000000e+00   2.504475976614612e-01   6.897566672000000e+00  1.33830533e+00  -3.81422837e+00  -8.71848700e-02
C     6.061401710174999e+00   9.031035308541246e-01   6.892799736000001e+00  3.31243148e+00  -3.09697263e+00   3.40113930e-01
C     6.062106194849999e+00   3.638219183867268e-01   1.028220642400000e+01 -1.72430019e+00   2.55635935e+00  -9.58571570e-01
C     7.257257476200000e+00   1.177593673160705e+00   1.024988643200000e+01 -2.35290300e-02  -1.83149461e+00  -4.10471680e-01
C     8.657466376424999e+00   2.293175750016552e+00   6.524051375999999e+00 -1.43151820e-01  -1.28334373e+00   1.27488755e+00
C     2.459772893550000e+00   3.062816212175320e+00   6.538609087999999e+00  4.33778210e-01  -4.74258530e-01   5.82385830e-01
C     2.310173226750000e+00   2.565242521148908e+00   9.702463584000000e+00 -6.25269100e-02   1.59069167e+00   1.44715751e+00
C     3.565989834300000e+00   3.353136975443455e+00   9.774262199999999e+00 -1.69293450e-01  -1.73861390e+00   8.57992940e-01
C     3.671535304574999e+00   2.302622158445209e+00   6.612803480000000e+00  8.11215700e-01   2.66864511e+00   2.49164020e-01
C     4.925435571825000e+00   3.024949692683919e+00   6.672014888000000e+00  1.00477785e+00  -9.04924340e-01   6.97150790e-01
C     4.793048248200000e+00   2.676447207396363e+00   9.915569600000000e+00  8.42505700e-01  -3.32024034e+00   1.19211919e+00
C     6.076379728050000e+00   3.345510785183768e+00   1.022745717600000e+01 -3.65499670e+00  -3.84953168e+00  -7.10624020e-01
C     6.154480430624999e+00   2.243463466889245e+00   6.789656384000000e+00 -8.66882690e-01   2.71735695e+00  -6.02365000e-01
C     7.426753316549999e+00   2.872875402349353e+00   6.711938640000000e+00 -1.25705398e+00   4.69602127e+00   1.38362690e-01
C     7.236900852974999e+00   2.613576159686692e+00   1.024050637600000e+01 -6.93189300e-02  -3.50737346e+00  -6.40691070e-01
C     8.408710112625000e+00   3.217358831574288e+00   9.970020871999999e+00  3.98519222e+00   3.56592796e+00   2.27194000e-03
C     9.891171823050000e+00   4.458001975068642e+00   6.768824584000000e+00 -6.50955530e-01   1.13573923e+00   3.78973230e-01
C     3.800963888699999e+00   5.161542362704728e+00   6.925717720000000e+00 -2.78226924e+00  -1.28252230e-01  -8.02988920e-01
C     3.628155716925000e+00   4.732334316461552e+00   1.008379792800000e+01 -8.53649050e-01  -1.85752539e+00  -4.44370680e-01
C     4.833643248600000e+00   5.397130801279417e+00   1.016564395200000e+01  2.69928680e-01   2.27043479e+00  -1.68034390e-01
C     5.040017029575000e+00   4.459015833130459e+00   6.776414064000000e+00 -5.43824893e+00  -2.27059909e+00   1.16268600e-02
C     6.173142674474999e+00   5.139600926978319e+00   6.812090807999999e+00  3.87375694e+00   1.25159436e+00   4.89855980e-01
C     6.052613787975000e+00   4.661268316351647e+00   1.022377715200000e+01 -3.33546970e-01   5.64468746e+00  -7.14112910e-01
C     7.228926343800000e+00   5.445826472514028e+00   1.013654566400000e+01  1.74686176e+00  -4.98629110e-01  -2.98823920e-01
C     7.400812174199999e+00   4.379201808911530e+00   6.827783848000000e+00 -1.85512550e-01  -5.44538020e-01  -6.82502070e-01
C     8.560097335799998e+00   5.155687974424588e+00   6.872138344000000e+00  2.83912157e+00   4.86725440e-01  -2.76097730e-01
C     8.431001896425000e+00   4.690669111420492e+00   1.008017937600000e+01  2.83927166e+00  -3.93058120e-01   2.23706020e-01
C     9.810145214774998e+00   5.339767415329348e+00   1.020665706400000e+01 -4.88551278e+00   2.77570196e+00  -6.23096280e-01
