72
Lattice="7.395 0 0 3.6975 6.40425786098592 0 0 0 13.6 " PBC="1 1 1" Properties=species:S:1:pos:R:3:force:R:3 Energy="-582.98910286"
C     7.398329820600000e+00   1.445428190486280e-02   1.358619912800000e+01  3.97863160e-01  -1.07282416e+00   3.17710400e-02
C     1.256925820575000e+00   6.984454802955631e-01   1.359828531200000e+01 -8.48069480e-01   5.36792060e-01  -1.83501770e-01
C     1.212585992175000e+00   7.381777522293175e-01   3.411265016000000e+00  1.94971517e+00  -1.31963545e+00  -2.08455160e-01
C     2.463823356900000e+00   1.437670969110777e+00   3.407996799999999e+00  2.25819960e-01  -7.40608450e-01  -1.19139220e-01
C     6.172352555700000e+00   6.392802948221290e+00   1.359192772000000e+01  2.20291830e-01   9.50933370e-01   6.91218000e-02
C     3.717235221375000e+00   7.300638136910118e-01   1.358815793600000e+01 -1.32374931e+00  -1.49116993e+00  -1.58661260e-01
C     3.706905700500000e+00   7.204387905106393e-01   3.400192168000000e+00 -1.54993004e+00  -7.47681660e-01   3.37294000e-02
C     4.907818870049999e+00   1.408138118244858e+00   3.408059632000000e+00  1.47213826e+00   6.88704500e-01  -7.82070400e-02
C     8.610914851424999e+00   6.398739118874302e+00   1.359475842400000e+01  8.08353400e-01   2.19288500e-02  -3.92213300e-02
C     6.149209903200000e+00   6.646687198735585e-01   8.842720000000000e-04  3.70753110e-01   2.31191956e+00  -1.06669000e-01
C     6.159996767849999e+00   7.011489096660048e-01   3.408727392000000e+00  4.35954420e-01   5.62783600e-02  -9.67539100e-02
C     7.417298254424999e+00   1.435367037345642e+00   3.395806032000000e+00 -2.17500606e+00  -1.17575647e+00   1.14081450e-01
C     1.246009987125000e+00   2.118904878322433e+00   1.358431879200000e+01 -4.99355580e-01   1.02223012e+00   2.22894930e-01
C     2.479551597525000e+00   2.839018332533784e+00   1.359691620000000e+01 -1.05138506e+00   7.83212130e-01  -3.83783550e-01
C     2.483973215925000e+00   2.835193453569477e+00   3.393230056000000e+00 -1.64821963e+00   1.94304607e+00   1.18200250e-01
C     3.684085802775000e+00   3.591879959312245e+00   3.419419576000000e+00  1.16949618e+00  -2.04824057e+00  -2.72207380e-01
C     3.701378751450000e+00   2.122123338109975e+00   1.355456607200000e+01  5.87408000e-03   8.87514320e-01   6.69331270e-01
C     4.929501786525000e+00   2.816562698943794e+00   1.984525600000000e-02 -1.73498480e-01   1.68880654e+00  -4.46555530e-01
C     4.904195320049999e+00   2.831978195910864e+00   3.403461880000000e+00  1.15290949e+00   9.96353430e-01   2.55774810e-01
C     6.187123587524999e+00   3.528014266314338e+00   3.417773296000000e+00 -2.15799593e+00   9.40523240e-01  -1.95184180e-01
C     6.139626315975000e+00   2.124427782215739e+00   3.275016000000000e-03  1.33611519e+00  -6.14202740e-01   1.21288360e-01
C     7.384208032800000e+00   2.862324131354689e+00   1.359731658400000e+01  4.80215680e-01  -6.94827800e-01   3.47473100e-02
C     7.397426299499999e+00   2.826287116206154e+00   3.396185744000000e+00  7.85148930e-01   1.48725397e+00  -2.57354000e-02
C     8.614178227949999e+00   3.577324810346087e+00   3.381178008000000e+00  8.23468470e-01  -9.22853120e-01   3.78193510e-01
C     9.825907324499999e+00   4.292168072679287e+00   1.358454373600000e+01  2.27249168e+00  -1.24701651e+00  -1.35892300e-02
C     3.706862587650000e+00   4.996031875337303e+00   1.357254309600000e+01 -7.84962760e-01  -5.07167880e-01   2.54443800e-01
C     3.708712446900000e+00   4.987826740167072e+00   3.406553976000000e+00 -4.49412600e-02   2.77440690e-01  -8.33873000e-03
C     4.938100285799999e+00   5.699788854974214e+00   3.394876880000000e+00 -1.13108870e-01   2.05500120e-01   2.02177040e-01
C     4.937240025450000e+00   4.272420287397662e+00   7.362360000000000e-03 -5.85089680e-01  -7.31724790e-01  -6.70931600e-02
C     6.156045545400000e+00   4.987128804145488e+00   6.339096000000000e-03  4.27755270e-01  -2.63296960e-01   2.06729300e-02
C     6.167601416099999e+00   4.975833102217178e+00   3.407236559999999e+00  3.45408210e-01  -2.53880880e-01  -1.00545520e-01
C     7.405863698699999e+00   5.701664662101408e+00   3.393485464000000e+00 -9.60176330e-01   2.15229100e-01   3.04865100e-01
C     7.399691055224999e+00   4.303045768697076e+00   5.555872000000000e-03 -9.04103920e-01  -2.03662055e+00  -1.16124920e-01
C     8.616844680074999e+00   4.984075702295891e+00   1.358380593600000e+01 -1.51728830e-01   4.45518660e-01   1.81332370e-01
C     8.619737419200000e+00   5.008769559965371e+00   3.429539880000000e+00  4.53491500e-01  -1.68520647e+00  -5.11658320e-01
C     9.868274499675000e+00   5.665925380900785e+00   3.407658296000000e+00 -1.58484560e-01   2.09052192e+00   1.52858130e-01
C     3.703819434225000e+00   6.398465272808209e+00   6.813005543999999e+00 -3.71222130e-01   7.43089900e-01   1.63954480e-01
C     1.243511290575000e+00   7.233493335802734e-01   6.810925696000000e+00 -8.29106740e-01  -2.47789160e-01  -7.83834600e-02
C     1.265562071325000e+00   7.064899966786663e-01   1.019891118400000e+01 -2.96200094e+00  -3.19565830e-01   5.98676300e-02
C     2.454151917075000e+00   1.397964506336198e+00   1.018877265600000e+01  8.31368400e-01   1.47241677e+00   2.12301670e-01
C     2.460759756300000e+00   1.443570955706880e-02   6.782731944000000e+00  5.43854100e-01  -3.06289030e-01   1.89923920e-01
C     3.705932222700000e+00   6.937699237597129e-01   6.776882312000000e+00  2.44349560e-01   6.55429500e-01   5.61520500e-02
C     3.669434643900000e+00   7.042622755820652e-01   1.022668143200000e+01  1.86654264e+00  -4.41027500e-02  -4.33581030e-01
C     4.937625415875000e+00   1.417103630950808e+00   1.019159547200000e+01 -1.05015255e+00   2.30940060e-01   4.59069470e-01
C     4.964062503899999e+00   2.050771451929200e-03   6.801422152000000e+00 -1.58979593e+00  -5.79940400e-02   1.20459290e-01
C     6.162645287099999e+00   7.209672698692464e-01   6.834476951999999e+00  1.31630424e+00   4.05181600e-01  -4.39763370e-01
C     6.172636967399999e+00   7.169122218774516e-01   1.021608254400000e+01 -3.94521800e-01  -2.27436710e-01  -2.86414950e-01
C     7.378518504674999e+00   1.460649126099564e+00   1.020168245600000e+01  1.78037777e+00  -2.33100501e+00  -7.83404700e-02
C     8.620243422074999e+00   2.145415687989374e+00   6.818597184000000e+00  3.40555110e-01  -9.71332480e-01  -3.10040160e-01
C     2.457099859875000e+00   2.819099425482140e+00   6.779818144000000e+00  7.05408140e-01   1.01875457e+00   3.35213850e-01
C     2.465908931775000e+00   2.831337449911971e+00   1.019202360000000e+01  8.31981000e-03   8.20406780e-01  -8.89291000e-03
C     3.700481072400000e+00   3.579375837968330e+00   1.018668138400000e+01 -6.92208930e-01  -1.69544563e+00   1.08433430e-01
C     3.698175274425000e+00   2.121868000349097e+00   6.777006752000000e+00 -2.46406620e-01  -2.78556800e-01   4.65893700e-02
C     4.914954009750000e+00   2.851920926801747e+00   6.796223416000000e+00  1.17590279e+00  -3.11370810e-01  -8.66947300e-02
C     4.923283700775000e+00   2.857290064463835e+00   1.020620187200000e+01  7.41952310e-01  -7.46945370e-01  -2.82501510e-01
C     6.169062224399999e+00   3.547092870692170e+00   1.019341991200000e+01 -6.00074470e-01   5.54679100e-01   2.69846200e-02
C     6.185334071474999e+00   2.162994351133816e+00   6.791890048000000e+00 -1.80846092e+00  -1.59574090e+00   2.99362770e-01
C     7.396069834650000e+00   2.830436178703333e+00   6.798634968000000e+00  5.22973000e-03   2.28213413e+00   3.72622000e-02
C     7.402471575224999e+00   2.847844936886750e+00   1.018220589600000e+01 -4.45608760e-01   6.09791190e-01   2.69109540e-01
C     8.631238049249999e+00   3.554926558906523e+00   1.020829260000000e+01  3.89586580e-01   2.07231350e-01  -1.89358900e-01
C     2.479950557775000e+00   4.249510399797663e+00   6.812536072000000e+00 -1.62100241e+00   4.80632140e-01  -2.04564580e-01
C     3.675194868225000e+00   4.982534069343831e+00   6.806920359999999e+00  1.60626144e+00  -6.22641830e-01   6.70881800e-02
C     3.688622894100000e+00   4.973258334387143e+00   1.018240418400000e+01  6.96732070e-01   5.28337580e-01   2.11085390e-01
C     4.937749614900000e+00   5.673424062386481e+00   1.020956365600000e+01 -8.06601770e-01   1.09791054e+00  -2.16956440e-01
C     4.938172017299999e+00   4.255397001494839e+00   6.809256839999999e+00 -1.17652834e+00   1.20704167e+00  -7.27601400e-02
C     6.154999485674999e+00   4.997345836922439e+00   6.807089272000000e+00 -3.71186920e-01  -5.65814110e-01  -2.10879100e-01
C     6.144202933575000e+00   4.977591903553270e+00   1.020227623200000e+01  1.07940771e+00  -6.25454750e-01   7.77998500e-02
C     7.378932624675000e+00   5.696384799793889e+00   1.021695348800000e+01  1.24426190e-01  -2.52617210e-01   8.33148200e-02
C     7.367513820299999e+00   4.288413384381126e+00   6.789664680000000e+00  1.44490447e+00  -6.05274270e-01   1.79646610e-01
C     8.620930713374999e+00   4.995335796550499e+00   6.809460976000000e+00  6.26487270e-01  -1.21562272e+00  -9.38240400e-02
C     8.619208491824999e+00   4.987433710862203e+00   1.022279264800000e+01  5.07065050e-01  -2.80824620e-01  -2.14774220e-01
C     9.873503578125000e+00   5.677539886785366e+00   1.019766814400000e+01 -1.09043623e+00   9.93223920e-01   1.85120260e-01
