72
Lattice="7.395 0 0 3.6975 6.40425786098592 0 0 0 13.6 " PBC="1 1 1" Properties=species:S:1:pos:R:3:force:R:3 Energy="-575.26246846"
C     1.101322604370000e+01   6.344468477129984e+00   1.327072577600000e+01  2.31379815e+00  -5.23274170e-01  -2.50349810e-01
C     1.197370520850000e+00   6.402236676219385e-01   1.319253801600000e+01 -7.23585320e-01  -7.19200730e-01   2.14666570e-01
C     1.256922307950000e+00   7.738412070168781e-01   3.478006880000000e+00  7.76394180e-01   9.25296240e-01   3.71914860e-01
C     2.497204682700000e+00   1.510088908054927e+00   3.430509968000000e+00  2.05886498e+00  -3.91400552e+00   8.55215420e-01
C     6.150121595775000e+00   6.309485282612313e+00   1.324547588000000e+01 -8.21290470e-01   1.45655967e+00   9.43371210e-01
C     3.669745049025000e+00   6.347649984349675e-01   1.331059132000000e+01 -2.56761280e-01  -9.65870200e-02  -1.52990414e+00
C     3.820371585525000e+00   8.481975226875150e-01   3.631332736000000e+00 -3.32966377e+00  -2.72750010e+00  -7.54711170e-01
C     5.030082105900000e+00   1.566323799727487e+00   3.740926840000000e+00 -1.93951295e+00  -4.45734460e-01  -1.18672591e+00
C     8.595735726525000e+00   6.377215176717786e+00   1.322112263200000e+01  1.49797561e+00  -1.72058072e+00   1.01019461e+00
C     6.131885008125000e+00   6.893522026453063e-01   1.331720078400000e+01 -3.38103750e-01   3.54153970e-01   2.65310200e-02
C     6.180084102149999e+00   8.338620397659553e-01   3.723669936000000e+00  3.33870880e+00  -1.11281033e+00  -1.03722295e+00
C     7.449985929225000e+00   1.531005918694052e+00   3.519325040000000e+00 -1.70469292e+00  -2.19457770e-01   7.73555330e-01
C     8.557851733125000e+00   2.070001068707372e+00   1.313599180000000e+01  3.14043410e+00  -9.84086740e-01   8.27434190e-01
C     2.454719520300000e+00   2.756576641314896e+00   1.302299076000000e+01 -7.25346830e-01   1.13860280e-01   3.42643590e-01
C     2.527048314450000e+00   2.848830103873354e+00   3.507652704000000e+00 -1.26721265e+00   4.65688362e+00   3.78060080e-01
C     3.674571765525000e+00   3.623650201704133e+00   3.720870920000000e+00  3.97147439e+00   3.27143490e-01  -1.12829042e+00
C     3.675927712725000e+00   2.034240077072603e+00   1.308552750400000e+01  1.20765745e+00   1.54607620e+00   2.80449951e+00
C     4.909994294175000e+00   2.790612261839602e+00   1.346363851200000e+01 -5.21897390e-01   8.89156490e-01  -1.93943955e+00
C     5.016256192049999e+00   2.943986488434592e+00   3.609844056000000e+00 -1.13796712e+00   3.39571178e+00   1.23441074e+00
C     6.249075163050000e+00   3.750890317079506e+00   3.610035952000000e+00 -2.67248545e+00  -3.46205309e+00   1.32163830e-01
C     6.188355002924999e+00   2.139633411652737e+00   1.350128562400000e+01 -2.68497986e+00  -2.75570011e+00  -1.25401290e-01
C     7.419567410175000e+00   2.749389975272140e+00   1.351440350400000e+01 -1.93181560e-01   3.77258884e+00  -4.67951480e-01
C     7.423875922050000e+00   2.979070806183873e+00   3.530782904000000e+00  2.64255541e+00  -8.14605000e-03  -3.53427610e-01
C     8.737542024674999e+00   3.649420166821830e+00   3.502807432000000e+00 -2.52135246e+00  -1.47952388e+00   5.13125890e-01
C     2.499370012650000e+00   4.184244928159296e+00   1.303542048000000e+01 -1.52217163e+00  -1.23700221e+00   9.76449610e-01
C     3.679757509274999e+00   4.873487361824882e+00   1.320613924000000e+01 -3.45275160e-01   3.59009378e+00  -3.21669700e-02
C     3.700000434375000e+00   5.076644638596531e+00   3.783095136000000e+00  3.54233540e-01  -6.76253610e-01  -1.11694555e+00
C     4.988811313425000e+00   5.768183318917820e+00   3.689792880000000e+00 -5.02458419e+00   2.32503190e+00  -2.56490390e-01
C     4.889721567225000e+00   4.266067455728279e+00   1.338352744000000e+01  2.03196963e+00  -3.57579875e+00   8.15029400e-01
C     6.154342920600000e+00   4.932197947458381e+00   1.348360793600000e+01  8.18602910e-01  -5.47867140e-01  -1.61754020e-01
C     6.155977363500000e+00   5.144816106281452e+00   3.684361448000000e+00  4.53802516e+00  -2.66621711e+00  -9.14976920e-01
C     7.435081565550000e+00   5.724779934250978e+00   3.588021496000000e+00  9.56954050e-01   4.68225169e+00   9.26851330e-01
C     7.447108793550000e+00   4.233381724675303e+00   1.357566225600000e+01 -4.14403710e-01  -1.01482501e+00  -2.14944380e+00
C     8.678412787875001e+00   4.898665957771787e+00   1.316752952000000e+01 -2.40498552e+00   1.51061457e+00   1.89823024e+00
C     8.682869347650000e+00   5.046696983949021e+00   3.648209520000000e+00 -6.67013030e-01  -8.13606100e-02  -9.31461320e-01
C     9.861439338149999e+00   5.803383489691789e+00   3.663347136000000e+00  1.67718523e+00   4.59565220e-01   1.08765245e+00
C     5.703600809999999e-02   5.255257148821681e-02   7.210908768000000e+00 -3.04775118e+00   1.44407019e+00  -7.69759930e-01
C     1.250853933975000e+00   7.113417343482450e-01   6.928335448000000e+00  1.95782280e-01   3.02356215e+00  -5.01646940e-01
C     1.204575395400000e+00   6.125709787785588e-01   1.016047064800000e+01 -3.08461109e+00   4.18886740e-01   7.13807270e-01
C     2.373061526925000e+00   1.346134078964275e+00   1.020843023200000e+01  2.84047582e+00   1.13646470e-01   3.67798890e-01
C     2.435679539850000e+00   2.803476686730720e-02   6.706776759999999e+00  2.93931004e+00   1.06789617e+00   4.55318440e-01
C     3.657826897275000e+00   8.320937601282306e-01   6.621831568000000e+00  9.76668870e-01  -1.22582086e+00   4.37682800e-01
C     3.647807892450000e+00   6.840547926712500e-01   1.052001004000000e+01  5.45211640e-01  -2.17867781e+00  -3.00375846e+00
C     4.909157254125001e+00   1.360118544512528e+00   1.024278777600000e+01 -2.83047760e+00  -1.40230978e+00   1.76127388e+00
C     4.895788277325000e+00   6.896162501968740e-02   6.820142688000000e+00 -9.90395730e-01   7.57227700e-02   8.79814030e-01
C     6.089689914600000e+00   7.354244977327248e-01   7.122806880000000e+00  3.33044505e+00   1.42130008e+00  -1.29566903e+00
C     6.100015331250000e+00   5.919743731601701e-01   1.037589274400000e+01 -6.57466010e-01   5.48598700e-02  -1.13317279e+00
C     7.279378879199999e+00   1.283565056055282e+00   1.017668157600000e+01  3.64385944e+00   7.14482760e-01  -9.50545400e-02
C     1.286289442875000e+00   2.201423228507903e+00   6.808989328000000e+00  1.23154900e-02  -1.82578504e+00   1.58563480e-01
C     2.478809546250000e+00   2.999375505729002e+00   6.595946008000000e+00  9.14123730e-01  -1.25196676e+00   2.19380701e+00
C     2.396078501400000e+00   2.758762158352200e+00   1.004978732000000e+01 -2.24243800e-02   7.46486540e-01   3.84179880e-01
C     3.670659144975000e+00   3.455171212733441e+00   9.976830800000000e+00 -3.37509250e+00   1.32227518e+00   1.34503679e+00
C     3.741845485575000e+00   2.277227226667794e+00   6.577825368000000e+00 -3.70558413e+00  -2.78587285e+00   2.26746470e-01
C     4.935688332600000e+00   2.883383380560883e+00   6.696670600000000e+00  3.76279748e+00   2.33009169e+00   1.08981523e+00
C     4.826352259275000e+00   2.760932369213218e+00   1.011742800800000e+01  3.98896800e+00  -1.65151900e-01  -1.39840810e-01
C     6.080670750750000e+00   3.480576455366010e+00   1.022332563200000e+01  7.02193350e-01  -3.10527330e-01  -3.32889740e-01
C     6.187107651300000e+00   2.166527516152600e+00   6.927388752000000e+00 -1.77221574e+00  -1.71260204e+00   1.93197670e-01
C     7.433312163900000e+00   2.801803510322217e+00   6.959743695999999e+00  1.12949690e-01   3.54887923e+00  -9.02828710e-01
C     7.333334426100000e+00   2.707216336199576e+00   1.016155796800000e+01 -1.93304168e+00   1.42509987e+00   6.40255430e-01
C     8.536866350024999e+00   3.465269446527088e+00   1.019381485600000e+01  9.52461120e-01  -2.00130612e+00  -7.48659300e-01
C     2.525581996875000e+00   4.372699501863693e+00   6.976613000000000e+00 -1.87262777e+00   1.05334360e-01  -1.15713852e+00
C     3.742209837225000e+00   5.091337286978943e+00   7.116665120000000e+00  1.86373827e+00  -3.56431950e+00  -1.81767817e+00
C     3.671566252650000e+00   4.892776922456624e+00   1.014240304800000e+01 -1.18290615e+00   1.17348830e-01   3.96976110e-01
C     4.906925554050000e+00   5.621562510321358e+00   1.023046236800000e+01 -9.86074890e-01  -4.02125470e-01  -2.53156090e-01
C     5.012640517725000e+00   4.312314907268168e+00   6.807672576000000e+00 -1.40462493e+00   1.37887698e+00   1.05000089e+00
C     6.275274132074999e+00   5.027207610472047e+00   6.788110880000000e+00 -3.17306007e+00  -1.12351959e+00   1.08618060e-01
C     6.110586298875000e+00   4.925785043850271e+00   1.033127712800000e+01  1.42323044e+00  -2.24029992e+00  -1.10355200e-01
C     7.393269126300000e+00   5.548881228294004e+00   1.050705780800000e+01 -4.24756724e+00   4.34104871e+00  -5.44293420e-01
C     7.454493218700000e+00   4.280975863557994e+00   6.847689352000000e+00 -1.09515890e-01  -8.01339600e-01   6.54911800e-02
C     8.618141208450000e+00   5.041801569240837e+00   6.907975295999999e+00  1.86274069e+00  -7.77975900e-02   1.15608600e-01
C     8.528050215900000e+00   4.842768634531027e+00   1.039392879200000e+01  3.63822639e+00   5.38636480e-01  -5.71236530e-01
C     9.795464475899999e+00   5.578738390777953e+00   1.036978906400000e+01  5.79829080e-01  -1.08057083e+00  -9.46919820e-01
