72
Lattice="7.395 0 0 3.6975 6.40425786098592 0 0 0 13.6 " PBC="1 1 1" Properties=species:S:1:pos:R:3:force:R:3 Energy="-576.53176204"
C     3.649955696250000e+00   6.212713039750418e+00   3.488159280000000e-01 -2.96195380e-01  -1.54667037e+00  -1.60427643e+00
C     1.123028400975000e+00   5.382500146113091e-01   2.967151440000000e-01  3.60552270e+00  -2.96123944e+00   1.13499080e-01
C     1.420065547500000e+00   1.021450181424473e+00   3.441547320000000e+00 -6.84976180e-01   1.11268972e+00  -1.52937140e-01
C     2.695717726574999e+00   1.686806782634774e+00   3.567691400000000e+00 -1.28155877e+00   1.78670107e+00  -1.06040328e+00
C     6.075485228850000e+00   6.171342814826390e+00   1.899571840000000e-01  2.15681355e+00  -6.55131100e-02  -1.46032480e-01
C     3.684074377500000e+00   4.863360116743128e-01   2.682251840000000e-01 -9.43316170e-01  -6.20692120e-01  -1.01703122e+00
C     3.917955894600000e+00   1.036471368235103e+00   3.422396616000000e+00 -1.31768330e-01  -2.20197920e-01   2.25370870e-01
C     5.100646416075000e+00   1.819661062577959e+00   3.346241240000000e+00  2.31806461e+00  -1.76987240e+00  -9.67340090e-01
C     8.616505101674999e+00   6.170894965074240e+00   1.789866080000000e-01  5.87983750e-01   4.90637250e-01  -5.28598440e-01
C     6.199720970025000e+00   5.684884866082422e-01   1.311407200000000e-01 -3.94390421e+00  -1.70909267e+00   9.07070820e-01
C     6.354766832474999e+00   1.126850112390202e+00   3.195432064000000e+00  4.21778440e-01  -2.61709185e+00   9.97046170e-01
C     7.615223210925000e+00   1.860236519101561e+00   3.393650840000000e+00 -2.01113102e+00  -5.81264438e+00  -7.20221230e-01
C     1.182585179700000e+00   1.917907949854697e+00   3.705107840000000e-01  1.01909300e+00  -2.87917200e-02  -1.15512578e+00
C     2.463760869150000e+00   2.568015949057759e+00   4.690512160000000e-01 -1.33563861e+00   2.09562047e+00  -8.17216510e-01
C     2.701844188275000e+00   3.162363291882795e+00   3.487152744000000e+00 -2.84256704e+00  -1.37568841e+00   4.01867720e-01
C     3.882495020850000e+00   3.881428817380514e+00   3.308669744000000e+00  1.15087969e+00  -1.56915483e+00  -2.59220890e-01
C     3.697098229650000e+00   1.944785723497017e+00   3.024441440000000e-01 -3.81231080e-01  -2.39550917e+00   6.64316100e-01
C     4.889542201499999e+00   2.675978799976482e+00   1.783289120000000e-01  7.76489420e-01  -2.00778999e+00  -8.56999790e-01
C     5.161052732400000e+00   3.207011023851835e+00   3.242205048000000e+00 -9.50471810e-01   1.74656540e+00   1.34530784e+00
C     6.403185779850000e+00   3.980649087809395e+00   3.343645816000000e+00 -3.48723937e+00  -2.12317083e+00  -9.38976900e-02
C     6.141686636924999e+00   2.010234484995337e+00   3.937159200000000e-02 -2.37960070e-01  -3.48155737e+00   3.31552660e-01
C     7.396186379850000e+00   2.595854745634551e+00   4.286937600000000e-02  9.16510000e-04   2.26342342e+00   1.49216981e+00
C     7.527191577975000e+00   3.195709237878558e+00   3.517238936000000e+00  3.44521652e+00   2.80218731e+00  -3.29248340e-01
C     8.796079624499999e+00   3.854837570234852e+00   3.530377488000000e+00  1.82907619e+00   1.33993155e+00  -6.90094520e-01
C     2.439470549625000e+00   4.014604142770222e+00   4.657997280000000e-01  4.28216900e-01  -7.18588790e-01  -1.75228099e+00
C     3.673805088900000e+00   4.708008319363549e+00   3.776884560000000e-01 -3.13226280e-01   2.85353017e+00  -7.38380600e-01
C     3.832655715825000e+00   5.241916759486408e+00   3.142712072000000e+00  4.40050350e-01   2.59664552e+00   9.05554210e-01
C     5.024682165974999e+00   6.007487892158354e+00   3.271172912000000e+00  2.60703391e+00   9.29346120e-01   5.08939880e-01
C     4.893016594350000e+00   4.036884235652268e+00   1.188618240000000e-01  2.64503950e-01   1.64018531e+00   5.20029330e-01
C     6.162589048125000e+00   4.694683940672927e+00   1.356154912800000e+01 -1.30402460e+00   3.34949042e+00   1.72074146e+00
C     6.334978847775000e+00   5.379298465481140e+00   3.384418208000000e+00 -2.33190850e-01  -7.23197480e-01  -4.71435900e-01
C     7.605870421650000e+00   6.016456350822918e+00   3.402084472000000e+00 -1.14985631e+00   1.71001558e+00   6.30214300e-02
C     7.404846664350000e+00   4.009960607523671e+00   6.610334399999999e-02 -4.77501120e-01   6.33821200e-01  -1.00120183e+00
C     8.627027558099998e+00   4.696870418348909e+00   1.312965760000000e-01  2.62369850e-01   2.53396582e+00   1.75446457e+00
C     8.808267915599998e+00   5.309626992520251e+00   3.354390632000000e+00 -1.06831270e-01  -2.47145034e+00   1.39990620e-01
C     1.001662389382500e+01   5.951433600557445e+00   3.143081448000000e+00  6.72608150e-01   4.24921511e+00   9.05621400e-01
C     7.341295402425000e+00   1.964413236816030e-01   6.448273400000001e+00 -2.57443500e-02   1.07525284e+00   1.98862800e-01
C     1.196332262850000e+00   9.102972415805269e-01   6.530440112000000e+00  4.41086400e-01  -1.00538359e+00   1.39702230e-01
C     1.096157559225000e+00   4.344841300385586e-01   1.022253193600000e+01 -3.87450110e-01  -1.54092185e+00   8.41512290e-01
C     2.377505737050000e+00   1.154028950194520e+00   1.042016985600000e+01 -2.83441633e+00  -2.72345389e+00  -5.08715240e-01
C     2.430854302350000e+00   1.111761232573992e-01   6.542373568000000e+00  4.37494800e-02   5.05753342e+00   3.83774490e-01
C     3.639255353100000e+00   9.298626335982985e-01   6.610429056000000e+00 -7.75037080e-01   4.55398660e-01  -5.03014610e-01
C     3.570032458950000e+00   4.539345656277433e-01   1.037134449600000e+01  1.24786136e+00  -2.70612475e+00  -1.19056315e+00
C     4.791374796675001e+00   1.088801263677527e+00   1.025126560800000e+01  3.88223130e-01   1.32036528e+00   7.25276650e-01
C     4.830039849975000e+00   1.895580273336750e-01   6.411777664000001e+00 -2.13243730e-01  -3.07946500e-02   1.10225937e+00
C     6.039975769950000e+00   8.508325545840121e-01   6.440389616000000e+00  3.03844071e+00   2.08892071e+00   2.86573880e-01
C     6.023499007424999e+00   3.540633023873946e-01   1.015314405600000e+01 -9.85671440e-01   2.27099808e+00   4.47839790e-01
C     7.211170726950000e+00   1.071740640951381e+00   1.020181764000000e+01  2.88117375e+00   1.04007939e+00  -1.57885080e-01
C     8.623435215000001e+00   2.359777534099986e+00   6.606414200000000e+00  6.84415360e-01  -2.44262146e+00  -2.24534320e-01
C     2.403345789750000e+00   3.142679741307507e+00   6.600137664000000e+00  2.08125847e+00  -2.10975573e+00   1.02993772e+00
C     2.349953335125000e+00   2.495133765461337e+00   1.050263712800000e+01 -1.32779359e+00   4.70918301e+00  -1.15568053e+00
C     3.588180565425000e+00   3.276273648990943e+00   1.041881896800000e+01 -1.62622526e+00  -1.72420606e+00   1.62104780e-01
C     3.659427249225000e+00   2.445572750904684e+00   6.698134368000000e+00 -9.48416770e-01  -4.12934905e+00  -1.00376932e+00
C     4.921004450850000e+00   3.027063417990612e+00   6.613362440000000e+00 -5.42032380e-01   2.54925247e+00  -1.61088170e-01
C     4.772864520074999e+00   2.509397712822600e+00   1.035424562400000e+01  2.22711888e+00   1.68940316e+00  -7.87624420e-01
C     6.057275004375000e+00   3.239097828709743e+00   1.023951765600000e+01 -1.99334109e+00   1.25059701e+00  -3.79604870e-01
C     6.103341084599999e+00   2.275955917440005e+00   6.547135608000000e+00  1.28438040e+00  -9.87802100e-02   3.00798110e-01
C     7.403729797500000e+00   2.966359122842716e+00   6.612604376000000e+00 -2.75046484e+00   1.21496092e+00  -3.52851390e-01
C     7.247459507924999e+00   2.501886030693449e+00   1.020418825600000e+01 -1.36150760e+00  -1.08278800e-01   5.29445270e-01
C     8.407626227474999e+00   3.216658461934718e+00   1.032846818400000e+01  5.08754929e+00   6.68069620e-01  -3.11107290e-01
C     9.854900383350000e+00   4.523980432734563e+00   6.578504280000000e+00 -1.29682445e+00  -8.57134000e-02  -8.82756960e-01
C     3.671673812925000e+00   5.201094867120353e+00   6.480456576000000e+00  1.80385720e+00  -1.96733780e-01   4.69985910e-01
C     3.559017310650000e+00   4.695839332833449e+00   1.029949175200000e+01 -1.86298800e-01  -1.34379296e+00   1.51774500e-01
C     4.744837507050000e+00   5.367157465557889e+00   1.023647479200000e+01  4.35295146e+00   2.60054558e+00  -3.35113170e-01
C     4.921209403274999e+00   4.500432424881393e+00   6.528747048000000e+00 -2.03463520e-01  -1.84307672e+00   1.71404410e-01
C     6.167679137550000e+00   5.153489392701250e+00   6.508300264000000e+00  4.79335910e-01  -2.30185980e+00   2.86142790e-01
C     6.069577659149999e+00   4.710092649126666e+00   1.017925428800000e+01 -1.05928715e+00  -1.73605779e+00   7.51596730e-01
C     7.327138044674999e+00   5.423149187559503e+00   1.019338754400000e+01 -2.16104409e+00  -6.20462630e-01   1.77031010e-01
C     7.428344831475000e+00   4.374862603998487e+00   6.568284559999999e+00 -1.49559330e+00   2.51134091e+00  -4.13931900e-01
C     8.615534323049999e+00   5.175995491843176e+00   6.459678224000000e+00 -1.58489705e+00  -7.31007710e-01   7.70378040e-01
C     8.527833986099999e+00   4.654591429234547e+00   1.017124089600000e+01 -1.42850400e+00   9.78031700e-02   1.11567204e+00
C     9.744929227424999e+00   5.405753301934386e+00   1.023473372000000e+01 -7.79867630e-01  -3.12883057e+00  -3.09387700e-01
