72
Lattice="7.395 0 0 3.6975 6.40425786098592 0 0 0 13.6 " PBC="1 1 1" Properties=species:S:1:pos:R:3:force:R:3 Energy="-573.85246922"
C     3.649614010275000e+00   6.276239883464951e+00   7.098247999999999e-02  1.45200719e+00  -4.46815096e+00  -8.44850330e-01
C     1.234159240800000e+00   4.268553140331480e-01   1.351212482400000e+01 -8.42869940e-01   3.20489648e+00   9.25901600e-01
C     1.340678004000000e+00   9.902472281938237e-01   3.280733032000000e+00  1.83133085e+00   4.92924290e-01   7.06712870e-01
C     2.606739237825000e+00   1.644365381541082e+00   3.073699960000000e+00  1.88494953e+00   2.29544276e+00   1.51286110e+00
C     6.161090044650000e+00   6.187460538667809e+00   1.579168080000000e-01 -3.11515540e-01   3.85308020e-01   2.39579000e-03
C     3.678791944125000e+00   5.201674644584419e-01   1.897707280000000e-01 -1.70676735e+00   1.28527910e-01  -1.40771145e+00
C     3.901169022750000e+00   1.056941169547864e+00   3.329687592000000e+00 -2.34397472e+00  -3.16149598e+00   6.28181100e-01
C     5.114464084500000e+00   1.736274743324722e+00   3.604450160000000e+00 -1.36614804e+00  -2.56328680e-01  -1.19101917e+00
C     8.552225617125000e+00   6.188291234954829e+00   2.323270320000000e-01  3.67694855e+00   1.88007697e+00  -7.98563720e-01
C     6.125121799950000e+00   4.734083767581168e-01   1.498275280000000e-01 -1.23582289e+00   2.97221217e+00   1.02931344e+00
C     6.313802821575000e+00   1.013074116611957e+00   3.740957168000000e+00  1.30040905e+00  -8.40882000e-01  -9.97771360e-01
C     7.554005811000000e+00   1.740793971926209e+00   3.426305527999999e+00 -1.82895113e+00  -3.30083467e+00   7.41841880e-01
C     1.234112763225000e+00   1.854683259025998e+00   1.343023650400000e+01 -1.05734685e+00   3.06825342e+00   1.16547421e+00
C     2.478869630625000e+00   2.597367623468819e+00   1.321698252000000e+01 -2.84496838e+00   2.36283161e+00   1.97615244e+00
C     2.674697993700000e+00   3.106961530115243e+00   3.187235480000000e+00 -2.99360389e+00   1.32239951e+00   9.30965470e-01
C     3.777039399825000e+00   3.888441543779793e+00   3.579130904000000e+00  3.95856111e+00  -2.23002230e+00  -8.29425800e-01
C     3.655120031475000e+00   1.925181073378563e+00   1.345749090400000e+01  2.50467376e+00  -5.72797830e-01   1.62110492e+00
C     4.872733218600000e+00   2.627723869767797e+00   2.012003040000000e-01  5.80889550e-01   9.81132710e-01  -5.46504980e-01
C     5.039278121174999e+00   3.124885574886075e+00   3.518509448000000e+00  2.35123726e+00   3.08992627e+00   5.88579100e-01
C     6.362863765875000e+00   3.853409740944965e+00   3.461279968000000e+00 -3.35314781e+00  -7.28242510e-01   6.92084820e-01
C     6.126534503775000e+00   1.902521400133154e+00   3.791622880000000e-01  6.02953560e-01   1.52047339e+00  -1.61037994e+00
C     7.385404765649999e+00   2.681984584912433e+00   2.943987920000000e-01  5.37552570e-01  -1.03278556e+00  -6.91270990e-01
C     7.533897031200000e+00   3.085457184987778e+00   3.300262768000000e+00  2.44203632e+00   4.66948534e+00   3.10049300e-02
C     8.851900153424999e+00   3.866636710873537e+00   3.243843848000000e+00 -2.73576613e+00  -6.49344980e-01   6.91635870e-01
C     2.432931409950000e+00   4.104498596945947e+00   1.340358132000000e+01  1.43342921e+00  -1.81342847e+00   2.52823410e-01
C     3.683249317350000e+00   4.812211102407510e+00   1.354893336000000e+01 -5.44884790e-01  -3.51223250e-01   5.88967850e-01
C     3.840284841525000e+00   5.288510553291366e+00   3.833230720000000e+00 -2.20190600e-01  -5.25127610e-01  -1.54769868e+00
C     5.071912921725000e+00   6.056566409927834e+00   3.656457512000000e+00  3.24842350e-01  -3.42134174e+00  -6.97376360e-01
C     4.897097599049999e+00   4.075569667596227e+00   1.842152640000000e-01  8.02229460e-01  -1.77988130e-01   3.21021010e-01
C     6.172435231800000e+00   4.813752607274411e+00   4.371569040000000e-01 -2.48800167e+00  -3.59300100e-02  -1.16753072e+00
C     6.320631031800000e+00   5.274298928716819e+00   3.526218472000000e+00  2.97899760e-01   1.24220987e+00  -4.74115170e-01
C     7.572130068599999e+00   5.992430649375970e+00   3.424022768000000e+00 -1.96986406e+00   2.15514354e+00   1.25780040e-01
C     7.407798600450000e+00   4.226313729530693e+00   4.978600960000000e-01  1.35594693e+00  -6.74150630e+00  -2.66604042e+00
C     8.647832281349999e+00   4.820096024684741e+00   1.192856000000000e-01 -1.93649824e+00  -1.20103454e+00   8.54140620e-01
C     8.777673691350000e+00   5.347689034004117e+00   3.499035064000000e+00  7.11644200e-01  -5.66501493e+00  -4.66789910e-01
C     9.982728689475000e+00   5.915650578275639e+00   3.781623480000000e+00  1.65777778e+00   5.28465789e+00  -4.40759050e-01
C     7.422373221075000e+00   1.669972358296242e-01   6.898228448000000e+00 -2.32552544e+00   8.20485330e-01  -6.87366610e-01
C     1.217494904100000e+00   8.861060541104773e-01   6.676147112000000e+00  1.19033986e+00  -9.14039290e-01   5.24493660e-01
C     1.118019101925000e+00   4.630929745804362e-01   1.010176094400000e+01 -1.27969052e+00  -9.77771640e-01   8.59216400e-01
C     2.326216975050000e+00   1.163155914241121e+00   9.801247728000000e+00 -9.36991570e-01  -8.92293650e-01   9.44891560e-01
C     2.470889797050000e+00   1.543364663384544e-01   6.784886592000000e+00 -1.47120871e+00   2.72182662e+00  -5.22391830e-01
C     3.648030666825000e+00   8.969881050236106e-01   6.770117808000000e+00  1.41692164e+00   8.95402540e-01  -4.45521600e-01
C     3.514227644400000e+00   4.326153035524321e-01   9.906839352000000e+00  3.71473162e+00   1.34614680e-01   7.82661420e-01
C     4.845445890450000e+00   1.182024266833410e+00   1.000492554400000e+01 -2.45726581e+00  -1.57144353e+00   5.53552240e-01
C     4.886474237849999e+00   2.216064066444228e-01   6.883219760000000e+00 -6.59570050e-01  -2.15691779e+00  -8.93752100e-02
C     6.107645381325000e+00   8.702540429276695e-01   6.879833903999999e+00  2.94556109e+00   1.31272127e+00  -5.38016320e-01
C     6.050510945775000e+00   3.941043876351583e-01   1.030791300800000e+01 -1.52173596e+00   1.58581521e+00  -8.30087780e-01
C     7.247037955950001e+00   1.166428746177895e+00   1.033191170400000e+01  2.15986125e+00  -1.08564277e+00  -1.40509588e+00
C     8.656911418649999e+00   2.286980591175681e+00   6.507991680000000e+00 -1.70811958e+00  -9.14362600e-02   8.28894830e-01
C     2.459867512575000e+00   3.005643288854006e+00   6.478947792000000e+00  7.12022140e-01   2.46077581e+00   1.54593199e+00
C     2.302100807775000e+00   2.547292090835692e+00   9.711673504000000e+00  3.00329570e-01   3.52571793e+00   1.51791248e+00
C     3.571527173325000e+00   3.351934319859927e+00   9.787423056000000e+00 -8.15632910e-01  -2.88218985e+00   8.44414370e-01
C     3.687590958825000e+00   2.326724582901319e+00   6.605859728000000e+00 -1.12122968e+00  -1.96613174e+00   8.89485900e-02
C     4.902840260250001e+00   2.965868428605483e+00   6.658750264000000e+00  2.24137671e+00   4.11117054e+00   7.65285320e-01
C     4.779257534549999e+00   2.642041356724770e+00   9.979970496000000e+00  2.04119522e+00  -2.42660559e+00   5.09992950e-01
C     6.037683911549999e+00   3.290490909312407e+00   1.027239021600000e+01 -1.13137672e+00   7.97150150e-01  -9.95561850e-01
C     6.144915404850000e+00   2.323622808691985e+00   6.734246039999999e+00  1.80421240e-01  -3.22498238e+00   1.95635420e-01
C     7.406369775525000e+00   2.959646243796442e+00   6.654230984000000e+00 -3.86232090e-01   1.75516414e+00   2.03936610e-01
C     7.273229714849999e+00   2.597484885430235e+00   1.024436197600000e+01 -2.26810554e+00  -1.98697527e+00   1.63379980e-01
C     8.442502230675000e+00   3.269563395690392e+00   1.001900263200000e+01  3.24742535e+00   1.05710830e-01  -7.93192780e-01
C     9.894805984874999e+00   4.452238463207535e+00   6.757390520000000e+00 -2.30830267e+00  -1.04010590e-01  -6.24340330e-01
C     3.738364215374999e+00   5.154229532782130e+00   6.853000968000000e+00  4.06351100e-02  -5.54660860e-01  -1.21272860e-01
C     3.647050829325000e+00   4.697205040822094e+00   1.010144406400000e+01 -3.89074714e+00   7.64018170e-01   1.98543420e-01
C     4.845143508900000e+00   5.383212043416808e+00   1.022728078400000e+01 -1.40825666e+00   3.72720742e+00  -7.59263170e-01
C     5.000756715750000e+00   4.458417099063127e+00   6.776092424000000e+00 -3.65645924e+00  -1.60925413e+00  -3.46424960e-01
C     6.159668355900000e+00   5.200759219965910e+00   6.825732015999999e+00  1.77575715e+00  -4.30596623e+00  -1.52344600e-02
C     6.031620492225000e+00   4.721509071315637e+00   1.022493968000000e+01  5.36271110e-01  -2.31986275e+00   6.87458800e-02
C     7.211075405399999e+00   5.410948884208469e+00   1.014198784000000e+01  2.93724566e+00   1.72478281e+00  -7.39953900e-01
C     7.378594488299999e+00   4.375591088330061e+00   6.791040455999999e+00  8.01004400e-01   2.77145169e+00  -3.00202220e-01
C     8.571786242549999e+00   5.182435741632349e+00   6.841573432000000e+00  2.30596621e+00  -1.97155390e+00  -2.38942620e-01
C     8.469752325000000e+00   4.684689135643717e+00   1.007907097600000e+01  5.96153180e-01   1.01612626e+00   7.70453470e-01
C     9.738699235724999e+00   5.365825572050744e+00   1.022842916800000e+01  2.03496150e-01   7.86626910e-01  -9.49593170e-01
