72
Lattice="7.395 0 0 3.6975 6.40425786098592 0 0 0 13.6 " PBC="1 1 1" Properties=species:S:1:pos:R:3:force:R:3 Energy="-579.21496182"
C     3.698521212525000e+00   6.215475516378328e+00   1.351647872800000e+01  2.24195610e-01   1.51747504e+00   1.30106630e-01
C     1.262836348275000e+00   5.590140275301583e-01   1.357889851200000e+01 -2.04444117e+00   1.12119169e+00  -3.79611170e-01
C     1.382669032500000e+00   9.384681629699376e-01   3.643372407999999e+00 -4.99985260e-01   1.11703546e+00  -3.48921630e-01
C     2.550313834875000e+00   1.754653362318457e+00   3.755076416000000e+00  1.50967433e+00  -3.54676731e+00  -8.54998970e-01
C     6.172888323450000e+00   6.275544829359406e+00   1.345987920000000e+01 -1.13325635e+00  -1.40214053e+00   5.07930120e-01
C     3.689569269225000e+00   5.594627098358298e-01   1.347355495200000e+01 -8.66415020e-01   7.27523690e-01  -1.05049840e-01
C     3.788224854975000e+00   9.911002112981970e-01   3.642415784000000e+00 -6.28547900e-01  -2.40100538e+00  -1.08137860e-01
C     5.044408439400000e+00   1.616388188951936e+00   3.543879296000000e+00 -1.41769351e+00   7.64116040e-01   3.84210640e-01
C     8.585783498550001e+00   6.289248019902448e+00   1.341623761600000e+01  1.89094256e+00  -2.36327884e+00   3.23026410e-01
C     6.136977094200000e+00   5.541547968788832e-01   1.347812156000000e+01  7.85695950e-01  -1.61228501e+00   4.84308000e-02
C     6.243345849825000e+00   9.355153517984274e-01   3.471201440000000e+00  2.84808972e+00  -1.10489040e-01   2.39565270e-01
C     7.526962037175000e+00   1.613534003351470e+00   3.573731567999999e+00 -1.18160604e+00   1.11552613e+00   8.42319200e-02
C     1.203603470550000e+00   2.061032610042806e+00   2.878902400000000e-02  1.42793707e+00  -4.02953061e+00  -4.50106720e-01
C     2.431674555750000e+00   2.727648736646433e+00   6.211772799999999e-02  6.13776070e-01   9.31184700e-02  -7.12121320e-01
C     2.554793097300000e+00   3.138576533296605e+00   3.693315960000000e+00  1.53929431e+00  -3.85035540e-01  -2.30673970e-01
C     3.811772457675000e+00   3.785124341512715e+00   3.575946736000000e+00  1.23425732e+00   1.23034115e+00  -3.14578910e-01
C     3.652237645350000e+00   1.950017617913165e+00   1.355768033600000e+01  1.53721792e+00   2.59773565e+00   4.31873780e-01
C     4.953506326275000e+00   2.660228360323334e+00   1.353946177600000e+01 -2.53060371e+00   1.14254235e+00  -4.22626220e-01
C     5.028400556850000e+00   3.003663284451430e+00   3.581504240000000e+00  5.26812280e-01   3.88728770e+00  -1.91003970e-01
C     6.283433294400000e+00   3.805913138909482e+00   3.587873664000000e+00 -1.22949183e+00  -5.33048198e+00  -7.20723000e-03
C     6.147510125475000e+00   1.941159952909578e+00   1.348782257600000e+01  3.44707480e-01   8.95973950e-01  -8.72106000e-03
C     7.374977704725000e+00   2.658600397975322e+00   1.347312968000000e+01 -1.21127281e+00   1.66277710e+00   3.34375000e-01
C     7.497846812924999e+00   3.054429260124443e+00   3.647439216000000e+00  1.57865030e+00   7.07047990e-01  -3.50769110e-01
C     8.759587702874999e+00   3.802739508926959e+00   3.648977104000000e+00 -2.69237627e+00   1.37654231e+00  -6.83038600e-02
C     2.433617739900000e+00   4.169117302583032e+00   1.357952832800000e+01  5.14402500e-01  -2.30423296e+00  -1.70612410e-01
C     3.688763583975000e+00   4.796046691526291e+00   1.353904561600000e+01 -1.78195120e-01   2.04777088e+00  -1.36978340e-01
C     3.872438819175000e+00   5.264734105560329e+00   3.427632479999999e+00 -1.44437974e+00  -1.98484634e+00   8.64488020e-01
C     5.113619760375000e+00   5.936681520662093e+00   3.494473488000000e+00 -1.22538520e+00  -5.27444590e-01   4.13863420e-01
C     4.919528371875000e+00   4.138601334093026e+00   1.349179350400000e+01 -4.32879100e-02  -2.64713015e+00   4.18529670e-01
C     6.122045775749999e+00   4.836794486628905e+00   1.343459856800000e+01  1.21229226e+00   6.32843200e-02  -2.66987150e-01
C     6.278049327674999e+00   5.139371526461773e+00   3.579917120000000e+00  1.33960162e+00   4.17216472e+00  -1.00439410e-01
C     7.515800726700000e+00   5.876829696277941e+00   3.602886704000000e+00 -8.47055040e-01   3.12874018e+00   1.13578800e-01
C     7.332547228350000e+00   4.067583173789336e+00   1.339997922400000e+01  1.73926663e+00   1.97715670e+00   4.65803150e-01
C     8.615426688825000e+00   4.829778173845225e+00   1.344015253600000e+01 -2.25967230e+00   5.82358280e-01   1.02336430e-01
C     8.764929296249999e+00   5.262491526585494e+00   3.578907592000000e+00 -4.50339980e-01  -2.57223580e+00  -2.31420430e-01
C     9.985515791025000e+00   5.951280923050063e+00   3.454106240000000e+00  1.01452982e+00  -6.69039260e-01   2.05553890e-01
C     7.443352133549999e+00   1.450432477578084e-01   6.963835936000001e+00 -7.02880910e-01  -1.16584412e+00  -1.25968100e-02
C     1.241374024650000e+00   8.814832046168148e-01   7.015118407999999e+00  1.53268692e+00  -1.57115191e+00  -6.79235030e-01
C     1.117195151025000e+00   4.847876542515007e-01   9.930694431999999e+00 -8.86778660e-01  -6.80745570e-01   6.98167000e-02
C     2.309966758350000e+00   1.181049923042590e+00   1.005236724000000e+01  1.58851025e+00   7.21569910e-01   1.46816010e-01
C     2.516250727050000e+00   1.637832590225832e-01   6.893942679999999e+00 -2.09971722e+00  -1.59767340e-01   4.37151080e-01
C     3.750224649150000e+00   8.126986573269566e-01   6.867115591999999e+00  1.19197143e+00   7.58145360e-01   4.39591730e-01
C     3.536293658850000e+00   4.363161960845688e-01   1.009036672800000e+01  1.89337711e+00   1.84250706e+00  -6.29716930e-01
C     4.858423301999999e+00   1.217429694071791e+00   9.983679488000000e+00 -4.36487609e+00  -1.53276567e+00   7.51560010e-01
C     5.024270634224999e+00   1.152530097684966e-01   6.922501455999999e+00 -1.14884239e+00   1.57060750e+00  -2.21710830e-01
C     6.255718017600000e+00   8.573723265403297e-01   6.986939616000001e+00 -1.85835960e+00   1.60577590e+00  -6.39493490e-01
C     6.030989624775000e+00   5.508168336396727e-01   9.878568216000000e+00  1.93910592e+00  -2.85611618e+00   1.98293020e-01
C     7.302099129299999e+00   1.207973295000872e+00   9.837987584000000e+00 -7.09037160e-01   7.52188500e-01   4.97293900e-01
C     8.626261768874999e+00   2.261163682847870e+00   7.081703463999999e+00 -7.89675200e-02   2.02981314e+00  -9.38497010e-01
C     2.502584582175000e+00   2.896591714099083e+00   7.029729160000000e+00 -7.51957260e-01   2.97077090e+00  -4.42851960e-01
C     2.335881130800000e+00   2.628300381060354e+00   1.006504992000000e+01  3.90118740e-01  -1.13506710e-01  -2.34117800e-01
C     3.588743731650000e+00   3.322212735514874e+00   1.000573800800000e+01 -1.20213721e+00  -1.88230010e-01   2.13192500e-01
C     3.746721193950000e+00   2.244724016963828e+00   6.924149776000000e+00 -1.47348588e+00  -1.62931896e+00   1.85892090e-01
C     4.934269527900000e+00   2.942009365948052e+00   6.947862056000001e+00  1.00076821e+00   3.22773930e+00  -1.40688360e-01
C     4.807502774025000e+00   2.597707561476027e+00   9.986718408000000e+00  1.14336880e-01   1.11767161e+00  -5.74225060e-01
C     5.999047920600000e+00   3.297133533649956e+00   9.818987840000000e+00  2.27089555e+00   2.07216684e+00   1.00490951e+00
C     6.191858162325000e+00   2.355198297602350e+00   6.964584480000000e+00  3.11308320e-01  -3.32592123e+00  -8.00397400e-02
C     7.386685875450000e+00   3.088100862632386e+00   6.992665488000000e+00  1.54567861e+00  -3.24642032e+00   7.17504200e-02
C     7.302055018124999e+00   2.636669913529853e+00   9.820823568000000e+00 -9.83317180e-01   2.41100990e-01   1.04867033e+00
C     8.533037071124999e+00   3.388751757871280e+00   9.994314824000000e+00 -5.99416480e-01  -2.93832891e+00  -3.54611570e-01
C     9.876158789849999e+00   4.384715234503204e+00   6.982449168000000e+00 -1.20879193e+00  -1.73461646e+00  -1.64578540e-01
C     3.656721270825000e+00   5.092079540464917e+00   6.936957848000000e+00  3.01485881e+00   1.22546926e+00   1.99003220e-01
C     3.566048809425000e+00   4.720643215652965e+00   9.882888800000000e+00 -4.82741800e-01   2.02498738e+00   5.95160510e-01
C     4.822664594625000e+00   5.458243239780732e+00   9.884921047999999e+00 -2.62125059e+00   9.54884650e-01   3.10369900e-01
C     4.920579866924999e+00   4.402650166512398e+00   6.971470568000001e+00 -6.43260770e-01  -3.77336890e-01  -6.52159380e-01
C     6.124647965325000e+00   5.155275476175825e+00   6.920010752000000e+00  1.71466473e+00  -9.08356300e-01  -1.93545460e-01
C     6.006589008824999e+00   4.791779406429016e+00   9.896935015999999e+00  1.09787352e+00  -3.94380257e+00   1.88003040e-01
C     7.235856087374999e+00   5.433226287302213e+00   1.002134632000000e+01  1.22846231e+00   1.36114687e+00  -1.23336830e-01
C     7.404100213049999e+00   4.452670302315035e+00   6.924872071999999e+00 -7.32231300e-01   1.60373368e+00   9.24506000e-02
C     8.658792041100000e+00   5.130093742142569e+00   6.945747664000000e+00  2.14132120e-01  -1.01761152e+00  -1.40911260e-01
C     8.522682370275000e+00   4.766033905576344e+00   1.000102152800000e+01 -2.25642888e+00   8.60457400e-01   1.82389100e-02
C     9.677725685924999e+00   5.488040202240796e+00   9.916007792000000e+00  3.78477150e+00   5.19572390e-01   1.80354700e-01
