72
Lattice="7.395 0 0 3.6975 6.40425786098592 0 0 0 13.6 " PBC="1 1 1" Properties=species:S:1:pos:R:3:force:R:3 Energy="-571.13064938"
C     1.101415618680000e+01   6.285316702172508e+00   1.353066298400000e+01  1.19050659e+00   9.94883730e-01  -1.46195988e+00
C     1.264621575225000e+00   4.461574270102950e-01   1.347471503200000e+01 -4.68465825e+00   6.02481498e+00   5.30212500e-01
C     1.253419481325000e+00   9.037124476914534e-01   3.701229392000000e+00  3.25156856e+00  -6.63954230e-01   4.18415200e-01
C     2.582709592050000e+00   1.494572800196877e+00   3.808357408000000e+00 -7.18457400e-02   2.41319951e+00  -2.18705960e-01
C     6.179168046525000e+00   6.276278565182426e+00   1.338509008000000e+01 -1.25918067e+00  -2.76207507e+00  -9.80049620e-01
C     3.672932441925000e+00   5.613459459021415e-01   1.344985831200000e+01 -6.19089260e-01   6.36326600e-02   2.49130880e-01
C     3.902645878200000e+00   9.491963195666954e-01   3.697263496000000e+00 -3.87163164e+00  -3.27190530e+00  -2.85902620e-01
C     5.077985991525000e+00   1.643127566581902e+00   3.584215128000000e+00 -2.79091580e-01   9.92790790e-01  -6.20949040e-01
C     8.535439706624999e+00   6.281425923394823e+00   1.334077978400000e+01  3.84589146e+00   4.72417300e-01  -1.40649330e-01
C     6.027217472249999e+00   5.884767517725097e-01   1.327203151200000e+01  3.97101537e+00   8.61851450e-01   1.15973845e+00
C     6.264204593550000e+00   8.967083029977073e-01   3.479240128000000e+00  1.11636727e+00   9.67368000e-03   4.98481460e-01
C     7.493715411299999e+00   1.645873904480005e+00   3.720058864000000e+00 -1.92062124e+00  -1.98982810e-01  -8.82601340e-01
C     1.209308860950000e+00   1.973509716595217e+00   1.353281124000000e+01  6.28175290e-01   9.13423000e-02  -2.14522700e-01
C     2.457363861375000e+00   2.632746537079659e+00   1.153441840000000e-01 -2.50151360e-01   2.76316929e+00  -4.03390890e-01
C     2.584073082150000e+00   2.906266050064978e+00   3.834786288000000e+00 -7.22391410e-01   3.00193682e+00  -9.26078010e-01
C     3.710195588100000e+00   3.719954933742248e+00   3.527021416000000e+00  3.19731965e+00  -2.41624190e-01   3.23088750e-01
C     3.722590717349999e+00   1.916019846552412e+00   5.637417600000000e-02 -1.11901760e+00   3.80881575e+00  -2.03773304e+00
C     4.870327514174999e+00   2.685558481011206e+00   1.318446750400000e+01 -1.55529970e-01   2.00064551e+00   2.20317801e+00
C     4.972299868349999e+00   3.054914638827652e+00   3.465913080000000e+00  2.97095208e+00   1.60180899e+00   9.51242040e-01
C     6.328216157249999e+00   3.850851688227944e+00   3.552410576000000e+00 -2.73107393e+00  -4.57016804e+00   3.57821050e-01
C     6.083755722899999e+00   1.993343062761851e+00   1.310952443200000e+01  2.51705769e+00   1.90624845e+00   8.51761240e-01
C     7.445793592799999e+00   2.826297491103887e+00   1.325717528000000e+01 -1.95223343e+00  -3.18796000e+00  -4.02946350e-01
C     7.535743451775000e+00   3.072771951231583e+00   3.825415888000000e+00 -5.61204490e-01   6.35789190e-01  -9.13285710e-01
C     8.807995261949999e+00   3.725677138140157e+00   3.886717616000000e+00 -2.94920318e+00   6.00252010e-01  -1.87049302e+00
C     2.448967393500000e+00   4.170332446469390e+00   9.700213600000000e-02  1.74158391e+00  -2.33057510e+00  -8.78022660e-01
C     3.695801035725000e+00   4.918032945881055e+00   1.319472000000000e-03 -7.93373650e-01  -2.98661648e+00  -5.63194010e-01
C     3.751521029625000e+00   5.192964661767082e+00   3.442526928000000e+00 -7.36197160e-01  -2.76306662e+00   3.64593380e-01
C     4.924075039724999e+00   5.920704946663908e+00   3.586506728000000e+00  2.64713461e+00  -2.02042761e+00  -6.45462340e-01
C     4.904590804650001e+00   4.206330139474664e+00   1.325395928800000e+01 -1.84340000e-02  -2.34917531e+00   2.92593500e-02
C     6.141537146999999e+00   4.876910245523317e+00   1.302473781600000e+01  1.06149033e+00   5.61078350e-01   2.36871353e+00
C     6.240555087750000e+00   5.191023082911666e+00   3.584858272000000e+00  3.46816620e-01   3.73793805e+00   4.82248700e-01
C     7.537677281249999e+00   5.914933365437897e+00   3.641144048000000e+00 -2.31066134e+00   3.43097360e-01  -3.59863360e-01
C     7.452054976274999e+00   4.262425994709083e+00   1.314098354400000e+01 -6.16535060e-01  -3.87781117e+00   6.49631830e-01
C     8.708283374400001e+00   4.912503061346682e+00   1.340019573600000e+01 -3.44772272e+00  -2.09330218e+00  -7.32669400e-02
C     8.697738732974999e+00   5.204758999212372e+00   3.520941808000000e+00  1.59227376e+00  -4.29169916e+00   1.53723513e+00
C     9.915029941799999e+00   5.823992647655583e+00   3.373508288000000e+00  1.04991190e+00   4.66697846e+00   8.38664860e-01
C     7.415145754799999e+00   1.730023162972104e-01   6.636748048000000e+00  3.69569240e-01  -2.82603707e+00   5.84405780e-01
C     1.266170494950000e+00   8.427211777488505e-01   6.860109823999999e+00  8.88243220e-01  -3.54659531e+00   6.97927490e-01
C     1.121607045000000e+00   5.641038114643933e-01   1.002944199200000e+01 -1.93237070e-01  -2.11260831e+00   3.09396170e-01
C     2.350006985850000e+00   1.201387924728592e+00   1.020565379200000e+01 -1.88785300e-02   2.40867826e+00  -7.93781220e-01
C     2.509841443575000e+00   1.047258187833858e-01   7.127667112000000e+00 -3.64941126e+00  -8.12388070e-01  -1.83416820e+00
C     3.605794272225000e+00   8.669570028961843e-01   7.247049816000000e+00  5.03728032e+00   1.37282583e+00  -1.43661755e+00
C     3.540780759975000e+00   5.181941845266186e-01   9.921500424000000e+00  3.13984878e+00   1.50761641e+00   1.33868042e+00
C     4.889149342125000e+00   1.291695581621445e+00   1.000969384000000e+01 -4.04460055e+00  -1.75927204e+00  -6.14792250e-01
C     4.825633169475000e+00   1.567096921736346e-01   6.830718728000000e+00  1.71954479e+00  -2.09204190e-01   5.48071050e-01
C     6.138039718725000e+00   7.960878696728958e-01   6.625453112000000e+00 -8.29401270e-01   1.60850452e+00   2.21312024e+00
C     6.029201772600000e+00   4.965237769928437e-01   9.871871712000001e+00  1.63373141e+00  -2.09999220e-01   1.11026732e+00
C     7.269770370824999e+00   1.255783321416023e+00   1.001433538400000e+01 -4.72392320e-01  -1.61771718e+00  -2.76528300e-02
C     1.362766240425000e+00   2.165618559834530e+00   6.965489423999999e+00 -3.15723637e+00   5.30200543e+00   6.29808510e-01
C     2.508512118375000e+00   3.012244029345151e+00   7.180628776000001e+00 -5.59022690e-01   1.51397072e+00  -1.27613814e+00
C     2.334491166600000e+00   2.652552408980074e+00   1.032227583200000e+01  3.29456200e-02   1.21729851e+00  -1.02720665e+00
C     3.583276349325000e+00   3.454008968017007e+00   1.032290836800000e+01 -1.36769850e-01  -5.73795804e+00  -8.68566780e-01
C     3.707782525650000e+00   2.337874203707843e+00   7.330146088000000e+00  3.48557320e-01  -2.35963665e+00  -1.74307486e+00
C     4.977423789900000e+00   2.918440800427152e+00   7.085108223999999e+00 -5.61606420e-01   3.37874478e+00  -3.88905850e-01
C     4.814703433425000e+00   2.732878901912960e+00   1.009905114400000e+01 -4.64277400e-02  -2.38126567e+00   1.06104925e+00
C     6.039460708200000e+00   3.361999699810752e+00   1.004835415200000e+01  1.76170270e-01   2.95135921e+00  -6.66060270e-01
C     6.157954860449999e+00   2.236286151062964e+00   6.921781200000000e+00  1.34771362e+00  -3.12903562e+00  -7.80174840e-01
C     7.421698168500000e+00   2.856877694300230e+00   6.974837111999999e+00  1.73568481e+00   2.18129740e-01  -4.89505260e-01
C     7.234761220650000e+00   2.665783093378205e+00   1.007631398400000e+01  9.40327030e-01  -9.84313070e-01  -5.17256380e-01
C     8.471700981449999e+00   3.356052705961956e+00   1.006576786400000e+01  1.76912809e+00  -1.00563051e+00   9.10148990e-01
C     9.926449818449999e+00   4.503875802204980e+00   6.889046135999999e+00 -1.42329727e+00  -3.14089377e+00   4.48035780e-01
C     3.801907157925000e+00   5.081530575003082e+00   6.767959216000000e+00 -6.49110310e-01   2.67007794e+00  -7.79709300e-02
C     3.665740212825000e+00   4.768572681477205e+00   1.016995964000000e+01 -2.23409052e+00   3.69245526e+00  -1.23377505e+00
C     4.907165484825000e+00   5.494274875352663e+00   9.995411800000001e+00 -4.25203606e+00   2.68235777e+00   4.56986800e-01
C     5.071791532800000e+00   4.391131404282824e+00   6.882002968000000e+00 -4.40137966e+00  -1.85024909e+00   7.14047830e-01
C     6.228580697025000e+00   5.092860347583208e+00   6.958802032000000e+00  2.43646443e+00  -1.39157322e+00   3.54589500e-01
C     6.074284576649999e+00   4.840495122990728e+00   9.896650776000000e+00  3.20415250e-01  -3.35962740e+00   8.29676730e-01
C     7.239043960949999e+00   5.539092832495623e+00   9.764878471999999e+00  4.02904110e+00  -9.21057010e-01   9.15613430e-01
C     7.438579548449999e+00   4.231855077686636e+00   7.021623560000000e+00  3.28653480e-01   5.66621306e+00  -8.51117570e-01
C     8.607385550699998e+00   5.148230728487247e+00   6.836510560000001e+00  7.43616920e-01  -2.44565580e+00   7.87190710e-01
C     8.538714730275000e+00   4.735766102078411e+00   9.848150592000000e+00 -2.20403591e+00   1.27238932e+00   5.46164360e-01
C     9.748472024024998e+00   5.377812805742778e+00   9.936950024000000e+00  1.80174770e+00   4.41163198e+00   2.63549780e-01
