64
Lattice="9.86 0 0 4.93 8.53901048131456 0 0 0 30 " PBC="1 1 1" Properties=species:S:1:pos:R:3:force:R:3 Energy="-505.63307706"
C     4.892714804400000e+00   8.315362694815176e+00  -9.718158000000017e-01  3.66040725e+00   2.23936050e+00   3.25158490e-01
C     1.299957978800000e+00   5.102880214608176e-01  -1.094606100000000e+00 -2.28186155e+00   1.15399525e+00   3.01225633e+00
C     9.787737982700000e+00   1.219263958913000e-01   4.123266900000000e+00  1.71742469e+00   2.49085339e+00  -7.99360940e-01
C     1.224951479800000e+00   8.541452636997280e-01   4.147508100000000e+00 -2.63419516e+00   9.98742590e-01   3.31369160e-01
C     7.443969344899999e+00   8.365362443730291e+00  -9.320985000000022e-01  1.30067840e-01  -2.18161229e+00  -1.83945500e-02
C     3.746767314100000e+00   4.979306216644760e-01  -5.734977000000008e-01 -1.29896151e+00   8.26869240e-01  -2.37669056e+00
C     2.387704206200000e+00   7.714756876386560e-02   4.026054300000000e+00  1.58476105e+00   6.16692924e+00   6.21985980e-01
C     3.633891365200000e+00   8.988975345045697e-01   4.107118799999999e+00  3.40001220e-01  -3.55464029e+00  -7.15912780e-01
C     9.904883163699999e+00   8.355982853058642e+00  -7.331792999999998e-01  1.44942696e+00  -5.93525040e-01   1.27298450e+00
C     6.233914501000000e+00   5.820770195880640e-01  -7.979130000000012e-01 -2.33655958e+00  -6.72253580e-01   4.70828960e-01
C     4.910385797800000e+00   2.255133881944944e-01   3.994447500000000e+00 -2.08106840e+00  -1.88386270e+00  -1.37791449e+00
C     6.144392800199999e+00   8.704339385309567e-01   4.007889599999999e+00  1.14119551e+00  -1.55946990e+00   6.76526300e-02
C     1.242951141510000e+01   8.513050948849648e+00  -6.554205000000017e-01 -5.86027904e+00  -6.23461152e+00   1.31306648e+00
C     8.658274982700000e+00   5.550758999393608e-01  -8.014719000000028e-01  3.29915053e+00   1.79851570e+00  -1.73057812e+00
C     7.368011553100000e+00   1.094555126456792e-01   4.169562900000000e+00  6.90152320e-01   4.72254948e+00  -1.95459486e+00
C     8.587867138400000e+00   9.008539925857473e-01   4.096457700000000e+00  7.01686800e-02  -5.22597620e-01   2.00578371e+00
C     1.209154428700000e+00   1.898505439461831e+00  -6.191336999999990e-01  2.10873873e+00   8.87815290e-01  -1.92415625e+00
C     2.525186179500000e+00   2.718412345180532e+00  -4.946936999999991e-01 -3.29886314e+00  -4.13776298e+00   1.12943623e+00
C     1.109595346500000e+01   2.383950149222242e+00   4.316355000000000e+00 -1.94515040e+00  -3.56613556e+00  -1.39482090e-01
C     2.414814818500000e+00   3.064557359107244e+00   4.375308900000000e+00  2.12610436e+00  -2.44805988e+00  -3.01062620e-01
C     3.681172382300000e+00   1.919801560818742e+00  -4.917756000000004e-01  3.16067301e+00   1.96088564e+00  -4.44703390e-01
C     4.985063169999999e+00   2.719335839163944e+00  -5.882265000000011e-01 -2.71568108e+00  -1.49998616e+00  -7.71629010e-01
C     3.674917099700000e+00   2.266621327353583e+00   4.144927500000000e+00 -3.20963527e+00   1.46674947e+00   6.98955340e-01
C     4.856934639199999e+00   2.868328763524224e+00   3.896235600000000e+00  3.42385176e+00   4.93295811e+00  -6.91570470e-01
C     6.110839811800000e+00   1.985673110073453e+00  -9.216818999999994e-01  3.99971310e+00   1.25126530e-01   1.15252087e+00
C     7.449532356900000e+00   2.642523085000999e+00  -9.145155000000003e-01 -2.71967987e+00   2.73247233e+00  -5.04778320e-01
C     6.148441858499999e+00   2.210710277653478e+00   3.773229300000000e+00  5.17845650e-01   4.54354485e+00   3.09908463e+00
C     7.397044717499999e+00   3.090076191926724e+00   4.167874500000000e+00 -1.85579804e+00  -2.42154195e+00  -1.98952149e+00
C     8.672034267599999e+00   1.996401864400944e+00  -9.393461999999992e-01 -2.23819042e+00  -2.47439701e+00   5.81435470e-01
C     9.825632230499998e+00   2.619077865486482e+00  -6.613509000000022e-01  5.31149705e+00   2.69459373e+00   7.63734250e-01
C     8.607587582099999e+00   2.359450105743131e+00   4.286146200000000e+00  3.73583190e-01  -1.22889890e-01  -9.07455570e-01
C     9.861522482600000e+00   3.122208402972859e+00   4.308394499999999e+00 -9.17995660e-01  -2.79659476e+00  -5.25122430e-01
C     2.523290101500000e+00   4.051303891869634e+00  -1.327175999999994e-01 -2.63139730e-01   2.52981845e+00   7.57959000e-02
C     3.788188730400000e+00   4.768637898169746e+00  -1.402794000000007e-01 -1.24048766e+00   2.49728472e+00  -2.59484612e+00
C     1.223634883860000e+01   4.431442791907331e+00   4.455167700000000e+00  3.45471519e+00   1.11866053e+00  -2.59296499e+00
C     3.641898868400000e+00   5.060440478621528e+00   4.051316400000000e+00 -6.68542630e-01   3.17189971e+00   1.09953221e+00
C     4.982948397199999e+00   4.142469356407783e+00  -5.949156000000002e-01 -1.36993739e+00  -2.05221429e+00   1.84250965e+00
C     6.182358680899999e+00   4.813807128856325e+00  -7.713075000000025e-01  1.95643238e+00  -2.03838360e+00  -5.70435950e-01
C     4.852160082099999e+00   4.435806994773555e+00   3.840712500000000e+00  1.52616656e+00  -2.98437048e+00   8.67048390e-01
C     6.095036844700000e+00   5.208810652947502e+00   3.843327300000000e+00  2.32978700e-01  -2.30943780e+00  -2.94850900e-01
C     7.437124434299999e+00   4.102999232095764e+00  -8.793210000000009e-01  6.18898960e-01  -1.10625363e+00   6.29871390e-01
C     8.692606812499999e+00   4.824229845048214e+00  -7.287572999999981e-01  5.04585810e-01  -3.78095671e+00  -1.25166950e-01
C     7.369080179900000e+00   4.505759593306973e+00   4.075944000000000e+00 -1.74338892e+00  -5.16692230e-01  -6.27303190e-01
C     8.575708525900000e+00   5.208000983973788e+00   4.065558300000000e+00  1.22721002e+00   6.82947250e-01  -1.21735830e+00
C     9.982368663899999e+00   4.061280700934256e+00  -4.585703999999993e-01 -4.09120213e+00   8.50187300e-01  -4.01076250e-01
C     1.110266201180000e+01   4.806619416784786e+00  -7.982220000000240e-02  2.50053742e+00  -1.63388570e-01  -6.47698010e-01
C     9.860426247800000e+00   4.498668201273646e+00   4.071440400000000e+00 -1.86287544e+00   2.42859780e-01   1.93144693e+00
C     1.108653770730000e+01   5.137943697171885e+00   4.201567200000000e+00 -1.21045762e+00   4.33892302e+00  -8.78230890e-01
C     3.697264099500000e+00   6.236991538602625e+00  -4.402775999999982e-01  1.05083643e+00  -3.74078530e-01   2.18074599e+00
C     4.976338055999999e+00   6.980282428959840e+00  -7.087868999999998e-01 -1.76028504e+00  -3.95633504e+00  -4.00696380e-01
C     1.355960067300000e+01   6.537835821081365e+00   4.044281100000000e+00 -2.31215596e+00  -1.40014823e+00  -4.72420440e-01
C     4.883543771899999e+00   7.234254033551345e+00   3.980374200000000e+00 -5.00335530e-01   2.24558132e+00  -4.50967410e-01
C     6.221713835600000e+00   6.158291321563182e+00  -8.471930999999984e-01 -1.45077617e+00   5.02554673e+00  -4.00271520e-01
C     7.415234001800000e+00   6.884790162421371e+00  -1.041402600000001e+00  1.89242136e+00   1.07247117e+00   8.23940300e-01
C     6.088992418199999e+00   6.610706370276008e+00   3.740907000000000e+00  7.12985400e-01  -1.85321698e+00   1.35683490e+00
C     7.311877094100000e+00   7.294890913211502e+00   3.822323700000000e+00  1.13138430e-01  -1.92009939e+00  -1.93009840e-01
C     8.694837045899998e+00   6.166345743198441e+00  -9.130718999999985e-01  7.51506000e-03   3.33021835e+00   1.64167127e+00
C     9.899434182600000e+00   6.908862657645749e+00  -5.726322000000010e-01  4.17112110e-01   1.26347830e+00  -2.20892000e-02
C     8.524407192399998e+00   6.619083310337097e+00   3.848000700000000e+00  3.58182401e+00  -7.56260910e-01  -3.18151910e-01
C     9.832582150099999e+00   7.342258341365948e+00   3.724226100000000e+00 -3.19130710e-01  -1.00005267e+00   2.94225191e+00
C     1.114662247670000e+01   6.317899004461045e+00  -7.809299999999908e-02 -5.23932319e+00  -4.06342548e+00  -1.99736942e+00
C     1.229667769230000e+01   6.941440946599359e+00  -2.753394000000000e-01  6.10193994e+00   4.30218064e+00  -1.80274638e+00
C     1.110148379110000e+01   6.638128633921585e+00   3.973326000000000e+00 -2.07337610e+00  -2.48026265e+00  -7.07464430e-01
C     1.232987936890000e+01   7.313568461614615e+00   3.973963800000000e+00  4.54083440e-01  -3.04590963e+00   1.63347312e+00
