64
Lattice="9.86 0 0 4.93 8.53901048131456 0 0 0 30 " PBC="1 1 1" Properties=species:S:1:pos:R:3:force:R:3 Energy="-512.59356371"
C     4.943528067900000e+00   8.084889763943794e+00  -4.313853000000023e-01  3.31317949e+00   1.51828529e+00  -6.52540270e-01
C     1.321608665400000e+00   2.677849056746864e-01  -5.121962999999994e-01 -1.96229006e+00  -2.77222790e-01   1.57083703e+00
C     9.789958503999999e+00   4.459525548013536e-01   3.881577000000000e+00  9.37977600e-02  -2.21448803e+00  -6.08103100e-01
C     1.141894833100000e+00   1.166615238166778e+00   3.835566900000000e+00 -1.47043741e+00  -7.61339120e-01  -6.75863260e-01
C     7.456213492899999e+00   8.112858268089775e+00  -3.448727999999974e-01  1.06826214e+00  -3.97221220e-01  -1.02448810e+00
C     3.780087064200000e+00   3.171501207210336e-01  -3.263831999999987e-01 -8.89821890e-01  -2.06566833e+00  -1.54480585e+00
C     2.328511421700000e+00   4.776731855423528e-01   3.775522500000000e+00  1.81220298e+00  -2.87744706e+00   1.11124533e+00
C     3.569709815100000e+00   1.125321095826127e+00   3.905379600000000e+00  2.48827184e+00  -1.28298591e+00  -8.24247770e-01
C     9.925678248800001e+00   8.124461160920104e+00  -5.065065000000004e-01  1.29751279e+00   6.33866680e-01   1.50167274e+00
C     6.253083179100000e+00   2.791514386949288e-01  -4.574931000000007e-01 -1.47301070e-01   1.78156655e+00   2.34256650e-01
C     4.844445470199999e+00   3.947225906463840e-01   3.952875000000000e+00 -5.42264600e-02   3.85571640e-01  -9.10374700e-02
C     6.079741371800000e+00   1.144400746232744e+00   3.920790900000000e+00  6.92875010e-01  -1.92234107e+00  -1.07130647e+00
C     1.242582909950000e+01   8.134802500342118e+00  -3.559604999999983e-01 -2.37021906e+00  -1.98321738e+00  -1.46901880e+00
C     8.689455162100000e+00   2.626139370983128e-01  -4.341332999999992e-01  6.45361020e-01   2.65628547e+00   2.20088240e-01
C     7.375018414199999e+00   4.087807051600272e-01   3.783714000000000e+00 -1.99938112e+00   2.23152063e+00   3.67372410e-01
C     8.611583593599999e+00   1.182333592488048e+00   3.728507400000000e+00 -2.18657252e+00  -3.41597449e+00   1.03298108e+00
C     1.312213071400000e+00   1.670728786539613e+00  -4.539465000000007e-01  1.14455200e-01   1.87176648e+00   1.51464280e-01
C     2.570907048800000e+00   2.412364560495490e+00  -4.458812999999999e-01 -1.77901521e+00   7.98779140e-01   3.27958730e-01
C     1.096164508060000e+01   2.547864823616112e+00   3.710467200000000e+00  2.10640269e+00   2.41612959e+00   6.03007370e-01
C     2.400958264700000e+00   3.261293428083091e+00   3.757461000000000e+00 -1.23892772e+00  -9.63888900e-02   1.26131830e-01
C     3.771423920300000e+00   1.709681446816543e+00  -4.526810999999995e-01  1.27800566e+00   1.15826850e-01   5.46309900e-01
C     5.018741479000000e+00   2.416395315002469e+00  -4.624578000000028e-01 -1.03139460e-01  -4.21796700e-02   3.48920140e-01
C     3.662822725100000e+00   2.508587339380523e+00   3.815728200000000e+00 -3.05196145e+00   2.25157599e+00   5.42259510e-01
C     4.831624906599999e+00   3.247067692793725e+00   3.908470200000000e+00  1.72248609e+00   1.42739913e+00  -3.83245970e-01
C     6.277128514600000e+00   1.747042264759792e+00  -4.543625999999996e-01 -8.56016210e-01  -1.78915796e+00  -1.47863710e-01
C     7.507965576300000e+00   2.466269540463529e+00  -4.662639000000013e-01 -1.23094159e+00  -2.79239618e+00   5.30295750e-01
C     6.055408814500000e+00   2.535491199699858e+00   3.818922000000000e+00  1.80419548e+00   2.54508701e+00   9.76470320e-01
C     7.350634387700000e+00   3.324735714246346e+00   3.812309400000000e+00 -2.08118531e+00  -2.19098017e+00   2.49207260e-01
C     8.721207418699999e+00   1.728688430243975e+00  -4.660238999999997e-01 -6.48454660e-01  -1.01327337e+00   4.42661750e-01
C     9.919485330699999e+00   2.426516347954099e+00  -3.982215000000018e-01  2.37001517e+00  -9.29953770e-01  -1.28965051e+00
C     8.549946367199999e+00   2.552424142871804e+00   3.786289800000000e+00 -4.85974540e-01   2.70031586e+00  -5.83613960e-01
C     9.740466776300000e+00   3.279066182935743e+00   3.734005500000000e+00  1.73394322e+00   9.93370700e-01   3.15049200e-01
C     2.566472267300000e+00   3.856714017787831e+00  -3.916919999999990e-01 -5.36602210e-01   1.72976930e-01  -7.57457290e-01
C     3.814510394799999e+00   4.603201572108339e+00  -4.553646000000029e-01 -2.59889969e+00  -1.18033187e+00   5.12185300e-02
C     1.224033099680000e+01   4.703620335353139e+00   3.832301700000000e+00  4.65634670e-01  -2.12181957e+00  -6.22340090e-01
C     3.645727555700000e+00   5.357872230952041e+00   3.825106500000000e+00 -2.84053306e+00   2.80061739e+00   1.88449230e-01
C     4.983316421700000e+00   3.823929682511338e+00  -4.012515000000008e-01  1.30326085e+00   1.47670030e+00  -6.00945840e-01
C     6.217061641099999e+00   4.545235438756012e+00  -4.121285999999991e-01  1.15007549e+00   2.44466750e-01   3.22412230e-01
C     4.856038463800000e+00   4.752472526649848e+00   3.938198400000000e+00 -5.90010260e-01  -5.58424249e+00  -5.68817010e-01
C     6.049450416499999e+00   5.382597618917719e+00   3.896223000000000e+00  3.19425607e+00   1.91132785e+00   5.80494100e-02
C     7.452572687900000e+00   3.827765064458535e+00  -3.756389999999996e-01  9.92452440e-01   1.73160788e+00  -1.10974129e+00
C     8.729691948699999e+00   4.470849898322007e+00  -4.935939000000005e-01 -1.84611905e+00   4.56247510e+00   8.34178510e-01
C     7.337207976399998e+00   4.735699348363983e+00   3.901752000000000e+00 -4.57371280e-01  -1.03465335e+00  -5.86878750e-01
C     8.570991403299999e+00   5.452868210201411e+00   3.881168400000000e+00 -1.09658099e+00   2.70238900e-02  -3.00230820e-01
C     9.948020417199999e+00   3.848614680957446e+00  -5.190903000000020e-01 -1.71731790e-01  -2.04253530e+00   1.03001000e+00
C     1.113343936090000e+01   4.562329683835924e+00  -4.272107999999974e-01  3.34497099e+00  -1.36225719e+00   3.12386100e-02
C     9.790338360500000e+00   4.734133208451847e+00   3.792615300000000e+00 -1.37077253e+00  -1.77983094e+00   3.45150930e-01
C     1.099826231050000e+01   5.407083743809748e+00   3.845054100000000e+00  1.61124635e+00   2.04356420e-01  -5.57757000e-01
C     3.769523701100000e+00   6.046138506287079e+00  -5.579721000000006e-01  9.94227120e-01  -3.37996724e+00   1.05523787e+00
C     4.971516466700000e+00   6.706541136524829e+00  -4.524140999999986e-01  2.83886721e+00  -5.85385220e-01  -2.68412030e-01
C     1.345771315180000e+01   6.786000471595945e+00   3.780923400000000e+00  1.54854400e-02   7.66069070e-01   8.21005070e-01
C     4.841037163999999e+00   7.455427811229798e+00   3.925421700000000e+00 -1.15460870e+00   3.95668591e+00  -1.22734123e+00
C     6.292738176399999e+00   5.979236469247641e+00  -4.274276999999991e-01 -5.27526693e+00  -1.37331311e+00  -1.88959680e-01
C     7.440277662300000e+00   6.664596833926232e+00  -4.402188000000002e-01  4.73464051e+00   1.44417732e+00   8.48263140e-01
C     6.060284387299999e+00   6.802841876575545e+00   3.844276800000000e+00  1.19073735e+00   7.89047000e-03   5.21289030e-01
C     7.288875636800000e+00   7.554529346717954e+00   3.819480600000000e+00 -1.48226500e-01   9.12392060e-01   1.46406580e-01
C     8.743892468599999e+00   5.952726086531224e+00  -4.236632999999976e-01 -6.47403520e-01   7.98308600e-02  -4.81049650e-01
C     9.990585149799999e+00   6.720723493640957e+00  -4.362423000000000e-01 -1.59232773e+00  -2.51382455e+00   1.79283020e-01
C     8.542804374799999e+00   6.882693152227693e+00   3.881928900000001e+00 -7.51461010e-01  -1.84822794e+00   9.09902200e-02
C     9.800504957199998e+00   7.479797634799089e+00   3.936448500000000e+00 -1.90589284e+00   4.10212661e+00  -3.94666700e-01
C     1.122197713230000e+01   5.933910633108858e+00  -3.741899999999987e-01 -1.81602013e+00   3.17528641e+00  -1.11544449e+00
C     1.242126278560000e+01   6.682463432504059e+00  -4.899443999999988e-01 -9.86719560e-01   1.46380799e+00   1.08525639e+00
C     1.098019583250000e+01   6.820523434796272e+00   3.830792700000000e+00  2.40480385e+00  -2.91944950e-01   4.10240870e-01
C     1.221445258870000e+01   7.566121309614868e+00   3.787534200000001e+00  1.55293834e+00  -2.17108182e+00  -5.20545800e-02
