64
Lattice="9.86 0 0 4.93 8.53901048131456 0 0 0 30 " PBC="1 1 1" Properties=species:S:1:pos:R:3:force:R:3 Energy="-506.28664705"
C     5.103961360400000e+00   8.378008632861066e+00  -5.021394000000008e-01 -6.79254277e+00  -4.33652690e+00  -4.32012230e-01
C     1.314850424200000e+00   5.225643860477041e-01  -3.890354999999985e-01  1.96558699e+00  -4.07187050e-01  -6.20333100e-01
C     9.860774700199999e+00   2.517354939171072e-01   3.931410600000000e+00 -2.14930094e+00   3.67223204e+00   3.69111330e-01
C     1.186361954100000e+00   9.580306090290935e-01   3.858499800000000e+00  2.34658710e+00  -2.08817683e+00   1.00510485e+00
C     7.442275495499999e+00   8.266406242200507e+00  -4.362029999999990e-01  2.28650603e+00   1.05994202e+00  -7.85270200e-02
C     3.797228526300000e+00   3.828519144474024e-01  -6.267515999999986e-01 -3.47979623e+00   2.67964141e+00   5.58639830e-01
C     2.434485025500000e+00   3.267285849467640e-01   4.226600100000000e+00 -5.58408060e-01  -3.19413671e+00  -2.77228530e-01
C     3.634430214200000e+00   9.878371351808960e-01   4.177618499999999e+00  9.24893340e-01   1.70585170e+00   6.52653600e-01
C     9.904151896799998e+00   8.225811530208272e+00  -6.500060999999988e-01  8.53006800e-01   7.26588230e-01   3.43329800e-02
C     6.190176428399999e+00   3.988730620802928e-01  -5.331524999999999e-01  6.34666870e-01   5.11994010e-01  -1.05456131e+00
C     4.831421396200000e+00   1.754293592459408e-01   4.288490100000000e+00  8.87590250e-01   5.50045917e+00  -2.14745210e-01
C     6.040443503700000e+00   9.777166145698951e-01   4.221529800000000e+00  2.35221952e+00  -2.65353879e+00  -6.40106570e-01
C     1.233122318830000e+01   8.175998273282039e+00  -6.997698000000021e-01  2.70395490e+00   2.84364032e+00   7.64135750e-01
C     8.691447670899999e+00   4.411608890705016e-01  -5.550360000000012e-01 -3.94264690e-01   7.24727800e-02  -2.73227000e-02
C     7.316980186400000e+00   2.644415415113472e-01   4.095557400000000e+00  9.91024150e-01   2.39190772e+00   4.53533550e-01
C     8.640458850100000e+00   1.038495754144649e+00   3.906085800000000e+00 -4.50711172e+00  -2.33024869e+00   6.50830420e-01
C     1.302986034100000e+00   1.928137172069108e+00  -6.172794000000010e-01 -1.46027305e+00  -1.18936260e+00   6.70073600e-02
C     2.492315010100000e+00   2.520195782567663e+00  -8.784218999999993e-01  2.23424444e+00   2.49609768e+00  -1.48333800e+00
C     1.101603293920000e+01   2.288001557963721e+00   3.645681900000000e+00  1.45002018e+00   5.10697336e+00   3.51982800e-01
C     2.419856236500000e+00   3.097609819312809e+00   3.700652400000000e+00  5.38584800e-01   1.85636931e+00   5.98570040e-01
C     3.756072984900000e+00   1.833198745750372e+00  -8.124411000000009e-01 -5.68188570e-01  -6.99331890e-01   5.22831300e-02
C     4.948676072500000e+00   2.584260391814702e+00  -8.757780000000004e-01  5.49548180e-01  -8.54621100e-02   1.73327403e+00
C     3.632488878799999e+00   2.538159213524334e+00   4.083907500000000e+00  9.86642760e-01  -5.47437895e+00  -3.84065030e-01
C     4.918191910500000e+00   3.139417668523937e+00   4.261314300000000e+00 -2.18310004e+00  -7.04876620e-01  -9.46740810e-01
C     6.143777536199999e+00   1.870980536910285e+00  -4.773381000000008e-01  3.80719090e-01  -6.65307580e-01  -1.46635974e+00
C     7.366796160199999e+00   2.586276196018715e+00  -4.325825999999999e-01  1.91380988e+00  -1.84886201e+00   3.17755800e-02
C     6.124797923599999e+00   2.357548724279549e+00   4.203092100000000e+00 -2.37829966e+00   2.00244374e+00   1.11764910e-01
C     7.273676693300000e+00   3.132764071557921e+00   4.068210000000001e+00  1.77530777e+00  -6.26144900e-02   6.93820000e-01
C     8.601580623599999e+00   1.862517182063138e+00  -5.062206000000025e-01  2.65590338e+00   7.08156890e-01  -1.53593520e-01
C     9.979360920200000e+00   2.673922478167741e+00  -7.040162999999993e-01 -3.80212653e+00  -3.23561161e+00   7.30345600e-01
C     8.494567233500000e+00   2.460006176276449e+00   3.909678600000000e+00  3.05836863e+00  -2.61664119e+00  -3.49089390e-01
C     9.809090305700000e+00   3.036391603819173e+00   3.812104800000000e+00 -1.94221363e+00   2.08595213e+00  -6.59384200e-01
C     2.434578744800000e+00   3.907106219624608e+00  -1.288134899999999e+00  2.36813375e+00   2.99879728e+00   1.30142045e+00
C     3.732017197800000e+00   4.744558913297403e+00  -1.125293100000000e+00 -7.24816100e-02  -5.64159577e+00  -2.08871450e-01
C     1.241137951600000e+01   4.600657459325928e+00   3.681805200000000e+00 -5.98047910e+00  -2.04798980e+00   8.34623670e-01
C     3.658448040300000e+00   5.302394621423900e+00   4.088898900000000e+00  1.54199779e+00   1.41414850e-01  -2.06687220e-01
C     4.937979599400000e+00   4.027322678667288e+00  -9.058418999999986e-01  3.55624670e+00  -5.40753890e-01   7.35392480e-01
C     6.313272218000000e+00   4.731058737728524e+00  -5.770991999999993e-01 -4.44121705e+00   2.95318930e-01  -3.72110420e-01
C     4.880456408700000e+00   4.519384609209069e+00   4.254552300000000e+00  2.86464000e-03   1.89888215e+00  -7.27454800e-02
C     6.099550259699999e+00   5.187636297880036e+00   4.367117700000000e+00 -8.18264420e-01   5.11265446e+00   1.06785928e+00
C     7.522142777299999e+00   3.969078002793103e+00  -3.944462999999985e-01 -3.51163277e+00   1.30698430e+00  -7.36543230e-01
C     8.705065809899999e+00   4.671008231918027e+00  -5.359560000000023e-01  8.04875370e-01   1.93625874e+00  -1.30799970e+00
C     7.302197187000000e+00   4.552755659895643e+00   4.291476300000000e+00  1.32579055e+00  -1.23558399e+00  -2.72593000e-01
C     8.563341768799999e+00   5.231385149563373e+00   4.309993200000000e+00  1.42372024e+00  -1.42258456e+00  -1.19564397e+00
C     9.903358610500000e+00   4.038793387615386e+00  -9.465837000000015e-01  5.55353980e-01   1.53426140e-01   7.22983800e-01
C     1.111135557380000e+01   4.733738279217147e+00  -1.296194700000001e+00 -3.10765710e-01  -9.78201640e-01   1.19501193e+00
C     9.729129501799999e+00   4.457671558058118e+00   3.912981000000000e+00  3.47794675e+00   1.94381114e+00   3.65478300e-02
C     1.104410219000000e+01   5.247757506697305e+00   3.761864400000000e+00 -1.28467630e-01  -7.04491350e-01   9.69181830e-01
C     3.811751320300000e+00   6.046425417039207e+00  -8.919677999999998e-01 -2.56957149e+00   6.22569477e+00  -6.24359520e-01
C     4.984711118700000e+00   6.832689646147966e+00  -6.198131999999994e-01 -2.41396890e-01   2.76423161e+00   1.19862730e-01
C     1.346541070590000e+01   6.755739499306398e+00   4.189449000000000e+00  3.16033075e+00  -1.31502494e+00   7.41373640e-01
C     4.893148299300000e+00   7.506645906160201e+00   4.295292600000000e+00 -1.79540730e-01  -5.72668262e+00   1.42841220e-01
C     6.176452146500000e+00   6.213091702170153e+00  -5.079573000000011e-01  3.91548754e+00  -4.36060295e+00   5.58011970e-01
C     7.467195856700000e+00   6.856447051885631e+00  -3.771360000000001e-01 -2.09105790e+00   4.61714980e-01  -6.29565150e-01
C     6.127736351499999e+00   6.719061375251025e+00   4.499263200000000e+00  7.97259620e-01  -1.39142616e+00  -1.00194775e+00
C     7.453045179099998e+00   7.354266581023762e+00   4.512221400000000e+00 -3.00264109e+00   2.02969566e+00  -1.21871255e+00
C     8.640686320300000e+00   6.103971174905604e+00  -5.759387999999994e-01  1.55949242e+00   5.00098610e-01  -1.71562960e-01
C     9.854477907000000e+00   6.858001407963306e+00  -8.180103000000010e-01  1.49366441e+00  -2.92835570e+00  -2.96781050e-01
C     8.705430334099999e+00   6.642391820293829e+00   4.429581600000000e+00 -5.12361206e+00  -1.12626644e+00   1.49273010e-01
C     9.833400431499999e+00   7.360149446903853e+00   4.269115200000000e+00  1.53237828e+00  -1.47725845e+00  -2.35212320e-01
C     1.110965028680000e+01   6.168801648002593e+00  -1.161206400000001e+00  5.44444560e-01  -6.75285560e-01   6.98663370e-01
C     1.240539696100000e+01   6.808789724325388e+00  -1.021610700000000e+00 -1.18501371e+00  -1.42597070e-01   8.65752570e-01
C     1.102611340880000e+01   6.626953033175675e+00   4.057185300000000e+00  1.38782086e+00   8.40675030e-01   3.77809030e-01
C     1.225608007900000e+01   7.405778076354258e+00   4.228130700000000e+00 -1.04113622e+00  -7.09531310e-01  -1.97178312e+00
