64
Lattice="9.86 0 0 4.93 8.53901048131456 0 0 0 30 " PBC="1 1 1" Properties=species:S:1:pos:R:3:force:R:3 Energy="-504.83217334"
C     4.921309543900001e+00   8.342084076480555e+00  -1.014454799999999e+00  2.23710876e+00   1.26277187e+00   1.25940100e-01
C     1.315336620800000e+00   5.123129624060448e-01  -9.195878999999998e-01 -2.56876958e+00   1.04226790e-01  -1.25239070e+00
C     9.777781206799999e+00   2.535864098287520e-01   4.103192399999999e+00  4.30902991e+00  -2.07533836e+00   5.91687530e-01
C     1.216872047900000e+00   9.394517715871288e-01   4.274206800000000e+00 -3.25195254e+00   2.87881740e-01  -4.70681820e-01
C     7.472010346799999e+00   8.351480147442432e+00  -9.418923000000028e-01 -2.48494004e+00  -1.67260068e+00  -5.95505430e-01
C     3.690327737400000e+00   5.420037849658432e-01  -8.587209000000016e-01  2.04146969e+00  -3.00490620e+00   1.01889137e+00
C     2.410283261100000e+00   2.980639806664520e-01   3.989917800000000e+00 -2.80695390e-01  -3.87408739e+00  -6.07770170e-01
C     3.683857654700000e+00   8.419422492128648e-01   4.096483500000000e+00  1.16472302e+00   1.02978757e+00  -8.45480790e-01
C     9.822010504600000e+00   8.362168768420668e+00  -6.677031000000007e-01  3.82162877e+00  -1.76265686e+00  -9.68351870e-01
C     6.150936192000000e+00   5.075329951195504e-01  -7.762230000000017e-01 -1.14381590e-01   3.40273600e-01   1.58709750e-01
C     4.895287771400000e+00   1.383437536104624e-01   3.844076400000000e+00  1.49403456e+00   1.20982385e+00   1.37272604e+00
C     6.116244422899999e+00   9.562350259053592e-01   3.978114900000000e+00  8.19674240e-01  -2.08315404e+00  -2.57578730e-01
C     1.236159469980000e+01   8.300244718320755e+00  -6.762326999999999e-01 -2.14426369e+00   3.19018072e+00  -8.55034810e-01
C     8.604262395699999e+00   4.901092296252152e-01  -1.017634500000000e+00  1.96998755e+00   1.30779825e+00   1.34710816e+00
C     7.405426111900000e+00   1.731187884001576e-01   4.037980800000000e+00 -2.59114084e+00   4.28764759e+00   1.85134276e+00
C     8.646447271800000e+00   1.000369499301973e+00   4.382478000000000e+00 -2.89195635e+00  -8.55373852e+00  -2.70180654e+00
C     1.280952927400000e+00   1.922818307831221e+00  -7.936037999999996e-01  2.10393192e+00  -1.51388940e-01   3.24164206e+00
C     2.556160186300000e+00   2.576305620431743e+00  -2.397795000000009e-01 -3.65109208e+00   1.27689687e+00  -3.00532638e+00
C     1.103058506670000e+01   2.348594290939697e+00   4.566946799999999e+00  2.07509020e-01   2.75574600e-01  -3.91857130e-01
C     2.455121709700000e+00   2.946586830601014e+00   4.586768699999999e+00  1.12713194e+00   3.08974037e+00  -1.59215116e+00
C     3.697935812000000e+00   1.846857319963656e+00  -5.531226000000018e-01  2.50880318e+00   6.17906920e+00   2.19762830e-01
C     4.976619854799999e+00   2.694272477163467e+00  -7.272797999999980e-01 -1.57275263e+00  -3.33824320e+00   1.26422746e+00
C     3.754836393000000e+00   2.245580095459501e+00   4.254313800000000e+00 -4.13203539e+00   2.05473425e+00   2.66705660e-01
C     4.811831055200000e+00   3.065999341807002e+00   3.873660900000000e+00  3.38191400e+00  -1.72405090e-01   1.80740978e+00
C     6.134244099400000e+00   1.955664294763379e+00  -9.552551999999999e-01  3.70118231e+00  -9.58620670e-01   4.26308820e-01
C     7.478808126599999e+00   2.668810172593365e+00  -9.942644999999999e-01 -3.00820095e+00   1.99787300e-01   7.79890820e-01
C     6.098166162199999e+00   2.410673494860030e+00   4.007843700000000e+00 -2.44972370e-01  -2.60765209e+00  -1.76893621e+00
C     7.366880956199999e+00   3.030856873396352e+00   3.986840700000000e+00 -6.34108410e-01   1.05068691e+00   1.62900523e+00
C     8.718960817699999e+00   2.001367384385169e+00  -9.396015000000020e-01 -4.84222325e+00  -5.03871670e+00  -1.41377527e+00
C     9.890644041900000e+00   2.588404373600646e+00  -7.272324000000019e-01  2.89227377e+00   1.59429820e+00   8.41552540e-01
C     8.563243070200000e+00   2.283393907908714e+00   4.337283000000000e+00  7.43005080e-01   9.38616220e+00  -3.76894610e-01
C     9.788461016499999e+00   3.145448771625961e+00   4.479899400000000e+00  3.06502780e-01  -3.66023459e+00   7.57806520e-01
C     2.492309735000000e+00   4.076374512029020e+00  -1.169124000000004e-01  4.82056620e-01  -1.85841749e+00  -2.00319270e-01
C     3.698603038200000e+00   4.772476695721135e+00  -2.827475999999969e-01  3.20059806e+00   2.42239727e+00   9.20063470e-01
C     1.232138838060000e+01   4.459630065501811e+00   4.446193200000000e+00  1.06361990e+00  -1.23880565e+00   1.17745690e-01
C     3.757214920800000e+00   5.172559223245814e+00   4.236899100000000e+00 -4.44086620e+00   2.18773763e+00  -1.09678256e+00
C     5.038368992200000e+00   4.052808380126105e+00  -4.788710999999992e-01 -5.11055131e+00   1.63819719e+00  -9.28292730e-01
C     6.152291892699999e+00   4.776850120718676e+00  -8.387615999999980e-01  2.09160885e+00   1.41337659e+00   2.25416150e-01
C     4.914262946999999e+00   4.511703342331786e+00   3.869698800000000e+00 -4.47959627e+00  -4.23323607e+00   9.33724870e-01
C     6.082186010899999e+00   5.086746864377578e+00   3.679090200000000e+00  4.39053885e+00   5.10870939e+00   1.33766840e-01
C     7.385229676699999e+00   4.092308732535223e+00  -8.929194000000003e-01  1.58811981e+00  -9.58546430e-01  -6.19343810e-01
C     8.646025806099999e+00   4.763242524397957e+00  -7.954158000000007e-01  1.49463949e+00  -9.60871570e-01   1.45427706e+00
C     7.317641003599999e+00   4.482572337299056e+00   3.907714800000000e+00  3.56689157e+00  -2.20052485e+00  -3.83367980e-01
C     8.618334143999999e+00   5.187124213421550e+00   4.015618799999999e+00 -3.27671593e+00   2.03248093e+00  -1.02222187e+00
C     9.822562171599998e+00   3.939958525424522e+00  -3.856454999999990e-01  1.09855772e+00   4.61686571e+00  -1.47692370e+00
C     1.106901569850000e+01   4.752033365340862e+00  -1.381541999999989e-01 -3.18794570e-01  -2.81264669e+00  -7.40827670e-01
C     9.805595823099999e+00   4.549463615185289e+00   4.451429699999999e+00  1.43224390e-01  -7.25620540e-01  -1.78766474e+00
C     1.107475244370000e+01   5.202019236352339e+00   4.333523700000000e+00  1.04652700e+00  -1.19991139e+00   2.87714980e-01
C     3.817733185100000e+00   6.360045169267390e+00  -2.605293000000017e-01 -9.63625090e-01  -4.55074266e+00  -2.23028856e+00
C     5.010515626099999e+00   6.952521166598207e+00  -8.629275000000014e-01 -1.55523414e+00  -9.46837240e-01   1.81980772e+00
C     1.349272270870000e+01   6.644591810953897e+00   4.074208199999999e+00  3.46956560e-01  -2.63083894e+00   7.06769250e-01
C     4.860073372999999e+00   7.280383049015876e+00   3.844270499999999e+00  3.30535540e-01   2.75068146e+00   1.12617631e+00
C     6.221233900100000e+00   6.198378303992275e+00  -9.824862000000003e-01  5.93895280e-01   9.51207960e-01   3.71963250e-01
C     7.494953284999999e+00   6.927824384317637e+00  -1.064191800000000e+00  2.86403830e-01  -1.60793332e+00   9.01201480e-01
C     6.117349580999999e+00   6.547805798937604e+00   3.694823700000000e+00 -1.14284767e+00   2.33956551e+00  -4.13894110e-01
C     7.286554543499999e+00   7.401606513564463e+00   3.617860200000000e+00  1.82020311e+00  -2.07140865e+00   1.34503028e+00
C     8.787806887300000e+00   6.173907720099320e+00  -8.602715999999972e-01 -3.41231247e+00   3.71477700e-01  -7.79452300e-02
C     9.977080696600000e+00   6.865758415863547e+00  -5.938583999999985e-01 -2.85683140e+00   2.19944869e+00  -3.89594180e-01
C     8.580468342300000e+00   6.631958857289366e+00   3.667229100000000e+00 -3.23261090e-01  -1.27185188e+00   1.99350907e+00
C     9.852239785600000e+00   7.241532088353764e+00   3.885398400000000e+00 -1.66541735e+00   2.19495661e+00  -1.60345197e+00
C     1.109879748340000e+01   6.121990280210605e+00  -2.767554000000025e-01  2.88202090e+00   3.48769530e+00   4.62562870e-01
C     1.239354243090000e+01   6.985308234358054e+00  -2.703452999999989e-01 -3.56936980e-01  -2.92627128e+00  -3.46878410e-01
C     1.106960419260000e+01   6.572866940795355e+00   4.019220000000001e+00 -1.02521021e+00  -2.02838370e-01   1.20859040e+00
C     1.221010240600000e+01   7.337955960935600e+00   4.160196900000000e+00  4.14173289e+00  -4.93820780e-01  -1.28018655e+00
