64
Lattice="9.86 0 0 4.93 8.53901048131456 0 0 0 30 " PBC="1 1 1" Properties=species:S:1:pos:R:3:force:R:3 Energy="-511.28699913"
C     4.986566573500000e+00   8.324585765424729e+00  -9.288026999999985e-01 -1.08856375e+00  -6.97514810e-01   4.95708230e-01
C     1.273423437000000e+00   5.185086976301232e-01  -9.141629999999985e-01  6.17117070e-01  -4.04791180e-01   7.07323420e-01
C     9.789993014000000e+00   2.291233402650192e-01   4.199358000000000e+00  2.41971283e+00   3.15212310e-01  -7.36740630e-01
C     1.220555004400000e+00   9.437947977073616e-01   4.260553800000000e+00 -8.63808320e-01  -2.55828677e+00  -2.94584900e-01
C     7.444816466799999e+00   8.297320278011565e+00  -9.844742999999987e-01  1.33869310e-01   2.96695326e+00   9.79133920e-01
C     3.756783545800000e+00   4.951423785724416e-01  -8.206610999999988e-01 -2.27047810e-01  -2.74491500e-01  -1.98625770e-01
C     2.455928356300000e+00   2.160372213143144e-01   3.955017300000000e+00 -2.03195819e+00  -7.68732720e-01   9.37344700e-02
C     3.628803408000000e+00   9.363463896458671e-01   3.978768900000000e+00  1.47869417e+00   1.07015202e+00   7.17751100e-01
C     9.938001474000000e+00   8.314229909684899e+00  -7.692122999999995e-01 -1.40489585e+00  -4.93673240e-01   6.07638270e-01
C     6.221229463100000e+00   4.874438628939880e-01  -7.537212000000011e-01  7.51512100e-02  -9.02654860e-01  -2.91127790e-01
C     4.869689781699999e+00   2.163427471092888e-01   3.906230100000000e+00  3.13584080e-01   4.79146810e-01  -3.42574110e-01
C     6.103515113600000e+00   9.323180260618223e-01   3.952270500000000e+00  6.87553220e-01  -1.30470059e+00   1.00652246e+00
C     1.237663218580000e+01   8.242567801253385e+00  -7.292415000000005e-01  3.25776870e-01   5.47162618e+00  -7.17738880e-01
C     8.668794813900000e+00   4.553972981229672e-01  -9.277733999999995e-01 -6.00549900e-02   1.36632195e+00   2.26608710e-01
C     7.333633479900000e+00   2.090786108939528e-01   4.149613500000000e+00  1.97791600e-02   4.84394910e-01  -1.50772799e+00
C     8.579025577800000e+00   9.480894076381727e-01   4.200582900000000e+00 -1.09006266e+00  -2.08680177e+00   8.37168310e-01
C     1.255792080800000e+00   1.927045288799031e+00  -5.599731000000006e-01  1.00261517e+00  -2.95010930e-01  -1.98699848e+00
C     2.511907175200000e+00   2.642947046871331e+00  -4.785992999999991e-01 -3.64449620e-01  -4.19644970e-01   7.98334640e-01
C     1.107075529830000e+01   2.286464109126797e+00   4.596108000000000e+00 -2.88225480e-01   3.06065366e+00  -6.33207070e-01
C     2.428358070800000e+00   3.068445255968892e+00   4.480206600000000e+00 -4.43203380e-01   5.29278450e-01   6.47046900e-02
C     3.750433360700000e+00   1.927732935312985e+00  -6.601950000000016e-01 -6.09357960e-01  -3.06860490e-01   4.31312800e-01
C     4.990035272200000e+00   2.634963413632951e+00  -6.494502000000004e-01 -6.90368940e-01  -7.53250660e-01  -7.11370200e-01
C     3.619600182600000e+00   2.385127166426805e+00   4.245669600000000e+00  2.08015702e+00  -9.08581450e-01  -5.05328470e-01
C     4.902378442500000e+00   3.093670944558594e+00   4.158603600000000e+00 -6.06975700e-02  -9.83889230e-01  -1.62989831e+00
C     6.195666180599999e+00   1.912314471039773e+00  -8.321052000000009e-01 -8.37162150e-01  -8.63749720e-01   1.97550710e-01
C     7.377426521999999e+00   2.610492317399366e+00  -9.466914000000024e-01  2.85541732e+00   5.99832120e-01  -1.34626320e-01
C     6.151021974000000e+00   2.334372654375362e+00   3.965070600000000e+00 -2.99237305e+00   7.54433740e-01   9.15996710e-01
C     7.318132918999999e+00   3.051465775189832e+00   4.059461700000000e+00  2.55637780e+00   1.67306260e+00  -9.76018260e-01
C     8.623970021400000e+00   1.914873954041048e+00  -9.974853000000010e-01  1.80735085e+00  -4.07426720e-01   1.42353764e+00
C     9.908901951799999e+00   2.666731265101904e+00  -7.075491000000014e-01 -2.03481559e+00  -1.56561590e+00  -4.79181670e-01
C     8.566243369599999e+00   2.319318549679331e+00   4.315599900000000e+00  5.24095330e-01   3.17273527e+00   2.48620080e-01
C     9.814524053100001e+00   3.045864952825895e+00   4.623945600000000e+00 -1.23765701e+00  -9.71811260e-01  -2.01001861e+00
C     2.497949901500000e+00   4.066208563882265e+00  -1.852349999999987e-01  2.19764293e+00  -2.04498530e+00  -9.70263640e-01
C     3.735640057600000e+00   4.751361942946819e+00  -2.515100999999973e-01  1.96250547e+00   2.14356870e-01  -2.20398930e+00
C     1.229709930590000e+01   4.534411218291354e+00   4.432034100000000e+00 -1.80688013e+00  -1.84224144e+00   4.47184200e-02
C     3.606807720000000e+00   5.203885949433372e+00   4.133596200000000e+00  3.61138124e+00   1.20612351e+00   1.40876820e-01
C     4.971432508800000e+00   4.039383689409869e+00  -6.528437999999994e-01  5.42590800e-02   1.48844875e+00   1.56652869e+00
C     6.215587768299999e+00   4.773023107001749e+00  -8.222372999999976e-01 -7.08878420e-01   9.95714900e-02  -4.89202270e-01
C     4.921499546100000e+00   4.499042295322775e+00   3.988866900000000e+00 -2.04873275e+00   5.76353960e-01   3.24717890e-01
C     6.117772870800000e+00   5.234611529283136e+00   3.705992100000000e+00 -1.63837260e-01   1.45736640e-01  -5.50784300e-02
C     7.459881215699999e+00   4.025692154616132e+00  -9.169791000000025e-01 -1.90790173e+00   1.10339697e+00   7.62397520e-01
C     8.656540904499998e+00   4.754330871500610e+00  -7.112175000000001e-01  5.38423730e-01   3.24526370e-01  -7.37351160e-01
C     7.336805589799999e+00   4.511785487612603e+00   3.729558900000000e+00  1.66420559e+00  -1.78433857e+00   2.49966315e+00
C     8.645546905899998e+00   5.160674372289437e+00   3.948048900000000e+00 -2.90491421e+00   6.00271540e-01  -5.66908960e-01
C     9.899461149699999e+00   4.069833203050815e+00  -5.998263000000001e-01  1.28194699e+00   2.01924400e-01   1.06218568e+00
C     1.119754385510000e+01   4.770624840518336e+00  -2.878812000000011e-01 -4.95221354e+00  -1.38613390e-01  -7.94471370e-01
C     9.772949609599999e+00   4.466270341611478e+00   4.381685400000000e+00  2.05503324e+00  -3.53358820e-01   3.55930140e-01
C     1.101982129910000e+01   5.213700090348349e+00   4.416170400000000e+00  4.12962460e-01  -5.49645180e-01  -2.15087680e-01
C     3.772825519300000e+00   6.163251205800489e+00  -4.865271000000000e-01 -1.57959992e+00   5.36424400e-01   8.83094240e-01
C     4.948685291600000e+00   6.863023029246384e+00  -7.664837999999996e-01  4.98679980e-01   2.30991576e+00  -8.63872530e-01
C     1.354249288280000e+01   6.662299925497216e+00   4.110847800000000e+00 -4.30338660e-01  -1.78149187e+00  -8.76766240e-01
C     4.915311065000000e+00   7.371857369563086e+00   3.932339400000000e+00 -8.56438590e-01   2.08552570e-01   4.01884050e-01
C     6.158458287400000e+00   6.234708121810168e+00  -9.360339000000018e-01  2.11735210e+00  -3.15855053e+00   9.38844210e-01
C     7.418988739100000e+00   6.913636391454593e+00  -9.630075000000033e-01 -1.60975320e-01  -1.00413046e+00   1.63880680e-01
C     6.135190117100001e+00   6.695460233405144e+00   3.648726600000000e+00 -9.91203090e-01  -2.52434100e+00   1.08061520e+00
C     7.379006932099999e+00   7.289075505514202e+00   3.715425000000000e+00  8.33370010e-01   2.94932510e+00   3.86252150e-01
C     8.626376206500000e+00   6.188482957087631e+00  -7.353357000000003e-01  3.84689910e-01  -4.28697450e-01  -2.77091200e-01
C     9.872987887799999e+00   6.861163745104468e+00  -6.121052999999996e-01  5.58780240e-01   9.68206860e-01  -2.15119440e-01
C     8.629063648100001e+00   6.599861058455464e+00   3.819632700000000e+00 -6.32928680e-01  -8.26552910e-01  -4.03763380e-01
C     9.820327994199999e+00   7.328938424308300e+00   3.880072800000000e+00  1.11180252e+00  -1.77921000e-02   1.46987851e+00
C     1.108841105800000e+01   6.154008153906412e+00  -3.797207999999976e-01  2.71790440e+00   2.54280885e+00  -2.63096400e-02
C     1.242083121340000e+01   6.954598964018306e+00  -4.412565000000015e-01 -2.44005679e+00  -6.03152917e+00   3.13081970e-01
C     1.104933553290000e+01   6.597337097737786e+00   4.199634600000000e+00 -4.23906980e-01   1.32689475e+00  -1.21221632e+00
C     1.229682933910000e+01   7.322289523798049e+00   4.118606700000000e+00 -5.69758150e-01   6.74625630e-01   9.21561880e-01
