64
Lattice="9.86 0 0 4.93 8.53901048131456 0 0 0 30 " PBC="1 1 1" Properties=species:S:1:pos:R:3:force:R:3 Energy="-511.01179102"
C     4.968680780000000e+00   7.987085218757445e+00  -1.541859000000017e-01  2.80959643e+00  -3.97883640e-01  -5.48482160e-01
C     1.301568511200000e+00   1.839133784984496e-01  -2.793039000000022e-01  8.09240010e-01  -1.54394057e+00   1.48153141e+00
C     9.752555629300000e+00   4.834897887011192e-01   3.418774800000000e+00 -1.01425520e-01   1.91514819e+00   2.21632980e-01
C     1.147654059100000e+00   1.199683922492255e+00   3.536631300000000e+00 -2.23331100e-02   1.77946224e+00  -4.37924700e-01
C     7.451327567099999e+00   7.955123104800071e+00  -1.604625000000013e-01  1.20522315e+00   2.08556764e+00  -2.08933660e-01
C     3.802905322700000e+00   1.676679964503544e-01   4.238340000000000e-02 -8.72817520e-01  -1.01954622e+00  -1.13147857e+00
C     2.397235325900000e+00   5.340740328835912e-01   3.202848900000000e+00 -2.12721944e+00   4.09754500e-02   2.42000310e-01
C     3.590707375300000e+00   1.270113339370876e+00   3.270946800000000e+00  5.59871370e-01   1.23124837e+00   5.48485140e-01
C     1.001511480850000e+01   7.960298940612419e+00  -3.175290000000075e-02 -3.63455800e+00   2.41528041e+00   8.91278320e-01
C     6.240901296999999e+00   1.751127327373424e-01  -5.006429999999895e-02  2.07920331e+00  -1.83465230e-01  -4.78286520e-01
C     4.833421398600000e+00   5.727932366139984e-01   3.231176100000000e+00  3.80005780e-01   3.68294580e-01  -1.02053828e+00
C     6.101518315699999e+00   1.276469095651350e+00   3.242664900000000e+00 -3.26162526e+00   1.15192556e+00   3.86881560e-01
C     1.242908265300000e+01   8.033080598707965e+00  -9.028199999999487e-03 -6.43525200e-01  -1.95660353e+00   1.85260840e-01
C     8.726828062399999e+00   1.493460978337328e-01  -2.093279999999993e-01 -1.40097112e+00   1.03545742e+00   6.89153920e-01
C     7.225891534399999e+00   5.142721529705760e-01   3.383603700000000e+00  3.91443562e+00   2.10373080e-01   1.33968530e-01
C     8.495454929299999e+00   1.196746844447554e+00   3.495094800000000e+00  1.23026934e+00   2.34534654e+00   4.40960790e-01
C     1.366212741800000e+00   1.590096276818650e+00  -5.855940000000004e-02 -9.29932320e-01   1.83922980e-01   1.19614704e+00
C     2.555605807800000e+00   2.301900334541808e+00   2.839671000000000e-01  4.54738120e-01   1.93282380e-01   8.72668000e-03
C     1.101588789860000e+01   2.719678595044611e+00   3.817206300000000e+00 -1.44989551e+00  -3.73036187e+00  -1.02762935e+00
C     2.342898690000000e+00   3.379115975537702e+00   3.760559400000000e+00  2.77062899e+00   1.22458227e+00   4.18807400e-02
C     3.778324934300000e+00   1.587976809027409e+00   2.269785000000000e-01  2.11333453e+00  -4.35455110e-01  -9.89166320e-01
C     5.092453162800000e+00   2.291031028101816e+00   1.185930000000000e-01 -3.36068605e+00   1.83530474e+00   8.97873270e-01
C     3.573471060000000e+00   2.742102890466140e+00   3.464663700000000e+00 -3.83383230e-01  -3.42474924e+00  -3.38204860e-01
C     4.772485070300000e+00   3.406200094368271e+00   3.223505100000000e+00  2.47752313e+00  -2.70084600e-02   7.01908460e-01
C     6.240207941800000e+00   1.592066909657224e+00  -1.659128999999986e-01  2.06100554e+00  -1.15223000e-03   2.51073590e-01
C     7.524431086099999e+00   2.290278485108214e+00  -2.840361000000016e-01 -7.46108030e-01   5.56245550e-01   1.50232102e+00
C     6.080260550100000e+00   2.736611538216556e+00   3.194576100000000e+00 -9.18795190e-01  -2.83270251e+00   5.23586150e-01
C     7.312227962200000e+00   3.389798619208602e+00   3.326219700000000e+00  6.62945560e-01  -1.61792960e-01   5.05722730e-01
C     8.751590564999999e+00   1.567725947943355e+00  -2.105385000000020e-01  5.53274300e-02   1.20323429e+00  -6.90866000e-03
C     9.981186400599999e+00   2.274226938598015e+00   4.802130000000000e-02 -4.66041130e-01   1.31604898e+00  -1.27654165e+00
C     8.571964486700001e+00   2.689103728729819e+00   3.619485000000000e+00 -1.13317864e+00  -9.10979090e-01  -1.36874421e+00
C     9.822839681300000e+00   3.475174976201729e+00   3.725969700000000e+00 -2.71196062e+00  -3.84444606e+00   1.14909170e-01
C     2.572524286000000e+00   3.724642594325453e+00   5.789331000000000e-01 -9.16984920e-01  -5.05407980e-01  -1.62339689e+00
C     3.796949734800000e+00   4.446412018839190e+00   4.208754000000000e-01  1.05853258e+00  -1.49872235e+00   6.85111000e-02
C     1.226026796610000e+01   4.791926085281536e+00   3.844231800000000e+00 -1.05956641e+00   2.50659345e+00  -1.83331246e+00
C     3.547972261900000e+00   5.527369539617525e+00   3.418327200000000e+00  2.93405757e+00  -1.92870657e+00   1.13649130e-01
C     5.073773097000000e+00   3.764483567862618e+00   2.735202000000000e-01 -1.75037687e+00  -2.87867511e+00  -1.09723701e+00
C     6.261298531100000e+00   4.417612754363609e+00  -1.175429999999977e-02  7.26424900e-01  -1.73447220e-01  -2.50900360e-01
C     4.817835696600000e+00   4.790316567196160e+00   3.185408100000000e+00 -1.56411980e-01   2.57442780e+00  -1.16697450e-01
C     6.116373638199999e+00   5.501943525841964e+00   2.932308900000000e+00 -3.97637405e+00   1.10812365e+00   1.60250954e+00
C     7.513950941399999e+00   3.730095947978400e+00  -1.152542999999966e-01  1.91458680e-01  -1.11667487e+00  -7.95193420e-01
C     8.727351431200001e+00   4.470061320704179e+00  -6.389550000000099e-02  1.09239747e+00  -9.12317970e-01   7.92946690e-01
C     7.270101753099999e+00   4.795373454592521e+00   3.191626800000000e+00  2.87671550e+00   5.14603890e-01  -6.11355640e-01
C     8.532274437100000e+00   5.499974686195589e+00   3.230864400000000e+00 -3.60110160e-01   1.61573807e+00   1.26733290e-01
C     9.987922358199999e+00   3.734462797937872e+00   1.602090000000000e-01 -1.55526492e+00  -4.95991700e-01   9.29822000e-02
C     1.117266495520000e+01   4.434247344509382e+00   4.924008000000000e-01  8.89113820e-01   1.20699120e+00  -4.01135930e-01
C     9.744264256699999e+00   4.833794903027490e+00   3.565314300000000e+00  1.78384791e+00   2.33621295e+00   5.74733830e-01
C     1.103842677400000e+01   5.575955399177364e+00   3.728320500000000e+00 -2.46423202e+00  -2.48179853e+00  -9.65665170e-01
C     3.789664673800000e+00   5.822160005226364e+00   2.456772000000000e-01 -3.02043640e-01   2.73879128e+00   2.83686890e-01
C     4.984933658900000e+00   6.579883531096876e+00   3.267150000000000e-02  1.76693242e+00  -2.15718669e+00  -1.32718736e+00
C     1.347659648150000e+01   6.920658361332716e+00   3.274269900000000e+00 -2.11964656e+00   7.95669350e-01   1.33126422e+00
C     4.806932804400000e+00   7.649674246310096e+00   3.176227200000000e+00  1.99794068e+00  -1.03112147e+00  -4.92114460e-01
C     6.248730383500000e+00   5.783158160249069e+00  -1.752524999999991e-01 -6.72000000e-01   4.05216225e+00   8.61229410e-01
C     7.487483940599999e+00   6.543022757607336e+00  -2.470460999999986e-01 -1.55265393e+00   2.44321050e-01   4.53820120e-01
C     6.068109727000000e+00   6.979225299462416e+00   2.947746900000000e+00 -1.25659231e+00  -2.44857516e+00  -3.50714300e-02
C     7.279729944500000e+00   7.635289856206012e+00   2.870651700000000e+00  9.30408310e-01   2.58348930e+00   1.97331928e+00
C     8.708206860800001e+00   5.900852622546482e+00  -6.165540000000291e-02  8.22093890e-01  -1.63273805e+00   1.26573510e-01
C     9.927948563099999e+00   6.592192002363166e+00   1.295790000000000e-01  1.88410198e+00  -1.37959506e+00   2.28374980e-01
C     8.505027066599999e+00   6.966509688176439e+00   3.048170100000000e+00  1.54931160e+00  -1.72418505e+00  -1.54891060e-01
C     9.747248484299998e+00   7.699439001656802e+00   3.122667000000000e+00  3.30007360e-01  -1.88859361e+00   1.45675353e+00
C     1.117559002280000e+01   5.914822272911552e+00   4.580184000000000e-01 -4.06601700e-01  -1.46048889e+00  -1.54700096e+00
C     1.243319698450000e+01   6.594230434944953e+00   2.881434000000000e-01 -8.99861880e-01   4.31947410e-01  -3.21729590e-01
C     1.097844938000000e+01   6.913849610546278e+00   3.395079900000000e+00  9.67117620e-01   2.68606327e+00   4.07224800e-01
C     1.224530373990000e+01   7.636988265390484e+00   3.442917300000000e+00 -1.74157643e+00  -2.14790960e-01  -1.04046712e+00
