26
Lattice="8.88768389401873 1.33226762955019e-15 0 4.44384194700937 7.69696003302603 0 0 0 30 " PBC="1 1 1" Properties=species:S:1:pos:R:3:force:R:3 Energy="-208.66004076"
C     1.091778198607314e-01   7.652333055746059e-02   3.660184200000000e+00 -9.82128500e-01   2.86532780e+00   2.04087720e-01
C     6.890610837148829e+00   7.233323636544911e+00   3.457092600000000e+00  2.50748223e+00   2.65411570e-01   7.97120420e-01
C     8.311137619090825e+00   7.629377180334986e+00   3.496917900000000e+00 -9.30431300e-01   3.00197990e-01  -4.91245630e-01
C     9.367735341936967e+00   6.682759315903008e+00   3.522674700000000e+00 -9.15542400e-01  -1.60794942e+00  -4.15581230e-01
C     1.072918831092496e+01   7.072770976978333e+00   3.634683900000000e+00 -8.31010510e-01  -3.38387720e-01  -2.74326750e-01
C     1.169033444177328e+01   6.028627548972636e+00   3.645510000000000e+00  4.59878620e-01   6.59566600e-01   8.90669290e-01
C     4.163111699687306e+00   6.433639584541628e+00   3.724847700000000e+00  1.72618478e+00  -1.76732896e+00  -4.49894100e-01
C     5.230285099737007e+00   5.411208588054158e+00   3.704535000000000e+00 -2.58961760e-01   2.58780558e+00  -3.10046760e-01
C     6.599178571086328e+00   5.861472668001126e+00   3.557227500000000e+00 -1.07984992e+00  -5.21885010e-01  -2.95020120e-01
C     7.631182428376320e+00   4.897922492107952e+00   3.426994200000000e+00  2.52413500e-02  -9.80533290e-01   7.47492080e-01
C     9.016625478081037e+00   5.251983038335953e+00   3.396279000000000e+00 -6.17818040e-01   1.60426762e+00   4.91287510e-01
C     9.997283096906283e+00   4.247637973678975e+00   3.449624400000000e+00  2.45443210e-01  -3.08081440e-01   7.27301270e-01
C     1.133389223424547e+01   4.646506372721621e+00   3.676068600000000e+00  1.08597209e+00   2.85660300e-01  -1.30444488e+00
C     3.497578686924285e+00   3.683596045115741e+00   3.649971600000000e+00  2.33653420e-01  -3.19852360e-01   3.28698960e-01
C     4.879578781228631e+00   4.073609784370275e+00   3.709577700000000e+00 -6.65285900e-01  -1.03092686e+00   2.25520360e-01
C     5.891047333798396e+00   3.073965407142818e+00   3.738230400000000e+00  1.38479709e+00   1.49006135e+00  -1.11135148e+00
C     7.275628589293306e+00   3.518213620099940e+00   3.571743000000000e+00  4.78535800e-02  -1.53694798e+00   6.15679600e-02
C     8.307690305351541e+00   2.471719925349081e+00   3.539054700000000e+00  6.63652300e-02   2.33041452e+00   4.51684670e-01
C     9.682128269372658e+00   2.850956919956811e+00   3.485009700000000e+00 -3.06727210e-01   7.89786060e-01  -5.46538690e-01
C     1.828616076073348e+00   1.879196935586838e+00   3.448214700000000e+00 -3.80747800e-01   1.18945827e+00   9.69615990e-01
C     3.198144305780783e+00   2.290498542044345e+00   3.548180400000000e+00 -1.32737836e+00   9.72361240e-01  -4.83764000e-01
C     4.193737588534294e+00   1.329192414847917e+00   3.515684100000000e+00  1.14249287e+00  -1.38558812e+00   7.35382490e-01
C     5.563900532170555e+00   1.715589814401956e+00   3.656282400000000e+00  1.08929790e-01  -3.04289150e-01   2.86482000e-02
C     6.616592562328041e+00   7.640539003892091e-01   3.680259600000000e+00 -3.76786530e-01  -1.01200202e+00   1.53021720e-01
C     7.977748815981816e+00   1.142447539086452e+00   3.709303800000000e+00  9.44306300e-02  -2.26948763e+00  -7.40369450e-01
C     1.462416924758988e+00   5.375730836248678e-01   3.543933600000000e+00 -4.56056640e-01  -1.95705892e+00  -3.89515560e-01
