26
Lattice="8.88768389401873 1.33226762955019e-15 0 4.44384194700937 7.69696003302603 0 0 0 30 " PBC="1 1 1" Properties=species:S:1:pos:R:3:force:R:3 Energy="-208.57094265"
C     1.282246370305291e+01   7.050150996902969e+00  -2.669858999999981e-01 -1.61318623e+00   3.96805360e-01   2.27968040e-01
C     9.048700197085466e+00   6.871774179116519e+00  -4.593599999999753e-02 -1.63514937e+00   3.23393370e-01  -6.56853000e-03
C     1.038936745038029e+01   6.487810173475966e+00  -2.819970000000183e-02  1.51781191e+00  -1.19519015e+00  -3.30564020e-01
C     1.077114533217237e+01   5.073234765258457e+00  -3.854040000000225e-02 -1.86221388e+00   3.01120840e-01  -8.52957000e-03
C     6.636113297024199e+00   6.234806940931449e+00  -2.265359999999994e-01  5.66012640e-01   2.38753357e+00   1.40528060e-01
C     8.007760483388196e+00   5.879380877024525e+00  -3.782460000000043e-02  1.10740270e-01  -4.92376060e-01  -3.80549560e-01
C     8.342685650855605e+00   4.488863933742388e+00   1.524900000000000e-02 -5.00388530e-01  -2.34625440e-01  -3.58753300e-02
C     9.693391543069414e+00   4.051369264424389e+00   4.803870000000000e-02  1.68612167e+00   1.74066834e+00  -8.95116510e-01
C     1.006042635710544e+01   2.689673357065785e+00  -1.382480999999984e-01  2.06182460e-01   6.81590050e-01   3.30527200e-02
C     4.273630759357212e+00   5.637842266444695e+00  -2.627723999999994e-01 -1.02871490e+00   2.76231776e+00  -4.84658950e-01
C     5.617575479414719e+00   5.273865649640443e+00  -2.958965999999990e-01  3.96414770e-01   3.69422420e-01   4.32016300e-01
C     5.957865963929006e+00   3.939017123714481e+00  -2.412962999999984e-01 -3.67600460e-01  -2.41789996e+00  -1.93259380e-01
C     7.277359376840948e+00   3.498051433301355e+00  -9.901170000000192e-02  1.96779413e+00   2.60462674e+00   1.15601400e-02
C     7.658868850645539e+00   2.185060657498985e+00  -1.441914000000004e-01  1.11865360e-01  -3.63307558e+00  -2.66084700e-01
C     9.047742145854397e+00   1.720743390959643e+00  -1.914587999999995e-01 -1.95562378e+00   2.08178177e+00   1.78315000e-02
C     3.236286780402560e+00   4.695974657864831e+00  -2.359928999999994e-01 -4.63874230e-01  -1.08660033e+00   8.08430840e-01
C     3.588304252706290e+00   3.308053514352811e+00  -2.495186999999994e-01 -1.45959152e+00  -2.64481590e-01  -8.13046380e-01
C     4.950453882293737e+00   2.924890377403377e+00  -3.236078999999989e-01 -1.14935936e+00   1.04354385e+00   8.04130720e-01
C     5.219039155308297e+00   1.569908913126944e+00  -2.127294000000006e-01  2.40449884e+00  -1.89640947e+00  -1.27705530e-01
C     6.634363353208805e+00   1.161167546484216e+00  -1.895978999999990e-01 -6.87064140e-01   6.03571920e-01   2.22726660e-01
C     1.141427475998562e+01   7.480792600888656e+00  -1.546719000000003e-01  1.26836898e+00  -8.29106530e-01  -1.59818730e-01
C     2.527516163396954e+00   2.310823365608364e+00  -2.888300999999984e-01  1.12064240e+00   4.69761900e-01   5.86450870e-01
C     2.861915268851590e+00   9.151877899670749e-01  -3.015077999999995e-01  5.11291690e-01   1.24759898e+00   3.94445700e-01
C     4.217779261775118e+00   5.529697745904786e-01  -1.718273999999980e-01  9.86869270e-01  -1.47432030e-01  -2.39473290e-01
C     4.707435098296669e-01   3.950197650884459e-01  -3.268668000000012e-01  1.17746136e+00  -3.28310804e+00   4.31656860e-01
C     6.303748449114559e+00   7.657892723914929e+00  -2.970366000000020e-01 -1.30930934e+00  -1.53343167e+00  -1.69547930e-01
