26
Lattice="8.88768389401873 1.33226762955019e-15 0 4.44384194700937 7.69696003302603 0 0 0 30 " PBC="1 1 1" Properties=species:S:1:pos:R:3:force:R:3 Energy="-208.4921768"
C     4.435604133517107e+00   7.637031191328018e+00  -5.883779999999916e-02  3.75611070e-01   1.94903386e+00   4.05354330e-01
C     9.511064132077619e+00   7.520014846779130e+00  -3.325559999999683e-02  1.81908740e+00  -1.38304169e+00   2.88183280e-01
C     1.092913266899510e+01   7.088824680452106e+00   6.284700000000000e-02 -9.97636500e-01   9.65497050e-01  -2.49078970e-01
C     1.123059130721673e+01   5.703851472631575e+00   8.043570000000000e-02  2.57121107e+00   1.24103526e+00  -4.41294680e-01
C     7.164661236524460e+00   6.894757147826899e+00  -8.416139999999928e-02 -2.17813650e-01  -8.19985510e-01   1.40118940e-01
C     8.503021247074175e+00   6.499602839877129e+00  -5.612969999999962e-02  1.38455009e+00   2.61895230e-01  -1.19136400e-02
C     8.873311042009352e+00   5.122055120306340e+00  -3.079680000000096e-02  5.79526000e-03   2.28052870e-01   7.43614500e-02
C     1.025201367178496e+01   4.757327511111963e+00   3.061740000000000e-02 -1.85788734e+00  -1.79325156e+00  -2.32215220e-01
C     1.060102688474814e+01   3.379205752262136e+00  -2.260169999999917e-02 -1.43601845e+00  -1.77414083e+00  -3.33755680e-01
C     4.799888076104896e+00   6.323027264676901e+00   2.112720000000000e-02 -5.17039030e-01  -4.13880219e+00  -3.29437040e-01
C     6.181172889074222e+00   5.888617921786929e+00   1.289400000000000e-03 -1.62001788e+00  -4.57698640e-01  -2.44642440e-01
C     6.496395972182853e+00   4.457022533733481e+00   1.358940000000000e-02  8.11004860e-01   3.62065967e+00  -3.28007110e-01
C     7.877937950344706e+00   4.113694782510512e+00  -5.179889999999787e-02 -8.04061130e-01   2.32903900e-02   6.09896070e-01
C     8.180272380945516e+00   2.742042087657100e+00  -1.126289999999841e-02  1.52212158e+00  -3.04395430e-01  -5.38451000e-03
C     9.552631426322888e+00   2.343831009001016e+00  -5.655630000000045e-02  1.09888537e+00  -2.27224760e-01  -7.75461600e-02
C     3.728414768802408e+00   5.269763400853255e+00   1.327860000000000e-02  5.11777450e-01   3.67966732e+00   2.49579020e-01
C     4.080883691059383e+00   3.958894292083155e+00  -8.465040000000101e-02  1.00998393e+00  -2.41267268e+00   6.43328510e-01
C     5.466928614221596e+00   3.550129757590737e+00  -7.311300000001353e-03 -7.28360010e-01  -1.59184340e+00  -8.38069200e-02
C     5.841055266720439e+00   2.157085825361150e+00   3.810120000000000e-02 -3.53220486e+00   2.94839400e-01  -5.58339490e-01
C     7.154956326772448e+00   1.771157170672938e+00   6.522090000000000e-02  2.01598846e+00  -1.64632065e+00  -4.63767090e-01
C     7.540726689488948e+00   3.654696731108701e-01   3.473760000000000e-02 -1.95292335e+00   3.20708680e-01   1.74322400e-02
C     3.063738928986630e+00   2.942238093797393e+00  -9.072659999999999e-02 -6.56297190e-01   1.97993202e+00   2.07177650e-01
C     3.360841402295673e+00   1.604729190606661e+00  -9.820020000000085e-02  1.44288469e+00  -2.62347352e+00  -3.00128750e-01
C     4.753571330205850e+00   1.188026704265704e+00  -6.827730000000187e-02  4.14888000e-03   7.11076500e-01   4.82141330e-01
C     1.036789254143250e+00   9.089128433026175e-01  -1.215645000000016e-01 -2.64428318e+00   2.94598379e+00   3.96114220e-01
C     2.348171589040162e+00   5.551738760646694e-01  -1.287444000000022e-01  2.39149245e+00   9.51178810e-01   1.45630670e-01
