26
Lattice="8.88768389401873 1.33226762955019e-15 0 4.44384194700937 7.69696003302603 0 0 0 30 " PBC="1 1 1" Properties=species:S:1:pos:R:3:force:R:3 Energy="-208.90006972"
C     1.291099885506354e+01   7.231469592812884e+00   4.641900000000000e-03  2.02449370e-01   2.04517100e-02  -1.11492320e-01
C     9.211552295331396e+00   6.992641466707617e+00   9.203580000000000e-02 -1.69925323e+00  -5.13939780e-01   3.45577360e-01
C     1.052687871767196e+01   6.583163731898820e+00   1.307223000000000e-01  1.65108829e+00   2.23326844e+00  -7.19860440e-01
C     1.086808965516996e+01   5.250842194920306e+00   9.676440000000000e-02 -9.40540000e-04  -1.98720830e+00  -1.26589100e-02
C     6.787395052926549e+00   6.435382253262020e+00   1.180200000000000e-03  9.37232000e-03  -1.29955749e+00   6.69535070e-01
C     8.184244333448717e+00   6.027632255071157e+00   1.480359000000000e-01 -1.69935751e+00  -1.26266603e+00  -6.91011350e-01
C     8.498002726258703e+00   4.605929000048265e+00   1.710474000000000e-01 -1.08450607e+00   9.28389120e-01  -4.13164600e-01
C     9.859040639908663e+00   4.225681548527797e+00   1.044210000000000e-01 -2.18219230e-01   3.64639810e-01   1.54049940e-01
C     1.018978268564899e+01   2.852102766396477e+00   3.372840000000001e-02  2.54281260e-01   4.43466680e-01   5.18071270e-01
C     4.339732775118185e+00   5.860064663102838e+00  -9.140399999999715e-03  1.13691764e+00  -9.83977610e-01  -1.78897900e-02
C     5.711641881478548e+00   5.430942977814275e+00  -5.939400000002593e-03  1.09142106e+00   2.31704880e+00  -6.75490900e-02
C     6.079826672951806e+00   4.098048325191928e+00   6.793200000000000e-03 -8.04414810e-01  -2.76879882e+00   1.93800190e-01
C     7.415460564178417e+00   3.635894597147418e+00   1.012749000000000e-01  1.83445483e+00   8.15103620e-01  -1.25018260e-01
C     7.797648079342959e+00   2.255143325842543e+00   6.350159999999999e-02 -9.19416150e-01   7.67156680e-01   2.65016100e-02
C     9.161271242489414e+00   1.885011834950303e+00   6.287039999999999e-02 -3.83135200e-02  -3.62789590e-01  -3.91436270e-01
C     3.333391748285640e+00   4.872323095774574e+00   1.395300000000000e-02  4.90293040e-01  -1.59713546e+00   1.00121720e-01
C     3.687077216632473e+00   3.436753998166439e+00  -2.478000000003533e-04 -1.65507360e-01   2.27289858e+00   3.33015900e-02
C     5.048380605408625e+00   3.069431897685149e+00  -2.339039999999670e-02  3.31605460e-01  -8.37353070e-01   1.30257910e-01
C     5.368628829434726e+00   1.649603853034366e+00  -8.238299999998588e-03  2.37873984e+00   1.43946533e+00   1.33548710e-01
C     6.787491703126898e+00   1.260018295666301e+00   2.344680000000000e-02 -1.88115274e+00   1.37719099e+00  -1.10806670e-01
C     1.155528919678445e+01   7.614755034457194e+00   2.245500000000000e-02 -3.59466820e-01  -1.71731893e+00   5.08874300e-01
C     2.663257892872354e+00   2.477340707380589e+00   3.981960000000000e-02  7.83736170e-01  -1.69523604e+00  -3.41089940e-01
C     3.045544416817355e+00   1.068764771628063e+00   3.207690000000000e-02 -1.08267885e+00   8.07652220e-01  -2.01997870e-01
C     4.398373487843638e+00   6.435716917084124e-01   1.786500000000000e-02 -5.08637170e-01   1.53739423e+00   1.36433580e-01
C     5.984465958260472e-01   5.137688492792873e-01  -5.366100000003371e-03  1.59108473e+00  -4.39974880e-01   1.98514890e-01
C     2.010810839485577e+00   1.077191095590506e-01  -4.929000000000627e-03 -1.29358003e+00   1.41829830e-01   5.53873700e-02
