26
Lattice="8.88768389401873 1.33226762955019e-15 0 4.44384194700937 7.69696003302603 0 0 0 30 " PBC="1 1 1" Properties=species:S:1:pos:R:3:force:R:3 Energy="-208.35493111"
C     1.618333030857425e-01   1.887928059166469e-01   3.713874000000000e+00 -9.26561780e-01   1.61279939e+00  -7.89698450e-01
C     6.949040381915196e+00   7.266377230788941e+00   3.608954100000000e+00  2.08179052e+00   3.75958260e-01  -1.34266978e+00
C     3.904144228735949e+00   1.823640739907900e-03   3.524695800000000e+00 -9.89662570e-01  -2.55880635e+00   2.36892840e-01
C     9.350197319719774e+00   6.628149769338159e+00   3.503268900000000e+00 -8.94573960e-01   2.09955520e+00   1.43881420e-01
C     1.070537669484150e+01   7.017527431815815e+00   3.617118300000000e+00  4.18547940e-01   1.40610578e+00   3.72150970e-01
C     1.177104287708733e+01   6.100732054776874e+00   3.710277000000000e+00  7.10490160e-01   6.61303130e-01  -6.91710260e-01
C     4.251723019114522e+00   6.562069289301402e+00   3.699247800000000e+00  2.10202570e-01  -3.65558596e+00   8.69466280e-01
C     5.280625696797248e+00   5.494568897297467e+00   3.734592000000000e+00 -7.75728720e-01   1.43954438e+00  -1.33832800e-01
C     6.635208886072776e+00   5.867237229245994e+00   3.541635000000000e+00 -6.44341310e-01   7.12540890e-01   7.31571490e-01
C     7.624790761603537e+00   4.857206343245254e+00   3.450962100000000e+00  6.08767540e-01   1.45247313e+00   3.71024990e-01
C     8.980205127104899e+00   5.273655291722823e+00   3.434992800000000e+00  1.09182147e+00   3.36632700e-01   3.34606970e-01
C     1.006207155735712e+01   4.362700752802648e+00   3.513503100000000e+00 -6.15735200e-02  -1.62770084e+00  -6.65251950e-01
C     1.146166473303920e+01   4.743956583056647e+00   3.611757900000000e+00 -1.09214315e+00  -1.72363638e+00   8.44882170e-01
C     3.559636406439419e+00   3.705519912125993e+00   3.770150400000000e+00 -1.58380800e-02   9.01823510e-01  -1.25022879e+00
C     4.940791637539668e+00   4.136307835321849e+00   3.882861600000000e+00 -1.01477488e+00  -1.66124773e+00  -1.70753293e+00
C     5.928503499928029e+00   3.105456595470360e+00   3.698355000000000e+00  9.20044150e-01   1.11588754e+00   7.65989370e-01
C     7.300482464030894e+00   3.518578763883763e+00   3.573954900000000e+00 -6.07443650e-01  -1.90816237e+00   3.40467740e-01
C     8.324120433323902e+00   2.511670996384796e+00   3.635443500000000e+00  4.01877170e-01   2.05128431e+00  -1.12061813e+00
C     9.703589581931579e+00   2.970475392272252e+00   3.460275600000000e+00 -1.16783440e-01  -1.26381585e+00   1.53320904e+00
C     1.830233545711526e+00   1.951605317373060e+00   3.544859400000000e+00  5.54073560e-01   1.24072748e+00  -1.05675429e+00
C     3.203554238993079e+00   2.334300248243868e+00   3.495071100000000e+00  1.96466170e-01   1.17497837e+00   1.89868328e+00
C     4.221819070136265e+00   1.362360539857195e+00   3.577232100000000e+00  9.01905290e-01  -2.25913460e-01   5.03518300e-02
C     5.607498798872399e+00   1.730930625437749e+00   3.707483400000000e+00 -1.06722836e+00  -6.31916500e-02  -5.15537570e-01
C     6.598117333851223e+00   7.195666259598136e-01   3.711181800000000e+00  5.12249770e-01   3.67558090e-01  -2.98091400e-01
C     7.966676717157872e+00   1.161753054233698e+00   3.704153100000000e+00  8.96673720e-01  -1.31614260e+00   1.95544780e-01
C     1.526531476536652e+00   5.876477352792409e-01   3.577085100000000e+00 -1.29825662e+00  -9.44968980e-01   8.83203200e-01
