26
Lattice="8.88768389401873 1.33226762955019e-15 0 4.44384194700937 7.69696003302603 0 0 0 30 " PBC="1 1 1" Properties=species:S:1:pos:R:3:force:R:3 Energy="-208.16686936"
C     2.176205394596475e-01   2.650014077784808e-01   3.482276100000000e+00 -1.28072760e-01  -1.29465739e+00   1.73149597e+00
C     7.098377290345855e+00   7.398508480596742e+00   3.575826000000000e+00 -1.50104742e+00  -1.38509622e+00   1.20705958e+00
C     4.004836932385224e+00   1.349133929802442e-01   3.667725300000000e+00  2.88248640e-01  -1.63327528e+00  -2.78656060e-01
C     9.464294694891084e+00   6.836084299092613e+00   3.688672800000000e+00  8.02344600e-02  -8.93871080e-01   2.82906600e-01
C     1.083135765879753e+01   7.180297200719033e+00   3.627614100000000e+00 -6.27491040e-01   2.19172121e+00  -3.38846830e-01
C     1.179525777184071e+01   6.176621078858261e+00   3.558691200000000e+00  2.22534805e+00  -1.53284970e-01   4.19015540e-01
C     4.284362549373977e+00   6.555980763008870e+00   3.555748200000000e+00  5.19357390e-01   1.28032843e+00  -9.19044190e-01
C     5.329341625234509e+00   5.565783403613435e+00   3.527384100000000e+00 -1.18378316e+00   1.99178591e+00  -8.14884400e-02
C     6.660063782980665e+00   6.000993846103330e+00   3.605712000000000e+00  3.82961533e+00  -1.00720200e-02   2.86521280e-01
C     7.775544811269254e+00   5.049062000466639e+00   3.740184600000000e+00 -2.03097431e+00  -9.44446120e-01  -9.99523620e-01
C     9.133790926147933e+00   5.426573798453246e+00   3.777689700000000e+00  1.27298430e-01   6.18072540e-01  -9.28576170e-01
C     1.014307084211784e+01   4.421505604401449e+00   3.645326700000000e+00 -5.55656100e-02  -1.04172168e+00   1.55665781e+00
C     1.152840572870980e+01   4.775852939360168e+00   3.607467300000000e+00 -3.10129335e+00   1.54825274e+00  -7.42769510e-01
C     3.605169033162784e+00   3.815197051347075e+00   3.466837500000000e+00  1.27422314e+00  -1.91578651e+00   1.08041991e+00
C     4.955510930834670e+00   4.227128192165435e+00   3.439718100000000e+00  2.08264499e+00  -1.24950086e+00   6.89485360e-01
C     6.054064431955858e+00   3.287376400928218e+00   3.523938600000000e+00 -8.40770410e-01  -9.25509820e-01  -3.63144930e-01
C     7.432738710488390e+00   3.643897511338610e+00   3.602147100000000e+00 -3.04334100e-02   9.48676560e-01   4.07978200e-01
C     8.460720446408924e+00   2.641804346277609e+00   3.596911200000000e+00 -1.91879023e+00   3.26065360e-01   6.52960650e-01
C     9.787578283584850e+00   2.994999138441437e+00   3.753333600000000e+00  6.72980130e-01   2.73993360e+00  -1.83774421e+00
C     1.888076814443304e+00   2.035788354673976e+00   3.602554800000000e+00  2.40530520e+00  -1.84946114e+00   1.69213586e+00
C     3.285645420163111e+00   2.400813682282314e+00   3.643008300000000e+00 -6.39975890e-01   2.36567047e+00  -1.32845598e+00
C     4.356721357848822e+00   1.498965185864831e+00   3.628694100000000e+00 -8.78906800e-01  -6.69296230e-01  -7.92679400e-02
C     5.706892656417313e+00   1.893766819106026e+00   3.548119500000000e+00  7.54929060e-01   6.71601730e-01   2.50750780e-01
C     6.744640312738905e+00   9.339577506354335e-01   3.561073800000000e+00 -1.16776517e+00  -2.68546301e+00   5.06203100e-02
C     8.089855038848084e+00   1.281501588684435e+00   3.542122200000000e+00  1.08524208e+00  -4.57910380e-01  -3.68911610e-01
C     1.600267657122435e+00   6.107565492861108e-01   3.674070900000000e+00 -1.24055735e+00   2.42724417e+00  -2.04157835e+00
