26
Lattice="8.88768389401873 1.33226762955019e-15 0 4.44384194700937 7.69696003302603 0 0 0 30 " PBC="1 1 1" Properties=species:S:1:pos:R:3:force:R:3 Energy="-208.59617802"
C     8.834449996382094e+00   2.672461492016300e-03  -5.072669999999846e-02 -7.51511280e-01  -3.08817528e+00  -6.09996200e-02
C     9.556809218737440e+00   7.403503191899410e+00  -2.639190000000013e-02 -9.10802710e-01   2.12212147e+00  -7.44994510e-01
C     1.090431105652080e+01   7.043468804083324e+00   9.419040000000001e-02 -3.61045860e-01  -9.97808470e-01  -2.44287770e-01
C     1.121073351061877e+01   5.635946351250105e+00   5.351160000000000e-02  1.68984430e-01   1.63924419e+00   4.19600710e-01
C     7.171050059193076e+00   6.865706511585670e+00  -2.470575000000004e-01 -1.42746392e+00  -1.17111260e-01  -2.12554300e-01
C     8.525335021723004e+00   6.449172973517372e+00  -1.510877999999991e-01  1.34520510e-01  -4.28034600e-01   6.97086320e-01
C     8.875273931399738e+00   5.067960808245900e+00  -2.965230000000219e-02 -2.13412504e+00  -4.23205750e-01  -3.39288310e-01
C     1.020086291788994e+01   4.658895245646709e+00  -1.733219999999847e-02  9.93515210e-01  -2.13542180e-01  -3.07923340e-01
C     1.056546357306076e+01   3.295037416154878e+00  -1.943576999999976e-01 -8.04660590e-01  -8.91219870e-01   3.91672790e-01
C     4.701611533814081e+00   6.273902033042228e+00  -6.348569999999754e-02  1.23653251e+00   9.18955080e-01   4.30483360e-01
C     6.111889038191897e+00   5.896823189057310e+00  -1.418621999999985e-01 -5.95020360e-01  -1.17796479e+00   6.42798300e-02
C     6.447592100178037e+00   4.485151535980718e+00  -7.311569999999890e-02 -4.77697890e-01  -1.95201400e-01   5.23606730e-01
C     7.827517408594272e+00   4.070973575560000e+00  -1.670909999999992e-02 -9.66516140e-01   1.67769992e+00  -4.39100250e-01
C     8.120631800374730e+00   2.712734911738071e+00  -3.376229999999936e-02  2.17450722e+00  -1.40183254e+00  -3.10713090e-01
C     9.516392695127804e+00   2.305101137643661e+00  -2.033436000000002e-01 -4.48705940e-01   1.12443992e+00   5.61116350e-01
C     3.668231284101266e+00   5.302132350502617e+00   7.348860000000000e-02  2.13657146e+00  -2.25669376e+00  -1.38255906e+00
C     4.043861466057178e+00   3.868135972737412e+00  -9.522060000000110e-02 -8.84237900e-02   1.22534901e+00   8.32676370e-01
C     5.394603531158634e+00   3.452522683210300e+00  -2.936580000000077e-02  1.40346348e+00   2.06096736e+00  -7.41349230e-01
C     5.758337015009903e+00   2.084959229281626e+00  -5.946270000000098e-02  4.81571130e-01   5.67706700e-01   3.98281490e-01
C     7.138575880929890e+00   1.695585030435985e+00   1.569780000000000e-02 -1.41137326e+00   1.32040551e+00  -9.00103200e-02
C     7.459163347893814e+00   3.430924551548518e-01   6.567330000000000e-02  1.01111056e+00  -2.44444750e-01  -2.01535930e-01
C     3.044476740532421e+00   2.886433902066288e+00  -2.155950000000004e-01 -5.32455230e-01  -2.09350790e-01  -3.69949540e-01
C     3.385104734797257e+00   1.482046805901289e+00  -3.388725000000008e-01  4.76269190e-01   2.11392897e+00   6.45309790e-01
C     4.754916969944935e+00   1.126018531841618e+00  -1.474922999999997e-01 -4.77175870e-01  -2.25075460e+00  -7.80752000e-02
C     9.463744904391842e-01   9.339433573201774e-01  -2.340929999999979e-01  2.15904953e+00   7.70551930e-01  -4.97151030e-01
C     2.356574760842214e+00   5.541210089021656e-01  -3.891915000000026e-01 -9.89117340e-01  -1.64603001e+00   1.05637776e+00
