26
Lattice="8.88768389401873 1.33226762955019e-15 0 4.44384194700937 7.69696003302603 0 0 0 30 " PBC="1 1 1" Properties=species:S:1:pos:R:3:force:R:3 Energy="-209.03945035"
C     7.631156479749590e-02   1.014760283091173e-01   3.508312500000000e+00 -1.34564680e-01   1.05154955e+00   5.90478060e-01
C     6.892997580204947e+00   7.211583649909776e+00   3.529548300000000e+00 -4.60104700e-01  -2.15208550e-01   4.21140910e-01
C     8.248087767371793e+00   7.528547773637989e+00   3.559281600000000e+00  1.48908410e-01   3.40828170e+00  -1.93846870e-01
C     9.286438897455525e+00   6.608775520337845e+00   3.561783900000000e+00  9.70823450e-01  -2.08067919e+00   1.45780950e-01
C     1.066075425589124e+01   7.009345024516722e+00   3.556714200000000e+00  6.86821810e-01  -1.22549300e+00  -2.56441620e-01
C     1.173372993595778e+01   6.029508158169667e+00   3.525419700000000e+00 -2.56906065e+00  -8.88026210e-01   3.60429570e-01
C     4.197741715617284e+00   6.406796513406603e+00   3.537922200000000e+00  4.72441700e-02   3.88826850e-01  -3.57034110e-01
C     5.214157508558287e+00   5.423638870624206e+00   3.524673900000000e+00  5.17661900e-01  -4.82786720e-01  -4.64973400e-02
C     6.580118799649581e+00   5.831633324265622e+00   3.543440100000000e+00 -1.10089109e+00  -5.35964760e-01  -3.38464200e-02
C     7.571420975274513e+00   4.822253601083422e+00   3.568450800000000e+00  1.26080744e+00  -6.79156220e-01  -1.51327160e-01
C     8.976038092021060e+00   5.191157042002875e+00   3.583311600000000e+00 -1.16144545e+00   8.79120900e-01  -3.16562120e-01
C     1.000066103889570e+01   4.206604710063042e+00   3.543379200000000e+00 -1.17755515e+00   9.02858500e-01   5.44648640e-01
C     1.133319975033937e+01   4.622167122684355e+00   3.546282900000000e+00  2.35739627e+00   1.37372728e+00  -4.45110610e-01
C     3.520453807721752e+00   3.685726255773644e+00   3.500541900000000e+00 -9.35522920e-01  -8.49179110e-01   3.96232260e-01
C     4.877667618092847e+00   4.026659482731279e+00   3.494952000000000e+00 -1.82088210e-01   1.38507461e+00   2.65014620e-01
C     5.853124608685364e+00   3.015393619493727e+00   3.527667900000000e+00  8.24112100e-01  -1.49506360e-01  -2.70501940e-01
C     7.220330397704904e+00   3.410380441593245e+00   3.534770700000000e+00  1.18211990e-01   1.54775428e+00   2.00676350e-01
C     8.260019968525453e+00   2.461979422431116e+00   3.538156800000000e+00  3.19105770e-01  -3.48234630e-01   2.58514250e-01
C     9.633624223363501e+00   2.847728430072228e+00   3.584499900000000e+00  6.01598500e-01  -6.88947200e-02  -7.57219920e-01
C     1.819014089048402e+00   1.908896579497797e+00   3.525531000000000e+00 -1.18763957e+00  -1.06244650e-01   7.20974540e-01
C     3.189944084253564e+00   2.311880081250882e+00   3.552528300000000e+00 -1.26740730e+00  -1.22492806e+00  -4.84520150e-01
C     4.136031945600059e+00   1.264260937004437e+00   3.539914800000000e+00  1.18982337e+00  -8.15336570e-01   7.95613100e-02
C     5.509766404992337e+00   1.627292674995406e+00   3.521410800000000e+00 -3.71893000e-02   7.06513960e-01   1.47867480e-01
C     6.553949188832664e+00   6.646809894386889e-01   3.530209500000000e+00  3.32129000e-03   9.92018760e-01   6.76005400e-02
C     7.913245961294790e+00   1.092054849043640e+00   3.534175200000000e+00  6.14897840e-01  -1.21365881e+00  -2.39906250e-01
C     1.436491684173368e+00   5.471971315375789e-01   3.557935800000000e+00  5.52734720e-01  -1.75242884e+00  -6.46104970e-01
