26
Lattice="8.88768389401873 1.33226762955019e-15 0 4.44384194700937 7.69696003302603 0 0 0 30 " PBC="1 1 1" Properties=species:S:1:pos:R:3:force:R:3 Energy="-208.85031182"
C     1.285825889443163e+01   7.163028224226124e+00   4.855710000000000e-02  1.64833481e+00   3.17091700e-02   1.04034600e-02
C     9.113747689075668e+00   6.975117643868116e+00  -1.045596000000018e-01  7.85602990e-01  -2.23407870e-01   2.99750130e-01
C     1.051522767510490e+01   6.580114196334934e+00  -1.484337000000018e-01 -2.10658541e+00  -2.42420680e-01  -2.86183680e-01
C     1.081557935230591e+01   5.207261391473645e+00  -1.796469000000016e-01  1.57047874e+00  -4.40979840e-01   4.15463910e-01
C     6.754647937210047e+00   6.374418327405205e+00   1.141416000000000e-01 -1.21016728e+00   3.60997190e-01  -2.23149040e-01
C     8.096154187851955e+00   5.971772414319035e+00  -1.103376000000011e-01  1.56852010e-01   1.28502700e+00   5.03051220e-01
C     8.445518864290525e+00   4.618224354908988e+00  -1.897313999999994e-01  5.03129520e-01  -1.02101507e+00   1.55490770e-01
C     9.824836832847492e+00   4.233838017071588e+00  -1.644638999999977e-01 -1.10704201e+00  -1.23410832e+00   1.47367170e-01
C     1.015269042574815e+01   2.838963362898864e+00   7.700400000000000e-03 -3.98946010e-01  -4.81627600e-02   3.41932200e-02
C     4.314157309281320e+00   5.791585579411930e+00   3.413550000000000e-02  8.60293000e-01  -5.30725870e-01   1.33583710e-01
C     5.704995982529005e+00   5.422418671550650e+00   9.598980000000000e-02 -4.42116400e-02  -2.25948652e+00  -8.63404310e-01
C     6.053909342316043e+00   3.970966204194207e+00  -5.476589999999959e-02  4.82722610e-01   2.16983501e+00   6.79194040e-01
C     7.455426434450635e+00   3.614625279618117e+00  -1.397052000000016e-01 -1.64081423e+00  -1.25410748e+00   3.69240750e-01
C     7.765933401422238e+00   2.189097328186719e+00  -6.295439999999886e-02  2.30019970e-01   1.73059298e+00  -6.27605600e-02
C     9.133076665097743e+00   1.833062434741422e+00   5.584200000000000e-02  1.08653630e-01  -2.03326910e-01  -1.47774560e-01
C     3.299496610421650e+00   4.781469565033260e+00  -6.725159999999875e-02  2.75956100e-02   1.53715785e+00   1.48570870e-01
C     3.639854330259404e+00   3.438676775751533e+00   4.110330000000000e-02  9.78387840e-01  -2.08427264e+00   1.55464200e-01
C     5.033779740516216e+00   3.001330888670915e+00   5.013300000000000e-02 -3.46545570e-01   4.04403610e-01  -4.18107180e-01
C     5.407078060878984e+00   1.612092333480160e+00   2.583690000000000e-02 -2.68520942e+00   9.62269140e-01   2.15891000e-02
C     6.722573838051735e+00   1.226719245366913e+00  -5.035140000000027e-02  1.83474110e+00  -5.71447090e-01  -4.64283800e-02
C     1.152252270590237e+01   7.531171898221016e+00  -8.878260000000182e-02 -2.47096920e-01   1.63839244e+00   4.24315560e-01
C     2.617989585907314e+00   2.428371339186524e+00   1.253115000000000e-01  4.14086260e-01   9.01439200e-01  -4.01838700e-01
C     2.965966983757740e+00   1.059806510757947e+00   1.832541000000000e-01  2.37054640e-01  -5.86408150e-01  -9.34632600e-02
C     4.346003521542351e+00   6.525429604409793e-01   6.293520000000000e-02 -4.01947730e-01  -1.90664740e-01  -1.32938470e-01
C     5.946684857973370e-01   4.437409063215435e-01   1.704324000000000e-01 -1.98946910e+00   4.51065170e-01  -3.31971420e-01
C     1.922920533470701e+00   6.666952838785400e-02   2.296050000000000e-01  2.34008261e+00  -5.82354790e-01  -4.89658540e-01
