26
Lattice="8.88768389401873 1.33226762955019e-15 0 4.44384194700937 7.69696003302603 0 0 0 30 " PBC="1 1 1" Properties=species:S:1:pos:R:3:force:R:3 Energy="-208.64261169"
C     1.220353521749386e+01   6.511135425998879e+00  -1.301300999999988e-01  2.86339335e+00  -8.13342380e-01  -3.31531100e-01
C     8.468358613173711e+00   6.263812857834904e+00  -2.782083000000029e-01  6.91209640e-01   7.11232850e-01   1.33311190e-01
C     9.857677847964544e+00   5.865370408560318e+00  -2.733501000000018e-01 -1.38348478e+00   2.38510021e+00   1.26214970e-01
C     1.013897410873501e+01   4.525945732018119e+00  -2.291276999999994e-01  3.25265959e+00  -8.17887660e-01   3.12675990e-01
C     6.083822798874596e+00   5.720181496970424e+00  -2.404520999999988e-01  9.80576200e-02  -2.38423661e+00   4.75223490e-01
C     7.459716209471694e+00   5.271459272056664e+00  -2.657381999999977e-01 -8.47488220e-01   1.38179478e+00   1.60022570e-01
C     7.790180292903928e+00   3.906454518550763e+00  -1.943543999999982e-01  7.92517330e-01  -1.02564020e-01  -7.03479740e-01
C     9.194092793595534e+00   3.542383998834147e+00  -2.494571999999984e-01 -2.83092365e+00  -1.68316218e+00   4.19338000e-01
C     9.518661898484986e+00   2.160993571968381e+00  -2.142248999999978e-01 -3.60916600e-02  -4.43314000e-03   8.24239100e-02
C     3.659379284148749e+00   5.127664818715405e+00  -7.132469999999813e-02  5.56709020e-01  -8.53811300e-01  -1.49061300e-02
C     5.053289007660664e+00   4.716748368137799e+00  -7.351560000000035e-02 -6.53317170e-01   1.96051370e-01  -6.73289960e-01
C     5.379341022594299e+00   3.315557049777256e+00  -8.591849999999823e-02  5.90917940e-01   2.32840130e-01   1.70040130e-01
C     6.770661674942469e+00   2.951209516469160e+00  -1.678044000000014e-01 -9.46362590e-01  -2.81180679e+00   5.68193090e-01
C     7.111952868128165e+00   1.468293877719685e+00  -1.407452999999990e-01 -8.11722300e-01   4.58370428e+00  -6.49694380e-01
C     8.460293170060192e+00   1.185967844427279e+00  -2.172696000000016e-01  2.23162426e+00  -1.87073947e+00   4.05550180e-01
C     2.630720705361169e+00   4.127927308271586e+00  -8.578920000000068e-02  9.59444710e-01   1.29190180e-01  -7.10320200e-02
C     3.009932712832111e+00   2.740914713921506e+00  -2.195850000000021e-02 -2.17876470e-01   5.84315070e-01  -4.34709380e-01
C     4.349173759455415e+00   2.298924866006788e+00  -2.509739999999994e-02  1.67324908e+00   1.21393845e+00   5.37116000e-03
C     4.725328403674372e+00   9.214175554761564e-01  -7.443299999999908e-02 -3.78732010e-01   7.39376910e-01  -6.59907380e-01
C     6.089586147435013e+00   5.273323552745530e-01  -1.918428000000034e-01 -6.24616480e-01   1.21027610e-01   5.95089150e-01
C     1.089036263643206e+01   6.866526776616068e+00  -2.293053000000000e-01 -2.40470591e+00  -3.16560340e-01   1.82515650e-01
C     2.016582813549473e+00   1.765326030723810e+00  -1.328712000000003e-01 -1.99251465e+00  -3.82003820e-01  -1.29257720e-01
C     2.337232449852628e+00   3.980889279004084e-01  -1.943048999999988e-01 -6.62634230e-01  -1.53448083e+00  -2.09606580e-01
C     8.128444077736033e+00   7.672646718718035e+00  -1.783445999999991e-01  3.40617580e-01  -1.31837914e+00  -9.60750500e-02
C     4.384930514892075e+00   7.477577195836123e+00  -1.786913999999982e-01 -8.84259660e-01   4.26425620e-01  -3.92453950e-01
C     5.734981829202513e+00   7.063369371210490e+00  -2.743634999999998e-01  6.24329680e-01   2.18841021e+00   7.29973890e-01
