26
Lattice="8.88768389401873 1.33226762955019e-15 0 4.44384194700937 7.69696003302603 0 0 0 30 " PBC="1 1 1" Properties=species:S:1:pos:R:3:force:R:3 Energy="-208.95172818"
C     4.278824321460578e-01   4.997186645013247e-01   3.340376700000000e+00  1.95625940e-01   1.02372332e+00   3.16112350e-01
C     7.269821557056680e+00   7.618264617322073e+00   3.330898500000000e+00 -9.74989050e-01  -5.92471800e-02  -3.36696050e-01
C     4.175827927208945e+00   3.412552677652911e-01   3.319330800000000e+00  4.13481520e-01  -1.26350939e+00   5.54893280e-01
C     9.633288004996711e+00   7.026817662572024e+00   3.420345900000000e+00  1.47642630e-01   5.47923000e-03  -9.60485640e-01
C     1.099823712219015e+01   7.407050797746837e+00   3.388308300000000e+00  5.37895050e-01  -5.39978440e-01   6.13566920e-01
C     1.204334426957098e+01   6.409836273831251e+00   3.407887200000000e+00 -3.07539000e-03   9.90002890e-01  -2.03849180e-01
C     4.520790983315024e+00   6.860204108799424e+00   3.358940700000000e+00 -8.39364560e-01  -2.29115778e+00   4.00013350e-01
C     5.512840968658097e+00   5.844105401328634e+00   3.392358900000000e+00  7.02417190e-01  -2.63118020e-01  -7.05694070e-01
C     6.890786146071090e+00   6.244311608994095e+00   3.299631300000000e+00  7.65886190e-01  -1.29005981e+00   1.03955176e+00
C     7.924687968210979e+00   5.211778660345651e+00   3.367078200000000e+00  3.66902680e-01   1.88449027e+00  -8.16561610e-01
C     9.313697734389201e+00   5.645283533462497e+00   3.355869600000000e+00 -8.65167410e-01  -1.00349237e+00   3.47197560e-01
C     1.033778226535609e+01   4.633492275733297e+00   3.344642400000000e+00  6.34096360e-01   1.22931476e+00   5.32473660e-01
C     1.173434518522577e+01   5.029996553502729e+00   3.412619100000000e+00 -1.71400965e+00  -1.21897650e-01  -2.10111930e-01
C     3.824948346552230e+00   4.005286179271974e+00   3.432954900000000e+00  3.63176480e-01   2.11372372e+00  -7.61407660e-01
C     5.173729922457788e+00   4.444002894933935e+00   3.390928200000000e+00  1.36776874e+00  -1.29520040e-01   8.24174770e-01
C     6.248993114604895e+00   3.465648001271057e+00   3.450942900000000e+00 -1.47108909e+00   5.71341850e-01  -1.46540524e+00
C     7.588096491538641e+00   3.845534465366119e+00   3.330742500000000e+00  1.29302707e+00   2.60146400e-02   1.30870868e+00
C     8.636298419332590e+00   2.857223015117234e+00   3.405461700000000e+00 -4.10671390e-01   3.47591390e-01  -6.04833680e-01
C     1.000623659345722e+01   3.265084619228533e+00   3.367445100000000e+00 -1.09711594e+00  -2.93600950e-01  -5.87392490e-01
C     2.114797942238777e+00   2.267292361493096e+00   3.256333800000000e+00 -1.10624110e-01   3.27177610e-01   1.01610641e+00
C     3.451792271805056e+00   2.677396936726737e+00   3.297344100000000e+00  1.77030535e+00  -1.50503292e+00   3.21261390e-01
C     4.512217386820934e+00   1.698988318282849e+00   3.326424000000000e+00  6.42778940e-01   9.49601130e-01  -3.05361060e-01
C     5.918157835286133e+00   2.107680655290186e+00   3.345078600000000e+00 -1.52807616e+00  -1.56169076e+00   1.14331195e+00
C     6.911910167591939e+00   1.076874596594072e+00   3.442173900000000e+00  4.85901430e-01   9.92504570e-01  -1.03244735e+00
C     8.296687352050078e+00   1.477825177264035e+00   3.392408100000000e+00 -6.69616250e-01   2.64871080e-01   2.26348080e-01
C     1.790745254436310e+00   9.001851063853998e-01   3.338155500000000e+00 -3.10657000e-03  -4.03531170e-01  -6.53474210e-01
