26
Lattice="8.88768389401873 1.33226762955019e-15 0 4.44384194700937 7.69696003302603 0 0 0 30 " PBC="1 1 1" Properties=species:S:1:pos:R:3:force:R:3 Energy="-208.93541973"
C     1.255842763445626e+01   6.835558288844163e+00  -8.279220000000009e-02  1.90459083e+00   6.99379900e-02   6.10805630e-01
C     8.846017499040180e+00   6.655266159523848e+00  -3.453300000000326e-03 -8.63487590e-01  -6.81603000e-02  -2.63210500e-01
C     1.018955347449083e+01   6.253180662097463e+00  -6.210959999999943e-02 -2.03005220e-01   8.83289820e-01   1.27397300e-01
C     1.049741133402062e+01   4.915188004968846e+00  -7.872659999999954e-02  2.03237233e+00  -2.59211018e+00  -1.99920850e-01
C     6.441876698320385e+00   6.057625999824861e+00   2.919240000000000e-02 -5.82072130e-01  -1.13107060e-01  -7.95819750e-01
C     7.839781302439534e+00   5.668166595631687e+00  -3.322560000000152e-02 -1.94331912e+00   1.47533790e-01   6.38121040e-01
C     8.133824234980839e+00   4.289055700448406e+00  -2.731950000000083e-02  1.32263328e+00  -3.79112820e-01  -5.24322060e-01
C     9.527099022362851e+00   3.889219639590788e+00  -5.035200000000017e-02 -1.50587638e+00   7.08497950e-01   2.41461650e-01
C     9.842931578437462e+00   2.524165933419097e+00  -1.320570000000032e-02  8.74343640e-01  -7.90904440e-01  -1.23252880e-01
C     4.018233519513077e+00   5.440853891427304e+00  -1.024338000000000e-01  8.39264450e-01   1.75291492e+00  -7.92208900e-02
C     5.384475927537798e+00   5.066818271499047e+00  -8.399969999999968e-02  1.29402135e+00  -5.45024100e-02  -1.01151220e-01
C     5.756917430743503e+00   3.690437565008007e+00  -1.946300999999977e-01 -1.24293060e-01  -7.18887340e-01   9.29121840e-01
C     7.128296697861474e+00   3.311671624354112e+00  -1.125797999999989e-01 -3.01575710e-01  -1.78395545e+00   3.93695600e-02
C     7.489872385324338e+00   1.859178143153612e+00  -8.322210000000041e-02 -2.12568986e+00   3.05706031e+00  -2.38554250e-01
C     8.822336261984336e+00   1.527646368024620e+00  -1.439219999999963e-02  1.07682722e+00  -3.95767080e-01   1.41682020e-01
C     3.007395502410155e+00   4.490497844417557e+00  -1.409510999999988e-01 -1.12809577e+00  -2.06768270e-01   2.00315180e-01
C     3.368160988670136e+00   3.131183607401034e+00  -1.359408000000002e-01 -4.07392660e-01  -2.44689893e+00   4.66804530e-01
C     4.742499676708860e+00   2.658607271840701e+00  -1.374551999999980e-01 -5.15944150e-01   1.77886260e+00  -4.04917950e-01
C     5.075216965751654e+00   1.279386079220190e+00  -8.825370000000277e-02  2.15780290e-01   9.62196210e-01  -8.03179200e-02
C     6.452328522347204e+00   8.991521743493738e-01  -1.143575999999982e-01 -3.51954520e-01  -3.47963490e-01   4.15457490e-01
C     1.122411240883061e+01   7.208745318929114e+00  -7.397520000000313e-02 -4.67332310e-01   1.17471920e+00  -2.86825000e-01
C     2.324930518865542e+00   2.103237200264867e+00  -2.756519999999796e-02  7.22740010e-01   1.55904503e+00  -3.72980850e-01
C     2.694278219320449e+00   7.442680949360911e-01  -3.828299999998563e-03 -1.88797308e+00  -1.00639802e+00   2.45830920e-01
C     4.031508605231112e+00   3.235107730817294e-01  -1.083510000000132e-02  9.06068160e-01   6.43962900e-02  -1.81168080e-01
C     2.718716284313740e-01   1.585905505157293e-01   2.318730000000000e-02 -4.92006330e-01  -1.57875649e+00  -6.00467220e-01
C     6.062717972510152e+00   7.438154598076069e+00   2.715990000000000e-02  1.71137637e+00   3.24838180e-01   1.95762250e-01
