26
Lattice="8.88768389401873 1.33226762955019e-15 0 4.44384194700937 7.69696003302603 0 0 0 30 " PBC="1 1 1" Properties=species:S:1:pos:R:3:force:R:3 Energy="-208.75884391"
C     1.296540427871541e+01   7.201095079446495e+00  -2.354520000000093e-02 -1.31628140e+00   1.41636020e+00   3.77510640e-01
C     9.159200193294371e+00   7.031850704735641e+00   1.452603000000000e-01 -5.16592220e-01  -7.40908050e-01  -4.97010820e-01
C     1.050072373046783e+01   6.608244507065375e+00   1.431702000000000e-01  2.23851421e+00   1.40098561e+00   1.68713100e-01
C     1.090881799985114e+01   5.241946356396034e+00   1.735998000000000e-01 -1.61054215e+00  -3.16279980e-01  -2.01945770e-01
C     6.760214782497560e+00   6.443063742402360e+00   2.240760000000000e-02  9.77646560e-01  -2.09181571e+00  -3.59460940e-01
C     8.124483902483620e+00   6.033647583273802e+00   1.063911000000000e-01  5.01249620e-01   2.14603280e-01   5.30065060e-01
C     8.486809577195505e+00   4.648829700106677e+00   2.021745000000000e-01 -9.53372510e-01   1.47631930e-01  -3.77335580e-01
C     9.834662878409329e+00   4.244201511934381e+00   2.241306000000000e-01  1.56700033e+00   3.89984100e-01  -4.67560960e-01
C     1.018972544897485e+01   2.867671715327559e+00   9.105479999999999e-02  8.69028430e-01   1.14872260e+00  -3.94428870e-01
C     4.421222971043013e+00   5.833349130595511e+00  -8.076599999998990e-03 -1.08458239e+00  -7.67887850e-01  -7.67042600e-02
C     5.760682876878583e+00   5.385929924045230e+00  -1.224630000000104e-02  2.36478190e-01   4.09619706e+00   1.71761850e-01
C     6.114022569967794e+00   4.079852249863406e+00   2.856090000000000e-02 -6.33010140e-01  -2.79048319e+00  -4.86353000e-03
C     7.444363001129828e+00   3.651393272833426e+00   1.197408000000000e-01  1.72158445e+00   8.59945420e-01   1.24318120e-01
C     7.829386087417035e+00   2.295239407605223e+00   9.390419999999999e-02 -1.04867253e+00  -4.98950400e-01  -3.73812290e-01
C     9.182934083211064e+00   1.897579893104888e+00   1.286760000000000e-02 -2.41808930e-01  -5.85689820e-01   3.39909870e-01
C     3.377694008413098e+00   4.864091197022489e+00   4.469310000000000e-02  2.62390860e-01  -1.17267896e+00   4.24118200e-02
C     3.728629893997097e+00   3.431932930282048e+00  -2.771849999999887e-02 -1.11128534e+00   3.25958456e+00   1.44284150e-01
C     5.075589583072825e+00   3.086762141979896e+00  -2.380229999999983e-02  6.12559660e-01  -9.23193840e-01   1.55184140e-01
C     5.380219035839751e+00   1.705289588550609e+00   2.887290000000000e-02  2.47678533e+00  -2.00238780e-01  -5.14140300e-02
C     6.807832456447670e+00   1.297490098906753e+00   5.228280000000000e-02 -1.70837890e+00   9.78498750e-01   2.64652430e-01
C     1.156501565585976e+01   7.642768043516779e+00   8.169839999999999e-02  3.13370820e-01  -2.66426895e+00  -3.74665840e-01
C     2.680256788177597e+00   2.520896033889552e+00  -6.332069999999845e-02 -3.88385780e-01  -2.72704555e+00   4.03749270e-01
C     3.026872103994187e+00   1.091870737759722e+00  -9.419400000000167e-02 -9.18052600e-02   1.43729488e+00   3.64921720e-01
C     4.379500802218508e+00   7.149219723993103e-01   2.962320000000000e-02  1.63070920e-01  -1.46166820e-01  -1.31232570e-01
C     6.202794579379789e-01   5.224354723338668e-01  -7.029299999999949e-02  1.52924098e+00  -9.09333330e-01  -6.82828000e-03
C     2.036830645029829e+00   1.012398855753969e-01  -8.968439999999944e-02 -2.76420284e+00   1.18513282e+00   2.29781550e-01
