26
Lattice="8.88768389401873 1.33226762955019e-15 0 4.44384194700937 7.69696003302603 0 0 0 30 " PBC="1 1 1" Properties=species:S:1:pos:R:3:force:R:3 Energy="-208.49755924"
C     1.312393878466305e+01   7.471371059994334e+00  -1.810517999999988e-01  1.53262931e+00  -1.31551825e+00  -7.31894730e-01
C     9.395702394967895e+00   7.268634056439338e+00  -1.956747000000014e-01 -3.06468070e-01   1.24847022e+00   2.89651560e-01
C     1.075240720720493e+01   6.874233280876505e+00  -9.156929999999974e-02 -3.20717030e-01   5.65527430e-01  -1.42464720e-01
C     1.109122238062782e+01   5.533112117374094e+00  -1.015559999999986e-01  1.09256149e+00  -2.80532751e+00  -1.35729970e-01
C     6.985727051963279e+00   6.666169827041548e+00  -3.885446999999971e-01  5.82014400e-02   9.24424880e-01   9.08081720e-01
C     8.380384718558696e+00   6.325668168632793e+00  -2.362301999999978e-01 -1.56538750e+00  -2.19379033e+00  -6.85040390e-01
C     8.684932893437182e+00   4.914535610636704e+00  -2.153291999999993e-01  2.09309902e+00   4.53012310e-01   8.19591690e-01
C     1.009711000689870e+01   4.487382730754215e+00  -1.555038000000017e-01 -1.72051847e+00   2.76262018e+00  -3.54664190e-01
C     1.039026768171441e+01   3.151794065151767e+00  -2.920049999999996e-01  1.03580491e+00  -2.38025933e+00  -1.65443630e-01
C     4.601580295968011e+00   6.032580322796043e+00  -1.904582999999995e-01  2.92528030e-01   3.31770499e+00  -1.29270950e-01
C     5.955392967014095e+00   5.674652515970568e+00  -2.814776999999999e-01  1.17921091e+00   3.80724200e-02   2.37364110e-01
C     6.325035249750567e+00   4.314193664027985e+00  -1.741665000000019e-01 -3.31031310e-01  -1.14478326e+00  -5.84467910e-01
C     7.699461525976048e+00   3.937090805527772e+00  -1.411896000000006e-01 -5.57561190e-01  -1.79055061e+00  -7.91734510e-01
C     8.072571916225941e+00   2.490863573426896e+00  -1.989641999999989e-01 -3.28632418e+00   2.53138588e+00   5.76997150e-01
C     9.376345727130483e+00   2.127520878250716e+00  -2.990124000000023e-01  1.89728862e+00   5.40736190e-01  -3.16599740e-01
C     3.604494992044633e+00   5.089916463701075e+00  -1.335662999999983e-01 -2.38223125e+00  -2.98734350e-01   2.93241080e-01
C     3.914625343444719e+00   3.715684979359212e+00  -1.685099999999977e-01 -3.27302460e-01  -1.39878853e+00  -1.43391176e+00
C     5.290052195094947e+00   3.296113220258271e+00  -2.523720000000012e-01 -2.73427890e-01   1.73992608e+00   1.15896327e+00
C     5.608342329087835e+00   1.942497273660760e+00  -1.946990999999976e-01  1.54936843e+00  -9.52524540e-01   6.22480800e-02
C     7.019873041317569e+00   1.542340711387493e+00  -1.351088999999988e-01 -1.34049177e+00  -1.46591190e-01  -3.10219100e-01
C     7.331084623891161e+00   1.525123381496386e-01  -1.098767999999986e-01  2.34886950e-01   8.40018480e-01  -3.87574000e-03
C     2.862182567107177e+00   2.704879317361853e+00  -3.700235999999997e-01  1.27735942e+00   2.38149961e+00   8.95306830e-01
C     3.258505854650399e+00   1.367960078279020e+00  -4.547939999999997e-01 -2.44456920e+00  -1.73648278e+00   9.82952220e-01
C     4.575623367485194e+00   9.558536007111758e-01  -2.316995999999989e-01  1.65512190e+00  -2.98811300e-02  -7.14160780e-01
C     8.331748602440250e-01   7.666814116346502e-01  -3.821162999999999e-01 -6.26166440e-01  -1.32898520e+00   8.91020930e-01
C     2.179529342441895e+00   3.547481926370817e-01  -4.185719999999975e-01  1.58413634e+00   1.78818350e-01  -6.15940500e-01
