26
Lattice="8.88768389401873 1.33226762955019e-15 0 4.44384194700937 7.69696003302603 0 0 0 30 " PBC="1 1 1" Properties=species:S:1:pos:R:3:force:R:3 Energy="-208.29590152"
C     1.253342529088298e+01   6.717726066532095e+00  -8.794860000000071e-02 -2.60370279e+00   1.27678467e+00   9.80775110e-01
C     8.685210856807540e+00   6.541208911258495e+00   1.696938000000000e-01 -2.76867460e-01  -1.43508525e+00  -9.97478490e-01
C     1.003770290687669e+01   6.140611621053909e+00   1.077027000000000e-01  1.87905480e+00  -2.22287090e-01   3.87579380e-01
C     1.044286295184957e+01   4.754966314683560e+00   1.176600000000000e-01 -2.26525790e+00  -2.72268350e-01  -6.27906660e-01
C     6.308930145463405e+00   5.945010469142726e+00   6.690090000000000e-02 -1.14505770e-01  -1.55500885e+00  -4.08411450e-01
C     7.668586068674773e+00   5.515321363960752e+00   1.078941000000000e-01 -1.53199070e-01   7.45464680e-01   2.87520540e-01
C     7.987631611331953e+00   4.118698268347615e+00   6.647400000000001e-02  8.92590520e-01   1.12893653e+00   1.21910220e-01
C     9.357097982248169e+00   3.742840085253853e+00   1.190346000000000e-01  1.57749995e+00   1.08162717e+00  -9.33560600e-02
C     9.746675695454389e+00   2.377952094631608e+00   9.158460000000000e-02  7.79666180e-01   2.19191913e+00  -2.72792170e-01
C     3.955094968714604e+00   5.348926172944203e+00  -1.652141999999976e-01 -1.10634861e+00  -4.49085690e-01   9.52254010e-01
C     5.271657401233776e+00   4.908692001612327e+00  -4.526910000000228e-02  1.82619359e+00   3.29681061e+00  -2.46899140e-01
C     5.647375171389582e+00   3.590391785811664e+00  -5.630280000000099e-02 -8.63807110e-01  -1.95385768e+00  -4.92253000e-03
C     6.960366043695421e+00   3.144438388329497e+00  -3.118860000000012e-02  2.06381082e+00   1.56718438e+00   4.80773560e-01
C     7.369174349632224e+00   1.823963781320359e+00   8.928000000000000e-04 -9.42470530e-01  -2.10132725e+00  -1.55527650e-01
C     8.750534308003305e+00   1.442607505737968e+00   1.375470000000000e-02 -1.91245265e+00  -2.27320097e+00   5.79987080e-01
C     2.901212209866678e+00   4.389648887442083e+00  -6.885720000000006e-02  5.35253440e-01  -1.54921369e+00  -4.70210900e-01
C     3.269388735725378e+00   2.951243844910894e+00  -1.584305999999991e-01  3.89240000e-02   3.02047894e+00   1.63760677e+00
C     4.655072196825847e+00   2.607229678792450e+00  -6.703649999999683e-02 -1.88914650e+00  -2.68261174e+00  -1.13583196e+00
C     4.946695501820535e+00   1.157332690088469e+00  -8.647589999999994e-02  8.04967060e-01   2.44835286e+00   9.83565140e-01
C     6.328329289754794e+00   8.106532206508366e-01   2.169990000000000e-02  3.35621160e-01  -1.01169926e+00  -3.62728850e-01
C     1.110129657133703e+01   7.103126940671051e+00   6.093300000000000e-02  1.06950303e+00   5.32678940e-01  -8.19659740e-01
C     2.230909799567811e+00   2.055307383492454e+00   3.896580000000000e-02  1.66913240e-01  -3.72801207e+00  -6.80710630e-01
C     2.555082913654742e+00   6.018711786274787e-01   3.301770000000000e-02 -6.67630700e-02   2.09148061e+00   6.24253600e-02
C     3.896764073919111e+00   2.046229896711473e-01   2.617800000000000e-03  9.06919960e-01   1.84916970e-01   4.08611950e-01
C     1.749336601691390e-01   4.466784511169930e-02   3.526170000000000e-02  6.71591340e-01  -5.01733030e-01  -7.04940690e-01
C     5.997979994104382e+00   7.323976507538243e+00   5.734830000000000e-02 -1.35398763e+00   1.68755440e-01   9.83677900e-02
