26
Lattice="8.88768389401873 1.33226762955019e-15 0 4.44384194700937 7.69696003302603 0 0 0 30 " PBC="1 1 1" Properties=species:S:1:pos:R:3:force:R:3 Energy="-208.61791345"
C     1.912390940314444e-01   2.307380053569343e-01   3.535118400000000e+00  3.72155130e-01   2.35452100e+00   1.24499030e-01
C     7.073560699388366e+00   7.315295029350806e+00   3.676839900000000e+00 -3.92457020e-01   1.70154048e+00   4.27529860e-01
C     4.007560296434052e+00   5.987372843816640e-02   3.749474400000000e+00 -1.70545721e+00   7.92725000e-01  -4.12611930e-01
C     9.432529401612516e+00   6.772974460779434e+00   3.800693100000000e+00  4.11093890e-01  -1.87762250e-01  -8.46649440e-01
C     1.076518578597784e+01   7.168448577418451e+00   3.597263700000000e+00  1.90185082e+00  -5.86499740e-01   3.06074800e-02
C     1.182870123755248e+01   6.179829941494769e+00   3.501346500000000e+00 -1.24566485e+00   2.15198220e-01   5.94092550e-01
C     4.299024294880640e+00   6.592689566601548e+00   3.460117200000000e+00 -1.11723210e-01  -1.79141900e+00   6.06865500e-02
C     5.319762257365005e+00   5.595393839757645e+00   3.489889500000000e+00  1.10931148e+00  -5.08092650e-01   1.05523530e-01
C     6.730436863932833e+00   5.947689396081167e+00   3.678606900000000e+00 -2.38811168e+00   1.16458060e+00  -8.49449180e-01
C     7.718480814672304e+00   4.982355372731441e+00   3.711787500000000e+00  1.86902371e+00   1.14613433e+00   4.44577260e-01
C     9.082589290315186e+00   5.409033427149679e+00   3.790003200000000e+00 -7.67273400e-02  -3.43439260e-01   1.68392980e-01
C     1.011254555855091e+01   4.443527684621682e+00   3.773457899999999e+00  6.57588800e-02  -7.17090730e-01  -2.97971450e-01
C     1.147082509111151e+01   4.806411256132074e+00   3.627092100000000e+00  1.69585108e+00  -4.75490830e-01  -6.94245310e-01
C     3.626160498206226e+00   3.770564843160314e+00   3.487427400000000e+00 -6.09691370e-01   1.80335102e+00   6.56213220e-01
C     5.013909857489658e+00   4.198021829933589e+00   3.403822200000000e+00 -1.24503084e+00   6.97099080e-01   9.43771920e-01
C     6.062499866033381e+00   3.260075514610609e+00   3.520857300000000e+00 -5.66911950e-01  -4.96371170e-01  -3.47157590e-01
C     7.409818618015962e+00   3.650266283945834e+00   3.645034800000000e+00 -9.43533100e-01  -1.51062735e+00  -4.20855450e-01
C     8.390304615668784e+00   2.651294159207397e+00   3.639755400000000e+00  1.40490123e+00  -4.27893280e-01   3.13996190e-01
C     9.762466088367468e+00   3.075404892607629e+00   3.748141800000000e+00  2.85288900e-01  -2.81651078e+00  -3.30329360e-01
C     1.887710508522922e+00   1.991367274100838e+00   3.718277700000000e+00  4.90459700e-02   2.06687546e+00  -2.72733220e-01
C     3.263290006693425e+00   2.417636850850284e+00   3.642295500000000e+00  5.93496840e-01  -9.73540880e-01  -4.16564480e-01
C     4.329741949038070e+00   1.448645309063902e+00   3.611425200000000e+00  4.38872690e-01   5.23497710e-01   1.93740250e-01
C     5.738457354628723e+00   1.892591339370245e+00   3.519327900000000e+00 -2.57357860e+00  -1.89770067e+00   3.28339230e-01
C     6.686045279256249e+00   8.358557617250670e-01   3.508659600000000e+00  9.44128550e-01   1.42320568e+00   3.63374710e-01
C     8.061634642755582e+00   1.261677837218369e+00   3.540364800000000e+00  1.98849610e-01  -9.88583470e-01  -4.48333600e-02
C     1.564212012242592e+00   6.137554388529994e-01   3.632408400000000e+00  5.19258410e-01  -1.67706530e-01   1.78056020e-01
