26
Lattice="8.88768389401873 1.33226762955019e-15 0 4.44384194700937 7.69696003302603 0 0 0 30 " PBC="1 1 1" Properties=species:S:1:pos:R:3:force:R:3 Energy="-208.50913659"
C     1.223567485996833e+01   6.497974855861184e+00  -1.477581000000008e-01  3.75786790e-01  -1.23947953e+00  -2.83410220e-01
C     8.545860016629234e+00   6.330270104065131e+00  -2.511201000000014e-01 -2.57602869e+00   7.60992010e-01   3.52053660e-01
C     9.853394295429602e+00   5.913248193882928e+00  -1.804868999999982e-01  1.94756784e+00   2.99625660e-01  -2.65156040e-01
C     1.018646478102699e+01   4.529106026836836e+00  -1.946183999999995e-01  1.01227884e+00   3.33885460e-01   2.14991670e-01
C     6.133135446357488e+00   5.713282788665135e+00  -1.301589000000014e-01 -1.25326276e+00   6.40295690e-01   1.22235080e-01
C     7.491057382491199e+00   5.359459231836457e+00  -1.792758000000028e-01  1.26594808e+00  -7.49936680e-01  -6.71718220e-01
C     7.888854470198469e+00   3.996352548673955e+00  -2.681937000000012e-01 -3.93527495e+00  -2.30302390e+00   1.12491139e+00
C     9.190990325339019e+00   3.538361798431270e+00  -2.023724999999992e-01  4.33722640e-01   1.76547490e-01  -2.43050700e-01
C     9.533489043766261e+00   2.162944135579183e+00  -1.633865999999990e-01 -1.10737965e+00  -1.56771948e+00  -7.61063610e-01
C     3.685009764689451e+00   5.104638593089657e+00  -1.869423000000019e-01  1.20623249e+00   5.32241250e-01   4.70234910e-01
C     5.098019476409488e+00   4.726291059182993e+00  -1.488326999999998e-01 -1.08647587e+00   1.48283460e-01   4.22422630e-01
C     5.423746513203632e+00   3.358883622634128e+00  -7.199370000000016e-02 -3.26240640e-01  -1.24864736e+00  -1.85308094e+00
C     6.789972167909886e+00   2.931992901210261e+00  -1.903758000000018e-01  3.41103930e-01   3.40924069e+00   2.42339240e-01
C     7.080783405298694e+00   1.591621960401974e+00  -1.863062999999983e-01  3.19807018e+00  -1.94695840e+00   2.59574980e-01
C     8.487892628068341e+00   1.129782653174689e+00  -1.727498999999995e-01 -6.58160090e-01   3.03945639e+00  -7.72289600e-02
C     2.657692692925344e+00   4.131250547734139e+00  -1.825028999999994e-01  8.23633090e-01  -5.06799540e-01  -1.84060830e-01
C     3.024588236931850e+00   2.734212509005784e+00  -2.309930999999992e-01 -1.10539385e+00   8.27270350e-01  -4.90780840e-01
C     4.359441611804448e+00   2.341650383254916e+00  -2.587152000000010e-01  2.21353636e+00   1.55834506e+00   1.25616005e+00
C     4.725718750794663e+00   9.889077337424089e-01  -2.512439999999998e-01  1.05370255e+00  -6.08044850e-01  -6.64736700e-02
C     6.129887127869520e+00   5.695110035125504e-01  -1.476278999999998e-01 -2.56264552e+00   1.23185571e+00  -5.89689130e-01
C     1.091082239584711e+01   6.914766011181687e+00  -1.466472000000003e-01 -1.57375615e+00  -1.28963358e+00  -7.87381600e-02
C     1.995438702500477e+00   1.756475681233314e+00  -2.822651999999977e-01 -4.73300300e-02  -1.14668450e-01   1.08634776e+00
C     2.333068569932020e+00   3.701588151003468e-01  -2.143742999999994e-01 -3.45123700e-02   4.90412220e-01  -3.79622110e-01
C     3.714918506337231e+00   2.155295050640570e-02  -3.073295999999992e-01 -7.71513700e-02  -1.43803226e+00   7.66889960e-01
C     4.343290960411379e+00   7.473089329351431e+00  -1.723781999999972e-01  2.58345682e+00  -1.24445560e-01   7.27990920e-01
C     5.749493328407833e+00   7.092099736944871e+00  -8.926199999999795e-02 -1.11427650e-01  -3.11061850e-01  -1.10207884e+00
