26
Lattice="8.88768389401873 1.33226762955019e-15 0 4.44384194700937 7.69696003302603 0 0 0 30 " PBC="1 1 1" Properties=species:S:1:pos:R:3:force:R:3 Energy="-209.15723612"
C     7.534542022327679e-01   8.720160029764068e-01   3.476606400000000e+00  2.14528920e-01  -8.01389100e-01  -7.09990130e-01
C     3.150185473433251e+00   2.758925292513305e-01   3.377340000000000e+00 -5.00633520e-01  -7.05041460e-01  -3.28096350e-01
C     4.506917482502943e+00   6.819017059922092e-01   3.368728200000000e+00  2.98874730e-01  -9.95094820e-01   2.08818870e-01
C     9.976651362856266e+00   7.352544159537590e+00   3.396168600000000e+00 -4.03838810e-01   9.52133300e-01   7.03300400e-02
C     6.896416978613405e+00   4.885506833761960e-02   3.464092200000000e+00  1.21614470e-01  -2.11066100e-01   1.14228400e-02
C     1.238693884054714e+01   6.766657488713213e+00   3.498330000000000e+00 -5.45342220e-01  -1.38442100e-02  -1.59032150e-01
C     4.859092938508319e+00   7.176440331017600e+00   3.500842500000000e+00 -5.23754380e-01   5.75721650e-01   1.44149580e-01
C     5.855866638990634e+00   6.204285261689287e+00   3.530292900000000e+00  9.57191010e-01  -1.77799703e+00  -4.43387460e-01
C     7.240731678180030e+00   6.568296360874472e+00   3.440600100000000e+00 -2.74719680e-01   6.21907930e-01   5.40592200e-02
C     8.249001153369727e+00   5.565145171687747e+00   3.434078100000000e+00  7.76942580e-01   1.11679799e+00   3.18398630e-01
C     9.635788287554714e+00   5.989374592211641e+00   3.404645400000000e+00 -3.16093810e-01  -1.27860487e+00   4.71656820e-01
C     1.068099617682963e+01   4.987836300999203e+00   3.499074300000000e+00 -6.96400510e-01   9.33538970e-01  -1.13632246e+00
C     3.154259724358886e+00   5.379285600268934e+00   3.469436100000000e+00  2.84226200e-02   3.30269610e-01   4.04076550e-01
C     4.160911818829347e+00   4.368534894566189e+00   3.476515800000000e+00  2.14137000e-02   2.11114208e+00   2.23193040e-01
C     5.508419745177312e+00   4.779947029369725e+00   3.531782100000000e+00  6.72752770e-01   1.45233331e+00  -2.19433200e-02
C     6.542475679803323e+00   3.820486864097293e+00   3.552243600000000e+00 -9.14888900e-02  -4.64373270e-01  -5.76209800e-02
C     7.903854525501844e+00   4.201530950980866e+00   3.541821000000000e+00  9.44866860e-01  -2.45230000e-01  -5.52506040e-01
C     8.951898830230725e+00   3.226646770534716e+00   3.477984900000000e+00 -2.60961800e-02  -6.71175360e-01  -9.00397800e-02
C     1.034439234627602e+01   3.620579493958125e+00   3.398853900000000e+00 -1.31356310e+00  -3.17901630e-01   1.19779774e+00
C     2.478704026040068e+00   2.637515754088094e+00   3.448057200000000e+00 -1.55445948e+00  -4.35067590e-01  -1.15440303e+00
C     3.805726240958749e+00   3.035675955838380e+00   3.451617600000000e+00  8.66802610e-01  -1.12458084e+00   2.07018200e-02
C     4.828926891786300e+00   2.060094892631113e+00   3.432773400000000e+00  5.42289470e-01  -5.23266540e-01   4.16532300e-02
C     6.189488426078489e+00   2.447592264743040e+00   3.505346700000000e+00  7.19812200e-01  -9.04750890e-01  -8.60375600e-02
C     7.215483586882246e+00   1.424434059471935e+00   3.498658200000000e+00  4.85861510e-01   9.94609380e-01   2.57693400e-02
C     8.603398968077821e+00   1.816601716021264e+00   3.493269000000000e+00 -4.36621650e-01   1.53821586e+00   4.63424000e-02
C     2.119930001332829e+00   1.262116410000879e+00   3.326904900000000e+00  3.16387600e-02  -1.57286370e-01   1.50100912e+00
