26
Lattice="8.88768389401873 1.33226762955019e-15 0 4.44384194700937 7.69696003302603 0 0 0 30 " PBC="1 1 1" Properties=species:S:1:pos:R:3:force:R:3 Energy="-209.00695062"
C     1.270162773051121e+01   7.021694258097654e+00  -1.969487999999977e-01  1.81400060e+00  -6.85740970e-01   2.59146550e-01
C     9.000696527641191e+00   6.809855291428783e+00  -2.678648999999993e-01  3.16188410e-01  -5.27877250e-01  -2.53465210e-01
C     1.035797628414472e+01   6.408751387315023e+00  -3.116364000000011e-01 -2.54296670e-01   3.80802980e-01  -5.19980100e-02
C     1.067727041534167e+01   5.045020942511688e+00  -3.396596999999986e-01  1.41214889e+00  -4.80768550e-01   2.29342910e-01
C     6.599368412247214e+00   6.220145925405506e+00  -1.247454000000019e-01  2.23386760e-01  -1.65747800e-01  -7.60459920e-01
C     7.991272541042770e+00   5.855808706023850e+00  -3.143004000000005e-01 -1.75874534e+00  -2.11349164e+00   1.01327480e+00
C     8.311406291700168e+00   4.435674938120675e+00  -3.196839000000011e-01  5.59939810e-01   1.18288379e+00  -4.08432620e-01
C     9.704193722940911e+00   4.043290689116103e+00  -3.332373000000004e-01 -2.19778775e+00   2.60181880e-01   2.80380770e-01
C     9.996310338886316e+00   2.680215178641721e+00  -2.141184000000003e-01  3.13632830e-01  -1.60709040e+00  -8.08415000e-03
C     4.174250855588539e+00   5.648240166718822e+00  -2.092208999999983e-01  4.09652260e-01  -8.90832630e-01   2.40915570e-01
C     5.555082530015385e+00   5.245619499661551e+00  -1.505492999999980e-01  2.61729100e-02  -6.24007170e-01  -8.24996550e-01
C     5.892007604104148e+00   3.843441200116360e+00  -2.960427000000010e-01  4.78108390e-01   7.92124280e-01   1.11785527e+00
C     7.290784356654975e+00   3.471765468133301e+00  -3.120563999999995e-01 -1.10138195e+00  -1.20571833e+00   2.15614970e-01
C     7.618811259375248e+00   2.051887701120725e+00  -2.506665000000012e-01 -1.18219688e+00   1.47810751e+00  -3.49161280e-01
C     8.951479863808943e+00   1.682318088310675e+00  -1.983168000000006e-01  1.92483922e+00  -7.36745240e-01   4.18976460e-01
C     3.158722940973532e+00   4.638477519775128e+00  -2.693154000000000e-01  6.38978100e-02   7.40800450e-01  -1.40255550e-01
C     3.487928128417533e+00   3.267875613905011e+00  -2.285613000000026e-01  4.99149990e-01  -8.86683300e-01   6.42563390e-01
C     4.862107060383346e+00   2.864591084045153e+00  -1.783617000000000e-01  2.89708670e-01  -3.88345200e-01  -8.96193180e-01
C     5.229292787268214e+00   1.466557366567317e+00  -1.990613999999979e-01 -9.89034980e-01   4.34728290e-01  -4.24305100e-02
C     6.574787430506364e+00   1.082668868104656e+00  -2.605283999999983e-01  6.86103620e-01  -1.49435360e-01   2.74102540e-01
C     1.136867583115552e+01   7.394337190078084e+00  -2.668602000000000e-01 -8.83398400e-01   7.15885260e-01   1.10540000e-03
C     2.473458825824389e+00   2.248454051819670e+00  -1.400174999999990e-01  3.57172150e-01   1.36769223e+00  -5.22248250e-01
C     2.852810725463806e+00   8.984593709770736e-01  -1.113825000000013e-01 -1.17018525e+00  -1.81063587e+00  -3.36611300e-02
C     4.214061765729185e+00   4.500707323110149e-01  -1.806843000000029e-01 -4.81914690e-01   2.72098934e+00   1.29265920e-01
C     4.283559233590679e-01   2.746137563119463e-01  -9.288749999999979e-02 -8.10167590e-01   1.44367245e+00  -6.57494990e-01
C     6.225470750906834e+00   7.587076920128514e+00  -8.807609999999855e-02  1.45500717e+00   7.55251260e-01   1.26336800e-01
