26
Lattice="8.88768389401873 1.33226762955019e-15 0 4.44384194700937 7.69696003302603 0 0 0 30 " PBC="1 1 1" Properties=species:S:1:pos:R:3:force:R:3 Energy="-209.11780847"
C     4.099385983005553e-01   4.729831968675195e-01   3.278043300000000e+00 -1.26214329e+00   8.77114480e-01  -1.53916060e-01
C     7.220032974063418e+00   7.566572680426197e+00   3.284085300000000e+00  1.05412068e+00   8.88240850e-01  -1.53676420e-01
C     4.164678949836139e+00   2.324610468292501e-01   3.351098100000000e+00 -1.09152487e+00   2.86955017e+00   1.62886880e-01
C     9.622822312813042e+00   6.997574602330046e+00   3.473852400000000e+00  1.81404960e-01  -1.74030213e+00   1.09397640e-01
C     1.099219091970005e+01   7.381531064949771e+00   3.474141300000000e+00  5.40281000e-02   3.81985320e-01  -4.11493400e-02
C     1.203295127867155e+01   6.426790983446135e+00   3.442275300000000e+00 -1.01406120e+00  -1.37190755e+00  -5.29799060e-01
C     4.483282824222061e+00   6.809358452658846e+00   3.293649900000000e+00  1.64310565e+00  -7.73733510e-01   2.70341080e-01
C     5.538200774779691e+00   5.811477756852663e+00   3.266745000000000e+00 -2.17718560e-01   2.95097220e-01  -3.67464100e-02
C     6.919227178875099e+00   6.200923845304985e+00   3.300987000000000e+00 -1.68977837e+00  -1.08472120e-01   3.66339900e-01
C     7.922758896429801e+00   5.222781772586937e+00   3.462321300000000e+00 -9.47923840e-01  -8.77314970e-01  -6.32368230e-01
C     9.251533051573606e+00   5.585116165999187e+00   3.526389000000000e+00  2.08187253e+00   1.95272017e+00  -8.66324300e-02
C     1.030494800594889e+01   4.649254957148334e+00   3.499900200000000e+00 -2.77253780e-01  -1.75907856e+00  -6.93470160e-01
C     1.166545781391398e+01   5.026189637071891e+00   3.391157400000000e+00  9.94231310e-01   4.46170580e-01   3.48181690e-01
C     3.821593868048235e+00   4.046246475706823e+00   3.279148800000000e+00 -3.70926470e-01  -5.95521250e-01   4.26198800e-02
C     5.206365142188818e+00   4.435236673216568e+00   3.259204800000000e+00 -9.68334020e-01  -3.25713000e-01   7.33300000e-02
C     6.217595327073415e+00   3.430611131336096e+00   3.286603200000000e+00  1.15153000e-03   3.17739240e-01   4.43326640e-01
C     7.575000533764367e+00   3.844335202023845e+00   3.391675200000000e+00 -1.66359020e-01  -6.09053380e-01   2.43932000e-03
C     8.589937504972756e+00   2.845542570393308e+00   3.386283300000000e+00  4.64801200e-02   2.25613400e-01  -2.76824080e-01
C     9.952135750698670e+00   3.243755881167802e+00   3.371115900000000e+00  5.90819540e-01   3.70349490e-01   4.67001620e-01
C     2.084880176278658e+00   2.250080958261212e+00   3.296363400000000e+00  6.72547040e-01   6.47661770e-01  -4.65096540e-01
C     3.473078230255084e+00   2.634137635300527e+00   3.251404200000000e+00 -5.92436830e-01   1.38154871e+00   5.77858820e-01
C     4.488405681881646e+00   1.676086167652785e+00   3.335236500000000e+00  6.42714430e-01  -1.98089842e+00  -3.75579830e-01
C     5.866759070597587e+00   2.048396898838319e+00   3.353182800000000e+00 -1.32255890e-01   2.94361290e-01  -8.13197000e-02
C     6.897193096265862e+00   1.059869317951792e+00   3.414014100000000e+00 -6.16685340e-01   3.28546380e-01  -3.17689290e-01
C     8.247003999258697e+00   1.464035534583087e+00   3.323684400000000e+00  8.25892410e-01  -2.57521990e-01   4.17249960e-01
C     1.754167102606598e+00   8.816703769116361e-01   3.219886500000000e+00  5.59033170e-01  -8.77182180e-01   5.63294110e-01
