26
Lattice="8.88768389401873 1.33226762955019e-15 0 4.44384194700937 7.69696003302603 0 0 0 30 " PBC="1 1 1" Properties=species:S:1:pos:R:3:force:R:3 Energy="-208.95831148"
C     1.299054015970138e+01   7.260809018994439e+00  -7.638000000000034e-03 -7.93388000e-03   2.51462606e+00   3.89438750e-01
C     9.218662975761475e+00   7.080457777021095e+00   3.767130000000000e-02  3.70971490e-01  -1.06751091e+00  -2.68825590e-01
C     1.060272030174064e+01   6.677376754784428e+00   1.671588000000000e-01 -4.03246670e-01   1.59369500e-02  -4.89235210e-01
C     1.096132732506321e+01   5.275129028659768e+00   1.415247000000000e-01 -1.21904757e+00   8.15704390e-01  -3.92483480e-01
C     6.832311763121647e+00   6.491659115308567e+00  -1.027559999999994e-01  5.53525290e-01  -1.37504802e+00  -5.02628100e-02
C     8.181916560171736e+00   6.044024778725449e+00  -1.808940000000092e-02  8.28033340e-01   3.09770169e+00   3.55608950e-01
C     8.531552222104388e+00   4.709370293161842e+00   9.766770000000000e-02  4.29982620e-01  -7.05824350e-01  -7.34843020e-01
C     9.899692150628544e+00   4.318278055867905e+00   4.934490000000000e-02  9.42076430e-01  -1.20121635e+00   2.95050670e-01
C     1.024937251755546e+01   2.897879127691697e+00  -7.417290000000065e-02  3.02617280e-01   2.63994521e+00   5.08241650e-01
C     4.464574426813264e+00   5.925708340657893e+00   3.213690000000000e-02 -9.59871690e-01  -2.30215755e+00  -6.26841100e-02
C     5.817044746486849e+00   5.512097107404185e+00  -1.049850000000063e-02 -4.53223000e-01  -2.22550620e-01  -1.64491580e-01
C     6.126074891482343e+00   4.113468414916030e+00   3.081930000000000e-02  1.20059083e+00   1.32438110e+00   3.56611150e-01
C     7.505852575494726e+00   3.738635774776666e+00   5.759280000000000e-02 -2.47614340e-01  -1.01404097e+00   2.71374160e-01
C     7.844050365929776e+00   2.356840256904521e+00   8.295990000000000e-02  3.39896830e-01  -1.75910950e-01  -6.45158660e-01
C     9.229824659121409e+00   1.954032245840119e+00  -6.049709999999919e-02 -9.39989540e-01  -9.99053260e-01   3.15462620e-01
C     3.428626525180580e+00   4.886131980855596e+00   7.594260000000000e-02  3.22186560e-01   1.39669946e+00   3.11108200e-02
C     3.749892833435098e+00   3.526059131458519e+00   8.988300000000001e-03  5.88450940e-01  -3.90665810e-01   2.10903560e-01
C     5.124824285613500e+00   3.149902691163595e+00   6.519360000000000e-02 -7.80531720e-01  -8.37199090e-01  -5.75773700e-01
C     5.476122344351183e+00   1.771880223098156e+00   4.013040000000000e-02 -1.79866251e+00  -1.62379620e-01  -1.76472460e-01
C     6.792168891292176e+00   1.382777649971973e+00   8.369250000000000e-02  2.74576968e+00  -1.02289791e+00   1.88064500e-01
C     1.160899107144362e+01   7.682949022748589e+00   1.159128000000000e-01  3.17860150e-01  -2.52064600e-01  -3.20453070e-01
C     2.738357221997404e+00   2.535299278224091e+00  -7.523820000000114e-02 -4.42568820e-01  -6.49809690e-01  -3.22058740e-01
C     3.072526669705207e+00   1.147184402228115e+00  -1.645797000000009e-01  1.28117386e+00   4.57659620e-01   6.93640000e-03
C     4.461885854645867e+00   7.652789485475838e-01  -9.038190000000057e-02 -8.54330140e-01  -3.72269600e-02   6.91438860e-01
C     7.090259145516495e-01   5.783725135950893e-01  -1.056126000000006e-01 -1.22105421e+00  -1.07520243e+00  -2.11387330e-01
C     2.071524918964561e+00   1.517193973273480e-01  -2.192574000000000e-01 -8.95061230e-01   1.22810460e+00   7.93887690e-01
