26
Lattice="8.88768389401873 1.33226762955019e-15 0 4.44384194700937 7.69696003302603 0 0 0 30 " PBC="1 1 1" Properties=species:S:1:pos:R:3:force:R:3 Energy="-208.85504658"
C     1.241223434423744e+01   6.674993468080739e+00  -1.325210999999982e-01 -2.84297890e-01  -5.25496990e-01   6.46139460e-01
C     8.619354630020872e+00   6.436485920360722e+00  -2.647187999999971e-01  5.75639450e-01  -4.72526350e-01   1.60738350e-01
C     1.000154278721238e+01   6.050728138185176e+00  -1.918508999999986e-01 -3.16380720e-01  -7.34202320e-01   1.11064200e-01
C     1.032769141127728e+01   4.660884447996862e+00  -1.507383000000004e-01  1.36009509e+00   1.07882380e-01  -5.47202900e-02
C     6.236850273588544e+00   5.831356926430945e+00  -1.073151000000010e-01  7.67122900e-01   2.37460827e+00  -6.71886920e-01
C     7.595349375892861e+00   5.444878708796592e+00  -2.723811000000005e-01 -2.78229000e-03  -1.02729283e+00   7.48282940e-01
C     7.910534730794096e+00   4.029782293354652e+00  -2.267550000000007e-01  1.43032700e+00   1.87387347e+00   4.74432300e-02
C     9.318252582217642e+00   3.662015385553227e+00  -2.179481999999986e-01 -8.62873240e-01   1.25115543e+00   2.82435410e-01
C     9.669739682013901e+00   2.318224531464411e+00  -1.558896000000018e-01 -4.46210800e-02  -1.50219234e+00   4.65325300e-02
C     3.859047413106914e+00   5.302775431513123e+00  -2.531399999999806e-02 -2.39982530e-01  -6.04890110e-01  -4.13876000e-03
C     5.211484937235957e+00   4.903035505686280e+00   1.073760000000000e-02  3.63882500e-02  -1.36748813e+00  -3.61352760e-01
C     5.546782232021016e+00   3.502014213172800e+00   8.185200000000000e-03  6.00088200e-02   6.02964500e-01   4.97772160e-01
C     6.885889607890711e+00   3.078642387935448e+00  -8.471970000000084e-02  9.29686420e-01   9.99469690e-01  -3.83644050e-01
C     7.264846050041474e+00   1.737934012399446e+00  -1.119300000000010e-01  2.80911840e-01  -1.65218534e+00   1.96665670e-01
C     8.641600455042852e+00   1.331445853835900e+00  -1.542680999999995e-01  1.56932120e-01   7.43959000e-02   4.56811400e-02
C     2.864480834302697e+00   4.272602139901077e+00  -2.083950000000101e-02 -2.32496915e+00   1.74608754e+00  -4.49423520e-01
C     3.179029431136872e+00   2.927146356388171e+00  -9.791700000000958e-03  1.14014560e-01  -2.03047893e+00   4.87224670e-01
C     4.557653982585780e+00   2.525889051861013e+00   9.582660000000000e-02 -1.59827990e+00  -1.11233895e+00  -1.31797329e+00
C     4.883339824947722e+00   1.131738142839911e+00  -6.345269999999914e-02 -3.67319520e-01  -4.19535590e-01   3.09105310e-01
C     6.243718005826435e+00   7.575052498260848e-01  -8.300789999999836e-02  1.40811170e-01  -1.92142389e+00  -1.30871700e-01
C     1.102382343070488e+01   7.019120317694022e+00  -1.089041999999978e-01  5.09207780e-01   2.17109183e+00  -4.62144790e-01
C     2.139514857525293e+00   1.894620181064552e+00  -8.855820000000136e-02  1.03195266e+00   2.44073085e+00  -2.80875900e-01
C     2.510164648125737e+00   5.621796490839753e-01  -1.828202999999995e-01 -5.40348550e-01  -2.12892046e+00   4.03328620e-01
C     3.856818600799213e+00   9.934296977600339e-02  -1.830843000000009e-01  4.23349340e-01   2.35174086e+00   1.84785880e-01
C     4.583282644492482e+00   7.646274547597645e+00  -1.368563999999992e-01 -2.11223744e+00   6.42515770e-01  -1.03339570e-01
C     5.919568847328410e+00   7.261413461265595e+00  -1.567766999999982e-01  8.77644930e-01  -1.13754425e+00   5.31719600e-02
