26
Lattice="8.88768389401873 1.33226762955019e-15 0 4.44384194700937 7.69696003302603 0 0 0 30 " PBC="1 1 1" Properties=species:S:1:pos:R:3:force:R:3 Energy="-208.37502391"
C     1.322249626668913e+01   7.593614794947597e+00  -2.056029000000024e-01 -8.08647760e-01   6.30463990e-01  -1.55741830e-01
C     9.501459167551747e+00   7.354486256492359e+00  -2.408580000000029e-01 -1.62344195e+00  -4.70050640e-01   9.78958590e-01
C     1.081887472888542e+01   6.972587499167055e+00  -3.290109000000001e-01  2.38144502e+00  -5.20328790e-01  -3.90848190e-01
C     1.121138537775262e+01   5.572732988824522e+00  -3.382199999999997e-01 -2.01683151e+00   1.46313524e+00   1.40749420e-01
C     7.086463794084355e+00   6.796375451389043e+00  -9.964140000000299e-02  3.78820180e-01  -7.29095700e-01   8.97289760e-01
C     8.469490282039551e+00   6.381001075501262e+00  -7.446810000000070e-02 -5.93179080e-01  -3.31465220e-01  -1.45864502e+00
C     8.825206497312625e+00   4.998100274168809e+00  -1.977674999999977e-01 -2.28346700e+00  -1.78680220e-01   9.30034300e-02
C     1.016147239179582e+01   4.620872032189707e+00  -2.760438000000001e-01  7.98303110e-01  -1.88859276e+00   4.47066610e-01
C     1.048431546400578e+01   3.193856258384510e+00  -1.369448999999996e-01  7.80526010e-01   2.87862432e+00   7.15552700e-02
C     4.658604609146740e+00   6.238367092823726e+00  -1.973844000000007e-01  1.00293864e+00  -2.33820277e+00  -5.12562550e-01
C     6.041302786043905e+00   5.799693864985934e+00  -1.669497000000000e-01  1.36848910e-01   1.87942046e+00   1.02167480e-01
C     6.391278579626549e+00   4.445832231424265e+00  -2.202881999999988e-01 -5.01247960e-01  -1.68632195e+00  -9.24560400e-02
C     7.742558838394009e+00   3.981028978828629e+00  -2.317034999999983e-01  1.17442115e+00   2.55614090e+00   3.46199460e-01
C     8.096228575598774e+00   2.635386390095794e+00  -2.162229000000018e-01  4.83546260e-01  -2.72300550e-01   1.76045350e-01
C     9.479882356307566e+00   2.257942787175054e+00  -5.876549999999980e-02 -1.75484375e+00  -1.23924836e+00  -9.27391450e-01
C     3.650434185881402e+00   5.220925342797301e+00  -3.064551000000009e-01  1.60368050e+00  -1.62463811e+00   7.61304070e-01
C     3.987713745201895e+00   3.756829233138778e+00  -1.823334000000010e-01  3.53084330e-01   4.44878913e+00  -4.76321530e-01
C     5.351267406702186e+00   3.451128532840066e+00  -2.162393999999992e-01  7.47974560e-01  -2.24851777e+00   1.02126860e-01
C     5.696136381506373e+00   2.014629334581906e+00  -2.428968000000005e-01  1.18107612e+00   2.01191551e+00   4.89048600e-02
C     7.087637587155433e+00   1.654384665817800e+00  -2.918034000000027e-01 -1.29845198e+00  -2.34042540e-01  -3.55510000e-03
C     7.391427998131182e+00   2.828568156560748e-01  -3.416768999999995e-01  9.76582280e-01  -7.30997830e-01   6.22240860e-01
C     2.958775648820644e+00   2.856643741905376e+00  -5.957879999999705e-02  5.05047890e-01  -3.35400695e+00   9.65117300e-02
C     3.344529347113162e+00   1.425268025091185e+00   4.713420000000000e-02  7.27857390e-01   1.95201967e+00  -7.97584150e-01
C     4.723154254061790e+00   1.012255769267011e+00  -1.474869000000005e-01 -1.52029981e+00   1.57953234e+00   2.44758350e-01
C     8.947717089686095e-01   8.772233812847032e-01  -6.935550000000035e-02  2.33774234e+00  -2.07329280e-01   6.43173250e-01
C     2.342094190752689e+00   4.882247940885258e-01   5.247930000000000e-02 -3.16948390e+00  -1.34622215e+00  -9.56949490e-01
