26
Lattice="8.88768389401873 1.33226762955019e-15 0 4.44384194700937 7.69696003302603 0 0 0 30 " PBC="1 1 1" Properties=species:S:1:pos:R:3:force:R:3 Energy="-208.65997514"
C     4.414713099244562e+00   7.593825691652419e+00  -1.130700000000004e-01 -1.69313611e+00  -8.03528930e-01   3.11332360e-01
C     9.469470837929055e+00   7.419290272677742e+00  -1.276212000000001e-01  1.04328067e+00   1.20869655e+00   6.33202720e-01
C     1.087500778503987e+01   7.049389998464803e+00   6.268500000000001e-03 -5.94023340e-01  -1.87592174e+00  -3.60207080e-01
C     1.124613008928782e+01   5.614568891432383e+00   4.956300000000000e-03 -2.73950190e-01   2.55360198e+00  -6.99174080e-01
C     7.093292779304307e+00   6.777613880407117e+00  -2.588796000000002e-01  2.23370890e-01   3.32281064e+00   7.47399030e-01
C     8.420978770423135e+00   6.450446512523935e+00  -8.079990000000237e-02  2.66281054e+00  -1.49143254e+00  -8.97559220e-01
C     8.818481986846367e+00   5.062376355865734e+00  -6.907169999999851e-02 -3.30019970e-01  -1.52372260e-01  -1.18127450e-01
C     1.020403244373762e+01   4.687887692870111e+00  -9.420569999999984e-02 -8.94520710e-01  -7.60813490e-01   3.64334370e-01
C     1.054507487071957e+01   3.310159017769017e+00  -1.763724000000018e-01 -8.33385670e-01  -1.77982390e+00  -2.65603500e-02
C     4.761753068628155e+00   6.212120843969427e+00  -6.153600000000026e-02 -1.07793225e+00   5.59349120e-01  -9.24209290e-01
C     6.105416493475680e+00   5.825264397719199e+00  -1.709786999999992e-01 -7.13314510e-01  -8.18832060e-01   5.57555370e-01
C     6.432266311374439e+00   4.455996913809484e+00  -5.979329999999905e-02  5.03148590e-01   2.08321770e-01  -7.65136560e-01
C     7.788970501457200e+00   4.036344567537029e+00  -1.017729000000003e-01  4.97188110e-01   3.34154841e+00   4.20109630e-01
C     8.119934383825182e+00   2.720896152397081e+00  -9.096089999999890e-02  2.40731260e+00  -3.50371237e+00  -4.99447500e-02
C     9.522612162974214e+00   2.267306677838751e+00  -1.589904000000004e-01 -5.60884800e-01   1.28562924e+00  -3.30575510e-01
C     3.730101295678407e+00   5.240565444797052e+00  -9.212699999999785e-02 -5.65198630e-01  -8.53979200e-02   1.06128149e+00
C     4.063015180289487e+00   3.862329616999581e+00  -8.888549999999995e-02 -1.03905994e+00   3.43022320e-01  -9.27542990e-01
C     5.411895720038940e+00   3.506380236780217e+00  -1.046787000000009e-01  3.39903770e-01  -1.41579952e+00   5.89664740e-01
C     5.760305681456456e+00   2.125751655018220e+00  -8.071649999999764e-02 -5.06533470e-01  -1.09372957e+00  -5.11235940e-01
C     7.125439706401647e+00   1.718451159293108e+00  -4.227210000000170e-02 -3.97884030e-01  -1.03419254e+00  -1.57013780e-01
C     7.470528962460508e+00   2.965153021381107e-01  -1.773870000000244e-02  2.48955340e-01   1.50661711e+00  -2.86643120e-01
C     3.015526176790836e+00   2.898784598069626e+00  -2.190086999999998e-01  9.40697000e-02   2.13441470e-01   6.41553600e-01
C     3.333918696884929e+00   1.518680948981675e+00  -2.380211999999986e-01  5.45793700e-01  -4.65461120e-01  -2.57460560e-01
C     4.712735755580994e+00   1.139127840225513e+00  -2.028063000000024e-01  3.41641560e-01  -8.36318940e-01   6.74001020e-01
C     9.659399265782246e-01   8.519791996567105e-01  -2.424722999999993e-01  2.50815830e-01   2.87549307e+00   6.13509490e-01
C     2.327033032771264e+00   5.119437461169737e-01  -2.657547000000022e-01  3.21552360e-01  -1.30119478e+00  -3.02553160e-01
