26
Lattice="8.88768389401873 1.33226762955019e-15 0 4.44384194700937 7.69696003302603 0 0 0 30 " PBC="1 1 1" Properties=species:S:1:pos:R:3:force:R:3 Energy="-209.0010507"
C     1.016538844302952e+00   1.138881537504553e+00   3.668485500000000e+00  1.23915990e+00   8.68721740e-01  -9.73803370e-01
C     3.468016692926922e+00   5.516359683868799e-01   3.536642700000000e+00 -1.29545620e+00   7.88245260e-01  -1.85264570e-01
C     4.824773854140394e+00   9.551394767595923e-01   3.441392400000000e+00 -1.57120130e-01   7.47157680e-01   8.30650410e-01
C     1.028437808570168e+01   7.694677111655102e+00   3.543033900000000e+00  9.28702030e-01  -2.89106800e-02  -4.94985700e-01
C     7.213826610881254e+00   4.161922548605687e-01   3.544552800000000e+00 -3.53358420e-01  -1.16604395e+00   9.87875000e-02
C     1.265345488408892e+01   7.090367305181318e+00   3.604573200000000e+00  2.31498920e-01   2.54771600e-02  -5.86818050e-01
C     5.139034228493044e+00   7.471399461776845e+00   3.596569200000000e+00 -1.00475360e-01  -6.33272050e-01   4.54172590e-01
C     6.186582733762970e+00   6.476269890394185e+00   3.621444900000000e+00 -5.04592450e-01   1.42252857e+00   3.55699550e-01
C     7.550658191654866e+00   6.894735981186817e+00   3.666516900000000e+00  4.27857420e-01  -7.98969560e-01  -4.53563800e-01
C     8.593768409790355e+00   5.912124360748948e+00   3.718286400000000e+00 -3.53057980e-01   1.02280102e+00  -2.20668350e-01
C     9.955428017446234e+00   6.328991177186546e+00   3.589148100000000e+00 -2.66471060e-01  -1.50851773e+00   5.49017110e-01
C     1.096062315388478e+01   5.300027770721615e+00   3.582013200000000e+00 -4.81799650e-01   6.25018510e-01  -7.50128100e-02
C     3.417819990869861e+00   5.703751873968787e+00   3.551093400000000e+00  5.85474990e-01   4.13610550e-01   5.25719220e-01
C     4.453634575940502e+00   4.736435036745731e+00   3.599384100000000e+00  5.15624930e-01  -8.72655150e-01  -8.23694160e-01
C     5.823495871587850e+00   5.126394435462454e+00   3.640803000000000e+00  6.29989090e-01  -6.50900370e-01   2.11865500e-02
C     6.883398257475896e+00   4.148226962776307e+00   3.685662900000000e+00 -1.35859534e+00   3.35745350e-01   2.38897210e-01
C     8.226826070343874e+00   4.562434248614738e+00   3.802318800000000e+00  9.47277920e-01  -1.53827918e+00  -5.09491500e-01
C     9.253905884089464e+00   3.539116870210213e+00   3.789151200000000e+00 -1.37888570e-01   5.96413720e-01  -1.01865840e+00
C     1.061214546652506e+01   3.923677467222692e+00   3.618906300000000e+00  2.90837140e-01  -4.12027310e-01   8.05717180e-01
C     2.744618195596174e+00   2.910973042155533e+00   3.585769500000000e+00  1.06109182e+00   5.50297960e-01  -1.11128204e+00
C     4.157492859486637e+00   3.344092836362079e+00   3.466284600000000e+00 -1.49985395e+00  -1.00290003e+00   1.18889526e+00
C     5.191729880637470e+00   2.331621167366226e+00   3.482912100000000e+00 -1.11761781e+00   1.51743627e+00  -1.72102400e-01
C     6.534411794657251e+00   2.780110944087079e+00   3.599465100000000e+00  4.66523440e-01  -1.12816946e+00  -4.82743350e-01
C     7.561666695790126e+00   1.779349968868070e+00   3.553703100000000e+00 -3.71585350e-01   6.15612560e-01   7.10528110e-01
C     8.914596420367264e+00   2.171268089973227e+00   3.659600400000000e+00 -2.36120900e-02  -5.96250170e-01   4.66150130e-01
C     2.395874855354513e+00   1.518492527400141e+00   3.541568400000000e+00  6.97446760e-01   8.07829290e-01   8.62667670e-01
