26
Lattice="8.88768389401873 1.33226762955019e-15 0 4.44384194700937 7.69696003302603 0 0 0 30 " PBC="1 1 1" Properties=species:S:1:pos:R:3:force:R:3 Energy="-208.9503891"
C     5.783066154136774e-01   6.753806105459922e-01   3.540981000000000e+00 -1.14787573e+00  -1.87062990e-01   2.50660550e-01
C     2.904879843144573e+00   8.770593590664640e-02   3.491167800000000e+00  2.62177098e+00  -6.90436000e-02   4.85665700e-02
C     4.311578099948181e+00   4.525729370471676e-01   3.533384100000000e+00 -3.53083250e-01   6.57618690e-01   5.63288960e-01
C     9.797440904677966e+00   7.180302973439055e+00   3.686896800000000e+00 -5.92293400e-02  -3.86092150e-01  -8.51129350e-01
C     1.118931606013203e+01   7.597951954954902e+00   3.680407800000000e+00 -1.39496211e+00  -1.30023196e+00   5.89440810e-01
C     1.218779241863579e+01   6.595352252954326e+00   3.718354800000000e+00  1.22360360e-01  -6.84373900e-01  -7.90375720e-01
C     4.660837951275074e+00   6.980408149344736e+00   3.583592700000000e+00  1.13350650e+00   8.04869000e-02   3.75522040e-01
C     5.715534820702828e+00   5.993131324463084e+00   3.580095000000000e+00 -5.79315460e-01   2.64268850e-01  -3.14533810e-01
C     7.085548940089438e+00   6.405833777646050e+00   3.511459500000000e+00 -1.31279697e+00  -7.21045090e-01   9.35369860e-01
C     8.100896300098960e+00   5.403208906586178e+00   3.668583900000000e+00 -7.80621260e-01  -1.12978030e-01  -1.03789771e+00
C     9.455494953938729e+00   5.767059755063538e+00   3.659201400000000e+00  9.18172980e-01   1.08028188e+00   3.02036060e-01
C     1.048474074070633e+01   4.773918539365428e+00   3.633109200000000e+00 -5.11369050e-01   4.51681010e-01   2.89836430e-01
C     1.183312956985139e+01   5.198164200474986e+00   3.674269500000000e+00  9.47547070e-01  -3.53224500e-02   1.29726120e-01
C     3.992919750773506e+00   4.210371294423322e+00   3.667346100000000e+00 -5.47019330e-01   6.48747470e-01  -9.21789330e-01
C     5.357899797123952e+00   4.616869382065307e+00   3.616614000000000e+00 -4.34402700e-01  -1.86616720e-01   6.66071150e-01
C     6.339537683037327e+00   3.602489405769216e+00   3.682851000000000e+00  1.68632822e+00   6.22875980e-01  -9.92366940e-01
C     7.732029510443260e+00   4.028093580324070e+00   3.639177600000000e+00 -1.17878100e-01  -1.20640371e+00   9.04378260e-01
C     8.763823173970781e+00   3.005319453358462e+00   3.670837200000000e+00  2.26798710e-01   1.88838138e+00  -7.81324650e-01
C     1.014132276734289e+01   3.391587774892797e+00   3.591961200000000e+00  9.43722900e-02   6.40039100e-01  -1.53630990e-01
C     2.299503877551826e+00   2.429474929315625e+00   3.465053700000000e+00 -7.32703610e-01   1.49875630e+00   8.08531600e-01
C     3.660388479163582e+00   2.832620836925344e+00   3.515706600000000e+00 -7.77652590e-01   8.27452260e-01   4.57635010e-01
C     4.651009947103811e+00   1.860851385294534e+00   3.562059300000000e+00  5.27617040e-01  -2.09382636e+00  -3.65350760e-01
C     6.004655619035668e+00   2.220381237380653e+00   3.612189600000000e+00  1.45503899e+00   5.41035350e-01   9.12126510e-01
C     7.078536909660145e+00   1.252813402291019e+00   3.703170900000000e+00 -9.26462940e-01   9.18430560e-01  -9.91717270e-01
C     8.435597052018149e+00   1.657426350482456e+00   3.608963100000000e+00 -3.54515260e-01  -9.57956730e-01   5.43274650e-01
C     1.918781895263325e+00   1.102435739036101e+00   3.505946700000000e+00  2.96374560e-01  -2.17910203e+00  -5.76348060e-01
