26
Lattice="8.88768389401873 1.33226762955019e-15 0 4.44384194700937 7.69696003302603 0 0 0 30 " PBC="1 1 1" Properties=species:S:1:pos:R:3:force:R:3 Energy="-209.00892243"
C     8.908463872672137e+00   5.828776982398490e-02   3.400141800000000e+00 -3.39705900e-02  -1.44318047e+00  -2.53402990e-01
C     6.849534050754461e+00   7.140187572306700e+00   3.429957600000000e+00 -2.12947690e-01  -1.25366653e+00   3.74231830e-01
C     8.201013838576969e+00   7.524695829990975e+00   3.443836500000000e+00  4.86582340e-01  -1.88221177e+00   3.34021760e-01
C     9.217621916529129e+00   6.495659148466558e+00   3.467765700000000e+00  3.16868420e-01   1.03445871e+00  -2.81012500e-01
C     1.058854764563644e+01   6.883895428741364e+00   3.410258700000000e+00  5.73583620e-01   1.38986983e+00   2.97309900e-02
C     1.165404860582148e+01   5.940483656040283e+00   3.394899000000000e+00 -9.15074100e-02   7.59825420e-01  -9.83558800e-02
C     4.142093704819360e+00   6.342663595166235e+00   3.391672500000000e+00 -4.98775310e-01   9.08927360e-01  -2.10363150e-01
C     5.161800162723519e+00   5.363945097111540e+00   3.372279300000000e+00 -6.59795210e-01  -9.58849320e-01  -1.21484980e-01
C     6.508464736709421e+00   5.717257498824627e+00   3.476716800000000e+00  6.26331200e-02   2.06805517e+00  -3.87117230e-01
C     7.504368332940395e+00   4.747399510247667e+00   3.533032200000000e+00  1.39228858e+00  -1.48460613e+00  -5.73194940e-01
C     8.880224860190639e+00   5.131932629112839e+00   3.493528800000000e+00  5.50854930e-01  -2.10602630e-01   1.72490580e-01
C     9.954902842800641e+00   4.166866613911357e+00   3.468765600000000e+00 -1.45396007e+00   3.92927140e-01  -7.52102000e-03
C     1.131999398520746e+01   4.585292680511833e+00   3.397486500000000e+00 -3.73102180e-01  -1.25722440e+00   1.15771550e-01
C     3.461930408984698e+00   3.608327549951971e+00   3.359028000000000e+00 -1.03658666e+00  -1.71226608e+00   3.56668850e-01
C     4.814314607500945e+00   3.963727290255593e+00   3.275750700000000e+00  1.41142100e-01   8.83578940e-01   1.02890149e+00
C     5.798965551580098e+00   2.967526225067157e+00   3.368999700000000e+00  1.64468795e+00  -9.07636890e-01  -1.51283700e-02
C     7.207084904601226e+00   3.335360173390442e+00   3.451993200000000e+00 -2.20478137e+00   1.49247461e+00  -1.84100010e-01
C     8.217376416781713e+00   2.376810404550358e+00   3.409140300000000e+00 -3.67339380e-01   2.69666470e-01   1.96384600e-01
C     9.556263511957104e+00   2.801504952368865e+00   3.473931000000000e+00  1.97929541e+00  -5.08427610e-01   6.41743500e-02
C     1.719004403939001e+00   1.826495465413426e+00   3.518738400000000e+00  3.52217530e-01  -3.85529460e-01  -6.60928440e-01
C     3.093884352480560e+00   2.206641624939901e+00   3.500940000000000e+00  5.36234750e-01  -1.94232400e-02  -6.03646560e-01
C     4.120058200152906e+00   1.158821974884674e+00   3.467362800000000e+00 -9.48932450e-01   2.58188269e+00  -2.18006480e-01
C     5.470104671202839e+00   1.556205707307134e+00   3.398481600000000e+00 -7.86622600e-02   1.51516772e+00  -6.16324400e-02
C     6.489543343208360e+00   6.036057655398396e-01   3.370285800000000e+00  4.25576690e-01  -1.33947652e+00   1.09438290e-01
C     7.856195696160728e+00   1.011920027870503e+00   3.350298000000000e+00  5.33562020e-01  -6.15571910e-01   4.00175010e-01
C     1.402906237636512e+00   4.286129162305800e-01   3.418340700000000e+00 -1.03516691e+00   6.81838930e-01   4.93905690e-01
