26
Lattice="8.88768389401873 1.33226762955019e-15 0 4.44384194700937 7.69696003302603 0 0 0 30 " PBC="1 1 1" Properties=species:S:1:pos:R:3:force:R:3 Energy="-208.57942625"
C     1.289097010389228e+01   7.204083962965345e+00   4.131029999999999e-02 -1.08175089e+00  -1.56901740e+00   8.03580000e-03
C     9.136004360363195e+00   6.936527780213707e+00  -1.451816999999984e-01 -1.02145468e+00   6.69720620e-01   7.65717520e-01
C     1.046253046425269e+01   6.542748842051696e+00  -1.768961999999981e-01  2.28905161e+00   9.98205050e-01  -4.03008600e-02
C     1.081127846873256e+01   5.170743087641708e+00  -1.790054999999988e-01 -5.78818830e-01   3.55937470e-01  -1.84225530e-01
C     6.749376651911719e+00   6.400329373650196e+00   6.414510000000000e-02 -1.24412840e-01  -1.89970063e+00  -2.40902800e-02
C     8.110374748705183e+00   5.969787676205700e+00  -1.001754000000012e-01 -5.54650170e-01  -1.00138657e+00  -2.56538580e-01
C     8.444006980342568e+00   4.554447036222007e+00  -2.006096999999976e-01 -1.69360905e+00   8.34170970e-01   2.71754170e-01
C     9.784334101973164e+00   4.167771699441285e+00  -1.940768999999989e-01  1.34104198e+00   2.02141110e-01   3.14935760e-01
C     1.017152884938301e+01   2.815525349911512e+00  -2.433179999999879e-02 -8.00009290e-01  -5.53969720e-01   2.04807610e-01
C     4.301119743603333e+00   5.810598225230035e+00   9.449220000000000e-02  1.18263419e+00  -8.54313790e-01  -1.11423358e+00
C     5.709601002590867e+00   5.375494539575756e+00   6.960540000000000e-02 -8.49771060e-01   2.15938405e+00   7.38243000e-03
C     6.044599049098010e+00   4.033984756561432e+00  -3.279840000000078e-02 -9.27756050e-01  -2.49993494e+00  -2.86442940e-01
C     7.380511924719644e+00   3.568314441418414e+00  -1.612763999999984e-01  9.70247980e-01   1.91140195e+00   5.50647540e-01
C     7.737864495935955e+00   2.222098967950548e+00  -7.571459999999774e-02  6.91040460e-01  -8.92553260e-01   1.28693650e-01
C     9.123714778835836e+00   1.836208721092885e+00   5.405100000000000e-02 -1.80429200e-01   5.22047700e-01  -6.07729700e-01
C     3.273415879830746e+00   4.828610828250599e+00  -1.000191000000008e-01  1.76436068e+00  -1.64696805e+00   1.47534885e+00
C     3.652603535016708e+00   3.393689583768190e+00   6.921719999999999e-02 -4.03215420e-01   2.31884654e+00  -1.15690063e+00
C     4.990849338829641e+00   3.000390397124849e+00   3.951000000000000e-04  1.52180769e+00   6.35118040e-01   9.11476360e-01
C     5.330871059748922e+00   1.612937459691454e+00   6.791910000000001e-02  1.86940890e+00   2.47233290e-01  -1.28655975e+00
C     6.742723150624495e+00   1.207201063214038e+00  -6.293790000000143e-02 -1.89027990e+00   2.06124183e+00   3.69214280e-01
C     1.152356825306461e+01   7.576461118915938e+00  -1.081536000000014e-01 -7.14942170e-01  -2.37553177e+00   3.38407430e-01
C     2.651698971120915e+00   2.431344213028511e+00   9.465780000000000e-02 -8.79634010e-01  -1.15095480e+00   1.87598320e-01
C     2.992369492954394e+00   1.028847413277280e+00   1.773714000000000e-01  2.07440000e-02   7.23528660e-01  -5.64093120e-01
C     4.346033517451223e+00   6.152015437034358e-01   3.983910000000000e-02 -3.05460590e-01   2.61758210e-01   2.03726450e-01
C     5.489641491080788e-01   4.677768961336272e-01   1.445856000000000e-01  2.74249145e+00   1.69702200e-01   4.81694100e-02
C     1.984969320845387e+00   6.067121046687470e-02   1.846017000000000e-01 -2.38663477e+00   3.73893240e-01  -2.64800600e-01
