26
Lattice="8.88768389401873 1.33226762955019e-15 0 4.44384194700937 7.69696003302603 0 0 0 30 " PBC="1 1 1" Properties=species:S:1:pos:R:3:force:R:3 Energy="-209.32126793"
C     2.490432125294256e-01   3.360695948842792e-01   3.590553600000000e+00  2.81546850e-01  -8.14875310e-01  -2.32101280e-01
C     7.096084445651091e+00   7.391083223255801e+00   3.539032500000000e+00 -2.02038520e-01   1.10902702e+00   7.35747100e-02
C     4.012958720091177e+00   9.669621613048729e-02   3.558683700000000e+00 -2.35787340e-01   2.79489990e-01  -1.15107570e-01
C     9.448736759772627e+00   6.788992835206668e+00   3.595539900000000e+00  1.17937274e+00   1.41410715e+00  -7.78596400e-02
C     1.082803899764799e+01   7.203361757205729e+00   3.619589400000000e+00  4.01949250e-01  -5.16340490e-01  -1.93399660e-01
C     1.189476236986123e+01   6.238377098871765e+00   3.597045600000000e+00 -1.01825694e+00   3.31756610e-01   2.15675070e-01
C     4.366915934548378e+00   6.628143842678936e+00   3.595075200000000e+00 -6.12627600e-02   9.06439820e-01  -1.23843510e-01
C     5.383870187821515e+00   5.650617526763288e+00   3.564535500000000e+00  5.40762840e-01  -5.56756220e-01   2.36726800e-01
C     6.767038301528129e+00   6.018224953552890e+00   3.576592500000000e+00 -1.54190551e+00   4.97893560e-01  -4.08505110e-01
C     7.749619126280585e+00   5.029661889680624e+00   3.543726600000000e+00  1.20507731e+00  -1.73265970e-01   4.44775670e-01
C     9.109763072765173e+00   5.447899611669166e+00   3.569541300000000e+00  6.49683380e-01  -1.46262107e+00   1.01977220e-01
C     1.017335522505893e+01   4.470278546175548e+00   3.590127300000000e+00 -9.06261210e-01   5.88621710e-01  -2.85416530e-01
C     1.153523662486206e+01   4.880653053797442e+00   3.591993900000000e+00  6.98605210e-01  -1.37833821e+00  -1.32897120e-01
C     3.690660153360604e+00   3.872609676815649e+00   3.559261500000000e+00 -9.81053020e-01   3.13828400e-02   1.47320020e-01
C     5.057230872922052e+00   4.258772780906374e+00   3.568990800000000e+00 -7.00182030e-01   4.50175450e-01  -2.45895400e-02
C     6.051797317097101e+00   3.266323137066960e+00   3.588090600000000e+00  1.11012604e+00  -3.90150180e-01  -1.18489600e-02
C     7.440949241746949e+00   3.650270594243450e+00   3.588877800000000e+00 -1.84361669e+00   5.02130030e-01  -3.08481710e-01
C     8.437232031011833e+00   2.681554295747740e+00   3.564534600000000e+00  7.96242480e-01   5.64679400e-02   1.78194100e-01
C     9.798445921331705e+00   3.115472957435800e+00   3.543778800000000e+00  1.08119084e+00  -1.79191759e+00   1.88339650e-01
C     1.949992464356949e+00   2.096955249366782e+00   3.531641400000000e+00  1.84966300e-01   4.98231340e-01  -5.76217600e-02
C     3.325887964107729e+00   2.491772969254440e+00   3.546514800000000e+00  5.01128760e-01  -4.74531790e-01  -1.67520100e-01
C     4.374050386128381e+00   1.475127700651921e+00   3.538428000000000e+00 -1.65881416e+00   6.75757170e-01   3.00327510e-01
C     5.715193930915334e+00   1.880041753919731e+00   3.588120600000000e+00  3.25366450e-01  -7.02885700e-02  -1.28748660e-01
C     6.724611250473745e+00   8.681425078413093e-01   3.603519300000000e+00  6.26766000e-01   1.35654701e+00   1.78237840e-01
C     8.100475421168943e+00   1.309340030690540e+00   3.606798300000000e+00 -1.16121260e-01  -9.59917320e-01  -2.14340880e-01
C     1.627404155777289e+00   7.093309006335183e-01   3.518221200000000e+00 -3.17485010e-01  -1.09024910e-01   4.17133430e-01
