26
Lattice="8.88768389401873 1.33226762955019e-15 0 4.44384194700937 7.69696003302603 0 0 0 30 " PBC="1 1 1" Properties=species:S:1:pos:R:3:force:R:3 Energy="-208.92843926"
C     9.170397566412525e-01   1.069135303283907e+00   3.594597900000000e+00  4.31745060e-01  -2.10268901e+00  -6.26979300e-02
C     3.307560047699341e+00   4.583183328615611e-01   3.711735900000000e+00  1.01253474e+00  -6.82266340e-01  -3.84805270e-01
C     4.687977867661111e+00   8.796747091150576e-01   3.638377500000000e+00  5.73333260e-01  -2.62445011e+00  -6.56309140e-01
C     1.018099525788260e+01   7.546217453870059e+00   3.459244500000000e+00 -6.83503320e-01   2.30774694e+00   1.04176003e+00
C     7.101322753045791e+00   2.895212284980503e-01   3.467593500000000e+00 -4.08253230e-01  -4.96823460e-01  -5.53436480e-01
C     1.254952932987975e+01   6.982950224333845e+00   3.457959600000000e+00  3.77539470e-01  -6.23005620e-01   2.64609080e-01
C     5.035985044347895e+00   7.354813531232836e+00   3.562518000000000e+00 -4.04684120e-01   1.02988289e+00  -4.37893720e-01
C     6.069141100974301e+00   6.386514023122749e+00   3.520835100000000e+00 -5.04777680e-01  -6.88306040e-01   4.04729230e-01
C     7.429572341812082e+00   6.760802026370390e+00   3.616898700000000e+00  5.04918100e-01   5.76997050e-01  -6.07721380e-01
C     8.472969409957752e+00   5.797636082721914e+00   3.465028800000000e+00 -9.82453960e-01  -2.54890890e-01   8.96971980e-01
C     9.822036680435854e+00   6.196170279760057e+00   3.477701700000000e+00  3.45145830e-01  -1.26891723e+00  -3.50432020e-01
C     1.080898313548401e+01   5.159786311099803e+00   3.469821300000000e+00  1.59810860e+00   8.89731960e-01  -3.34165220e-01
C     3.310688560200783e+00   5.590252193488006e+00   3.441593100000000e+00 -4.57171900e-01  -7.02637660e-01   1.72818660e-01
C     4.336836144793756e+00   4.583262376395118e+00   3.441088800000000e+00  1.65964220e-01   2.77217550e-01   8.06107470e-01
C     5.719643018621159e+00   5.000896887626110e+00   3.451164000000000e+00 -8.62162600e-02  -3.75661900e-01  -4.13757700e-01
C     6.763364931601163e+00   4.019492843247347e+00   3.384905400000000e+00 -6.21155950e-01   2.09386410e-01   1.02238680e+00
C     8.136348870543703e+00   4.407696642350826e+00   3.466053000000000e+00 -7.12525610e-01   3.02314120e-01  -1.19887328e+00
C     9.128743031454965e+00   3.406298897628536e+00   3.402666000000000e+00  7.03357880e-01   3.00882730e-01   7.98740540e-01
C     1.048904277900246e+01   3.769605878910177e+00   3.472561500000000e+00  5.59521600e-01   8.55975050e-01   7.77947280e-01
C     2.625285441411426e+00   2.793562151435507e+00   3.698843700000000e+00  3.23343530e-01   3.33145830e-01  -1.24821426e+00
C     3.996886056801634e+00   3.192120593897745e+00   3.626650200000000e+00  5.19452530e-01   6.15295800e-01  -5.65134360e-01
C     5.062767320957554e+00   2.213666255511280e+00   3.571528500000000e+00 -1.07999127e+00   1.56107628e+00   3.08753140e-01
C     6.412827523496882e+00   2.638428613547652e+00   3.451548000000000e+00  4.81986480e-01   1.19610530e-01  -4.80423330e-01
C     7.454252014641863e+00   1.675687311184030e+00   3.404203800000000e+00 -8.13037450e-01  -1.08533557e+00   8.03977540e-01
C     8.815974635943665e+00   2.041977249325297e+00   3.476763600000000e+00 -1.14506010e+00   2.07094170e-01  -4.27467680e-01
C     2.277461176566036e+00   1.409097250855357e+00   3.683811000000000e+00  3.01879570e-01   1.31862649e+00   4.22530000e-01
