26
Lattice="8.88768389401873 1.33226762955019e-15 0 4.44384194700937 7.69696003302603 0 0 0 30 " PBC="1 1 1" Properties=species:S:1:pos:R:3:force:R:3 Energy="-208.82708367"
C     1.324980367543707e+01   7.587328995569497e+00  -2.117915999999980e-01  1.92253490e-01  -1.33815550e-01   2.30136920e-01
C     9.471367069686124e+00   7.358821800138058e+00  -2.125781999999994e-01  8.53675530e-01   5.41111320e-01   3.90732490e-01
C     1.087224331535778e+01   6.977774326592070e+00  -3.139725000000020e-01 -1.25869008e+00  -5.17629720e-01   1.82479900e-01
C     1.120602121615277e+01   5.591143501459480e+00  -2.889756000000006e-01  2.79368920e-01  -2.01326370e-01  -1.69510880e-01
C     7.077199050180285e+00   6.757834694339625e+00  -7.061039999999963e-02  3.55369910e-01   2.21573974e+00   3.75629070e-01
C     8.444229795761373e+00   6.376599491938506e+00  -1.132586999999994e-01  2.05885490e-01  -2.36744430e-01  -5.79049540e-01
C     8.757648679068762e+00   4.988766555588429e+00  -1.915113000000019e-01  2.02817779e+00   7.62045880e-01   5.03813000e-02
C     1.017988682846059e+01   4.581853909679229e+00  -2.260662000000018e-01 -1.08591685e+00   1.87342518e+00   1.84356680e-01
C     1.051300939591092e+01   3.236735022106836e+00  -1.083639000000005e-01  8.79644800e-02  -1.51151479e+00   3.28936000e-03
C     4.715140988321284e+00   6.199969037413264e+00  -1.866137999999999e-01 -1.18124056e+00   1.16134640e+00  -6.65955940e-01
C     6.044651043215174e+00   5.829542214164673e+00  -1.447560000000010e-01  7.88057150e-01  -1.62086313e+00   9.73714800e-02
C     6.364624860019696e+00   4.438230251881036e+00  -1.942056000000001e-01  1.18603926e+00   5.59563920e-01  -2.83414610e-01
C     7.726927446642217e+00   4.047875229418771e+00  -2.097510000000007e-01  5.96087870e-01  -9.96109610e-01   2.57705250e-01
C     8.103013033553367e+00   2.664238059920248e+00  -1.990844999999979e-01 -4.71666960e-01  -5.14979280e-01  -1.75726800e-02
C     9.462524176403949e+00   2.249607749158567e+00  -7.877369999999928e-02  7.51140760e-01   5.17606450e-01  -4.44399980e-01
C     3.722290621293821e+00   5.196883811173996e+00  -2.980892999999973e-01 -2.53029632e+00   2.15612442e+00   7.46964790e-01
C     4.019964261620816e+00   3.879018550584628e+00  -1.780091999999982e-01  7.07539000e-03  -3.93679502e+00  -3.25222420e-01
C     5.380290049574146e+00   3.460373197592898e+00  -2.326428000000007e-01 -1.02683300e+00  -2.05417600e-01   6.78506990e-01
C     5.716555079841208e+00   2.092661038396445e+00  -2.047253999999974e-01 -5.70014370e-01  -1.68699878e+00  -3.02543050e-01
C     7.059202909037611e+00   1.685774023364145e+00  -2.694236999999973e-01  1.39861889e+00  -9.75152530e-01   1.96810390e-01
C     7.436169754224227e+00   2.703549513577470e-01  -3.128048999999997e-01 -3.90461800e-02   1.28050838e+00   3.79224800e-01
C     3.000343524099505e+00   2.813007366407298e+00  -8.696339999999836e-02  5.96285300e-02   2.62604209e+00   7.46493000e-03
C     3.356873006913373e+00   1.470810783649495e+00   2.887500000000000e-03 -1.15942617e+00  -1.57909050e+00  -3.09622620e-01
C     4.698591317682020e+00   1.051420287957261e+00  -1.289192999999997e-01  6.59359700e-01   6.08136540e-01  -9.69103400e-02
C     9.686266734319260e-01   8.731527670032374e-01  -6.770159999999947e-02 -2.53929658e+00   1.08288350e-01  -8.93317400e-02
C     2.284786049509617e+00   4.682190095177504e-01   2.600100000000000e-02  2.41372392e+00  -2.93501360e-01  -4.97520550e-01
