26
Lattice="8.88768389401873 1.33226762955019e-15 0 4.44384194700937 7.69696003302603 0 0 0 30 " PBC="1 1 1" Properties=species:S:1:pos:R:3:force:R:3 Energy="-208.46765436"
C     1.315507451877451e+01   7.413231379681327e+00  -2.203932000000002e-01 -5.89344000e-01   2.54682281e+00   7.75728700e-02
C     9.366421209352573e+00   7.230141097511706e+00  -1.960770000000025e-01  1.39777630e-01  -4.80040650e-01   3.22787640e-01
C     1.074830238593687e+01   6.835684057171054e+00  -5.600100000002328e-03 -5.56516360e-01   3.32021220e-01  -7.11844840e-01
C     1.108886163398030e+01   5.452050197365343e+00  -2.405309999999972e-02 -8.64439010e-01  -5.37258030e-01  -6.64467290e-01
C     6.947816280800765e+00   6.631745635124974e+00  -3.692478000000001e-01  1.52638356e+00  -3.47917410e-01   5.23621970e-01
C     8.328507174305631e+00   6.215019365177525e+00  -1.970892000000006e-01 -7.04652500e-02   1.87076820e+00  -5.51715800e-01
C     8.637327836606998e+00   4.839728933074734e+00  -1.182912000000016e-01  1.74216275e+00   9.36533450e-01  -3.06541580e-01
C     1.003588417458463e+01   4.448469825687345e+00  -1.294526999999981e-01  5.52627150e-01  -4.74982670e-01   3.98725000e-02
C     1.040149420397681e+01   3.026057064888889e+00  -2.972840999999988e-01  1.02493903e+00   4.62521552e+00   5.44933570e-01
C     4.604630460222326e+00   6.063532723921484e+00  -1.820444999999999e-01 -1.15114956e+00  -2.47897080e-01  -2.16947690e-01
C     5.929807413697368e+00   5.669833526265385e+00  -2.504415000000009e-01  5.62352030e-01  -1.60471660e-01  -8.11388900e-02
C     6.236948081550763e+00   4.293515934846591e+00  -1.639983000000029e-01  1.85527193e+00   1.19278088e+00  -3.30018500e-02
C     7.590065069138321e+00   3.932454464684103e+00  -1.685391000000003e-01  1.42274191e+00  -3.66816804e+00   3.36903920e-01
C     7.988642317683643e+00   2.486509249198725e+00  -1.608155999999994e-01 -1.02165826e+00   2.14394277e+00   4.50453700e-02
C     9.366479153737945e+00   2.129225293079759e+00  -2.794914000000013e-01 -9.04302720e-01  -2.45414132e+00  -3.57908870e-01
C     3.578604502296332e+00   5.089239670005638e+00  -1.382003999999988e-01 -9.42525750e-01  -1.42407670e-01   2.57719990e-01
C     3.910195410730357e+00   3.723921111439314e+00  -2.407854000000000e-01  9.02602800e-02  -1.76815400e-01   2.75568430e-01
C     5.266898223244370e+00   3.338530166378797e+00  -1.544594999999980e-01 -1.44652653e+00  -2.54613058e+00  -5.45730790e-01
C     5.582315857766569e+00   1.927279537015847e+00  -1.692846000000010e-01  3.59284070e-01   2.85678210e-01  -1.09529800e-01
C     6.941612363059225e+00   1.524988992574262e+00  -8.422080000000065e-02  1.48017982e+00  -8.07508880e-01  -5.14213930e-01
C     7.338901475169936e+00   1.252069875952121e-01  -7.213889999999878e-02 -6.66519230e-01   1.92076090e-01  -1.16210110e-01
C     2.921385162621169e+00   2.742351890298308e+00  -3.528336000000003e-01 -1.95618918e+00  -2.87588785e+00  -1.45630000e-04
C     3.211647096642414e+00   1.302318478903172e+00  -4.188909000000010e-01  1.01466996e+00   1.22259059e+00  -2.44182760e-01
C     4.587100478057434e+00   9.264348958413121e-01  -3.428622000000026e-01 -4.48462270e-01  -5.37355400e-01   9.34239490e-01
C     8.337716237639980e-01   7.438663136225251e-01  -3.961562999999977e-01 -7.92549410e-01  -1.30136678e+00   6.29947240e-01
C     2.192285701782871e+00   3.068996557625852e-01  -4.768371000000009e-01 -3.60002610e-01   1.40991969e+00   4.65366870e-01
