52
Lattice="8.88768389401873 1.33226762955019e-15 0 4.44384194700937 7.69696003302603 0 0 0 30 " PBC="1 1 1" Properties=species:S:1:pos:R:3:force:R:3 Energy="-417.53399674"
C     1.221327007538939e+01   6.475941692018506e+00  -2.009588999999998e-01  1.53441293e+00   5.09577290e-01  -1.53267640e-01
C     8.441710181726474e+00   6.237279512371487e+00  -2.005617000000015e-01  3.82612260e-01  -5.34477740e-01  -6.90259200e-02
C     9.789809716201521e+00   5.800400061068687e+00  -2.692103999999986e-01  1.55645275e+00   3.26830674e+00   9.49961830e-01
C     1.013120151805458e+01   4.449459423838403e+00  -1.805445000000034e-01  2.31021506e+00  -8.71683800e-02   5.87171320e-01
C     6.036409760482867e+00   5.688492342830910e+00  -2.837874000000014e-01  1.18085942e+00  -2.80426195e+00   6.49611050e-01
C     7.406723616447906e+00   5.237962948671708e+00  -2.259650999999998e-01 -2.33402170e-01   1.96828490e+00  -4.88778370e-01
C     7.724786047976551e+00   3.879758690261113e+00  -2.568705000000016e-01  9.01149480e-01  -1.08221897e+00   1.04434210e+00
C     9.127356108421299e+00   3.463824129622349e+00  -1.894565999999998e-01 -1.01335898e+00  -3.43539700e-01  -3.02703450e-01
C     9.471550241415946e+00   2.070777965274353e+00  -1.552719000000025e-01  1.20544580e+00   2.01822874e+00   2.74832220e-01
C     3.691499818099906e+00   5.109964889430417e+00  -6.950849999999775e-02 -1.10175041e+00  -1.17578263e+00  -6.15683380e-01
C     5.030283593380092e+00   4.657233164097831e+00  -1.905444000000003e-01 -2.76176940e-01   4.05275464e+00   8.22466730e-01
C     5.361720211669742e+00   3.365735225544033e+00   3.449820000000000e-02 -5.13765740e-01  -3.51751044e+00  -7.23189020e-01
C     6.674130718215849e+00   2.917139923501169e+00  -7.510230000000107e-02  2.89046005e+00  -5.51440010e-01  -1.13342566e+00
C     7.084524098082071e+00   1.513628587448383e+00  -2.024808000000000e-01 -1.35615390e-01   3.10225551e+00   1.29405167e+00
C     8.444316580589829e+00   1.135386501894131e+00  -2.022785999999996e-01  5.80374110e-01  -1.18504436e+00  -5.30869990e-01
C     2.683753292930991e+00   4.112978811288522e+00   2.556870000000000e-02 -2.22692611e+00  -5.30301170e-01  -9.89817490e-01
C     3.009049810290819e+00   2.704493930573151e+00   4.606200000000000e-02 -2.39183641e+00   1.86376038e+00  -1.16383400e-02
C     4.322857860757857e+00   2.360035188043374e+00   5.864820000000000e-02  2.06238414e+00  -1.90915847e+00  -4.69934800e-02
C     4.652599019958521e+00   9.581486032833209e-01  -5.167799999999900e-02  2.61929363e+00   4.62568960e-01   6.05113790e-01
C     6.085306861006438e+00   6.030717504529581e-01  -1.018128000000011e-01 -2.66694839e+00  -3.47616377e+00  -8.04579900e-01
C     1.088835664175431e+01   6.889075713750355e+00  -2.026254000000023e-01 -3.13648984e+00  -1.21381996e+00   1.40882730e-01
C     1.979187216977534e+00   1.721496538498578e+00  -4.827269999999828e-02 -4.59839090e-01  -1.21211864e+00  -4.09483500e-02
C     2.349213358755114e+00   3.208572461113869e-01  -7.576229999999740e-02 -1.89598017e+00   6.24951720e-01  -2.65062390e-01
C     8.132059498635019e+00   7.625501299142280e+00  -5.848800000000054e-02  1.09669870e-01   4.09642000e-03  -5.26973110e-01
C     4.380347447370402e+00   7.464435945068104e+00  -2.726295000000007e-01 -7.77103660e-01  -7.29048820e-01   7.70786710e-01
C     5.744137743368068e+00   7.026045888389816e+00  -2.186550000000018e-01 -5.60758720e-01   2.54965612e+00  -7.10217400e-02
C     1.120490794930015e+00   1.241286973737293e+00   3.503880900000000e+00 -1.14629082e+00   4.46142600e-02   2.15290480e-01
C     3.479925478382215e+00   6.400053822481122e-01   3.636312000000000e+00  2.10652998e+00  -6.29471030e-01  -3.49870930e-01
C     4.889565914086842e+00   1.045006334194661e+00   3.719238900000000e+00 -5.38537630e-01  -1.65488510e-01  -9.78454990e-01
C     5.930435724872708e+00   7.065801610579971e-02   3.601019400000000e+00 -4.99866680e-01  -1.77940300e-02   6.00630600e-01
C     7.311555271934508e+00   5.204867559934714e-01   3.597465300000000e+00 -1.63700646e+00  -2.11471344e+00  -2.63250310e-01
C     1.272728647402013e+01   7.204098972037404e+00   3.583072200000000e+00 -6.63964200e-02  -1.71900714e+00  -2.84577080e-01
C     5.194907942056314e+00   7.586269432051767e+00   3.520507500000000e+00  1.35087950e+00  -1.80986654e+00   6.71037600e-02
C     6.260115430871925e+00   6.569934504877657e+00   3.476590800000000e+00 -1.02100534e+00   2.15948970e-01   3.29852870e-01
C     7.630006011425475e+00   6.941088306001081e+00   3.451362900000000e+00 -1.47140008e+00   1.89714701e+00   8.14641080e-01
C     8.625839928220470e+00   5.980031637279226e+00   3.451173000000000e+00  1.96074395e+00  -1.66113810e-01  -7.48526000e-02
C     9.991628131661709e+00   6.378333386124464e+00   3.545166600000000e+00  1.18951153e+00  -6.51867400e-02  -7.38836500e-01
C     1.101672101479228e+01   5.347983757158129e+00   3.456862200000000e+00 -1.17095444e+00   9.11198950e-01   1.11230294e+00
C     3.459998983367038e+00   5.774090543202941e+00   3.570833400000000e+00  2.59878197e+00   1.34832140e-01   8.60188400e-02
C     4.530437229664883e+00   4.766395607601707e+00   3.641787600000000e+00 -2.60956460e-01   4.19435580e-01  -9.93358600e-01
C     5.957837835218255e+00   5.184016033395842e+00   3.567398400000000e+00 -2.40051019e+00  -2.65358060e-01  -9.43936440e-01
C     6.975677435121982e+00   4.206317844362724e+00   3.376246200000000e+00 -5.20617270e-01  -2.78017300e-02   1.46595264e+00
C     8.338678416460983e+00   4.610907470765270e+00   3.370032900000000e+00 -1.27049896e+00  -1.14822264e+00   5.58810400e-02
C     9.310075957417911e+00   3.570653316662731e+00   3.439341300000000e+00  5.55182350e-01   2.96406255e+00  -1.06193430e-01
C     1.064279704412354e+01   3.968573373260081e+00   3.512488200000000e+00  2.06336900e+00   2.03710700e-02  -4.89165020e-01
C     2.782815683451517e+00   2.961619808848936e+00   3.566467200000000e+00  4.03204170e-01   1.42821112e+00   1.83946890e-01
C     4.146954243880394e+00   3.351395481129742e+00   3.576312300000000e+00  1.79128270e+00   2.08908418e+00   7.75224440e-01
C     5.243737673889835e+00   2.429786348318439e+00   3.651363000000000e+00 -3.07703720e-01  -5.14064670e-01  -9.14996900e-02
C     6.636965312628692e+00   2.830254406564120e+00   3.557179500000000e+00 -1.37972317e+00   5.81816290e-01  -6.67663530e-01
C     7.659746775852301e+00   1.865033528526834e+00   3.520119600000000e+00 -1.00155292e+00   4.71439100e-02   2.63691480e-01
C     8.998768208343744e+00   2.249790782868081e+00   3.468528000000000e+00 -3.77275600e-02  -2.11452239e+00   3.93969600e-02
C     2.456699942031902e+00   1.603470506732955e+00   3.606938700000000e+00  6.99940720e-01  -3.17009900e-02  -3.98203520e-01
