52
Lattice="8.88768389401873 1.33226762955019e-15 0 4.44384194700937 7.69696003302603 0 0 0 30 " PBC="1 1 1" Properties=species:S:1:pos:R:3:force:R:3 Energy="-419.2221324"
C     1.286205446868277e+01   7.115430685218206e+00  -1.280040000000007e-01 -1.64189405e+00  -2.54302329e+00   5.10640360e-01
C     9.039134827316728e+00   6.899288502135761e+00  -1.710656999999998e-01  9.80834040e-01   1.76998483e+00   4.91767580e-01
C     1.042390414566764e+01   6.519789426039009e+00  -4.135649999999913e-02  3.89438350e-01  -3.34613220e-01  -6.92765490e-01
C     1.076837344134496e+01   5.110486974229252e+00  -4.961369999999832e-02  4.22363480e-01   1.57773505e+00  -3.36348280e-01
C     6.675470938711630e+00   6.309325752188298e+00  -1.659531000000030e-01 -7.70301260e-01   4.71431650e-01   7.05735300e-02
C     8.006278950960404e+00   5.938265315190036e+00  -1.604390999999978e-01  2.04029595e+00  -1.44170280e+00   8.59554500e-02
C     8.373623678507117e+00   4.535695009470518e+00  -1.072866000000019e-01 -4.28992900e-02   5.66378640e-01  -4.30141500e-02
C     9.740704372861435e+00   4.138709363820810e+00  -1.090751999999995e-01  1.25457110e-01   7.84864220e-01   8.88539300e-02
C     1.012391539372788e+01   2.796643167565916e+00  -1.671942000000008e-01 -1.02295334e+00  -2.49225407e+00   3.84039380e-01
C     4.309849804344247e+00   5.694687625959057e+00  -6.037770000000009e-02 -1.69019440e-01   1.14679476e+00  -4.74806720e-01
C     5.691681832034837e+00   5.297461373338811e+00  -7.200780000000151e-02 -1.62818127e+00   9.09630990e-01  -1.92887790e-01
C     6.012948451359847e+00   3.939785280325475e+00  -5.167559999999938e-02 -6.12532780e-01  -4.75689840e-01  -4.20397000e-03
C     7.361966883499956e+00   3.545507733092722e+00  -7.573500000000166e-02  6.12841800e-02   9.46978170e-01  -9.10907000e-03
C     7.683322557422731e+00   2.195817390049712e+00  -7.964219999999855e-02  2.16301441e+00  -1.73342818e+00  -1.97036690e-01
C     9.071757067699902e+00   1.765310251955749e+00  -1.430642999999989e-01  2.88039630e-01   1.24515640e+00  -1.27159030e-01
C     3.264565924100907e+00   4.739398520296482e+00  -8.714429999999851e-02  4.33848100e-02  -5.94473020e-01   7.10579350e-01
C     3.629250301233880e+00   3.344609071471291e+00  -5.784870000000097e-02 -1.06966216e+00   1.12650912e+00  -5.14709330e-01
C     4.962931701676352e+00   2.961326477702192e+00  -5.674229999999980e-02  1.53837612e+00   4.16343320e-01   2.64279890e-01
C     5.303591247247125e+00   1.600236321097949e+00  -6.146610000000052e-02  7.22911760e-01  -1.12085271e+00  -5.54357030e-01
C     6.704341732172698e+00   1.189881748602534e+00  -7.406280000000010e-02 -1.66934170e+00   7.06366500e-02   1.30047350e-01
C     1.149494884437374e+01   7.510254177825887e+00  -7.883730000000000e-02 -1.19110301e+00  -6.02347960e-01   4.83044700e-02
C     2.611471136319580e+00   2.381095302199058e+00  -1.453272000000005e-01 -1.56880823e+00   1.27838280e-01  -1.02565400e-01
C     2.905934545186050e+00   1.002491790620955e+00  -2.176890000000000e-01 -2.56392040e-01  -4.66397260e-01   2.23612570e-01
C     4.263557632943537e+00   6.403192642781357e-01  -1.875417000000006e-01  9.39497890e-01  -2.20693213e+00   4.07148290e-01
C     5.093567190478998e-01   3.670584796002628e-01  -1.722180000000009e-01  1.80157715e+00   2.18694854e+00  -4.21538800e-02
C     6.327690447501200e+00   7.683143986746150e+00  -2.144904000000025e-01  1.43917360e-01   6.56539320e-01   1.02324570e-01
C     5.019355476057733e-01   6.250666604042865e-01   3.524343000000000e+00  5.75535900e-02  -1.29431177e+00  -1.19780780e-01
C     7.349136936782093e+00   7.666161414135957e+00   3.600039900000000e+00 -4.78876350e-01   1.80879166e+00   1.59169900e-02
C     4.266651613288367e+00   3.771511184396003e-01   3.595168200000000e+00 -3.04719290e-01   2.17093250e-01  -1.14744130e-01
C     9.696949462650021e+00   7.077448804436566e+00   3.576263100000000e+00  1.51717431e+00   7.46792140e-01  -5.16330550e-01
C     1.108838854388230e+01   7.477066656477334e+00   3.494526600000000e+00 -5.78960850e-01   1.44137540e-01  -3.25699200e-02
C     1.213022324608298e+01   6.523177858753017e+00   3.441529500000000e+00  5.38175570e-01   2.02763190e-01   3.92602440e-01
C     4.614634926596787e+00   6.933693990439462e+00   3.469896300000000e+00 -1.71586410e-01  -2.58568860e-01   7.29700000e-03
C     5.641394072715776e+00   5.922921733248632e+00   3.483505800000000e+00 -7.59745570e-01   1.20215876e+00  -2.41962130e-01
C     6.987849252898962e+00   6.322006108989720e+00   3.567714000000000e+00  9.96927500e-01  -1.51341802e+00  -3.52550740e-01
C     8.024305795343837e+00   5.303673974627026e+00   3.522472500000000e+00 -1.25969772e+00   7.97957220e-01   2.55409760e-01
C     9.356982665831573e+00   5.716153369908323e+00   3.531026400000000e+00  1.32955693e+00  -3.47684220e-01   2.26322880e-01
C     1.041503059204949e+01   4.756361080810596e+00   3.532953900000000e+00  2.68633920e-01  -1.74085520e-01  -9.16537300e-02
C     1.181269682900048e+01   5.157804959648881e+00   3.490704300000000e+00 -1.57115145e+00  -1.12368084e+00  -2.64297950e-01
C     3.926570746385487e+00   4.154799935733125e+00   3.439605900000000e+00  2.62390850e-01  -4.96665510e-01   4.61472370e-01
C     5.298844203896488e+00   4.571678605489169e+00   3.385311000000000e+00  6.44198100e-02  -2.07412994e+00   9.48037680e-01
C     6.323427378354086e+00   3.538429377740334e+00   3.477355500000000e+00 -7.36786780e-01   8.89157430e-01  -7.29753360e-01
C     7.688995656056167e+00   3.934729840008170e+00   3.502155000000000e+00 -7.09498530e-01  -1.66958010e-01  -3.05665230e-01
C     8.696442620550059e+00   2.946651530678595e+00   3.474649200000000e+00 -1.55206690e-01   9.34062630e-01   5.22311420e-01
C     1.004650993324213e+01   3.380079126316740e+00   3.548777400000000e+00  5.00403850e-01  -5.74274820e-01  -1.53715550e-01
C     2.151786305174978e+00   2.372854705882140e+00   3.603718800000000e+00  3.04637960e+00   1.86518460e-01  -1.92279580e-01
C     3.579368708281230e+00   2.758010354874539e+00   3.579378600000000e+00 -7.45209910e-01   3.04569840e-01  -6.59877370e-01
C     4.618542704526781e+00   1.759518289533173e+00   3.534025200000000e+00 -1.50036062e+00   4.78511320e-01   9.85058800e-02
C     5.959168052904709e+00   2.164710895784470e+00   3.438657900000000e+00  9.95831550e-01  -3.67972540e-01   5.26734110e-01
C     6.988093394215930e+00   1.150434982387984e+00   3.451996800000000e+00 -4.25107030e-01   1.08970472e+00   1.86948400e-01
C     8.342329697231024e+00   1.587436969294462e+00   3.489474900000000e+00  5.25422500e-01  -7.60198130e-01  -2.47274990e-01
C     1.878469849612534e+00   9.835327926142593e-01   3.580608900000000e+00 -6.72945320e-01   1.77189340e-01   1.06859060e-01
