52
Lattice="8.88768389401873 1.33226762955019e-15 0 4.44384194700937 7.69696003302603 0 0 0 30 " PBC="1 1 1" Properties=species:S:1:pos:R:3:force:R:3 Energy="-419.2161998"
C     1.316178436468104e+01   7.531661732757326e+00  -2.552871000000003e-01 -1.73088000e-03  -3.25328030e-01   2.88914740e-01
C     9.452190780686852e+00   7.287837125048585e+00  -2.788377000000004e-01 -2.17302909e+00   2.93908000e-03   3.48414580e-01
C     1.075797858518564e+01   6.903481498081704e+00  -2.983334999999983e-01  2.59138428e+00  -2.55738580e-01  -2.15254340e-01
C     1.112286022447604e+01   5.529462064988667e+00  -2.969138999999998e-01 -5.32256050e-01  -3.15894470e-01   6.59927900e-02
C     7.039176738584553e+00   6.722794591681451e+00  -1.617188999999968e-01 -2.30361300e-02  -2.50783380e-01  -1.73793880e-01
C     8.424527800270674e+00   6.322036742890640e+00  -2.507279999999987e-01 -1.32965121e+00  -1.01780781e+00   8.60940900e-02
C     8.753867724986007e+00   4.926125539110677e+00  -2.926952999999983e-01 -1.42038466e+00  -1.66169710e-01  -4.20202800e-02
C     1.009912728897616e+01   4.528216258257369e+00  -2.776934999999980e-01  3.96269910e-01   2.11352350e-01   3.94803000e-03
C     1.042550654844510e+01   3.149311179785290e+00  -2.030741999999996e-01  9.01555990e-01   5.51550340e-01   1.25627030e-01
C     4.604326234858162e+00   6.148798723498620e+00  -2.296037999999996e-01  5.64405510e-01  -6.96638940e-01  -3.88574400e-02
C     5.980544001498849e+00   5.730901976839408e+00  -1.834953000000006e-01  6.16095090e-01   1.15628895e+00  -4.03747560e-01
C     6.340799156951133e+00   4.373538149494489e+00  -2.674121999999990e-01 -6.28268030e-01  -1.87193720e+00   3.35875460e-01
C     7.693094078153109e+00   3.913679962809326e+00  -3.161693999999997e-01  8.68158810e-01   2.11267892e+00   5.39980030e-01
C     8.059535061594685e+00   2.559168013094722e+00  -2.641128000000030e-01 -8.65284240e-01  -3.24792450e-01  -2.40872100e-02
C     9.421369622789790e+00   2.178404326465042e+00  -1.862634000000014e-01 -7.84360750e-01   1.26703600e-01  -2.36951460e-01
C     3.584036832479304e+00   5.144237528203999e+00  -2.774780999999997e-01  9.39769380e-01  -7.64425860e-01  -1.55527100e-02
C     3.936809135752021e+00   3.719691939781230e+00  -2.680568999999977e-01 -2.59605940e-01   1.82879161e+00   8.19659480e-01
C     5.306290660176827e+00   3.355469020256019e+00  -2.114814000000003e-01  1.67701760e-01  -4.88622690e-01  -5.33914710e-01
C     5.641183565339904e+00   1.946769240416611e+00  -2.186069999999987e-01  1.17738647e+00   1.05914170e+00  -1.40425060e-01
C     7.031862126953739e+00   1.564408896398307e+00  -2.652960000000029e-01 -1.06453461e+00   1.04395181e+00   5.50155000e-03
C     7.336900990896193e+00   2.093142098398320e-01  -3.032219999999981e-01  9.66547710e-01  -9.43584490e-01   2.87345720e-01
C     2.898742765838617e+00   2.759086697765134e+00  -1.530717000000017e-01  1.20359351e+00  -5.26632900e-01  -3.41791910e-01
C     3.296831458440547e+00   1.374782278801610e+00  -9.990120000000147e-02 -6.68005470e-01   3.28496300e-01  -4.70314930e-01
C     4.649624401025832e+00   9.403763225740509e-01  -2.082885000000019e-01 -3.22887590e-01   1.91999834e+00   3.04645580e-01
C     8.555729790834092e-01   8.246835472719217e-01  -1.651986000000001e-01  1.49777289e+00  -1.53890266e+00   6.19271000e-02
C     2.274017864991198e+00   4.181060270024279e-01  -1.114011000000019e-01 -1.86781267e+00  -8.35459880e-01  -9.60721200e-02
C     1.658818652814605e-01   1.760554916110014e-01   3.689664300000000e+00 -1.22862175e+00   5.53894040e-01  -3.91512000e-01
C     6.965415628451949e+00   7.325433003284720e+00   3.563512800000000e+00  1.31087976e+00  -8.65663130e-01   4.91881500e-01
C     3.915648135701371e+00   1.281820935556080e-02   3.566279700000000e+00 -1.52021240e-01   2.34611850e-01   9.90618300e-02
C     9.416327731564563e+00   6.748443094619820e+00   3.557209500000000e+00 -7.97162010e-01  -1.36828446e+00  -9.50108000e-03
C     1.078711214648938e+01   7.123371946759558e+00   3.632428200000000e+00 -1.36222319e+00   3.22899530e-01  -2.70517310e-01
C     1.175994855904874e+01   6.112457603686575e+00   3.660091200000000e+00  3.98661320e-01  -5.07330190e-01   1.81652440e-01
C     4.222075927539969e+00   6.502825634011290e+00   3.732139500000000e+00  1.80812725e+00  -3.53208250e-01  -4.30694310e-01
C     5.277266774438129e+00   5.515239237397232e+00   3.709533900000000e+00 -4.39911140e-01   3.88767400e-01  -1.09822380e-01
C     6.646227392218536e+00   5.933634593127187e+00   3.662224500000000e+00 -4.85356900e-02   5.62392500e-02  -6.85369550e-01
C     7.695664174826105e+00   4.966788425009966e+00   3.577694100000000e+00 -7.15997000e-01  -1.17483206e+00   4.16630660e-01
C     9.068597320632854e+00   5.320570110376081e+00   3.520995000000000e+00 -3.42312570e-01   1.46090082e+00   2.92427500e-01
C     1.006635066605584e+01   4.323629521267963e+00   3.563040600000000e+00  2.13200220e-01  -5.56166270e-01  -3.89122800e-02
C     1.142120550740010e+01   4.712658434486658e+00   3.634888500000000e+00  8.21975500e-02   8.82035850e-01  -2.07963940e-01
C     3.553000061777453e+00   3.739168096532341e+00   3.649944900000000e+00  3.95359110e-01   7.29036700e-02   3.50084940e-01
C     4.918438223788765e+00   4.137594305221264e+00   3.671229900000000e+00  4.34860830e-01   1.20494110e-01   2.53822170e-01
C     5.949156610907424e+00   3.155719899615069e+00   3.687027000000000e+00  7.57483800e-01   4.43148270e-01  -1.28051100e-02
C     7.331957663296441e+00   3.564982196512626e+00   3.654891000000000e+00  5.16313290e-01  -3.25672030e-01  -6.65075790e-01
C     8.375895502534215e+00   2.549195138953452e+00   3.580464600000000e+00 -3.88530960e-01   7.12570960e-01   4.27841960e-01
C     9.755370828022423e+00   2.915986457071073e+00   3.566549400000000e+00 -1.03645527e+00   1.58451922e+00   3.14322980e-01
C     1.885322254522486e+00   1.954523542798834e+00   3.651708900000000e+00 -7.13348920e-01   2.47632470e-01  -6.00869310e-01
C     3.232973272572915e+00   2.353366233994981e+00   3.685990200000000e+00 -2.95541430e-01   1.03337486e+00  -4.14834510e-01
C     4.249636276469133e+00   1.413026087133071e+00   3.651662700000000e+00  4.81986720e-01  -2.06407301e+00  -1.00750700e-02
C     5.609310331070950e+00   1.776606464434977e+00   3.691345800000000e+00  9.39162090e-01   4.42255590e-01  -4.52240150e-01
C     6.665194417331118e+00   8.176349021852487e-01   3.639634800000000e+00 -3.46835080e-01  -8.62990930e-01   4.02574890e-01
C     8.031108603664599e+00   1.174528468491492e+00   3.647275500000000e+00 -1.99097000e-02   3.85239960e-01  -7.13280900e-02
C     1.506024612437027e+00   6.010532996546910e-01   3.596913900000000e+00  5.76681730e-01  -8.69807220e-01   5.71899400e-01
