52
Lattice="8.88768389401873 1.33226762955019e-15 0 4.44384194700937 7.69696003302603 0 0 0 30 " PBC="1 1 1" Properties=species:S:1:pos:R:3:force:R:3 Energy="-419.35402859"
C     1.281607656907074e+01   7.120005835229638e+00  -1.260300000000214e-02  7.34285930e-01  -7.23477520e-01  -6.41025500e-01
C     9.115985785595280e+00   6.917285764986707e+00  -1.288382999999982e-01 -1.21506926e+00   1.26433705e+00  -3.65400570e-01
C     1.046103035653151e+01   6.549205590912063e+00  -1.545947999999981e-01 -2.96333580e-01  -1.93833547e+00   4.10265940e-01
C     1.080753079905893e+01   5.158838045624107e+00  -1.462778999999976e-01  2.56199970e-01   3.03904800e-02   5.76115910e-01
C     6.696423875684133e+00   6.324305652768283e+00  -1.338699000000005e-01 -1.62124910e-01   9.13278490e-01   9.74060600e-02
C     8.090536060674523e+00   5.974136073774648e+00  -1.649436000000009e-01 -1.12925130e+00  -2.24958387e+00   2.48143480e-01
C     8.429140418191967e+00   4.565930515738765e+00  -1.515255000000018e-01 -1.04790280e-01   4.15845860e-01   1.04773340e-01
C     9.808439811481744e+00   4.169446711883014e+00  -1.693587000000001e-01 -1.76699227e+00   7.49282930e-01   1.07238760e-01
C     1.007638157173767e+01   2.804337818507907e+00  -1.351817999999980e-01  1.48987128e+00  -2.20676814e+00  -3.86139000e-03
C     4.273542549150372e+00   5.723691772561705e+00  -3.019019999999983e-02  5.72485750e-01   1.20486673e+00   4.42119180e-01
C     5.639332129691839e+00   5.366497409057489e+00  -7.169640000000044e-02  1.34961906e+00  -1.42198671e+00   1.77183640e-01
C     6.013154290135520e+00   3.965617971517361e+00  -2.379660000000072e-02  1.57473270e-01   1.72516810e-01  -1.49300400e-02
C     7.411926154447103e+00   3.573769276991675e+00  -5.173350000000099e-02 -1.10249148e+00   2.15878970e-01  -4.13457340e-01
C     7.729924505748730e+00   2.175276666756851e+00  -6.624539999999968e-02 -4.88558840e-01   3.58124800e-01  -6.96211900e-02
C     9.078577254136247e+00   1.782636339892079e+00  -1.240005000000011e-01  1.69811730e-01   2.53393330e-01   2.74327550e-01
C     3.267808862202574e+00   4.745377980665388e+00   2.432610000000000e-02 -3.61591530e-01  -3.75078690e-01  -1.07594617e+00
C     3.592951711521786e+00   3.358201210157868e+00  -1.724519999999785e-02  4.28010630e-01  -5.19545920e-01   1.83686670e-01
C     4.987666925837008e+00   2.966306564780803e+00   8.000999999999999e-03 -4.41801080e-01   1.48245150e-01  -6.70721210e-01
C     5.327091483274653e+00   1.577210942137805e+00  -1.081187999999997e-01  1.05708420e-01   6.33812520e-01   8.93540830e-01
C     6.702468563918417e+00   1.193539805826392e+00  -7.204890000000219e-02 -7.22783740e-01  -7.93956800e-02  -5.96744100e-02
C     1.145282837731043e+01   7.494490572775646e+00  -5.931480000000278e-02  1.56200897e+00   1.89205033e+00  -1.12946750e-01
C     2.553569608856903e+00   2.353871077603348e+00  -9.701040000000205e-02  1.01718889e+00   1.65682341e+00   1.38397790e-01
C     2.945245348727601e+00   9.973011916855236e-01  -1.109217000000022e-01 -1.53413788e+00  -4.44909030e-01   2.39382300e-02
C     4.292466780059248e+00   5.988027855115192e-01  -9.171900000000122e-02  1.07934670e+00   1.28477520e-01  -3.29330090e-01
C     5.325960127074671e-01   3.918312224264180e-01  -9.655529999999857e-02 -4.19068640e-01   5.91514410e-01   1.57333860e-01
C     1.893682186484113e+00   1.645225206412500e-02  -1.279901999999993e-01  8.27100320e-01  -6.71980050e-01   8.47131100e-02
C     4.896485467873204e-01   5.748439192389361e-01   3.534454200000000e+00  2.23379240e-01  -2.44417330e-01   4.27908700e-02
C     2.860980283912407e+00   8.595964961504000e-04   3.646350600000000e+00  4.98307210e-01  -7.69053300e-02  -4.87815280e-01
C     4.230119455249213e+00   3.993158233291904e-01   3.586879200000000e+00  6.42737860e-01  -1.34194010e+00  -5.49876550e-01
C     9.719030513334708e+00   7.086310237549506e+00   3.439447500000000e+00 -1.17941680e-01   1.10778432e+00   5.68578180e-01
C     1.110289768784973e+01   7.503231240585714e+00   3.389924700000000e+00 -1.07542201e+00  -9.99239860e-01   2.22834870e-01
C     1.210111874762067e+01   6.480495752359457e+00   3.407574900000000e+00  5.62236510e-01   9.06794780e-01  -6.00135000e-02
C     4.589961338486488e+00   6.871108546013125e+00   3.453731400000000e+00 -1.10592760e-01   8.39308650e-01   2.54602030e-01
C     5.610604158327748e+00   5.893727394763643e+00   3.467311800000000e+00  2.41640800e-01   4.36499900e-02   5.91465910e-01
C     6.972938918895901e+00   6.319171164671471e+00   3.519717000000000e+00  4.22710860e-01  -7.33552800e-01   1.10222540e-01
C     8.012888987694883e+00   5.314761522519841e+00   3.467421000000000e+00 -9.32211130e-01   4.81266620e-01  -4.32798000e-03
C     9.383537421070807e+00   5.712201211841720e+00   3.466381500000000e+00 -2.15572340e-01  -8.12236450e-01  -3.39485530e-01
C     1.039372263650998e+01   4.689009447824883e+00   3.436048500000000e+00  8.73341070e-01   1.85565985e+00   7.79213700e-02
C     1.176960049422739e+01   5.113312759165066e+00   3.427313100000000e+00 -9.07414010e-01  -2.99362050e-01   2.95594680e-01
C     3.902033450938250e+00   4.139333202431241e+00   3.517571100000000e+00  3.13240710e-01   8.80831100e-02  -3.78780320e-01
C     5.257509719130233e+00   4.513184172288379e+00   3.535782600000000e+00  8.95487050e-01   1.87993730e-01  -1.25325595e+00
C     6.272328795206267e+00   3.505842142304520e+00   3.391838400000000e+00  7.39577500e-02   1.46977784e+00   1.11643489e+00
C     7.636142288622813e+00   3.935556647454593e+00   3.411415800000000e+00  1.24438882e+00  -5.70194320e-01   3.80398360e-01
C     8.692439785481273e+00   2.949105167596958e+00   3.509784900000000e+00  1.39047850e-01  -1.31888330e-01  -6.11237990e-01
C     1.009439815160058e+01   3.331016932784714e+00   3.502707000000000e+00 -2.00603980e+00   2.98609100e-02   7.63625300e-02
C     2.226303046582418e+00   2.371360725940317e+00   3.560058300000000e+00  5.44028900e-02  -4.60684420e-01   7.81450800e-02
C     3.596316010562277e+00   2.771984801565806e+00   3.502574400000000e+00 -1.28732543e+00  -8.51567010e-01   6.03745990e-01
C     4.584633924129035e+00   1.762591146885950e+00   3.525335100000000e+00 -3.31214470e-01   6.70398300e-02   6.98000800e-02
C     5.924974244472139e+00   2.148584763916816e+00   3.459136200000000e+00  1.66448998e+00  -4.49384890e-01  -4.47083110e-01
C     6.981672842514136e+00   1.176882968564669e+00   3.419041200000000e+00  7.64411200e-02  -9.83795000e-03   1.59193580e-01
C     8.360944995556627e+00   1.556003585136746e+00   3.481763400000000e+00 -6.08494800e-01   7.95548420e-01   3.23941500e-02
C     1.856547310790047e+00   1.005492219579849e+00   3.653889600000000e+00 -3.14500350e-01  -9.00477810e-01  -6.72577420e-01
