52
Lattice="8.88768389401873 1.33226762955019e-15 0 4.44384194700937 7.69696003302603 0 0 0 30 " PBC="1 1 1" Properties=species:S:1:pos:R:3:force:R:3 Energy="-418.76213407"
C     1.243130042595730e+01   6.747253529447183e+00  -8.573940000000135e-02  2.46011870e+00  -1.95090860e+00   7.05994770e-01
C     8.725380566110845e+00   6.521585280753208e+00   1.306413000000000e-01 -3.13492000e-02   2.75960159e+00  -3.90721590e-01
C     1.010469329095026e+01   6.161745010269080e+00   1.470426000000000e-01 -1.20689603e+00  -1.33403880e-01  -3.29257200e-01
C     1.043682137100503e+01   4.806329976234156e+00   1.414641000000000e-01  8.16037040e-01  -9.49206340e-01  -1.04695707e+00
C     6.338832624591182e+00   5.937512629468703e+00   6.248940000000000e-02 -3.24276060e-01   1.38649912e+00  -7.34619220e-01
C     7.700307456788881e+00   5.569127732746470e+00   8.158319999999999e-02  2.26869490e-01  -4.06656460e-01   5.08396440e-01
C     8.071476288110389e+00   4.208808349719630e+00   1.065714000000000e-01 -7.49079040e-01  -8.82505060e-01  -3.63587890e-01
C     9.431342671711651e+00   3.833577699777116e+00   9.757410000000000e-02 -5.73821820e-01  -1.14469012e+00   3.31651120e-01
C     9.745904200099561e+00   2.447597190797459e+00   6.320910000000000e-02 -3.54105650e-01  -2.14875143e+00   1.21876950e-01
C     3.912856339892438e+00   5.330790287843116e+00  -9.483660000000071e-02  1.16041912e+00   1.75967024e+00   3.65483700e-02
C     5.323934446851490e+00   4.978996265435148e+00  -4.230899999999949e-02 -1.43401163e+00  -2.19930615e+00  -3.79489600e-02
C     5.664433080861027e+00   3.549544711658857e+00  -3.773160000000075e-02  1.09344480e-01   9.74454370e-01   1.19220990e-01
C     7.067222444950353e+00   3.202256797530853e+00   4.223130000000000e-02 -1.67321626e+00  -1.41090680e+00  -2.14898760e-01
C     7.358320621149266e+00   1.762927042221660e+00   2.086500000000000e-02  6.17438210e-01   1.69171263e+00  -1.83617200e-02
C     8.712119116322736e+00   1.379121363048922e+00   3.340950000000000e-02  9.91785060e-01   1.85761543e+00   2.13831100e-02
C     2.894826586730989e+00   4.367477332258066e+00  -6.269100000000094e-02  5.41431330e-01  -2.80627740e-01   8.66306040e-01
C     3.252224174045036e+00   2.988678856682402e+00  -2.236800000000017e-02 -1.96036390e-01  -1.08542004e+00  -1.00345200e-02
C     4.615806898170839e+00   2.527795280982042e+00  -5.569470000000010e-02  8.22344780e-01   3.78543864e+00   1.00819410e-01
C     4.986910538355738e+00   1.205532208340334e+00   3.890400000000000e-03 -1.56070410e-01  -1.52826526e+00  -4.99660000e-03
C     6.360182793229308e+00   7.711441860296445e-01   8.368800000000001e-03 -1.60085374e+00   2.50183239e+00   1.07955080e-01
C     1.111067285566650e+01   7.130248949637562e+00   3.173160000000000e-02 -2.73845490e-01  -5.39091890e-01  -1.26798670e-01
C     2.215880814946963e+00   1.994198446908673e+00   7.605900000000000e-02 -2.85346480e-01   2.08453586e+00  -6.78491440e-01
C     2.552533659311613e+00   6.434955687737158e-01   5.180730000000000e-02  3.92487680e-01  -1.32719802e+00  -1.03566720e-01
C     3.935945428390373e+00   2.695805602091287e-01   4.431390000000000e-02 -2.21719500e-02  -2.70154913e+00   3.00536160e-01
C     1.504403587417776e-01   5.525570635936700e-03   1.635600000000000e-03  8.62888380e-01   2.16943290e-01  -4.08195010e-01
C     5.981516803977335e+00   7.329262625747647e+00   2.036160000000000e-02 -1.14669660e-01  -3.02600050e-01   3.29003010e-01
C     8.497351040240673e-01   9.844795186979494e-01   3.302402400000000e+00  7.41415040e-01  -8.51215150e-01  -4.92483060e-01
C     3.247373185615221e+00   3.935502614795183e-01   3.222279900000000e+00 -1.76677549e+00  -7.28553800e-01  -1.09231480e-01
C     4.576093037017501e+00   7.667265927900262e-01   3.283378800000000e+00  1.82019334e+00  -7.24670900e-01   7.10039440e-01
C     1.005868624057772e+01   7.463490835346020e+00   3.447147000000000e+00  5.80475840e-01   5.34438130e-01  -3.64332310e-01
C     7.001532593699217e+00   1.620822764333388e-01   3.511846800000000e+00 -7.60072400e-02  -2.99119270e-01  -4.64097010e-01
C     1.249618087393517e+01   6.860413466112241e+00   3.492438600000000e+00 -4.89482620e-01   1.09674503e+00  -3.66463630e-01
C     4.983604501650277e+00   7.282962563291986e+00   3.351155400000000e+00 -1.33002633e+00  -1.31914160e-01   3.84567460e-01
C     5.980885911055595e+00   6.281232309896398e+00   3.330130800000000e+00 -1.06188890e-01   1.16532290e-01  -1.94463630e-01
C     7.326317718892815e+00   6.704249844063570e+00   3.291767400000000e+00  1.18724855e+00  -9.42853860e-01   2.11390140e-01
C     8.345301119244459e+00   5.679897686352612e+00   3.385846200000000e+00  6.18303180e-01   6.17327680e-01   1.89586560e-01
C     9.753410562526264e+00   6.091166888608392e+00   3.425709000000000e+00 -1.36852626e+00  -1.39841699e+00   1.76548270e-01
C     1.077704315476028e+01   5.068499980296002e+00   3.445164900000000e+00 -3.17448530e-01   1.87878392e+00  -2.82128740e-01
C     3.248706074876503e+00   5.486316678570902e+00   3.461360100000000e+00 -3.13528020e-01   5.86632820e-01  -4.31909700e-02
C     4.262313493036508e+00   4.523147964016815e+00   3.385839300000000e+00  7.35039400e-01   2.46373700e-02  -6.96217800e-02
C     5.621094157658172e+00   4.893609577524741e+00   3.345263400000000e+00  7.33568220e-01   6.64797530e-01   6.95087040e-01
C     6.627240498483765e+00   3.893467822740146e+00   3.443377200000000e+00  1.85945340e-01   3.72347170e-01  -2.88260000e-01
C     7.995445840868141e+00   4.282525599558954e+00   3.471027900000000e+00  1.06192411e+00   9.87704480e-01  -7.12048540e-01
C     9.064430506500683e+00   3.328563757683952e+00   3.377757900000000e+00 -7.81136750e-01  -6.39492100e-01  -2.09637400e-02
C     1.044513308783035e+01   3.713069244462617e+00   3.304285800000000e+00 -1.50199187e+00   5.79548420e-01   9.60615560e-01
C     2.577713313482881e+00   2.769285785561686e+00   3.294433800000000e+00  3.09492510e-01  -1.12769970e+00  -7.29810220e-01
C     3.939315728886234e+00   3.175851067664733e+00   3.336882300000000e+00 -2.74238800e-01  -2.43364112e+00  -1.04474250e-01
C     4.938113599319355e+00   2.118811767976771e+00   3.334329000000000e+00 -5.12592540e-01   1.80512416e+00   1.27910450e-01
C     6.281593538446604e+00   2.522637471096340e+00   3.433684800000000e+00  8.46923120e-01  -4.69925650e-01  -1.83873710e-01
C     7.325952964994679e+00   1.545301885850235e+00   3.438061800000000e+00  3.39513040e-01  -1.68527180e-01   2.42899920e-01
C     8.702181219627249e+00   1.935419688004374e+00   3.358884900000000e+00 -1.22490570e-01   1.04897232e+00   3.12202720e-01
C     2.224704329368591e+00   1.392780157409359e+00   3.161664900000000e+00 -2.10803500e-01  -3.99950610e-01   1.30954249e+00
