52
Lattice="8.88768389401873 1.33226762955019e-15 0 4.44384194700937 7.69696003302603 0 0 0 30 " PBC="1 1 1" Properties=species:S:1:pos:R:3:force:R:3 Energy="-418.24973856"
C     1.261802768718893e+01   6.865522015453752e+00  -2.226044999999992e-01 -2.33530710e-01   3.37316350e-01   5.47228590e-01
C     8.899738704393139e+00   6.694718390580020e+00   3.676950000000000e-02 -2.64208896e+00   4.12365290e-01  -7.73485290e-01
C     1.021962037582687e+01   6.332353517206051e+00  -1.342259999999840e-02  1.16147668e+00  -3.75290205e+00   2.78776900e-01
C     1.058795394704390e+01   4.869308966226827e+00   1.326900000000000e-03 -7.77247910e-01   2.06597979e+00  -5.76968500e-01
C     6.462852565502434e+00   6.049684661313909e+00  -9.613620000000012e-02  9.41978590e-01   2.87945695e+00  -3.21552800e-02
C     7.860513336049598e+00   5.714928090841148e+00   9.930899999999999e-03 -7.20755700e-01  -9.91496880e-01  -4.79393300e-02
C     8.195719309894898e+00   4.332704852900135e+00  -9.453600000000506e-03 -8.04912180e-01  -8.58044740e-01  -2.60045870e-01
C     9.543861994075350e+00   3.896007126823644e+00   5.076600000000001e-03  4.60916610e-01   9.34519900e-02   1.48364030e-01
C     9.851512370575161e+00   2.481710425528820e+00  -2.838420000000141e-02  2.31484233e+00   2.82560508e+00  -5.69069390e-01
C     4.101878134477619e+00   5.454718194620542e+00  -3.059216999999990e-01 -1.67580634e+00   3.07168299e+00   9.46034750e-01
C     5.438512201288970e+00   5.112910054216296e+00  -2.224518000000018e-01  1.16125737e+00  -1.59216790e+00   1.49884040e-01
C     5.781711135885462e+00   3.728220864220873e+00  -1.766663999999984e-01  3.93306350e-01  -4.72773600e-02  -5.27983760e-01
C     7.141208947212593e+00   3.317258462791888e+00  -1.393133999999989e-01  8.78503950e-01   2.29863838e+00   7.32821890e-01
C     7.500238491070331e+00   1.981269247389480e+00  -1.181264999999989e-01 -5.93860880e-01  -1.98739467e+00  -4.16606790e-01
C     8.879099099383790e+00   1.549887888575309e+00  -1.207515000000008e-01 -3.21521577e+00  -3.87813150e-01   6.59337590e-01
C     3.057947270807075e+00   4.523754330527979e+00  -1.876850999999995e-01 -3.87904390e-01  -1.94293605e+00  -3.71475310e-01
C     3.388432729095351e+00   3.122242510751786e+00  -2.797541999999993e-01 -1.23180334e+00  -2.60130680e-01   1.13928085e+00
C     4.768890454248496e+00   2.759601932269542e+00  -2.544782999999988e-01 -1.51228580e+00  -8.44886630e-01  -1.23467880e-01
C     5.059521804882809e+00   1.369105308961883e+00  -2.171456999999997e-01  1.14896081e+00  -4.06126400e-01   3.59409890e-01
C     6.442716492287532e+00   1.002849160475148e+00  -1.485813000000000e-01  4.68306270e-01  -1.39030622e+00   7.01165700e-02
C     1.122042042054120e+01   7.265570204529797e+00  -1.039287000000009e-01  2.19752192e+00   2.08435652e+00  -5.78473880e-01
C     2.320944259325927e+00   2.103712487546719e+00  -1.368366000000023e-01  2.32433340e+00   1.00331590e+00  -9.42616000e-02
C     2.701760493740553e+00   7.190682477978712e-01  -9.054360000000017e-02  3.28612300e-02   1.78893371e+00  -5.66515500e-01
C     4.053009467920454e+00   3.462193451670393e-01  -1.453278000000005e-01  1.34714071e+00   9.26757240e-01   6.43462570e-01
C     2.957794981224643e-01   2.001392025752711e-01  -1.224825000000003e-01  8.75559740e-01  -2.70597705e+00  -6.42357590e-01
C     6.135751626139808e+00   7.487369422325490e+00  -1.012301999999998e-01 -1.92731677e+00  -2.64889798e+00   1.90368130e-01
C     7.262218499251212e-01   8.010918259927696e-01   3.428055000000000e+00 -2.63911100e-01   1.37911686e+00  -4.91124600e-02
C     3.101287880765943e+00   2.488023856993428e-01   3.309710700000000e+00  2.07105910e-01  -1.46645238e+00   5.50733540e-01
C     4.472576805072383e+00   6.323594530631111e-01   3.390734400000000e+00  3.37348000e-02  -6.24718300e-02   5.66601480e-01
C     9.941674371736383e+00   7.362699913449173e+00   3.593076300000000e+00 -3.94062720e-01  -1.42277082e+00  -2.11047250e-01
C     6.867886046848914e+00   3.384668900552230e-02   3.677569800000000e+00 -6.25462840e-01   1.16125558e+00  -2.78028940e-01
C     1.232240998941932e+01   6.769509674221929e+00   3.694286400000000e+00  9.40325990e-01  -1.64438845e+00  -8.62261870e-01
C     4.801768532816645e+00   7.176317487535521e+00   3.518781900000000e+00  1.85067840e-01  -2.91420195e+00   7.69864300e-02
C     5.833009871230061e+00   6.155450436356546e+00   3.450099600000000e+00 -1.04624740e-01  -4.30950170e-01   7.34013750e-01
C     7.212198124534671e+00   6.531553998536063e+00   3.441391200000000e+00 -4.15508800e-01   1.18237744e+00  -1.47313200e-01
C     8.226981694332171e+00   5.552851048340629e+00   3.605264700000000e+00 -3.24899930e-01   5.10621070e-01  -5.88140460e-01
C     9.585250783878026e+00   5.937012942823555e+00   3.615008400000000e+00  3.40293530e-01   1.70604980e+00  -4.63001400e-02
C     1.059624557848237e+01   4.974832210058918e+00   3.582656100000000e+00  2.00033893e+00  -1.38897003e+00   5.00005700e-02
C     3.116573100581441e+00   5.340800338301331e+00   3.615308100000000e+00 -9.64773430e-01   1.32956739e+00   1.64465320e-01
C     4.132795808588794e+00   4.355888019540895e+00   3.556598400000000e+00  2.39753150e-01  -3.19284690e-01  -6.07600040e-01
C     5.517488382290137e+00   4.747349787885874e+00   3.552225000000000e+00 -5.24422530e-01   6.01127050e-01  -2.93977970e-01
C     6.565472028571907e+00   3.765442670199550e+00   3.570746700000000e+00 -2.32773106e+00   1.60404190e-01   4.33811250e-01
C     7.875950264329409e+00   4.188020400070608e+00   3.625320600000000e+00  2.18246825e+00  -9.92450380e-01  -9.60764000e-02
C     8.921821397016688e+00   3.189677193936222e+00   3.589869300000000e+00  1.77768810e-01  -7.89209620e-01  -7.84697080e-01
C     1.029979923664366e+01   3.552449005586977e+00   3.487245600000000e+00 -1.80910195e+00   2.48404415e+00   6.31279070e-01
C     2.405687481214148e+00   2.607155634036961e+00   3.383628900000000e+00  7.80049070e-01  -1.82186334e+00  -4.60712780e-01
C     3.773838608703149e+00   2.959809406880279e+00   3.381979200000000e+00  4.24743950e-01   1.90178377e+00   9.12017870e-01
C     4.795793028513009e+00   2.010960501614005e+00   3.447655500000000e+00  1.82713851e+00  -5.75786950e-01   1.63416970e-01
C     6.211730565985196e+00   2.381814352205061e+00   3.626218200000000e+00 -1.69290278e+00   1.28229697e+00  -1.01790555e+00
C     7.228271808613217e+00   1.443161225042527e+00   3.621497700000000e+00  2.51748520e-01  -2.39507208e+00  -2.36512700e-02
C     8.603305558496263e+00   1.779849501574017e+00   3.502200600000000e+00 -8.04216100e-01   2.06986310e+00   8.38289780e-01
C     2.068326419973769e+00   1.210113131071789e+00   3.320993400000000e+00  6.86243110e-01   4.31601940e-01   1.05189500e-01
