52
Lattice="8.88768389401873 1.33226762955019e-15 0 4.44384194700937 7.69696003302603 0 0 0 30 " PBC="1 1 1" Properties=species:S:1:pos:R:3:force:R:3 Energy="-418.53903094"
C     1.253901751048492e+01   6.750850395838802e+00   5.709660000000000e-02  8.01619800e-01   1.90484688e+00   2.31148350e-01
C     8.781144161278165e+00   6.647921412384822e+00  -1.448220000000013e-01  1.65966920e-01  -1.29436063e+00  -9.04874900e-02
C     1.013798642151205e+01   6.200390445974906e+00  -6.010140000000064e-02  5.02518760e-01   2.31157658e+00   1.28996350e-01
C     1.048624804751105e+01   4.859184461972965e+00  -4.606229999999911e-02  5.87733690e-01  -2.60282842e+00   7.94445800e-02
C     6.381440314523779e+00   6.012449847472781e+00   1.112490000000000e-02  9.60662420e-01  -1.29044857e+00  -5.92330600e-01
C     7.790904951332007e+00   5.633815909683401e+00  -1.911464999999986e-01 -2.16762195e+00   4.10764190e-01   1.21194574e+00
C     8.080909098115360e+00   4.245099285352280e+00  -1.271849999999972e-01  2.26768452e+00   7.69199380e-01  -3.20733920e-01
C     9.473843353875424e+00   3.824174246738865e+00  -1.436273999999997e-01 -3.39854750e-01   7.53429040e-01   6.40154940e-01
C     9.796282925261657e+00   2.435464087854169e+00  -4.872479999999868e-02  8.83117840e-01   1.59506761e+00  -1.98813440e-01
C     4.019856099472431e+00   5.363849269959168e+00   1.302099000000000e-01 -4.51719590e-01   1.60140295e+00   1.77417040e-01
C     5.379457363460622e+00   4.984570634797675e+00   1.657128000000000e-01  3.28752960e-01   1.84288185e+00  -7.67070800e-01
C     5.738438469439739e+00   3.646392557901935e+00   1.602399000000000e-01 -6.17371900e-01  -1.00489067e+00   2.68346560e-01
C     7.083874054046655e+00   3.305940390946174e+00   3.129840000000000e-02  4.02081880e-01  -3.41730932e+00  -1.04907600e-02
C     7.459771844152700e+00   1.853785806895795e+00   4.738530000000000e-02 -3.49411718e+00   2.47977490e+00  -2.82047560e-01
C     8.768533689881332e+00   1.481985845977851e+00  -3.647880000000114e-02  1.39095717e+00  -1.32196212e+00   3.39863490e-01
C     2.987628182433411e+00   4.421382606980170e+00   1.369488000000000e-01 -1.27481173e+00  -4.11908970e-01  -7.06223860e-01
C     3.328386603473101e+00   3.038189013288175e+00   1.460850000000000e-01 -5.58413830e-01  -1.87601550e-01   1.64749340e-01
C     4.714384377483047e+00   2.646004731305181e+00   2.362782000000000e-01 -1.32425713e+00   4.83540840e-01  -1.03350080e+00
C     4.984692172504333e+00   1.278714596427173e+00   8.538450000000000e-02  2.06466961e+00   8.14237000e-03   6.14838800e-02
C     6.394161964167274e+00   8.970899278485359e-01   5.753040000000000e-02 -1.15240440e-01  -5.72875630e-01   1.56245940e-01
C     1.118675169644615e+01   7.208345846703556e+00   5.763540000000000e-02 -6.71235790e-01  -1.18239745e+00  -6.33646730e-01
C     2.274996266727255e+00   2.042205156311786e+00   3.035190000000000e-02  4.94601150e-01   6.94309820e-01  -8.25934000e-03
C     2.605539539419060e+00   6.712113982065422e-01  -3.389879999999934e-02 -2.91348720e-01  -2.85495400e-02   9.64356100e-02
C     3.961458502669915e+00   3.127906780607463e-01  -5.477160000000225e-02  8.94359410e-01  -4.76062420e-01   2.51337630e-01
C     2.282136364732755e-01   1.116708058080529e-01   2.783970000000000e-02 -5.44219870e-01  -2.43744586e+00  -2.51150290e-01
C     6.025048279747755e+00   7.364630234055096e+00  -2.142810000000139e-02  6.19458200e-02   1.38462287e+00   1.42991700e-01
C     8.069409060504571e-01   9.178851126399882e-01   3.485896500000000e+00 -3.69792620e-01   6.71195910e-01  -2.13695550e-01
C     3.187219074631219e+00   3.056655251913750e-01   3.635482800000000e+00 -5.03435220e-01   1.73201430e-01  -4.44912190e-01
C     4.542701075394726e+00   7.032469155474051e-01   3.530628900000000e+00  2.74097460e-01  -1.83314430e-01  -5.16263470e-01
C     9.988874283467810e+00   7.393435876058571e+00   3.311546100000000e+00  3.46169820e-01   9.09867740e-01   5.28344600e-01
C     6.919940767057248e+00   1.089673255671157e-01   3.258253200000000e+00  7.05049050e-01  -1.40577013e+00   6.35361000e-03
C     1.244997171677035e+01   6.837332361161478e+00   3.258321300000000e+00 -1.81802604e+00  -7.47808000e-03   2.37462090e-01
C     4.909544098361525e+00   7.268070869873942e+00   3.391411800000000e+00 -2.67409890e-01  -2.04904697e+00  -2.35413570e-01
C     5.906937448140668e+00   6.258997331761735e+00   3.380106300000000e+00  9.19452930e-01  -1.41712854e+00   4.24942680e-01
C     7.297136119740575e+00   6.612022482926500e+00   3.500000100000000e+00 -1.42003589e+00   5.94182750e-01  -4.77241010e-01
C     8.271226806689864e+00   5.602577104675244e+00   3.340415400000000e+00  1.55018564e+00   9.61724970e-01   4.81634050e-01
C     9.645685345732018e+00   6.032349490964743e+00   3.292670400000000e+00  2.90699530e-01  -1.08124987e+00   1.81647100e-01
C     1.070725612763522e+01   5.046990132765764e+00   3.306051900000000e+00 -6.82752670e-01   7.66268290e-01  -4.40468570e-01
C     3.180074135584130e+00   5.458533115889812e+00   3.256749600000000e+00  1.56956165e+00  -1.03814569e+00   5.65944110e-01
C     4.227214073989728e+00   4.408132290288524e+00   3.321278400000000e+00 -8.92748920e-01   2.58293532e+00   3.28953660e-01
C     5.600242673563461e+00   4.826578445954678e+00   3.309198600000000e+00 -1.14863721e+00   1.12230300e+00  -9.41937100e-02
C     6.605127096598427e+00   3.836436658610659e+00   3.257138400000000e+00  1.32833000e-01   2.82429460e-01   7.01696610e-01
C     7.962949357843403e+00   4.230897932279328e+00   3.317196000000000e+00 -3.22168680e-01  -2.59191900e-02  -7.36919760e-01
C     8.984688340179799e+00   3.257464474859632e+00   3.303699000000000e+00  5.91739190e-01  -3.50600500e-02   3.78794890e-01
C     1.035106388622563e+01   3.678427228577195e+00   3.362399100000000e+00  6.02776530e-01  -9.44011610e-01   9.22238630e-01
C     2.499516359877161e+00   2.689024041517655e+00   3.620484600000000e+00 -1.27205338e+00   7.05128740e-01  -1.23889478e+00
C     3.844082862790702e+00   3.081026367365540e+00   3.526096800000000e+00  1.46700859e+00  -9.86421130e-01  -3.09211260e-01
C     4.886450470488303e+00   2.082315554420122e+00   3.465122100000000e+00  1.20522630e-01   1.28090190e-01   1.00286810e-01
C     6.257744771845821e+00   2.469449168201030e+00   3.284770500000000e+00 -3.73841190e-01  -8.30881830e-01   1.73521270e-01
C     7.280591026250206e+00   1.450686081046256e+00   3.242683800000000e+00  1.99026710e-01   1.88176864e+00   5.72090100e-01
C     8.664784378766250e+00   1.871091959705648e+00   3.336467700000000e+00 -8.89180670e-01   3.13825350e-01  -1.04727400e-01
C     2.145054906030568e+00   1.323940625080247e+00   3.633056400000000e+00  1.23153828e+00  -1.11115514e+00   1.24919030e-01
