52
Lattice="8.88768389401873 1.33226762955019e-15 0 4.44384194700937 7.69696003302603 0 0 0 30 " PBC="1 1 1" Properties=species:S:1:pos:R:3:force:R:3 Energy="-419.02836417"
C     1.290877697851000e+01   7.201510638318514e+00   1.651290000000000e-02  5.78777000e-02  -3.01761370e-01   5.27352600e-02
C     9.174484920958326e+00   6.999323274679261e+00   4.697850000000000e-02 -2.12911920e-01   4.38281460e-01   3.73948810e-01
C     1.054976134859809e+01   6.640368539446583e+00   3.611340000000000e-02 -2.22328515e+00  -3.25848861e+00  -2.01823100e-02
C     1.083816242381056e+01   5.209088187967164e+00   3.711870000000000e-02  6.53350850e-01   1.09644294e+00  -3.65949090e-01
C     6.786985597318855e+00   6.418631051270330e+00   1.953030000000000e-02 -5.64126610e-01   9.66998500e-02   6.63490980e-01
C     8.163474527203615e+00   6.013955372854649e+00   1.310451000000000e-01 -8.40022410e-01   3.68086750e-01  -1.23536350e+00
C     8.485108874442705e+00   4.645703733729693e+00   5.233950000000000e-02 -9.55726700e-02  -9.22032040e-01   3.05536630e-01
C     9.833136418682107e+00   4.214774802226087e+00   2.265060000000000e-02  3.01339640e-01   6.87006500e-01   2.40314160e-01
C     1.018333267125010e+01   2.840064336061556e+00   4.536000000000000e-02  2.73074010e-01  -8.35179100e-02   2.50592000e-03
C     4.365346813426324e+00   5.810304124387289e+00   3.826200000000000e-03 -3.00270610e-01   6.56938670e-01  -5.32313870e-01
C     5.743847648345358e+00   5.455036617856983e+00  -3.768960000000021e-02  2.09737600e-02  -2.29382588e+00   9.76199990e-01
C     6.070014803197141e+00   4.012824581925356e+00   6.742380000000001e-02  8.61153330e-01   1.47746072e+00  -1.45880622e+00
C     7.479168771023176e+00   3.646784333167462e+00   4.575840000000000e-02 -1.96908364e+00   2.92374740e-01   2.88810900e-02
C     7.788846650435671e+00   2.271399074517102e+00   1.893180000000000e-02 -1.30814270e-01  -5.96328380e-01   1.58148380e-01
C     9.154871487943947e+00   1.874550280816727e+00   6.768930000000001e-02 -3.39607760e-01  -9.35568200e-02  -3.94739590e-01
C     3.306522013495590e+00   4.824311845165044e+00  -2.173080000000027e-02  1.32531604e+00   3.59044400e-02   8.07909470e-01
C     3.672337437296626e+00   3.454492566190777e+00   5.828940000000000e-02  2.65898280e-01  -1.36652686e+00  -1.27348020e+00
C     5.049965457170084e+00   3.023549549250316e+00  -5.590380000000295e-02 -2.77068710e-01   1.54520196e+00   1.46469915e+00
C     5.399136337653195e+00   1.657317746376432e+00  -7.678199999997304e-03 -1.16869523e+00  -2.39347500e-01  -3.23129070e-01
C     6.742621653321127e+00   1.279023398463576e+00  -1.985400000002358e-03  1.34168680e+00  -3.09734930e-01   1.28449660e-01
C     1.153047656087220e+01   7.571433002806740e+00   2.475450000000000e-02  1.96647045e+00   2.47908927e+00  -1.87491350e-01
C     2.668236551159956e+00   2.422725619004519e+00   5.071650000000000e-02 -4.11452360e-01   1.87456191e+00   3.34175240e-01
C     2.995945097080990e+00   1.060883700314146e+00   1.008195000000000e-01  3.07524920e-01   7.47817200e-02  -5.06971980e-01
C     4.355901157402214e+00   6.695114476143164e-01   2.213610000000000e-02  7.32272620e-01   1.12529040e-01   2.86337060e-01
C     5.964797069371551e-01   5.051241625607935e-01   5.082360000000000e-02  1.24001770e-01  -9.91188050e-01   1.14743550e-01
C     1.962628394316870e+00   1.027845884838176e-01   9.148920000000001e-02  2.99871430e-01  -7.51982680e-01  -4.97898650e-01
C     4.278824321460578e-01   4.997186645013247e-01   3.340376700000000e+00  1.86561900e-01   1.02781870e+00   3.70381480e-01
C     7.269821557056680e+00   7.618264617322073e+00   3.330898500000000e+00 -9.41253270e-01  -6.98209100e-02  -2.91544080e-01
C     4.175827927208945e+00   3.412552677652911e-01   3.319330800000000e+00  3.89336620e-01  -1.28315171e+00   5.98143260e-01
C     9.633288004996711e+00   7.026817662572024e+00   3.420345900000000e+00  1.60330280e-01   1.67496800e-02  -9.27825490e-01
C     1.099823712219015e+01   7.407050797746837e+00   3.388308300000000e+00  5.18606880e-01  -5.47606020e-01   6.41737980e-01
C     1.204334426957098e+01   6.409836273831251e+00   3.407887200000000e+00 -6.66169000e-03   9.59773790e-01  -1.98599930e-01
C     4.520790983315024e+00   6.860204108799424e+00   3.358940700000000e+00 -8.13575100e-01  -2.28863936e+00   4.28230710e-01
C     5.512840968658097e+00   5.844105401328634e+00   3.392358900000000e+00  7.02945330e-01  -2.54687180e-01  -6.72062540e-01
C     6.890786146071090e+00   6.244311608994095e+00   3.299631300000000e+00  7.76494660e-01  -1.29635529e+00   1.09431039e+00
C     7.924687968210979e+00   5.211778660345651e+00   3.367078200000000e+00  3.46261190e-01   1.86599452e+00  -7.54085660e-01
C     9.313697734389201e+00   5.645283533462497e+00   3.355869600000000e+00 -8.47436230e-01  -1.01438726e+00   3.72171360e-01
C     1.033778226535609e+01   4.633492275733297e+00   3.344642400000000e+00  6.22815580e-01   1.22524323e+00   5.66664470e-01
C     1.173434518522577e+01   5.029996553502729e+00   3.412619100000000e+00 -1.71116808e+00  -1.15765110e-01  -1.81020910e-01
C     3.824948346552230e+00   4.005286179271974e+00   3.432954900000000e+00  3.75232810e-01   2.10908313e+00  -7.38700030e-01
C     5.173729922457788e+00   4.444002894933935e+00   3.390928200000000e+00  1.34990850e+00  -1.36609130e-01   8.28338560e-01
C     6.248993114604895e+00   3.465648001271057e+00   3.450942900000000e+00 -1.46992325e+00   5.48386190e-01  -1.43867829e+00
C     7.588096491538641e+00   3.845534465366119e+00   3.330742500000000e+00  1.28552628e+00   3.33637200e-02   1.34974615e+00
C     8.636298419332590e+00   2.857223015117234e+00   3.405461700000000e+00 -3.97502600e-01   3.75767890e-01  -5.84803580e-01
C     1.000623659345722e+01   3.265084619228533e+00   3.367445100000000e+00 -1.09728172e+00  -2.86985630e-01  -5.34963470e-01
C     2.114797942238777e+00   2.267292361493096e+00   3.256333800000000e+00 -1.32294390e-01   3.17836730e-01   1.08619917e+00
C     3.451792271805056e+00   2.677396936726737e+00   3.297344100000000e+00  1.78259437e+00  -1.53172780e+00   3.76718600e-01
C     4.512217386820934e+00   1.698988318282849e+00   3.326424000000000e+00  6.13608390e-01   9.67142100e-01  -2.74392270e-01
C     5.918157835286133e+00   2.107680655290186e+00   3.345078600000000e+00 -1.51578777e+00  -1.53892804e+00   1.15868861e+00
C     6.911910167591939e+00   1.076874596594072e+00   3.442173900000000e+00  4.97065530e-01   9.87360000e-01  -1.01737111e+00
C     8.296687352050078e+00   1.477825177264035e+00   3.392408100000000e+00 -6.66072180e-01   2.31283000e-01   2.47494180e-01
C     1.790745254436310e+00   9.001851063853998e-01   3.338155500000000e+00 -9.46377000e-03  -3.84904300e-01  -6.08238710e-01
