52
Lattice="8.88768389401873 1.33226762955019e-15 0 4.44384194700937 7.69696003302603 0 0 0 30 " PBC="1 1 1" Properties=species:S:1:pos:R:3:force:R:3 Energy="-418.96510181"
C     1.293057171247641e+01   7.238460202820931e+00  -1.118340000000018e-02  3.39380460e-01  -9.41925760e-01   3.75109900e-02
C     9.147541329533244e+00   6.979165167269492e+00   1.377321000000000e-01  1.27314748e+00   1.13612814e+00  -5.28295820e-01
C     1.057342796206774e+01   6.616878571979028e+00   1.508802000000000e-01 -2.21612589e+00  -1.37650340e+00  -2.95812230e-01
C     1.089042720437693e+01   5.206160649219754e+00   1.333089000000000e-01  2.38038020e-01   1.51431561e+00   4.85746000e-02
C     6.780114528889923e+00   6.397738576904098e+00   2.256420000000000e-02 -2.42406620e-01   1.90676536e+00  -3.51857360e-01
C     8.113055496364870e+00   5.979590447530307e+00   1.137354000000000e-01  1.39647452e+00   1.49380715e+00   4.09330120e-01
C     8.459086047069201e+00   4.626433085811383e+00   2.195157000000000e-01  1.29745586e+00  -7.86006900e-02  -7.96685820e-01
C     9.857789742856227e+00   4.251331282979770e+00   1.675749000000000e-01 -5.33979690e-01  -5.24249160e-01  -8.76310600e-02
C     1.020732710697683e+01   2.873231460466029e+00   5.357700000000000e-02 -6.38575610e-01  -6.84415580e-01   2.04715980e-01
C     4.383920295245893e+00   5.850709931821577e+00  -2.017769999999786e-02 -1.39466860e-01   2.83526110e-01   3.32553410e-01
C     5.746849641352300e+00   5.484924529410276e+00   9.831899999999999e-03 -7.21882570e-01  -3.09346340e+00  -5.25803050e-01
C     6.060669581358164e+00   4.040038569564227e+00  -2.236109999999769e-02  1.32237416e+00   2.12279294e+00   1.09011864e+00
C     7.446828311336027e+00   3.667358384297252e+00   1.244580000000000e-01 -1.05832269e+00  -9.67648460e-01  -3.95958130e-01
C     7.767433242576397e+00   2.280386891713733e+00   9.219510000000000e-02  1.52965180e+00  -2.09666190e-01  -3.34663950e-01
C     9.162658343310117e+00   1.878838719067042e+00   3.502440000000000e-02  3.04612010e-01   5.13418610e-01   1.11847930e-01
C     3.381508335687951e+00   4.832966999749178e+00   4.426050000000000e-02 -9.53991000e-01   1.64679408e+00  -3.99333890e-01
C     3.697547619311671e+00   3.501512217439644e+00  -4.139310000000052e-02  5.28034020e-01  -3.04498187e+00   7.29356990e-01
C     5.059924151438786e+00   3.072098817365943e+00   6.307500000000000e-03 -1.81400740e-01   4.27270570e-01  -8.41192740e-01
C     5.441174860294536e+00   1.709255524175667e+00  -2.499600000000157e-03 -2.86752758e+00  -9.90878400e-01   3.23631000e-01
C     6.744576410534021e+00   1.306929650687545e+00   3.412350000000000e-02  2.29473908e+00  -1.21516200e+00   9.55184000e-02
C     1.156333468373346e+01   7.590788548194181e+00   4.748850000000000e-02  6.14067700e-02   1.81671127e+00   7.24341500e-02
C     2.693334792790096e+00   2.460029166698715e+00   7.621500000000001e-03 -6.51241330e-01   1.97841841e+00  -4.73898910e-01
C     3.028357280420271e+00   1.106720405776001e+00  -3.082919999999945e-02  3.73860820e-01  -1.22452933e+00   1.84667900e-02
C     4.403114578416378e+00   7.052093324766540e-01   2.257650000000000e-02 -3.15631370e-01  -9.31803170e-01   3.31675000e-02
C     6.614766279335300e-01   4.968743298918385e-01  -3.414090000000058e-02 -2.03696437e+00   8.03500190e-01  -7.38140000e-02
C     1.993606149886613e+00   1.053464446602028e-01  -6.700200000000223e-02  1.56851566e+00  -3.23020780e-01   5.59284540e-01
C     3.632129333935665e-01   4.608261563785356e-01   3.306552900000000e+00  1.63644201e+00   2.18382760e-01  -3.26801710e-01
C     7.254244246793677e+00   7.580921353314123e+00   3.274805100000000e+00 -1.24112015e+00  -3.11921700e-02   1.99618480e-01
C     4.156343813288070e+00   2.855559086297949e-01   3.374949900000000e+00  8.55994920e-01  -8.19201310e-01  -3.69135580e-01
C     9.650979384145950e+00   6.999110607673632e+00   3.478152300000000e+00 -3.60607710e-01   1.35980204e+00  -8.67950000e-03
C     1.100199661248608e+01   7.423148066014378e+00   3.479088300000000e+00  3.80048800e-01  -8.52579310e-01  -5.13662340e-01
C     1.199952065564037e+01   6.388733749425802e+00   3.398241900000000e+00  8.47051920e-01   1.02082485e+00   3.24216860e-01
C     4.508826783144073e+00   6.761670166492174e+00   3.304244100000000e+00 -1.43366687e+00   1.04173908e+00   1.52209560e-01
C     5.540428339425986e+00   5.803049970467814e+00   3.269352600000000e+00 -5.75009490e-01  -9.60515600e-02   5.62141500e-01
C     6.887337635821650e+00   6.208473947337612e+00   3.338760000000000e+00  1.16337083e+00  -1.40477210e-01  -5.88070640e-01
C     7.929836159119576e+00   5.235354448917541e+00   3.361610100000000e+00  3.54467180e-01   5.69544140e-01   1.01413207e+00
C     9.318694301401390e+00   5.654628412634921e+00   3.484050300000000e+00 -1.61743955e+00  -2.26161343e+00  -2.59207660e-01
C     1.028683699475810e+01   4.605100653209837e+00   3.493563900000000e+00  1.16360048e+00   1.50918337e+00  -5.94973620e-01
C     1.165443539723255e+01   5.029436214812545e+00   3.427221000000000e+00  7.58294200e-02  -8.77212060e-01  -2.20156920e-01
C     3.806669802579608e+00   4.052718156669647e+00   3.297020100000000e+00  2.60299310e-01  -3.62743100e-01   4.68504690e-01
C     5.181116121023640e+00   4.432040125716109e+00   3.310633200000000e+00  3.82699670e-01  -5.79884700e-02  -4.20826140e-01
C     6.231935338419559e+00   3.461622337236167e+00   3.319812300000000e+00 -9.62799370e-01  -1.98231280e-01   6.47600670e-01
C     7.588077560782646e+00   3.861991027727861e+00   3.417546600000000e+00  1.48642830e-01  -6.28723800e-02  -8.34245330e-01
C     8.604186106487035e+00   2.871849163414242e+00   3.365708100000000e+00  1.28573750e-01  -6.36782900e-01   3.56475820e-01
C     9.966224018382112e+00   3.249340718395969e+00   3.348859800000000e+00  1.42234410e-01  -6.88272380e-01   4.53202870e-01
C     2.112244643961335e+00   2.250200722959278e+00   3.276343800000000e+00 -2.55829960e-01  -1.57173940e-01  -2.97775710e-01
C     3.483652352186552e+00   2.670067352598968e+00   3.266908200000000e+00  4.49606200e-02  -1.46665791e+00   1.49466900e-02
C     4.520895632391961e+00   1.624935942803820e+00   3.274632000000000e+00 -2.82075610e-01   3.05714113e+00   6.90329230e-01
C     5.893686930830689e+00   2.081647843137520e+00   3.368723400000000e+00 -9.99546910e-01  -4.84808150e-01  -6.02801520e-01
C     6.900536109711188e+00   1.101343463438243e+00   3.389359200000000e+00  4.29617590e-01  -3.27942110e-01   6.29729530e-01
C     8.267899388484043e+00   1.488301586530468e+00   3.384065100000000e+00 -2.51872400e-01  -4.17357670e-01  -4.37582420e-01
C     1.758040310783988e+00   8.455678628605214e-01   3.196607100000000e+00 -3.26865900e-02   1.18791804e+00   1.00086566e+00
