52
Lattice="8.88768389401873 1.33226762955019e-15 0 4.44384194700937 7.69696003302603 0 0 0 30 " PBC="1 1 1" Properties=species:S:1:pos:R:3:force:R:3 Energy="-418.63082316"
C     1.312777142057133e+01   7.447343767747085e+00  -1.918514999999985e-01 -4.21010000e-02   9.46431630e-01  -1.90320620e-01
C     9.371354807154979e+00   7.286556196960392e+00  -1.707018000000033e-01  9.27825700e-02  -9.84872860e-01  -1.22712300e-01
C     1.073561375074707e+01   6.883430994173154e+00  -3.277230000000131e-02  2.05479300e-02  -5.47133440e-01  -3.52716850e-01
C     1.108718617227002e+01   5.480126475436375e+00  -7.038599999999917e-02 -6.53804280e-01   1.39423542e+00   1.09173490e-01
C     7.008348518277393e+00   6.691189719254266e+00  -3.997130999999996e-01 -6.20116450e-01  -1.53149052e+00   3.97984360e-01
C     8.351729092563756e+00   6.271446548853458e+00  -2.488467000000014e-01  6.02356090e-01   1.45916890e+00   1.04520150e-01
C     8.733728810988573e+00   4.922823928105809e+00  -1.469018999999996e-01 -2.33714135e+00  -9.55184020e-01  -1.54351520e-01
C     1.005258319947307e+01   4.549974178809373e+00  -1.469984999999987e-01  1.35751830e+00  -2.87559882e+00  -3.36305880e-01
C     1.039285693063958e+01   3.117149124421533e+00  -3.289841999999972e-01 -3.20187400e-02   1.57980033e+00   5.84788680e-01
C     4.582437913571799e+00   6.098634556199098e+00  -1.896701999999983e-01  6.20137500e-01  -2.65765094e+00   7.65906900e-02
C     5.990594283290642e+00   5.688017902214661e+00  -2.859683999999980e-01 -1.10129474e+00  -6.30405290e-01   2.70373320e-01
C     6.331684837043360e+00   4.252575804447020e+00  -1.883133000000008e-01 -2.85390390e-01   2.18069127e+00   5.10063000e-03
C     7.724314911855755e+00   3.883165672648792e+00  -1.355576999999997e-01 -1.33736017e+00   7.03546470e-01  -3.42241690e-01
C     8.010549614156171e+00   2.507518024631009e+00  -1.552355999999975e-01  1.43213951e+00  -2.08845500e-01  -3.39748210e-01
C     9.402276744714321e+00   2.123577494718546e+00  -3.297462000000024e-01 -1.61380696e+00  -6.38995070e-01   4.49579880e-01
C     3.525459752133059e+00   5.069153298263348e+00  -9.748799999999846e-02  2.54604019e+00   4.47701060e-01  -4.76137820e-01
C     3.876331335347281e+00   3.672657895217108e+00  -2.047257000000009e-01  1.69330548e+00   1.75183355e+00   3.69709100e-02
C     5.278308498426561e+00   3.298030917849746e+00  -1.955975999999993e-01  9.36667800e-02  -3.25515450e-01   7.84880000e-04
C     5.652863137343393e+00   1.905395001471349e+00  -1.905156000000012e-01 -2.18002338e+00   1.45291167e+00  -8.93338000e-03
C     6.979170559776064e+00   1.519762910653093e+00  -1.243043999999998e-01  1.30886673e+00   4.57377390e-01   9.65441800e-02
C     7.311751200688919e+00   1.557371334934077e-01  -6.919110000000117e-02  6.73449170e-01  -4.46945320e-01  -2.56334030e-01
C     2.865846337059712e+00   2.739607847078013e+00  -3.599229000000008e-01 -3.63478950e-01  -1.90558219e+00  -2.41017550e-01
C     3.199824743989391e+00   1.331620574828581e+00  -4.831187999999997e-01  1.91343185e+00   1.49179038e+00   9.24492030e-01
C     4.606119188396708e+00   9.595032682486009e-01  -2.819316000000001e-01 -1.32878328e+00  -3.91651180e-01  -3.11697170e-01
C     8.201480930614038e-01   7.232563946589949e-01  -3.864573000000000e-01  5.57708490e-01   8.12098690e-01   6.06338500e-02
C     2.207009749963848e+00   3.593818395447420e-01  -5.078934000000004e-01 -1.03226193e+00  -5.51016170e-01   4.86332020e-01
C     2.056498068860369e-01   2.357398748324298e-01   3.534258600000000e+00 -2.74465600e-01   1.68337010e+00   2.55663370e-01
C     7.003601740076908e+00   7.383768417291291e+00   3.773565600000000e+00  6.22068610e-01  -1.33915136e+00  -5.44474880e-01
C     3.940371139313500e+00   4.369325603270070e-02   3.781286100000000e+00 -4.90151340e-01  -3.17317480e-01  -2.84579040e-01
C     9.424387527715789e+00   6.772426514194898e+00   3.766629600000000e+00  6.15049200e-02  -1.62121138e+00  -5.47303300e-02
C     1.078786444450422e+01   7.141795467256967e+00   3.595376400000000e+00  5.31979030e-01   2.93380600e-01  -1.69614390e-01
C     1.182881295572185e+01   6.153464620668806e+00   3.498612600000000e+00 -7.12300720e-01   6.16868900e-01   3.81277960e-01
C     4.314045324973868e+00   6.575999709381296e+00   3.428583000000000e+00 -3.93089780e-01  -1.23673175e+00   3.92227160e-01
C     5.329400683890967e+00   5.561180236667493e+00   3.462623100000000e+00 -8.71779000e-03   1.17688468e+00   4.32893780e-01
C     6.673104237161260e+00   5.990206094803683e+00   3.654974400000000e+00  4.14515190e-01  -6.79950400e-01   5.01592200e-02
C     7.690668807661480e+00   4.973204841799776e+00   3.732337200000000e+00  1.01305812e+00  -1.77641300e-01   4.72566900e-02
C     9.106113034243213e+00   5.350003901287603e+00   3.836171400000000e+00 -1.35122927e+00   8.95005380e-01  -5.71332090e-01
C     1.012895595578478e+01   4.359928230830242e+00   3.786678300000000e+00 -8.55816580e-01   6.55596040e-01  -2.60578410e-01
C     1.147490933734685e+01   4.776431288936823e+00   3.616843800000000e+00  3.31336120e-01   4.75784080e-01  -2.35573100e-02
C     3.617129322692847e+00   3.821403649006466e+00   3.558243300000000e+00 -1.63255110e-01  -9.20883610e-01  -1.06115410e-01
C     4.967278090972110e+00   4.199938449950659e+00   3.480625200000000e+00  7.35357920e-01  -7.48556540e-01  -1.59275200e-01
C     5.961189246186883e+00   3.165823314198448e+00   3.493907100000000e+00  1.38817282e+00   7.89923760e-01   3.88754200e-01
C     7.360108646567319e+00   3.568730231199235e+00   3.629155200000000e+00 -5.52786050e-01   4.79402870e-01  -3.86348100e-02
C     8.405166378430076e+00   2.578222838253792e+00   3.681468900000000e+00 -4.57937790e-01   1.70406201e+00  -1.10867460e-01
C     9.770156156793478e+00   2.983330624005557e+00   3.765443700000000e+00  1.73332160e-01   5.57563340e-01  -2.50359660e-01
C     1.928543861225535e+00   2.038310340597405e+00   3.713618400000000e+00 -5.31465710e-01   2.86828850e-01  -2.84135700e-02
C     3.289367937708321e+00   2.438871301150649e+00   3.629502000000000e+00 -6.12205330e-01  -5.98891950e-01   2.05938610e-01
C     4.250217264354579e+00   1.396949754596811e+00   3.625902900000000e+00  1.75757852e+00   1.26675068e+00  -4.13374300e-02
C     5.635680089174691e+00   1.779856582777245e+00   3.516990300000000e+00 -3.99077210e-01   8.06737530e-01   1.68302440e-01
C     6.684709993629673e+00   8.374832069538102e-01   3.515053500000000e+00 -1.86098110e-01  -7.39705870e-01   2.63724710e-01
C     8.047832336292991e+00   1.243303962113155e+00   3.556888200000000e+00  5.25356660e-01  -1.88986421e+00  -1.54152400e-01
C     1.568544047168555e+00   6.819500429011975e-01   3.688054500000000e+00 -5.83188840e-01  -1.39868088e+00  -2.37398870e-01
