52
Lattice="8.88768389401873 1.33226762955019e-15 0 4.44384194700937 7.69696003302603 0 0 0 30 " PBC="1 1 1" Properties=species:S:1:pos:R:3:force:R:3 Energy="-419.15851168"
C     1.244185837223532e+01   6.677308482748963e+00   1.621440000000000e-02 -7.40812600e-01  -9.04348200e-01  -2.13532600e-02
C     8.660664718090590e+00   6.488424929673561e+00   2.642400000000000e-02  4.14015350e-01   1.63924727e+00  -3.48580710e-01
C     1.004304289396299e+01   6.101624517292352e+00  -1.216829999999902e-02 -9.04361400e-02   3.47969730e-01   9.12432700e-02
C     1.039215098294143e+01   4.707705440707354e+00  -4.408380000000278e-02 -1.48635020e-01   2.06648250e-01  -2.40179040e-01
C     6.298036066889687e+00   5.874889931755821e+00   2.624100000000000e-02 -9.67940630e-01   9.15824150e-01  -2.95093120e-01
C     7.636461268610183e+00   5.494280338265941e+00   2.931540000000000e-02  1.56076944e+00   1.06216126e+00   3.37078740e-01
C     8.016960834871323e+00   4.145835671234186e+00   6.018420000000000e-02 -1.58010620e+00  -1.20917477e+00  -7.71811210e-01
C     9.343547508311691e+00   3.729220083571967e+00  -3.803010000000029e-02  1.51965925e+00  -2.58925710e-01   3.02263470e-01
C     9.694098557206535e+00   2.332904096664027e+00  -6.807719999999762e-02 -4.06388430e-01   4.09440110e-01   4.59218650e-01
C     3.901508367302718e+00   5.261071993587379e+00  -6.190739999999906e-02  3.08171700e-02   1.76071488e+00   3.98320500e-02
C     5.286817656905908e+00   4.908577470847081e+00  -6.547020000000003e-02 -1.28705622e+00  -5.95572500e-01  -4.52161160e-01
C     5.615913125894650e+00   3.541615226466350e+00  -2.215652999999982e-01 -2.50585130e-01  -5.06586220e-01   1.34840599e+00
C     6.969801164487690e+00   3.164549544283083e+00  -3.776789999999863e-02  3.18870620e-01  -8.62970250e-01  -4.14434060e-01
C     7.293424486481068e+00   1.760191927474999e+00  -2.933549999999840e-02  8.41509760e-01   8.30954250e-01  -1.52869970e-01
C     8.656239003677364e+00   1.341678500378183e+00   1.397340000000000e-02  4.86688890e-01   5.86128690e-01  -2.58822400e-02
C     2.872951463644866e+00   4.301400854640524e+00  -1.357185000000030e-01 -1.83183080e-01  -5.49457160e-01  -1.26935400e-02
C     3.216458356476338e+00   2.898530829297437e+00  -2.250386999999989e-01 -8.87841260e-01   1.49549964e+00   8.02299510e-01
C     4.569748698338582e+00   2.538102280158216e+00  -2.149637999999996e-01  9.42352120e-01   9.08752540e-01  -4.36781720e-01
C     4.894048639738338e+00   1.182746897563525e+00  -1.533122999999996e-01  1.51852080e+00  -4.79619210e-01   3.01093330e-01
C     6.303050717022534e+00   7.795194021774881e-01  -9.885749999999760e-02 -1.92754288e+00   1.99327580e-01   3.23786220e-01
C     1.108144419627937e+01   7.116992937195495e+00  -2.188290000000137e-02 -4.13227880e-01  -1.84714806e+00  -1.08156150e-01
C     2.175440120122491e+00   1.953229914726592e+00  -9.187200000000217e-02 -7.32643670e-01  -1.14401190e+00  -5.47193230e-01
C     2.477612617095539e+00   5.395755247462726e-01  -5.369069999999709e-02  1.16489122e+00   2.04523877e+00   9.55571500e-02
C     3.864099791485605e+00   2.500940125619771e-01  -3.926100000000332e-02  2.00396580e-01  -4.00675701e+00  -1.98886410e-01
C     4.545698895688690e+00   7.658013566187400e+00   6.532560000000000e-02  1.46866078e+00   2.69158300e-02  -6.90445020e-01
C     5.934960982668589e+00   7.254151225538090e+00   2.025000000000000e-04 -8.68785320e-01  -5.55355400e-02   5.23265230e-01
C     8.982178196258583e-01   1.039999153816745e+00   3.477224100000000e+00  7.32141690e-01  -8.21674190e-01  -3.53832290e-01
C     3.283352129807176e+00   4.276231641403223e-01   3.371446500000000e+00 -4.34765260e-01  -3.89574150e-01   1.83394790e-01
C     4.633314523350308e+00   7.985282764851779e-01   3.363744900000000e+00  9.56925990e-01   1.38274043e+00  -2.96503430e-01
C     1.010632160441118e+01   7.540162640262460e+00   3.405705000000000e+00  3.85664060e-01  -1.53647281e+00   9.93384700e-02
C     7.041943470350621e+00   2.128763629417160e-01   3.425381700000000e+00  4.47349830e-01   4.85238230e-01  -3.45168190e-01
C     1.254336736530621e+01   6.956240464546539e+00   3.397257300000000e+00 -5.54267340e-01  -9.69537490e-01   8.25255990e-01
C     5.032503071995102e+00   7.359757827447306e+00   3.457398300000000e+00 -1.04693704e+00  -1.00706021e+00  -1.19375000e-01
C     6.041078061314915e+00   6.351057207048552e+00   3.492517200000000e+00 -4.88821430e-01  -5.23557940e-01   3.13205190e-01
C     7.395644586192174e+00   6.737616781550422e+00   3.492783600000000e+00 -2.85986400e-02  -6.59762200e-02  -8.56205360e-01
C     8.389958797884262e+00   5.723365036608431e+00   3.439841100000000e+00  1.01722816e+00   5.14636980e-01   1.31684637e+00
C     9.765079024979649e+00   6.134084675918070e+00   3.453592800000000e+00  3.98097500e-02   4.05702070e-01  -1.45418720e-01
C     1.079976451868581e+01   5.162011733153277e+00   3.493494300000000e+00  3.75293810e-01  -1.02172640e-01  -6.26773350e-01
C     3.293445120277415e+00   5.553024306910904e+00   3.449544600000000e+00 -8.26153100e-02   6.90419120e-01  -1.58273160e-01
C     4.311166736172352e+00   4.567397248442082e+00   3.436280700000000e+00  9.59525490e-01  -2.92661810e-01   3.47373640e-01
C     5.705213152774522e+00   4.944690452763837e+00   3.537361500000000e+00 -7.60673130e-01   7.07662300e-01  -7.82630610e-01
C     6.733221151809794e+00   3.956211747573500e+00   3.532975200000000e+00 -1.45108643e+00  -3.05120430e-01   4.39216070e-01
C     8.069787583817519e+00   4.339113341821113e+00   3.607253700000000e+00  9.30232560e-01   7.80939800e-01  -1.14547773e+00
C     9.103086376644935e+00   3.367329573844648e+00   3.550972500000000e+00 -2.51402920e-01   2.85344900e-02   9.05739700e-02
C     1.046273954521289e+01   3.766741917052614e+00   3.446680500000000e+00 -5.25813960e-01   8.95904440e-01   7.52609100e-01
C     2.577321366643446e+00   2.800250347883975e+00   3.411352500000000e+00  2.04602076e+00  -5.29125190e-01  -6.79455300e-01
C     3.978640086152749e+00   3.181485858163495e+00   3.380297100000000e+00 -4.69798660e-01   6.52510100e-02  -3.19972100e-02
C     5.009874581070505e+00   2.192846440447732e+00   3.326257800000000e+00 -3.21402310e-01  -1.17873170e-01   8.47255670e-01
C     6.387491003041989e+00   2.570857386292283e+00   3.467055300000000e+00 -6.96594920e-01   3.56904880e-01  -5.46657610e-01
C     7.411315524840893e+00   1.596345045985182e+00   3.448425000000000e+00 -1.05481922e+00  -5.13961930e-01   6.79610520e-01
C     8.753332506751125e+00   1.984309392662129e+00   3.562236000000000e+00  5.72099760e-01   9.02508870e-01  -7.35068560e-01
C     2.262610656684773e+00   1.420452114170015e+00   3.348043800000000e+00 -2.88408540e-01  -2.81580100e-02   9.83952260e-01
