32
Lattice="9.86 0 0 4.93 8.53901048131456 0 0 0 30 " PBC="1 1 1" Properties=species:S:1:pos:R:3:force:R:3 Energy="-256.74610595"
C     1.207608134200000e+00   7.300920564681744e-01   3.460398300000000e+00 -7.69068200e-02   3.55278950e-01  -3.32986210e-01
C     2.446171491899999e+00   1.422582665677774e+00   3.456830100000000e+00  4.93252580e-01   7.30860050e-01  -6.06180100e-02
C     3.648257779600000e+00   6.710931297982912e-01   3.429183900000000e+00  2.37943453e+00   2.17600043e+00   2.05731600e-02
C     4.953825063099999e+00   1.412316896498508e+00   3.440141100000000e+00 -2.37648660e+00  -2.02528170e-01  -1.24606900e-01
C     6.191958771299999e+00   7.254856872647384e-01   3.443616300000000e+00 -2.13529902e+00  -1.23493118e+00  -5.76588880e-01
C     7.391412537599999e+00   1.395823883146493e+00   3.406551300000000e+00  1.72235194e+00   9.40084680e-01   1.61193030e-01
C     8.625233038099999e+00   7.151490442984888e-01   3.425286600000000e+00  1.14893766e+00   2.05025470e-01   9.44227000e-02
C     9.852026316600000e+00   1.459735814886149e+00   3.487255500000000e+00 -4.93591230e-01   6.21643440e-01  -5.55342670e-01
C     2.497363675200000e+00   2.878139232664696e+00   3.463023600000000e+00 -2.68103928e+00  -1.29825331e+00   2.53902640e-01
C     3.671968959700000e+00   3.594103410903606e+00   3.516706500000000e+00  2.72766807e+00  -3.80681464e+00  -4.98319560e-01
C     4.928476383500000e+00   2.829677871877657e+00   3.414006900000000e+00 -1.61382770e-01  -3.47441220e-01   3.96343800e-01
C     6.191566293999999e+00   3.467669442160123e+00   3.353003100000000e+00 -1.70195571e+00   3.19502515e+00   4.18454400e-01
C     7.416770929300000e+00   2.806339219213930e+00   3.383892900000000e+00  3.19187800e-02   9.13497090e-01   2.09503040e-01
C     8.606960387499999e+00   3.601161756966374e+00   3.452109600000000e+00  7.48000230e-01  -4.80801780e-01  -2.70851780e-01
C     9.849649810099999e+00   2.927474134223839e+00   3.450610200000000e+00  3.89189570e-01  -2.26099087e+00   3.08935140e-01
C     1.110316166730000e+01   3.601835655673455e+00   3.444166500000000e+00 -1.74306360e-01  -6.76820220e-01   2.81133090e-01
C     3.699163529900000e+00   4.933831630943415e+00   3.546257700000000e+00  2.93927900e-02   4.09198721e+00  -7.02384750e-01
C     4.926480867400000e+00   5.681234737967588e+00   3.458518800000000e+00  2.19025710e-01  -7.09713880e-01  -3.06584170e-01
C     6.121570992100000e+00   4.943242303613213e+00   3.372415800000000e+00  2.74700332e+00   5.54467490e-01   4.15241650e-01
C     7.388349627199999e+00   5.748513430759298e+00   3.406662000000000e+00 -9.32591820e-01  -2.81184580e+00  -2.72200400e-01
C     8.648934555399999e+00   5.025850825749353e+00   3.452784900000000e+00 -3.09487934e+00  -6.81037650e-01  -3.81180190e-01
C     9.841404582299999e+00   5.706144312389321e+00   3.413745900000000e+00  1.53486126e+00   5.53922000e-01  -1.24912900e-01
C     1.107679711190000e+01   5.008746760807390e+00   3.443649600000000e+00  1.58967422e+00  -2.01809000e-03  -4.71854600e-02
C     1.235746952230000e+01   5.662397253898185e+00   3.457326000000000e+00 -1.63516433e+00   2.52080185e+00  -7.02817000e-02
C     4.963348196200000e+00   7.109524451299670e+00   3.389826900000000e+00 -1.81348324e+00  -2.95111450e-01   3.27629160e-01
C     6.135822438900000e+00   7.843969951480863e+00   3.376458300000000e+00  1.20819027e+00   3.47746810e-01   3.25962250e-01
C     7.370265647700000e+00   7.140431143561716e+00   3.377697900000000e+00 -1.23736100e-01  -1.31885120e-01   3.07013900e-02
C     8.604012740500000e+00   7.821001037970920e+00   3.376262100000000e+00  3.52419220e-01  -2.72897590e-01   4.26611900e-02
C     9.841415379000001e+00   7.108254188100666e+00   3.343527300000000e+00  5.62646720e-01   1.34641442e+00   5.96185660e-01
C     1.108336668200000e+01   7.843658704548868e+00   3.387152400000000e+00  7.92868810e-01  -9.07835210e-01  -1.09283820e-01
C     1.235430998390000e+01   7.155904001331685e+00   3.376977000000000e+00 -7.67036310e-01  -2.28084531e+00   4.69616200e-01
C     1.359225043610000e+01   7.839136017648135e+00   3.395068800000000e+00 -5.08976720e-01  -1.50983560e-01   8.08688900e-02
