32
Lattice="9.86 0 0 4.93 8.53901048131456 0 0 0 30 " PBC="1 1 1" Properties=species:S:1:pos:R:3:force:R:3 Energy="-256.86302189"
C     1.230971502800000e+00   8.828503428897152e-01   3.438175500000000e+00 -2.00174100e-02   8.72085540e-01  -6.67610230e-01
C     2.468791564400000e+00   1.563678456975835e+00   3.269277600000000e+00 -5.59993600e-02   1.10617558e+00   3.88588000e-03
C     3.708656491400000e+00   8.589139594923888e-01   3.400384500000000e+00 -7.07909560e-01   5.79657800e-01  -2.46748510e-01
C     4.909027336299999e+00   1.607071744262785e+00   3.373328700000000e+00  1.06263861e+00  -4.70247880e-01   3.67051830e-01
C     6.151856721600000e+00   8.928462793378128e-01   3.520521900000000e+00  1.73794000e-01  -3.96144680e-01  -7.95944380e-01
C     7.403440653000000e+00   1.559994898634973e+00   3.532592400000000e+00  4.19849710e-01   4.03675940e-01  -3.35713120e-01
C     8.649528669699999e+00   8.807416342516792e-01   3.473805600000000e+00 -8.92938700e-02   1.21494852e+00  -1.65284490e-01
C     9.863473382199999e+00   1.632405536725163e+00   3.353397600000000e+00  1.29372950e-01  -6.03479590e-01   4.90822860e-01
C     2.450885508600000e+00   3.002210371818257e+00   3.016839300000000e+00  1.81172023e+00  -5.76127000e-01   7.55520110e-01
C     3.723650692000000e+00   3.735467668691158e+00   3.052646700000000e+00 -8.53416790e-01  -8.80054670e-01   4.84904430e-01
C     4.951810369300000e+00   3.034737939049617e+00   3.274649100000000e+00 -8.32932810e-01  -1.46795211e+00   3.40474400e-02
C     6.198816746399999e+00   3.651813032381114e+00   3.459352200000000e+00  7.74829800e-02   2.32456281e+00  -6.53628700e-02
C     7.440001385099999e+00   2.956984783662509e+00   3.498774000000000e+00 -6.31109000e-03   2.08211767e+00   2.65748100e-01
C     8.670281061000001e+00   3.771338002355123e+00   3.432198000000000e+00 -1.84434733e+00  -1.35122572e+00   3.79617800e-02
C     9.859113438100000e+00   3.069501275394954e+00   3.248075700000000e+00  9.43702280e-01  -1.52893964e+00   8.35098500e-02
C     1.110223162280000e+01   3.734035847413872e+00   3.036205800000000e+00 -4.49792180e-01  -7.35456950e-01   1.08290700e-01
C     3.704775053100000e+00   5.141980087425781e+00   3.118420800000000e+00  4.09764300e-01   5.36589970e-01  -3.99998200e-02
C     4.946302080300000e+00   5.844947977104236e+00   3.328594500000000e+00 -1.24272200e-02  -5.09962500e-02   3.82445810e-01
C     6.183970347199999e+00   5.108389754950082e+00   3.529057800000000e+00 -8.57759240e-01  -2.97001000e-03  -7.90902090e-01
C     7.381071616100000e+00   5.851511060559164e+00   3.598123500000000e+00  6.63454290e-01   7.58106230e-01  -1.34662900e-01
C     8.639814449799999e+00   5.185494970221966e+00   3.497924400000000e+00 -4.07120090e-01  -7.33267970e-01  -6.22952430e-01
C     9.854284108700000e+00   5.867505822649671e+00   3.285798000000000e+00  1.02694468e+00   3.77760400e-02   9.02551700e-02
C     1.109038798800000e+01   5.127939477883622e+00   3.021499800000000e+00 -3.96117370e-01   2.04119482e+00   1.03545863e+00
C     1.232266786350000e+01   5.847922626795048e+00   3.091509600000000e+00  4.58117720e-01   8.08032990e-01  -7.86951500e-02
C     4.936474421100000e+00   7.280625983864033e+00   3.399648300000000e+00  7.00441560e-01   2.44014410e-01   5.87054860e-01
C     6.176950323000000e+00   8.009932024417523e+00   3.558205200000000e+00 -1.17422386e+00  -6.09118680e-01  -6.95873910e-01
C     7.389115009699999e+00   7.294134698443393e+00   3.570533400000000e+00  3.08506810e-01  -9.00424730e-01   2.42941750e-01
C     8.635479451500000e+00   7.974262272109733e+00   3.518287500000000e+00 -1.16254120e-01   7.22083110e-01  -1.39364830e-01
C     9.863063206200000e+00   7.287058847409141e+00   3.417511500000000e+00  1.11646244e+00  -2.29545370e-01  -3.51058300e-01
C     1.111869456900000e+01   8.013413549770428e+00   3.384390600000000e+00 -8.77720400e-01  -8.95632010e-01   1.89712040e-01
C     1.235054085100000e+01   7.279282712125424e+00   3.262432500000000e+00 -4.73521670e-01   8.15163700e-01   4.22654840e-01
C     1.358064339200000e+01   8.039531479565186e+00   3.396026100000000e+00 -1.27088180e-01  -3.11460188e+00  -4.52093030e-01
