64
Lattice="9.86 0 0 4.93 8.53901048131456 0 0 0 30 " PBC="1 1 1" Properties=species:S:1:pos:R:3:force:R:3 Energy="-511.18275858"
C     4.944854090000000e+00   8.289029752736534e+00  -2.643750000000011e-02  3.34803836e+00   2.18267808e+00   3.97383240e-01
C     1.333553956800000e+00   4.726284235408736e-01   4.497510000000000e-02 -2.42024160e+00   5.09340850e-01  -4.83997830e-01
C     1.152656825900000e+00   1.015297141252794e+00   3.461304300000000e+00  7.43933120e-01  -2.28655594e+00   1.08047812e+00
C     2.443095862100000e+00   1.625641359573431e+00   3.409787100000000e+00 -8.75512860e-01   2.35704899e+00  -2.45216130e-01
C     7.505181851800000e+00   8.329005813419490e+00   1.830060000000000e-02 -2.56805731e+00  -1.00240073e+00   4.44406270e-01
C     3.746691145599999e+00   5.118692754215040e-01  -1.781700000000086e-02  2.11306805e+00  -1.90663860e+00  -1.61391416e+00
C     3.657425361100000e+00   9.069449541512360e-01   3.644296200000000e+00  5.31005700e-01   3.55606546e+00  -1.05406070e-01
C     4.874591039799999e+00   1.752766475825165e+00   3.666171000000000e+00  2.05783020e-01  -4.87240066e+00  -5.76349000e-02
C     9.923578759000000e+00   8.286419548013006e+00  -2.007513000000003e-01 -3.36527720e-01  -6.59321590e-01   5.65556690e-01
C     6.228767876799999e+00   4.575773928886160e-01  -1.074558000000003e-01 -8.85723700e-01  -8.35468780e-01   2.40834000e-02
C     6.107217198499999e+00   9.998833734353464e-01   3.727421700000000e+00 -2.26798150e-01  -2.86765634e+00   6.17777980e-01
C     7.364656244399999e+00   1.601840831832842e+00   3.755553600000000e+00 -8.76436320e-01   3.35865640e+00  -1.42587975e+00
C     1.240934929270000e+01   8.341729024424795e+00  -1.386909000000003e-01 -2.18030564e+00  -2.97153179e+00  -1.50464705e+00
C     8.679085548000000e+00   4.825895208262128e-01  -4.563300000000226e-02 -1.73224000e-03   6.34526000e-03  -1.47100900e-01
C     8.603432035799999e+00   9.711379047257888e-01   3.627196800000000e+00 -2.10838785e+00  -2.99708512e+00   8.10859740e-01
C     9.729017985199999e+00   1.682130585673138e+00   3.377127600000000e+00  3.96706878e+00   1.45861039e+00   9.86255600e-01
C     1.254891271200000e+00   1.898071230778923e+00  -1.002347999999991e-01  2.23210150e-01  -5.65103100e-02  -7.96447960e-01
C     2.498400010500000e+00   2.586493343055221e+00  -4.369652999999971e-01 -1.43181234e+00  -4.10276430e-01   1.01673134e+00
C     2.460483676300000e+00   3.126796840254287e+00   3.227631300000000e+00 -9.61871800e-02  -2.13643382e+00   9.56434860e-01
C     3.702376854600000e+00   3.873063404983573e+00   3.304340700000000e+00 -1.04633004e+00  -3.60595408e+00   5.72109760e-01
C     3.706691541300000e+00   1.877480687857975e+00  -3.121554000000017e-01  9.58281370e-01   1.12543377e+00   5.93236940e-01
C     4.943836932400000e+00   2.574938610244000e+00  -2.984618999999995e-01  1.46949901e+00   9.37052010e-01   1.16982560e+00
C     4.926043280600000e+00   3.098903906351053e+00   3.561405600000000e+00 -2.18147094e+00   2.64330316e+00  -5.17618260e-01
C     6.136672863899999e+00   3.772017792979436e+00   3.702228900000000e+00  4.67715800e-02   1.48196746e+00  -2.64299300e-01
C     6.157986486400000e+00   1.841949267519962e+00   1.642350000000000e-02 -3.62340060e-01   1.75255827e+00  -1.86955050e+00
C     7.374654974599999e+00   2.558327160816627e+00  -3.801420000000277e-02  6.55149590e-01   1.43843127e+00   1.08170338e+00
C     7.322356006300000e+00   3.053842779537149e+00   3.633396600000000e+00  2.47999022e+00   5.33082460e-01   6.25285210e-01
C     8.565659361800000e+00   3.855060096847960e+00   3.538170300000000e+00 -9.35065550e-01  -1.87131912e+00   1.27312866e+00
C     8.630301768299999e+00   1.892303043809578e+00  -7.307399999999831e-02 -6.06952800e-02   2.13715940e-01   1.03120707e+00
C     9.836338021300000e+00   2.605943671906775e+00  -8.940090000000112e-02  2.67047898e+00   5.58498840e-01  -1.95288325e+00
C     9.791951012800000e+00   3.122425293839052e+00   3.442582800000000e+00 -8.42755030e-01  -5.17689850e-01  -9.29625020e-01
C     1.103812905130000e+01   3.782638101873832e+00   3.335823600000000e+00  1.41492335e+00   1.00515290e-01  -4.90385340e-01
C     2.512597079400000e+00   3.986046297468435e+00  -6.211532999999996e-01  9.73513420e-01   5.40059080e-01   1.83168800e-01
C     3.773517346200000e+00   4.702483963838461e+00  -5.015307000000000e-01 -1.02261100e+00   2.36501168e+00   1.38424400e-02
C     3.622935130400000e+00   5.232525278242663e+00   3.376131300000000e+00  3.55973593e+00   1.37655905e+00   4.44122690e-01
C     4.931323310600000e+00   5.935336050128284e+00   3.576362100000000e+00 -2.51658564e+00   2.47890540e-01   3.00417030e-01
C     5.025987247900000e+00   4.038855893172100e+00  -3.309110999999980e-01 -2.01391640e+00  -1.11176811e+00  -4.29897500e-01
C     6.224772654100001e+00   4.774695728374572e+00  -1.728288000000013e-01  8.94027430e-01  -1.77041608e+00   1.97465279e+00
C     6.108818807600000e+00   5.225802344511549e+00   3.778311600000000e+00  6.78018000e-01  -2.31816670e-01  -1.44701939e+00
C     7.296636048400000e+00   6.013997243889835e+00   3.763470900000000e+00  2.02840929e+00  -3.12174015e+00   1.34809298e+00
C     7.412853649900001e+00   3.995836529154070e+00   8.899890000000001e-02  1.07098515e+00   5.84763800e-02  -2.17603225e+00
C     8.705273954500001e+00   4.696078595907099e+00  -6.602849999999805e-02 -2.01959834e+00   7.05149710e-01  -3.78984420e-01
C     8.554736503099999e+00   5.248224163620038e+00   3.789410400000000e+00 -3.06620850e-01  -4.50465200e-02  -1.77255416e+00
C     9.809865548200001e+00   5.885082265651389e+00   3.670988400000000e+00  5.89860980e-01   1.42516739e+00   4.35953610e-01
C     9.911512436099999e+00   4.031194009848606e+00  -4.331160000000018e-01 -1.48179214e+00  -1.91094820e+00   2.27672243e+00
C     1.112874782500000e+01   4.689410226452952e+00  -6.587183999999979e-01  7.50089830e-01   6.75584470e-01   1.02304781e+00
C     1.107757018520000e+01   5.194984884909020e+00   3.398845800000000e+00 -2.88838945e+00   1.44583280e-01   8.62585820e-01
C     1.227241297180000e+01   5.881554800422101e+00   3.418108200000000e+00  3.17883960e-01   3.52044622e+00  -1.71480520e-01
C     3.698404162000000e+00   6.225056819825044e+00  -3.877452000000012e-01  3.21955696e+00  -2.93089285e+00  -3.33179560e-01
C     4.990510376300000e+00   6.932978957993889e+00  -1.316421000000005e-01 -1.26332882e+00  -3.60763946e+00  -1.06045900e-01
C     4.945162412200000e+00   7.358100511339178e+00   3.655170900000000e+00 -2.00485494e+00  -3.67088500e-02   8.81194230e-01
C     6.135359659800000e+00   8.092228958061249e+00   3.794398500000000e+00 -5.68740400e-01   2.11849200e+00  -1.93569625e+00
C     6.255736899500000e+00   6.160825956043959e+00   1.354620000000000e-02 -3.24926361e+00   1.95210145e+00  -1.34873440e+00
C     7.429242300999999e+00   6.898262500816086e+00   2.452740000000000e-02  2.00831272e+00  -7.18712450e-01   6.92262120e-01
C     7.355479986099999e+00   7.390150235544076e+00   3.824664600000000e+00  9.36224000e-03   1.25924691e+00   2.93012870e-01
C     8.611565599099999e+00   8.092142970225714e+00   3.877620600000000e+00 -4.32815650e-01  -2.16397383e+00  -6.63149640e-01
C     8.623358652100000e+00   6.117146355735615e+00  -2.892089999999925e-02  2.91245661e+00   1.21233842e+00  -1.79498402e+00
C     9.907841607400000e+00   6.831900556189509e+00  -3.546834000000025e-01 -1.35292719e+00   3.40189770e-01   1.75278200e+00
C     9.806871361999999e+00   7.313457539868480e+00   3.844603200000000e+00  1.89966885e+00   6.01898740e-01  -1.03405366e+00
C     1.106755774960000e+01   8.035761506438265e+00   3.712043700000000e+00 -1.48965981e+00   1.62987644e+00  -2.49617200e-02
C     1.114095938570000e+01   6.100962881513500e+00  -5.078561999999991e-01 -8.90782690e-01   1.83435047e+00  -8.23958630e-01
C     1.234772365180000e+01   6.881305392244483e+00  -5.065190999999984e-01  3.05206860e-01   1.50186129e+00   2.04406421e+00
C     1.230718648030000e+01   7.368086286364804e+00   3.536017800000000e+00 -9.19656680e-01  -1.58139123e+00   1.35913557e+00
C     1.351755038590000e+01   8.056460153231891e+00   3.749388000000000e+00  1.78622522e+00   4.42424970e-01  -2.29233213e+00
