64
Lattice="9.86 0 0 4.93 8.53901048131456 0 0 0 30 " PBC="1 1 1" Properties=species:S:1:pos:R:3:force:R:3 Energy="-509.89398044"
C     5.048705821800000e+00   8.265019250728241e+00  -1.461047999999998e-01 -3.90942724e+00  -1.73372855e+00  -3.50390490e-01
C     1.268268579700000e+00   4.223333956433592e-01  -1.769324999999995e-01  3.37914536e+00   2.15184857e+00   3.74701780e-01
C     1.161236800700000e+00   9.664833755032456e-01   3.250704900000000e+00  8.74472200e-02   3.70562465e+00   1.26702615e+00
C     2.369574032600000e+00   1.687518701286018e+00   3.499800000000000e+00  1.71983470e+00  -1.19647900e-02   5.08769590e-01
C     7.476779283700000e+00   8.267493087454401e+00  -3.652923000000001e-01  8.78940660e-01   2.57631468e+00   1.53623847e+00
C     3.855982885900000e+00   4.776653296527112e-01  -1.422548999999975e-01 -3.88303615e+00  -3.30098870e-01  -3.37553620e-01
C     3.614069560700000e+00   9.318860375216391e-01   3.390014100000000e+00  2.43544190e-01   3.22415206e+00   6.32526590e-01
C     4.834843358500000e+00   1.712504443681231e+00   3.394416900000000e+00 -7.51033560e-01   5.19523400e-01  -2.13883800e-01
C     9.967512207499999e+00   8.300994699611213e+00  -1.522182000000001e-01  1.40585991e+00  -3.12538471e+00   1.93346270e-01
C     6.354321665800000e+00   4.171127300259920e-01  -1.525277999999979e-01 -6.32851608e+00   1.17778208e+00   1.45889290e-01
C     6.002993991199999e+00   9.645987305002047e-01   3.118502100000000e+00  2.48340573e+00   2.16540182e+00   1.63384590e+00
C     7.296071415499999e+00   1.689669080295196e+00   3.158594100000000e+00  6.72515160e-01  -2.18787979e+00  -1.04597320e-01
C     1.241944736240000e+01   8.282152946036570e+00  -1.519098000000021e-01  2.61715500e+00  -3.43588673e+00   1.00029418e+00
C     8.707543677199999e+00   4.717844277450304e-01  -2.085182999999979e-01  1.20378337e+00  -3.14818168e+00   7.23508800e-01
C     8.592229202399999e+00   9.464719482730511e-01   3.224280300000000e+00 -2.25357992e+00   1.99752696e+00   2.01531440e-01
C     9.785502671400000e+00   1.717801448052290e+00   3.351503100000000e+00 -8.00888230e-01  -1.70167286e+00  -5.20413400e-02
C     1.236454451600000e+00   1.857411366136726e+00   1.756761000000000e-01  2.35678594e+00   1.58152270e-01  -9.65979660e-01
C     2.525316824500000e+00   2.612522296360777e+00   3.428376000000000e-01 -6.25208000e-01  -1.77526945e+00  -7.22401670e-01
C     2.446426027800000e+00   3.134599531860597e+00   3.889441500000000e+00 -1.26190028e+00  -2.27300051e+00  -1.00944772e+00
C     3.648736926300000e+00   3.900743375965436e+00   3.908141100000000e+00  6.35633510e-01  -1.85521376e+00  -1.53286197e+00
C     3.738051419200000e+00   1.895221762981747e+00   1.228290000000000e-01  2.05496955e+00  -5.40727220e-01  -2.46371490e-01
C     5.029673852599999e+00   2.564596502311043e+00   6.146400000000000e-02 -1.24753804e+00  -5.86290040e-01   2.44171930e-01
C     4.861208554799999e+00   3.193256044210232e+00   3.556038300000000e+00 -2.62138520e-01  -2.10750228e+00  -4.63519200e-02
C     6.091153828800000e+00   3.834015534739791e+00   3.280017600000000e+00 -3.43759080e-01   7.47464190e-01  -1.06646210e-01
C     6.256518107300000e+00   1.818786603862228e+00  -9.869369999999833e-02 -1.00618620e+00   1.05480715e+00  -1.00790329e+00
C     7.437704054399999e+00   2.521469205200546e+00  -2.537990999999984e-01  5.14879140e-01   2.02867326e+00   1.12953100e+00
C     7.304721297700000e+00   3.082297494939863e+00   3.166821000000000e+00  3.07487030e-01   1.86480189e+00   3.13261700e-01
C     8.524310958800001e+00   3.870090804655275e+00   3.315377700000000e+00 -1.89421700e-02  -1.46203499e+00   5.11850510e-01
C     8.646504361200000e+00   1.831430231289859e+00  -1.834868999999983e-01  2.64792478e+00   2.61036743e+00   4.31279880e-01
C     9.904991820900001e+00   2.587488479336561e+00   1.138566000000000e-01 -9.35359650e-01  -6.13247090e-01  -2.95428270e-01
C     9.704279343800000e+00   3.102052751855657e+00   3.587022600000000e+00  2.99436014e+00   1.37697700e+00  -2.45089100e-01
C     1.105429136610000e+01   3.786485779996119e+00   3.881733600000000e+00 -2.92684826e+00  -1.33559874e+00  -7.36680600e-01
C     2.574263935100000e+00   4.030103578210309e+00   5.195991000000000e-01  6.94393430e-01  -1.44941833e+00  -1.09204200e-02
C     3.832486012900000e+00   4.749330256183313e+00   4.769988000000001e-01 -5.54289340e-01  -1.59226242e+00  -7.30582490e-01
C     3.597026945100000e+00   5.303443041130635e+00   3.733637700000000e+00  1.75246539e+00  -1.15775091e+00   1.56801210e-01
C     4.849097221000000e+00   5.947388692640595e+00   3.416211600000000e+00  1.34321740e-01   2.54254923e+00  -4.63319980e-01
C     5.014434680299999e+00   3.976362120292963e+00   1.257627000000000e-01  7.13853030e-01   2.15384662e+00  -1.66224860e-01
C     6.215121834000000e+00   4.742720976681688e+00  -2.128848000000012e-01  4.66673190e-01  -2.63142061e+00   1.57060826e+00
C     6.085111275699999e+00   5.282709640564356e+00   3.175326900000000e+00 -6.10989140e-01  -1.23432240e+00   5.07310100e-01
C     7.292010032200000e+00   5.996943815280018e+00   2.982950400000000e+00  1.37034572e+00   1.19672371e+00   1.46142143e+00
C     7.462111794199998e+00   3.958769965511962e+00  -1.712549999999986e-01 -1.63581388e+00   8.65641440e-01  -7.05203860e-01
C     8.624838638100000e+00   4.704397470696923e+00  -1.611060000000109e-02  3.67247509e+00  -1.16255005e+00   6.53243090e-01
C     8.532784741400000e+00   5.309573965265169e+00   3.266777100000000e+00 -1.18475620e-01  -1.85387483e+00  -1.88186510e-01
C     9.799108140300000e+00   5.903313479976712e+00   3.465439200000000e+00 -3.33013170e-01   1.72443361e+00  -2.45603080e-01
C     9.958077124199999e+00   4.006653833020239e+00   2.609460000000000e-01 -2.27989868e+00  -2.79071430e-01  -7.49123680e-01
C     1.120542800970000e+01   4.666916167315802e+00   4.612605000000000e-01 -1.63113854e+00   2.38842826e+00  -4.06214160e-01
C     1.100075181260000e+01   5.161463462247893e+00   3.825908700000000e+00 -3.62378440e-01   2.83528041e+00  -1.37642510e+00
C     1.221271096760000e+01   5.896944829790415e+00   3.687605100000000e+00  5.90096800e-02   4.53120458e+00  -1.35125320e-01
C     3.822242163100000e+00   6.164890354252230e+00   4.322760000000000e-01 -1.90068516e+00  -2.37274670e-01  -2.40564681e+00
C     4.994006880200000e+00   6.770027740152477e+00  -6.546900000000022e-02 -7.63341580e-01   4.37562004e+00   9.27320300e-01
C     4.856182271900000e+00   7.415465669133923e+00   3.280657200000000e+00  2.41282853e+00  -2.74639747e+00  -2.92210590e-01
C     6.116304223799999e+00   8.144715522998455e+00   3.065424300000000e+00 -1.15252871e+00  -1.95222886e+00   8.45546650e-01
C     6.199042836200000e+00   6.150625851855285e+00  -2.228421000000012e-01  2.04185686e+00  -8.47105110e-01  -8.73302280e-01
C     7.442740493099999e+00   6.902628069923986e+00  -4.101147000000012e-01  1.02518928e+00  -3.10336965e+00   1.46638732e+00
C     7.351734024199999e+00   7.452575610949268e+00   3.044412000000000e+00 -5.23959390e-01  -2.21499385e+00   2.59775710e-01
C     8.608634122500000e+00   8.084750748853178e+00   3.276230400000000e+00 -1.76204418e+00  -5.04036390e-01  -1.52004719e+00
C     8.688596011000000e+00   6.100399562992134e+00  -1.043664000000000e-01 -1.79347146e+00   1.62986652e+00  -1.51350880e+00
C     9.914687799799999e+00   6.760368240717291e+00  -6.854549999999904e-02  1.91238380e+00   3.02253160e+00   9.02878010e-01
C     9.813698721799998e+00   7.359184965670138e+00   3.245724900000000e+00  2.97402180e-01  -1.58387621e+00   1.53798978e+00
C     1.099174396310000e+01   8.111125532083173e+00   3.287098500000000e+00  1.71252786e+00  -9.49899720e-01  -4.85151800e-01
C     1.120267465400000e+01   6.116459733902919e+00   2.928162000000000e-01 -3.16999479e+00  -5.78314680e-01  -8.79890330e-01
C     1.235199382060000e+01   6.845431984536746e+00   2.137347000000000e-01  4.09359535e+00   1.22150354e+00   7.66880300e-02
C     1.226946256400000e+01   7.437235449402158e+00   3.419391300000000e+00 -2.15647491e+00  -3.53366407e+00   6.32097050e-01
C     1.351546642560000e+01   8.066804737477886e+00   3.358065600000000e+00 -1.25770496e+00   1.96653879e+00  -6.95786410e-01
