64
Lattice="9.86 0 0 4.93 8.53901048131456 0 0 0 30 " PBC="1 1 1" Properties=species:S:1:pos:R:3:force:R:3 Energy="-510.88499328"
C     4.967053929300000e+00   8.379464448757803e+00  -1.293797999999988e-01 -3.96350910e-01   1.46000691e+00   1.16007410e-01
C     1.284953868900000e+00   5.797234121294617e-01  -7.275839999999789e-02 -1.53110692e+00  -1.72441711e+00  -8.43542060e-01
C     1.200966438200000e+00   8.837653832527520e-01   3.747321900000000e+00 -2.25956290e+00  -7.05616180e-01  -5.06677870e-01
C     2.395076232400000e+00   1.553678592582917e+00   3.567771300000000e+00  2.19796749e+00   6.41454370e-01   5.88206100e-02
C     7.423263788600000e+00   8.432161671083550e+00  -4.894739999999942e-02  1.83125185e+00  -9.99849050e-01  -1.77226290e-01
C     3.742439365700000e+00   6.210956010259000e-01  -1.927947000000003e-01 -1.03718421e+00  -2.18710292e+00  -1.58987570e-01
C     3.611524645400000e+00   8.277325672632015e-01   3.780393600000000e+00  2.15848593e+00  -3.52356540e-01   4.72548690e-01
C     4.904336194800000e+00   1.500477141688325e+00   3.848297100000000e+00 -7.22895120e-01   1.89527217e+00  -8.41945450e-01
C     9.885377963800000e+00   8.373363069599527e+00  -3.073629000000011e-01  3.73031350e-01   3.37528593e+00   1.50382450e-01
C     6.196595732100000e+00   6.083613746970760e-01  -2.689164000000019e-01 -5.91693730e-01  -2.09515079e+00  -5.96765610e-01
C     6.188061507700000e+00   8.658224459212328e-01   3.992414400000000e+00 -3.08476894e+00  -5.35385040e-01  -3.91159310e-01
C     7.375686626400000e+00   1.584475216999875e+00   3.863415300000000e+00  9.56913820e-01  -1.67700536e+00   2.36323640e-01
C     1.236906305820000e+01   8.521194176193900e+00  -3.601947000000010e-01  1.75919660e-01  -4.21741288e+00   8.63886900e-02
C     8.685459988700000e+00   6.119936989750584e-01  -1.133730000000028e-01 -9.64476610e-01   9.98772900e-02  -5.59248350e-01
C     8.584793036899999e+00   7.878761381170680e-01   3.763427700000000e+00  2.18719800e+00   2.22916720e+00   3.75044700e-01
C     9.820427333700000e+00   1.581831283184953e+00   3.677603400000000e+00 -7.51407050e-01  -8.29445300e-02  -6.61034390e-01
C     1.203470089400000e+00   1.912503183171381e+00  -4.406324999999995e-01  3.05253499e+00   3.32792358e+00   1.04988618e+00
C     2.451749244600000e+00   2.736843372351088e+00  -5.944181999999998e-01  8.52955270e-01  -3.16865053e+00   2.23412400e-02
C     2.449204773000000e+00   2.975863596542637e+00   3.301930500000000e+00 -5.15506630e-01  -6.40903880e-01   5.58971450e-01
C     3.663641844600000e+00   3.681272447756904e+00   3.399019200000000e+00  1.17930892e+00  -1.21827485e+00   3.85724970e-01
C     3.681245198400000e+00   2.004260486525898e+00  -4.010424000000015e-01  1.94025030e+00   1.37769150e+00  -1.61339530e-01
C     4.975207114000000e+00   2.708140854864244e+00  -3.921512999999983e-01 -1.61812873e+00   3.16106130e-01  -1.47084750e-01
C     4.916918146400000e+00   2.941220489464857e+00   3.637889400000000e+00 -1.58213230e+00  -3.06143900e-01   1.75126110e-01
C     6.108110810299999e+00   3.663820161967565e+00   3.786838200000000e+00  1.11310536e+00   3.37211780e-01   8.92035040e-01
C     6.196123290199999e+00   1.973120764667853e+00  -2.421708000000002e-01 -8.11263280e-01   3.34830979e+00   5.10819780e-01
C     7.413939433099999e+00   2.718601740432978e+00  -1.288443000000008e-01  6.05017050e-01   8.41038090e-01   8.81944600e-02
C     7.354366890700000e+00   2.982628627595417e+00   3.908115300000000e+00  1.21152425e+00   7.07304340e-01  -1.26590204e+00
C     8.618561318399999e+00   3.726138287401129e+00   3.753631500000000e+00 -1.21226551e+00  -3.38629791e+00   3.23405480e-01
C     8.646405416099999e+00   2.060129097343918e+00  -3.806099999999901e-02  1.35224564e+00  -2.15996428e+00  -8.91486980e-01
C     9.924097937299999e+00   2.662530498896268e+00  -2.842485000000003e-01 -3.07378751e+00   2.75715459e+00  -5.77833740e-01
C     9.816415644799999e+00   3.029659874907265e+00   3.494768700000000e+00  1.11788810e+00  -1.70355009e+00   4.00360950e-01
C     1.109518882200000e+01   3.713259410234774e+00   3.290390400000000e+00 -1.92584930e+00  -8.85050300e-02   1.47102745e+00
C     2.549321931200000e+00   4.091686836401965e+00  -8.909406000000004e-01 -2.07472774e+00   2.17215893e+00   9.68238700e-01
C     3.806972178300000e+00   4.882220314580408e+00  -8.342013000000001e-01 -2.30931310e+00  -7.37487920e-01   1.51025294e+00
C     3.666124247500000e+00   5.081903025292693e+00   3.483656400000000e+00 -2.00327190e-01   2.13749524e+00   4.29112360e-01
C     4.896870942300000e+00   5.754146530582851e+00   3.770839800000001e+00  1.89836810e-01   9.71438210e-01  -2.37280190e-01
C     4.970062856200000e+00   4.160758379834056e+00  -4.667856000000015e-01 -1.34574700e-01  -1.70303486e+00  -6.40456700e-02
C     6.161015034699999e+00   4.810469400439903e+00  -1.250502000000004e-01  2.07584541e+00   1.59505138e+00  -9.27978740e-01
C     6.108256935500000e+00   5.095836470253329e+00   3.917028600000000e+00  1.49050965e+00  -1.23667009e+00  -3.50358510e-01
C     7.355978409099999e+00   5.793667120446806e+00   4.069857600000000e+00 -3.46554180e-01   1.09888849e+00  -1.20252250e-01
C     7.457619479599999e+00   4.162372423594985e+00  -1.442241000000024e-01 -2.72464666e+00  -1.57706029e+00   2.20925520e-01
C     8.639135588799999e+00   4.865839845386520e+00  -3.159627000000000e-01  2.04569109e+00  -1.34961961e+00   1.02250450e-01
C     8.631177533499999e+00   5.052410307776031e+00   3.975546899999999e+00 -2.59975541e+00   4.18268948e+00  -6.32142820e-01
C     9.783210073499999e+00   5.813352955207398e+00   3.804854100000000e+00  3.13758149e+00   2.18412300e-02   1.31068130e-01
C     9.873060161600000e+00   4.121168965545632e+00  -5.202347999999972e-01  1.03881563e+00  -9.54795430e-01   4.29341000e-01
C     1.109410432060000e+01   4.788286332064435e+00  -7.812812999999998e-01  1.74516111e+00   2.67058142e+00  -6.60066620e-01
C     1.105100359840000e+01   5.114268009764513e+00   3.538533300000000e+00  8.77213530e-01   1.90611766e+00  -5.97667790e-01
C     1.231670700050000e+01   5.899687645346695e+00   3.523028700000000e+00 -1.83354059e+00  -2.07889104e+00   2.85119580e-01
C     3.686270298100000e+00   6.312455556060253e+00  -6.185988000000009e-01  1.37857674e+00  -1.22381980e+00  -4.71593270e-01
C     4.899775205299999e+00   6.994633346142842e+00  -3.258279000000002e-01  2.32649968e+00  -1.34316036e+00   1.15220106e+00
C     4.967423876500000e+00   7.163894124218031e+00   3.836501100000000e+00 -2.79239804e+00   1.99915100e+00  -3.49651180e-01
C     6.089925124900000e+00   8.002139408843579e+00   3.905147100000000e+00  2.45431479e+00  -1.53605391e+00   4.64268050e-01
C     6.187927362400000e+00   6.218627115713812e+00  -1.005396000000012e-01 -5.86649580e-01   2.61164207e+00  -4.30748030e-01
C     7.460777391099999e+00   6.993735725361185e+00  -1.183770000000095e-02 -7.15587650e-01  -1.38272162e+00  -8.23712390e-01
C     7.330460729099999e+00   7.286679800733934e+00   4.068187800000000e+00  5.36270400e-01  -2.50396495e+00  -7.09601750e-01
C     8.591378875999998e+00   7.927284991344118e+00   3.981976500000000e+00 -1.19227457e+00   1.89106581e+00  -1.02442350e-01
C     8.717890366799999e+00   6.245886028088907e+00  -2.541261000000006e-01 -2.06613424e+00   2.65890239e+00   5.88078800e-02
C     9.900451586699999e+00   7.010052408146788e+00  -4.976825999999974e-01  2.80690540e-01  -1.77328760e+00   2.81559000e-01
C     9.820573951899998e+00   7.238794566983979e+00   3.942936300000000e+00  5.33937770e-01   1.03825230e-01   3.03712030e-01
C     1.106560132840000e+01   7.990508678839086e+00   3.992028600000000e+00 -3.15014900e-02  -7.19029040e-01  -1.19715269e+00
C     1.114919835240000e+01   6.345001396774040e+00  -7.885115999999996e-01 -3.88423408e+00  -4.20957865e+00   8.06822340e-01
C     1.230669594530000e+01   6.988183831527298e+00  -6.458154000000000e-01  3.42884552e+00   4.17700906e+00   6.22048010e-01
C     1.227958814310000e+01   7.326864554833023e+00   3.740032200000000e+00  1.77638043e+00  -3.19391189e+00   2.83076480e-01
C     1.359571593030000e+01   7.897857426477418e+00   3.773534700000000e+00 -2.00463656e+00   1.85949446e+00   2.96697800e-02
