64
Lattice="9.86 0 0 4.93 8.53901048131456 0 0 0 30 " PBC="1 1 1" Properties=species:S:1:pos:R:3:force:R:3 Energy="-512.73443685"
C     1.083547938000000e-01   1.958336663483200e-03  -2.233316999999992e-01 -3.18067050e-01  -1.75137282e+00   2.75411430e-01
C     1.324420047200000e+00   6.595038139946257e-01  -1.969878000000023e-01  1.23918856e+00   1.70023684e+00  -1.04606561e+00
C     1.108448825700000e+00   7.112528645966745e-01   3.525489900000000e+00  1.17163580e-01  -9.51373340e-01  -2.77458250e-01
C     2.348402098300000e+00   1.374037195637506e+00   3.595844700000000e+00 -2.13498246e+00   4.47160242e+00   2.24157550e-01
C     7.483059167000000e+00   8.439952322685082e+00  -3.580652999999998e-01  5.51993390e-01   4.69392168e+00   1.12801514e+00
C     3.803282467700000e+00   6.904885528124584e-01  -2.651265000000009e-01 -1.24528210e-01  -1.28748465e+00  -1.04043330e+00
C     3.556113861100000e+00   7.189321675015480e-01   3.710712000000000e+00 -4.40550290e-01  -2.37309360e-01   2.45813930e-01
C     4.758733870600000e+00   1.416269860620015e+00   3.725247600000000e+00  1.48996539e+00   2.63368792e+00  -2.54590420e-01
C     5.047962131299999e+00   3.816553429088400e-02  -3.277256999999985e-01  8.39053840e-01  -2.62122654e+00  -4.13155930e-01
C     6.341420299500000e+00   7.129577634291112e-01  -4.245432000000022e-01 -2.63786549e+00  -1.76648017e+00   1.32950478e+00
C     5.982117511799999e+00   7.624420976716544e-01   3.703239000000000e+00  3.32903709e+00  -7.93680850e-01   1.67793700e-01
C     7.277640807699999e+00   1.480191953782142e+00   3.623037300000000e+00 -1.33130607e+00   3.59084520e-01  -7.68932690e-01
C     1.242583491690000e+01   8.488404802901222e+00  -2.667084000000024e-01  1.47742257e+00   7.80943510e-01  -1.34194790e-01
C     8.713607872999999e+00   7.307415336052832e-01  -1.494891000000003e-01  1.90620050e+00  -3.36509413e+00  -9.10406100e-01
C     8.522874504699999e+00   8.079522056565960e-01   3.438457500000000e+00 -2.47152036e+00  -1.44243027e+00   1.49199590e+00
C     9.752706437999999e+00   1.448798367142526e+00   3.506402700000000e+00  7.45839680e-01   7.49102100e-01  -7.65586880e-01
C     1.343137827500000e+00   2.133889411430577e+00  -2.207174999999992e-01  4.08043009e+00  -2.05737088e+00   1.32876053e+00
C     2.665032334300000e+00   2.835527947957505e+00  -1.512405000000001e-01 -3.82027671e+00  -6.00596960e-01  -9.92227540e-01
C     2.271159499200000e+00   2.919626868982824e+00   3.652741500000000e+00  2.79710413e+00  -2.45282630e+00  -2.94126000e-02
C     3.564827931900000e+00   3.581111989579124e+00   3.831970200000000e+00 -9.12602320e-01  -4.42983430e-01  -1.18128985e+00
C     3.846388465000000e+00   2.103661058161062e+00  -2.709191999999980e-01  1.39826700e-02  -1.76009710e-01   9.81949390e-01
C     5.069654722899999e+00   2.794686373172294e+00  -2.141210999999998e-01  2.02954008e+00  -2.74121940e-01  -1.21477115e+00
C     4.829998943300000e+00   2.885332068142524e+00   3.708568200000000e+00 -2.98024379e+00  -1.05392833e+00   5.33684840e-01
C     5.989443787599999e+00   3.632619898525218e+00   3.650882100000000e+00  2.90418657e+00  -1.24594385e+00   6.45581480e-01
C     6.376535506300000e+00   2.090910522322222e+00  -3.476561999999994e-01 -1.91237120e+00   1.10601865e+00   7.49343210e-01
C     7.607885041499999e+00   2.745368464244005e+00  -2.337290999999979e-01 -1.63868542e+00   4.45026132e+00  -6.12365100e-01
C     7.271702326899999e+00   2.887436592665425e+00   3.615624300000000e+00 -1.35400193e+00   1.04397554e+00  -3.44275260e-01
C     8.494374519799999e+00   3.604733198099634e+00   3.547730700000000e+00  1.05476857e+00  -1.84383399e+00   1.12766528e+00
C     8.832504042100000e+00   2.115540956491362e+00  -1.827776999999990e-01 -1.48562882e+00  -6.96031510e-01   4.26436800e-01
C     1.004050460430000e+01   2.825130507236638e+00  -1.156328999999978e-01 -1.00941098e+00   8.76170040e-01  -4.17038850e-01
C     9.742154611100000e+00   2.851745065880911e+00   3.507782700000000e+00 -9.61665490e-01   2.28137496e+00  -1.97140160e-01
C     1.092863670930000e+01   3.662606085457519e+00   3.523767000000000e+00  5.84669000e-01  -3.94472717e+00   1.16046419e+00
C     2.577006937800000e+00   4.240303873520915e+00  -1.883510999999984e-01  1.17673887e+00  -2.90590000e-03   5.83098570e-01
C     3.824047677000000e+00   4.924411650752194e+00  -2.697710999999998e-01  3.15923330e-01   5.01490490e-01   2.11212660e-01
C     3.558051794800000e+00   4.991608710603715e+00   3.824972100000000e+00  2.34461186e+00   1.09977726e+00  -4.08449320e-01
C     4.829534635900000e+00   5.774286982261398e+00   3.727895100000000e+00 -2.52392439e+00  -1.16293729e+00  -9.03925300e-02
C     5.062953571100000e+00   4.206602875469394e+00  -2.676786000000000e-01 -4.75183420e-01  -5.85388050e-01  -7.88847000e-02
C     6.292153823500000e+00   4.878992056278340e+00  -3.628596000000002e-01  7.09300900e-02   1.51282135e+00   5.77496430e-01
C     6.064569346100001e+00   5.047165476759006e+00   3.724150500000000e+00 -1.46822005e+00   1.05107330e-01  -5.33765750e-01
C     7.303999841500000e+00   5.706287767765385e+00   3.700940700000000e+00 -3.48002230e-01   1.01365292e+00   4.83357100e-01
C     7.540482820999999e+00   4.243068292773710e+00  -3.083433000000007e-01  2.28025000e-02  -3.15577147e+00   3.23291760e-01
C     8.749698677500000e+00   4.926155914422943e+00  -2.747529000000029e-01  1.20510058e+00   1.37216818e+00  -1.05012070e-01
C     8.523204321700000e+00   4.983138780718498e+00   3.801035700000000e+00  1.42979600e-02   2.10159234e+00  -1.89369570e+00
C     9.724717644800000e+00   5.775626496835395e+00   3.739699800000000e+00  6.36204850e-01  -1.33263913e+00   4.34569320e-01
C     1.001099998400000e+01   4.241140184207326e+00  -1.231392000000007e-01 -1.32217039e+00   9.50867800e-02  -1.68475310e-01
C     1.120641770720000e+01   4.955505091173437e+00  -1.055448000000005e-01  6.12786870e-01  -4.51468100e-01  -9.66452880e-01
C     1.095865192970000e+01   5.007306229739413e+00   3.731935200000000e+00 -6.44208320e-01   3.45993227e+00  -4.35366090e-01
C     1.221259023190000e+01   5.704921696868794e+00   3.781262100000000e+00 -6.97667900e-01  -5.79558730e-01   3.24597600e-02
C     3.845442940300000e+00   6.330308406831209e+00  -2.951180999999998e-01 -3.47853040e-01   2.18137064e+00   3.64280340e-01
C     5.136132814900000e+00   7.084252139712748e+00  -3.209909999999994e-01 -4.58307733e+00  -4.84878210e-01   6.28515930e-01
C     4.712792334500000e+00   7.193013174636089e+00   3.552324300000000e+00  2.43970160e+00  -1.32746460e+00   3.00716820e-01
C     5.996281599000000e+00   7.808236668935103e+00   3.506741400000000e+00  4.42276750e-01   1.98751874e+00   4.53714750e-01
C     6.277940633500000e+00   6.304926881300247e+00  -3.254696999999993e-01  1.74959759e+00   1.61648862e+00  -9.81019410e-01
C     7.497751207899999e+00   7.098830109184414e+00  -4.173702000000006e-01  1.03843128e+00  -4.49187944e+00   2.67874060e-01
C     7.260863869800000e+00   7.152511025517458e+00   3.646663500000000e+00 -1.13527166e+00  -1.94225322e+00   2.63278280e-01
C     8.453806141399999e+00   7.849435686699006e+00   3.791515200000000e+00  1.33418427e+00   9.65449910e-01  -1.06614654e+00
C     8.764475267900000e+00   6.359882415727641e+00  -4.150556999999999e-01 -3.85831570e-01   5.42216850e-01   1.01665327e+00
C     9.998573721800000e+00   7.070626184519497e+00  -3.046143000000008e-01 -1.49231173e+00   2.04622440e+00  -5.80953000e-01
C     9.711801488500001e+00   7.210477500430204e+00   3.747621300000000e+00  6.87814720e-01  -2.07156170e+00   9.77738280e-01
C     1.098258693180000e+01   7.880917652097090e+00   3.788759100000000e+00 -1.15563125e+00  -9.25238340e-01  -8.55586250e-01
C     1.120114324810000e+01   6.358145751776218e+00  -2.533512000000009e-01  3.57782330e-01   2.50338810e-01   6.20191680e-01
C     1.241046406430000e+01   7.061177000912434e+00  -2.360745000000009e-01  2.83081041e+00  -2.26890300e-02  -4.73672830e-01
C     1.220600858330000e+01   7.093814294428461e+00   3.728317500000000e+00 -7.95556940e-01   4.20688554e+00  -1.94533880e-01
C     1.337593406530000e+01   7.940608324005957e+00   3.555925500000000e+00  4.91749070e-01  -2.71018146e+00   5.34673400e-02
