64
Lattice="9.86 0 0 4.93 8.53901048131456 0 0 0 30 " PBC="1 1 1" Properties=species:S:1:pos:R:3:force:R:3 Energy="-509.45478913"
C     4.947397772800000e+00   8.358376764646708e+00  -3.073347000000020e-01  2.08634907e+00   4.95305932e+00   2.99468680e-01
C     1.327508593600000e+00   5.998453341552672e-01  -3.089328000000009e-01 -2.82364313e+00  -6.43104110e-01   1.13673904e+00
C     1.218835962700000e+00   8.885167448541383e-01   3.798809700000000e+00 -7.50695170e-01  -2.97198451e+00   3.41323800e-02
C     2.449083002000000e+00   1.490363708456022e+00   3.749137500000000e+00 -9.05699940e-01   5.24109257e+00  -9.80170510e-01
C     7.471994225700000e+00   8.404704909835635e+00  -2.775669000000001e-01 -2.60612019e+00  -5.54203210e-01   1.01774890e-01
C     3.724212317600000e+00   5.638523803008095e-01  -3.238137000000023e-01  2.21998980e+00  -1.93774964e+00  -5.28494340e-01
C     3.647848145900000e+00   8.864487672960920e-01   3.782979600000000e+00  2.65076638e+00  -2.77425769e+00   5.09125900e-02
C     4.891518934300000e+00   1.576975147924977e+00   3.717246900000000e+00  1.73923780e-01   9.29247450e-01   6.18999060e-01
C     9.890004670200000e+00   8.389376617513092e+00  -3.963095999999986e-01  5.29886060e-01  -1.96773700e-02   7.32774460e-01
C     6.222423410499999e+00   6.140457939736120e-01  -3.475935000000021e-01 -1.90569576e+00  -4.12431242e+00   7.25595850e-01
C     6.077853329700000e+00   8.132434888906328e-01   3.877227000000000e+00  1.55338988e+00   2.17961770e-01  -5.07535320e-01
C     7.306358304199999e+00   1.519088768930533e+00   3.884304000000000e+00  2.24295841e+00   1.19500607e+00  -1.10512452e+00
C     1.235904653070000e+01   8.344283554799993e+00  -2.436675000000008e-01 -8.57888360e-01  -1.03128380e-01  -2.01068434e+00
C     8.628581543399999e+00   5.060330325386336e-01  -2.760891000000001e-01  1.23154551e+00   2.15822914e+00  -2.76521740e-01
C     8.596418519200000e+00   8.358516292077952e-01   3.773276400000000e+00 -3.67019730e-01   3.05315030e+00  -4.32954800e-01
C     9.904673441500000e+00   1.601432240181374e+00   3.612004500000000e+00 -4.30013705e+00  -1.57635251e+00   1.63517776e+00
C     1.253321263400000e+00   2.034089128714843e+00  -2.093285999999992e-01  2.16302883e+00  -9.95124840e-01  -3.16612090e+00
C     2.563438345300000e+00   2.730239216255751e+00  -5.243384999999989e-01 -3.70232296e+00  -2.88950759e+00   2.50295854e+00
C     2.430788412900000e+00   2.976205413132151e+00   3.537270900000000e+00 -5.30241230e-01  -6.34042760e-01   5.04430670e-01
C     3.616071042100000e+00   3.743187531895812e+00   3.441297600000000e+00  3.26894709e+00  -3.07910459e+00   1.53207827e+00
C     3.738678367299999e+00   1.910197394171467e+00  -4.417274999999989e-01  1.95399850e-01   6.56999793e+00  -4.85345000e-03
C     4.939143720300000e+00   2.762150523100769e+00  -3.786309000000010e-01  6.07412510e-01  -1.97015851e+00   1.34648770e-01
C     4.979404910400000e+00   3.050079552228509e+00   3.685957200000000e+00 -5.15540418e+00  -3.29765091e+00  -5.80530650e-01
C     6.155185950600000e+00   3.647698766351640e+00   3.964196700000000e+00  5.27345610e-01   2.96012096e+00  -1.50110656e+00
C     6.127636518999999e+00   1.986434106687430e+00  -2.486543999999995e-01  2.39287648e+00   2.16001962e+00  -7.85298380e-01
C     7.410187653800000e+00   2.664759266021653e+00  -2.658152999999999e-01 -8.25933310e-01   2.89793177e+00  -3.02180560e-01
C     7.356838102499999e+00   2.942841108263857e+00   3.795864300000000e+00  1.51029198e+00   1.17932682e+00   1.52611840e+00
C     8.631676548100000e+00   3.755174253247217e+00   3.755780400000000e+00 -2.70666101e+00  -2.26400433e+00  -3.93213170e-01
C     8.632323117599999e+00   2.000540381220181e+00  -3.661166999999992e-01  6.46760160e-01  -1.94717367e+00   1.18368614e+00
C     9.882177900800000e+00   2.707591284149752e+00  -3.778149000000006e-01  2.18450230e-01   1.09162642e+00   2.20505990e-01
C     9.798576489100000e+00   2.996273795562247e+00   3.656917500000000e+00  1.50885559e+00   5.31974260e-01  -2.20245260e-01
C     1.103345659450000e+01   3.697790565799730e+00   3.620159400000000e+00  1.09766278e+00  -1.68288229e+00  -1.14806860e+00
C     2.448564957600000e+00   4.113395050404640e+00  -4.624997999999998e-01  2.42542299e+00   8.36083490e-01  -8.31383550e-01
C     3.669410339000000e+00   4.805120820445546e+00  -3.784599000000028e-01  3.44698007e+00   2.94844049e+00  -1.72961628e+00
C     3.660386319100000e+00   5.102819502243664e+00   3.542543100000000e+00  1.71962118e+00   3.17787291e+00   5.76089600e-01
C     4.971427677399999e+00   5.883393932499283e+00   3.716762100000000e+00 -3.58663867e+00  -1.86299207e+00   1.78065680e-01
C     4.991935392799999e+00   4.213065454770972e+00  -4.022657999999986e-01 -3.15434956e+00  -3.45492320e+00   2.29861360e-01
C     6.199902283100000e+00   4.891668046555690e+00  -4.129068000000018e-01  1.64516677e+00  -3.81838890e-01   1.63951176e+00
C     6.129083671200000e+00   5.114254688908165e+00   3.958685700000000e+00 -8.50306380e-01  -3.69259240e-01  -6.61441940e-01
C     7.299488644999999e+00   5.812273709672830e+00   3.952742100000000e+00  4.38373772e+00   1.97602925e+00  -7.49241940e-01
C     7.441634743400000e+00   4.163585816984193e+00  -2.826945000000016e-01 -8.17416500e-01  -2.60896967e+00  -5.38045180e-01
C     8.694545880099998e+00   4.830366319539561e+00  -3.089288999999980e-01 -1.12387368e+00  -1.47951995e+00  -6.38838920e-01
C     8.599123215799999e+00   5.177679726270251e+00   3.769043400000000e+00 -1.47077054e+00  -1.54573276e+00   1.07685133e+00
C     9.816235058899998e+00   5.857946229637101e+00   3.770212800000000e+00  1.08688545e+00  -6.00372640e-01  -6.38020740e-01
C     9.944056993000000e+00   4.173522151139140e+00  -4.851494999999986e-01 -2.80437073e+00  -2.81658208e+00   7.25941560e-01
C     1.111588673680000e+01   4.860915910383333e+00  -5.745515999999995e-01  6.97883290e-01   1.82073780e-01   1.31268073e+00
C     1.102543119540000e+01   5.065243330456108e+00   3.540739800000000e+00  1.44716711e+00   3.90139047e+00   1.98441206e+00
C     1.232619113730000e+01   5.810018130054538e+00   3.674313600000000e+00 -2.45894245e+00  -5.72082810e-01  -8.69910370e-01
C     3.775212526699999e+00   6.263262145904764e+00  -5.564327999999996e-01 -1.08400553e+00  -1.70880900e+00   1.95884484e+00
C     5.000545736399999e+00   7.034964031931035e+00  -3.158990999999993e-01 -1.59651579e+00  -5.02247105e+00  -9.87488060e-01
C     4.875229573400000e+00   7.311689110798072e+00   3.743574600000000e+00 -4.23266360e-01  -1.46752151e+00   5.57532400e-01
C     6.088239311400000e+00   7.956123620658013e+00   3.937020600000000e+00  2.60037707e+00   2.14705226e+00  -1.45984910e+00
C     6.213637608199999e+00   6.291378972662784e+00  -2.462045999999987e-01 -1.93432474e+00   1.61018840e-01  -8.15637220e-01
C     7.380420067299999e+00   6.981162886330432e+00  -2.267036999999981e-01  3.66437745e+00  -3.62837500e-01  -1.48175290e-01
C     7.400604078899999e+00   7.250890416889319e+00   3.880774200000000e+00 -2.86029452e+00   3.38651300e-02   1.03685125e+00
C     8.629332826099999e+00   7.970983804426043e+00   3.884979300000000e+00 -3.96327260e-01   5.68306240e-01  -3.70138700e-02
C     8.607582849300000e+00   6.179762407244827e+00  -2.957865000000020e-01  1.55674580e+00   5.21147252e+00   3.97226200e-02
C     9.856690195199999e+00   6.956375932099194e+00  -3.719210999999980e-01  6.74636890e-01   2.77873270e-01   7.34745500e-02
C     9.867035701599999e+00   7.270469770189226e+00   3.914963700000000e+00 -1.01240205e+00  -1.07873737e+00  -1.02882652e+00
C     1.110701663150000e+01   7.912042772247213e+00   3.843220200000000e+00 -3.15307476e+00   2.14163125e+00   9.60219310e-01
C     1.114121150590000e+01   6.284933812942585e+00  -4.297169999999966e-01 -2.94898198e+00  -2.66586713e+00  -1.13232696e+00
C     1.236092214920000e+01   6.848446596796605e+00  -5.232194999999997e-01  1.79203260e+00   6.24481409e+00   1.59703819e+00
C     1.227490326270000e+01   7.219510578056577e+00   3.838278600000000e+00  1.70458180e+00   1.17086740e-01  -9.39296420e-01
C     1.343544808860000e+01   8.028726215703793e+00   3.746792400000000e+00  3.50299991e+00  -3.65132732e+00   2.68491620e-01
