64
Lattice="9.86 0 0 4.93 8.53901048131456 0 0 0 30 " PBC="1 1 1" Properties=species:S:1:pos:R:3:force:R:3 Energy="-506.15753076"
C     4.928139911000000e+00   8.269541169118028e+00   9.278760000000000e-02  3.52347861e+00   1.49054919e+00   4.56764430e-01
C     1.322000008800000e+00   5.548071772795552e-01   2.057892000000000e-01 -2.21046615e+00  -3.04663497e+00  -7.17684610e-01
C     1.210139639900000e+00   9.982324411491432e-01   3.375432000000000e+00  1.27908863e+00  -4.00365801e+00   1.39227726e+00
C     2.504881481500000e+00   1.641286876135306e+00   3.201475200000000e+00 -3.14148904e+00   2.34380555e+00   4.06524940e-01
C     7.441856938499999e+00   8.295655427138279e+00   1.960773000000000e-01 -1.77783228e+00  -2.04651450e-01  -5.91654230e-01
C     3.689874916900000e+00   3.977068894190392e-01  -1.606494000000005e-01  2.66432850e+00   7.60692980e-01   2.44239272e+00
C     3.679511958300000e+00   1.018060706604542e+00   3.621689100000000e+00 -2.67154950e-01  -2.37041255e+00  -4.18406870e-01
C     4.918212863000000e+00   1.677272742611066e+00   3.607449000000000e+00 -1.31710068e+00   1.30241899e+00   4.72374650e-01
C     9.884083641600000e+00   8.244513841741778e+00   7.595100000000000e-03  1.56714040e-01  -8.14503840e-01  -1.27473546e+00
C     6.177350934800000e+00   3.829628361935376e-01   6.929850000000000e-02  5.93511170e-01   1.39447550e+00  -1.44881156e+00
C     6.107530647900000e+00   1.000887731848004e+00   3.829644600000000e+00  2.05290863e+00  -2.83651754e+00  -1.11564272e+00
C     7.341773846599999e+00   1.673540682690677e+00   3.622408500000000e+00 -1.74631277e+00   2.84942616e+00   1.79741663e+00
C     1.237986217390000e+01   8.176794109058775e+00  -1.281329999999983e-01 -8.72611310e-01   2.63716891e+00   1.62311431e+00
C     8.661018774199999e+00   3.874950013959024e-01   5.626170000000000e-02 -7.47714010e-01   2.69924521e+00   4.06742540e-01
C     8.544305263999998e+00   1.006275591290570e+00   3.562550700000000e+00  1.22898217e+00  -2.50291995e+00  -2.95663350e-01
C     9.825199475100000e+00   1.637715861952570e+00   3.406639200000000e+00 -6.38064400e-02   1.10247810e-01  -1.13975193e+00
C     1.302669873200000e+00   1.932866503023456e+00  -6.041250000000176e-02  7.46151880e-01  -3.13266630e-01  -7.63360770e-01
C     2.557916597400000e+00   2.616530422489984e+00  -2.917524000000000e-01 -1.81347291e+00  -4.93186380e-01  -1.34796505e+00
C     2.423702129500000e+00   3.100878381744343e+00   2.911556400000000e+00 -1.17154757e+00  -9.59509260e-01   7.39413730e-01
C     3.642870423500000e+00   3.792006250271439e+00   3.004693200000000e+00  1.33724286e+00   1.84833829e+00   8.79567920e-01
C     3.739017354100000e+00   1.797930241545038e+00  -2.326665000000006e-01  9.68685330e-01   3.80907487e+00  -8.68606720e-01
C     5.037184461100000e+00   2.627494084995780e+00  -2.534163000000014e-01 -2.45536998e+00  -3.82763887e+00   4.55163200e-02
C     4.844302007200000e+00   3.090651123502342e+00   3.464798400000000e+00  1.20498462e+00   2.07859707e+00  -4.01515220e-01
C     6.064758658099999e+00   3.875269970681710e+00   3.760374600000000e+00  2.34105920e-01  -5.21149780e-01  -1.16762009e+00
C     6.162232301000000e+00   1.878240915961010e+00   2.656200000000000e-03  4.21645624e+00  -1.44369695e+00   1.76973052e+00
C     7.492664039500000e+00   2.586565070743254e+00   2.752509000000000e-01 -2.23371178e+00   1.22537652e+00  -2.46573780e+00
C     7.312611910599999e+00   3.147678904993022e+00   3.782433000000000e+00  4.28562890e-01  -1.92428309e+00  -1.72235629e+00
C     8.575458476300000e+00   3.752200799017871e+00   3.525544800000000e+00  1.83251600e-02   1.35263045e+00  -4.73630100e-01
C     8.747198822400000e+00   1.945278808657184e+00   1.977810000000000e-01 -3.01586884e+00  -4.09106507e+00  -9.99711920e-01
C     9.895625116699998e+00   2.587060333351094e+00  -1.841781000000005e-01  1.87324592e+00   2.23108434e+00   1.47716433e+00
C     9.821557141800000e+00   3.003438281525282e+00   3.158539200000000e+00 -2.53889959e+00   3.33465406e+00   1.81766752e+00
C     1.095090137810000e+01   3.817132288608839e+00   2.990755800000000e+00  3.49846964e+00  -5.08372230e-01   1.25796350e-01
C     2.495240176300000e+00   4.040117788140835e+00  -7.696689000000028e-01 -1.81502331e+00  -3.09643616e+00   1.71760983e+00
C     3.712962057600000e+00   4.603351175571948e+00  -6.718890000000002e-01  4.67282304e+00   5.90114653e+00   1.50235773e+00
C     3.658956372600000e+00   5.284595139468445e+00   2.989540800000000e+00  1.53550830e+00  -9.01175100e-02   2.69614894e+00
C     4.885493044600000e+00   6.035393442449571e+00   3.597202500000000e+00 -1.04829190e+00  -2.36047213e+00  -1.45826288e+00
C     5.017147560700000e+00   4.005310390501420e+00  -3.719706000000009e-01 -3.31281731e+00  -5.27448310e-01   2.85969700e-01
C     6.131690753800000e+00   4.697813466666320e+00   7.337489999999999e-02  2.88418674e+00  -2.88510880e-01  -1.65286258e+00
C     6.127586479500000e+00   5.320036729416209e+00   3.748285800000000e+00 -7.62309390e-01  -4.52965380e-01   1.05841165e+00
C     7.403571741699999e+00   6.004092589463768e+00   4.023396600000000e+00 -3.07979130e-01  -4.66717826e+00  -2.34725582e+00
C     7.430462475999999e+00   4.034934523389369e+00   8.347410000000000e-02  2.90553670e-01  -1.04384910e+00   1.51042842e+00
C     8.660034894099999e+00   4.799929016683601e+00  -1.849799999999746e-02  7.13680750e-01  -4.28836836e+00  -9.64912620e-01
C     8.587677136199998e+00   5.197831791003050e+00   3.603320100000000e+00  6.32884090e-01   8.88850040e-01   2.74308299e+00
C     9.859104564099999e+00   5.912917646623988e+00   3.692405100000000e+00 -2.12245980e+00   5.54324720e-01  -1.23408552e+00
C     9.922356513400000e+00   4.036931285600013e+00  -2.754447000000013e-01 -1.42162558e+00   5.97708070e-01  -1.00468847e+00
C     1.107518500190000e+01   4.760513798208969e+00  -7.449534000000000e-01  7.16934890e-01  -2.04624170e-01   1.03572304e+00
C     1.102569790840000e+01   5.254683498097633e+00   3.256960500000000e+00  4.51431980e-01  -1.02455901e+00  -1.16084428e+00
C     1.226525116080000e+01   5.988249907149910e+00   3.077934900000000e+00 -2.34106600e-02  -1.27546583e+00   2.26773958e+00
C     3.792737887900000e+00   6.152120605639809e+00  -4.056864000000004e-01 -1.37632048e+00  -2.61805324e+00  -6.98700150e-01
C     4.967552894600000e+00   6.880519974060532e+00  -4.478910000000269e-02  8.56973490e-01  -2.84264216e+00  -6.53753350e-01
C     4.876018126899999e+00   7.445219851151482e+00   3.796495800000000e+00 -1.86158813e+00  -1.39430004e+00  -2.31497036e+00
C     6.118341743499999e+00   8.037172577920085e+00   3.747429900000000e+00  2.17418055e+00   3.93089785e+00   7.63098570e-01
C     6.203274205900000e+00   6.064589087791634e+00   5.210070000000000e-02  8.68643400e-02   5.25408635e+00   1.62670874e+00
C     7.444973832399999e+00   6.874920944888796e+00   2.878446000000000e-01 -9.09361000e-02  -2.16204948e+00  -2.29616722e+00
C     7.411615233899999e+00   7.363661371134068e+00   4.064159699999999e+00 -2.74640456e+00   3.08316886e+00  -1.78631111e+00
C     8.566966600599999e+00   8.135203236103944e+00   3.918482100000000e+00  2.32434622e+00  -8.36240790e-01  -2.17038370e-01
C     8.715781115599999e+00   6.155636030864319e+00  -5.994719999999987e-02 -3.21443089e+00   1.36888857e+00   1.69145312e+00
C     9.925902958200000e+00   6.785827300463411e+00  -1.869627000000023e-01 -5.53713200e-02   4.26474810e+00  -6.72021630e-01
C     9.807948468399999e+00   7.347178433814419e+00   3.859588200000000e+00  9.60786330e-01   1.12992394e+00  -5.42622400e-02
C     1.108358932080000e+01   8.050355700029844e+00   3.795244800000000e+00 -2.54982563e+00   1.03016339e+00   2.85478230e-01
C     1.108691292960000e+01   6.242117591983873e+00  -7.040400000000027e-01  1.66438229e+00  -4.42209902e+00   2.09510993e+00
C     1.238836800150000e+01   6.783045888579761e+00  -3.798908999999995e-01 -2.87632790e-01   2.10029914e+00  -1.15930665e+00
C     1.226854977450000e+01   7.317274562943145e+00   3.610590300000000e+00  5.21107510e-01   1.57264526e+00  -1.95648399e+00
C     1.345663584820000e+01   8.108165996440910e+00   3.537637500000000e+00  1.77381238e+00   3.00321360e-01   1.75214671e+00
