72
Lattice="7.395 0 0 3.6975 6.40425786098592 0 0 0 13.6 " PBC="1 1 1" Properties=species:S:1:pos:R:3:force:R:3 Energy="-579.40109564"
C     3.690292648125000e+00   6.210309585818139e+00   1.350948533600000e+01  6.30896220e-01   1.97063825e+00   3.68785530e-01
C     1.244883617700000e+00   5.885911318178892e-01   1.357915541600000e+01 -1.32666350e+00  -3.81599380e-01  -4.84058540e-01
C     1.392643149675000e+00   9.287997189212742e-01   3.649004848000000e+00 -1.07888066e+00   1.23067498e+00  -3.42804780e-01
C     2.552311446225000e+00   1.755069254823885e+00   3.760044632000000e+00  1.15113804e+00  -3.25384684e+00  -6.64240020e-01
C     6.150831330900000e+00   6.262962127771550e+00   1.345180936800000e+01 -1.69112080e-01  -1.62637110e-01   5.75658000e-01
C     3.682269701700000e+00   5.645258520573672e-01   1.346545057600000e+01 -4.94618140e-01   5.96753450e-01   3.93969000e-02
C     3.772771227675000e+00   9.735360217765182e-01   3.656321240000000e+00  5.39890030e-01  -1.37736468e+00  -3.90155380e-01
C     5.043995206800000e+00   1.622971509861702e+00   3.528711760000000e+00 -1.77779894e+00   5.60167730e-01   7.86115390e-01
C     8.610287089874999e+00   6.297567855330953e+00   1.339741521600000e+01  2.15881180e-01  -2.38455023e+00   6.17225950e-01
C     6.156283183725000e+00   5.679016004179519e-01   1.346968099200000e+01  2.11564140e-01  -1.71584264e+00  -4.58083900e-02
C     6.243633626249999e+00   9.439935004812312e-01   3.469694695999999e+00  2.51785912e+00  -1.84339360e-01   1.74731390e-01
C     7.523075668874999e+00   1.597283199031720e+00   3.582858936000000e+00 -6.16534060e-01   2.31858317e+00   1.31804290e-01
C     1.206209061825000e+00   2.070404921208024e+00   2.745622400000000e-02  7.73830900e-01  -4.24769954e+00  -3.94780720e-01
C     2.424091500900000e+00   2.741660228162856e+00   6.508334399999999e-02  1.11334554e+00  -7.28601750e-01  -4.90455140e-01
C     2.547401646900000e+00   3.154691823520037e+00   3.715620096000000e+00  2.48482857e+00  -1.84881001e+00  -4.50082980e-01
C     3.825084160200000e+00   3.764639234023668e+00   3.554694968000000e+00  1.39440850e-01   2.24378670e+00   1.81212000e-01
C     3.645029886750000e+00   1.969883241539413e+00   1.358715833600000e+01  1.83104358e+00   1.47359330e+00  -2.47641760e-01
C     4.954726834050000e+00   2.678150868072280e+00   1.350997996800000e+01 -2.41389752e+00   2.94838030e-01  -5.38536500e-02
C     5.046555688574999e+00   3.018423113498793e+00   3.593231928000000e+00 -3.82604900e-01   2.48216213e+00  -6.57541880e-01
C     6.262724299425000e+00   3.810768655091198e+00   3.579969752000000e+00  2.05824030e-01  -5.42286236e+00   2.00058720e-01
C     6.169197663825000e+00   1.965202817767590e+00   1.346370814400000e+01 -1.55267588e+00  -5.45599590e-01   9.09311800e-02
C     7.361842594800001e+00   2.644326011673746e+00   1.346979700000000e+01  5.57047700e-01   2.46844026e+00   5.58494800e-02
C     7.494920870250000e+00   3.071326958530631e+00   3.658156288000000e+00  1.07644981e+00  -5.82601610e-01  -3.29154920e-01
C     8.752796097899999e+00   3.800503462295140e+00   3.677120944000000e+00 -2.62381625e+00   1.46613005e+00  -4.22431170e-01
C     2.451784259925000e+00   4.148698927460888e+00   1.358561922400000e+01 -1.08106270e+00  -7.60057810e-01  -1.38207570e-01
C     3.689784833475000e+00   4.784808499833562e+00   1.355698524000000e+01 -8.47412900e-02   2.44333081e+00  -4.30531570e-01
C     3.864211733775000e+00   5.250424687968260e+00   3.426336944000000e+00 -8.32275160e-01  -1.36254541e+00   6.90943790e-01
C     5.120137676400000e+00   5.925663699482327e+00   3.494096768000000e+00 -1.82679566e+00  -2.95428930e-01   4.06880190e-01
C     4.912938206700000e+00   4.126224017054740e+00   1.347183727200000e+01  7.05488820e-01  -1.72874193e+00   4.97190470e-01
C     6.127992021299999e+00   4.835939390119438e+00   1.341762236800000e+01  7.38092990e-01  -7.10412240e-01  -4.60748480e-01
C     6.278160215700000e+00   5.139205079799991e+00   3.578755000000000e+00  1.16168899e+00   4.27002589e+00  -2.86341000e-02
C     7.506470233349999e+00   5.875985999347464e+00   3.616407280000000e+00 -1.19194000e-02   2.43646376e+00  -1.38159940e-01
C     7.343118676649999e+00   4.039182211457593e+00   1.336092247200000e+01  9.84069770e-01   3.56501850e+00   9.84168260e-01
C     8.601332595299999e+00   4.820153663005481e+00   1.345448856800000e+01 -6.58817480e-01   6.02658020e-01  -3.60715720e-01
C     8.767516584899999e+00   5.231728802040140e+00   3.562739912000000e+00 -7.27300810e-01  -3.74337620e-01   8.27663800e-02
C     9.986293486199999e+00   5.968172473368706e+00   3.445001448000000e+00  5.65764330e-01  -2.36906455e+00   2.36374740e-01
C     7.437588877274999e+00   1.375601926612914e-01   6.943765871999999e+00 -2.64311800e-01  -9.85983860e-01   6.58262100e-02
C     1.238619682950000e+00   8.680471997116921e-01   7.012668640000000e+00  1.53256034e+00  -4.85055190e-01  -6.46108140e-01
C     1.105828999050000e+00   4.869328885068649e-01   9.941690440000000e+00  4.58964320e-01  -4.34658210e-01  -3.87143000e-02
C     2.307385755449999e+00   1.193523880331983e+00   1.006409248000000e+01  1.77574869e+00   2.13151490e-01   6.41020700e-02
C     2.510752433625000e+00   1.684885313149038e-01   6.908598583999999e+00 -1.62362853e+00  -1.21507982e+00   3.02123890e-01
C     3.761143588500000e+00   8.199852938349071e-01   6.884499927999999e+00  2.66138370e-01   1.40658070e-01   4.04556570e-01
C     3.559568386050000e+00   4.383016441063260e-01   1.007564228000000e+01  5.66740160e-01   2.20644379e+00  -3.39875570e-01
C     4.852398188775000e+00   1.209506282204821e+00   9.993340928000000e+00 -3.81302217e+00  -1.32827607e+00   4.68866980e-01
C     5.020348732950000e+00   1.101743692429380e-01   6.922368856000000e+00 -6.97067860e-01   1.52562621e+00  -2.79401460e-01
C     6.259870605900000e+00   8.581863077143356e-01   6.964182056000000e+00 -2.36450647e+00   1.05822877e+00  -4.02645840e-01
C     6.028236983924999e+00   5.581178156852298e-01   9.870553192000001e+00  2.17318107e+00  -3.25284144e+00   2.06289080e-01
C     7.307632807799999e+00   1.188949575112900e+00   9.831403551999999e+00 -1.65144697e+00   2.05776455e+00   6.71090470e-01
C     8.617123508550000e+00   2.270275340718185e+00   7.075384496000000e+00  5.85960170e-01   1.44717515e+00  -6.82921030e-01
C     2.510200729650000e+00   2.919020513848639e+00   7.059468280000000e+00 -1.58258685e+00   1.79192889e+00  -8.72108360e-01
C     2.331331320075000e+00   2.646944392499808e+00   1.008532072000000e+01  8.80838550e-01  -1.52310856e+00  -2.62548750e-01
C     3.587699668575000e+00   3.303794794377878e+00   1.003239224000000e+01 -8.85935470e-01   1.23392306e+00  -5.37211300e-02
C     3.737236477875000e+00   2.241656697661782e+00   6.942505696000000e+00 -2.47820460e-01  -5.85148370e-01   2.69225470e-01
C     4.941378711150000e+00   2.959013951417925e+00   6.959943751999999e+00  3.85728470e-01   1.49495440e+00  -2.27728960e-01
C     4.810963892849999e+00   2.582048446539962e+00   9.989746719999999e+00 -3.07396120e-01   1.95952419e+00  -4.35179330e-01
C     5.991330128849999e+00   3.307621018236335e+00   9.812382999999999e+00  2.57128985e+00   1.35036643e+00   1.23082778e+00
C     6.197908048799999e+00   2.327844623558454e+00   6.968513384000000e+00  4.96325000e-02  -1.51718622e+00  -2.11077880e-01
C     7.391514699525000e+00   3.092067980163763e+00   6.997034080000001e+00  1.36164452e+00  -3.48513926e+00  -3.51645900e-02
C     7.295407800525000e+00   2.628566990315066e+00   9.837400471999999e+00 -4.62743110e-01   4.69566520e-01   6.81064340e-01
C     8.547010552200000e+00   3.383550539850281e+00   9.988747799999999e+00 -1.89439369e+00  -1.98238744e+00  -1.35593420e-01
C     9.866995275600001e+00   4.383443092721893e+00   6.969128512000000e+00 -1.26185620e-01  -1.50522478e+00   1.48303500e-01
C     3.656454718050000e+00   5.098487064496426e+00   6.931667584000000e+00  2.46093545e+00   7.94298860e-01   7.51569800e-02
C     3.549222115500000e+00   4.728249104415237e+00   9.894575416000000e+00  5.19502980e-01   1.49517173e+00   4.97502960e-01
C     4.820405717925000e+00   5.478737633443675e+00   9.878005992000000e+00 -2.40470945e+00  -4.67666160e-01   5.22847810e-01
C     4.911554971950000e+00   4.401700607199496e+00   6.968565880000000e+00 -1.99260560e-01  -4.73863130e-01  -5.40345280e-01
C     6.124318776899999e+00   5.123522845493053e+00   6.921297312000000e+00  2.04366476e+00   1.27019350e+00  -1.32658600e-01
C     6.009504080850000e+00   4.788687879032258e+00   9.897557352000000e+00  8.88565530e-01  -2.95157521e+00   7.89288700e-02
C     7.254206631974999e+00   5.440898844388808e+00   1.000621278400000e+01  4.09043630e-01   7.77179180e-01  -1.02673370e-01
C     7.424468335500000e+00   4.467204637443148e+00   6.931054768000000e+00 -2.12464848e+00   3.49482100e-02   7.23280000e-02
C     8.661477572324999e+00   5.112195954828963e+00   6.941649984000001e+00  3.70773670e-01   5.28292880e-01  -1.76718890e-01
C     8.528396671649999e+00   4.772574125830712e+00   9.995172031999999e+00 -2.20404274e+00   3.69032270e-01  -6.00125100e-02
C     9.678415713374999e+00   5.503463704530192e+00   9.911042567999999e+00  3.61735519e+00   4.09108000e-02   2.46529060e-01
