72
Lattice="7.395 0 0 3.6975 6.40425786098592 0 0 0 13.6 " PBC="1 1 1" Properties=species:S:1:pos:R:3:force:R:3 Energy="-574.78306984"
C     3.703877189175000e+00   6.166281209626739e+00   1.095172640000000e-01 -1.23168317e+00   1.70527590e+00  -1.05677456e+00
C     1.230306150000000e+00   4.752531872772685e-01   1.355198370400000e+01 -3.46204260e-01   1.43709344e+00   1.08152122e+00
C     1.423580538900000e+00   9.804553740961980e-01   3.282738080000000e+00 -1.65612652e+00   1.29052427e+00   9.22850530e-01
C     2.589826318200000e+00   1.782346077773461e+00   3.082277888000000e+00  2.20126800e+00  -2.47712438e+00   9.23567480e-01
C     6.157726613774999e+00   6.206138364588763e+00   1.902845360000000e-01 -1.54632386e+00  -1.01012062e+00  -6.84463600e-02
C     3.629589829275000e+00   5.530284800490450e-01   2.167791040000000e-01  2.48417040e+00  -7.96865420e-01  -1.43966488e+00
C     3.865157443349999e+00   1.072284490528852e+00   3.277202880000000e+00 -1.19721142e+00  -2.73166307e+00   1.29284075e+00
C     5.093133983474999e+00   1.734224035915371e+00   3.597715984000000e+00 -1.47656536e+00  -7.73784500e-01  -1.99604358e+00
C     8.610468858975000e+00   6.232128251921372e+00   2.917307440000000e-01 -3.08630620e-01  -1.13874862e+00  -1.26208496e+00
C     6.140038291425000e+00   5.308748712597330e-01   2.021055200000000e-01  7.97619910e-01  -2.81740993e+00   2.90860460e-01
C     6.295192638525000e+00   1.006322363720474e+00   3.713195488000000e+00  1.20712281e+00   6.63986490e-01  -7.68585950e-01
C     7.531805762175000e+00   1.688940297098254e+00   3.424718816000000e+00  1.20549790e+00   9.43264520e-01  -9.78513100e-02
C     1.208201126925000e+00   1.970303040642136e+00   1.349099722400000e+01 -4.66549130e-01  -2.04286281e+00   2.32538950e-01
C     2.406262821450000e+00   2.662982895671499e+00   1.330131190400000e+01  2.14468204e+00   1.47617550e-01   1.35162681e+00
C     2.628138519075000e+00   3.183739679938217e+00   3.143659448000000e+00  3.92269730e-01   3.29604010e-01   1.51890766e+00
C     3.830358606975000e+00   3.829196010487248e+00   3.577618584000000e+00  1.21800050e+00   2.25662809e+00  -1.41125350e+00
C     3.673549517700000e+00   1.931108278070572e+00   1.342743871200000e+01  1.46625120e-01   6.42122110e-01   2.70646926e+00
C     4.910630412074999e+00   2.629234826324707e+00   2.575816880000000e-01 -7.25737330e-01   2.87466310e-01  -1.73360950e+00
C     5.061050221349999e+00   3.122920428361734e+00   3.451960024000000e+00  1.28334926e+00   2.11190381e+00   1.69547628e+00
C     6.309686394824999e+00   3.897265458344458e+00   3.476627296000000e+00  1.40496050e-01  -5.08015210e+00  -2.12733290e-01
C     6.153758493750000e+00   1.887735569798879e+00   3.683396800000000e-01 -4.87239800e-02   2.91389964e+00  -1.14881019e+00
C     7.394454101099999e+00   2.637986949158761e+00   2.211109760000000e-01 -1.12473050e+00   4.85010720e-01   1.41786831e+00
C     7.557253547100000e+00   3.154340485933838e+00   3.293258632000000e+00 -4.50386600e-02  -3.64703590e-01   4.22935990e-01
C     8.830399043025000e+00   3.881438615895040e+00   3.188191424000000e+00 -2.69455800e+00   8.83820030e-01   1.92356966e+00
C     2.471782114725000e+00   4.093292234414784e+00   1.348685888000000e+01 -1.84774376e+00  -1.66583387e+00  -4.64045130e-01
C     3.675332637075000e+00   4.766012259184777e+00   1.355790528000000e+01  1.68070447e+00   9.23094430e-01   1.17745325e+00
C     3.923179094025000e+00   5.329538406590198e+00   3.793469624000000e+00 -3.03388483e+00  -2.37182046e+00  -1.45455674e+00
C     5.159628455400000e+00   5.991496011983883e+00   3.622026936000000e+00 -1.81331790e+00   9.38258420e-01  -7.63987600e-01
C     4.907116751775000e+00   4.089240004296448e+00   2.189786320000000e-01 -6.06321560e-01  -2.32924680e+00  -2.67115390e-01
C     6.101033289975000e+00   4.760041953837370e+00   4.286575840000000e-01  2.10420577e+00   1.68755807e+00  -2.98810570e-01
C     6.323135459474999e+00   5.234400466291597e+00   3.513576456000000e+00  8.68358270e-01   2.63703696e+00  -6.37337890e-01
C     7.536227232674999e+00   5.929666168517091e+00   3.377760328000000e+00  9.51777910e-01   4.30821249e+00   6.50557190e-01
C     7.359153477000000e+00   4.048129087773170e+00   5.579200080000000e-01  2.05349007e+00   8.28685000e-03  -4.52653364e+00
C     8.654877349949999e+00   4.763574734600683e+00   1.043613680000000e-01 -3.18583629e+00   1.76021834e+00   2.78745514e+00
C     8.788902887925000e+00   5.315640270437898e+00   3.535552968000000e+00  2.35903000e-02  -2.48771808e+00  -1.26909936e+00
C     9.988594218599999e+00   6.008690547741882e+00   3.767221896000000e+00  2.37998978e+00  -3.18555240e-01  -6.14960670e-01
C     7.383309466349999e+00   1.646000580700476e-01   6.778971408000000e+00  1.28139597e+00  -4.29253620e-01  -7.17609000e-02
C     1.195054591725000e+00   9.098312037360547e-01   6.624027016000000e+00  1.37094306e+00  -1.93391014e+00   5.77415240e-01
C     1.109677985625000e+00   4.414641306801727e-01   1.015143127200000e+01 -7.75477330e-01   1.16675510e-01   7.25793070e-01
C     2.276276876175000e+00   1.141437346688239e+00   9.804816912000000e+00  2.05655824e+00  -1.60091920e-01   1.29681076e+00
C     2.459735068125000e+00   1.820554392506850e-01   6.747226560000000e+00 -4.13024470e-01   1.10738083e+00  -1.52089280e-01
C     3.695427144525000e+00   8.796817509233755e-01   6.750710744000000e+00  4.21867850e-01   2.09830160e-01  -3.99636800e-01
C     3.543469951725000e+00   3.911173136840970e-01   9.918456608000000e+00  1.38187844e+00   1.83991277e+00   6.97607700e-02
C     4.907763814275000e+00   1.160542272565876e+00   1.000615607200000e+01 -6.03206667e+00  -1.13988513e+00   3.66262140e-01
C     4.949924262225000e+00   1.474337650892106e-01   6.861367280000001e+00 -2.28113970e-01   2.10067558e+00  -1.48077200e-01
C     6.217705314225000e+00   8.559333538417663e-01   6.848216623999999e+00 -3.28979268e+00   2.81035174e+00  -1.07906579e+00
C     6.011897731424999e+00   4.600809240237210e-01   1.032673064800000e+01  2.10775837e+00  -1.96172584e+00  -9.64813900e-02
C     7.276416183375000e+00   1.132027058273912e+00   1.041151944000000e+01  3.66646440e-01   8.39744680e-01  -1.90834756e+00
C     8.620241240550000e+00   2.285444209715067e+00   6.502354752000000e+00 -9.53976030e-01   2.23064309e+00   3.65825200e-02
C     2.470686323625000e+00   2.980622365735615e+00   6.433646464000000e+00 -9.01029180e-01   1.97970926e+00   2.13514832e+00
C     2.299916287800000e+00   2.590760286592078e+00   9.758046512000000e+00  1.06746092e+00  -2.64634080e-01   1.12078505e+00
C     3.564794025825000e+00   3.291482864812342e+00   9.826804711999999e+00  3.47422090e-01  -5.72551750e-01   1.48968534e+00
C     3.687147295800000e+00   2.314183188776660e+00   6.597935552000000e+00 -7.87262500e-02  -2.32673800e+00  -3.22033200e-02
C     4.913350145174999e+00   2.975897560456821e+00   6.657219039999999e+00 -2.97164170e-01   3.29904572e+00   5.11768640e-01
C     4.797310097624999e+00   2.549403318481820e+00   1.007601940800000e+01 -4.85116400e-01   8.55884460e-01  -8.46960160e-01
C     5.972328787274999e+00   3.235533731125496e+00   1.031173760000000e+01  3.04815732e+00   2.60781239e+00  -9.74291510e-01
C     6.143942962350000e+00   2.363416689586353e+00   6.663632256000000e+00  1.91701856e+00  -3.20285142e+00   7.33216380e-01
C     7.371165841050000e+00   3.097450566767357e+00   6.579466752000000e+00  3.94540290e-01  -4.11916266e+00   3.18068980e-01
C     7.279593149324999e+00   2.542213898608184e+00   1.025411304000000e+01 -6.12365290e-01   1.48139236e+00   5.70432130e-01
C     8.544192872324999e+00   3.328301583675269e+00   1.006935908000000e+01 -2.27401851e+00  -3.46929497e+00  -6.13244590e-01
C     9.850036063274999e+00   4.438355825359256e+00   6.725520144000000e+00 -8.58523190e-01  -1.35916880e+00  -1.33654627e+00
C     3.657298080825000e+00   5.135096812425380e+00   6.752190831999999e+00  1.34584165e+00   3.63973150e-01   5.77175460e-01
C     3.592809687525000e+00   4.669214591419179e+00   1.013096721600000e+01 -1.97089321e+00   1.90046814e+00   4.90176270e-01
C     4.826605205250000e+00   5.435835061741485e+00   1.029352828800000e+01 -1.64579578e+00  -6.40785700e-01  -1.25837652e+00
C     4.881926719575000e+00   4.427403007396770e+00   6.767674568000000e+00  2.01346620e+00   2.97839010e-01  -4.07588440e-01
C     6.168370496100000e+00   5.191339325164793e+00   6.842232895999999e+00 -2.26114425e+00  -2.35374614e+00  -7.85977360e-01
C     6.014891819024999e+00   4.750875411477195e+00   1.022911868800000e+01  4.67977410e-01  -3.68829971e+00   4.93048300e-01
C     7.247089536074999e+00   5.399686420378450e+00   1.013335836800000e+01  7.72438200e-01   9.75645170e-01  -5.00430310e-01
C     7.367273556750000e+00   4.439650574170813e+00   6.735841592000000e+00  1.21318042e+00   3.35072011e+00   2.48703600e-01
C     8.632317312525000e+00   5.172522270677963e+00   6.794122624000000e+00 -6.31069530e-01  -2.05279885e+00  -1.23233160e-01
C     8.525307928049999e+00   4.701736245385780e+00   1.009483446400000e+01 -2.70280465e+00   1.10187485e+00   7.54479420e-01
C     9.658837081125000e+00   5.420143541260648e+00   1.023800900800000e+01  4.90704520e+00   2.10789360e-01  -6.56058830e-01
