72
Lattice="7.395 0 0 3.6975 6.40425786098592 0 0 0 13.6 " PBC="1 1 1" Properties=species:S:1:pos:R:3:force:R:3 Energy="-573.57122529"
C     3.641406077925000e+00   6.287264172945156e+00   6.129411200000000e-02  1.92037359e+00  -4.91360755e+00  -7.09246840e-01
C     1.232905011825000e+00   4.269062278831350e-01   1.350780560000000e+01 -9.17630690e-01   2.98984317e+00   9.07313790e-01
C     1.327906432275000e+00   9.947259178430575e-01   3.282591336000000e+00  2.52583736e+00   7.72769000e-03   6.90485600e-01
C     2.616734208900000e+00   1.622301496404389e+00   3.076035352000000e+00  1.17968583e+00   3.04353004e+00   1.59848359e+00
C     6.159565935149999e+00   6.183470686021029e+00   1.522099760000000e-01 -1.20320120e-01   8.56310640e-01  -6.74409200e-02
C     3.686234050275000e+00   5.136907103994666e-01   1.807003440000000e-01 -2.21841699e+00   3.53923920e-01  -1.31079913e+00
C     3.900767178450000e+00   1.044074631251652e+00   3.341443704000000e+00 -1.97227243e+00  -2.31010151e+00   5.03065210e-01
C     5.113722365999999e+00   1.735104941584014e+00   3.601440616000000e+00 -1.11982587e+00  -4.79422100e-02  -9.88160840e-01
C     8.549904844274998e+00   6.182929974529909e+00   2.188214160000000e-01  3.80289318e+00   2.55630361e+00  -6.35593210e-01
C     6.120523514999999e+00   4.666294698133069e-01   1.429709520000000e-01 -1.33780076e+00   3.75466881e+00   1.05421151e+00
C     6.321825878925000e+00   1.012174702638099e+00   3.743301128000000e+00  8.06920860e-01  -7.13249210e-01  -1.05436248e+00
C     7.554694026675000e+00   1.743329737825876e+00   3.428182600000000e+00 -2.02252503e+00  -3.30815270e+00   7.69254630e-01
C     1.235503651800000e+00   1.838814468687597e+00   1.342212804800000e+01 -9.33854490e-01   3.81323404e+00   1.25430990e+00
C     2.487600056700000e+00   2.591161961645057e+00   1.320725539200000e+01 -3.31481468e+00   2.43894559e+00   2.03648079e+00
C     2.675940279750000e+00   3.096436516577804e+00   3.198095896000000e+00 -2.86847668e+00   1.40374825e+00   8.77748360e-01
C     3.778369575450000e+00   3.896535821246469e+00   3.576640880000000e+00  3.58703222e+00  -3.04027562e+00  -7.82265030e-01
C     3.657599870775000e+00   1.923575910188533e+00   1.346865296800000e+01  2.41459012e+00  -6.93745980e-01   1.27840556e+00
C     4.866243625425000e+00   2.629919825745413e+00   1.883285840000000e-01  9.56243880e-01   9.75662570e-01  -2.38042970e-01
C     5.041573714049999e+00   3.135375557133020e+00   3.533265176000000e+00  2.33022534e+00   2.31425326e+00   2.93281710e-01
C     6.364723090725001e+00   3.837628624896667e+00   3.459742352000000e+00 -3.41887752e+00   6.35865020e-01   8.33341240e-01
C     6.123052715924999e+00   1.911340831717317e+00   3.767977920000000e-01  6.52580610e-01   1.14345347e+00  -1.63277809e+00
C     7.384285902149999e+00   2.688135362246334e+00   3.074660800000000e-01  6.66930350e-01  -1.22281618e+00  -1.11592783e+00
C     7.535658076500000e+00   3.083492230591173e+00   3.301807728000000e+00  2.37383013e+00   4.68778700e+00   5.35572000e-02
C     8.847119359875000e+00   3.863355553401544e+00   3.256908824000000e+00 -2.43343337e+00  -8.20585370e-01   4.60968260e-01
C     2.428000645800000e+00   4.100149593518378e+00   1.338842112800000e+01  1.61785185e+00  -1.38505673e+00   5.49677120e-01
C     3.685173237524999e+00   4.821369255189888e+00   1.354974201600000e+01 -8.58154150e-01  -8.83184030e-01   3.95278080e-01
C     3.821249150175000e+00   5.277405570162125e+00   3.835747400000000e+00  7.64766670e-01   6.78970100e-02  -1.45939504e+00
C     5.055588791999999e+00   6.061198545595393e+00   3.660577904000000e+00  6.62701670e-01  -3.66097849e+00  -7.15238260e-01
C     4.896810266325000e+00   4.070231014201553e+00   1.785669120000000e-01  8.13868510e-01   4.18417510e-01   3.42454130e-01
C     6.181044712649999e+00   4.825615086023332e+00   4.358352559999999e-01 -2.67759078e+00  -7.85107180e-01  -1.20911602e+00
C     6.321713363999999e+00   5.287712902974903e+00   3.526954504000000e+00  6.61685100e-02   6.17101540e-01  -4.10703980e-01
C     7.574227956149999e+00   6.013643600770807e+00   3.432969664000000e+00 -1.81630680e+00   5.79083640e-01   8.28205300e-02
C     7.422607827449999e+00   4.243006939983412e+00   4.772558240000000e-01  2.06299770e-01  -7.25980823e+00  -2.04772775e+00
C     8.637856426350000e+00   4.830413412182359e+00   1.267589360000000e-01 -6.75716960e-01  -2.04756816e+00   1.79265210e-01
C     8.777082830849999e+00   5.337140068542283e+00   3.490152496000000e+00  7.76433540e-01  -4.87916855e+00  -1.44466100e-01
C     9.989151246974998e+00   5.911837611230951e+00   3.783136480000000e+00  5.45962180e-01   5.20619255e+00  -5.98462710e-01
C     7.424632578450000e+00   1.695346668363348e-01   6.918158159999999e+00 -2.36124191e+00   6.50177500e-01  -8.25428160e-01
C     1.225633767150000e+00   8.773153136015268e-01   6.687170456000000e+00  8.14297650e-01  -3.22201460e-01   4.45683840e-01
C     1.115317190775000e+00   4.645129266331555e-01   1.009558695200000e+01 -9.40469110e-01  -9.38643030e-01   7.36557050e-01
C     2.335180232700000e+00   1.164535903724794e+00   9.803655336000000e+00 -1.44090213e+00  -6.88572310e-01   8.63174190e-01
C     2.469127309725000e+00   1.585122345909102e-01   6.790195216000000e+00 -1.35956888e+00   1.73223842e+00  -4.99391840e-01
C     3.643352885625000e+00   9.025824804346351e-01   6.772323999999999e+00  1.29283268e+00   7.39137660e-01  -4.38669310e-01
C     3.518524767975000e+00   4.418058618795823e-01   9.906394088000001e+00  3.54939947e+00  -1.22380220e-01   8.93620260e-01
C     4.823235118875000e+00   1.181305645058939e+00   1.000619728000000e+01 -1.38564517e+00  -1.35753564e+00   5.23085910e-01
C     4.873128148575000e+00   2.324105817819786e-01   6.886845112000000e+00 -3.51736270e-01  -2.79281706e+00  -8.13244800e-02
C     6.092105417399999e+00   8.785337877019704e-01   6.883247503999999e+00  3.39186947e+00   5.39391860e-01  -3.35442960e-01
C     6.055496876625000e+00   3.840783938701710e-01   1.030268122400000e+01 -1.73545044e+00   1.97599312e+00  -8.86891950e-01
C     7.247814541874999e+00   1.170972246916672e+00   1.031298540000000e+01  1.80611318e+00  -1.36699752e+00  -1.19582176e+00
C     8.658441259275000e+00   2.289432845552853e+00   6.510703928000000e+00 -1.42970920e+00  -5.53751930e-01   9.57272860e-01
C     2.459008213575000e+00   3.017943690755394e+00   6.492188615999999e+00  7.39378780e-01   1.94047597e+00   1.34967066e+00
C     2.303935877025000e+00   2.548075459657128e+00   9.707598400000000e+00  1.90314570e-01   3.34007250e+00   1.52210818e+00
C     3.570970440750000e+00   3.355318778011200e+00   9.783200256000001e+00 -7.68609210e-01  -2.75900881e+00   8.20789620e-01
C     3.684061214400000e+00   2.320963760828513e+00   6.607385920000000e+00 -6.89350610e-01  -9.31253230e-01   1.27154770e-01
C     4.906073169375000e+00   2.977654632643291e+00   6.661104423999999e+00  2.14075016e+00   3.12004785e+00   7.66770430e-01
C     4.780490318025000e+00   2.654045433614975e+00   9.963127576000000e+00  1.98450456e+00  -2.79282857e+00   7.23741030e-01
C     6.050051938125000e+00   3.305094090212515e+00   1.026239557600000e+01 -1.92828724e+00  -1.13684410e-01  -9.26057070e-01
C     6.147813098625000e+00   2.305327445050430e+00   6.748014000000000e+00 -2.59019900e-01  -2.15075795e+00   1.55706600e-02
C     7.412281597349999e+00   2.934314009703477e+00   6.668187576000000e+00 -5.94425750e-01   2.80692316e+00   2.04004000e-01
C     7.266423024075000e+00   2.604931052001478e+00   1.024352068000000e+01 -2.09826690e+00  -2.61833758e+00   3.07292000e-02
C     8.429302007775000e+00   3.254477782045690e+00   1.000764432000000e+01  3.89141284e+00   1.25223239e+00  -6.89052930e-01
C     9.895923443325000e+00   4.453165927830820e+00   6.760471464000000e+00 -1.95856180e+00   1.98689370e-01  -3.94190100e-01
C     3.755089782675000e+00   5.156591551166056e+00   6.871367360000000e+00 -6.34292680e-01  -5.40588490e-01  -2.89149420e-01
C     3.646088407050000e+00   4.706154414798236e+00   1.009716210400000e+01 -3.54504515e+00   1.79747030e-01   5.94492100e-02
C     4.843004616075000e+00   5.382561306775653e+00   1.021276142400000e+01 -8.82627770e-01   3.62689396e+00  -6.26561340e-01
C     5.016355950600000e+00   4.461229849115240e+00   6.776447384000000e+00 -4.56759064e+00  -2.04071679e+00  -2.86335670e-01
C     6.159242995500000e+00   5.188021791508156e+00   6.822133456000000e+00  2.67205711e+00  -2.92171862e+00   1.17910270e-01
C     6.036560611050000e+00   4.705866479364851e+00   1.022495232800000e+01  3.34007590e-01  -6.70640790e-01  -1.14487000e-01
C     7.212385762424999e+00   5.418436422285486e+00   1.014135421600000e+01  2.76363651e+00   1.28755959e+00  -6.60962090e-01
C     7.383598980600000e+00   4.374877910174772e+00   6.800664631999999e+00  5.54833400e-01   1.90569817e+00  -4.25243080e-01
C     8.565722786249999e+00   5.177020813526562e+00   6.849390848000001e+00  2.55638758e+00  -1.39053160e+00  -2.43977070e-01
C     8.458248034424999e+00   4.685711447325909e+00   1.007866175200000e+01  1.26171589e+00   6.18787110e-01   6.61089410e-01
C     9.758511808800000e+00   5.357609101344100e+00   1.022411524800000e+01 -1.01362992e+00   1.16958868e+00  -9.16611490e-01
