72
Lattice="7.395 0 0 3.6975 6.40425786098592 0 0 0 13.6 " PBC="1 1 1" Properties=species:S:1:pos:R:3:force:R:3 Energy="-572.7576302"
C     1.099932595800000e+01   6.385654771768272e+00   1.326969340000000e+01  2.24353775e+00  -1.65976214e+00   2.31917010e-01
C     1.248686755275000e+00   5.705072367708715e-01   1.319810436000000e+01 -2.44806468e+00   2.93934383e+00   4.63854690e-01
C     1.243640333325000e+00   7.791247837939567e-01   3.433818032000000e+00 -2.49993000e-01   1.18159049e+00   5.14107170e-01
C     2.502708744225000e+00   1.406548005060799e+00   3.391161088000000e+00  1.72324613e+00   2.30843379e+00   1.14854722e+00
C     6.248363505224999e+00   6.318519384919942e+00   1.327399562400000e+01 -7.32856921e+00  -5.98672170e-01   5.50091060e-01
C     3.673450498650000e+00   5.749866949310485e-01   1.328403364800000e+01  1.35450404e+00   5.16322052e+00  -5.54187790e-01
C     3.812427728625000e+00   8.550035836856514e-01   3.626630536000000e+00 -1.93735870e+00  -3.34579210e+00  -8.08229240e-01
C     5.068599296174999e+00   1.552488361259636e+00   3.705012232000000e+00 -3.81686044e+00   3.00068270e-01  -5.56962920e-01
C     8.539084480274999e+00   6.345676512290115e+00   1.321067212000000e+01  5.12616645e+00   6.87396640e-01   1.22891984e+00
C     6.054217763475000e+00   6.951813581494782e-01   1.334436460800000e+01  2.53611351e+00  -1.20627875e+00  -3.52165580e-01
C     6.205905075750000e+00   8.021148527023632e-01   3.705201816000000e+00  1.34059346e+00  -5.98925260e-01  -7.71770170e-01
C     7.399111139324999e+00   1.525111055504236e+00   3.503618536000000e+00  1.56064605e+00   3.42359650e-01   1.98989350e-01
C     1.183985238075000e+00   2.045308171676570e+00   1.315802978400000e+01  1.61679041e+00   4.86214740e-01   1.01050795e+00
C     2.493257083800000e+00   2.729332544122985e+00   1.295330150400000e+01 -2.03852280e+00   1.07492743e+00   1.68535934e+00
C     2.494745919150000e+00   2.827639951636500e+00   3.505085976000000e+00  1.48734781e+00   9.54702610e-01  -2.26179530e-01
C     3.632038461675000e+00   3.608293303696481e+00   3.671033312000000e+00  5.23804397e+00   7.26050500e-01   1.41998160e-01
C     3.691446416025000e+00   2.016849955279560e+00   1.315351023200000e+01  3.98015420e-01   1.36510522e+00   9.19786840e-01
C     4.878292298925000e+00   2.793520947674457e+00   1.345573745600000e+01  9.64038120e-01   4.25162700e-02  -3.87866640e-01
C     4.987987362525000e+00   2.948405362315413e+00   3.661685624000000e+00 -2.05332270e-01   1.90866410e+00  -2.69678870e-01
C     6.233538711750000e+00   3.718736075386333e+00   3.582121408000000e+00 -1.04048843e+00  -2.38010775e+00   3.35902160e-01
C     6.138434426849999e+00   2.045290431882298e+00   1.358579561600000e+01 -9.35500000e-05   3.88716602e+00  -3.55132180e-01
C     7.429724035950000e+00   2.834563082468317e+00   1.359659428800000e+01 -9.11452220e-01  -1.22337774e+00  -1.64888848e+00
C     7.465085299050000e+00   2.964132362384793e+00   3.481979712000000e+00  2.14523690e-01   2.79689720e-01   2.72886450e-01
C     8.804957358974999e+00   3.639801099601267e+00   3.502304096000000e+00 -6.88240144e+00  -4.84692060e-01  -2.55907380e-01
C     2.497350623025000e+00   4.184920897576419e+00   1.300655407200000e+01 -1.45829774e+00  -1.61228750e-01   1.49875866e+00
C     3.649271399925000e+00   4.926044544378758e+00   1.323304112800000e+01  1.79123713e+00   7.11334910e-01  -5.23078100e-02
C     3.666407315775000e+00   5.077818026721641e+00   3.789800208000000e+00  1.01589518e+00  -1.12630698e+00  -1.37562994e+00
C     4.930619060100000e+00   5.847187716858088e+00   3.675170839999999e+00 -4.61154220e-01  -4.31698057e+00   4.08289100e-02
C     4.906437040349999e+00   4.252349215179265e+00   1.344200186400000e+01  1.88086570e-01  -9.72016720e-01   9.46261600e-02
C     6.192588122775000e+00   4.975865187549056e+00   1.355713334400000e+01 -1.57889195e+00  -1.80518113e+00  -5.44379840e-01
C     6.184098625799999e+00   5.109166548733447e+00   3.651911440000000e+00  3.07409600e-01   1.32670301e+00  -4.72455310e-01
C     7.446121265250000e+00   5.769064608841934e+00   3.613322800000000e+00  6.82420000e-02   1.69986337e+00  -7.64631300e-02
C     7.422341866275000e+00   4.347689465983664e+00   1.358673782400000e+01  2.04095981e+00  -4.74600951e+00  -1.09463625e+00
C     8.688048731700000e+00   4.992529002458197e+00   1.322549734400000e+01 -2.34317281e+00  -3.95284220e+00   5.74211600e-01
C     8.677528050074999e+00   5.054664841365540e+00   3.581907208000000e+00 -7.09151380e-01  -1.01479750e+00   1.51608550e-01
C     9.840812760450000e+00   5.761238093396386e+00   3.677142024000000e+00  2.42923313e+00   2.17325872e+00   5.27601980e-01
C     7.443563149875000e+00   9.938684517581821e-02   7.299257631999999e+00 -2.04089261e+00  -2.27373232e+00  -1.65176430e+00
C     1.221781563750000e+00   7.322801352086221e-01   6.948860840000000e+00  2.65996316e+00   8.28066880e-01  -1.17116827e+00
C     1.131235815675000e+00   6.182179331466139e-01   1.015891168000000e+01  4.40389288e+00  -3.22800570e-01   6.78279150e-01
C     2.412069153600000e+00   1.363954374757775e+00   1.023584239200000e+01 -3.52907450e-01  -1.36599732e+00  -2.17386740e-01
C     2.453505187350000e+00   2.588767537716360e-02   6.674396792000000e+00  2.56981300e-01   1.23587516e+00   7.32821860e-01
C     3.632852688150000e+00   8.345465268460320e-01   6.556425632000000e+00  1.39848344e+00  -1.13831502e+00   7.16847650e-01
C     3.645463048875000e+00   7.050038245996746e-01   1.052477724800000e+01  1.01381500e-01  -2.35855962e+00  -1.87937308e+00
C     4.887202090725000e+00   1.404303440766026e+00   1.032233376800000e+01 -6.62948520e-01  -2.23602990e+00   2.89098810e-01
C     4.835313520275000e+00   1.021301730727278e-01   6.818847832000000e+00  1.89925376e+00  -1.51079038e+00   1.07235033e+00
C     6.118339845450000e+00   7.522267086542208e-01   7.129111024000000e+00 -5.04964500e-02  -4.17299050e-01  -9.81515050e-01
C     6.103267800149999e+00   5.642198566168164e-01   1.037625314400000e+01  1.14669610e-01   2.10315734e+00  -1.10211222e+00
C     7.354394054999999e+00   1.265858948179426e+00   1.012353209600000e+01 -3.41401927e+00   3.08785861e+00   1.03157710e+00
C     1.322442858375000e+00   2.141649728197379e+00   6.758083032000000e+00 -2.22233166e+00   1.40600504e+00   1.23635600e+00
C     2.479204143450000e+00   2.984364949986420e+00   6.598068560000000e+00  5.73104550e-01  -3.14494540e-01   1.30199393e+00
C     2.420957019225000e+00   2.733278655688581e+00   1.003325529600000e+01 -9.24015440e-01   2.22860941e+00   2.38092830e-01
C     3.643817698349999e+00   3.475567813378861e+00   9.940312080000000e+00 -8.11595630e-01   1.08675311e+00   1.45908718e+00
C     3.708367396200000e+00   2.260400743609008e+00   6.490847248000000e+00 -7.07468380e-01  -1.05241526e+00   1.07272907e+00
C     4.959528407550000e+00   2.843417481300396e+00   6.652618704000000e+00  5.77156660e-01   3.59380335e+00   1.05137113e+00
C     4.830210896324999e+00   2.803069696143717e+00   1.005354704000000e+01  3.16777354e+00  -1.01490024e+00   7.58323590e-01
C     6.090913232475000e+00   3.530554835407400e+00   1.019213756800000e+01  6.61497490e-01  -2.35132022e+00  -3.06137000e-02
C     6.144861791100000e+00   2.146011476098090e+00   6.959075528000001e+00  1.47682175e+00  -1.87041780e-01  -3.25476220e-01
C     7.460473924950001e+00   2.806418418536133e+00   6.980123295999999e+00 -8.12898870e-01  -1.43222890e-01  -1.11722635e+00
C     7.333979824725000e+00   2.784841256996799e+00   1.018550512000000e+01 -1.80816503e+00  -2.51852935e+00  -4.86208780e-01
C     8.537248449674999e+00   3.455405864741431e+00   1.015756201600000e+01  1.55800939e+00  -6.40841270e-01   8.51183300e-02
C     9.894192643575000e+00   4.400279182167469e+00   6.958600616000000e+00  6.24826890e-01  -1.39912530e+00  -5.89020790e-01
C     3.828502166174999e+00   5.043502091830402e+00   7.165564056000000e+00 -2.85126190e+00   6.85414870e-01  -1.68642007e+00
C     3.749156441399999e+00   4.918932680067806e+00   1.014235436000000e+01 -4.67095064e+00  -1.41943859e+00  -2.15766900e-02
C     4.938398600099999e+00   5.613816304269373e+00   1.019533506400000e+01 -1.16433226e+00   8.21170510e-01   4.00017440e-01
C     5.017077443774999e+00   4.360505666813096e+00   6.800583032000000e+00 -9.16484800e-01  -2.13800046e+00   5.96405120e-01
C     6.252661664100000e+00   5.038963714497914e+00   6.738500936000000e+00 -3.03078870e-01  -2.47890210e+00   7.87967330e-01
C     6.142234643400000e+00   4.911739033383983e+00   1.036726884800000e+01 -1.42393091e+00  -4.69203100e-01  -8.88048570e-01
C     7.313346036900000e+00   5.563122888837914e+00   1.057739510400000e+01  2.88423269e+00   3.11405446e+00  -1.00013563e+00
C     7.469394587400000e+00   4.181203674186739e+00   6.852895840000000e+00 -1.54703893e+00   4.30534059e+00  -4.87822930e-01
C     8.594497692599999e+00   5.022824088094613e+00   6.914836223999999e+00  1.76034354e+00   1.09502656e+00  -8.17574000e-02
C     8.525973847800000e+00   4.817970195330693e+00   1.042411793600000e+01  1.80212398e+00   2.53108386e+00  -3.11888600e-01
C     9.810432214724999e+00   5.561840564286607e+00   1.039915717600000e+01  5.42910990e-01  -3.14119820e-01  -1.24170794e+00
