72
Lattice="7.395 0 0 3.6975 6.40425786098592 0 0 0 13.6 " PBC="1 1 1" Properties=species:S:1:pos:R:3:force:R:3 Energy="-577.33998626"
C     3.688337705925000e+00   6.313767041332351e+00   1.321362005600000e+01  9.20335130e-01  -1.65162560e-01   1.01874739e+00
C     1.314862872450000e+00   6.224143231093788e-01   1.326679850400000e+01 -2.97935888e+00   5.91228830e-01   2.76268360e-01
C     1.312134709050000e+00   8.756154954803257e-01   3.695269192000000e+00 -2.25803210e-01  -1.07548020e+00  -3.61603730e-01
C     2.493353329725000e+00   1.638249571455097e+00   3.659908240000000e+00  1.48225266e+00  -3.07711247e+00  -8.15555100e-02
C     6.265880078700000e+00   6.310893771043462e+00   1.330584016000000e+01 -5.59477336e+00   2.12831085e+00  -3.40583620e-01
C     3.706381505925000e+00   6.307983292016407e-01   1.322891883200000e+01 -9.13974600e-01   1.35819791e+00   1.37212621e+00
C     3.739788233550000e+00   8.754445017954636e-01   3.606143496000000e+00 -5.05312730e-01  -1.31193875e+00   1.61609040e-01
C     5.015689993875000e+00   1.506500666418548e+00   3.547345664000000e+00 -2.53859637e+00   6.11300270e-01   1.30973871e+00
C     8.542777728150000e+00   6.339886486801468e+00   1.333183248000000e+01  3.58410700e+00  -2.03938220e+00  -7.25705000e-02
C     6.089801690024999e+00   5.291088331122594e-01   1.327832300800000e+01  3.57186568e+00   3.51276144e+00  -2.43346240e-01
C     6.201549087975000e+00   7.708114166658906e-01   3.641315952000000e+00  9.34596160e-01   4.06856193e+00  -5.00794000e-03
C     7.423561597575000e+00   1.485494188297119e+00   3.683126839999999e+00  2.05177868e+00   2.69521499e+00  -4.05619230e-01
C     1.225725871875000e+00   2.053822632501440e+00   1.329507970400000e+01 -1.44875060e-01   7.09036260e-01  -5.83555560e-01
C     2.456457234375000e+00   2.815337180159704e+00   1.330737995200000e+01 -1.62866600e-01  -1.91648292e+00   7.34496870e-01
C     2.491598829000000e+00   3.000163101360625e+00   3.648704832000000e+00  1.76995474e+00   2.10103330e+00  -4.38249550e-01
C     3.715166396174999e+00   3.704286468589707e+00   3.570215967999999e+00  2.62336861e+00   6.04072960e-01   1.37590339e+00
C     3.676336545299999e+00   2.008092324783745e+00   1.336612460800000e+01  7.57075880e-01   3.78970404e+00  -1.87743256e+00
C     4.942510959600000e+00   2.721861208818352e+00   1.318133542400000e+01 -1.23351893e+00   9.39838820e-01   1.57623945e+00
C     4.957543922325000e+00   2.913797265180602e+00   3.712856168000000e+00  3.67327680e-01   1.47377621e+00  -2.00376586e+00
C     6.198390387675000e+00   3.604616235003584e+00   3.670297007999999e+00  1.44089609e+00   2.19804386e+00  -2.36464240e-01
C     6.169645135274999e+00   1.977553300965442e+00   1.320106317600000e+01 -1.95330886e+00   6.40258020e-01  -3.73497700e-02
C     7.328367648300000e+00   2.748539553870911e+00   1.315484779200000e+01  2.86212165e+00   7.71746580e-01   6.47082880e-01
C     7.506407486774999e+00   2.973158715540413e+00   3.631773375999999e+00 -2.80114987e+00  -1.31087447e+00   6.06523850e-01
C     8.722872193424999e+00   3.740442731019594e+00   3.661082464000000e+00 -2.48672080e+00  -1.58720712e+00  -4.69944500e-01
C     2.460703887075000e+00   4.230388694764432e+00   1.332409924800000e+01 -1.96636672e+00  -6.26130040e-01   2.20563450e-01
C     3.678082578750000e+00   4.892690977316143e+00   1.325365396800000e+01  6.11886840e-01   8.12445420e-01   2.55252630e-01
C     3.816523856099999e+00   5.186067980520227e+00   3.632461808000000e+00 -7.48665520e-01  -2.63902689e+00   3.85929300e-02
C     5.107116005775000e+00   5.851241932296361e+00   3.627076752000000e+00 -4.62826125e+00   3.30970670e-01   2.14794210e-01
C     4.895092851525000e+00   4.198363690994874e+00   1.323388704800000e+01  1.29595962e+00  -1.15579915e+00  -4.50896300e-02
C     6.116446984274999e+00   4.972442239808043e+00   1.325703547200000e+01  1.28707493e+00  -4.44494640e+00  -7.11175200e-01
C     6.228312554324999e+00   5.080693410415623e+00   3.622562912000000e+00  1.24042987e+00  -1.67536878e+00   5.03590940e-01
C     7.417437872024999e+00   5.815790522486544e+00   3.682739240000000e+00  2.36323907e+00   7.96462890e-01  -1.08582218e+00
C     7.353256445175000e+00   4.249083876224187e+00   1.314116347200000e+01 -3.16341210e-01  -2.61888909e+00   1.86202737e+00
C     8.574417013800000e+00   4.946653382129660e+00   1.337809709600000e+01  3.34078180e-01  -2.27928821e+00  -1.51347041e+00
C     8.708591080350001e+00   5.124339644540517e+00   3.637394664000000e+00 -1.16035229e+00   1.16540057e+00   8.43319280e-01
C     9.930182222850000e+00   5.845254399495311e+00   3.722159384000000e+00  7.95747700e-01  -3.33828024e+00  -1.18878573e+00
C     8.312460675000000e-02   6.330314298748441e-02   6.727159488000000e+00 -2.67122567e+00   9.93900900e-01   5.38194640e-01
C     1.262104723950000e+00   7.784217884086644e-01   6.859268664000000e+00 -9.13875960e-01   2.33565803e+00  -2.09490260e-01
C     1.169716252800000e+00   5.430928503624625e-01   1.028198800800000e+01 -1.69700702e+00   2.33577586e+00  -1.03215969e+00
C     2.326616415975000e+00   1.270244776089689e+00   1.016389268000000e+01  4.12058939e+00   1.02708383e+00  -1.67854550e-01
C     2.458635801375000e+00   1.410397540417866e-01   6.941133320000000e+00  3.31363286e+00  -2.76607295e+00  -7.87192500e-02
C     3.781650552075000e+00   7.527680605711267e-01   6.955834648000000e+00 -7.93169780e-01  -9.38780780e-01   3.33603980e-01
C     3.626250949800000e+00   5.704157199260520e-01   1.001108253600000e+01 -1.34884265e+00  -1.20527400e-01   2.27591284e+00
C     4.850498783024999e+00   1.313762604844490e+00   1.023297972800000e+01  5.88746600e-02  -1.33368637e+00  -1.74427750e+00
C     5.050058811000000e+00   7.280936718455400e-02   6.971341775999999e+00 -1.29984542e+00  -8.54743900e-02  -1.40607224e+00
C     6.257121921374999e+00   8.565085842827513e-01   6.792731344000000e+00 -7.38861050e-01  -2.12559225e+00   8.32984500e-01
C     6.127827889274999e+00   6.219856861308091e-01   1.016230379200000e+01 -1.80654548e+00  -9.30723380e-01   5.16272510e-01
C     7.339851306825000e+00   1.326739552546208e+00   1.025261989600000e+01  6.22990570e-01  -5.14115240e-01   8.02871400e-02
C     8.603817426225000e+00   2.221599330555204e+00   6.877828719999999e+00  2.17726840e+00  -6.98278200e-01   5.74542150e-01
C     2.505412208325000e+00   2.846908762472775e+00   7.021399567999999e+00 -9.91493400e-01   7.37581340e-01  -1.96596328e+00
C     2.400945927375000e+00   2.716938960269734e+00   1.022879976800000e+01 -3.65280940e-01  -5.20226690e-01  -1.82599070e-01
C     3.629401515600000e+00   3.404400882165083e+00   1.029938852800000e+01 -8.80715300e-01   1.80012551e+00  -9.07621460e-01
C     3.748834130324999e+00   2.118531125833722e+00   6.966425648000000e+00 -6.83291250e-01   3.13321880e+00   4.24569780e-01
C     4.917024276975000e+00   2.918649002850181e+00   6.968389488000000e+00  1.83209979e+00  -6.42140490e-01  -3.05878110e-01
C     4.826012348100000e+00   2.730163432537741e+00   1.025873146400000e+01  1.67402021e+00  -1.26618000e+00   1.96310660e-01
C     6.056436892050000e+00   3.437347330555538e+00   1.022536971200000e+01  1.49741759e+00  -1.59344231e+00   3.54446150e-01
C     6.207136269299999e+00   2.273671262491029e+00   6.875446680000000e+00 -8.96018530e-01  -1.19657387e+00  -2.71689760e-01
C     7.422989520374999e+00   2.964630549603723e+00   6.816167136000000e+00 -9.02279330e-01   1.62316470e+00   5.84043650e-01
C     7.370069828100000e+00   2.756537319171636e+00   1.026975630400000e+01 -1.44426714e+00  -3.54366380e-01  -9.57669320e-01
C     8.612594181975000e+00   3.476264532591451e+00   1.017961632000000e+01 -2.40206607e+00  -1.30970010e+00   7.31126580e-01
C     2.468617165650000e+00   4.257267429045431e+00   6.797903832000000e+00  4.10896720e-01   2.12513911e+00   1.25648543e+00
C     3.687524477775000e+00   5.070748366469987e+00   6.769013488000000e+00  8.21383230e-01  -2.76902400e+00   7.77628090e-01
C     3.641827888725000e+00   4.853288844875071e+00   1.024434674400000e+01 -1.59925058e+00  -1.31678370e-01  -3.72594070e-01
C     4.875851209424999e+00   5.575250311734504e+00   1.022166915200000e+01 -2.16406778e+00  -1.86905585e+00   2.94660540e-01
C     4.928503202700000e+00   4.315655944551152e+00   6.945957104000000e+00 -4.35121000e-01   2.67171979e+00  -8.00497760e-01
C     6.166941079574999e+00   5.113045287506356e+00   6.928657088000000e+00 -1.87785221e+00  -6.76095650e-01   1.31810630e-01
C     6.033125929350000e+00   4.813965356720520e+00   1.021617148800000e+01  1.90578488e+00   1.38082474e+00  -6.55425160e-01
C     7.271343694050000e+00   5.507192455584020e+00   1.010739705600000e+01 -1.61436540e-01   2.78747845e+00  -1.45516690e-01
C     7.369834962899999e+00   4.434166736250451e+00   6.883138431999999e+00  1.73551439e+00  -2.57277844e+00   4.30529700e-02
C     8.633803152900001e+00   5.036374985385744e+00   6.883801840000000e+00  1.90987758e+00   8.41221930e-01  -1.48407010e-01
C     8.486819985000000e+00   4.873135832110947e+00   1.015178772800000e+01  3.86862617e+00  -2.34944970e-01  -2.66067500e-01
C     9.777870107025000e+00   5.568533141835464e+00   1.013896673600000e+01  2.19735680e-01   8.82597520e-01   3.96810130e-01
