72
Lattice="7.395 0 0 3.6975 6.40425786098592 0 0 0 13.6 " PBC="1 1 1" Properties=species:S:1:pos:R:3:force:R:3 Energy="-578.03316666"
C     3.703568558850000e+00   6.245118584522017e+00   1.341117760000000e-01 -8.59873740e-01  -3.82702506e+00   1.35951644e+00
C     1.227084740100000e+00   4.903327809195817e-01   1.886303680000000e-01  9.85746340e-01   8.00117580e-01  -7.34113530e-01
C     1.406901486150000e+00   1.068248399140322e+00   3.392397464000000e+00  3.34755040e-01  -1.01380108e+00  -3.49242180e-01
C     2.622534588075000e+00   1.746104446586300e+00   3.258776512000000e+00  8.09857330e-01   1.76465068e+00   7.27296540e-01
C     6.168220673400000e+00   6.209874800752023e+00   2.333260880000000e-01 -4.78385780e-01  -7.72324110e-01  -2.16523200e-01
C     3.710142750825000e+00   4.854302574851730e-01   1.253804400000000e-01 -1.77307685e+00   8.21710260e-01   1.22435990e+00
C     3.841452438075000e+00   1.047526077940142e+00   3.332725016000000e+00  2.67520190e-01  -1.35177029e+00  -1.49645090e-01
C     5.084657945400000e+00   1.716465092912170e+00   3.335696208000000e+00  6.74168960e-01   1.82187400e-01   1.43140278e+00
C     8.576169961574999e+00   6.146899107468920e+00   2.754949280000000e-01  2.16156897e+00   2.40539086e+00   1.06410180e-01
C     6.151277471250000e+00   4.419276068215008e-01   2.909019600000000e-01 -1.02550067e+00   7.69681570e-01  -1.26490629e+00
C     6.348830163450000e+00   1.037578023993311e+00   3.495016264000000e+00 -2.64811210e-01  -1.12734895e+00  -4.74061370e-01
C     7.587112301624999e+00   1.771576613713507e+00   3.405606464000000e+00 -1.46228693e+00  -4.22104601e+00   3.27184320e-01
C     1.240470466575000e+00   1.887296557922576e+00   7.502956800000000e-02 -1.25482851e+00   2.38812201e+00   9.95855050e-01
C     2.475560405100000e+00   2.620313246827676e+00   8.335643999999999e-02 -2.29276225e+00   2.03054641e+00   1.19019730e-01
C     2.651521472100000e+00   3.214677304765727e+00   3.283407336000000e+00 -1.91706613e+00  -7.05388720e-01  -2.01873400e-02
C     3.858034283549999e+00   3.926896486483370e+00   3.341217536000000e+00  1.73065392e+00  -1.93168854e+00   1.19440548e+00
C     3.672733146675000e+00   1.931330569860892e+00   1.584285760000000e-01  6.48841560e-01  -1.10976909e+00  -1.16149574e+00
C     4.896553179150001e+00   2.598698620379862e+00   1.504834560000000e-01  1.12587536e+00   1.02593288e+00   9.21749970e-01
C     5.054023640250000e+00   3.108257111480321e+00   3.484740240000000e+00  1.95344687e+00   3.17261339e+00  -1.58626740e+00
C     6.364595416049999e+00   3.842314428245093e+00   3.464656848000000e+00 -2.53002803e+00  -3.22507770e-01  -3.94238210e-01
C     6.106273165125000e+00   1.834579268922200e+00   2.050225840000000e-01  1.78265530e+00   3.15816366e+00   6.47811300e-02
C     7.362972624749999e+00   2.626963428189500e+00   1.834948720000000e-01 -1.08230350e-01  -1.03613860e-01  -1.01710021e+00
C     7.560709230599999e+00   3.094345398301357e+00   3.344781144000000e+00  1.15036288e+00   6.10879030e+00   3.91220740e-01
C     8.787356149724999e+00   3.901880494643532e+00   3.331923568000000e+00  3.89503630e-01   1.83080750e-01   2.43497490e-01
C     2.387701963050000e+00   4.118528020384378e+00   1.151815280000000e-01  2.76102256e+00  -3.07376716e+00   8.85408690e-01
C     3.666587975625000e+00   4.772085288828258e+00   1.532151520000000e-01  7.79829520e-01   5.36796290e-01   6.74036200e-02
C     3.900400497374999e+00   5.328877743349360e+00   3.494404400000000e+00 -5.23582600e-01  -8.53671670e-01  -4.77994060e-01
C     5.100682836450000e+00   6.056460419460251e+00   3.428723472000000e+00  1.75559244e+00  -1.47697388e+00   1.54559830e-01
C     4.934108908500000e+00   4.029944709920330e+00   2.460469840000000e-01 -1.45077192e+00   5.93876850e-01  -7.12894240e-01
C     6.167895589199999e+00   4.777188905959470e+00   3.292180560000000e-01 -3.09184357e+00   1.37878637e+00  -1.20844196e+00
C     6.366161233350000e+00   5.274102830341145e+00   3.393861776000000e+00 -8.30392940e-01   8.02294400e-01   5.27134250e-01
C     7.593985806225000e+00   6.021843036151544e+00   3.409160960000000e+00 -2.21652290e+00   1.30315924e+00  -3.18387030e-01
C     7.339122788399999e+00   4.148348422428210e+00   1.639280080000000e-01  2.22731528e+00  -5.76121005e+00   1.49604938e+00
C     8.575760278575000e+00   4.784676187866174e+00   3.490876560000000e-01 -1.95232630e-01  -9.53944670e-01  -2.35419659e+00
C     8.816774162249999e+00   5.402212579891327e+00   3.458041944000000e+00 -8.90119400e-01  -5.89927640e+00  -2.47438480e-01
C     1.004512991797500e+01   5.958268480715952e+00   3.565393272000000e+00  1.44609095e+00   5.02507867e+00  -8.10910290e-01
C     7.390427264775000e+00   1.842815592828210e-01   6.522962288000000e+00 -2.41607700e-01  -4.55963300e-02   6.22484120e-01
C     1.215607145475000e+00   9.240244480905438e-01   6.540269648000000e+00  8.14282600e-02  -1.84253213e+00   2.51527920e-01
C     1.119601299150000e+00   4.153323890359644e-01   1.029804036000000e+01 -1.40984777e+00  -3.14241290e-01  -1.06722455e+00
C     2.359998481275000e+00   1.119017576942265e+00   1.006010958400000e+01 -2.75968008e+00  -1.27679833e+00   5.12111760e-01
C     2.464155725175000e+00   1.630194231876210e-01   6.670413079999999e+00 -9.62944590e-01   4.36627568e+00  -4.76579320e-01
C     3.719516024250000e+00   8.388790072883221e-01   6.657197824000000e+00 -8.06188720e-01   2.10558373e+00   2.58363280e-01
C     3.506131117725000e+00   3.811688114392158e-01   9.978229424000000e+00  4.10544604e+00   4.02064220e-01   1.50241147e+00
C     4.793029058175000e+00   1.128697868867970e+00   1.017468115200000e+01 -9.99806430e-01  -4.06058240e-01  -8.05517370e-01
C     4.963662286500000e+00   2.132656292927160e-01   6.738470880000000e+00 -3.91396410e-01  -1.56301216e+00  -9.49102990e-01
C     6.176169484950000e+00   9.201281616510983e-01   6.595124976000000e+00  9.44277100e-02   8.11447660e-01   3.23620300e-01
C     6.044004196200000e+00   4.385538437808528e-01   1.029085752000000e+01 -3.93385910e-01   2.60841570e-01  -5.47592090e-01
C     7.269919047300000e+00   1.191895405643342e+00   1.033254519200000e+01  1.22359965e+00  -2.13916723e+00   1.28734900e-01
C     8.587686342974999e+00   2.322239809207118e+00   6.489103592000000e+00 -2.75804270e-01   6.86891000e-02   5.71138910e-01
C     2.431437213225000e+00   2.938445204321227e+00   6.589102759999999e+00  1.29702937e+00   3.24727605e+00  -9.95901700e-01
C     2.350899377475000e+00   2.485756266847254e+00   1.005235336800000e+01 -8.73123530e-01   4.77754345e+00   9.45691740e-01
C     3.564488686275000e+00   3.291445848201912e+00   1.017633491200000e+01 -3.09136840e-01  -3.23796483e+00  -7.45754070e-01
C     3.700101006375000e+00   2.281168535039995e+00   6.594218536000000e+00 -1.35370311e+00  -1.44081743e+00   6.56858780e-01
C     4.904002088700000e+00   2.979681516213402e+00   6.670483256000000e+00 -4.41503990e-01   3.88048624e+00  -1.97974750e-01
C     4.795872213825000e+00   2.570086637751633e+00   1.018918079200000e+01  7.29010330e-01  -1.01575333e+00   5.36787090e-01
C     6.064893037575001e+00   3.253179254721997e+00   1.027913704000000e+01 -2.34716774e+00   1.03451594e+00   1.79447360e-01
C     6.131677837200000e+00   2.382047059956564e+00   6.606415696000000e+00  1.96905150e+00  -2.97086643e+00  -3.39960170e-01
C     7.372406611124999e+00   3.093542496493449e+00   6.500324680000000e+00 -9.40819590e-01  -1.65258886e+00   6.65160530e-01
C     7.291772640375000e+00   2.618217325357834e+00   1.032755032000000e+01 -1.19921874e+00  -2.72100039e+00  -7.61837280e-01
C     8.470787514074999e+00   3.275718912175110e+00   1.015370478400000e+01  3.74893698e+00   2.31959000e-03   3.69390160e-01
C     9.841109226000000e+00   4.402104459700148e+00   6.508524800000000e+00 -1.30295763e+00   6.19006300e-01   1.56455816e+00
C     3.666721344450000e+00   5.135186023737370e+00   6.581967928000000e+00 -3.87760140e-01   8.64931680e-01  -1.12178600e-01
C     3.589497245175000e+00   4.663044217056226e+00   1.025550146400000e+01 -3.03575761e+00   1.26386380e+00  -3.35170900e-01
C     4.779628578674999e+00   5.326916887677785e+00   1.026880566400000e+01  1.39949471e+00   4.06554512e+00   3.12762230e-01
C     4.889396556975000e+00   4.473227137492113e+00   6.686472911999999e+00 -3.96844690e-01  -1.57372085e+00  -2.18360110e-01
C     6.072433386299999e+00   5.241704202168034e+00   6.712513376000000e+00  1.59828280e+00  -5.47535184e+00  -2.69480400e-01
C     6.012876496650000e+00   4.671381343980952e+00   1.025835909600000e+01  7.59045300e-02  -1.10353985e+00  -5.49252260e-01
C     7.199138877074999e+00   5.379687203933242e+00   1.011077216800000e+01  2.55394167e+00   4.81842530e-01   4.32232800e-01
C     7.306520230049999e+00   4.464813799898852e+00   6.612018216000000e+00  2.28860707e+00   3.00627582e+00   5.40675150e-01
C     8.602654747350000e+00   5.197235213035866e+00   6.657398832000000e+00  2.60319000e-01  -2.40590747e+00  -6.63686080e-01
C     8.498103608774999e+00   4.698922662780146e+00   1.018717030400000e+01 -5.76588960e-01   3.72634010e-01  -7.51675730e-01
C     9.738105639075000e+00   5.417837368005263e+00   1.019281471200000e+01  1.21458800e-01  -4.54494890e-01   6.88609040e-01
