72
Lattice="7.395 0 0 3.6975 6.40425786098592 0 0 0 13.6 " PBC="1 1 1" Properties=species:S:1:pos:R:3:force:R:3 Energy="-579.29971987"
C     7.405974993449999e+00   2.907071961874080e-02   1.356554154400000e+01  6.53647610e-01  -2.07277160e+00   5.49994600e-02
C     1.287906137775000e+00   6.824019177601627e-01   1.359444154400000e+01 -1.91554215e+00   1.31459394e+00  -4.14727780e-01
C     1.195933154700000e+00   7.691696851634797e-01   3.426848576000000e+00  4.07948584e+00  -2.89135616e+00  -4.54261150e-01
C     2.463478749900000e+00   1.454627010306070e+00   3.419243592000000e+00  3.13398050e-01  -1.30648784e+00  -2.63991970e-01
C     6.188583027749999e+00   6.381900339640426e+00   1.358018072000000e+01  2.15589230e-01   1.82830192e+00   1.19428810e-01
C     3.738086348250000e+00   7.478433784045224e-01   1.356919314400000e+01 -2.62692542e+00  -2.95643436e+00  -3.29502630e-01
C     3.710531284125000e+00   7.287137961341239e-01   3.400707472000000e+00 -3.07880847e+00  -1.44694088e+00   6.89023500e-02
C     4.884497702250000e+00   1.390285224778850e+00   3.419709936000000e+00  3.11364470e+00   1.57996141e+00  -1.57786530e-01
C     8.591381624475000e+00   6.390579582020034e+00   1.358655912000000e+01  1.66130430e+00   1.22197250e-01  -9.74754900e-02
C     6.131864967675000e+00   6.094191232727598e-01   1.497224000000000e-03  1.10377544e+00   4.62207369e+00  -2.29879820e-01
C     6.158967494774999e+00   6.858763557343699e-01   3.421232048000000e+00  6.13224170e-01   3.15962610e-01  -2.22167000e-01
C     7.436276560574999e+00   1.445929836004454e+00   3.390259544000000e+00 -4.18442465e+00  -2.21348579e+00   2.38218000e-01
C     1.263089885850000e+00   2.101875764544957e+00   1.356217146400000e+01 -9.62501740e-01   2.01412504e+00   5.09123990e-01
C     2.494433258550000e+00   2.833163111700121e+00   1.358957940800000e+01 -2.03474859e+00   1.44269999e+00  -8.89470360e-01
C     2.501761370775000e+00   2.831377284395860e+00   3.383798456000000e+00 -2.91831430e+00   3.62526042e+00   2.48067850e-01
C     3.671621012625000e+00   3.629169903468510e+00   3.446863152000000e+00  2.17307572e+00  -4.20713540e+00  -6.18669180e-01
C     3.707186118900000e+00   2.109238867891756e+00   1.349060364000000e+01 -1.28862280e-01   1.94507116e+00   1.50863406e+00
C     4.927493600325000e+00   2.782998495840163e+00   4.671436800000000e-02 -4.03347240e-01   3.32358299e+00  -1.00695760e+00
C     4.873073462550000e+00   2.816854797144789e+00   3.410487368000000e+00  2.42485126e+00   1.72669908e+00   6.13387040e-01
C     6.209860439400000e+00   3.489443662713809e+00   3.443258608000000e+00 -4.06631702e+00   2.23021510e+00  -4.51920330e-01
C     6.114289345125000e+00   2.104897357445883e+00   9.045904000000000e-03  2.83817975e+00  -8.95926730e-01   2.62525830e-01
C     7.371100136475000e+00   2.881668512433711e+00   1.359351429600000e+01  9.04810710e-01  -1.58350457e+00   9.62868700e-02
C     7.406188450125000e+00   2.806202659088829e+00   3.390213032000000e+00  1.16640383e+00   3.05566870e+00  -8.55429100e-02
C     8.599502924399999e+00   3.600490676132750e+00   3.355408320000000e+00  1.51587230e+00  -1.68131203e+00   8.94918670e-01
C     9.789841280925000e+00   4.317905696294790e+00   1.356109067200000e+01  4.50320210e+00  -2.51712665e+00  -6.33327000e-02
C     3.715845183225000e+00   5.015018386487109e+00   1.353288128000000e+01 -1.35365268e+00  -1.24355932e+00   6.23964980e-01
C     3.725351825475000e+00   4.999920092411845e+00   3.416386368000000e+00 -1.19703920e-01   5.36956440e-01  -1.89628900e-02
C     4.949667027149999e+00   5.711789025267125e+00   3.388547304000000e+00 -7.60308300e-02   1.99990590e-01   4.79606920e-01
C     4.944180639675000e+00   4.272089251308880e+00   1.800599200000000e-02 -1.20537743e+00  -1.15852454e+00  -1.72848710e-01
C     6.149153627250000e+00   4.994376246595336e+00   1.605384800000000e-02  7.64900110e-01  -6.39983710e-01   5.00078600e-02
C     6.177478547850000e+00   4.966345450367902e+00   3.417468384000000e+00  4.30589800e-01  -2.85703470e-01  -2.22882760e-01
C     7.415712692474999e+00   5.716496090751646e+00   3.385738088000000e+00 -1.95412545e+00   5.59828700e-02   6.64468050e-01
C     7.400519369174999e+00   4.339812228815864e+00   1.317948800000000e-02 -1.92413110e+00  -4.23787565e+00  -2.22211530e-01
C     8.599844758274999e+00   4.991543579301280e+00   1.356056394400000e+01 -7.46440100e-02   6.84765140e-01   3.74309570e-01
C     8.611230950700000e+00   5.039176592029180e+00   3.470600184000000e+00  1.07142861e+00  -3.29987550e+00  -1.16710594e+00
C     9.879580789124999e+00   5.639591200665622e+00   3.420280728000000e+00 -4.86803220e-01   4.01606430e+00   3.41270990e-01
C     3.710922072899999e+00   6.394624062986360e+00   6.833828640000000e+00 -6.33447700e-01   1.30930704e+00   4.18548340e-01
C     1.254547403700000e+00   7.393344252414120e-01   6.826916575999999e+00 -1.61330211e+00  -6.76723020e-01  -1.49234930e-01
C     1.295557559400000e+00   6.963437949936468e-01   1.019770051200000e+01 -5.69165056e+00  -8.46760770e-01   1.51498100e-01
C     2.443627907700000e+00   1.370127566994186e+00   1.017324104800000e+01  1.83432074e+00   3.18110852e+00   4.22356990e-01
C     2.457976906874999e+00   3.399335242282980e-02   6.757964984000000e+00  9.73711890e-01  -8.48145440e-01   4.34898090e-01
C     3.720268169700000e+00   6.714048463758636e-01   6.742391488000000e+00  4.14862970e-01   1.40374838e+00   1.49837870e-01
C     3.639676794150000e+00   6.929474889653316e-01   1.026397997600000e+01  3.66453522e+00   1.68705700e-02  -9.67745830e-01
C     4.942249916100001e+00   1.409521950283247e+00   1.018210090400000e+01 -1.78077158e+00   4.69350630e-01   1.06171924e+00
C     5.004720509700000e+00   4.693552500436801e-03   6.804344928000000e+00 -3.14377768e+00  -1.81761130e-01   2.06445570e-01
C     6.171595714425000e+00   7.377003788484331e-01   6.883446336000000e+00  2.28551264e+00   5.42375960e-01  -1.03410623e+00
C     6.185237973450000e+00   7.234580138361576e-01   1.023841306400000e+01 -8.77708740e-01  -4.03587050e-01  -6.41364550e-01
C     7.365130522725000e+00   1.501410562271420e+00   1.020370328000000e+01  2.88872132e+00  -4.73600418e+00  -1.50188600e-01
C     8.611618374750000e+00   2.155041992021319e+00   6.844582704000000e+00  6.91720660e-01  -1.75165817e+00  -6.68672870e-01
C     2.449946602425000e+00   2.784931428947468e+00   6.751647784000000e+00  1.38601429e+00   2.12694622e+00   7.49374010e-01
C     2.467304072475000e+00   2.814210927372445e+00   1.017992612800000e+01 -1.03911800e-02   1.59615632e+00  -2.04224700e-02
C     3.700520857499999e+00   3.600075936393737e+00   1.016729866400000e+01 -1.06591673e+00  -3.61265075e+00   2.37714560e-01
C     3.697676185874999e+00   2.100722549832106e+00   6.742599160000000e+00 -2.47562390e-01  -2.38280120e-01   1.09441320e-01
C     4.900033488000000e+00   2.858148555229968e+00   6.789907304000000e+00  2.11212316e+00  -7.69109410e-01  -2.07900920e-01
C     4.918000158150000e+00   2.868752341139085e+00   1.021361468800000e+01  1.21497591e+00  -1.54636292e+00  -6.42788980e-01
C     6.174912556800000e+00   3.534528869537266e+00   1.018365592800000e+01 -1.16591345e+00   1.15088313e+00   6.04819100e-02
C     6.207447229050000e+00   2.194753514159606e+00   6.781715616000000e+00 -3.67438720e+00  -3.21700236e+00   6.85720740e-01
C     7.397892813075000e+00   2.821768335902716e+00   6.796819776000000e+00  1.58937310e-01   4.37212822e+00   7.57506500e-02
C     7.410860648100000e+00   2.854382979693445e+00   1.015713987200000e+01 -7.28600330e-01   1.27497413e+00   5.69235430e-01
C     8.639369739149998e+00   3.551845598535234e+00   1.021950906400000e+01  5.42759710e-01   4.90038960e-01  -4.27337850e-01
C     2.491759152600000e+00   4.222547769738698e+00   6.830046888000000e+00 -2.92477578e+00   9.72847020e-01  -4.72203210e-01
C     3.652194902250000e+00   4.980717757772156e+00   6.817834223999999e+00  2.92189827e+00  -9.57191810e-01   1.57113140e-01
C     3.679982058450000e+00   4.965123133712742e+00   1.015726268000000e+01  1.39769161e+00   1.15482966e+00   4.68742550e-01
C     4.943834516700000e+00   5.651785227843956e+00   1.022250596000000e+01 -1.75785437e+00   2.14894622e+00  -4.98786390e-01
C     4.942683004275000e+00   4.242213132221665e+00   6.822726279999999e+00 -2.18740684e+00   2.33470662e+00  -1.73081060e-01
C     6.141235024275000e+00   5.018118431546821e+00   6.816361208000000e+00 -5.92077490e-01  -1.07415567e+00  -4.56718380e-01
C     6.124023383625000e+00   4.968142164910525e+00   1.020625178400000e+01  2.27252958e+00  -1.08071822e+00   1.76338450e-01
C     7.355726486100000e+00   5.700084475517031e+00   1.024313661600000e+01  5.69198580e-01  -7.97943880e-01   1.84897660e-01
C     7.335831717600000e+00   4.312952451138131e+00   6.775297367999999e+00  2.96321650e+00  -1.12895979e+00   4.12189040e-01
C     8.615119722374999e+00   5.008754125703930e+00   6.823093752000000e+00  1.09767047e+00  -2.23851134e+00  -2.22026870e-01
C     8.610101475375000e+00   4.995072325382139e+00   1.025571960800000e+01  9.75338360e-01  -6.13556430e-01  -5.10458950e-01
C     9.886425970874999e+00   5.661529242135367e+00   1.019544644800000e+01 -2.25058321e+00   2.14814084e+00   4.53170060e-01
