72
Lattice="7.395 0 0 3.6975 6.40425786098592 0 0 0 13.6 " PBC="1 1 1" Properties=species:S:1:pos:R:3:force:R:3 Energy="-572.92829389"
C     3.697186415025000e+00   6.348436747427775e+00   1.335413865600000e+01 -1.45732225e+00  -2.93208324e+00  -1.15936200e-02
C     1.119395348400000e+00   6.764633134891632e-01   1.339715967200000e+01  5.37064278e+00  -1.91637496e+00  -5.85855870e-01
C     1.306284487575000e+00   8.372471383430153e-01   3.774988312000000e+00  1.26494650e-01   1.00497910e+00  -8.05212090e-01
C     2.553197034450000e+00   1.543971146603886e+00   3.793684912000000e+00  5.11111620e-01   1.97886560e-01  -8.51302390e-01
C     6.053285069099999e+00   6.328472434187905e+00   1.329172104800000e+01  3.90954905e+00  -1.19294761e+00   4.32152150e-01
C     3.676963049699999e+00   6.143385539479188e-01   1.345437174400000e+01  1.53452480e-01  -5.33732430e-01  -2.12786602e+00
C     3.781697584275000e+00   8.498710833514903e-01   3.642679896000000e+00 -4.63908560e-01  -2.21910900e-01   3.25225600e-02
C     4.972737171675000e+00   1.623252976994649e+00   3.582757072000000e+00  2.68717814e+00  -1.90047604e+00  -4.25551690e-01
C     8.690578376325000e+00   6.257250362313951e+00   1.334548456800000e+01 -2.32449312e+00   2.35869281e+00  -1.12264300e-02
C     6.262193116574999e+00   7.012760341845259e-01   1.324153460000000e+01 -5.98061403e+00  -2.86295640e+00   2.69044920e-01
C     6.249576950775000e+00   9.483378288005624e-01   3.574075376000000e+00  5.50407620e-01  -3.37089281e+00   1.76647900e-02
C     7.531761059400000e+00   1.650785586003154e+00   3.733874968000000e+00 -3.98026247e+00  -4.68395768e+00  -6.38000540e-01
C     8.582114358375000e+00   2.064878559015472e+00   1.338497230400000e+01  2.00393979e+00  -8.86600090e-01   5.69130420e-01
C     2.468141556225000e+00   2.724850011919035e+00   2.527111200000000e-02 -2.48235596e+00   1.42977045e+00  -1.64297624e+00
C     2.607087801150000e+00   2.992433802549392e+00   3.726433184000000e+00 -3.67812219e+00  -4.96490740e-01   2.66216420e-01
C     3.811205298150000e+00   3.704641072347415e+00   3.604851088000000e+00 -3.61704060e-01  -2.12546210e+00  -6.90173960e-01
C     3.669645808125000e+00   2.125075893111171e+00   1.337108765600000e+01  1.41314980e+00  -4.87263075e+00   1.63395400e+00
C     4.894817646600000e+00   2.779880198645550e+00   1.320488586400000e+01  7.67757180e-01  -6.31342360e-01  -8.53130170e-01
C     5.056403166375000e+00   3.001592467672399e+00   3.497037360000000e+00 -1.36689045e+00   2.27718229e+00   1.45518558e+00
C     6.272895345449999e+00   3.771507544408204e+00   3.632056528000000e+00 -3.72172701e+00  -1.37453761e+00  -4.96915910e-01
C     6.139139651025000e+00   2.087247478954037e+00   1.300577166400000e+01  7.72208800e-01  -1.81428782e+00   1.64736273e+00
C     7.427355195599999e+00   2.695579799667955e+00   1.304232329600000e+01 -2.57173646e+00   3.27042972e+00   1.08037593e+00
C     7.363140639149999e+00   2.986138288987854e+00   3.794121064000000e+00  6.64673999e+00   3.58214326e+00  -4.69795720e-01
C     8.670234509475000e+00   3.705452043520227e+00   3.747642928000000e+00  1.75962813e+00  -2.83336450e-01   3.42731760e-01
C     2.418544400475000e+00   4.135506412439602e+00   1.359664556000000e+01  2.45438251e+00   1.81380320e-01  -1.11493308e+00
C     3.690261921900000e+00   4.842892492878040e+00   1.343946111200000e+01 -5.22389580e-01   2.16847124e+00  -5.82845970e-01
C     3.730857033225000e+00   5.061499849609204e+00   3.527373519999999e+00  1.38061462e+00   3.10021940e+00   1.37984360e-01
C     4.947720404325000e+00   5.821499790283577e+00   3.594490608000000e+00  1.08150431e+00   1.20484821e+00   3.03372900e-01
C     4.913892901200000e+00   4.170288385175312e+00   1.312524344800000e+01 -1.12056650e+00   1.21087400e-02   1.35648053e+00
C     6.167335861650000e+00   4.798763569838239e+00   1.301394322400000e+01 -1.63735312e+00   4.93225885e+00   1.71908644e+00
C     6.222748778174999e+00   5.190993687368088e+00   3.630566376000000e+00  3.85140820e-01  -1.65485501e+00  -3.46644180e-01
C     7.488085043175000e+00   5.807738320994010e+00   3.597517831999999e+00 -1.04790655e+00   3.29250470e+00   9.18263750e-01
C     7.369065956849999e+00   4.119367362419509e+00   1.310656384800000e+01  2.03874260e+00   6.47572880e-01   1.90920490e-01
C     8.616330912450000e+00   4.805828875194548e+00   1.334880079200000e+01 -7.43032420e-01   2.59554763e+00   3.38089850e-01
C     8.712255044025000e+00   5.144188040713122e+00   3.683729319999999e+00 -6.21579920e-01  -2.68216696e+00  -1.07908748e+00
C     9.931557434024999e+00   5.782828703877225e+00   3.511210328000000e+00  1.78323240e-01   4.12744914e+00   9.08963300e-01
C     7.424656057575000e+00   8.473313468119500e-02   6.498481880000000e+00 -9.75437300e-01   6.28591080e-01   2.01814513e+00
C     1.252835646075000e+00   7.893156231562602e-01   6.804227152000000e+00  1.22477981e+00   3.09921000e-03   9.22320890e-01
C     1.146681123600000e+00   5.988096375741481e-01   1.015375197600000e+01 -1.64678406e+00  -1.93289519e+00   5.15805500e-01
C     2.422385585325000e+00   1.313856875520189e+00   1.016362557600000e+01 -2.94290574e+00  -2.57515353e+00   2.91712630e-01
C     2.509375225800000e+00   4.462871132319600e-03   7.090344903999999e+00 -9.10621080e-01   5.32059773e+00  -6.30360250e-01
C     3.739123903724999e+00   8.105990213875554e-01   7.268237392000001e+00 -9.57252210e-01   3.66049120e-01  -1.92382809e+00
C     3.589821700800000e+00   6.037450148513784e-01   9.986657751999999e+00  2.47271117e+00  -2.66590943e+00  -1.15125320e+00
C     4.835063606249999e+00   1.260908200683331e+00   9.971363872000000e+00 -7.82432240e-01   1.17639400e+00   2.35754640e+00
C     4.918663970325000e+00   1.018888606365630e-01   6.844444255999999e+00 -1.28009084e+00  -4.52850770e-01   1.29234711e+00
C     6.095837599949999e+00   7.480328163520212e-01   6.646054528000000e+00  4.70887138e+00   3.61669458e+00   1.19327130e-01
C     6.052142578575000e+00   5.397739718116746e-01   1.005433910400000e+01  3.09522370e-01   2.57998900e+00  -2.58907180e-01
C     7.247235994050000e+00   1.258400549475670e+00   1.023313844000000e+01  3.12305335e+00   2.68071900e-02  -7.04894500e-01
C     8.685701632650000e+00   2.269782469033279e+00   6.942272456000000e+00 -1.17320696e+00  -2.96691771e+00  -7.40083390e-01
C     2.467554947850000e+00   2.997855775338825e+00   7.063029304000000e+00  2.79902580e+00  -6.57151080e-01   8.97523540e-01
C     2.388467530425000e+00   2.656262971941580e+00   1.035337359200000e+01 -1.02265385e+00   4.03031657e+00  -7.33259040e-01
C     3.618346878000000e+00   3.403392723892762e+00   1.036626476000000e+01 -1.46928270e+00  -3.84446460e-01  -3.46491400e-01
C     3.757431372450000e+00   2.319987751930649e+00   7.330005464000000e+00 -2.93175360e+00  -3.83985983e+00  -2.05843600e+00
C     4.960164192675000e+00   2.922599149098229e+00   7.108986832000000e+00  1.86728030e+00   2.62268787e+00  -1.41995113e+00
C     4.816311771974999e+00   2.648824426437189e+00   1.032969395200000e+01  2.35314849e+00   2.01027047e+00  -1.70852777e+00
C     6.120649858575000e+00   3.417609343788440e+00   1.022979256800000e+01 -2.87253550e+00   5.43292590e-01  -7.99213680e-01
C     6.196397435174999e+00   2.214929039823700e+00   6.823480536000000e+00 -1.66115929e+00  -1.57134405e+00   7.68764750e-01
C     7.428033501974999e+00   2.913360366709393e+00   6.856937624000000e+00  4.45429950e-01   2.87572480e-01   1.94487710e-01
C     7.304271965174999e+00   2.676632354491095e+00   1.021884592800000e+01 -1.68939328e+00   2.44225620e-01  -9.36261600e-02
C     8.461552083450000e+00   3.406671575831924e+00   1.023308050400000e+01  5.10230769e+00   4.54196000e-03  -1.02463021e+00
C     9.927228696824999e+00   4.390371411002578e+00   6.856341128000000e+00 -2.39478191e+00  -1.27840000e-01  -4.06210000e-01
C     3.719368013325000e+00   5.072708453630618e+00   6.670701808000000e+00  2.34002233e+00   5.72991650e-01   7.92697810e-01
C     3.571272193725000e+00   4.847760945660633e+00   1.027761424800000e+01  5.31114860e-01  -1.05551051e+00  -3.68665020e-01
C     4.776204139050000e+00   5.507522659119281e+00   1.019814740800000e+01  4.12693859e+00   3.41261483e+00  -1.04530301e+00
C     4.955468959275000e+00   4.397440302743289e+00   6.900585736000000e+00  5.17319600e-02  -1.96970756e+00   3.44741460e-01
C     6.205508703749999e+00   5.053411720230073e+00   7.007601823999999e+00  5.26105870e-01  -1.96072045e+00  -9.00900790e-01
C     6.103987222724999e+00   4.875222531449471e+00   1.002566296000000e+01 -9.52393880e-01  -2.61514774e+00   9.56860720e-01
C     7.363881655125000e+00   5.529974001856504e+00   9.780276391999999e+00 -2.58757540e+00   1.68874971e+00   2.02390344e+00
C     7.460133865874999e+00   4.313069200758919e+00   6.962133352000000e+00 -5.26271190e-01   1.89197119e+00  -2.21931750e-01
C     8.680849884075000e+00   5.091292713344238e+00   6.839526224000000e+00 -1.47312763e+00  -1.76731313e+00   2.80565630e-01
C     8.572196184374999e+00   4.804746491573629e+00   9.882383832000000e+00 -5.98118370e-01   4.44795320e-01   1.58780753e+00
C     9.792002136899999e+00   5.602694285814226e+00   1.003012389600000e+01 -1.25437422e+00  -4.95577903e+00   2.69157830e-01
