72
Lattice="7.395 0 0 3.6975 6.40425786098592 0 0 0 13.6 " PBC="1 1 1" Properties=species:S:1:pos:R:3:force:R:3 Energy="-578.86605612"
C     3.733634780100000e+00   6.286505844771954e+00   1.324734193600000e+01 -1.34676283e+00   2.72697806e+00   9.68381720e-01
C     1.242474992250000e+00   6.482279652656808e-01   1.333191924800000e+01 -1.25933322e+00  -1.95125180e-01  -4.50960420e-01
C     1.306718056425000e+00   8.595584199608406e-01   3.749846672000000e+00  1.30694700e-01  -5.22367100e-02  -7.86822760e-01
C     2.553984860775000e+00   1.577012570138405e+00   3.722521688000000e+00 -1.88971175e+00   1.36660099e+00  -1.74298470e-01
C     6.117894148800000e+00   6.347984542780281e+00   1.329999256800000e+01  2.76165506e+00  -1.59944682e+00  -2.67144100e-02
C     3.700354285125000e+00   6.655647395907510e-01   1.332062621600000e+01 -1.14870430e-01  -1.86093159e+00   2.62530350e-01
C     3.730052087475000e+00   8.298294707192492e-01   3.626612719999999e+00  1.41998510e+00   2.00112113e+00  -2.50037650e-01
C     4.960633738199999e+00   1.530777094560714e+00   3.526619536000000e+00  1.43661324e+00   1.22070877e+00   1.46208830e+00
C     8.641166354399999e+00   6.295717088851991e+00   1.333395856800000e+01 -1.73709620e+00   4.05850770e-01   1.53326790e-01
C     6.168133782150000e+00   6.005282842134577e-01   1.327219267200000e+01  1.15251900e-01  -8.66051100e-02  -3.98635850e-01
C     6.246133136250000e+00   8.543653993899024e-01   3.617423744000000e+00 -1.29632002e+00  -8.68002270e-01  -1.63925480e-01
C     7.463907978074999e+00   1.556068469488533e+00   3.715895904000000e+00  5.95914410e-01   9.60608130e-01  -3.44276820e-01
C     1.224803012850000e+00   2.074872723618896e+00   1.334067928000000e+01 -1.25488612e+00  -5.20712550e-01  -4.28710980e-01
C     2.414310245325000e+00   2.774313169415588e+00   1.345436140800000e+01  2.59728913e+00   1.28397390e-01  -4.81870630e-01
C     2.525285346450000e+00   3.048062339087766e+00   3.692150168000000e+00  1.02207239e+00  -2.40302766e+00  -4.71080280e-01
C     3.812165391000000e+00   3.703643929398613e+00   3.558900904000000e+00 -3.01689704e+00   8.13685140e-01   1.00917188e+00
C     3.708599784075000e+00   2.069234094786058e+00   1.336925832000000e+01 -1.70301477e+00  -2.81013140e-01  -8.95052100e-02
C     4.920674707800000e+00   2.752349959212454e+00   1.318300645600000e+01  1.31232000e-02  -4.33150220e-01   3.03102430e-01
C     4.975342541100000e+00   2.994689766423155e+00   3.652653728000000e+00  1.32324930e+00  -2.64689031e+00  -1.24423357e+00
C     6.212895273450000e+00   3.678648239056190e+00   3.659782848000000e+00  1.35279398e+00  -1.33207310e-01  -1.05157160e-01
C     6.131281354275000e+00   2.018305771176295e+00   1.309518432000000e+01  1.18062297e+00   5.06601180e-01   8.44264410e-01
C     7.386039589424999e+00   2.774531554608614e+00   1.308152692800000e+01 -4.66652740e-01  -3.01606264e+00   1.02011641e+00
C     7.481749968525000e+00   2.996772238951491e+00   3.695795376000000e+00 -2.52508641e+00  -1.84273589e+00   1.34333300e-01
C     8.651756216250000e+00   3.698451613296040e+00   3.704622456000000e+00  2.36520514e+00   1.51603096e+00  -3.29072050e-01
C     2.430527110575000e+00   4.190318790356299e+00   1.344342170400000e+01  9.87568400e-02   3.42122500e-01  -1.71500550e-01
C     3.690428346375000e+00   4.925682447639354e+00   1.333954708000000e+01 -3.51540680e-01  -3.02172929e+00  -2.79041940e-01
C     3.817006121025000e+00   5.124037299526946e+00   3.591079728000000e+00 -1.75774730e+00  -8.14253400e-02  -1.16672790e-01
C     4.990584301649999e+00   5.843240644653813e+00   3.597969080000000e+00  2.64710065e+00  -3.51998020e-01   6.05360900e-01
C     4.901134307700000e+00   4.160054509200189e+00   1.316170273600000e+01  1.90260130e-01   1.38664235e+00   9.81857740e-01
C     6.114349836224999e+00   4.875647646086217e+00   1.315739357600000e+01  1.06934695e+00   9.82870570e-01  -1.99465530e-01
C     6.257227041300000e+00   5.069798038646141e+00   3.621865640000000e+00 -1.57621533e+00   2.81354256e+00   1.60137750e-01
C     7.459864946700000e+00   5.862335707974347e+00   3.654237992000000e+00 -4.29594200e-01  -3.24572677e+00  -2.83201110e-01
C     7.382623469175000e+00   4.134618269959578e+00   1.307888404000000e+01 -1.35957206e+00   3.07995343e+00   1.81824748e+00
C     8.565343866449998e+00   4.848503135104028e+00   1.339992645600000e+01  1.59499854e+00   1.45128414e+00  -1.28177135e+00
C     8.666920846949999e+00   5.126965262177960e+00   3.656113296000000e+00  1.78921891e+00   6.88177410e-01   6.17807500e-02
C     9.966981147900000e+00   5.817351047999291e+00   3.644533576000000e+00 -1.61131976e+00   2.97246050e-01  -4.64374600e-01
C     7.396556906324999e+00   9.257783821906621e-02   6.584167456000000e+00  3.27919003e+00  -1.22440263e+00   1.71759442e+00
C     1.268303323875000e+00   8.259449040716875e-01   6.840316111999999e+00 -3.20602790e-01  -2.34815979e+00  -2.76296440e-01
C     1.125422199450000e+00   5.810786811777948e-01   1.025363840000000e+01  2.21882598e+00  -7.82369800e-01  -1.05981508e+00
C     2.391340746750000e+00   1.255868818258455e+00   1.014270551200000e+01 -8.88630780e-01   1.37290559e+00   8.48641830e-01
C     2.519897423400000e+00   1.010418975345780e-01   7.020742552000000e+00 -2.34177519e+00  -1.41651807e+00  -6.98179050e-01
C     3.746556026625000e+00   7.454889810874507e-01   7.104267904000000e+00  1.09290049e+00   1.59057531e+00  -5.62954730e-01
C     3.611726097525000e+00   5.414141022496206e-01   9.973653432000001e+00 -7.08686970e-01   2.91722055e+00   1.17022776e+00
C     4.839639336449999e+00   1.272932707156110e+00   1.012028618400000e+01  5.46389440e-01   7.47766070e-01   4.30904400e-02
C     5.013078190800000e+00   5.746450918167960e-02   6.932955096000000e+00 -3.15161910e-01   1.24925958e+00  -6.77912920e-01
C     6.246664245150000e+00   8.233316466519144e-01   6.702504456000000e+00 -3.41337815e+00  -7.83547100e-01   1.21489902e+00
C     6.075145724400000e+00   6.180128047673580e-01   1.011238540000000e+01  9.82338820e-01  -1.59464682e+00   1.60912320e-01
C     7.337324250449999e+00   1.318418820521603e+00   1.024883651200000e+01 -2.26460638e+00  -6.59931380e-01  -1.13952310e-01
C     8.657301246074999e+00   2.196430084824776e+00   6.898932928000000e+00 -7.30675560e-01   2.73884303e+00   3.22258900e-01
C     2.505791017200000e+00   2.908098436323881e+00   7.073376999999999e+00 -1.25970497e+00  -9.35937000e-03  -1.42292273e+00
C     2.381803489200000e+00   2.727952042298683e+00   1.030294533600000e+01  7.90728150e-01  -2.19087072e+00  -8.44303020e-01
C     3.591261396375000e+00   3.445146115564554e+00   1.034290975200000e+01  1.78454477e+00  -1.76258636e+00  -5.28381640e-01
C     3.700793400225000e+00   2.192906846405676e+00   7.136368119999999e+00  2.80528353e+00   4.78845550e-01  -5.60019110e-01
C     4.993621834874999e+00   2.960684373995548e+00   7.042853432000000e+00 -3.02941483e+00  -1.99537019e+00  -4.63806150e-01
C     4.890621686625000e+00   2.694299652564320e+00   1.031196893600000e+01 -3.67539243e+00  -1.83617300e-01  -8.00133430e-01
C     6.076708620674999e+00   3.376765676945661e+00   1.022715376000000e+01  8.24601460e-01   2.38974394e+00   4.04044500e-02
C     6.177954970724999e+00   2.230199736520556e+00   6.851148376000000e+00  1.53476765e+00   1.32220594e+00   4.80981300e-02
C     7.404584548574999e+00   2.990256803175042e+00   6.822109247999999e+00  8.33689230e-01  -2.19091823e+00   3.99973730e-01
C     7.303630633799999e+00   2.715470527985015e+00   1.027570263200000e+01  2.12587106e+00   3.95387220e-01  -1.06479782e+00
C     8.585224695375000e+00   3.426905252157388e+00   1.020308597600000e+01 -2.18876175e+00   1.02117142e+00  -7.30816000e-03
C     9.871985754375000e+00   4.319712721692569e+00   6.795836223999999e+00  1.48691584e+00  -4.73130760e-01   1.01678181e+00
C     3.710166969450000e+00   5.020726437475148e+00   6.720223487999999e+00 -1.23555110e+00   2.34500397e+00   1.73175750e-01
C     3.565411619250000e+00   4.827781262201898e+00   1.027117886400000e+01  2.24187989e+00   1.14848597e+00  -4.80100610e-01
C     4.827960856650000e+00   5.551433837391842e+00   1.021126365600000e+01 -1.92708690e-01  -4.22386910e-01   1.52979650e-01
C     4.919791892699999e+00   4.369998506111238e+00   6.928781936000000e+00  1.05467251e+00  -1.00619236e+00  -2.48779200e-02
C     6.134628257325000e+00   5.061505485356120e+00   6.971620983999999e+00  2.32662793e+00   1.74061574e+00  -3.38304720e-01
C     6.066283482450000e+00   4.830125220578658e+00   1.014326814400000e+01 -2.64215060e-01   6.71492910e-01  -3.49391800e-01
C     7.271550791024999e+00   5.595300121816805e+00   9.940988407999999e+00  1.96679078e+00  -4.41372163e+00   1.04416463e+00
C     7.406951318325000e+00   4.392555262932837e+00   6.914004584000000e+00 -2.11887400e-01  -5.12473320e-01   1.00548410e-01
C     8.689023725475000e+00   5.056004740195009e+00   6.865449728000000e+00 -1.67272369e+00   4.73542500e-01  -1.16380100e-02
C     8.602166011800000e+00   4.862504251722718e+00   1.003002869600000e+01 -3.85411814e+00  -9.50079740e-01   2.40379490e-01
C     9.777644226749999e+00   5.548117584586778e+00   1.008279220800000e+01  5.66825880e-01   2.28232303e+00   3.79096450e-01
