72
Lattice="7.395 0 0 3.6975 6.40425786098592 0 0 0 13.6 " PBC="1 1 1" Properties=species:S:1:pos:R:3:force:R:3 Energy="-570.80773457"
C     1.100132268195000e+01   6.280054067318631e+00   1.353085107200000e+01  1.76381878e+00   1.55962517e+00  -1.64186956e+00
C     1.276773261075000e+00   4.487060654682606e-01   1.346910081600000e+01 -5.12982360e+00   5.76230756e+00   5.18293340e-01
C     1.254474304125000e+00   8.996963375874475e-01   3.706408952000000e+00  2.90912500e+00  -5.03926130e-01   3.75398590e-01
C     2.580370516575000e+00   1.492420265087552e+00   3.812052664000000e+00 -1.23063390e-01   2.30029653e+00  -2.99546000e-01
C     6.195715727100000e+00   6.269799057292571e+00   1.337626816800000e+01 -2.34833884e+00  -2.17484896e+00  -7.83897640e-01
C     3.678130831125000e+00   5.498751515639383e-01   1.345480667200000e+01 -1.24683267e+00   8.52270210e-01   1.72458790e-01
C     3.901260942600000e+00   9.467611645580088e-01   3.693618831999999e+00 -3.30153229e+00  -2.87155951e+00  -2.47553600e-01
C     5.096511982499999e+00   1.639789219087219e+00   3.593016912000000e+00 -1.58477793e+00   1.17863427e+00  -7.65643520e-01
C     8.528606985449999e+00   6.300241056604295e+00   1.334440989600000e+01  4.51276964e+00  -1.19327026e+00  -3.09823990e-01
C     6.010934384775000e+00   5.893027089087138e-01   1.326266043200000e+01  4.95570543e+00   1.30461402e+00   1.18605805e+00
C     6.261598299750000e+00   8.859486374522785e-01   3.482829576000000e+00  1.21976513e+00   4.51679220e-01   4.63143550e-01
C     7.479752837850000e+00   1.624062283060417e+00   3.721083760000000e+00 -9.48981110e-01   1.21820324e+00  -6.64518090e-01
C     1.212481389900000e+00   1.977724358692883e+00   1.352578208000000e+01  3.07099700e-01   9.57417000e-03  -2.75127360e-01
C     2.451373541625000e+00   2.639810817754711e+00   1.191360000000000e-01  3.57649130e-01   2.27522967e+00  -5.55735610e-01
C     2.567925951750000e+00   2.898317853720089e+00   3.830234096000000e+00  4.79531660e-01   2.69308414e+00  -8.26325210e-01
C     3.708243123225000e+00   3.701801872710341e+00   3.539924280000000e+00  3.01344119e+00   5.72588910e-01  -1.41444800e-02
C     3.718872992025000e+00   1.897411570871817e+00   3.836410400000000e-02 -1.01179234e+00   5.04193985e+00  -1.72798060e+00
C     4.877263728375000e+00   2.693202603192902e+00   1.317894889600000e+01 -5.06342650e-01   1.52659906e+00   2.13069909e+00
C     4.977533309849999e+00   3.058517674299688e+00   3.450542088000000e+00  2.82346770e+00   1.05257155e+00   1.39101595e+00
C     6.312322897200000e+00   3.857353931233203e+00   3.554047880000000e+00 -1.82322868e+00  -5.00270661e+00   3.81912850e-01
C     6.091536446100000e+00   1.996863995648122e+00   1.309360617600000e+01  2.13182077e+00   1.91097183e+00   9.22737840e-01
C     7.437914811900000e+00   2.827166164640018e+00   1.323447878400000e+01 -1.52978266e+00  -3.38031290e+00  -8.95646400e-02
C     7.549229010749999e+00   3.089567565767483e+00   3.836092568000000e+00 -1.69837862e+00  -7.71317270e-01  -1.21747659e+00
C     8.820512815424999e+00   3.715568081150726e+00   3.882299656000000e+00 -3.61320349e+00   1.21953234e+00  -1.67484696e+00
C     2.463468359925000e+00   4.164908360274862e+00   1.032313440000000e-01  4.88213910e-01  -1.81973273e+00  -1.18158823e+00
C     3.690822241050000e+00   4.917349163269343e+00   1.359333246400000e+01 -4.58588480e-01  -3.05308079e+00  -4.48450490e-01
C     3.745154969924999e+00   5.195883978669984e+00   3.442727256000000e+00 -6.31553280e-01  -2.82379746e+00   4.84045830e-01
C     4.924750757850000e+00   5.923334214728331e+00   3.592118224000000e+00  2.32216061e+00  -2.50474422e+00  -7.63332670e-01
C     4.898050962450000e+00   4.209945599206947e+00   1.324377139200000e+01  4.14666030e-01  -2.03452967e+00  -1.45919100e-02
C     6.140241690900000e+00   4.901044947439041e+00   1.300906871200000e+01  1.12337331e+00  -8.90900620e-01   2.40377490e+00
C     6.234838604849999e+00   5.188914673138997e+00   3.588307504000000e+00  2.88944820e-01   4.27685042e+00   4.24544340e-01
C     7.529943035624999e+00   5.917445563668639e+00   3.634001464000000e+00 -1.59217423e+00  -4.46341800e-01  -2.23524540e-01
C     7.453880432025001e+00   4.259919496267836e+00   1.314415220800000e+01 -8.34029980e-01  -3.31251916e+00   2.81905330e-01
C     8.707627179075001e+00   4.920113561174612e+00   1.338570833600000e+01 -2.92195146e+00  -2.39920235e+00   3.67546530e-01
C     8.703302730975000e+00   5.187442142129247e+00   3.534251720000000e+00  1.13702233e+00  -3.08686771e+00   1.26959160e+00
C     9.907494843524999e+00   5.844532191336439e+00   3.373975992000000e+00  1.21549013e+00   3.03916260e+00   9.29455750e-01
C     7.416332726249999e+00   1.744125338779824e-01   6.621222968000000e+00  4.71081050e-01  -2.96165789e+00   6.42018970e-01
C     1.270176218550000e+00   8.357208115672418e-01   6.852535032000000e+00  6.54441030e-01  -3.42791115e+00   6.72120850e-01
C     1.115895220950000e+00   5.602848244173181e-01   1.003029022400000e+01  5.31736110e-01  -1.86699822e+00   5.04074230e-01
C     2.335250781000000e+00   1.203160367133925e+00   1.020969775200000e+01  1.09940594e+00   2.39035532e+00  -9.13713660e-01
C     2.506029838725000e+00   1.195628191379622e-01   7.133123840000001e+00 -3.45898137e+00  -2.14441316e+00  -1.92415337e+00
C     3.603542087999999e+00   8.741963119385496e-01   7.264269592000000e+00  4.96227437e+00   1.04649727e+00  -1.56595433e+00
C     3.556376001525000e+00   5.127655513090110e-01   9.920680480000000e+00  1.86830355e+00   2.31636624e+00   1.43225456e+00
C     4.886019038624999e+00   1.303977155004724e+00   1.000022402400000e+01 -3.53096476e+00  -2.21153041e+00  -3.95700190e-01
C     4.808699137125000e+00   1.575653010237306e-01   6.825510744000001e+00  2.36836097e+00  -3.77428140e-01   6.02842600e-01
C     6.141081873825000e+00   8.026736242006483e-01   6.616998808000000e+00 -1.37033520e+00   9.36622930e-01   2.17524196e+00
C     6.028337112225000e+00   5.040546078529963e-01   9.880391296000001e+00  1.61793996e+00  -4.44957510e-01   1.07381190e+00
C     7.279867171049999e+00   1.246610951181196e+00   1.003419995200000e+01 -1.43324416e+00  -8.11489480e-01  -2.36852130e-01
C     1.358786806050000e+00   2.153345632199362e+00   6.962919160000000e+00 -2.75168203e+00   6.14336631e+00   6.40036690e-01
C     2.522895023625000e+00   3.015339335254046e+00   7.172751111999999e+00 -1.63875645e+00   1.24181751e+00  -1.12607165e+00
C     2.330225989425000e+00   2.669676433859035e+00   1.032861234400000e+01  4.47213590e-01   9.64020300e-02  -9.27678540e-01
C     3.581686978950000e+00   3.444413532507948e+00   1.033137640800000e+01  1.49210990e-01  -4.60864293e+00  -9.08652890e-01
C     3.701266125600000e+00   2.331029204821918e+00   7.348895184000000e+00  1.18825363e+00  -1.68468149e+00  -1.95682888e+00
C     4.980327584550000e+00   2.924438131742728e+00   7.088313063999999e+00 -9.35072450e-01   2.63812447e+00  -2.82670690e-01
C     4.824141856800000e+00   2.738636137601364e+00   1.011391023200000e+01 -1.08119984e+00  -2.62882958e+00   9.71071940e-01
C     6.025658273475001e+00   3.373591470579931e+00   1.006762671200000e+01  1.61490597e+00   2.56912688e+00  -8.39616710e-01
C     6.151431213300000e+00   2.224690601781648e+00   6.912037208000000e+00  1.72636964e+00  -2.29618530e+00  -6.01205140e-01
C     7.423198466100001e+00   2.852439543603250e+00   6.968593759999999e+00  1.61280216e+00   3.47288700e-02  -4.66310460e-01
C     7.232957247374999e+00   2.666728041625448e+00   1.008386484000000e+01  1.18027140e+00  -8.75168940e-01  -3.66904070e-01
C     8.489480742974999e+00   3.360992117921639e+00   1.008256604000000e+01  3.62747360e-01  -1.17068396e+00   5.96800500e-01
C     9.919437066000000e+00   4.507665842006528e+00   6.892060303999999e+00 -5.50762770e-01  -3.09185878e+00   2.07476810e-01
C     3.813059002800000e+00   5.087039325486519e+00   6.754414704000000e+00 -1.45186680e+00   2.36482532e+00   9.08815700e-02
C     3.668817309300000e+00   4.769858080072285e+00   1.018362981600000e+01 -2.12077021e+00   3.36434447e+00  -1.23003574e+00
C     4.927927723800000e+00   5.509390012626100e+00   1.000968092000000e+01 -5.54070100e+00   1.97494853e+00   4.19409150e-01
C     5.075521829625000e+00   4.382934530605231e+00   6.880908167999999e+00 -4.28258275e+00  -1.50080350e+00   6.77419060e-01
C     6.237069343575000e+00   5.077767048829075e+00   6.962568008000000e+00  2.24670169e+00  -3.44881840e-01   3.76558380e-01
C     6.074309017125000e+00   4.842138903855654e+00   9.898333367999999e+00  6.20889650e-01  -3.18535333e+00   8.87168020e-01
C     7.237942586625000e+00   5.540516306890165e+00   9.755367584000000e+00  4.30935144e+00  -1.19376554e+00   9.54553030e-01
C     7.446781490850000e+00   4.230578709095139e+00   7.022296215999999e+00 -4.13552000e-02   5.16537361e+00  -8.30845790e-01
C     8.599655668124999e+00   5.137880871402279e+00   6.832860048000000e+00  9.61017720e-01  -1.69937948e+00   7.91970410e-01
C     8.535785274975000e+00   4.731061918509927e+00   9.840162904000000e+00 -2.08093531e+00   1.53149542e+00   6.25266250e-01
C     9.741291405075000e+00   5.371091921374179e+00   9.941896344000000e+00  2.22299908e+00   4.79145806e+00   2.59271180e-01
