72
Lattice="7.395 0 0 3.6975 6.40425786098592 0 0 0 13.6 " PBC="1 1 1" Properties=species:S:1:pos:R:3:force:R:3 Energy="-574.33467479"
C     3.640715754675000e+00   6.179332959060261e+00   1.351937838400000e+01 -1.70394160e-01   3.35168080e+00   1.32121197e+00
C     1.163734215450000e+00   5.359377573109561e-01   1.351540487200000e+01  1.04764523e+00  -4.29283570e-01   1.66394040e-01
C     1.385924570325000e+00   9.354957547693759e-01   3.398099672000000e+00 -2.21267200e+00   1.51677725e+00   7.44804990e-01
C     2.615308970550000e+00   1.681982903486886e+00   3.281328576000000e+00  1.00525022e+00  -3.32688288e+00   1.73211438e+00
C     6.114322622625000e+00   6.243531033041102e+00   4.044912000000000e-02 -1.28091400e-01  -1.77386830e+00   8.29284200e-02
C     3.659583320700000e+00   5.055451988699112e-01   1.358067480800000e+01  1.48028104e+00   4.72127490e-01   8.07501180e-01
C     3.899512542750000e+00   1.024781035937459e+00   3.519819808000000e+00 -1.69235234e+00  -2.75137372e+00  -9.30622090e-01
C     5.101125649049999e+00   1.745957596953570e+00   3.558832904000000e+00 -1.06074370e-01  -4.89704570e-01   1.00935317e+00
C     8.651887107749999e+00   6.279699783773816e+00   1.435928800000000e-02 -9.84402650e-01  -1.96704641e+00   8.18448500e-01
C     6.134196352349999e+00   6.808862220524364e-01   8.559418400000000e-02  1.55710580e-01  -5.98883148e+00  -1.14930646e+00
C     6.291720390224999e+00   1.017234962943599e+00   3.671728952000000e+00  1.04397067e+00  -5.25899600e-01  -8.21675360e-01
C     7.532905546575000e+00   1.713643056686161e+00   3.478757464000000e+00  2.37591870e-01  -6.52061980e-01   6.61888800e-02
C     1.177494054975000e+00   2.024029256425777e+00   1.344764069600000e+01  1.75479631e+00  -4.66252890e+00   7.15863680e-01
C     2.421517116525000e+00   2.634344015160258e+00   1.328317004800000e+01  1.91643029e+00  -1.67427010e-01   1.70181403e+00
C     2.608546317000000e+00   3.037993692965431e+00   3.416403640000000e+00  6.19890370e-01   2.02730902e+00  -3.37723980e-01
C     3.855349787625000e+00   3.743423144542482e+00   3.528952480000000e+00 -9.85339640e-01   3.04057235e+00   1.72579252e+00
C     3.695333228025000e+00   1.911488129648097e+00   1.358732112800000e+01 -8.35172930e-01   2.24514197e+00  -2.15997614e+00
C     4.930717043850000e+00   2.710664004375928e+00   5.727585600000000e-02 -1.68564739e+00  -2.32814390e-01   8.60414490e-01
C     5.132777247375000e+00   3.152654308881878e+00   3.674767736000000e+00 -1.12655342e+00   5.57413860e-01  -2.30006988e+00
C     6.325390638675000e+00   3.955234238790034e+00   3.513896328000000e+00 -9.92017510e-01  -3.72311997e+00   5.50440920e-01
C     6.141692959649999e+00   2.041283287739296e+00   2.083180000000000e-01  6.83345290e-01  -8.07974450e-01  -8.45757600e-02
C     7.435821989925000e+00   2.644477984712764e+00   2.701090560000000e-01 -2.62671308e+00   3.04509580e-01  -1.92323000e+00
C     7.512457742999999e+00   3.161780184204642e+00   3.379709480000000e+00  8.45738590e-01  -9.07096690e-01   9.70106550e-01
C     8.786410994774998e+00   3.755795530302215e+00   3.437750064000000e+00  8.59953400e-02   1.87260923e+00  -7.16828650e-01
C     2.463686771250000e+00   4.044432293966064e+00   1.331880259200000e+01 -4.42425790e-01   1.02478420e-01   1.94737306e+00
C     3.650618547075000e+00   4.757872575529874e+00   1.353227852800000e+01  1.36964559e+00   2.18448886e+00  -6.05467970e-01
C     3.782228988975000e+00   5.224565703666309e+00   3.747640480000000e+00 -6.59784160e-01  -5.56523030e-01  -1.50084093e+00
C     4.991142550199999e+00   5.922737209810621e+00   3.634505072000000e+00  8.68969450e-01   2.75449581e+00  -6.29759740e-01
C     4.916893015725000e+00   4.160073017505406e+00   1.112697600000000e-01 -1.49489386e+00  -3.06386856e+00  -3.90625670e-01
C     6.133754538074999e+00   4.772594811583599e+00   2.691459040000000e-01  1.55206468e+00   2.24384395e+00  -1.68743858e+00
C     6.248568087899999e+00   5.337254448587662e+00   3.536996744000000e+00  1.96147245e+00  -2.47258175e+00   2.35135710e-01
C     7.552053161249999e+00   5.867343581450552e+00   3.549874448000000e+00 -1.68293880e-01   5.53259087e+00  -9.44875840e-01
C     7.368853498500000e+00   3.977153387699092e+00   1.608414880000000e-01  2.22396894e+00   6.86419480e+00   1.04482106e+00
C     8.710758850649999e+00   4.760434726971924e+00   6.897403199999999e-02 -3.86531131e+00   1.39618790e+00  -1.74746389e+00
C     8.786668081949999e+00   5.193407388112945e+00   3.465941640000000e+00 -9.75986830e-01   3.85259970e-01   1.51363187e+00
C     9.931754880524998e+00   6.009345767363539e+00   3.696621984000000e+00  2.28276803e+00  -2.43970174e+00  -7.18872750e-01
C     7.365365757675000e+00   1.817830021213206e-01   7.107193672000000e+00  1.32134402e+00  -4.11540760e-01  -1.27615152e+00
C     1.217575435650000e+00   8.657748409378069e-01   6.875867055999999e+00  1.12546068e+00  -1.34368989e+00  -1.92904250e-01
C     1.121893675200000e+00   4.719319391510724e-01   1.000483551200000e+01 -1.65242572e+00   3.48633660e-01  -5.78307870e-01
C     2.314658627025000e+00   1.198555257434535e+00   9.891590896000000e+00  1.16378886e+00  -3.50191160e-01   2.04631980e-01
C     2.480352956700000e+00   9.878132259515521e-02   6.833388952000000e+00 -5.89404580e-01   2.53418610e+00  -3.12398810e-01
C     3.623371669575000e+00   9.440056045285866e-01   6.776198640000000e+00  1.67607541e+00  -1.15757090e+00   1.48134190e-01
C     3.557430787350000e+00   4.757360683199124e-01   9.982904288000000e+00  1.74744336e+00   1.15085015e+00   6.54222210e-01
C     4.836122052599999e+00   1.219517097878680e+00   1.004695185600000e+01 -2.84640549e+00  -2.55133176e+00  -1.01054873e+00
C     4.828709304599999e+00   1.151064163060812e-01   6.929732440000000e+00  1.23307805e+00   3.07306578e+00  -4.32475640e-01
C     6.102966379950001e+00   7.601807969163409e-01   6.971184559999999e+00 -2.36750070e-01   4.41659890e+00   1.26165160e-01
C     5.989707074250000e+00   4.510726308752664e-01   1.013179776800000e+01  8.25578420e-01  -6.71704290e-01  -3.25034690e-01
C     7.228060019550000e+00   1.101328184179423e+00   1.000757142400000e+01  1.21564052e+00   1.35862126e+00   1.19102850e+00
C     8.672194406325000e+00   2.254904033130349e+00   6.690117848000000e+00 -7.68628430e-01   1.46692663e+00   1.77358938e+00
C     2.473064999325000e+00   3.104403349313066e+00   6.727539879999999e+00  6.79497100e-02  -5.29880460e-01  -6.75203900e-01
C     2.324054011500000e+00   2.628558088396641e+00   9.772671679999998e+00 -1.47339840e-01  -8.55449060e-01   7.11906940e-01
C     3.577891975875000e+00   3.303747402869714e+00   9.796064360000001e+00 -4.18628620e-01   5.12370220e-01   3.51142300e-01
C     3.703300231275000e+00   2.433485866960348e+00   6.670566623999999e+00 -6.77317550e-01  -4.28278139e+00   9.46454150e-01
C     4.983236666624999e+00   3.002950682679348e+00   6.755235192000000e+00 -1.77516538e+00   2.01436395e+00   2.15409980e-01
C     4.815346391699999e+00   2.575221507661203e+00   9.821524512000000e+00 -7.69896220e-01   1.96518078e+00   1.50107080e+00
C     5.982041084475000e+00   3.281175980297616e+00   1.005152757600000e+01  3.18747915e+00   2.27956961e+00   5.18813850e-01
C     6.147397203824999e+00   2.271938462441848e+00   6.903257591999999e+00  1.07687765e+00  -2.78323880e+00  -4.73871240e-01
C     7.407000273225000e+00   2.927738566030879e+00   6.885881416000000e+00  7.82872870e-01  -6.69092180e-01  -8.21771220e-01
C     7.228768053825000e+00   2.499482640803749e+00   1.012991811200000e+01  1.28136210e-01   3.30080954e+00  -2.03683520e+00
C     8.474150649149999e+00   3.299553318439779e+00   9.880561840000000e+00 -3.13099690e-01  -1.86575006e+00   1.78045053e+00
C     9.896633659124999e+00   4.552148087952466e+00   6.860705912000000e+00  2.06027500e-01  -3.30597170e+00   6.83288510e-01
C     3.739158142575000e+00   5.180034977488372e+00   7.063459335999999e+00  7.25256080e-01  -9.25578490e-01  -1.83735215e+00
C     3.588057438674999e+00   4.702416185442776e+00   9.984559136000000e+00 -9.88302020e-01   1.89934564e+00  -2.05572550e-01
C     4.823834705474999e+00   5.486573371020542e+00   9.993064576000000e+00  2.39874200e-02  -1.50788129e+00   1.09653994e+00
C     4.955278907775000e+00   4.432240015273270e+00   6.802600048000000e+00  2.16028429e+00   6.42253240e-01   9.94976490e-01
C     6.295926481350000e+00   5.085362818863928e+00   6.815574175999999e+00 -3.78827243e+00  -2.65972820e-01   7.42272530e-01
C     6.071582184824999e+00   4.849494578263336e+00   1.014366948000000e+01 -8.07342530e-01  -4.87128633e+00  -1.35448658e+00
C     7.335971889825000e+00   5.470946597586670e+00   1.011254914400000e+01 -2.19728068e+00   4.90282000e-02   1.05363520e-01
C     7.472181356175000e+00   4.310015906781585e+00   6.892075264000001e+00 -3.69143300e-01   3.01505870e+00  -3.96526830e-01
C     8.658090403499999e+00   5.148250837856927e+00   6.942610552000000e+00 -2.30927145e+00  -1.54293953e+00  -4.53840690e-01
C     8.528149197974999e+00   4.680902746269149e+00   1.007986752800000e+01 -2.08891354e+00   1.31423263e+00  -3.28675510e-01
C     9.666548735025000e+00   5.439294962050350e+00   1.010254607200000e+01  4.08180816e+00  -1.40803236e+00  -3.76182470e-01
