72
Lattice="7.395 0 0 3.6975 6.40425786098592 0 0 0 13.6 " PBC="1 1 1" Properties=species:S:1:pos:R:3:force:R:3 Energy="-572.27295527"
C     3.613558763400000e+00   6.161646512256035e+00   2.412193920000000e-01  3.15175229e+00   1.30553823e+00   1.23917040e-01
C     1.304968473375000e+00   3.944222949953286e-01   3.509954640000000e-01 -5.78409675e+00   4.43765298e+00  -9.63697860e-01
C     1.385551973250000e+00   1.054841085310412e+00   3.422221992000000e+00  3.40704705e+00  -4.80352180e-01   3.10769650e-01
C     2.596345343475000e+00   1.815886008739803e+00   3.645841624000000e+00  2.77893047e+00  -4.51517836e+00  -8.02087320e-01
C     6.184848478799999e+00   6.168830680638226e+00   1.329395920000000e-01 -1.10117637e+00   5.92687940e-01   6.36994520e-01
C     3.681038249325000e+00   4.557023329248390e-01   2.422315040000000e-01 -1.85542282e+00   1.74835009e+00  -4.33938090e-01
C     3.940624564575000e+00   1.105444520918938e+00   3.509932200000000e+00 -2.74825625e+00  -2.28465889e+00  -1.13074956e+00
C     5.188147494749999e+00   1.737742727311391e+00   3.268948088000000e+00 -4.21276005e+00   2.03749910e+00   7.34954490e-01
C     8.546756459999999e+00   6.225202239173518e+00   1.662151200000000e-02  2.48896422e+00  -3.20668054e+00   1.10554553e+00
C     6.063983711400000e+00   4.128201267626437e-01   1.331896960000000e-01  3.40637045e+00   3.98564247e+00  -8.72538640e-01
C     6.319451714174999e+00   1.001387242613558e+00   3.117187320000000e+00  3.16296318e+00   3.69556665e+00   2.73642150e-01
C     7.579798350825000e+00   1.660102692465618e+00   3.311502624000000e+00 -1.63599983e+00   5.07059767e+00   8.18989840e-01
C     1.221259217925000e+00   1.891791706514510e+00   4.059646240000000e-01 -8.09691460e-01   3.08434570e-01  -2.59722200e-02
C     2.404867717725000e+00   2.657442380069077e+00   6.033037520000000e-01  1.03557156e+00  -1.71787477e+00  -1.87971493e+00
C     2.654230149675000e+00   3.144889914737571e+00   3.660134680000000e+00  5.59612380e-01   5.15452027e+00  -1.77881081e+00
C     3.830702992125000e+00   3.902822432889580e+00   3.331347608000000e+00  3.14294731e+00   1.85129710e-01  -5.09707630e-01
C     3.621188813474999e+00   1.819469447182787e+00   4.478671760000000e-01  2.56167118e+00   4.49962908e+00  -1.18263578e+00
C     4.934175315600000e+00   2.547018308812178e+00   1.152810800000000e-01 -2.81557435e+00   2.81488906e+00   9.33136980e-01
C     5.116605787425000e+00   3.160853039794250e+00   3.206351776000000e+00 -2.29999140e-01   1.29937690e+00   1.04749583e+00
C     6.358413565799999e+00   3.887929011023257e+00   3.255509112000000e+00  3.61696680e-01  -9.23424100e-01   7.15234400e-01
C     6.147206708624999e+00   1.858162179980707e+00   1.358768438400000e+01 -6.34456000e-03   8.86502370e-01   1.45538649e+00
C     7.371340954650000e+00   2.649623357605224e+00   1.656965520000000e-01  5.98951340e-01  -9.28267080e-01  -1.08497583e+00
C     7.605424281299999e+00   3.198711361835590e+00   3.536772208000000e+00 -2.45775830e-01  -1.13617149e+00  -2.07641146e+00
C     8.896280358525001e+00   3.951774914864377e+00   3.539410064000000e+00 -3.55442090e+00  -2.46131628e+00  -2.60651000e-03
C     2.430097756875000e+00   4.081541317837783e+00   4.288335679999999e-01  3.51272750e-01  -4.01275610e-01  -2.44738230e-01
C     3.677727322950000e+00   4.806128338292082e+00   3.748671360000000e-01 -6.17737680e-01  -2.63578216e+00  -1.32255695e+00
C     3.895155408750000e+00   5.394560260259571e+00   3.067361136000000e+00  7.36230300e-01  -2.45373421e+00   1.63359511e+00
C     5.210053925100000e+00   6.075871084608125e+00   3.237458920000000e+00 -4.48078119e+00  -1.72005571e+00  -4.32471530e-01
C     4.894555272000000e+00   4.128019386703212e+00   1.060782320000000e-01  7.57688920e-01  -3.52632934e+00   1.58053940e-01
C     6.112411606725000e+00   4.839125828617681e+00   1.350371118400000e+01  1.41972964e+00  -4.46074612e+00   6.32266900e-01
C     6.336914636925000e+00   5.291891617185974e+00   3.313864128000000e+00  2.62318934e+00   1.33469179e+00   1.24980460e-01
C     7.582254304274999e+00   6.031383331000428e+00   3.360397344000000e+00  9.57127930e-01   5.12395580e-01   3.25977540e-01
C     7.401812458874999e+00   4.109864532479106e+00   1.355966648000000e+01 -1.06187145e+00  -2.31876791e+00   1.17761160e+00
C     8.637388544700000e+00   4.801672511843408e+00   1.457506560000000e-01 -1.77432851e+00  -1.09698120e+00  -4.71405290e-01
C     8.851581946574999e+00   5.314231846049327e+00   3.267885792000000e+00 -6.00515990e-01   1.79530712e+00  -3.20261910e-01
C     1.004783438040000e+01   6.094689740159421e+00   2.982377184000000e+00 -7.90876800e-02  -5.52635232e+00   2.00195062e+00
C     7.402928105550000e+00   1.910648851655544e-01   6.443384200000000e+00 -3.23780789e+00   1.64779887e+00   2.87726570e-01
C     1.199030550450000e+00   8.833477402501753e-01   6.568618712000000e+00 -8.09962290e-01   2.67136514e+00   2.25017910e-01
C     1.165269676275000e+00   3.784813286708454e-01   1.028802409600000e+01 -4.00755383e+00   5.91009300e-01  -7.98485710e-01
C     2.256481052775000e+00   1.061195197831369e+00   1.062657284000000e+01  5.26601843e+00   3.13904597e+00   9.26461000e-03
C     2.406133445925000e+00   2.773903745210598e-01   6.465371048000000e+00  1.39107839e+00  -4.36303328e+00  -4.04364700e-02
C     3.625906047000000e+00   9.353549251390344e-01   6.472807392000000e+00  2.35163150e+00  -2.27122640e+00  -2.07236790e-01
C     3.574132357874999e+00   3.524382859979982e-01   1.059251150400000e+01 -6.97106970e-01   5.76494430e-01  -1.59749538e+00
C     4.822864888200000e+00   1.151563054748106e+00   1.040297551200000e+01 -4.41889240e-01  -2.88841732e+00  -1.89183000e-03
C     4.896431272575000e+00   2.173256085630630e-01   6.321996992000000e+00 -9.48133050e-01   3.18689400e-01   1.21186467e+00
C     6.124128466574999e+00   9.502523176452308e-01   6.418027815999999e+00  1.00572834e+00  -1.53364088e+00   2.55788680e-01
C     6.046284444449999e+00   4.060099670394768e-01   1.014236850400000e+01 -1.29668615e+00  -1.34905516e+00   5.54456640e-01
C     7.274498475000000e+00   1.117128513001301e+00   1.008412704800000e+01  1.10537619e+00  -8.26235800e-01   1.09518183e+00
C     8.571012392775000e+00   2.306417577823359e+00   6.715702712000001e+00  8.51011690e-01   7.65347950e-01  -3.75545400e-01
C     2.458340814825000e+00   2.996131556995177e+00   6.726481256000000e+00 -1.52353074e+00   2.03135123e+00  -9.39242970e-01
C     2.303539837800000e+00   2.580988285693818e+00   1.068754762400000e+01  1.10413724e+00  -2.99343521e+00  -9.99851330e-01
C     3.584076229500000e+00   3.207158065612301e+00   1.059176880800000e+01 -1.20346630e+00   2.64991850e+00  -7.22354750e-01
C     3.688627848750000e+00   2.278463312477352e+00   6.607470375999999e+00 -2.11564663e+00   3.28299513e+00   3.38463700e-01
C     4.840440214950000e+00   3.048319534083424e+00   6.522262840000000e+00  3.82546627e+00  -8.72825340e-01  -1.21569360e-01
C     4.802373380175000e+00   2.568071730143720e+00   1.041750235200000e+01  5.26045900e-01  -1.94794877e+00  -3.11111180e-01
C     5.981039542650000e+00   3.273545243014847e+00   1.015717482400000e+01  2.56138270e+00  -2.53866068e+00   6.89869280e-01
C     6.145936950149999e+00   2.372180019871662e+00   6.540960664000000e+00 -3.12264962e+00  -2.02531582e+00  -3.21625120e-01
C     7.328377039950000e+00   3.017977313109159e+00   6.649980712000000e+00  2.36525880e+00   3.32988059e+00  -6.06942130e-01
C     7.296906730049999e+00   2.522937530747634e+00   1.016094651200000e+01 -1.59542575e+00   1.03019738e+00   5.12280990e-01
C     8.527053295949999e+00   3.273035336004034e+00   1.041332048800000e+01 -2.22101282e+00  -2.82663131e+00  -2.25263090e-01
C     9.834614123549999e+00   4.478028089396862e+00   6.544815992000000e+00 -1.43321849e+00  -5.18151680e-01   3.81820860e-01
C     3.654278480474999e+00   5.228108667199619e+00   6.479911488000000e+00  1.19594388e+00  -3.81392887e+00  -4.65742930e-01
C     3.607366079475000e+00   4.629419942013867e+00   1.032383874400000e+01 -1.14749213e+00   7.84795020e-01  -2.83620920e-01
C     4.904608996350000e+00   5.398511559274034e+00   1.019380016800000e+01 -6.19034144e+00  -1.03792593e+00   6.51085000e-01
C     4.948445631975000e+00   4.416133947181156e+00   6.417109136000000e+00 -3.59059684e+00   3.38669308e+00   9.04702770e-01
C     6.135109228125000e+00   5.185860546608142e+00   6.397644680000000e+00 -1.62275705e+00   1.65328969e+00   1.86708600e-01
C     6.004934932199999e+00   4.655682714773891e+00   1.022699015200000e+01  2.25900798e+00  -7.32020250e-01  -8.77025400e-02
C     7.220757678899999e+00   5.302463189678055e+00   1.032045044000000e+01  1.26603246e+00   4.04833514e+00   9.72478640e-01
C     7.319705219250000e+00   4.526165821686710e+00   6.474386216000000e+00  1.25011178e+00  -3.56856278e+00   8.01272620e-01
C     8.516970028574999e+00   5.202286699508099e+00   6.425223032000000e+00  4.29511157e+00  -9.44475500e-02   3.26064620e-01
C     8.425500090374999e+00   4.633536855136589e+00   1.035874056000000e+01  3.33519881e+00   1.36108954e+00  -7.20401830e-01
C     9.698839557149999e+00   5.292553241065491e+00   1.022277850400000e+01  1.39842070e+00   2.99740122e+00   7.21150620e-01
