72
Lattice="7.395 0 0 3.6975 6.40425786098592 0 0 0 13.6 " PBC="1 1 1" Properties=species:S:1:pos:R:3:force:R:3 Energy="-578.23035891"
C     3.703985230125000e+00   6.276429705667923e+00   1.353990173600000e+01 -9.10221540e-01  -1.57121193e+00  -5.59644710e-01
C     1.235932229025000e+00   5.387091998998710e-01   1.356199806400000e+01  9.31926800e-02  -4.23574500e-01  -3.43832500e-02
C     1.338780447000000e+00   9.968707678429501e-01   3.587217192000000e+00  1.20481692e+00  -2.05300404e+00  -3.48169120e-01
C     2.608168987125000e+00   1.629360589630574e+00   3.660130871999999e+00 -1.91251080e+00   3.46927377e+00  -9.97904650e-01
C     6.167075187900000e+00   6.232913093722115e+00   1.352594079200000e+01 -3.66911410e-01   1.57510053e+00  -1.29055560e-01
C     3.691277292375000e+00   5.650770665313775e-01   1.350221124000000e+01  1.25011450e-01  -5.44310970e-01  -9.68531700e-02
C     3.798897097125000e+00   9.306204494308723e-01   3.580240256000000e+00  1.67084517e+00   3.72994828e+00   4.83243330e-01
C     5.038840485074999e+00   1.649851268823958e+00   3.610283880000000e+00  7.87865680e-01   3.96164690e-01  -1.14204673e+00
C     8.603006046825000e+00   6.198934855347835e+00   1.351403712000000e+01 -6.46905380e-01   2.60417913e+00  -6.11350120e-01
C     6.129695311650000e+00   4.713975678752341e-01   1.353659476000000e+01  1.00414181e+00   3.45292575e+00   3.36037330e-01
C     6.327929194274999e+00   9.241248668537886e-01   3.505357296000000e+00 -2.99023937e+00   1.27127097e+00   5.64535710e-01
C     7.502284330574999e+00   1.667412000046393e+00   3.529550880000000e+00  1.79628086e+00   4.50593780e-01   1.74303390e-01
C     1.246184361225000e+00   1.902124848486463e+00   1.359809015200000e+01 -1.38984317e+00   5.02597757e+00  -4.43458000e-01
C     2.467984597350000e+00   2.683005679785631e+00   1.358615139200000e+01 -7.82432990e-01   1.59515970e-01  -8.37264280e-01
C     2.602766163150000e+00   3.106187639595441e+00   3.578064664000000e+00 -2.97463260e-01  -1.37516890e-01   5.64377020e-01
C     3.829140835350000e+00   3.861304333651565e+00   3.633713960000000e+00 -1.02440586e+00  -2.78027596e+00  -1.26169040e+00
C     3.705078728775000e+00   1.998724624684188e+00   1.347322882400000e+01 -2.09735885e+00  -1.73175653e+00   1.49079157e+00
C     4.877752833675000e+00   2.671445546050281e+00   4.370101600000000e-02  2.75535241e+00   4.61321630e-01  -9.50615740e-01
C     5.025311776275000e+00   3.116077158625431e+00   3.551336447999999e+00  5.65790590e-01  -3.08066216e+00   1.22897645e+00
C     6.276804638250001e+00   3.685814091260902e+00   3.608765304000000e+00  1.85003215e+00   5.74360038e+00  -7.01442100e-01
C     6.121000640400000e+00   1.929574330227944e+00   8.042632000000001e-03  8.60196770e-01   1.29684996e+00  -2.62529030e-01
C     7.358160846150000e+00   2.730541924177267e+00   1.354589335200000e+01  7.61269430e-01  -2.75099094e+00   1.10331893e+00
C     7.561264890900000e+00   3.079893421929324e+00   3.567325831999999e+00 -3.16007353e+00  -7.54563180e-01  -1.90578330e-01
C     8.726046571125000e+00   3.837154581729870e+00   3.525608512000000e+00  2.23390535e+00  -1.45020094e+00   8.99195120e-01
C     2.437398951300000e+00   4.115213048430885e+00   1.352236195200000e+01 -2.14945660e-01   5.95742060e-01  -7.08837370e-01
C     3.680833851525000e+00   4.873215308950989e+00   1.346706816000000e+01  1.29097160e-01  -3.10326088e+00   1.18362845e+00
C     3.829504632375000e+00   5.225032958319775e+00   3.495451871999999e+00  1.02753195e+00   1.40612047e+00   5.77517960e-01
C     5.059447539975000e+00   5.966727993008384e+00   3.523408304000000e+00  7.21934940e-01  -7.42132920e-01   2.30908910e-01
C     4.903915863000000e+00   4.077490432613598e+00   6.084503999999999e-03  1.43293320e-01   2.61867272e+00  -7.20356780e-01
C     6.148096253175000e+00   4.853258744863129e+00   1.353336299200000e+01 -8.43919400e-01  -2.05378669e+00   9.09564310e-01
C     6.320342294024999e+00   5.246183019902425e+00   3.575074704000000e+00 -2.06383784e+00  -1.57016096e+00  -1.70781810e-01
C     7.505249762549999e+00   6.012425382840677e+00   3.554132880000000e+00  1.11810315e+00  -6.30786495e+00   5.70924780e-01
C     7.388223148050000e+00   4.188174965037664e+00   1.358944041600000e+01 -2.58460860e+00  -3.97000379e+00  -1.16524621e+00
C     8.552409604725000e+00   4.842061412335548e+00   1.341669389600000e+01  3.97434902e+00  -1.57633205e+00   1.51372375e+00
C     8.742164787074998e+00   5.225010287246950e+00   3.619121704000000e+00  4.92283270e-01   2.02019922e+00  -1.33680846e+00
C     1.002034028805000e+01   5.911611604971072e+00   3.516320120000000e+00 -2.04819320e+00   3.60506910e-01   3.30647400e-01
C     7.423807333425001e+00   1.411664302622574e-01   7.060777007999999e+00  1.02396250e-01   4.05960700e-01  -5.92435240e-01
C     1.281819313275000e+00   8.485224747313314e-01   6.992721520000000e+00 -2.41044748e+00   1.58337459e+00  -2.26582000e-02
C     1.088107990800000e+00   4.612469472522913e-01   9.895908896000000e+00  1.16574007e+00   1.06497586e+00   9.71460760e-01
C     2.351143227600000e+00   1.175921137177987e+00   9.997184832000000e+00 -1.13746007e+00   2.46426550e-01  -3.98834000e-03
C     2.466290254950000e+00   1.818531287448876e-01   6.845746048000000e+00  2.09532233e+00  -2.26805136e+00   3.00631200e-01
C     3.754208372625000e+00   8.356360832357539e-01   6.803550551999999e+00 -1.84545876e+00  -2.53723000e-03   3.66051180e-01
C     3.576974219400000e+00   4.893487026568141e-01   1.011234038400000e+01 -2.34186078e+00  -1.15838376e+00  -7.83834730e-01
C     4.734074158499999e+00   1.179541079890774e+00   9.986991767999999e+00  5.13634146e+00   1.64284155e+00   2.26284500e-01
C     4.972025365950000e+00   1.815940124718720e-01   6.917545479999999e+00  6.04122010e-01  -2.27614159e+00   2.84672270e-01
C     6.183208896375000e+00   9.167502358428414e-01   7.050783728000000e+00  5.18231310e-01  -3.69670151e+00  -9.00923050e-01
C     6.070534720049999e+00   4.481168097025620e-01   9.938713944000000e+00 -1.77394923e+00   2.30334587e+00   3.00217630e-01
C     7.277849297400000e+00   1.232638909893191e+00   9.887798536000000e+00 -6.14788150e-01  -1.95600911e+00  -1.90343760e-01
C     8.637810207600001e+00   2.300137882778736e+00   7.036156520000000e+00  7.19694530e-01  -1.40391506e+00  -1.37939516e+00
C     2.479541503350000e+00   2.975077367152691e+00   6.878927871999999e+00  4.18321500e-02  -1.36185040e+00   9.09968520e-01
C     2.349213539325000e+00   2.595604787450275e+00   9.949740552000000e+00 -5.90149300e-01   5.58191100e-02   2.72838100e-01
C     3.549515918850000e+00   3.335086958920517e+00   9.892182904000000e+00  1.51953985e+00   7.24964800e-02   5.72649620e-01
C     3.702539803425000e+00   2.211242748999485e+00   6.831708128000001e+00  1.37665068e+00   4.12755283e+00   4.68501500e-02
C     4.944844340925000e+00   3.030533949367525e+00   6.879580808000000e+00 -3.90069000e-01  -3.51015797e+00   3.83528900e-02
C     4.806256014000000e+00   2.654567060417673e+00   9.929204007999999e+00 -7.17020500e-01  -2.02015101e+00  -1.73822640e-01
C     6.083463620400000e+00   3.346560699217336e+00   9.894910928000000e+00 -2.65908877e+00  -3.06135468e+00  -1.92389420e-01
C     6.184279433550000e+00   2.269909913764693e+00   6.947942432000000e+00 -1.93630150e-01   3.15449859e+00  -3.65119900e-02
C     7.427000124675000e+00   2.978461953389122e+00   6.974264144000000e+00 -1.42194670e+00   2.02614476e+00  -1.48236310e-01
C     7.275115624724999e+00   2.652055118357245e+00   9.824274431999999e+00  1.02201961e+00  -1.89245461e+00   1.57652342e+00
C     8.499087735374999e+00   3.295548800042499e+00   9.985200647999999e+00  2.00484120e-01   2.47225404e+00  -6.44086410e-01
C     9.862007422049999e+00   4.352403832322146e+00   7.011478911999999e+00  1.35340435e+00   3.01771722e+00  -1.04864511e+00
C     3.752579402025000e+00   5.120431702351766e+00   6.985985303999999e+00 -3.18038944e+00   1.18997190e-01   1.94775200e-01
C     3.562132787175000e+00   4.774667101341938e+00   9.866416072000000e+00  1.01144523e+00  -2.46753152e+00   6.31568940e-01
C     4.774554943125000e+00   5.446634369643067e+00   9.925528608000000e+00  1.62966417e+00  -2.88454870e-01  -2.74496290e-01
C     4.946349482250000e+00   4.416209965721955e+00   6.940004656000000e+00  6.55730550e-01   6.55013630e-01  -4.55749760e-01
C     6.167293414350000e+00   5.148015929678622e+00   6.899451903999999e+00 -5.22217810e-01   7.12126340e-01  -3.14793820e-01
C     6.030809815350000e+00   4.670527912578528e+00   9.925323928000001e+00 -3.62246540e-01   6.32774303e+00   1.04212156e+00
C     7.232838076949999e+00   5.467064784769989e+00   1.008552104800000e+01  6.44453070e-01  -1.19246708e+00  -5.59348670e-01
C     7.371989976825001e+00   4.462486684720265e+00   6.903174496000000e+00  2.22997303e+00  -2.32856336e+00   2.72543530e-01
C     8.645201473124999e+00   5.117163737650966e+00   6.959431848000000e+00  3.94507800e-02   8.62941910e-01  -1.64556180e-01
C     8.451497989349999e+00   4.766975267439185e+00   1.003512176000000e+01  2.67407494e+00  -1.17211092e+00  -9.89773900e-02
C     9.790238170575000e+00   5.449365657535200e+00   9.956497032000000e+00 -4.56951796e+00   1.23525789e+00   4.30343260e-01
