72
Lattice="7.395 0 0 3.6975 6.40425786098592 0 0 0 13.6 " PBC="1 1 1" Properties=species:S:1:pos:R:3:force:R:3 Energy="-575.44921884"
C     3.688972196925000e+00   6.277571456759203e+00   1.349642892800000e+01 -2.49663460e-01  -1.52899519e+00   7.25942830e-01
C     1.125651703275000e+00   6.419984796026803e-01   1.355025596000000e+01  4.26402219e+00  -4.99921545e+00  -2.80304170e-01
C     1.366720605750000e+00   9.173141307474145e-01   3.667945704000000e+00 -1.11915101e+00  -5.46223600e-02  -1.35442100e-02
C     2.591787915900000e+00   1.631205079936832e+00   3.771574440000000e+00 -1.12236421e+00   1.07588351e+00   3.15641330e-01
C     6.058501539074999e+00   6.236052909223137e+00   1.342998517600000e+01  3.09018365e+00   1.31255211e+00  -6.19476000e-03
C     3.639772485450000e+00   6.121103845532676e-01   1.342772553600000e+01  1.20182785e+00  -1.39066503e+00   9.41507950e-01
C     3.767219468400000e+00   8.757488321289709e-01   3.709852880000000e+00  2.35227119e+00   4.18728345e+00  -1.09776101e+00
C     4.985624549100000e+00   1.672000202505033e+00   3.495779360000000e+00  2.22549840e+00  -1.52860411e+00   1.61500129e+00
C     8.679923105700000e+00   6.243530072402423e+00   1.332579272000000e+01 -3.26885210e+00   1.02349318e+00   1.49784382e+00
C     6.229603166700000e+00   5.861140929627984e-01   1.340356459200000e+01 -4.52193376e+00   1.30120940e-01  -3.82176980e-01
C     6.300155460000000e+00   9.764010946153464e-01   3.465840184000000e+00 -2.09590354e+00  -1.73901614e+00   1.01309820e-01
C     7.517725386374999e+00   1.655081113877592e+00   3.652038872000000e+00  3.03156810e-01  -3.02871920e-01  -3.79781620e-01
C     1.217704330500000e+00   1.974241595183458e+00   1.359900638400000e+01 -4.86309630e-01   3.43396859e+00  -8.74559100e-02
C     2.446676496450000e+00   2.718466439811923e+00   7.399746400000000e-02 -2.05135010e-01  -7.12593420e-01   3.70831560e-01
C     2.617037847600000e+00   3.110031218992698e+00   3.818930184000000e+00 -1.97703546e+00  -1.52778301e+00  -1.65877510e+00
C     3.839340869775000e+00   3.779387791577198e+00   3.461212648000000e+00 -2.20532496e+00  -1.20254640e+00   2.45426653e+00
C     3.688452661200000e+00   2.088077278644958e+00   1.186474880000000e-01 -6.92699170e-01  -4.64095693e+00  -2.95985855e+00
C     4.870929689024999e+00   2.725562549648539e+00   1.333683687200000e+01  1.92146967e+00  -2.16474376e+00   1.40787498e+00
C     5.057542994699999e+00   3.102342651261454e+00   3.609157528000000e+00 -1.34993901e+00  -2.90034339e+00  -1.86196601e+00
C     6.271069187175000e+00   3.722799000615295e+00   3.549850511999999e+00  8.74601940e-01   4.25427857e+00   6.05624850e-01
C     6.144708936450000e+00   2.020812205574963e+00   1.331205223200000e+01  6.51953010e-01  -1.03427946e+00   6.21681260e-01
C     7.397720287725000e+00   2.700904107525024e+00   1.343668018400000e+01 -9.02365940e-01  -1.91231700e-01  -1.31261604e+00
C     7.478841256200000e+00   3.078453360506924e+00   3.713510464000000e+00  5.55031550e-01  -1.50443792e+00   1.90829700e-01
C     8.667000343200000e+00   3.811948767687060e+00   3.823561800000000e+00  4.21164558e+00  -1.29227493e+00  -1.77300584e+00
C     2.459789236500000e+00   4.098263411493451e+00   2.216840800000000e-02 -9.56517290e-01   2.29730765e+00   1.84077850e-01
C     3.700196401875000e+00   4.827418589079286e+00   3.139192800000000e-02 -3.67671800e-02   3.25191800e-02  -1.64079779e+00
C     3.801086978475000e+00   5.140465245619104e+00   3.440440144000000e+00  8.65667270e-01   3.58909643e+00  -4.03092860e-01
C     5.047949461200000e+00   5.874844120171026e+00   3.515919464000000e+00 -3.99622500e-02   1.66619653e+00   3.81899300e-01
C     4.920022579725000e+00   4.073301471589951e+00   1.337023983200000e+01 -2.44784470e-01   3.67812592e+00   5.98161390e-01
C     6.169442216475000e+00   4.778574851402953e+00   1.327067817600000e+01 -1.45817032e+00   2.10736917e+00  -1.22393460e-01
C     6.301557847800000e+00   5.243058958875738e+00   3.572408152000000e+00 -1.71414469e+00  -3.56982075e+00   1.57222750e-01
C     7.494415643849999e+00   5.929051808060581e+00   3.675758903999999e+00  1.52820428e+00  -2.45485335e+00  -1.52593852e+00
C     7.419033750000000e+00   4.091985317513294e+00   1.318719444000000e+01 -1.45992146e+00   7.13543390e-01   2.53120684e+00
C     8.571349678724999e+00   4.803197685852767e+00   1.349974256800000e+01  3.38157483e+00   1.94581003e+00  -1.79952084e+00
C     8.736231371850000e+00   5.157903591473834e+00   3.480912656000000e+00 -1.89454050e-01   2.90990479e+00   1.82179912e+00
C     9.993449257949999e+00   5.893641001245598e+00   3.400699312000000e+00 -1.12865962e+00   3.49679750e-01   4.52937180e-01
C     7.411075583774999e+00   9.274050636871022e-02   6.819033336000000e+00  5.55316530e-01   2.65088940e+00   2.96123380e-01
C     1.262017795725000e+00   8.166147969657679e-01   6.963580663999999e+00 -1.04765487e+00   1.74259365e+00  -2.57430860e-01
C     1.109098809225000e+00   5.135199728849190e-01   1.000384380000000e+01 -5.44580000e-02   4.53011090e-01  -9.90280750e-01
C     2.371960781175000e+00   1.247272831231027e+00   1.013648473600000e+01 -1.03589606e+00  -2.27873370e+00  -6.82024960e-01
C     2.458421568225000e+00   1.018748993544282e-01   7.010290135999999e+00  2.53171154e+00   5.98030880e-01  -5.65567500e-01
C     3.770498707199999e+00   8.446780627805520e-01   7.020646807999999e+00 -2.86653587e+00  -2.60871990e-01   2.48029200e-02
C     3.616851830850000e+00   5.309355195816672e-01   9.982984119999999e+00 -4.42247914e+00  -2.59901156e+00   1.06497023e+00
C     4.766423179274999e+00   1.152644157517453e+00   1.005081507200000e+01  5.60498824e+00   3.69470865e+00  -1.49551651e+00
C     4.980614251725000e+00   1.370385018160158e-01   6.900287896000000e+00 -7.96734970e-01  -7.40530050e-01  -4.45160910e-01
C     6.173275747500000e+00   8.449168135135727e-01   6.805873840000000e+00  1.68658285e+00  -1.03990207e+00   8.13050800e-01
C     6.068619119249999e+00   4.774869924188364e-01   9.838027840000001e+00 -2.05556721e+00   2.79766834e+00   8.28715070e-01
C     7.247973386475000e+00   1.212460694440796e+00   9.841931039999999e+00  1.91697558e+00   4.00571000e-03   1.66832610e+00
C     8.638757174324999e+00   2.336599692351125e+00   7.017036960000000e+00  2.13246069e+00  -3.89220226e+00   6.83693300e-01
C     2.467219473675000e+00   3.045035110439923e+00   7.181797288000000e+00  1.16336764e+00  -4.13998431e+00  -2.03753659e+00
C     2.350710287325000e+00   2.632429142060118e+00   1.020313888000000e+01 -1.05942143e+00   5.16484550e-01  -8.36350750e-01
C     3.573945634125000e+00   3.317821143772536e+00   1.018533484800000e+01  6.93326930e-01   2.10632259e+00  -1.35105391e+00
C     3.716155810200000e+00   2.267879764023073e+00   7.084666768000001e+00  6.76751280e-01   8.93594790e-01   1.06085150e-01
C     4.969364349150000e+00   3.012636930564862e+00   7.023798200000000e+00 -7.71573760e-01  -3.18948581e+00  -3.79938790e-01
C     4.795952856300000e+00   2.601948525073498e+00   1.000108884800000e+01  1.72742780e-01   9.55047910e-01   8.32764680e-01
C     6.057568992600000e+00   3.368446866198414e+00   9.849821896000000e+00 -1.42534694e+00  -2.53744098e+00   1.38806064e+00
C     6.220740739875000e+00   2.212080425927572e+00   6.976881736000000e+00 -1.07207032e+00   3.58827968e+00  -5.59203090e-01
C     7.452113914424999e+00   2.970874188676595e+00   7.012586767999999e+00 -2.72559454e+00   1.78447909e+00  -6.83038030e-01
C     7.259744969325000e+00   2.616818251185739e+00   9.958310592000000e+00  5.16755150e-01   1.11811553e+00  -1.08176439e+00
C     8.488034761649999e+00   3.321642628480176e+00   9.963603440000000e+00  8.37754740e-01   1.53911189e+00   1.58072505e+00
C     9.873688342199999e+00   4.366982228744336e+00   6.903706936000000e+00  1.01130221e+00   3.27366087e+00   8.49011320e-01
C     3.717769768950000e+00   5.126461631339849e+00   6.889935984000000e+00 -1.02834493e+00  -1.97385559e+00  -5.19107220e-01
C     3.532413687225000e+00   4.811675770492992e+00   9.993730840000000e+00  2.70774990e+00  -3.00010925e+00   1.03149500e-01
C     4.739041416975000e+00   5.500798252408860e+00   9.877565623999999e+00  3.69469647e+00  -7.99404920e-01   1.29631522e+00
C     4.905815120849999e+00   4.396454239160584e+00   6.927811304000000e+00  2.93189143e+00   5.24923060e-01   2.35703160e-01
C     6.196016296874999e+00   5.074243169984189e+00   6.928814440000001e+00 -2.32366403e+00   2.16241667e+00   2.36641520e-01
C     6.052617115725000e+00   4.731849642226708e+00   9.900644143999999e+00 -5.97973770e-01   3.66457800e+00  -2.15231720e-01
C     7.328795633924999e+00   5.498133568798471e+00   9.903141240000000e+00 -3.07300641e+00  -6.12774470e-01   3.43700030e-01
C     7.416778755675001e+00   4.451455606726729e+00   6.975843920000000e+00  1.51438423e+00  -3.14248901e+00  -2.33391410e-01
C     8.683585368524998e+00   5.103303002364568e+00   6.902432751999999e+00 -1.80345627e+00   1.05078215e+00  -6.24489800e-02
C     8.507261872575000e+00   4.798987142480131e+00   9.946377135999999e+00  1.63748965e+00  -1.43727755e+00  -2.02891460e-01
C     9.793369805175001e+00   5.542423494880873e+00   9.900347800000000e+00 -3.85627807e+00  -3.41779475e+00   5.77517760e-01
