64
Lattice="9.86 0 0 4.93 8.53901048131456 0 0 0 30 " PBC="1 1 1" Properties=species:S:1:pos:R:3:force:R:3 Energy="-515.88158733"
C     9.833733551599998e+00   5.658592185438192e-01  -2.627969999999991e-02 -1.43137880e+00   5.56150040e-01  -1.58583010e-01
C     1.163542956100000e+00   1.337076088774826e+00  -5.267399999999967e-02  1.35461895e+00  -1.99518617e+00  -3.98243880e-01
C     1.296600106500000e+00   1.096068239113848e-01   3.563820600000000e+00 -8.22429180e-01   5.98593630e-01   2.05833900e-01
C     2.493688360200000e+00   8.574472990523440e-01   3.552810900000000e+00  1.10576055e+00  -2.42243030e-01  -4.14180750e-01
C     2.412297609800000e+00   6.247968351184561e-01  -5.913749999999851e-02  1.44601100e-02  -1.88715182e+00   1.39461850e-01
C     3.652374181700000e+00   1.265925808631484e+00  -1.226165999999971e-01  4.69386600e-01   1.51742747e+00   3.48102200e-01
C     3.727880533400000e+00   1.525562534335840e-01   3.568130400000000e+00  7.98789570e-01   4.87663800e-02  -6.69919410e-01
C     4.981793347500000e+00   8.449850402073080e-01   3.493211700000000e+00 -2.71372630e-01  -2.16347920e-01   5.92477200e-02
C     4.897454950099999e+00   5.498952822811448e-01  -3.438779999999753e-02 -8.72865380e-01   1.91220647e+00  -2.24882050e-01
C     6.108815504499999e+00   1.284431381363530e+00   3.582720000000000e-02  8.84871440e-01   1.00967410e-01  -8.07757780e-01
C     6.218301437499999e+00   1.173515356365352e-01   3.466406700000000e+00 -5.24721660e-01   3.42281150e-01   3.15288580e-01
C     7.441162252200000e+00   8.385163128181841e-01   3.504963000000000e+00 -5.56290400e-01   1.21802425e+00   3.94122300e-01
C     7.342175592299999e+00   5.810274898099672e-01  -5.314709999999678e-02  3.19154610e-01  -1.22962048e+00   1.30974580e-01
C     8.565832306199999e+00   1.262615661218912e+00  -2.169990000000155e-02  1.14724813e+00   1.07626996e+00  -1.04750930e-01
C     8.663936249599999e+00   1.574038496830800e-01   3.555578100000000e+00  8.79343660e-01  -1.60395812e+00  -3.28808000e-01
C     9.932834094499999e+00   7.986448550136056e-01   3.554924700000000e+00 -1.33860992e+00   2.81920383e+00  -2.59636140e-01
C     1.107413279200000e+01   2.720773637748566e+00  -1.865820000000014e-01 -1.67087729e+00   6.96945790e-01   4.84577610e-01
C     2.427326764100000e+00   3.408954779149119e+00  -2.408019000000010e-01  6.59535530e-01   1.23316341e+00  -8.21551300e-02
C     2.520119717100000e+00   2.275009538908507e+00   3.406008600000000e+00 -1.87655580e+00  -1.28044492e+00   6.27905480e-01
C     3.713198303200000e+00   2.971590163357816e+00   3.367271400000000e+00  1.97229707e+00   6.63491190e-01   6.57142420e-01
C     3.652185510600000e+00   2.714320195188201e+00  -1.843262999999986e-01  6.68909750e-01  -1.38259582e+00   5.04521600e-02
C     4.892132719299999e+00   3.395402003275682e+00  -1.258473000000002e-01  2.98396900e-01   1.12639732e+00   7.14082500e-01
C     4.965587303600000e+00   2.253444694891790e+00   3.457208700000000e+00  2.25906910e-01   8.58080380e-01  -1.42950450e-01
C     6.211296745599999e+00   2.981459551670600e+00   3.495909600000000e+00 -1.41955585e+00   1.46833770e-01   1.48314310e-01
C     6.154922590000000e+00   2.716596012261331e+00   4.310700000000000e-03 -1.60202998e+00  -3.18398800e-01  -2.48075980e-01
C     7.360417627599999e+00   3.454479232671667e+00  -2.256299999999101e-03  4.86322670e-01  -7.91772230e-01   3.80470470e-01
C     7.428935901499999e+00   2.288689716818305e+00   3.563403600000000e+00 -1.15222370e-01  -1.43410993e+00  -8.79365070e-01
C     8.644208657400000e+00   2.985443512400149e+00   3.464222100000000e+00  1.49122156e+00  -7.48002630e-01   6.01366000e-01
C     8.588827601000000e+00   2.697893017606988e+00  -1.977540000000033e-02  4.97023550e-01   8.78761790e-01  -1.69266650e-01
C     9.837267819299999e+00   3.431052030469263e+00  -1.195589999999989e-01 -9.75122580e-01  -5.28486800e-02   7.66619000e-02
C     9.900929451600000e+00   2.292425790073619e+00   3.478711200000000e+00 -1.00125459e+00  -3.28796043e+00   2.44652710e-01
C     1.111446615730000e+01   2.934261110533553e+00   3.440902500000000e+00  1.09647164e+00   2.71253523e+00  -5.69393400e-01
C     1.229268705450000e+01   4.844752161275427e+00  -2.666108999999999e-01 -1.81732549e+00   1.99005040e-01   5.97797400e-01
C     3.628192186600000e+00   5.559078386524062e+00  -1.569882000000007e-01  1.15102712e+00  -1.46281139e+00   2.57686000e-03
C     3.727922537000000e+00   4.406099691923529e+00   3.412946700000000e+00  7.26541960e-01  -3.09075280e-01  -5.80572600e-01
C     4.974916589099999e+00   5.125567255382174e+00   3.483918900000000e+00 -7.57034040e-01  -4.19835890e-01  -6.19698000e-02
C     4.863797100599999e+00   4.826100315293857e+00  -5.465399999999931e-02  5.20260250e-01   5.48401020e-01  -5.30241530e-01
C     6.097006281100000e+00   5.564119220580721e+00   1.252230000000000e-02  3.75444580e-01   2.04936210e-01   8.34538100e-02
C     6.181587727500000e+00   4.407777863653164e+00   3.511318200000000e+00  1.49687273e+00  -1.49473720e-01   1.25586720e-01
C     7.454391069100000e+00   5.100519434380771e+00   3.550596000000000e+00 -1.00581284e+00   2.51419510e-01  -1.25785390e-01
C     7.339046619900000e+00   4.879907779762216e+00   3.877050000000000e-02  8.57143350e-01  -4.86955530e-01  -5.47868720e-01
C     8.609702798600001e+00   5.574254940630375e+00  -3.590909999999781e-02 -2.09476770e+00   2.93255980e-01   2.25865930e-01
C     8.674942129500000e+00   4.376935128579613e+00   3.468559800000000e+00 -5.70921290e-01   1.61464423e+00  -2.51700580e-01
C     9.880564656899999e+00   5.124942712155667e+00   3.361244700000000e+00  1.04242370e+00  -1.15299740e+00   5.45304210e-01
C     9.802137477399999e+00   4.868687263821180e+00  -1.233815999999983e-01  1.20676417e+00  -9.93197450e-01  -8.10167300e-02
C     1.103236829700000e+01   5.590462324081835e+00  -1.872696000000005e-01  7.84669240e-01  -1.36578652e+00  -1.30412350e-01
C     1.111086005950000e+01   4.379451062627441e+00   3.373372800000000e+00  6.28004290e-01   5.35243680e-01  -4.51386510e-01
C     1.237337656170000e+01   5.101479048378512e+00   3.318749700000000e+00 -1.37090942e+00   9.29298300e-02   6.42299930e-01
C     1.349432998730000e+01   6.949313914261919e+00  -1.151939999999989e-01  2.30506908e+00   1.57737413e+00  -2.05877570e-01
C     4.904137663699999e+00   7.687451938744979e+00  -5.743740000000130e-02 -3.07512930e-01  -1.84600310e-01   2.87549720e-01
C     4.990813522000000e+00   6.544023358855382e+00   3.521504400000000e+00 -2.15718995e+00   2.77925100e-02   1.00220020e-01
C     6.186338078299999e+00   7.240552578461602e+00   3.586998000000000e+00  2.50699908e+00  -5.10831740e-01   1.00731530e-01
C     6.146640535100000e+00   7.003318032141631e+00   1.052100000000000e-03 -5.63772730e-01  -7.83648610e-01   3.72722400e-02
C     7.393259759299999e+00   7.705257654178084e+00   1.353480000000000e-02 -1.86536682e+00   1.02526921e+00  -2.83712160e-01
C     7.452954368499999e+00   6.521120793456870e+00   3.603168000000000e+00  5.26602600e-02   9.51922260e-01  -7.37950970e-01
C     8.696264280899999e+00   7.286925895015967e+00   3.498473700000000e+00 -1.25363381e+00  -1.80349097e+00   6.41029960e-01
C     8.599309520500000e+00   6.998781938994446e+00  -3.154410000000141e-02  1.44752290e-01  -4.45380070e-01  -1.80028500e-02
C     9.815036230800001e+00   7.704546610775415e+00  -8.152739999999881e-02  4.76303980e-01  -6.68609830e-01   3.47944820e-01
C     9.920775807500000e+00   6.543142901484789e+00   3.404769000000000e+00 -1.73767885e+00  -2.11149200e-02   1.75091360e-01
C     1.112396321070000e+01   7.228491567719022e+00   3.441022500000000e+00  1.29817997e+00   8.64677300e-01  -5.87353220e-01
C     1.102852314350000e+01   6.992534969707487e+00  -1.205420999999980e-01  1.94787529e+00   9.02122200e-02  -5.37575770e-01
C     1.232556625980000e+01   7.677675198695902e+00  -1.698845999999996e-01 -3.22267268e+00   1.01446779e+00   8.93643890e-01
C     1.235585834900000e+01   6.531233287398019e+00   3.370053600000000e+00  7.62955050e-01   1.57897100e-02   5.48603960e-01
C     1.358435109710000e+01   7.263200766737916e+00   3.503836500000000e+00  4.19205190e-01  -5.78431650e-01  -3.71559920e-01
