64
Lattice="9.86 0 0 4.93 8.53901048131456 0 0 0 30 " PBC="1 1 1" Properties=species:S:1:pos:R:3:force:R:3 Energy="-511.85851515"
C     5.017940008899999e+00   8.259883462875043e+00  -7.043405999999983e-01 -2.18455481e+00  -1.44991678e+00   4.35715680e-01
C     1.280767953800000e+00   4.339712984166560e-01  -6.832616999999992e-01  1.21861229e+00  -2.93771726e+00  -8.02734260e-01
C     9.817907216299998e+00   2.713343161609080e-01   4.011178500000000e+00 -6.84412900e-02   3.87757999e+00   1.25510159e+00
C     1.184986927800000e+00   1.085949340914838e+00   4.105191899999999e+00  7.14708200e-02  -2.75537757e+00  -3.59754010e-01
C     7.401855312900000e+00   8.143707834371709e+00  -7.609470000000016e-01  2.31678054e+00   4.23386669e+00   7.72719610e-01
C     3.766374860800000e+00   3.458290705389520e-01  -6.844752000000014e-01 -1.50392858e+00   2.16670200e-01  -7.34086420e-01
C     2.445463741100000e+00   3.570999666418184e-01   4.055549400000000e+00 -9.66805290e-01   3.72955500e-02   6.19085200e-02
C     3.670551880500000e+00   1.091670904886962e+00   4.030343100000000e+00 -2.05703804e+00   1.37690050e-01   1.88690150e-01
C     9.929694818400000e+00   8.220326069875920e+00  -7.114007999999998e-01 -3.13234790e-01  -1.06047554e+00   6.98280130e-01
C     6.239864665900000e+00   3.836108616988648e-01  -6.749514000000012e-01 -9.54916140e-01  -1.53951626e+00   3.40149070e-01
C     4.862704661900001e+00   3.544264024605304e-01   3.956447700000000e+00  4.42473480e-01  -1.25350220e-01   5.13803320e-01
C     6.084485165700000e+00   1.060553555236375e+00   4.024114800000000e+00  4.05275100e-01  -1.27498012e+00  -1.53973780e-01
C     1.237986039910000e+01   8.150553388293316e+00  -6.042888000000026e-01  1.02710065e+00   1.98240633e+00  -9.60304630e-01
C     8.663428262399998e+00   3.532214626916976e-01  -7.360526999999983e-01  1.26188008e+00   1.27970750e+00   6.31316660e-01
C     7.302387238500000e+00   3.884430877294968e-01   4.072159200000000e+00  9.51872700e-01  -1.94924785e+00   2.75306410e-01
C     8.571720106599999e+00   1.055763768087829e+00   4.072378200000000e+00 -8.24445400e-02  -1.57718813e+00   2.42310260e-01
C     1.314009070400000e+00   1.811682915653811e+00  -6.567062999999997e-01 -7.43939500e-02   3.82855220e-01   7.07570600e-01
C     2.537880781600000e+00   2.493261437980913e+00  -5.864535000000011e-01  4.57320250e-01  -3.21778960e-01  -5.86281960e-01
C     1.103239906020000e+01   2.478263178413422e+00   4.185708000000000e+00 -1.74219057e+00   1.08563030e+00  -3.77219100e-01
C     2.388722941400000e+00   3.193491208558851e+00   4.111774200000000e+00  2.68273100e-02   1.07630695e+00   2.08412840e-01
C     3.763642950600000e+00   1.756480774603755e+00  -6.866258999999992e-01  1.04052658e+00   1.96586731e+00   8.57111030e-01
C     5.058389722200000e+00   2.537586758261755e+00  -6.549800999999995e-01 -4.19645346e+00  -1.90824945e+00   2.56280130e-01
C     3.582156635400000e+00   2.556010527273403e+00   4.092015600000000e+00  4.09449607e+00  -3.64452683e+00  -5.85578390e-01
C     4.894705587700000e+00   3.194940364027412e+00   4.030051800000000e+00 -2.20470095e+00  -1.74170000e-03   7.20214100e-02
C     6.210004592600000e+00   1.798313899285904e+00  -6.356196000000018e-01  1.93107872e+00  -8.44898710e-01  -8.17338950e-01
C     7.442237682400000e+00   2.462340997911995e+00  -6.982347000000004e-01  1.69423668e+00   2.71737931e+00   2.72452870e-01
C     6.124413728700000e+00   2.429669462963943e+00   4.027502100000000e+00 -3.61227664e+00   2.22707761e+00  -1.21342700e-01
C     7.252158130700000e+00   3.164779041990166e+00   4.061448000000000e+00  4.82321275e+00   9.86925530e-01   5.06976800e-01
C     8.693044399300000e+00   1.817789588998583e+00  -7.605344999999986e-01 -3.15930390e-01  -2.50649651e+00   1.18449117e+00
C     9.942239745700000e+00   2.486333824168594e+00  -5.802878999999983e-01 -1.44613994e+00   1.51339988e+00  -1.71585074e+00
C     8.539443988200000e+00   2.454891052828614e+00   4.176424200000000e+00 -2.55141050e-01   1.07573530e+00  -8.51087630e-01
C     9.751685878699998e+00   3.190654293107081e+00   4.196840699999999e+00  6.43322590e-01  -5.87825180e-01  -3.57673500e-01
C     2.499936001300000e+00   3.910231070509764e+00  -5.397725999999992e-01  7.31173930e-01  -5.12765100e-01  -2.22986860e-01
C     3.699991326199999e+00   4.588630433845057e+00  -5.397861000000006e-01  4.53667037e+00   2.60157690e+00  -1.56305850e-01
C     1.232850103950000e+01   4.619467277001377e+00   4.064615099999999e+00 -4.03668294e+00  -1.83071003e+00   6.99176340e-01
C     3.590613015100000e+00   5.358092537422425e+00   4.029399600000001e+00  3.85050821e+00   1.20013366e+00  -1.25009100e-01
C     4.995659021800000e+00   3.935635907539336e+00  -6.213824999999993e-01 -1.20621691e+00  -6.32770240e-01  -5.04535650e-01
C     6.206640163399999e+00   4.617683221541791e+00  -7.941209999999970e-01  9.37702230e-01   1.39535315e+00   1.53297435e+00
C     4.842575718400000e+00   4.593112902006429e+00   4.010624100000000e+00  1.91099269e+00   2.18689623e+00  -5.79224200e-01
C     6.154983179700000e+00   5.322057913196825e+00   3.919707000000000e+00 -3.31662401e+00   1.11098560e-01   1.01832384e+00
C     7.484203617199999e+00   3.917258078404071e+00  -6.599003999999979e-01 -3.15267843e+00  -4.02334530e-01  -8.72684400e-01
C     8.635214611900000e+00   4.679089380656090e+00  -6.143145000000025e-01  3.39587389e+00  -2.82008572e+00  -3.98206400e-01
C     7.325036743100000e+00   4.610022448289659e+00   4.022577600000000e+00  7.12601410e-01  -1.23418330e+00  -4.23091520e-01
C     8.574339612799999e+00   5.315156257976365e+00   4.014992700000000e+00 -1.71035764e+00   1.22302024e+00   5.26989180e-01
C     9.906900519699999e+00   3.913795765824745e+00  -6.601952999999980e-01  4.57866120e-01   1.03910865e+00   1.18889092e+00
C     1.117678697750000e+01   4.616869880793571e+00  -6.145196999999989e-01 -3.42843999e+00   2.36595946e+00   3.61946050e-01
C     9.738560936900001e+00   4.614197682853959e+00   4.094773800000000e+00  3.69144989e+00  -1.97011696e+00   5.07869640e-01
C     1.106182435680000e+01   5.213198765043068e+00   4.124655000000001e+00 -1.87728493e+00   4.58603999e+00  -1.28292092e+00
C     3.869095897100000e+00   6.054926172752257e+00  -5.362283999999988e-01 -4.96438240e+00  -1.09538303e+00  -2.38524380e-01
C     5.022526880899999e+00   6.811313428872753e+00  -6.148425000000017e-01  9.08237630e-01  -4.11434000e-03  -8.67822590e-01
C     1.346983907840000e+01   6.845261545887564e+00   4.041998700000001e+00  3.82923710e-01  -4.52357855e+00   6.94995530e-01
C     4.878979627200001e+00   7.420523410431332e+00   4.067765400000000e+00  6.77051630e-01   1.12504787e+00  -9.10662980e-01
C     6.191884131100000e+00   6.057865300159473e+00  -7.785104999999994e-01  2.72432264e+00   1.86474500e-02   3.65420890e-01
C     7.476906822799999e+00   6.790739110071716e+00  -7.776941999999991e-01 -1.93620394e+00  -2.96378248e+00   4.03706290e-01
C     6.139929621899999e+00   6.742614186297589e+00   3.992715000000000e+00 -1.50519340e+00  -1.14164015e+00   5.93744000e-03
C     7.338037892599999e+00   7.433481358834731e+00   4.034348100000001e+00  8.20174240e-01   2.45808236e+00  -4.62781400e-02
C     8.709009267599999e+00   6.054720638770003e+00  -6.295256999999985e-01 -2.63773252e+00   1.45051465e+00  -7.32417770e-01
C     9.875883079599999e+00   6.775548039647587e+00  -6.213909000000015e-01  2.88958671e+00   1.50698661e+00  -2.70429060e-01
C     8.567638066600001e+00   6.754751621183967e+00   4.050456900000000e+00  2.78446940e-01  -8.61597340e-01  -9.07566670e-01
C     9.784372074499998e+00   7.472383468169620e+00   3.969174300000000e+00  1.41993184e+00  -1.40517436e+00   2.14632710e-01
C     1.112054253020000e+01   6.124845725315117e+00  -5.865951000000003e-01  2.88828898e+00  -3.66591517e+00  -3.99258400e-02
C     1.245350582370000e+01   6.750455901181793e+00  -5.788404000000007e-01 -2.10972319e+00  -1.62658900e-02   4.11892680e-01
C     1.105800439560000e+01   6.692643811578525e+00   3.985749000000000e+00 -1.78941859e+00   3.11650110e-01   1.43498949e+00
C     1.223494990180000e+01   7.473580893609230e+00   4.154102100000000e+00 -1.47460100e-02   1.13095421e+00  -1.80729148e+00
