64
Lattice="9.86 0 0 4.93 8.53901048131456 0 0 0 30 " PBC="1 1 1" Properties=species:S:1:pos:R:3:force:R:3 Energy="-512.36158435"
C     5.086684274000000e+00   8.071654895430527e+00  -3.549060000000281e-02 -3.13010820e+00  -3.78972930e+00  -5.27059000e-03
C     1.333737599300000e+00   1.630343878034872e-01  -3.402510000000092e-02  2.60258287e+00   4.57933319e+00   5.13922070e-01
C     9.727839419399999e+00   5.270130397275744e-01   3.559919700000000e+00  1.86934317e+00   2.01016597e+00  -3.75797080e-01
C     1.159082587900000e+00   1.241136378087206e+00   3.542838900000000e+00 -8.57466880e-01   1.17951010e-01   5.25164590e-01
C     7.536858531500000e+00   8.054269555483351e+00  -8.122410000000002e-02 -3.03323664e+00  -2.69599568e+00   2.33852420e-01
C     3.773798405500000e+00   1.904008917106296e-01  -1.845294000000024e-01  2.48865767e+00   1.31820426e+00   1.27866097e+00
C     2.416859437400000e+00   4.958265240920992e-01   3.511601100000000e+00 -1.28891281e+00   3.06672546e+00  -1.37170860e+00
C     3.652712724800000e+00   1.219099497571155e+00   3.259702500000000e+00 -1.40485892e+00  -1.19701865e+00   1.84014073e+00
C     9.929952657399999e+00   8.020093446888723e+00  -6.140880000000237e-02  8.31601630e-01  -1.92504170e+00  -4.89410330e-01
C     6.247922405800000e+00   1.601464090690464e-01  -7.393800000000184e-02 -3.59302620e-01   2.75090700e-02   5.68572010e-01
C     4.872561063000000e+00   5.027658363487760e-01   3.293959200000000e+00 -6.50714050e-01   4.84769030e-01   2.58119630e-01
C     6.081335635199999e+00   1.258817167796989e+00   3.409411200000000e+00 -1.44751781e+00  -1.20561989e+00  -6.12697500e-02
C     1.240433272190000e+01   8.016892257249875e+00  -7.505550000000127e-02  1.39797918e+00   5.00770700e-02   1.87181010e-01
C     8.729812980199998e+00   2.311916593834848e-01  -5.594340000000031e-02  2.14837790e-01  -3.52439497e+00   1.15398120e-01
C     7.274644255100000e+00   5.276760938913464e-01   3.490095300000000e+00 -7.99743760e-01   2.80312870e-01  -5.55390990e-01
C     8.444337386199999e+00   1.224216414211190e+00   3.555851700000000e+00  3.86434101e+00  -9.30281110e-01  -1.87622200e-02
C     1.329413397700000e+00   1.681770324820987e+00   6.318270000000001e-02  1.38469660e+00  -2.50715669e+00  -2.63319737e+00
C     2.579608893200000e+00   2.395187145453503e+00  -1.312277999999978e-01 -1.27489111e+00  -3.66981013e+00   1.47989654e+00
C     1.101609875470000e+01   2.709672667954252e+00   3.580052100000000e+00 -1.63448291e+00  -3.94133843e+00   2.33764670e-01
C     2.356868633800000e+00   3.341000736018546e+00   3.525674100000000e+00  1.57760086e+00   9.18057090e-01  -7.07866220e-01
C     3.796747604800000e+00   1.616236066480235e+00  -9.825179999999989e-02 -1.61241038e+00   5.49175380e-01  -6.29926070e-01
C     4.972146274200000e+00   2.321007395172066e+00  -3.494879999999867e-02  4.03672216e+00  -1.17467808e+00   2.14706890e-01
C     3.592253817700000e+00   2.598117327241436e+00   3.414308400000000e+00  2.23506560e-01   2.61193233e+00  -5.17787400e-02
C     4.791158086199999e+00   3.375907527739947e+00   3.466557600000000e+00  9.29100660e-01  -7.52865320e-01  -9.53346050e-01
C     6.266601239100000e+00   1.546042753241386e+00   3.333120000000000e-02 -9.79246840e-01   3.41930918e+00  -9.56442830e-01
C     7.482896969999999e+00   2.312559581323992e+00  -7.962599999999043e-03 -2.79489220e-01   1.22371808e+00  -6.78111160e-01
C     6.036613436000000e+00   2.667264953256904e+00   3.449748300000000e+00  2.85757140e-01  -1.57278910e-01   1.75001920e-01
C     7.297830192999999e+00   3.318534941006085e+00   3.485443800000000e+00 -1.12077676e+00   1.51624767e+00  -1.02519847e+00
C     8.738176873100000e+00   1.584106758697663e+00  -6.517859999999942e-02 -1.13577079e+00   3.14840763e+00  -6.18292700e-02
C     9.966195848200000e+00   2.324638011647952e+00  -1.290471000000011e-01 -7.63973420e-01  -2.53051960e-01   1.62907503e+00
C     8.486888216200001e+00   2.593248127295426e+00   3.512528100000000e+00  1.89295070e+00   2.88833828e+00   9.81437750e-01
C     9.773369596299998e+00   3.371468693922129e+00   3.629079000000000e+00 -1.19884469e+00  -2.85951706e+00  -1.28035411e+00
C     2.552007548700000e+00   3.758167859541295e+00  -6.592050000000071e-02  1.27710511e+00   1.01530751e+00  -2.23881680e-01
C     3.799399895499999e+00   4.437740739086855e+00   9.475800000000000e-03 -1.33427600e-02   2.57436510e-01  -8.11250960e-01
C     1.217263731470000e+01   4.758849374286207e+00   3.449694900000000e+00  3.51101556e+00   1.23861608e+00   4.55821780e-01
C     3.603726519299999e+00   5.507270929090330e+00   3.409152600000000e+00 -1.01193408e+00   1.31384712e+00   1.45399430e-01
C     5.044239093900000e+00   3.725039402142458e+00  -3.369479999999925e-02 -2.00499057e+00   9.58036760e-01   4.18526650e-01
C     6.206873944000000e+00   4.505447663254138e+00  -4.401060000000001e-02  1.43727730e+00  -1.82880822e+00  -2.30336220e-01
C     4.838853272600000e+00   4.797446470166750e+00   3.384213000000000e+00 -4.16359040e-01   2.13516800e-02   7.61311350e-01
C     6.101131951599999e+00   5.477142311463222e+00   3.401773200000000e+00 -1.37359927e+00   2.11653351e+00  -7.67120080e-01
C     7.431723520699999e+00   3.841128103519106e+00  -1.156718999999988e-01  1.90926245e+00  -3.33345763e+00   1.02786467e+00
C     8.690173709600000e+00   4.535722212570349e+00  -7.716839999999792e-02  5.12544440e-01  -3.72831373e+00  -1.61478700e-02
C     7.315004587499999e+00   4.760592357105385e+00   3.320496000000000e+00 -5.47729790e-01  -1.54164536e+00   1.61238892e+00
C     8.537160658700000e+00   5.388056779097793e+00   3.407174100000000e+00  1.15748870e-01   4.75487007e+00  -3.33527450e-01
C     9.932905924600000e+00   3.711722729908794e+00  -5.545620000000184e-02  1.96553170e-01   3.61928881e+00  -1.01837521e+00
C     1.121268383580000e+01   4.457246998457053e+00  -1.116375000000005e-01 -2.58843602e+00  -8.40860040e-01   9.12910980e-01
C     9.780321142800000e+00   4.726683519538781e+00   3.488669100000000e+00 -9.08788560e-01   2.50302209e+00   3.21968680e-01
C     1.098796107550000e+01   5.487876786927735e+00   3.491285100000000e+00  2.65401540e-01   1.05156583e+00   3.65912690e-01
C     3.786280869700000e+00   5.829299557278798e+00  -4.074539999999871e-02  1.41411832e+00   3.01737533e+00   2.05632090e-01
C     5.132827397800000e+00   6.563912080504980e+00  -2.644530000000245e-02 -7.10494169e+00   3.56033540e+00  -2.21170750e-01
C     1.347574743690000e+01   6.997959803065431e+00   3.443801700000000e+00  3.83838150e-01  -3.10773001e+00  -7.67177250e-01
C     4.873861301200000e+00   7.688075884240752e+00   3.423822900000000e+00 -2.25115488e+00  -1.18534871e+00   5.86832150e-01
C     6.261749034500000e+00   5.896739978928999e+00  -3.125340000000065e-02  3.60770805e+00  -1.78243020e-01   2.50545030e-01
C     7.535751204200000e+00   6.615056654555149e+00  -4.954200000000242e-03 -1.71347914e+00   9.97288210e-01  -5.57418930e-01
C     6.060736320399999e+00   6.967703271061333e+00   3.408036600000000e+00  1.11664634e+00  -2.36650342e+00   3.14057120e-01
C     7.287424836400000e+00   7.667862680192915e+00   3.469162500000000e+00  5.20535480e-01  -2.37218821e+00  -5.16699050e-01
C     8.726531177799998e+00   5.918195352831362e+00  -1.972260000000148e-02  4.61535190e-01  -7.77656200e-01  -8.29765400e-02
C     9.970745794499999e+00   6.538005661999811e+00  -1.245000000000118e-02 -8.15276350e-01   3.84367868e+00  -3.81617870e-01
C     8.490549480699999e+00   6.924397764802118e+00   3.395135700000000e+00  1.80204752e+00  -2.31531099e+00   1.94918100e-01
C     9.738272433300001e+00   7.623368372894674e+00   3.386376600000000e+00  1.75726757e+00  -2.64814010e-01   5.73978420e-01
C     1.117838148740000e+01   5.864335885789181e+00  -5.737289999999717e-02  9.52290120e-01   1.90253990e-01   1.99351000e-03
C     1.238838155900000e+01   6.610882786232525e+00  -6.271019999999794e-02  2.13183537e+00  -1.70366245e+00  -3.87652200e-02
C     1.104817057390000e+01   6.950552753902357e+00   3.549087300000000e+00 -3.03792498e+00  -1.77813276e+00  -1.85530802e+00
C     1.224244522730000e+01   7.669507549781677e+00   3.406802700000000e+00 -2.04538560e-01  -7.24974750e-01   1.27398523e+00
