26
Lattice="8.88768389401873 1.33226762955019e-15 0 4.44384194700937 7.69696003302603 0 0 0 30 " PBC="1 1 1" Properties=species:S:1:pos:R:3:force:R:3 Energy="-208.71802039"
C     9.185793700917411e-01   1.023298520852452e+00   3.534138000000000e+00  4.64467770e-01  -1.17472610e-01   1.31579830e-01
C     3.318404888449963e+00   4.447783025943869e-01   3.554851500000000e+00 -1.12829280e-01  -6.61880570e-01  -1.85748210e-01
C     4.677616116934431e+00   8.410300431052345e-01   3.464209500000000e+00  3.37901640e-01  -1.33654900e+00   5.78642800e-01
C     1.016938425431040e+01   7.510742242061389e+00   3.454026300000000e+00 -1.90888697e+00   1.03487875e+00  -4.74838670e-01
C     7.063976038703683e+00   1.971019051778328e-01   3.397698900000000e+00  1.30276270e-01   1.77856437e+00   7.58298140e-01
C     1.252498434656914e+01   6.941612238070324e+00   3.479665500000000e+00  1.17579327e+00  -3.61304800e-01  -7.66279820e-01
C     5.000555536776774e+00   7.324978266886148e+00   3.483541500000000e+00  9.25674310e-01   1.17519121e+00   4.56806340e-01
C     6.040904929239582e+00   6.361593267755217e+00   3.500896800000000e+00 -1.02433400e-02  -5.33127450e-01  -2.58767310e-01
C     7.414021250218455e+00   6.726383453234639e+00   3.489784800000000e+00 -1.98755370e-01   2.00655422e+00   1.11110141e+00
C     8.431203294842646e+00   5.768796881972709e+00   3.594629400000000e+00  1.90277850e-01  -6.12076500e-01  -1.96985708e+00
C     9.809073193557111e+00   6.144406530227101e+00   3.448953600000000e+00 -1.09530680e-01   1.42418070e-01   3.67238050e-01
C     1.085098135246017e+01   5.182869956047375e+00   3.364249800000000e+00  2.86482600e-02  -1.40143530e-01   1.34022551e+00
C     3.342179712813037e+00   5.566039327534432e+00   3.430592400000000e+00 -1.51924248e+00   2.01175780e-01   1.28088470e-01
C     4.338586574139171e+00   4.588311120357197e+00   3.523679700000000e+00  6.67384830e-01   2.01438180e-01  -1.06063586e+00
C     5.701934397333552e+00   4.979928059416380e+00   3.475826700000000e+00 -2.43380260e-01   9.20988200e-02   6.11632780e-01
C     6.702721331464641e+00   3.989677437057537e+00   3.483354600000000e+00 -5.40800500e-02  -5.40297420e-01  -7.47120060e-01
C     8.053332970339971e+00   4.397577833847387e+00   3.440475600000000e+00  1.79458225e+00  -8.08241610e-01   1.64226005e+00
C     9.109906740857094e+00   3.418732105043396e+00   3.549668400000000e+00  3.88409150e-01  -8.71678660e-01  -9.87751800e-01
C     1.052973739496156e+01   3.819644816670011e+00   3.544219800000000e+00 -2.37826929e+00  -4.16875880e-01  -1.11813526e+00
C     2.648528201286224e+00   2.846835043921546e+00   3.475387500000000e+00 -5.01147050e-01  -1.58403573e+00   1.25739593e+00
C     3.998628265059963e+00   3.228746655170101e+00   3.444741300000000e+00 -2.67864000e-02  -7.81978940e-01   6.27147490e-01
C     4.990866180479174e+00   2.213086597451421e+00   3.486658800000000e+00  4.20554180e-01   2.45688020e-01  -6.95036240e-01
C     6.342843945228356e+00   2.595001441423189e+00   3.425398200000000e+00  1.45778349e+00   3.08111490e-01   7.24643920e-01
C     7.381787261645283e+00   1.606886340624669e+00   3.457582800000000e+00  4.44998330e-01  -2.53543500e-01  -8.02994870e-01
C     8.770815647487545e+00   1.988502080729670e+00   3.453114300000000e+00 -1.63171520e-01   1.77872342e+00   9.86913140e-01
C     2.313813581233734e+00   1.441146622724274e+00   3.644993700000000e+00 -1.20042891e+00   5.43638700e-02  -1.65480870e+00
