26
Lattice="8.88768389401873 1.33226762955019e-15 0 4.44384194700937 7.69696003302603 0 0 0 30 " PBC="1 1 1" Properties=species:S:1:pos:R:3:force:R:3 Energy="-208.74068788"
C     1.275310341805496e+01   7.005750313273911e+00  -2.714055000000002e-01  2.43357050e-01   1.28481584e+00   1.61927430e-01
C     9.024474503849740e+00   6.878362469023799e+00  -5.035799999999924e-02 -1.25802489e+00  -5.37366160e-01  -5.11445920e-01
C     1.037454630428452e+01   6.484128024767213e+00  -6.365549999999942e-02 -6.64563440e-01  -1.83933927e+00  -1.66767980e-01
C     1.074263244243977e+01   5.109929637353480e+00  -9.363600000000005e-02 -1.54435318e+00  -7.45786870e-01  -9.67089300e-02
C     6.620722494836108e+00   6.241306407919982e+00  -2.228832000000018e-01 -9.24804600e-02   1.57608121e+00  -6.32336200e-02
C     7.987619125281038e+00   5.881226146222118e+00  -6.181559999999919e-02  2.26013400e-02   5.17661720e-01   7.59652900e-02
C     8.362002942944615e+00   4.536480715150381e+00   7.169399999999999e-03 -1.33616463e+00  -2.14491691e+00  -1.05186598e+00
C     9.695672656069053e+00   4.132081434569376e+00  -1.014851999999991e-01  1.01051798e+00  -5.81336760e-01   5.67852550e-01
C     1.001777987250836e+01   2.731268960581510e+00  -1.795949999999991e-01  4.51299530e-01  -4.09347300e-01   1.53739060e-01
C     4.215204458620532e+00   5.643378843733474e+00  -3.236412000000009e-01  4.15463210e-01   5.09064530e-01   5.30774130e-01
C     5.592025121330920e+00   5.276316438683596e+00  -3.019604999999999e-01  5.52605900e-01  -1.83177961e+00  -7.08080900e-02
C     5.968805858413216e+00   3.855257034367214e+00  -3.016989000000017e-01 -8.38595600e-02   7.53243830e-01   8.34800120e-01
C     7.358239655455730e+00   3.466574330410668e+00  -1.243073999999993e-01 -1.21072487e+00   1.97792473e+00  -2.35475220e-01
C     7.678762642269062e+00   2.107971369470519e+00  -1.611465000000010e-01 -3.99590340e-01  -1.68175717e+00  -3.58871550e-01
C     9.041783842556702e+00   1.693281715147007e+00  -2.027502000000005e-01 -1.25857969e+00   1.48639364e+00   3.56215840e-01
C     3.177279847262829e+00   4.679163573524107e+00  -2.176866000000004e-01  1.33614734e+00  -1.25168770e-01  -6.64936110e-01
C     3.529889461521929e+00   3.316178502330079e+00  -3.108609000000015e-01  3.15461340e-01  -2.03300146e+00   9.17746370e-01
C     4.934904123830738e+00   2.856674606715097e+00  -3.050046000000002e-01 -7.82036180e-01   2.37040376e+00  -4.29016500e-01
C     5.287546933597358e+00   1.506300619682222e+00  -2.755544999999984e-01 -1.02160942e+00  -8.87572460e-01   3.70534250e-01
C     6.634516932332636e+00   1.078365343812683e+00  -2.252085000000008e-01  4.13432550e-01   2.22869650e+00   1.28925400e-01
C     1.136476525025367e+01   7.409343645170173e+00  -1.900884000000005e-01  3.02946562e+00   1.15073638e+00  -1.01803470e-01
C     2.479594793943719e+00   2.307740194329146e+00  -2.046413999999999e-01  1.56465159e+00   1.30554938e+00  -6.40839680e-01
C     2.845654273542846e+00   9.355681086129102e-01  -2.178530999999992e-01  7.53263120e-01   1.69637670e-01  -2.75170350e-01
C     4.233910008076275e+00   5.323136738667684e-01  -2.103701999999998e-01 -2.28599470e-01   7.31161490e-01   2.94078450e-01
C     4.574421132025673e-01   3.326948627591257e-01  -2.532177000000004e-01  2.59701020e-01  -1.22841059e+00  -3.89021340e-01
C     6.281203594655325e+00   7.663273822611103e+00  -2.833818000000008e-01 -4.87381470e-01  -2.01558736e+00   6.63405850e-01
