26
Lattice="8.88768389401873 1.33226762955019e-15 0 4.44384194700937 7.69696003302603 0 0 0 30 " PBC="1 1 1" Properties=species:S:1:pos:R:3:force:R:3 Energy="-208.60742464"
C     1.044362538617909e+00   1.147751360303925e+00   3.557442000000000e+00 -3.39770190e-01   5.94794110e-01   4.50452820e-01
C     3.443379366614034e+00   5.616180788801866e-01   3.466913100000000e+00 -8.95565270e-01  -3.91299620e-01   7.61880400e-02
C     4.799250825685587e+00   9.591769941129291e-01   3.467830800000000e+00 -4.82891710e-01  -3.84764640e-01   2.72041960e-01
C     1.022265689831244e+01   7.634873194644408e+00   3.543153600000000e+00  7.93321950e-01   1.28296600e-01  -1.25170150e-01
C     7.150611803720584e+00   2.712745071725310e-01   3.549867900000000e+00  7.14761550e-01   2.67238075e+00   1.10652802e+00
C     1.266529052381581e+01   7.040206986361810e+00   3.598466100000000e+00  3.04203280e-01   1.31064454e+00  -2.49021070e-01
C     5.127879518636227e+00   7.473594249929399e+00   3.595931700000000e+00  1.02673023e+00  -8.38058870e-01   1.37981930e-01
C     6.168018361820662e+00   6.437826268980346e+00   3.667140900000000e+00 -1.29357339e+00   2.82072422e+00  -8.31073040e-01
C     7.499193569246355e+00   6.862637117864907e+00   3.548177400000000e+00  1.79808737e+00   1.72728730e-01   9.77191840e-01
C     8.539716982551294e+00   5.886265499892960e+00   3.709214700000000e+00 -3.64906880e-01  -1.23484420e+00  -1.06658113e+00
C     9.908503623890191e+00   6.259456070579523e+00   3.644597700000000e+00 -1.26576380e-01   9.34890700e-01   1.75776980e-01
C     1.099782553221840e+01   5.358418217992400e+00   3.691281900000000e+00 -1.50613137e+00  -2.46105941e+00  -5.41922410e-01
C     3.482750520860075e+00   5.683951829139612e+00   3.590900400000000e+00 -2.21445729e+00   4.91532270e-01   4.30071010e-01
C     4.441321356465503e+00   4.703036926570757e+00   3.596111700000000e+00  1.52593259e+00  -5.24485610e-01  -1.59301320e-01
C     5.795768653074308e+00   5.106422902363812e+00   3.681650700000000e+00  6.38123620e-01  -1.70489976e+00   6.12204900e-02
C     6.809565378877831e+00   4.107326317781690e+00   3.731217000000000e+00  6.90484170e-01  -1.02976976e+00  -8.29561620e-01
C     8.188611918056058e+00   4.473025360301454e+00   3.698274600000000e+00  3.53641560e-01   1.13876977e+00   1.10329233e+00
C     9.246912254490020e+00   3.503340014537967e+00   3.742543500000000e+00 -4.38414400e-01   9.14181670e-01  -5.32974090e-01
C     1.062975539009513e+01   3.963201587885544e+00   3.679509300000000e+00 -4.91126810e-01  -9.90223110e-01  -4.28353010e-01
C     2.747712842724674e+00   2.967040392950063e+00   3.478016400000000e+00  7.44376700e-02  -6.57371480e-01   7.17786600e-01
C     4.120443349351604e+00   3.340640518879823e+00   3.472677000000000e+00 -7.07354580e-01  -3.43407710e-01   4.47229070e-01
C     5.121597033754941e+00   2.345043511114541e+00   3.517351800000000e+00  6.10184300e-02  -6.77816660e-01  -3.95118400e-01
C     6.474571818863954e+00   2.697789493539020e+00   3.622242300000000e+00  4.34436520e-01   1.04019077e+00   9.52306430e-01
C     7.476109362330871e+00   1.696606032183964e+00   3.732519600000000e+00  1.11040992e+00  -3.23661520e-01  -1.66471040e+00
C     8.861947247445681e+00   2.132681920859632e+00   3.682433700000000e+00  9.91556500e-01  -1.01899630e+00   1.09459130e-01
C     2.438454993443893e+00   1.557780659268472e+00   3.491793300000000e+00 -1.65637708e+00   3.61524530e-01  -1.93740000e-01
