32
Lattice="9.86 0 0 4.93 8.53901048131456 0 0 0 30 " PBC="1 1 1" Properties=species:S:1:pos:R:3:force:R:3 Energy="-252.75792224"
C     9.670272992599998e+00   5.764303427378495e-01   4.408029000000000e+00 -8.26290220e-01   2.21389654e+00   1.22502610e+00
C     1.034876956700000e+00   1.319240999145670e+00   4.607836200000000e+00  1.24259045e+00   1.20251206e+00  -4.12794480e-01
C     2.345184040800000e+00   6.434282728649775e-01   4.384007400000001e+00 -2.91721116e+00   2.61685430e-01   8.23919000e-03
C     3.567061912100000e+00   1.322700493851537e+00   4.542313500000000e+00  1.71132800e-02   2.52419422e+00  -1.18710800e-02
C     4.840804615900000e+00   6.369450291580376e-01   4.427491799999999e+00 -4.37643846e+00   1.97356823e+00  -8.23738190e-01
C     5.972472558400000e+00   1.432861499543074e+00   4.456806300000000e+00  1.50768353e+00  -9.48874780e-01   1.14649078e+00
C     7.155435228200000e+00   6.286322170656528e-01   4.566912600000000e+00  2.02825480e+00   1.15633127e+00  -7.86244900e-01
C     8.382191580999999e+00   1.273442443386714e+00   4.584436200000000e+00  3.67058166e+00   3.04316740e+00   2.91814660e-01
C     1.089451889080000e+01   2.812819218096888e+00   4.891136100000000e+00  2.50276751e+00  -4.37480611e+00  -7.59702390e-01
C     2.281703536700000e+00   3.464163751407559e+00   4.943942700000000e+00  5.37030990e-01   1.14047868e+00  -1.19446970e-01
C     3.522559097899999e+00   2.868274199247256e+00   4.716820800000001e+00 -1.53502620e+00  -5.76381706e+00  -1.02776530e-01
C     4.674929983799999e+00   3.548550437086054e+00   4.476126300000000e+00  4.29056510e+00  -1.95732576e+00   2.96401040e-01
C     5.997235899100000e+00   2.868289569466121e+00   4.511864699999999e+00 -1.39692793e+00  -2.85132030e+00  -3.65464940e-01
C     7.262792584400001e+00   3.476137920413558e+00   4.550178000000000e+00  1.16073200e-02  -5.28662670e-01   3.96380020e-01
C     8.508686359100000e+00   2.736921333516770e+00   4.709220300000000e+00 -1.39172333e+00   2.34476230e-01  -1.16344492e+00
C     9.760219955200000e+00   3.529468993487237e+00   4.740091800000000e+00 -4.06334741e+00  -2.23562037e+00   2.32256320e-01
C     1.219381008710000e+01   4.887004209811725e+00   4.967395800000000e+00 -4.13803386e+00   1.73156720e+00  -9.54849000e-01
C     3.394426228700000e+00   5.565727799374944e+00   4.499918700000000e+00  6.37747576e+00   8.91140520e-01  -1.16433866e+00
C     4.706692544100000e+00   4.863920702781139e+00   4.265506200000000e+00  3.54591400e-02   4.62328375e+00   3.96633430e-01
C     6.040980429999999e+00   5.581218332896607e+00   4.112465100000000e+00 -3.18435999e+00   3.97500120e-01   7.44182090e-01
C     7.216755504899998e+00   4.862164740666032e+00   4.398265200000000e+00  2.34252611e+00   2.56669200e+00  -1.00853436e+00
C     8.489818509599999e+00   5.619882118448998e+00   4.395032100000000e+00 -1.51601714e+00   6.89168400e-02  -1.86446580e-01
C     9.714544244699999e+00   4.891392919638024e+00   4.600019700000000e+00  3.53027780e-01   4.74641406e+00   1.28473581e+00
C     1.093306483530000e+01   5.745378674621985e+00   4.855350300000000e+00 -5.94566710e-01  -5.39027796e+00  -1.09905618e+00
C     1.339402124930000e+01   6.979377379239065e+00   4.334099699999999e+00 -1.45015261e+00   1.59344654e+00   1.29370895e+00
C     4.719487274500000e+00   7.744322090102197e+00   4.246355400000000e+00  2.44626649e+00  -2.75569360e+00  -1.22049338e+00
C     5.997549200600000e+00   7.047080033901107e+00   4.031885400000000e+00 -1.94713010e+00  -1.39954818e+00   5.45317070e-01
C     7.175735932900000e+00   7.759479175264617e+00   4.029166500000000e+00  1.69028515e+00   1.66813088e+00   1.96119700e+00
C     8.391381544700000e+00   7.090835546012618e+00   4.242585000000000e+00  2.65783543e+00  -2.22404784e+00  -6.63794050e-01
C     9.644310380099999e+00   7.802641994658711e+00   4.258470300000000e+00  2.41869923e+00  -2.23174112e+00   1.66036063e+00
C     1.092560756940000e+01   7.061570393125248e+00   4.529846700000000e+00  2.23483760e-01   2.08830817e+00  -1.21842160e-01
C     1.225230591750000e+01   7.773884998285006e+00   4.534357500000000e+00 -5.01602836e+00  -1.46397437e+00  -5.17904300e-01
