32
Lattice="9.86 0 0 4.93 8.53901048131456 0 0 0 30 " PBC="1 1 1" Properties=species:S:1:pos:R:3:force:R:3 Energy="-253.34542486"
C     5.202436434200000e+00   7.601599275747277e+00  -1.502672999999994e-01 -1.39394542e+00  -1.06660951e+00  -2.61956080e-01
C     6.451136956500000e+00   8.257660587666891e+00  -2.196294000000023e-01 -4.55040010e-01   1.37710569e+00  -2.03997230e-01
C     7.730086036099999e+00   7.609275931558901e+00  -2.840688000000000e-01 -2.41089961e+00  -1.25299893e+00   2.32767080e-01
C     8.893132984899999e+00   8.395591394730539e+00  -3.044249999999984e-01  5.04676980e-01  -4.95159810e+00   2.70912420e-01
C     1.013973455970000e+01   7.660003801897647e+00  -3.325296000000009e-01 -6.33519020e-01  -3.99092700e+00   1.09172260e+00
C     1.138812567520000e+01   8.270693764752618e+00  -2.530896000000027e-01 -2.18699740e-01  -3.76039153e+00   3.66005190e-01
C     1.261376060090000e+01   7.505605683903527e+00  -1.874123999999995e-01 -4.85406060e-01   2.26187342e+00  -4.75604720e-01
C     1.379050392780000e+01   8.402043897999752e+00  -1.946201999999992e-01  2.12222629e+00  -6.42774828e+00   3.79851700e-02
C     1.437252710700000e+00   1.155767962373825e+00  -2.468487000000010e-01  3.12086358e+00   1.27078137e+00   9.13166850e-01
C     2.736912720299999e+00   1.908509744140199e+00  -1.145558999999992e-01 -4.42686447e+00   8.29434970e-01  -1.44009635e+00
C     3.854489046599999e+00   1.197556428031163e+00  -1.481078999999994e-01  5.98102965e+00   8.34649300e-01  -6.57024180e-01
C     5.186262139500000e+00   1.813503859638671e+00  -2.148755999999992e-01 -3.02562930e-01   2.26185928e+00   1.14203210e+00
C     6.426360600599999e+00   1.074712344683578e+00  -1.211258999999991e-01 -2.12067790e+00   3.42129777e+00  -1.13732294e+00
C     7.568448886900000e+00   1.808972206776935e+00  -1.956051000000016e-01  4.77115862e+00   4.54648205e+00  -7.13351990e-01
C     8.895648961100001e+00   1.225852744789473e+00  -3.021156000000005e-01 -3.01592784e+00  -7.24865950e-01   1.00106586e+00
C     1.011064460170000e+01   1.891294074331262e+00  -2.473989000000003e-01 -9.98456040e-01   1.64951763e+00  -6.14859870e-01
C     2.804805278600000e+00   3.355381966688752e+00  -2.051751000000017e-01 -4.28785435e+00  -5.59296169e+00   9.57298380e-01
C     3.976824137199999e+00   3.949788292728678e+00  -1.116470999999990e-01  3.49556818e+00   4.06905152e+00  -6.71280100e-02
C     5.240104345700000e+00   3.294279967127749e+00  -1.986828000000003e-01 -1.76212504e+00  -2.94668026e+00   2.24454910e-01
C     6.419213086599999e+00   3.997070330778325e+00  -2.621421000000019e-01  2.18717154e+00   2.37509964e+00   3.70115680e-01
C     7.666472471300000e+00   3.305161911303252e+00  -2.652903000000002e-01 -3.46348640e+00  -2.02367095e+00  -2.97676930e-01
C     8.834322127500000e+00   4.059595612606134e+00  -3.585425999999998e-01  1.45114601e+00  -2.25665960e+00   1.82502056e+00
C     1.004077683890000e+01   3.348209283275656e+00  -2.413595999999991e-01  3.92232490e+00  -2.86265904e+00  -3.38782760e-01
C     1.138361299970000e+01   3.905129011747964e+00  -1.652141999999976e-01 -2.67588158e+00   3.86884053e+00   5.45840100e-01
C     3.972243970000000e+00   5.399453540215134e+00  -4.670610000000153e-02 -1.86783250e-01  -8.38615820e-01  -1.23832182e+00
C     5.189912508700000e+00   6.106448000285433e+00  -1.270497000000006e-01 -1.71778310e-01   3.56452657e+00  -1.17513550e-01
C     6.453376507600000e+00   5.511914699159669e+00  -2.432475000000025e-01 -2.54556345e+00  -4.41392548e+00   1.79346560e-01
C     7.640532783299999e+00   6.153478308306129e+00  -2.751339000000002e-01  3.26960215e+00   2.65651164e+00   4.73994480e-01
C     8.868811076400000e+00   5.418721988143464e+00  -1.531176000000016e-01 -3.91021890e-01   1.54543667e+00  -1.70005598e+00
C     1.013112889960000e+01   6.039025425167134e+00  -1.612611000000008e-01 -1.01847219e+00   4.64983462e+00  -1.53754260e-01
C     1.132414073350000e+01   5.330551837701490e+00  -2.224049999999878e-02  1.87411695e+00   1.12739685e+00  -2.10826907e+00
C     1.258285393790000e+01   6.073134758699809e+00  -1.923603000000007e-01  2.65080670e-01   8.00612610e-01   1.89398782e+00
