32
Lattice="9.86 0 0 4.93 8.53901048131456 0 0 0 30 " PBC="1 1 1" Properties=species:S:1:pos:R:3:force:R:3 Energy="-244.22959244"
C     9.739265779000000e+00   1.512979448492512e-01  -3.633945000000018e-01  8.87193845e+00  -8.94823449e+00  -1.20740909e+00
C     1.205331756000000e+00   6.941552893026752e-01  -5.463704999999983e-01 -6.37020880e-01   1.03128100e+00   3.89594499e+00
C     7.318557392000000e+00   8.387932670840923e+00  -3.556409999999985e-01  2.30913071e+00   6.74076025e+00  -6.88104250e-01
C     3.784785058400000e+00   7.154003473769153e-01  -1.631073000000001e-01 -4.14517909e+00  -3.76025554e+00  -1.35712078e+00
C     5.003608252400000e+00   1.183127720462688e-01  -1.819592999999990e-01 -2.91402220e-01  -6.12626257e+00   7.68107110e-01
C     6.220827569499999e+00   7.324198761151273e-01  -3.088181999999975e-01 -1.77462695e+00   4.28140523e+00   1.05776976e+00
C     7.417212657299999e+00   9.397531132669680e-02  -6.975150000000241e-02 -3.00946898e+00  -3.44335338e+00  -2.55813590e-01
C     8.592390857100000e+00   7.055457315522616e-01  -2.804937000000010e-01 -1.77324058e+00   2.17401295e+00  -2.14658220e-01
C     1.106400898770000e+01   2.105712384648673e+00  -5.581169999999958e-02  9.19004890e-01  -2.01360994e+00  -4.44130878e+00
C     2.533905328200000e+00   2.683859153883107e+00  -1.232493000000012e-01 -4.70540312e+00   5.25523165e+00   4.40278564e+00
C     3.717429475699999e+00   2.039208692448127e+00  -5.096340000000055e-02  2.16942227e+00   3.37748901e+00  -2.37392020e-01
C     5.019170241099999e+00   2.852931646777212e+00  -2.414249999999996e-02 -5.68281223e+00  -8.98256860e-01  -1.65848570e-01
C     6.141555092200000e+00   2.315466089711174e+00  -3.345149999999997e-01  5.89959950e+00  -1.03340193e+01  -2.34037820e-01
C     7.460031383500001e+00   2.794926660927201e+00  -3.369962999999991e-01 -6.23439737e+00   6.89754140e-01  -9.88491030e-01
C     8.579950347199999e+00   2.061923570396289e+00  -3.856035000000020e-01  1.42741004e+00   2.41783997e+00   1.45950080e-01
C     9.729289283099998e+00   2.802189943241489e+00  -2.435480999999982e-01  7.22300582e+00  -1.53613119e+00   2.52350157e+00
C     1.231027719590000e+01   4.315534690602336e+00   4.879143000000000e-01  1.25553000e-02  -5.11758875e+00  -2.73953477e+00
C     3.666978024900000e+00   4.903649473720598e+00   3.730593000000000e-01  4.42672536e+00   3.67772805e+00  -3.34866031e+00
C     5.021683998799999e+00   4.178814288274226e+00  -1.633139999999855e-02 -3.23661806e+00   7.15645852e+00   1.20068062e+00
C     6.227645710199999e+00   5.014216594750563e+00  -3.421292999999999e-01 -3.12969126e+00  -6.31055424e+00   1.24418873e+00
C     7.332215957000001e+00   4.142314458757675e+00  -4.406865000000018e-01  4.56632063e+00   3.23704478e+00   4.30988780e-01
C     8.616696102199999e+00   4.679867369900923e+00  -3.044489999999982e-01  2.35077232e+00   8.85825476e+00   1.64288652e+00
C     9.888570483900001e+00   4.146560823279274e+00   1.087128000000000e-01 -4.30519687e+00   8.16698860e-01  -2.21809792e+00
C     1.103293850080000e+01   4.928919394384586e+00   4.266321000000000e-01  2.30075677e+00   7.34528840e-01   2.03323860e-01
C     3.769291941800000e+00   6.444065360616084e+00  -7.200120000000254e-02 -2.97817143e+00  -2.00400337e+00   3.75557099e+00
C     4.997077530699999e+00   7.048767256981850e+00  -2.772863999999977e-01 -2.43647387e+00   3.55079864e+00   1.31942910e-01
C     6.239777010499999e+00   6.352878206991316e+00  -2.926706999999986e-01 -3.67066880e+00   1.18585048e+00  -1.26760208e+00
C     7.359550539199999e+00   7.059854222798977e+00  -4.729805999999996e-01  5.73833424e+00  -1.26267629e+00   9.76397510e-01
C     8.694921891200000e+00   6.368998577925984e+00  -2.703479999999985e-01 -2.76139683e+00  -2.60639330e+00  -2.35573600e-01
C     9.824000449800000e+00   7.092227660891173e+00   3.551580000000000e-02  3.32591088e+00   8.84241010e-01   2.58130250e-01
C     1.113396327200000e+01   6.361045514345122e+00   4.492758000000000e-01 -2.84717052e+00   3.22861062e+00  -2.95217490e+00
C     1.231245709400000e+01   7.247236488914822e+00   1.737429000000000e-01  2.07805190e+00  -4.93664954e+00  -8.63415700e-02
