64
Lattice="9.86 0 0 4.93 8.53901048131456 0 0 0 30 " PBC="1 1 1" Properties=species:S:1:pos:R:3:force:R:3 Energy="-510.29604402"
C     4.925297075800000e+00   8.282781417207898e+00  -6.259791000000021e-01  2.72430757e+00   9.48668060e-01  -2.91529020e-01
C     1.320022536500000e+00   4.738398529576712e-01  -6.557253000000003e-01 -3.30394239e+00  -1.35418090e-01  -5.30088310e-01
C     9.793287190700001e+00   1.770274350572728e-01   4.116075000000000e+00  3.13145955e+00   1.06080580e-01   2.96887610e-01
C     1.203277129200000e+00   9.236709117091456e-01   4.167017100000000e+00 -2.09561475e+00   1.66404742e+00  -5.00361610e-01
C     7.416509195600000e+00   8.249362291892322e+00  -6.205728000000015e-01 -4.48631180e-01   2.77128600e-01  -3.95042290e-01
C     3.671515202499999e+00   4.264041127193848e-01  -7.540343999999983e-01  2.13793459e+00   1.19354548e+00   1.44014719e+00
C     2.436288912500000e+00   2.658350226315784e-01   4.094145000000000e+00 -1.53657579e+00  -6.09350600e-01  -3.29792730e-01
C     3.641344391300000e+00   9.951145068624760e-01   4.059698100000000e+00  8.05353000e-01  -9.33489340e-01   5.29947860e-01
C     9.871620404400000e+00   8.391135824452181e+00  -6.748830000000012e-01  1.13501628e+00  -4.66758649e+00  -9.65693760e-01
C     6.207495370499999e+00   5.062168774342680e-01  -7.827407999999991e-01 -1.44486452e+00  -6.28285550e-01   6.79144490e-01
C     4.865246076900000e+00   2.808814422181768e-01   4.118091600000001e+00  1.86473730e+00  -1.12779494e+00  -2.20412270e-01
C     6.157090163099999e+00   9.407358679831112e-01   4.114702500000000e+00 -2.01677890e+00   1.40838991e+00   6.20114000e-03
C     1.235617248860000e+01   8.241594866399295e+00  -7.758837000000014e-01 -1.07501974e+00   2.32675933e+00   2.96649780e-01
C     8.619989046399999e+00   4.044881445917312e-01  -6.568538999999980e-01  2.25838775e+00   2.88353807e+00   9.37417700e-02
C     7.375302037100000e+00   2.944321687290984e-01   4.029801900000000e+00  1.14918710e-01  -9.32580800e-02   1.62530222e+00
C     8.647328755800000e+00   9.804131486893745e-01   4.222595100000000e+00 -1.62306636e+00  -3.69489208e+00  -2.09946461e+00
C     1.335740066700000e+00   1.888056764678084e+00  -8.651235000000028e-01 -1.14591804e+00   2.26951900e-02   2.30446065e+00
C     2.575161441600000e+00   2.599361204898058e+00  -7.080722999999978e-01 -3.30620042e+00  -8.85661540e-01  -1.06578956e+00
C     1.102727718460000e+01   2.414162876102578e+00   4.157754000000000e+00 -1.46085712e+00  -2.13380449e+00  -1.10666610e-01
C     2.388117340200000e+00   3.059668860997549e+00   4.208373000000000e+00  1.67712704e+00   1.78558633e+00  -5.96784770e-01
C     3.724383043500000e+00   1.812359803014561e+00  -6.441167999999990e-01  1.66492164e+00   4.07076080e+00  -1.14628903e+00
C     5.018745422999999e+00   2.645879343070163e+00  -6.938789999999990e-01 -3.82577278e+00  -1.93857319e+00   6.21375130e-01
C     3.655364867600000e+00   2.397176222554713e+00   4.106477400000000e+00 -6.12614110e-01  -8.71576230e-01  -1.55295730e-01
C     4.909863809399999e+00   3.031900682037427e+00   4.030009200000000e+00 -2.15363770e-01   2.18426045e+00   1.20390962e+00
C     6.159193054600000e+00   1.937343676998330e+00  -7.431848999999993e-01  5.85600082e+00  -1.41381675e+00   4.15584920e-01
C     7.511084590100000e+00   2.612311382801921e+00  -6.772221000000016e-01 -2.64128975e+00   5.75888330e-01  -2.42233350e-01
C     6.157864468900000e+00   2.351922284884172e+00   4.166703000000000e+00 -6.04837660e-01   5.22227220e-01  -1.14974622e+00
C     7.382134031100000e+00   3.064583146918894e+00   4.112177100000000e+00  1.46953520e-01   7.81151230e-01  -1.75335240e-01
C     8.733009986599999e+00   1.922256440941637e+00  -5.906778000000017e-01 -2.32999365e+00  -2.59189260e+00  -1.31217060e+00
C     9.912006865799999e+00   2.627137922868659e+00  -7.500900000000001e-01  2.95593770e+00  -5.83593570e-01   5.58628430e-01
C     8.625538303699999e+00   2.322847637320610e+00   4.070403300000000e+00 -1.26780742e+00   4.38668725e+00   6.20317440e-01
C     9.758880819300000e+00   3.151289113233862e+00   4.047724500000000e+00  2.76761823e+00  -1.62311000e+00   9.79631960e-01
C     2.438371245900000e+00   4.022645777237288e+00  -8.089577999999982e-01  1.88785770e-01  -1.35786561e+00   7.04495500e-01
C     3.611755763800000e+00   4.636000082142229e+00  -8.713322999999988e-01  7.44226095e+00   5.60691858e+00   1.86924777e+00
C     1.225968533870000e+01   4.483091082185716e+00   4.214805000000000e+00  2.42557473e+00   4.18320940e-01   3.50913910e-01
C     3.684284937800000e+00   5.248369241408093e+00   4.213949100000000e+00 -2.52461912e+00  -1.96487397e+00  -1.53153578e+00
C     4.964467010400000e+00   4.037183698749802e+00  -6.368939999999981e-01 -1.29311243e+00   6.51670200e-02  -1.57763166e+00
C     6.219316771000000e+00   4.753580207089313e+00  -6.634874999999987e-01 -8.65404900e-01  -1.40813338e+00  -5.18978090e-01
C     4.902615674100000e+00   4.476021976969744e+00   4.056376200000000e+00 -5.56392600e-01   5.42713830e-01   9.45102320e-01
C     6.128948983599999e+00   5.188062479893093e+00   4.110620700000000e+00  6.56469790e-01  -1.72720509e+00  -5.30185730e-01
C     7.470287262500000e+00   4.033863987645492e+00  -7.622022000000008e-01  2.01582930e-01   6.07208760e-01   6.85045610e-01
C     8.702040071699999e+00   4.791621925728237e+00  -7.892678999999987e-01 -4.66272600e-02  -3.01288337e+00   1.18458805e+00
C     7.370288276400000e+00   4.525985691260634e+00   4.077530400000001e+00  1.17599181e+00  -1.33009759e+00   7.26883800e-02
C     8.607031133000000e+00   5.309240773076239e+00   4.074734100000000e+00 -1.90521543e+00  -1.75149832e+00  -2.67742670e-01
C     9.965061701700000e+00   4.050418396482859e+00  -6.354743999999997e-01 -3.96069058e+00   1.67791850e-01  -1.50974949e+00
C     1.111388441730000e+01   4.789018722993306e+00  -6.928832999999983e-01  1.10764928e+00  -1.39240574e+00  -6.88375710e-01
C     9.800650885200000e+00   4.567925382793574e+00   4.127752500000001e+00 -2.65492970e-01  -1.16864932e+00  -2.33354510e-01
C     1.106051987880000e+01   5.182261930074029e+00   4.226198100000000e+00 -4.39823760e-01   1.13973678e+00  -3.02829800e-01
C     3.795611831400000e+00   6.169541638650791e+00  -7.814894999999993e-01 -3.00134188e+00  -2.35583393e+00  -5.80481310e-01
C     5.020124738400000e+00   6.884952232840281e+00  -6.963824999999986e-01 -2.34822578e+00  -1.01706087e+00   1.94138530e-01
C     1.345682841400000e+01   6.670542973873980e+00   4.049018400000000e+00  1.11286992e+00  -8.57316390e-01   8.47163010e-01
C     4.892152439299999e+00   7.243080979464731e+00   4.026341700000001e+00 -8.21719230e-01   3.28098419e+00   6.99199760e-01
C     6.202153666199999e+00   6.147459415989091e+00  -6.585326999999985e-01  1.27092320e+00   4.77824100e-01   2.35855890e-01
C     7.414398070999999e+00   6.849360954038803e+00  -5.977607999999996e-01  7.58981180e-01  -1.60938480e-01  -8.12744180e-01
C     6.151260487400000e+00   6.554414309928284e+00   4.106085300000000e+00 -2.12775197e+00   3.54487230e+00  -9.67943130e-01
C     7.292592363800001e+00   7.384599281001343e+00   3.997228800000000e+00  2.24040778e+00  -8.01029130e-01   8.62453200e-01
C     8.670415748600000e+00   6.172514238979088e+00  -7.353537000000010e-01 -1.07454481e+00   3.13989370e-01   8.06829260e-01
C     9.863552311499999e+00   6.855100279152725e+00  -6.736241999999990e-01  2.41045919e+00   3.71704005e+00  -5.37514630e-01
C     8.549377593099999e+00   6.709209577299829e+00   4.013234700000000e+00  7.01127260e-01   3.55591600e-02   8.98762350e-01
C     9.802429136200001e+00   7.384176087641953e+00   4.173257700000000e+00 -3.48894100e-02  -6.75754920e-01  -8.59680140e-01
C     1.112115296280000e+01   6.177221453896293e+00  -7.625709000000001e-01 -9.66981300e-02   3.95124720e-01   4.13972750e-01
C     1.238640142450000e+01   6.848136374545867e+00  -8.036981999999995e-01  7.40220700e-02  -8.76723400e-02   1.24301010e-01
C     1.104124486060000e+01   6.581247296460637e+00   4.211206500000000e+00 -4.01324440e-01   4.95360212e+00  -4.77368990e-01
C     1.221894332570000e+01   7.463948121276847e+00   4.088865900000000e+00  1.67156078e+00  -5.41846146e+00   1.34683000e-01
