64
Lattice="9.86 0 0 4.93 8.53901048131456 0 0 0 30 " PBC="1 1 1" Properties=species:S:1:pos:R:3:force:R:3 Energy="-511.82017323"
C     5.072505298199999e+00   7.891222700724563e+00  -3.490559999999832e-02 -1.33329278e+00   7.32499000e-02  -7.24627890e-01
C     1.354665597200000e+00   8.791082069369599e-02  -7.637820000000062e-02 -3.25949000e-03  -2.15436700e-02   1.81302389e+00
C     9.733467803200000e+00   6.927873398237793e-01   3.033569400000000e+00  1.57278648e+00  -1.92233212e+00   3.79397040e-01
C     1.167712355700000e+00   1.306586697954938e+00   3.122245200000000e+00 -1.90317867e+00   3.56316809e+00   5.68158570e-01
C     7.513408789300000e+00   7.903106014659055e+00   1.235220000000000e-02  8.97127000e-02   2.35721128e+00  -6.88788720e-01
C     3.826127101700000e+00   1.130656354964136e-01   1.052334000000000e-01 -1.66897030e+00  -4.55856463e+00  -1.15957410e-01
C     2.389774214600000e+00   6.455064972355999e-01   3.128560500000000e+00  5.51143700e-01  -7.11568640e-01   2.44460400e-02
C     3.613786578700000e+00   1.332069154589774e+00   3.293715300000000e+00  8.04749640e-01   1.31171244e+00   8.78287780e-01
C     9.951573862600000e+00   7.860817162987589e+00   9.843510000000000e-02  4.58571640e-01   9.22544070e-01   1.13731076e+00
C     6.226710785000000e+00   4.269846800419200e-02   2.012214000000000e-01  1.73381110e+00   1.21657911e+00  -1.40851382e+00
C     4.847203460099999e+00   5.685374791808712e-01   3.331069200000000e+00 -8.10802180e-01   4.21021490e+00  -1.15274488e+00
C     6.061758457300000e+00   1.356698564077657e+00   3.186438300000000e+00 -3.30669350e-01  -9.89293910e-01   1.09246255e+00
C     1.243618076840000e+01   7.937506528449098e+00   1.155114000000000e-01 -3.01013400e-01  -2.42688650e+00   2.67922950e-01
C     8.762747549399998e+00   4.253742226653920e-02  -7.129229999999964e-02 -1.49663067e+00   2.24941394e+00   1.61770926e+00
C     7.277397660099999e+00   5.990077426172841e-01   3.155863500000000e+00  2.69598860e-01   7.30727310e-01  -3.80811050e-01
C     8.483947865599999e+00   1.340892428728653e+00   3.019697400000000e+00  8.37601290e-01   7.97385480e-01   9.07147360e-01
C     1.306712226700000e+00   1.474910405020052e+00   2.756991000000000e-01  1.50556171e+00   1.56149733e+00  -1.13571917e+00
C     2.606480055400000e+00   2.215712515382766e+00   3.614220000000000e-01 -3.45367635e+00   2.45697380e-01   7.40298170e-01
C     1.099869053030000e+01   2.796341404183527e+00   3.323460300000000e+00  1.67138334e+00  -3.65902771e+00  -1.19341330e-01
C     2.352360937600000e+00   3.479266272293011e+00   3.478069500000000e+00  7.06621980e-01   1.05529967e+00   4.22303600e-01
C     3.757858483000000e+00   1.446852326654134e+00   2.917173000000000e-01  2.90684675e+00   3.50559904e+00  -1.07739032e+00
C     5.034731194500000e+00   2.157093830849557e+00   1.379637000000000e-01 -2.91401691e+00   3.57774301e+00   7.73589990e-01
C     3.630529253100000e+00   2.803130942196385e+00   3.493031400000000e+00 -2.56853035e+00  -2.27892201e+00  -3.75889290e-01
C     4.799107563300000e+00   3.535447581674809e+00   3.515380200000000e+00  2.72304547e+00  -3.86118188e+00  -1.63284372e+00
C     6.199107764299999e+00   1.493676076011319e+00   9.057150000000000e-02  3.08167719e+00  -1.19912965e+00  -3.67153150e-01
C     7.448302716300001e+00   2.245379855663745e+00  -1.715700000001874e-03  6.89895880e-01  -1.34405769e+00   7.27702590e-01
C     6.052410339200000e+00   2.806682914385750e+00   3.207875700000000e+00 -1.67162347e+00  -1.75131120e+00   1.40802687e+00
C     7.249255050899999e+00   3.495617025730430e+00   3.164898900000000e+00  2.73770731e+00  -2.90151668e+00  -1.08879162e+00
C     8.690272063100000e+00   1.502702151649098e+00   9.055919999999999e-02  8.25860090e-01   1.76291470e-01  -9.24516460e-01
C     9.936114220700000e+00   2.219596825860014e+00   2.850432000000000e-01 -3.92594800e-02  -1.43437200e-01  -8.49734890e-01
C     8.547199666999999e+00   2.749901910297942e+00   3.095037300000000e+00 -2.15876997e+00   9.12906920e-01   7.58046180e-01
C     9.788970137600000e+00   3.451000781362534e+00   3.299493300000000e+00 -1.82324300e+00  -1.25760506e+00  -8.84964850e-01
C     2.575540607900000e+00   3.670368045983839e+00   5.711856000000001e-01  6.36658490e-01  -1.84733604e+00  -1.95431510e+00
C     3.810725584499999e+00   4.395710192482408e+00   3.373536000000000e-01 -6.09214700e-02  -2.73756836e+00  -1.35809920e-01
C     1.218964083540000e+01   4.936992174892377e+00   3.548771100000000e+00  2.21205025e+00  -8.23263320e-01  -3.50437640e-01
C     3.600716902200000e+00   5.602709314472671e+00   3.413759100000000e+00  5.67217200e-02   7.44817360e-01   3.40322670e-01
C     5.054998720300000e+00   3.664410719932362e+00   1.201437000000000e-01 -2.19785137e+00  -1.90961984e+00   5.99003260e-01
C     6.239199707499999e+00   4.369446416388653e+00  -9.053099999999148e-03  1.96187946e+00   1.93407080e-01  -7.26707750e-01
C     4.822103252500000e+00   4.867873581512542e+00   3.377104500000000e+00  2.72106410e-01   4.25412471e+00  -2.53038310e-01
C     6.059744157899999e+00   5.582294675167611e+00   3.129678900000000e+00 -1.13635232e+00   2.13803607e+00  -6.64967000e-03
C     7.502677461099999e+00   3.675410331672279e+00   6.786299999999999e-03 -1.92163544e+00  -2.15798129e+00  -2.15094480e-01
C     8.705681665500000e+00   4.333324181915529e+00   1.147722000000000e-01  1.70161997e+00   1.91518421e+00   4.79859380e-01
C     7.247321751399999e+00   4.845699564488182e+00   3.011206200000000e+00  1.59899071e+00   3.61871578e+00   1.88150191e+00
C     8.500084100700001e+00   5.565965013086077e+00   3.186814500000000e+00  1.55392431e+00   1.94786250e-01  -5.83940580e-01
C     9.969193288200000e+00   3.670990454457726e+00   3.259320000000000e-01 -1.43619741e+00  -1.86765032e+00  -2.75234450e-01
C     1.118078570050000e+01   4.342218927572126e+00   4.878048000000000e-01  1.40818393e+00   1.45184772e+00   3.56482150e-01
C     9.771816301199999e+00   4.809027076179726e+00   3.295507200000000e+00 -8.34589440e-01   5.76206786e+00   1.13691899e+00
C     1.100887457920000e+01   5.666649254166701e+00   3.490126500000000e+00 -2.62085913e+00  -2.60152109e+00  -6.95112570e-01
C     3.757867307700000e+00   5.761703384077441e+00   1.907589000000000e-01  2.59076894e+00   1.40117697e+00   1.45521520e-01
C     5.004431365199999e+00   6.479792751244613e+00   1.806390000000000e-02  1.39378745e+00  -6.40191840e-01  -1.09296357e+00
C     1.350512619430000e+01   7.028818591478684e+00   3.257463300000000e+00 -6.96966010e-01  -7.15552100e-02   2.16141050e-01
C     4.840144488900000e+00   7.814442394801443e+00   3.099902100000000e+00  4.67537790e-01  -1.68800806e+00   5.56413400e-02
C     6.276513546399999e+00   5.777404148037122e+00  -1.498805999999995e-01 -2.03387446e+00   9.50956010e-01   1.50468943e+00
C     7.486172067600000e+00   6.532474005620764e+00  -7.404959999999861e-02  9.90062800e-01  -2.84131419e+00   1.74382630e-01
C     6.092162013799999e+00   7.090737774342622e+00   3.064999200000000e+00 -7.11944780e-01  -2.13051585e+00  -9.75127500e-02
C     7.344261031599999e+00   7.760906983206977e+00   2.998893300000000e+00 -6.32593760e-01  -2.26843950e-01   1.29248979e+00
C     8.702079758200000e+00   5.769575754009267e+00   1.268820000000000e-01  1.14729103e+00   6.77659400e-02  -5.47634000e-01
C     9.983303194699999e+00   6.445287036845457e+00   2.356362000000000e-01 -1.31819321e+00   5.19713330e-01  -3.62956800e-02
C     8.558322042799999e+00   7.041943648317178e+00   3.196179300000000e+00 -2.08538832e+00  -2.59374796e+00  -8.73237810e-01
C     9.740083666000000e+00   7.741324299692984e+00   3.242876400000000e+00  2.17986761e+00  -8.19393060e-01   1.09922378e+00
C     1.123984226910000e+01   5.798827927600708e+00   4.811829000000000e-01 -2.62492806e+00  -1.83114513e+00  -1.36386296e+00
C     1.243473889130000e+01   6.464040411661633e+00   3.021447000000000e-01 -2.76507160e-01   2.99924659e+00  -4.28708360e-01
C     1.098211779300000e+01   7.061575687311746e+00   3.388913100000000e+00  9.24867140e-01  -7.78075410e-01  -2.97289780e-01
C     1.225665935400000e+01   7.700779882472476e+00   3.282299700000000e+00 -1.11817978e+00   1.83420466e+00   3.75170300e-02
