64
Lattice="9.86 0 0 4.93 8.53901048131456 0 0 0 30 " PBC="1 1 1" Properties=species:S:1:pos:R:3:force:R:3 Energy="-513.327745"
C     4.995462659900000e+00   8.078218576616189e+00   7.542989999999999e-02  6.33915500e-01  -2.68529017e+00  -2.47602120e-01
C     1.300830983200000e+00   1.743836720225600e-01   6.779789999999999e-02  1.38636815e+00   2.80437266e+00  -8.99694330e-01
C     9.799851337800000e+00   4.338730997961360e-01   3.579347700000000e+00 -8.26616280e-01   4.41524332e+00   2.66348620e-01
C     1.133615588300000e+00   1.227563962489665e+00   3.569819400000000e+00 -1.69204480e-01  -2.57913880e-01  -9.96022620e-01
C     7.493918034300000e+00   8.058681320637948e+00   7.662690000000001e-02 -2.23003830e-01  -2.75112584e+00  -5.36973080e-01
C     3.776779625800000e+00   1.973744453993312e-01  -8.735400000000126e-02  1.85663373e+00   1.12016240e+00  -8.34758930e-01
C     2.339334447900000e+00   4.911103432138904e-01   3.541605300000000e+00  1.06462462e+00   1.42774059e+00   8.94327990e-01
C     3.573359543400000e+00   1.215956800154096e+00   3.533956800000000e+00  1.15035963e+00  -5.16200370e-01  -7.39601660e-01
C     1.002381581480000e+01   8.086293321096390e+00  -1.742916000000001e-01 -3.89297057e+00  -2.75685281e+00   1.12572045e+00
C     6.252770518499999e+00   2.639554156447208e-01   1.414080000000000e-02  1.52562274e+00  -2.39225599e+00  -1.09659070e+00
C     4.806688917300000e+00   4.211406666595128e-01   3.548601300000000e+00  9.27204270e-01   4.96995542e+00   5.56720200e-02
C     6.062028621300000e+00   1.189273331695249e+00   3.522361500000000e+00  5.66382000e-02  -9.50692100e-02  -1.92284970e-01
C     1.239913487500000e+01   8.008998710572058e+00  -1.103969999999777e-02  8.17374000e-01   1.02757374e+00  -7.24854640e-01
C     8.707206613099999e+00   1.986306192310440e-01  -8.763000000016063e-04 -1.13377039e+00   8.84998820e-01   6.85232400e-01
C     7.317659195300000e+00   4.970845765061176e-01   3.503465700000000e+00  2.34765530e-01   4.95243050e-01   3.88082470e-01
C     8.613444027700000e+00   1.237316537139082e+00   3.498154800000000e+00 -3.02012921e+00  -1.63014590e+00   5.39368820e-01
C     1.314278692100000e+00   1.619341277641287e+00  -1.833200999999995e-01  8.99807700e-02  -9.89945200e-02   1.93332990e+00
C     2.561060852800000e+00   2.345528700787272e+00  -2.602677000000000e-01 -1.63609200e-01  -1.29884604e+00  -8.98281810e-01
C     1.098452422460000e+01   2.679868874285803e+00   3.382156500000000e+00  2.31453400e-02  -1.51464111e+00   7.87036200e-02
C     2.366834333000000e+00   3.337607504034003e+00   3.231838800000000e+00  1.13410998e+00   4.33697220e-01   1.23580327e+00
C     3.803854791400000e+00   1.610477699372942e+00  -2.984349000000002e-01 -1.20350600e-02   9.84864990e-01   1.55581640e+00
C     5.060117440700000e+00   2.348860537286463e+00  -1.894077000000003e-01 -2.34755311e+00   9.97416530e-01  -1.12453660e-01
C     3.620425119499999e+00   2.666482694506831e+00   3.381818700000000e+00 -1.07127801e+00  -2.20938695e+00   4.70574890e-01
C     4.839370281700000e+00   3.366542538776217e+00   3.529238400000000e+00 -3.68540710e-01  -1.37113263e+00  -3.98154470e-01
C     6.257139040799999e+00   1.652129284692286e+00  -9.786600000001755e-03 -1.72429850e-01   5.04168770e-01   5.09056900e-02
C     7.468029174600000e+00   2.337270965312483e+00   5.758350000000000e-02  1.26597450e+00  -1.80083950e-01   1.91443500e-01
C     6.069305005500000e+00   2.634588124122355e+00   3.521938500000000e+00 -6.24835480e-01  -5.15774170e-01  -8.44730600e-02
C     7.270145038499999e+00   3.362578217770772e+00   3.476027700000000e+00  1.41819631e+00  -4.01984060e-01   1.28304728e+00
C     8.690176914099998e+00   1.621826642031596e+00   2.865570000000000e-02  9.97240190e-01   5.18002320e-01   4.89103080e-01
C     9.948003211500000e+00   2.369011064997377e+00  -1.502099999999729e-03 -5.98225300e-02  -2.46713124e+00  -1.99694707e+00
C     8.530116132400000e+00   2.656045888947651e+00   3.539802600000000e+00  6.39673530e-01   3.92415260e-01  -1.10913812e+00
C     9.762763095699999e+00   3.413849681516674e+00   3.427962600000000e+00 -9.06598990e-01  -2.67313804e+00   4.11596730e-01
C     2.521863606000000e+00   3.747415793715194e+00  -3.968615999999976e-01  1.56684743e+00   1.69442240e+00   4.23997100e-02
C     3.742386220300000e+00   4.558795216618043e+00  -3.656496000000011e-01  2.31830999e+00  -4.55555818e+00   6.23690570e-01
C     1.228347712430000e+01   4.759897964773151e+00   3.296250600000000e+00 -1.72320391e+00  -3.25762000e-01  -1.63041470e-01
C     3.613963565700000e+00   5.475800064405871e+00   3.439251300000000e+00  1.60027840e-01   8.28296010e-01   2.94308060e-01
C     5.019716041400000e+00   3.809178456517034e+00  -1.758771000000010e-01 -2.34322540e-01  -7.55620160e-01  -7.40696050e-01
C     6.291438332600000e+00   4.478401201459786e+00  -6.667949999999934e-02 -1.85185448e+00  -1.57816900e-02   7.43428720e-01
C     4.807730133300000e+00   4.750303361817614e+00   3.606938400000000e+00  1.94990244e+00   1.14665800e+00  -1.00710559e+00
C     6.082274750900000e+00   5.430071613922956e+00   3.614641500000000e+00 -3.33997455e+00   4.37065650e+00   1.21245029e+00
C     7.509206161500000e+00   3.733124308045132e+00   9.916259999999999e-02 -7.39965040e-01   1.55099650e+00  -1.27830439e+00
C     8.720029493800000e+00   4.450232372127942e+00  -5.827769999999788e-02  8.34957120e-01  -9.31174000e-03  -1.24194270e-01
C     7.268455576799999e+00   4.807091624064329e+00   3.618816900000000e+00  2.78057663e+00  -2.34983444e+00  -1.01272961e+00
C     8.517240500699998e+00   5.505397470191018e+00   3.567536700000000e+00  1.94050590e-01   1.42630395e+00   4.06194380e-01
C     9.946818236699999e+00   3.734381421167998e+00  -2.705246999999993e-01 -2.51394460e-01   1.85166950e+00   1.33111020e+00
C     1.118062128500000e+01   4.468736578618311e+00  -4.132071000000010e-01 -8.41283190e-01  -3.44620130e-01   2.57152750e-01
C     9.732023066699998e+00   4.784194523632524e+00   3.438717300000000e+00  1.66183487e+00   1.55265171e+00  -2.80710600e-01
C     1.104683469180000e+01   5.442678182045104e+00   3.351970200000000e+00 -2.19609047e+00   1.24608871e+00  -1.63919630e-01
C     3.825031803600000e+00   5.919479449227343e+00  -2.711556000000002e-01 -4.40521170e-01   1.46960798e+00   5.81075390e-01
C     5.022113599000000e+00   6.638876053508899e+00   6.726600000000000e-03  2.67646670e-01  -3.86817920e-01  -7.90132890e-01
C     1.344913061340000e+01   6.911965904834390e+00   3.503183400000000e+00 -1.08872670e-01  -1.25839314e+00   8.04613600e-01
C     4.805158842500000e+00   7.606930265380045e+00   3.686292600000000e+00  1.34964936e+00  -1.07767445e+00  -7.13016520e-01
C     6.238853276400000e+00   5.904203842599462e+00  -1.382579999999933e-02  2.09039881e+00   3.31218910e-01   5.47103660e-01
C     7.534460727400001e+00   6.574570985726744e+00   5.432580000000000e-02 -2.42710404e+00   2.20923588e+00   2.38778760e-01
C     6.060566679099999e+00   6.938915448859794e+00   3.722832000000000e+00  2.20537570e-01  -3.26803555e+00  -5.29128000e-01
C     7.308326409499999e+00   7.612586505921997e+00   3.688265100000000e+00 -1.34372171e+00   1.47951941e+00  -2.00155130e-01
C     8.732450382300000e+00   5.877700205701323e+00  -3.800670000000039e-02  1.04438451e+00   1.39032700e-02  -6.47842910e-01
C     9.970654343000000e+00   6.599699585767287e+00  -2.008343999999980e-01  9.71654800e-01   1.28005682e+00  -1.33108500e-02
C     8.552835297900000e+00   6.986360752789818e+00   3.656499000000000e+00 -2.05051049e+00  -5.09782547e+00  -4.69706760e-01
C     9.752953135199999e+00   7.602056283588166e+00   3.550688400000000e+00  2.15961465e+00  -9.72946280e-01  -5.81209040e-01
C     1.121132340230000e+01   5.895062575710307e+00  -3.654270000000004e-01 -4.13171420e-01   9.03726400e-02   4.39551200e-01
C     1.246675657910000e+01   6.604484420289755e+00  -2.689118999999991e-01 -2.51415825e+00   1.19077732e+00   4.39895740e-01
C     1.099381392220000e+01   6.862213018712251e+00   3.371156400000000e+00  2.16357200e-01   5.79496410e-01   1.53155329e+00
C     1.220944784990000e+01   7.590317449710995e+00   3.539932800000000e+00  4.57920210e-01   9.14661010e-01  -1.56817465e+00
