64
Lattice="9.86 0 0 4.93 8.53901048131456 0 0 0 30 " PBC="1 1 1" Properties=species:S:1:pos:R:3:force:R:3 Energy="-512.83108233"
C     5.037010678600000e+00   7.891238754064266e+00   3.772020000000000e-02  1.50416590e-01   1.17763074e+00  -5.16889160e-01
C     1.354509562700000e+00   1.517174664341336e-01  -2.288370000000128e-02 -1.50232015e+00  -2.45485792e+00   1.16853599e+00
C     9.797984100299999e+00   5.915009277241063e-01   3.080104800000000e+00 -1.42958945e+00   1.99828211e+00  -1.82789110e-01
C     1.119389087300000e+00   1.403347519890316e+00   3.147111900000000e+00  1.87592490e+00  -5.14469012e+00  -6.49194400e-02
C     7.468557325500000e+00   7.943177712259390e+00   5.019300000000000e-02  1.03063170e-01  -3.27522087e+00  -6.48631840e-01
C     3.759651573300000e+00   1.092728632115120e-02   1.627419000000000e-01  1.45392863e+00   4.01006365e+00  -3.31839820e-01
C     2.372668445700000e+00   6.706087117337608e-01   3.179275800000000e+00  4.17494750e-01  -3.89077610e-01   6.03184460e-01
C     3.639390336500000e+00   1.376233941473591e+00   3.325864200000000e+00 -2.77358389e+00  -1.18347988e+00  -4.10010830e-01
C     9.916801537300000e+00   7.873754020035103e+00   1.271832000000000e-01  6.66813150e-01   9.21617170e-01   8.54132330e-01
C     6.221722364499999e+00   5.152823179103600e-02   1.345596000000000e-01  1.04017384e+00   3.91192620e-01  -2.35018710e-01
C     4.834956452699999e+00   6.604822992055288e-01   3.326438400000000e+00 -2.25483230e-01  -2.11043702e+00  -4.04600300e-02
C     6.026001512400000e+00   1.347131029785341e+00   3.277912800000000e+00  1.75660048e+00   6.11133910e-01  -5.45850150e-01
C     1.240342284110000e+01   7.882462615263236e+00   1.583376000000000e-01  2.50216440e-01   6.78709140e-01  -6.44441810e-01
C     8.722554097499998e+00   4.150462894898320e-02   4.103759999999999e-02  7.79427400e-02   1.45743340e+00   6.85931610e-01
C     7.285812036199999e+00   6.945448389607728e-01   3.153504000000000e+00  3.20108220e-01  -8.70436960e-01  -1.21523000e-02
C     8.554768646699999e+00   1.337944164580223e+00   3.010101000000000e+00 -9.73141790e-01  -6.72243830e-01   1.08751240e+00
C     1.384738449300000e+00   1.540180039426028e+00   2.015004000000000e-01 -3.86342405e+00  -1.51075336e+00  -2.76349980e-01
C     2.547012965700000e+00   2.200205757741191e+00   2.620170000000000e-01  4.18355845e+00   1.02248237e+00   7.51828740e-01
C     1.101531917380000e+01   2.736185868544128e+00   3.220557600000000e+00 -1.38992147e+00   4.37123030e+00   8.43608170e-01
C     2.385798317499999e+00   3.497496120376658e+00   3.471635100000000e+00 -1.00122335e+00  -8.28234270e-01  -4.83177120e-01
C     3.818113929000000e+00   1.495649868283771e+00   2.438694000000000e-01 -1.83100111e+00  -1.87459338e+00  -6.33448330e-01
C     5.021579532100000e+00   2.205180414466629e+00   1.876167000000000e-01  1.23182121e+00  -2.66773108e+00  -4.20454300e-01
C     3.584537825400000e+00   2.766601823873888e+00   3.412260600000000e+00  2.10360789e+00   1.46703028e+00   8.99611170e-01
C     4.871822203900000e+00   3.470226790408778e+00   3.473370600000000e+00 -3.36986986e+00   2.66054846e+00  -1.33318432e+00
C     6.291110290400000e+00   1.473621782948515e+00   6.041640000000000e-02 -1.70582337e+00   5.00747760e-01   7.53269010e-01
C     7.497550556899999e+00   2.224804085230927e+00   7.966770000000001e-02  7.35777500e-01  -1.43260259e+00  -2.99527550e-01
C     6.011688687099999e+00   2.747349002334737e+00   3.227319600000000e+00  2.59678367e+00   1.22256720e+00   1.12852860e+00
C     7.283364636299999e+00   3.447039961351386e+00   3.189868200000000e+00 -8.36542420e-01   2.12178694e+00  -6.35542310e-01
C     8.755997837099999e+00   1.508831453371642e+00   1.240905000000000e-01 -7.03524400e-01  -9.37599020e-01  -5.24037300e-02
C     9.974457788700001e+00   2.210934853629102e+00   3.207030000000000e-01 -1.85329000e-01   3.84853830e-01  -1.82704240e+00
C     8.486474885000000e+00   2.755663351449008e+00   3.063000300000000e+00  1.77438835e+00  -8.99072520e-01   2.96135490e-01
C     9.728769956899999e+00   3.402282567140257e+00   3.135933000000000e+00  1.53148012e+00   3.63147364e+00   5.50536200e-01
C     2.603484981800000e+00   3.601409473660399e+00   4.171875000000000e-01 -2.03551681e+00   1.49705239e+00  -8.20681930e-01
C     3.802073681000000e+00   4.292110391663495e+00   2.500419000000000e-01 -2.08826130e-01   1.92072570e+00  -6.80945220e-01
C     1.224699813160000e+01   4.915224529376761e+00   3.594723900000000e+00 -2.13643843e+00  -1.45235360e-01  -1.49443784e+00
C     3.558747072700000e+00   5.672306775560225e+00   3.403952100000000e+00  1.65224666e+00  -5.55287270e-01   2.41934060e-01
C     4.982460573699999e+00   3.564773788487111e+00   1.510806000000000e-01  2.58232396e+00   3.22039683e+00  -3.48815590e-01
C     6.240117624200000e+00   4.322922215519108e+00   9.439200000000000e-03 -5.55162740e-01   2.05628400e-02  -2.78248480e-01
C     4.821432180900000e+00   4.968998179363618e+00   3.350243700000000e+00  8.83304260e-01  -1.97155735e+00   6.64644790e-01
C     6.097516585399999e+00   5.645264327100798e+00   3.227582700000000e+00 -6.44771870e-01  -1.93413863e+00  -3.18990970e-01
C     7.467031884900000e+00   3.629472504652394e+00   3.087690000000000e-02  1.48713214e+00   1.09617963e+00   1.08627280e-01
C     8.747332326799999e+00   4.377772036996758e+00   9.851700000000001e-02 -1.12897296e+00  -2.46188047e+00   2.93498040e-01
C     7.344658290999999e+00   4.925956186967817e+00   3.169471500000000e+00 -1.71350058e+00  -2.05037317e+00   5.45431290e-01
C     8.568606614400000e+00   5.627988542658081e+00   3.193836600000000e+00 -1.48847808e+00  -4.54040250e-01  -4.71980230e-01
C     9.946636861999998e+00   3.638792407640790e+00   2.845626000000000e-01  1.45283584e+00   5.12360190e-01   3.30174440e-01
C     1.122790373180000e+01   4.366988462221985e+00   4.156401000000000e-01 -1.78520734e+00  -1.33590729e+00  -4.57487230e-01
C     9.759815399399999e+00   4.911090794403393e+00   3.204526800000000e+00  6.28947680e-01  -2.74889455e+00   9.66418510e-01
C     1.095870724430000e+01   5.580912721711527e+00   3.439095600000000e+00  2.39854486e+00   2.20814124e+00   1.82163800e-02
C     3.802202058200000e+00   5.751111851648363e+00   3.345540000000000e-02 -1.04008998e+00  -5.15281990e-01   2.34388215e+00
C     5.028188147800000e+00   6.465874676502842e+00   5.816820000000000e-02  8.65318340e-01   2.32518480e-01  -1.57401719e+00
C     1.342443801820000e+01   7.086466048959898e+00   3.217917600000000e+00  6.55883820e-01  -4.10774920e-01   4.26573810e-01
C     4.840890447200000e+00   7.714768147880394e+00   3.132865200000000e+00 -3.01719230e-01   9.09466400e-01  -2.84056490e-01
C     6.279756401799999e+00   5.761650698382779e+00  -9.149999999999991e-02 -4.72751310e-01  -1.05533587e+00   1.11547140e+00
C     7.532285562100000e+00   6.431266323197716e+00  -3.146850000000256e-02 -2.47821664e+00   2.90853706e+00   5.70038000e-03
C     6.074010789099999e+00   7.015357012237173e+00   3.104849700000000e+00  2.79530420e-01   2.00106204e+00   7.14950690e-01
C     7.292014469200000e+00   7.772637192683564e+00   3.147048000000000e+00  4.86179100e-01  -2.27299700e-01  -1.57405980e-01
C     8.748259807699998e+00   5.769677112063665e+00   1.084473000000000e-01 -1.39253215e+00  -3.24362480e-01  -1.72232830e-01
C     9.904787817499999e+00   6.495479682007316e+00   2.689599000000000e-01  2.49655444e+00  -1.04890924e+00  -3.82414580e-01
C     8.523394964799998e+00   7.021879535392322e+00   3.190944000000000e+00  1.06001311e+00   2.26315857e+00   6.68553350e-01
C     9.782384397100000e+00   7.746682784939498e+00   3.304021800000000e+00 -1.47079896e+00   7.70502820e-01   5.91301000e-03
C     1.113435343220000e+01   5.774931592162533e+00   3.929781000000000e-01  2.42081454e+00   4.44368820e-01  -8.84860070e-01
C     1.241719967680000e+01   6.486508170646505e+00   2.340882000000000e-01 -3.61420400e-01  -1.61268972e+00  -4.16404240e-01
C     1.101425084280000e+01   7.082931240181597e+00   3.391041600000000e+00 -8.45016920e-01  -1.90483576e+00  -3.86052440e-01
C     1.221452195380000e+01   7.833424529708378e+00   3.234377700000000e+00  2.41861850e-01  -1.60840977e+00   6.97248930e-01
