2
Lattice="0.0 1.78356 1.78356 1.78356 0.0 1.78356 1.78356 1.78356 0.0" Properties=species:S:1:pos:R:3 Energy=-10.532265625 pbc="T T T"
C        0.00000000       0.00000000       0.00000000
C        0.89178000       0.89178000       0.89178000
