2
Lattice="0.0 1.81204 1.81204 1.81204 0.0 1.81204 1.81204 1.81204 0.0" Properties=species:S:1:pos:R:3 Energy=-10.508189355 pbc="T T T"
C        0.00000000       0.00000000       0.00000000
C        0.90602000       0.90602000       0.90602000
