2
Lattice="0.0 1.9259600000000001 1.9259600000000001 1.9259600000000001 0.0 1.9259600000000001 1.9259600000000001 1.9259600000000001 0.0" Properties=species:S:1:pos:R:3 Energy=-10.144646955 pbc="T T T"
C        0.00000000       0.00000000       0.00000000
C        0.96298000       0.96298000       0.96298000
