2
Lattice="0.0 1.88324 1.88324 1.88324 0.0 1.88324 1.88324 1.88324 0.0" Properties=species:S:1:pos:R:3 Energy=-10.32297256 pbc="T T T"
C        0.00000000       0.00000000       0.00000000
C        0.94162000       0.94162000       0.94162000
