2
Lattice="0.0 1.6696400000000002 1.6696400000000002 1.6696400000000002 0.0 1.6696400000000002 1.6696400000000002 1.6696400000000002 0.0" Properties=species:S:1:pos:R:3 Energy=-10.227738155 pbc="T T T"
C        0.00000000       0.00000000       0.00000000
C        0.83482000       0.83482000       0.83482000
