2
Lattice="0.0 1.7266000000000001 1.7266000000000001 1.7266000000000001 0.0 1.7266000000000001 1.7266000000000001 1.7266000000000001 0.0" Properties=species:S:1:pos:R:3 Energy=-10.470617690000001 pbc="T T T"
C        0.00000000       0.00000000       0.00000000
C        0.86330000       0.86330000       0.86330000
