2
Lattice="0.0 1.69812 1.69812 1.69812 0.0 1.69812 1.69812 1.69812 0.0" Properties=species:S:1:pos:R:3 Energy=-10.374704475 pbc="T T T"
C        0.00000000       0.00000000       0.00000000
C        0.84906000       0.84906000       0.84906000
