2
Lattice="0.0 1.8262800000000001 1.8262800000000001 1.8262800000000001 0.0 1.8262800000000001 1.8262800000000001 1.8262800000000001 0.0" Properties=species:S:1:pos:R:3 Energy=-10.484442175 pbc="T T T"
C        0.00000000       0.00000000       0.00000000
C        0.91314000       0.91314000       0.91314000
