2
Lattice="0.0 1.7693200000000002 1.7693200000000002 1.7693200000000002 0.0 1.7693200000000002 1.7693200000000002 1.7693200000000002 0.0" Properties=species:S:1:pos:R:3 Energy=-10.53148898 pbc="T T T"
C        0.00000000       0.00000000       0.00000000
C        0.88466000       0.88466000       0.88466000
