2
Lattice="0.0 1.68388 1.68388 1.68388 0.0 1.68388 1.68388 1.68388 0.0" Properties=species:S:1:pos:R:3 Energy=-10.308015685 pbc="T T T"
C        0.00000000       0.00000000       0.00000000
C        0.84194000       0.84194000       0.84194000
