2
Lattice="0.0 1.89748 1.89748 1.89748 0.0 1.89748 1.89748 1.89748 0.0" Properties=species:S:1:pos:R:3 Energy=-10.268284055 pbc="T T T"
C        0.00000000       0.00000000       0.00000000
C        0.94874000       0.94874000       0.94874000
