2
Lattice="0.0 1.7550800000000002 1.7550800000000002 1.7550800000000002 0.0 1.7550800000000002 1.7550800000000002 1.7550800000000002 0.0" Properties=species:S:1:pos:R:3 Energy=-10.52134809 pbc="T T T"
C        0.00000000       0.00000000       0.00000000
C        0.87754000       0.87754000       0.87754000
