2
Lattice="0.0 1.8405200000000002 1.8405200000000002 1.8405200000000002 0.0 1.8405200000000002 1.8405200000000002 1.8405200000000002 0.0" Properties=species:S:1:pos:R:3 Energy=-10.45355373 pbc="T T T"
C        0.00000000       0.00000000       0.00000000
C        0.92026000       0.92026000       0.92026000
