2
Lattice="0.0 1.71236 1.71236 1.71236 0.0 1.71236 1.71236 1.71236 0.0" Properties=species:S:1:pos:R:3 Energy=-10.42865284 pbc="T T T"
C        0.00000000       0.00000000       0.00000000
C        0.85618000       0.85618000       0.85618000
