2
Lattice="0.0 1.9402000000000001 1.9402000000000001 1.9402000000000001 0.0 1.9402000000000001 1.9402000000000001 1.9402000000000001 0.0" Properties=species:S:1:pos:R:3 Energy=-10.07639517 pbc="T T T"
C        0.00000000       0.00000000       0.00000000
C        0.97010000       0.97010000       0.97010000
