64
Lattice="7.10842262195238 0 0 0 7.10842262195238 0 0 0 7.10842262195238 " PBC="1 1 1" Properties=species:S:1:pos:R:3:force:R:3 Energy="-513.2008102"
C     7.057134355617533e+00   3.181978759503699e-02   3.800944659140200e-02  1.93759493e+00  -6.91926240e-01  -7.27547230e-01
C     1.771892480018944e+00   1.764660797350714e+00   7.106333667844660e+00  1.14543480e-01   4.19448080e-01  -2.75900100e-02
C     1.053916062909060e-02   1.781381371205930e+00   1.852800830616689e+00 -3.81536540e-01   7.79476570e-01  -2.80842172e+00
C     1.778753458447542e+00   3.722147794397500e-02   1.792052961748431e+00 -1.15218286e+00  -1.03177607e+00  -7.00664220e-01
C     8.814860602365532e-01   9.194079310612768e-01   8.918555428177044e-01 -2.98019750e-01  -4.39273160e-01   1.15802171e+00
C     2.682338040756699e+00   2.655480998413815e+00   8.597753737020968e-01 -3.92087200e-02  -3.36711800e-02   1.20601210e+00
C     8.935128004673312e-01   2.700965022474373e+00   2.675533574287930e+00  7.33147670e-01  -1.54332285e+00   3.58450960e-01
C     2.670996836803394e+00   8.886522743324538e-01   2.680447555760910e+00 -6.01992380e-01   2.28950740e-01   1.57055610e-01
C     3.578247019405006e+00   7.082018668514915e+00   7.106931415102776e+00 -1.74401577e+00   3.68964240e-01   7.96423870e-01
C     5.314965176110309e+00   1.741941212393801e+00   1.097341416694640e-02  1.14782390e+00   1.81836632e+00   6.44952530e-01
C     3.531854396765159e+00   1.743999100742291e+00   1.794993431849421e+00  1.39184375e+00   1.24315267e+00  -4.73888860e-01
C     5.311635377702423e+00   2.113262960699800e-03   1.823775506122026e+00  2.84954310e-01  -8.84543100e-02  -4.52191910e-01
C     4.425844456727197e+00   8.565226305954110e-01   9.385735890450946e-01  2.18916250e-01   4.66805350e-01  -1.48040728e+00
C     6.217505815473492e+00   2.712600372955694e+00   8.784312866998344e-01  2.57270430e-01  -2.24478245e+00   1.05621527e+00
C     4.488447552815050e+00   2.669043655520097e+00   2.665843870161929e+00 -2.26279761e+00   4.36771270e-01  -8.24527730e-01
C     6.210758571806815e+00   8.879671645603382e-01   2.699944750575725e+00  2.39330560e-01   7.78102600e-01  -3.18298050e-01
C     3.279406799933420e-02   3.575840107505873e+00   1.675106898825620e-02 -1.44204813e+00  -1.64522615e+00  -7.98306150e-01
C     1.741886761876531e+00   5.311587893439321e+00   7.025492491840675e+00  8.32470130e-01   2.35179380e-01   3.43938145e+00
C     1.559054791131500e-02   5.355431506811862e+00   1.790249768182416e+00 -6.37052490e-01  -9.13758700e-01  -8.02052550e-01
C     1.802544211609063e+00   3.564397324193329e+00   1.775107193064613e+00 -6.03188190e-01  -6.72302060e-01  -4.16822120e-01
C     9.025461128486011e-01   4.407843158368535e+00   9.164113044215895e-01 -2.60638120e-01   2.04324646e+00  -1.85388452e+00
C     2.584450014299239e+00   6.223428695368930e+00   8.966415726835241e-01  2.65829575e+00  -3.07068790e-01  -1.40742321e+00
C     8.691183289726938e-01   6.238666594434066e+00   2.650210316293764e+00  6.55891920e-01  -1.00868040e-01   1.22074868e+00
C     2.654062370511542e+00   4.465554451261982e+00   2.636409740282391e+00  7.22564820e-01  -5.21169530e-01   4.21314730e-01
C     3.595828494323730e+00   3.526208745351903e+00   7.094053370179027e+00 -8.01997740e-01   8.32943450e-01  -7.50285950e-01
C     5.369216799714601e+00   5.326038747951971e+00   7.075042249302967e+00 -1.35125206e+00   1.88491650e-01   7.65400200e-01
C     3.514764398186381e+00   5.351021512502640e+00   1.768390231278297e+00  1.00092604e+00  -4.88488900e-02  -8.02382880e-01
C     5.311093644814552e+00   3.567397078538969e+00   1.760086171973613e+00  1.13852627e+00  -3.74496000e-03  -6.85314520e-01
C     4.473093359955849e+00   4.428296364941514e+00   8.102963450448724e-01 -1.42077509e+00   1.13086777e+00   2.69317855e+00
C     6.207323071154568e+00   6.240285537685771e+00   9.204515896703451e-01  1.89231520e-01  -6.45668090e-01  -6.89810310e-01
C     4.431600999533326e+00   6.242771210907533e+00   2.698605665922569e+00 -4.73566530e-01  -1.11180809e+00  -7.02966380e-01
C     6.212857262501143e+00   4.437672800882651e+00   2.639828393973027e+00 -9.66544700e-02   9.85964590e-01   7.34528360e-01
C     7.086146031940765e+00   7.603879676614000e-04   3.552832062759041e+00  9.32379490e-01   7.35370700e-02   9.38985210e-01
C     1.808158443794339e+00   1.760124841792665e+00   3.586116327582251e+00 -1.23153582e+00   1.05829416e+00  -2.02473980e-01
C     7.103405068809447e+00   1.757136460923217e+00   5.317062729457018e+00  2.29787930e-01   1.14825063e+00   1.13279067e+00
C     1.776135426396596e+00   7.106677217909885e+00   5.364953381079804e+00 -1.08220799e+00  -5.28470810e-01  -1.36990435e+00
C     8.823704190947074e-01   8.906613989017705e-01   4.481868494427561e+00  4.50173170e-01  -6.43526170e-01  -1.51792921e+00
C     2.693742509671322e+00   2.649547811305580e+00   4.457503878307928e+00 -1.44182130e-01   4.26884640e-01  -8.40385290e-01
C     8.985968864936076e-01   2.637391982120022e+00   6.216179739233731e+00 -2.50473520e-01   1.16401588e+00   1.23845410e-01
C     2.642944655365409e+00   8.798832531041956e-01   6.220947358284966e+00  1.69291990e+00  -3.36559840e-01   6.22398720e-01
C     3.529145874494261e+00   1.964419699459620e-02   3.572947832510248e+00  6.81798490e-01  -1.00397214e+00  -3.58174400e-01
C     5.357225957018055e+00   1.831564915629023e+00   3.565883908615850e+00 -1.23616108e+00  -2.44561446e+00   5.51337000e-03
C     3.570478437576286e+00   1.752602566807729e+00   5.350292472678733e+00 -1.57009280e-01   1.06504683e+00  -3.45971620e-01
C     5.341175209826321e+00   6.179707204696999e-03   5.379847161405906e+00 -2.11425870e-01  -3.09303400e-02  -2.34605966e+00
C     4.422524467942527e+00   8.795748186467138e-01   4.448223263903707e+00  1.05001421e+00   7.35569200e-01   7.71961280e-01
C     6.235610470297050e+00   2.657944493357002e+00   4.436941699616184e+00  4.65971210e-01   8.73999070e-01  -3.56354760e-01
C     4.495779535326448e+00   2.659509483681021e+00   6.232372015119830e+00 -1.39766628e+00  -7.89506130e-01  -1.21211038e+00
C     6.223407938774879e+00   9.091158592024573e-01   6.230499798770174e+00 -7.32300450e-01  -7.86754810e-01   3.69087820e-01
C     7.095008813263381e+00   3.564997132894004e+00   3.521725747542374e+00  1.28055519e+00  -1.96861490e-01   1.04566888e+00
C     1.784270945000960e+00   5.323396689432569e+00   3.562070808554029e+00 -1.10057528e+00   4.85861620e-01  -1.42940517e+00
C     7.095617365323879e+00   5.308395003251095e+00   5.332699766452269e+00  7.61897990e-01   8.81602680e-01  -9.16017200e-01
C     1.792778305192576e+00   3.536015667366907e+00   5.333578154235422e+00  9.53446000e-03  -4.62710350e-01  -7.58776200e-01
C     9.294673442477435e-01   4.424729145218119e+00   4.425497210282210e+00 -1.92602653e+00   2.91513930e-01   5.70263310e-01
C     2.621746699354533e+00   6.209807109439129e+00   4.404255395303768e+00  1.39877664e+00   7.24431980e-01   1.93841692e+00
C     8.597489303699504e-01   6.212602354465990e+00   6.209289331935487e+00 -2.86559080e-01   1.10293570e-01   5.63872990e-01
C     2.679917978275720e+00   4.431925285773250e+00   6.177005933017173e+00 -4.77620590e-01  -2.43511290e-01   1.08737458e+00
C     3.544432963843928e+00   3.580884528533931e+00   3.482418729485917e+00  1.05262077e+00  -1.24574489e+00   2.63151746e+00
C     5.329560402686372e+00   5.319131778029022e+00   3.557009114059006e+00 -1.69972280e-01   1.03264240e+00   3.67419900e-02
C     3.516064315430901e+00   5.314879732870416e+00   5.296748919051618e+00  1.89187861e+00   7.28174250e-01   3.48973830e-01
C     5.374534397423945e+00   3.566176349122436e+00   5.273210657061560e+00 -1.55001893e+00  -1.15063041e+00   2.32135168e+00
C     4.446610789316587e+00   4.439113109473915e+00   4.440838679064920e+00 -4.54413850e-01   1.62285390e-01  -1.33490509e+00
C     6.228601281256824e+00   6.236223571748024e+00   4.446836694987450e+00 -5.60968430e-01  -1.17356453e+00   2.35212210e-01
C     4.465347951584871e+00   6.224236567599692e+00   6.211875660421548e+00 -1.07089124e+00  -7.68277940e-01   2.16212700e-01
C     6.202708709695022e+00   4.423607578297136e+00   6.198110057849465e+00  2.22754699e+00   9.20161680e-01   1.52156680e-01
