64
Lattice="7.10842262195238 0 0 0 7.10842262195238 0 0 0 7.10842262195238 " PBC="1 1 1" Properties=species:S:1:pos:R:3:force:R:3 Energy="-514.33436664"
C     7.104126929126507e+00   7.091922051824872e+00   7.080882102822202e+00  7.46033400e-01   1.05411434e+00   4.73657300e-01
C     1.796870695179136e+00   1.809592354805245e+00   2.539683016828360e-02 -9.57178080e-01  -1.44124017e+00  -1.75320337e+00
C     1.269564279932000e-03   1.777536069989641e+00   1.757590475875957e+00 -4.85365290e-01   1.41939250e-01   2.76458310e-01
C     1.762860589322199e+00   1.572368866698760e-02   1.772298939624356e+00  5.99338090e-01  -7.11577420e-01   6.60111810e-01
C     8.814149049261271e-01   9.003155609146712e-01   8.751885664690428e-01  4.72355900e-01  -3.17847840e-01   1.59548510e-01
C     2.660516249576692e+00   2.672350422638694e+00   8.874673713659259e-01  3.87763900e-01  -9.05906000e-03   8.83451900e-01
C     8.586168429834892e-01   2.672745579852140e+00   2.669482956038012e+00  1.16172644e+00  -6.54645780e-01  -4.16670500e-02
C     2.659073595205963e+00   8.911022632726628e-01   2.693447296879913e+00  4.78876850e-01   1.64767860e-01  -1.37329950e+00
C     3.538442127428244e+00   7.092453975089527e+00   1.226295311444060e-02  2.57013890e-01   7.01875600e-01  -6.67535120e-01
C     5.316589166342074e+00   1.769017549574512e+00   7.102615891730174e+00  4.32127320e-01   5.56682700e-01  -7.50020630e-01
C     3.570518671248316e+00   1.779607180004204e+00   1.774526861441916e+00 -1.02416492e+00  -3.83463200e-02   4.95351650e-01
C     5.330445472386788e+00   4.510294152390000e-04   1.773410270416767e+00  7.98335850e-01   2.48266510e-01   1.14299500e-01
C     4.439551272644212e+00   9.054276541260704e-01   8.868651458015595e-01  2.72204100e-02  -1.06288013e+00  -1.93579000e-03
C     6.211490739336675e+00   2.667884129622322e+00   8.347265008210621e-01  2.61882140e-01  -5.27981160e-01   1.84077562e+00
C     4.440731626220264e+00   2.665631896999401e+00   2.666162825084889e+00  4.48542480e-01  -3.56657890e-01   1.01643600e-02
C     6.239691700060096e+00   8.957879932953146e-01   2.677205262035475e+00 -9.35170440e-01  -3.16896620e-01  -5.12518150e-01
C     2.035717178338220e-02   3.560598796397879e+00   7.092122296090078e+00 -1.19582712e+00  -3.39454630e-01   4.96432120e-01
C     1.783547662999375e+00   5.360096835661594e+00   9.034307560436600e-03 -5.43757300e-02  -1.40483991e+00   2.53775850e-01
C     7.087031243809633e+00   5.335322845483275e+00   1.753922529804037e+00  5.91901110e-01  -2.02034340e-01   1.26098056e+00
C     1.768042416159500e+00   3.541327009664345e+00   1.792923956772060e+00 -1.34050830e-01   1.06496559e+00  -2.35231820e-01
C     8.434314040772880e-01   4.456366175267596e+00   9.179270333768522e-01  2.21782119e+00  -5.58462630e-01  -1.52299106e+00
C     2.680801697375839e+00   6.199473737644887e+00   9.206575917578729e-01 -4.78098290e-01   1.00257025e+00  -8.59398630e-01
C     8.760464109108244e-01   6.216318282390596e+00   2.654288347266631e+00  1.13368600e-02   2.02904060e-01   2.66691580e-01
C     2.678358674689797e+00   4.445472801939351e+00   2.664319611099523e+00 -3.00785730e-01  -7.44442680e-01   4.47171180e-01
C     3.555853284540994e+00   3.544043564452804e+00   1.591454981433460e-02 -4.94898010e-01   4.88498280e-01  -8.10506890e-01
C     5.335186150516292e+00   5.360248813737210e+00   1.239772880731580e-02  5.65657800e-02  -1.76970564e+00  -8.57550150e-01
C     3.584209493214436e+00   5.313851641706886e+00   1.779485341640497e+00 -7.48499410e-01   2.21934410e-01   2.59225720e-01
C     5.324800531815794e+00   3.523304172785145e+00   1.773920584076657e+00  7.29062750e-01   1.12845972e+00  -5.95627090e-01
C     4.455303679338584e+00   4.419789857760613e+00   8.641968836559630e-01 -1.02889890e-01   8.94952940e-01   1.33777893e+00
C     6.251939512234356e+00   6.209758132407275e+00   8.691998625801453e-01 -1.70840585e+00   9.10934010e-01   4.01187540e-01
C     4.459614226815352e+00   6.223425851999881e+00   2.669211982967738e+00 -4.15212700e-02  -9.21445900e-02   7.30338800e-02
C     6.237388144625858e+00   4.435243923957623e+00   2.648916512292697e+00 -1.31501904e+00  -2.39994580e-01   9.70169370e-01
C     7.105418316263883e+00   7.099218847644303e+00   3.569498683686572e+00  2.57947400e-01   5.49772660e-01  -6.40344710e-01
C     1.780249425987921e+00   1.785119974998693e+00   3.545529793454194e+00 -3.98453580e-01  -1.89073710e-01   4.69267140e-01
C     4.177484913744220e-02   1.771711428494813e+00   5.320615447998269e+00 -1.95565273e+00  -3.44548200e-02   8.19600170e-01
C     1.762321060045341e+00   7.101020477357341e+00   5.317900599231238e+00  9.55873400e-01   3.63324280e-01  -2.91584950e-01
C     8.971434984047223e-01   8.968115350683684e-01   4.445130247053293e+00 -3.98917100e-02  -6.36736220e-01  -5.79865500e-01
C     2.657456784481044e+00   2.662362378015332e+00   4.448864514708258e+00  2.85807560e-01   5.57502700e-01  -6.77535470e-01
C     8.921556604207208e-01   2.662183814439118e+00   6.221668507759765e+00  6.44034610e-01   7.67076910e-01  -1.58909850e-01
C     2.642226989017694e+00   8.832730465989950e-01   6.182958810456067e+00  9.92755860e-01   2.00522760e-01   1.66931991e+00
C     3.573675095228500e+00   1.491318631985520e-02   3.565914190496211e+00 -6.49673990e-01  -3.28943010e-01  -5.22462690e-01
C     5.327762398268869e+00   1.783969405713420e+00   3.564229352166818e+00  1.98688660e-01  -5.73602450e-01  -3.53296840e-01
C     3.559414035599804e+00   1.788018292153545e+00   5.312493790818014e+00 -9.51145620e-01  -1.72660920e-01   8.99881240e-01
C     5.321574516378159e+00   6.351944284779600e-03   5.358821300306661e+00  4.55732920e-01   3.12192150e-01  -1.36331684e+00
C     4.448314962555505e+00   9.248685502337346e-01   4.453945686281260e+00 -9.31642300e-02  -1.51977320e+00  -3.03445780e-01
C     6.184309410753866e+00   2.623022945551728e+00   4.468792835354975e+00  1.56333079e+00   1.95126863e+00  -5.58205170e-01
C     4.409735349385754e+00   2.673413771578420e+00   6.222945322630768e+00  9.86099060e-01  -2.39393500e-01  -1.93404940e-01
C     6.221932372407419e+00   8.949713777047291e-01   6.202647079670906e+00  9.86984100e-02  -5.93233910e-01   6.68173420e-01
C     7.095387621104801e+00   3.520312379872839e+00   3.577652328768617e+00 -1.97297610e-01   1.21521175e+00  -6.21218400e-01
C     1.754567405904123e+00   5.321486798443028e+00   3.555757320835624e+00  8.65837300e-01   3.95982390e-01  -8.16042390e-01
C     7.105669314666595e+00   5.334230636347712e+00   5.340214080003870e+00  1.73020850e-01  -2.62861330e-01   5.28860000e-02
C     1.770379807685408e+00   3.571621400849356e+00   5.317755089820206e+00  3.51931340e-01  -5.37333060e-01   8.87612970e-01
C     8.728270063062264e-01   4.455908463935095e+00   4.455840436330621e+00  1.33556670e-01  -8.53676270e-01  -4.30979700e-01
C     2.670075656316068e+00   6.217394781912168e+00   4.406231039202546e+00 -1.55796680e-01  -7.75345600e-02   1.34872112e+00
C     9.176711301625321e-01   6.223832027268388e+00   6.208740490624997e+00 -1.14409094e+00  -1.57758840e-01   2.69342420e-01
C     2.671213999114435e+00   4.435139572313561e+00   6.228689638949991e+00 -3.09528800e-01   5.50527460e-01  -1.65618470e-01
C     3.579552054713812e+00   3.533949391079726e+00   3.563582627876850e+00 -1.08866214e+00   8.76968630e-01  -2.56919930e-01
C     5.333385800319324e+00   5.334389580677495e+00   3.578716672887509e+00  4.12947690e-01  -2.71669440e-01  -1.13543890e+00
C     3.562892471124675e+00   5.319225040533797e+00   5.318813889369456e+00 -4.78858950e-01   3.84048700e-01   4.01442680e-01
C     5.328210371062382e+00   3.582788306280019e+00   5.333246475235973e+00 -1.70782150e-01  -1.79155835e+00   7.33225650e-01
C     4.449470720989291e+00   4.436129988837206e+00   4.452899895145405e+00  9.64581900e-02   2.82733170e-01  -4.71171400e-01
C     6.228629217357721e+00   6.219005550477861e+00   4.446366330662685e+00 -6.22897610e-01   1.43975690e-01   6.46219210e-01
C     4.440111416346668e+00   6.223078179049536e+00   6.212763431322560e+00 -1.20294540e-01  -4.12393400e-02   6.24669140e-01
C     6.218315891315268e+00   4.417608851532345e+00   6.233906083805453e+00  2.55532750e-01   1.75560144e+00  -6.34857670e-01
