64
Lattice="7.10842262195238 0 0 0 7.10842262195238 0 0 0 7.10842262195238 " PBC="1 1 1" Properties=species:S:1:pos:R:3:force:R:3 Energy="-512.67495491"
C     1.462664580404300e-02   8.804989846715400e-03   7.041401497085365e+00 -9.00242960e-01  -1.10223530e-01   1.67785440e+00
C     1.753891039491830e+00   1.795715434334934e+00   7.099006092555286e+00  1.67393304e+00   2.79596720e-01  -3.37056990e-01
C     7.098267953950425e+00   1.772316995017811e+00   1.702742953203430e+00  6.80040540e-01  -4.57869720e-01   1.86188570e+00
C     1.739193593798492e+00   2.230758078185780e-02   1.754964269138998e+00  1.33747486e+00  -5.17338900e-01   3.33736000e-01
C     8.944513255058497e-01   9.032605804061372e-01   8.289435857670135e-01 -7.11599260e-01  -4.87773850e-01   8.33272540e-01
C     2.634775442837827e+00   2.693577949687669e+00   9.324471239258214e-01  5.18574860e-01  -9.96085230e-01  -8.91822030e-01
C     8.390451518996169e-01   2.638656997009477e+00   2.704427250795670e+00  3.32297940e-01   4.18463670e-01  -1.70859986e+00
C     2.648795313687026e+00   9.086979550366276e-01   2.672759867781606e+00 -2.72921000e-02  -2.99969940e-01  -2.81523330e-01
C     3.541298718142317e+00   7.071283670842643e+00   4.120255003230600e-03 -7.56999000e-03   1.10223028e+00   3.20711420e-01
C     5.310372850760884e+00   1.805843017294326e+00   1.781370708572000e-04  3.06144990e-01  -1.43501190e+00  -2.37804520e-01
C     3.560053509298699e+00   1.802878805061786e+00   1.820458076369499e+00 -5.70227840e-01  -5.86235690e-01  -1.15632089e+00
C     5.352497576459683e+00   7.089374819663221e+00   1.785564038159764e+00 -5.51680850e-01   4.43807740e-01  -8.33176640e-01
C     4.417616670797226e+00   9.002483863209122e-01   9.340820611284214e-01  7.10998220e-01  -6.79759330e-01  -1.33748983e+00
C     6.255049731467511e+00   2.659828794025112e+00   8.394332717746690e-01 -7.88302830e-01   8.33256490e-01   3.99990610e-01
C     4.506196431086474e+00   2.638940267650884e+00   2.674604858872627e+00 -1.35956494e+00   4.73454680e-01   1.04359630e-01
C     6.248286209513033e+00   8.722729758472236e-01   2.629441140335326e+00 -6.49961070e-01  -2.48256300e-02   8.18265470e-01
C     1.618203975752520e-02   3.586650454457917e+00   7.055717433736689e+00  1.01136170e-01  -2.22518990e-01   1.08384287e+00
C     1.767187130749861e+00   5.269740680559607e+00   3.450065810194380e-02  9.16115360e-01   2.82337316e+00  -1.17815952e+00
C     7.104126360452698e+00   5.339661613397844e+00   1.753139465968218e+00 -1.71620480e-01   2.68297890e-01   4.25133120e-01
C     1.725775379839849e+00   3.533239259659988e+00   1.829489327308209e+00  1.71825441e+00   1.06290032e+00  -2.49125770e-01
C     9.168450603698619e-01   4.468119099059051e+00   9.141636922733718e-01 -1.89072266e+00  -1.86951091e+00  -9.18503800e-02
C     2.656156085310037e+00   6.187617101967405e+00   8.987075646338010e-01  6.54970340e-01   3.39215380e-01   3.58879810e-01
C     8.543643713195266e-01   6.250666678080020e+00   2.661763706662276e+00  1.37940874e+00  -1.10690063e+00  -5.94297470e-01
C     2.697693797468875e+00   4.415175496301066e+00   2.732479005728297e+00 -1.12348538e+00   1.27358384e+00  -2.40432309e+00
C     3.531400879402003e+00   3.554145557090765e+00   3.484193347193000e-03  5.36626860e-01   6.29100000e-03   1.39996766e+00
C     5.306423837658569e+00   5.258085568663403e+00   7.104004877510122e+00  6.57120600e-01   2.17015681e+00   6.80754500e-01
C     3.640957097253288e+00   5.320289455736916e+00   1.817433940134272e+00 -2.62192808e+00  -5.51845930e-01  -9.75412000e-03
C     5.397049188725176e+00   3.520616904697880e+00   1.793849828818315e+00 -9.34511480e-01   9.48563900e-02  -4.04604580e-01
C     4.509611388397349e+00   4.385880549336426e+00   9.668512496485856e-01 -2.08787420e+00   1.06129062e+00  -2.54844738e+00
C     6.192702894015110e+00   6.209735527623344e+00   8.214474697773188e-01  1.00648250e+00   1.08840220e-01   1.49381827e+00
C     4.471559291270228e+00   6.227528335946562e+00   2.700601426657360e+00  3.04364570e-01   3.21487300e-01  -4.78442100e-01
C     6.221184708516247e+00   4.440163805421378e+00   2.654738665839608e+00  1.18013280e-01   3.63780430e-01   7.13106180e-01
C     1.551391911547140e-02   7.089351219700124e+00   3.558072036493374e+00 -1.07834696e+00   1.02116710e+00  -1.88547450e-01
C     1.732110903668376e+00   1.764998802846295e+00   3.580597419344309e+00  3.23823740e-01  -7.11477080e-01  -1.12430716e+00
C     5.741401865947800e-03   1.743432914880608e+00   5.310981758242513e+00  4.14751370e-01   1.44063765e+00   3.65022430e-01
C     1.783453902905017e+00   1.509608603386780e-02   5.326301617420459e+00  8.15902960e-01  -1.30611327e+00   1.39394060e-01
C     8.690058737268455e-01   8.324281345353376e-01   4.464219844915077e+00  1.01523665e+00   1.82273598e+00  -8.33782710e-01
C     2.629873758935979e+00   2.665472383995808e+00   4.365182741941093e+00  8.42003480e-01   1.96433780e-01   2.78172527e+00
C     9.250207415620288e-01   2.720435560704363e+00   6.171499464518817e+00 -1.42367106e+00  -2.11526714e+00   7.12893980e-01
C     2.676778045836013e+00   8.892045987700278e-01   6.202839078165873e+00 -5.23964860e-01   8.03176640e-01   5.97596620e-01
C     3.575331570951639e+00   3.519834978209680e-02   3.529677655590463e+00 -7.68632230e-01  -2.70922450e-01   1.53420268e+00
C     5.352012284447415e+00   1.755499675530736e+00   3.559898332432905e+00  4.32630700e-01   2.78401080e-01   2.94606060e-01
C     3.541733611438209e+00   1.852495594949386e+00   5.316446287047413e+00 -7.87869900e-01  -2.37782714e+00   2.62828580e-01
C     5.306498973685663e+00   7.105310552576963e+00   5.351144914719323e+00  4.71628480e-01   9.54741180e-01   4.91004450e-01
C     4.429783944543201e+00   9.553952446699673e-01   4.512276620374491e+00  6.48533800e-01  -2.20386430e+00  -2.82859304e+00
C     6.262810422947122e+00   2.643898463512561e+00   4.440329573836876e+00 -2.28212369e+00   1.26743450e-01   4.84115770e-01
C     4.411601239239277e+00   2.668658592266771e+00   6.206761576851815e+00  3.80815390e-01   6.82074000e-01   1.49478599e+00
C     6.238487391099816e+00   9.016269227196088e-01   6.195976678052751e+00 -1.55181651e+00  -1.74260970e-01   8.23678410e-01
C     7.051964399846007e+00   3.540054602015365e+00   3.550199956031308e+00  2.07514386e+00   1.16712485e+00   2.68947840e-01
C     1.780555443581712e+00   5.370163072933776e+00   3.569420206700848e+00  3.66778600e-02  -1.06784779e+00  -1.16461616e+00
C     7.105084149316517e+00   5.397000424946002e+00   5.346598154358892e+00 -3.77888000e-01  -1.97381716e+00  -8.51262130e-01
C     1.775630799474802e+00   3.556388406595828e+00   5.285123946867323e+00  4.35019100e-02   1.28848686e+00   1.30025690e-01
C     8.624880188581150e-01   4.487137897031540e+00   4.413385879822254e+00  2.91331080e-01  -7.05579670e-01   1.06887215e+00
C     2.695628374192408e+00   6.226064711729103e+00   4.412099113159582e+00 -6.40394720e-01   5.14610740e-01   9.64582980e-01
C     8.826765788569507e-01   6.227614632197168e+00   6.205853973451694e+00  1.29383678e+00  -3.84216950e-01   7.76533990e-01
C     2.653609421822195e+00   4.447839124745323e+00   6.238861151961175e+00  4.55994130e-01  -6.80009300e-01  -1.36702273e+00
C     3.554609950340530e+00   3.512373053732787e+00   3.535303616673062e+00  1.10472260e+00   9.24202900e-01   6.94276650e-01
C     5.343206583758437e+00   5.348472574319560e+00   3.596394822353866e+00  3.69872000e-02  -7.85119130e-01  -6.14807210e-01
C     3.563783156478960e+00   5.301001461799807e+00   5.294113968954837e+00 -8.82629850e-01   1.18538964e+00   1.82034277e+00
C     5.320001209199674e+00   3.520990239053882e+00   5.369158226312212e+00  8.63830280e-01   1.23368379e+00  -1.80594318e+00
C     4.438749940162260e+00   4.422105568597529e+00   4.457370453215350e+00  5.55421960e-01  -6.07567200e-01  -3.85949530e-01
C     6.231675176450391e+00   6.262998867230778e+00   4.483583685721540e+00 -1.11681219e+00  -9.72763150e-01  -1.45283264e+00
C     4.429560526820254e+00   6.182282017538417e+00   6.246815405788729e+00 -4.63314800e-02   1.44765500e-01  -9.74454320e-01
C     6.200904734202519e+00   4.477208923400151e+00   6.206088764650832e+00  8.02041450e-01  -1.54294776e+00   8.85206100e-02
