64
Lattice="7.10842262195238 0 0 0 7.10842262195238 0 0 0 7.10842262195238 " PBC="1 1 1" Properties=species:S:1:pos:R:3:force:R:3 Energy="-513.6435272"
C     7.088082579515132e+00   6.572731891356800e-03   7.106262441450008e+00  9.47979960e-01   2.13308710e-01  -8.81024000e-03
C     1.786845615673924e+00   1.789283235958774e+00   1.475715644334620e-02 -4.71051790e-01  -6.48836500e-01  -7.92616080e-01
C     7.108318197271712e+00   1.788219247261013e+00   1.772238233695181e+00  2.62862800e-02  -1.85852870e-01  -2.64280300e-01
C     1.751708611579038e+00   1.592521244826460e-02   1.770506835197628e+00  7.91747920e-01  -8.26932220e-01   1.10752328e+00
C     8.945271012909789e-01   8.955711864054047e-01   8.987347188082093e-01 -4.47050640e-01   8.70744300e-02  -3.90318480e-01
C     2.648723945123922e+00   2.660257716246003e+00   8.770073985648222e-01  7.88792530e-01   7.63532580e-01   1.20795845e+00
C     8.337622432926592e-01   2.679123612047935e+00   2.678403173415398e+00  2.09974715e+00  -6.06554430e-01  -6.74176580e-01
C     2.679273244344086e+00   8.768950854874262e-01   2.671494070965663e+00 -1.38274523e+00   5.73960420e-01  -2.31854820e-01
C     3.569341942967801e+00   7.113540684286401e-03   2.688974108693600e-02 -1.31558129e+00  -4.75988730e-01  -2.89861940e-01
C     5.330722771953194e+00   1.797456855708381e+00   3.487178884693400e-03  9.64660960e-01   1.25011030e-01  -4.78784000e-02
C     3.557964912564491e+00   1.796596238981778e+00   1.783307895904402e+00 -2.53690680e-01  -7.38388000e-01   6.02674960e-01
C     5.284742508909534e+00   2.309483858702280e-02   1.751847510157033e+00  1.75193529e+00   2.05504910e-01   1.21745840e+00
C     4.423898241698067e+00   9.223912649506646e-01   9.104180511422151e-01  6.26778690e-01  -5.47462770e-01  -1.15633369e+00
C     6.274219441252222e+00   2.695056217255724e+00   8.487289560348429e-01 -1.26908868e+00  -6.26015900e-01   1.25132204e+00
C     4.477922893368103e+00   2.642642760656738e+00   2.687451768905301e+00 -1.66215910e-01   9.82668190e-01  -4.50065390e-01
C     6.221409547923717e+00   8.934619752455982e-01   2.647797930909214e+00 -6.36113740e-01   2.79441760e-01   1.07719133e+00
C     5.252861304543060e-02   3.590515446004864e+00   7.083210040146026e+00 -1.57128438e+00  -6.23837110e-01   2.48946090e-01
C     1.782505212822152e+00   5.329426622172663e+00   7.075763398777767e+00  6.24495620e-01  -5.53194410e-01   1.25223660e+00
C     8.022423600479599e-03   5.384787515126806e+00   1.755407052783998e+00 -9.90074730e-01  -1.54389990e+00   8.32920650e-01
C     1.751988825598718e+00   3.573100166006995e+00   1.776936403457418e+00  5.30677250e-01  -3.83102370e-01   2.11842020e-01
C     9.023315806539294e-01   4.454072713793479e+00   8.990856616329589e-01 -2.60549090e-01   7.94288160e-01  -1.27159907e+00
C     2.642677805180254e+00   6.205580512433502e+00   9.131827299518117e-01  7.14144580e-01   7.42906050e-01  -1.25578978e+00
C     8.463214754619014e-01   6.229554520730167e+00   2.684500209665024e+00  1.07543906e+00   3.62438860e-01  -2.03355170e-01
C     2.645750207605071e+00   4.476819239672122e+00   2.660169642889741e+00  4.09082920e-01  -2.01844567e+00  -6.22080700e-02
C     3.586369671764428e+00   3.523301187247645e+00   1.747378231603160e-02 -8.80383680e-01   6.00795450e-01  -1.47524456e+00
C     5.306620669880918e+00   5.319940503270499e+00   7.101200818039211e+00  5.60092600e-01  -5.63497630e-01  -4.24800300e-02
C     3.544782911489510e+00   5.323136023575095e+00   1.772011617182055e+00  4.70635320e-01   3.67611930e-01   4.56291080e-01
C     5.382124913266034e+00   3.533678773430582e+00   1.794230698102294e+00 -9.45774530e-01   9.60943600e-01  -7.07680090e-01
C     4.453859318946426e+00   4.404529780416901e+00   8.909141744101379e-01 -6.79396600e-02   7.15355060e-01   5.40060730e-01
C     6.187897600323990e+00   6.237957671446173e+00   8.859987001684078e-01  2.47524300e-01  -8.08756200e-02  -7.63668890e-01
C     4.469118187858292e+00   6.259410037902619e+00   2.662097020598928e+00 -1.38044805e+00  -1.61338488e+00   7.75923700e-02
C     6.226281518619014e+00   4.465804312317075e+00   2.665550007970819e+00  1.19608270e-01  -3.95477180e-01   2.29238420e-01
C     7.064333481710165e+00   7.103987675127382e+00   3.585225073554155e+00  1.06772042e+00   6.69616210e-01  -7.91110640e-01
C     1.740453348455208e+00   1.773029330048561e+00   3.553764190217202e+00  1.09794860e+00  -2.99792730e-01   1.38938500e-01
C     1.074239043179640e-02   1.801117053599645e+00   5.344929594317300e+00  1.12481280e-01  -1.15566736e+00   6.64591280e-01
C     1.812628646443152e+00   7.080685839273665e+00   5.337711559820500e+00 -9.96903920e-01   8.47378220e-01   5.06299100e-02
C     8.700466889668658e-01   8.865600523027092e-01   4.489532511359540e+00  7.59230430e-01  -3.58450220e-01  -1.35553906e+00
C     2.679107120507457e+00   2.653225780253394e+00   4.419268099540304e+00 -8.23510770e-01  -1.47950520e-01   3.52309450e-01
C     8.979606115848914e-01   2.671114907703112e+00   6.209050702188134e+00  5.92214450e-01   2.11243950e-01   3.88677300e-01
C     2.681623999704520e+00   8.979934524973958e-01   6.246604783226498e+00 -1.93673190e-01  -8.43139920e-01  -4.65727270e-01
C     3.538322208338645e+00   7.079046850270171e+00   3.556541237682157e+00  9.88159530e-01   1.32377969e+00  -5.37328020e-01
C     5.375966460244970e+00   1.800689908484410e+00   3.615279839812646e+00 -1.72277164e+00  -2.14366043e+00  -1.75178835e+00
C     3.569946016722048e+00   1.748696986167622e+00   5.344446861337176e+00 -9.43189390e-01   1.30300517e+00  -1.12658920e-01
C     5.309567182141134e+00   7.105397346417154e+00   5.416647394225421e+00  4.63879980e-01  -6.12483000e-03  -2.78228095e+00
C     4.407653647821486e+00   8.726043705097680e-01   4.483610057969461e+00  1.78906991e+00  -2.77252850e-01  -4.98346820e-01
C     6.258460423724813e+00   2.648505858717940e+00   4.476932121423328e+00 -6.38290140e-01   8.74679580e-01  -1.56579818e+00
C     4.473271568110933e+00   2.657876750089434e+00   6.203727630993373e+00 -5.80818200e-01  -3.87345700e-02   1.26158770e-01
C     6.232772219313336e+00   9.277879794037686e-01   6.225277453923939e+00 -8.74525320e-01  -1.37293778e+00   8.20326660e-01
C     7.106792871945912e+00   3.539751143453717e+00   3.559827034954026e+00 -4.71021530e-01   9.64727980e-01  -3.21329250e-01
C     1.747119556104018e+00   5.302969215349476e+00   3.566564326829036e+00  4.29834920e-01   1.31094370e+00  -1.20966287e+00
C     7.089305299289998e+00   5.308618634226720e+00   5.280734282646795e+00  5.34905280e-01   1.07310389e+00   1.80174340e+00
C     1.755859859304892e+00   3.532967220326320e+00   5.295529184814253e+00  1.54710402e+00   4.78451460e-01   6.79893270e-01
C     8.633681126626972e-01   4.436138590028577e+00   4.421987497697812e+00  7.19489790e-01  -6.09804910e-01   4.39192590e-01
C     2.679129227701805e+00   6.193438260335149e+00   4.389234800718126e+00 -1.12983404e+00  -9.18232700e-02   2.09548908e+00
C     9.046944203328174e-01   6.202202305667573e+00   6.225872926486816e+00 -8.34650950e-01   2.48927260e-01  -1.00881943e+00
C     2.696179348029685e+00   4.417165783550439e+00   6.187741641531707e+00 -1.15733127e+00   1.62767040e-01   5.99590080e-01
C     3.558981061578020e+00   3.533116923706697e+00   3.520162463239783e+00 -1.07207100e-02   1.15301407e+00   7.68140820e-01
C     5.343917781441569e+00   5.355434776686267e+00   3.579128463809886e+00 -6.49910440e-01  -2.02930700e-01  -1.59575691e+00
C     3.553211936863854e+00   5.304127106310048e+00   5.296119326060166e+00  7.62094500e-02   3.46732060e-01   5.71299950e-01
C     5.362789079644692e+00   3.528059920770603e+00   5.272659825392736e+00 -1.19668265e+00   1.14836962e+00   2.39124739e+00
C     4.444416774674924e+00   4.457370950804933e+00   4.426463244916269e+00  4.82319300e-01  -1.36202013e+00  -6.10994480e-01
C     6.204981769996219e+00   6.227185781060504e+00   4.450662945631118e+00 -3.06201110e-01   1.57062940e-01   8.80264880e-01
C     4.411402487742822e+00   6.183062664510544e+00   6.216673419184691e+00  6.18320180e-01   1.13002799e+00   1.10250520e+00
C     6.212296194703748e+00   4.438317605898511e+00   6.184548538090803e+00  5.27784320e-01   1.77708560e-01   4.70991860e-01
