64
Lattice="7.10842262195238 0 0 0 7.10842262195238 0 0 0 7.10842262195238 " PBC="1 1 1" Properties=species:S:1:pos:R:3:force:R:3 Energy="-510.90494724"
C     2.270821148072100e-02   7.968207661156861e-02   8.309248453196600e-03 -8.73123520e-01  -2.80287351e+00  -3.35231580e-01
C     1.795780049896549e+00   1.762208107209909e+00   1.434486793138620e-02 -1.07614674e+00   2.64178760e-01   1.11445130e-01
C     7.026263187021135e+00   1.795977592961159e+00   1.810957598453642e+00  3.99798798e+00  -3.55442610e-01  -6.84469420e-01
C     1.777070255055353e+00   7.101108621797829e+00   1.769611529368639e+00  5.13754200e-01  -7.29321000e-03   9.52919160e-01
C     8.634642896207458e-01   8.670403237881892e-01   9.363326588141396e-01  6.90454230e-01   2.06827571e+00  -9.16457720e-01
C     2.660441255718051e+00   2.684882358465075e+00   8.626375800700398e-01  1.39342816e+00  -7.84358120e-01   8.04723000e-03
C     9.490497690497720e-01   2.649627212386245e+00   2.699852341081664e+00 -3.46235284e+00   5.83070410e-01  -7.43847530e-01
C     2.649005580828126e+00   9.329315629273743e-01   2.680223498279927e+00  1.55817681e+00  -8.00505930e-01  -1.30930679e+00
C     3.531635386264237e+00   1.284406666362560e-02   7.021789927750595e+00  1.74579597e+00  -8.96083200e-01   1.58259358e+00
C     5.335434874223766e+00   1.664858614850140e+00   7.090021330700511e+00 -1.02943880e+00   3.70735483e+00   7.10023440e-01
C     3.561384632518521e+00   1.770052820244888e+00   1.714284330337714e+00 -2.88872200e-01   3.70743030e-01   1.37797155e+00
C     5.381048058323329e+00   7.054095433863257e+00   1.833861078303735e+00 -1.77525747e+00   1.55096044e+00  -1.24684279e+00
C     4.442177337212719e+00   8.210203957463093e-01   8.595642535502828e-01  6.45076000e-03   6.61594900e-01   5.83932730e-01
C     6.166207172794000e+00   2.622058474770647e+00   9.131564287881178e-01  1.15769533e+00   4.18302150e-01  -1.85197119e+00
C     4.418249746915763e+00   2.653864614194253e+00   2.659988378112931e+00 -3.95821230e-01   1.46928858e+00  -1.32499055e+00
C     6.235442924775896e+00   9.269174819697235e-01   2.688072334200027e+00 -6.51372510e-01  -1.99521803e+00  -1.33022790e-01
C     7.063519282983270e+00   3.518888776074732e+00   7.101716960605649e+00  1.77181433e+00   8.12329100e-02   2.02739678e+00
C     1.720832396002580e+00   5.314075699187868e+00   6.109639482931660e-02  1.02434289e+00   7.74485490e-01  -1.41964658e+00
C     7.085900720276149e+00   5.270082595687628e+00   1.868711755135487e+00  1.66994720e+00   1.94868002e+00  -2.73407641e+00
C     1.839400174461918e+00   3.517215311221531e+00   1.822850202749581e+00 -1.70174773e+00   6.50094940e-01  -1.34876339e+00
C     8.826017271667622e-01   4.379003079367350e+00   9.391819989371403e-01 -8.53918410e-01   1.03150616e+00   4.61774990e-01
C     2.685981747107485e+00   6.277994866674156e+00   8.389298532847206e-01 -1.34384060e+00  -2.17118460e+00   1.29561037e+00
C     9.368699133957592e-01   6.175937394928935e+00   2.695446327489110e+00 -1.15895162e+00  -4.17776150e-01  -1.23041280e+00
C     2.679755835155758e+00   4.475196031366846e+00   2.672442618880075e+00 -2.66334720e-01  -1.12065463e+00  -5.97666980e-01
C     3.520112206691860e+00   3.595377820329623e+00   7.018794722795432e+00  9.58827890e-01  -1.10544722e+00   2.85682404e+00
C     5.338816350864100e+00   5.336397070309609e+00   7.063304466451693e+00  4.83993520e-01   1.58530209e+00   1.33953665e+00
C     3.529558305174673e+00   5.359540317254674e+00   1.763968294819073e+00  1.38287541e+00   5.99904120e-01  -8.64781200e-02
C     5.349387712647658e+00   3.552095701259836e+00   1.730033680410360e+00 -2.36952644e+00   3.60777640e-01   1.66396538e+00
C     4.441228931466759e+00   4.491392572306515e+00   8.461623178794396e-01 -5.04598580e-01  -1.17855601e+00   1.18320770e-01
C     6.255011985743399e+00   6.260066856152707e+00   9.304733993011521e-01 -3.86055130e-01  -2.13649105e+00  -1.14060567e+00
C     4.456742281908420e+00   6.191507612751558e+00   2.706126092717624e+00 -2.90547770e-01   1.04661342e+00  -1.03762820e+00
C     6.198796589306105e+00   4.434296229053925e+00   2.710957261067081e+00  7.67075660e-01  -1.76518534e+00  -1.67951668e+00
C     8.472557354468480e-02   7.101350379251136e+00   3.524935840113339e+00 -2.15450818e+00  -5.82423070e-01   7.53137360e-01
C     1.765218453105253e+00   1.787129383904914e+00   3.561651553787901e+00  1.00007249e+00  -6.64754700e-02   5.87856510e-01
C     7.075367815058963e+00   1.834981365708647e+00   5.326373767910051e+00  1.49118705e+00  -1.78191738e+00  -4.68321980e-01
C     1.766603102747402e+00   7.099802520225631e+00   5.277649156145489e+00  5.59875280e-01   2.89411900e-02   2.17963970e+00
C     9.277489541635847e-01   8.385864453879484e-01   4.407279105033639e+00 -1.68045370e+00   2.72799209e+00   1.14305616e+00
C     2.599290197118787e+00   2.749651533093694e+00   4.467421194126221e+00  2.60926552e+00  -2.94697221e+00  -6.31576050e-01
C     9.097458076150418e-01   2.670802137107832e+00   6.275705172664028e+00 -2.07129478e+00  -1.25211240e+00  -1.25053715e+00
C     2.663352296949393e+00   8.825563754304465e-01   6.180901348612934e+00 -9.91495600e-02   8.77269870e-01  -1.89199140e-01
C     3.587701647994963e+00   7.919806411537281e-02   3.573736511999937e+00 -6.39362810e-01  -2.42511728e+00  -1.09671222e+00
C     5.292049754110216e+00   1.798712203143073e+00   3.498131257929391e+00  1.31433875e+00  -2.59133550e-01   2.50838822e+00
C     3.583608120660784e+00   1.774310196720459e+00   5.303086646491158e+00 -7.88714840e-01   1.32632134e+00   6.51205000e-01
C     5.416123219141421e+00   3.792300817234280e-02   5.255233527339806e+00 -1.16492524e+00  -1.80306325e+00   1.10214297e+00
C     4.509454292257447e+00   9.083059255291347e-01   4.444617445445486e+00 -1.92303909e+00   5.40604680e-01  -1.48845505e+00
C     6.152192917598671e+00   2.679306938267305e+00   4.436146693630364e+00  1.93953987e+00   5.59592800e-02   6.49787200e-02
C     4.463642285577202e+00   2.653892834632054e+00   6.219040452832924e+00 -1.16033426e+00   1.46886460e-01  -8.27338000e-02
C     6.234435803459094e+00   9.263171756794643e-01   6.165345063298648e+00  8.02803240e-01  -1.32029558e+00   1.41531796e+00
C     7.090565978041655e+00   3.526648898880533e+00   3.590439172630151e+00  1.01990990e-01   9.45276400e-02  -6.26336310e-01
C     1.749450976554926e+00   5.218562596727750e+00   3.560985921093764e+00  1.21245735e+00   4.05862505e+00   6.46639270e-01
C     2.682860865240400e-03   5.307332080816727e+00   5.340202422190774e+00  4.11902270e-01   5.83303460e-01   3.61444660e-01
C     1.733547160458747e+00   3.528905041135895e+00   5.389901101106956e+00  3.26411330e-01   1.14040073e+00  -1.02595311e+00
C     8.585372286501451e-01   4.365184376878297e+00   4.489279167177363e+00  2.98830350e-01   1.70856218e+00  -5.15894670e-01
C     2.682543545254643e+00   6.281699136785664e+00   4.412124774565240e+00 -4.67334260e-01  -2.40156387e+00   7.75033780e-01
C     8.712589593604806e-01   6.228842114615190e+00   6.256126870747120e+00  2.54372210e-01  -2.53378600e-01  -1.05922122e+00
C     2.581463268366993e+00   4.453915546569351e+00   6.206333507641639e+00  2.06651794e+00   1.31529535e+00   5.57350150e-01
C     3.524302977247481e+00   3.640193581579675e+00   3.585967192875683e+00  8.82565770e-01  -2.91969148e+00  -6.22510980e-01
C     5.327195003975341e+00   5.264664698135118e+00   3.547484822927372e+00 -1.49537030e-01   2.10173213e+00   1.45295140e+00
C     3.531078867857317e+00   5.404283928015134e+00   5.339424405335015e+00  3.98754550e-01  -1.69726036e+00  -1.55223089e+00
C     5.335254817878801e+00   3.583398919783077e+00   5.371110767837474e+00 -4.88528760e-01  -1.37894734e+00  -1.28265773e+00
C     4.456469034142907e+00   4.433808946683324e+00   4.459391448850442e+00 -1.28591700e+00   1.26218230e+00   8.15771580e-01
C     6.273426283456282e+00   6.171023484540181e+00   4.409501340113103e+00 -5.65826650e-01   1.41197294e+00   8.88144000e-02
C     4.479371803150738e+00   6.250653172077041e+00   6.138916801008201e+00 -4.09492050e-01  -6.25653500e-02   1.58117473e+00
C     6.249658561584051e+00   4.439343138029899e+00   6.230298274988897e+00 -1.29619197e+00   1.29471320e-01  -6.88597800e-02
