64
Lattice="7.10842262195238 0 0 0 7.10842262195238 0 0 0 7.10842262195238 " PBC="1 1 1" Properties=species:S:1:pos:R:3:force:R:3 Energy="-513.91831464"
C     7.102699984369769e+00   3.233393980314160e-02   7.098798882035913e+00  2.82058990e-01  -1.21881580e+00   5.30280460e-01
C     1.785725541521691e+00   1.794522925356203e+00   7.077595950129203e+00  8.92500600e-02  -3.49053420e-01   1.18320764e+00
C     1.375266524291400e-03   1.768905236497116e+00   1.770866947887557e+00  2.69372860e-01   9.79440360e-01   5.22577120e-01
C     1.779575760776224e+00   7.098701425561792e+00   1.772295243244594e+00  1.56147460e-01   1.00906470e+00  -4.64247440e-01
C     9.035712184746311e-01   9.041734440389976e-01   8.937816410108197e-01 -5.77232620e-01   1.31389100e-02  -9.74376440e-01
C     2.676037845788593e+00   2.666356885022415e+00   8.933446862723682e-01  1.51616580e-01  -4.76525270e-01  -6.04256660e-01
C     9.193596648716870e-01   2.684450592875137e+00   2.677782039446862e+00 -1.08809602e+00  -9.23560930e-01  -9.47990590e-01
C     2.646728042220678e+00   8.987840512611922e-01   2.668020398083947e+00  9.35965290e-01  -1.36156536e+00   1.78363350e-01
C     3.546107281707843e+00   7.100496515526021e+00   4.603414488711999e-04  9.87012420e-01  -3.53001700e-02  -2.18742400e-02
C     5.353090418906191e+00   1.793278595976571e+00   2.494146461524640e-02 -1.75840240e+00  -1.57797493e+00  -8.39958220e-01
C     3.558658125938393e+00   1.733304549994727e+00   1.778975241233286e+00 -2.32725340e-01   1.66503618e+00  -2.15613100e-02
C     5.338322599828914e+00   7.080076576370905e+00   1.833440615105762e+00  4.00890000e-03   9.31647290e-01  -2.28571630e+00
C     4.450099318801578e+00   8.768159687436655e-01   8.861617673833105e-01 -9.05748600e-02  -3.47495320e-01   8.36867870e-01
C     6.182356300554796e+00   2.648713495742670e+00   9.000624299851731e-01  1.94497482e+00   1.28707902e+00  -4.71747140e-01
C     4.433318607690996e+00   2.649208597378153e+00   2.675179645925680e+00  6.81013100e-02   5.67002070e-01  -8.13528330e-01
C     6.225447771729914e+00   9.158460426548471e-01   2.668554596043840e+00 -5.70664800e-02  -1.63027775e+00  -1.98258240e-01
C     7.084246448164023e+00   3.532999066059658e+00   7.087754596895445e+00  1.28071256e+00   3.99437630e-01   5.72426370e-01
C     1.768238324286907e+00   5.326440160577322e+00   1.550162154433880e-02 -2.64180300e-02   5.14085080e-01  -1.03405557e+00
C     7.107362043345096e+00   5.320072435594327e+00   1.776642043676724e+00  9.38010590e-01   4.68256810e-01  -1.35821700e-01
C     1.792047985852597e+00   3.552268151592597e+00   1.759840362719413e+00 -2.54672100e-02  -2.76707110e-01   9.38511200e-01
C     9.030358831671189e-01   4.428588307858518e+00   8.811245258621000e-01 -1.10960353e+00   5.10756100e-02   2.96244210e-01
C     2.674746814072348e+00   6.226409043720817e+00   8.747150033540984e-01 -6.31495800e-01  -6.08749510e-01   8.09401340e-01
C     9.154567854321760e-01   6.237396887985682e+00   2.644627361168015e+00 -1.20415103e+00  -8.29393820e-01   2.72309170e-01
C     2.676664666495224e+00   4.418675825767606e+00   2.683179180405324e+00 -5.88650560e-01   1.50197608e+00  -7.64512330e-01
C     3.557321031643572e+00   3.548959180862987e+00   7.100429554184941e+00 -4.18634740e-01   5.91522420e-01   1.07946478e+00
C     5.366895117802683e+00   5.333633173426501e+00   7.099650684318468e+00 -7.52057890e-01   9.32532020e-01   4.76619880e-01
C     3.522913351709497e+00   5.335273015440708e+00   1.786458419893813e+00  1.28174302e+00   1.65954640e-01   1.28772730e-01
C     5.331816758194412e+00   3.595241409699545e+00   1.750665024054195e+00 -6.76104580e-01  -1.58060039e+00   1.64442423e+00
C     4.434600967131645e+00   4.488002707727490e+00   9.242355451994236e-01  3.52399460e-01  -1.15263313e+00  -2.14911291e+00
C     6.258010460572967e+00   6.227931028087984e+00   8.897486774373625e-01 -9.94168320e-01  -3.24418170e-01   3.71198220e-01
C     4.438082388194015e+00   6.207236348398605e+00   2.679709061734918e+00 -7.11423630e-01   2.05875710e-01   6.53131640e-01
C     6.214068964220949e+00   4.446997842928246e+00   2.676013534983233e+00  1.94814510e-01   1.42345080e-01  -1.12259197e+00
C     7.102777466176327e+00   7.104182445907170e+00   3.519251163459899e+00  7.19749690e-01   1.82675750e-01   1.22898114e+00
C     1.802794996759096e+00   1.750251313857712e+00   3.573389052302272e+00 -1.52339505e+00   1.47975640e+00  -1.08798738e+00
C     7.094315599889479e+00   1.759139045743724e+00   5.308874039851458e+00  2.30639520e-01   1.09995051e+00  -1.13280300e-01
C     1.748024742640449e+00   4.807874048531060e-02   5.360169057235413e+00  6.71272490e-01  -2.53961367e+00  -1.09392035e+00
C     8.945272434594315e-01   8.927320824109765e-01   4.432393801908134e+00 -7.40454330e-01  -3.02105380e-01   2.43723110e-01
C     2.640577621717175e+00   2.655329802264687e+00   4.417061218653699e+00  1.74303336e+00   1.24637830e-01   1.81441274e+00
C     8.994598489996756e-01   2.684416330278108e+00   6.193191384817556e+00 -9.84832450e-01  -1.11207738e+00   2.76093970e-01
C     2.663104781673765e+00   8.504276557883443e-01   6.223878729605001e+00  3.10333710e-01   2.06767717e+00  -1.58676900e-02
C     3.518518640508908e+00   1.178363217717400e-03   3.592473745352448e+00  1.18549932e+00  -2.50740160e-01  -8.18285160e-01
C     5.327508840834013e+00   1.759712268943801e+00   3.530844858584667e+00 -1.65948780e-01   1.31468356e+00   8.05458020e-01
C     3.580679592709796e+00   1.754253213624319e+00   5.337840648775279e+00 -1.06478016e+00   8.28774090e-01   7.48982800e-02
C     5.318856468820949e+00   2.784333598140900e-02   5.289794891370924e+00  6.80445650e-01  -1.71512970e+00   1.75234205e+00
C     4.451103028075522e+00   8.909514225446665e-01   4.452651242522157e+00 -6.44114040e-01   9.33884300e-02  -1.06337608e+00
C     6.200572699781938e+00   2.680922682728831e+00   4.399316178930488e+00  5.75475260e-01  -6.28048210e-01   1.50723531e+00
C     4.434238864083381e+00   2.659150010749128e+00   6.247679576726642e+00  7.85026900e-01   2.26708430e-01  -5.22864410e-01
C     6.193374924289605e+00   8.599370903167017e-01   6.216157063365574e+00  1.02101455e+00   2.02336601e+00  -3.05552320e-01
C     7.103268658179369e+00   3.568527317735549e+00   3.512604148552164e+00  7.10252010e-01  -2.96832110e-01   1.71484777e+00
C     1.787985877746398e+00   5.371917360552166e+00   3.542810963970496e+00 -2.80291870e-01  -1.59053327e+00   7.64928410e-01
C     5.645935750161200e-03   5.313985706557499e+00   5.321041455765886e+00  1.29636890e-01   1.11502638e+00   1.40170080e-01
C     1.786908027624527e+00   3.568010677579527e+00   5.325861392807602e+00 -7.88778630e-01  -6.70203050e-01  -5.45098990e-01
C     9.107602506071419e-01   4.458761073932500e+00   4.451533300896711e+00 -8.72578910e-01  -3.64827200e-02  -1.29774383e+00
C     2.647134288573411e+00   6.208545577676756e+00   4.474314515877738e+00  3.68685660e-01   9.89908510e-01  -4.24112010e-01
C     8.768017518984256e-01   6.241185037484105e+00   6.211930821781079e+00 -1.34724190e-01  -4.43913220e-01   7.11444450e-01
C     2.630888201928080e+00   4.433527168810667e+00   6.217868771532469e+00  1.72937252e+00   1.84155280e-01   4.47586780e-01
C     3.542817859140438e+00   3.553074317801931e+00   3.568413938394760e+00  6.42499280e-01  -7.63823750e-01  -2.18274820e-01
C     5.317865483623495e+00   5.306533449535371e+00   3.558534936974389e+00  1.81230370e-01   6.29087870e-01   4.14918870e-01
C     3.545584883729499e+00   5.304283989197271e+00   5.341550534540656e+00  1.45441360e-01   1.30085367e+00   3.24393750e-01
C     5.338552344047994e+00   3.564391921792138e+00   5.377199345064183e+00 -5.72578890e-01  -8.07429670e-01  -2.24499090e+00
C     4.446862427477335e+00   4.439473364332297e+00   4.465789455713799e+00 -5.63162870e-01  -4.68955420e-01  -3.33488200e-02
C     6.218590560765305e+00   6.203505421702271e+00   4.440238941448471e+00 -2.40875300e-02   4.82419600e-01  -7.59785800e-01
C     4.469823414466423e+00   6.246419466648795e+00   6.227002597009586e+00 -1.01977657e+00  -1.31913434e+00  -6.60153610e-01
C     6.238461942946836e+00   4.436783039623306e+00   6.195727527839920e+00 -4.15184810e-01   7.24438700e-02   1.34764095e+00
