64
Lattice="7.10842262195238 0 0 0 7.10842262195238 0 0 0 7.10842262195238 " PBC="1 1 1" Properties=species:S:1:pos:R:3:force:R:3 Energy="-514.28683384"
C     7.101255055303802e+00   6.514158488968001e-03   2.552264924865760e-02  6.32311050e-01   4.73150600e-02  -1.36108455e+00
C     1.773672286874540e+00   1.801651109391086e+00   7.084071438799119e+00 -1.27426280e-01  -1.11834072e+00   9.25748670e-01
C     7.107299347057587e+00   1.767281530602255e+00   1.793466613754870e+00 -1.00603970e-01   8.52716440e-01  -5.46750700e-01
C     1.757330378692291e+00   1.462629038291200e-02   1.789766395444256e+00  1.05628162e+00  -4.33912290e-01  -7.06705950e-01
C     9.024786539179372e-01   9.021789628202780e-01   8.815791094886490e-01 -8.92050160e-01  -1.31758120e-01   5.40296540e-01
C     2.674085944021367e+00   2.643479848504469e+00   8.917705260831691e-01  9.47675200e-02   1.15190521e+00  -7.10032630e-01
C     8.976936903155104e-01   2.694388807455933e+00   2.634894366748259e+00  1.19261930e-01  -1.48204136e+00   8.54544140e-01
C     2.692079209862468e+00   8.868055772200040e-01   2.658422463693971e+00 -1.15332104e+00  -9.65306470e-01   7.12449300e-01
C     3.571610382794296e+00   2.104071770252140e-02   7.108183421578837e+00 -2.24953770e-01  -9.82958840e-01   3.26418100e-02
C     5.338203675918482e+00   1.779366844235422e+00   7.099080446655891e+00  4.26208660e-01   2.61445520e-01   6.81959050e-01
C     3.560740964850280e+00   1.757544057876248e+00   1.770077699724058e+00  2.25919380e-01   5.28930970e-01   1.95954460e-01
C     5.320735438172094e+00   7.087763127002589e+00   1.775802112459944e+00  5.01238110e-01   1.08777322e+00  -1.88113660e-01
C     4.474434719304243e+00   8.956092875506477e-01   8.693065600036713e-01 -9.82224990e-01  -5.07092970e-01   6.17099830e-01
C     6.195459540307146e+00   2.681493986654800e+00   9.461949554413539e-01  7.75148770e-01  -7.53020290e-01  -2.03791747e+00
C     4.415864515705622e+00   2.671378132592730e+00   2.671546673293050e+00  5.38355470e-01   1.37178700e-01   8.09570000e-03
C     6.202222991177397e+00   8.917431586560821e-01   2.665650805403570e+00  5.15370130e-01  -5.12647550e-01   1.27539000e-02
C     7.093020800709246e+00   3.551454450455286e+00   1.457240853945240e-02 -4.08450000e-03  -4.22462980e-01  -3.77819250e-01
C     1.751693826059988e+00   5.326106917724897e+00   7.082196379080415e+00  7.84515460e-01   4.42731280e-01   4.71924170e-01
C     1.366644007653340e-02   5.304031284773130e+00   1.767990524674374e+00  9.44248400e-02   8.62662780e-01   5.40802100e-01
C     1.792216171131786e+00   3.560745158819625e+00   1.740569642249272e+00 -3.61375230e-01  -3.21531850e-01   1.03721284e+00
C     8.959125328596169e-01   4.431958837528017e+00   8.626682884557583e-01 -1.87514170e-01   2.32672930e-01   2.05543740e-01
C     2.641622702010768e+00   6.230548775802026e+00   8.747596442481520e-01  5.63505660e-01  -1.39191190e-01   4.89843770e-01
C     9.117916827293040e-01   6.205786301268351e+00   2.686065271073270e+00 -1.13378745e+00   9.95693850e-01  -9.73618530e-01
C     2.639079805986915e+00   4.440639501063107e+00   2.679249502212535e+00  1.26931002e+00   2.09728640e-01  -3.87980110e-01
C     3.579724220709668e+00   3.555786678621045e+00   2.209368834522200e-03 -6.83763660e-01  -1.70043790e-01  -1.26516260e-01
C     5.346583511008296e+00   5.321058231643268e+00   7.108079709692810e+00 -1.35149640e-01   8.07450550e-01  -9.18428800e-02
C     3.528209126561397e+00   5.338565850050971e+00   1.793244830969126e+00  4.73866550e-01  -1.46788170e-01  -1.04265331e+00
C     5.314435456456667e+00   3.569903863775912e+00   1.784661552823929e+00  1.21153510e-01  -2.53227860e-01   5.49083340e-01
C     4.449266353838967e+00   4.459181892551604e+00   8.753359951541816e-01 -4.88519050e-01  -2.54220820e-01   9.48251420e-01
C     6.233682950419410e+00   6.227627924947468e+00   8.900656420019883e-01 -3.20815410e-01  -8.68980670e-01   4.51597950e-01
C     4.435794329121090e+00   6.227571626240318e+00   2.652560787317293e+00 -4.52539070e-01  -1.07016596e+00   8.52194400e-01
C     6.242765453085210e+00   4.428909466392489e+00   2.681035848816941e+00 -1.29362977e+00   7.30362390e-01  -8.38139010e-01
C     7.101627749901768e+00   5.731521158506000e-03   3.547598984194650e+00  3.04680300e-01  -1.31163050e-01   3.92902400e-01
C     1.799067837526752e+00   1.753689160289422e+00   3.550104418831295e+00 -3.14177990e-01   2.08231627e+00  -1.47200520e-01
C     7.083460967464513e+00   1.818865078860357e+00   5.311581495858963e+00  3.62150960e-01  -1.65782694e+00   2.98904880e-01
C     1.767746137104699e+00   2.560247683468020e-02   5.329437142638141e+00 -4.41071950e-01  -3.18678100e-02   7.74980530e-01
C     8.640791681773758e-01   9.514590978125947e-01   4.431420019093420e+00  8.24222870e-01  -2.20925872e+00  -1.52328430e-01
C     2.673227815242681e+00   2.667456344749050e+00   4.479159758903983e+00  3.67054900e-01  -7.94717730e-01  -9.81724810e-01
C     8.436423109764234e-01   2.628925992948055e+00   6.199348131817191e+00  1.43067665e+00   2.33748546e+00   9.43841880e-01
C     2.671110998070671e+00   9.030367361778333e-01   6.247722867020398e+00  1.70436050e-01  -3.35600680e-01  -1.23591255e+00
C     3.524641409248419e+00   7.057853443649773e+00   3.577964957195445e+00  1.29278629e+00   1.66685375e+00  -6.70589120e-01
C     5.318193537327408e+00   1.781888130654510e+00   3.550736926276022e+00  3.11918100e-02  -1.46140950e-01  -2.32193630e-01
C     3.582572778906181e+00   1.762231920425686e+00   5.353391673856827e+00 -6.95050120e-01   3.08368910e-01  -6.11796030e-01
C     5.347291723153925e+00   4.438001494344600e-03   5.299917427350257e+00  3.25093930e-01  -6.35708690e-01   9.68956420e-01
C     4.452225803428351e+00   8.652533374257473e-01   4.420309128033003e+00 -5.92038720e-01   4.02919560e-01   8.58987490e-01
C     6.214876054525224e+00   2.679090273545847e+00   4.438725913693804e+00 -1.96189150e-01  -1.20478020e-01  -5.66415800e-01
C     4.462320190054108e+00   2.660904511620196e+00   6.220015159742578e+00 -6.67572500e-02   7.07323500e-02  -7.90041500e-02
C     6.232263185169518e+00   8.928941544467126e-01   6.213154110229755e+00 -4.77223750e-01   1.89978600e-01  -6.38479900e-02
C     2.553345405104000e-04   3.552002438755061e+00   3.539026581936061e+00  5.79834360e-01  -1.42269420e-01   2.52096260e-01
C     1.774405307415114e+00   5.335669736507130e+00   3.551167412349890e+00  1.05330840e-01  -4.32583490e-01   1.05486802e+00
C     7.094086993018020e+00   5.310216394379018e+00   5.312283381508462e+00  8.26006890e-01   4.19156070e-01   6.49247080e-01
C     1.783809892709827e+00   3.537584780576046e+00   5.330626666079372e+00 -6.98015490e-01   4.04101100e-01   1.17082840e-01
C     9.001356467381590e-01   4.429934572018519e+00   4.417602525036212e+00 -5.21744660e-01   5.24282000e-02   8.46055130e-01
C     2.652397791186616e+00   6.212570224395748e+00   4.507980076490285e+00 -8.72456700e-02   2.35096780e-01  -2.18261665e+00
C     8.742195462974844e-01   6.220585397405156e+00   6.207804382450169e+00 -1.32633870e-01   1.36228930e-01   1.13094140e-01
C     2.665195155513628e+00   4.445299285343197e+00   6.221033156945989e+00 -1.97180220e-01  -5.94304710e-01   4.46743340e-01
C     3.556196337016635e+00   3.562089006115936e+00   3.587550878351192e+00 -7.23449580e-01  -4.35225110e-01  -8.16231000e-01
C     5.326486791829709e+00   5.331569527255689e+00   3.551598893602923e+00  5.02079080e-01  -8.64576100e-02   7.52761100e-02
C     3.533940576635677e+00   5.336508672544744e+00   5.363940644109133e+00  1.31878690e+00  -4.26448530e-01  -4.99908560e-01
C     5.346449943747265e+00   3.546163153909636e+00   5.320689517761968e+00 -7.66253680e-01   5.23438640e-01   5.97510040e-01
C     4.444092559519225e+00   4.435819706189843e+00   4.454684820065288e+00 -2.12170290e-01   6.50995000e-01  -1.77167710e-01
C     6.244616130914327e+00   6.206404520783613e+00   4.445316203389032e+00 -1.00268044e+00   5.38092610e-01  -7.47995210e-01
C     4.490937135669252e+00   6.208190938472245e+00   6.208205155317485e+00 -1.73332391e+00   8.26338920e-01   4.20591150e-01
C     6.206163971762152e+00   4.440007846629094e+00   6.227246344821227e+00  7.87761070e-01  -4.46249930e-01  -3.88153770e-01
