64
Lattice="7.10842262195238 0 0 0 7.10842262195238 0 0 0 7.10842262195238 " PBC="1 1 1" Properties=species:S:1:pos:R:3:force:R:3 Energy="-514.01515595"
C     7.083743314010979e+00   2.012892033305400e-03   9.774081102499999e-03  9.68783460e-01  -2.73579290e-01   3.45336450e-01
C     1.747324563012379e+00   1.782629823470681e+00   7.083254254534723e+00  8.64391670e-01   5.07778720e-01   5.56945710e-01
C     7.108197283002946e+00   1.748089429286291e+00   1.799480268207164e+00 -4.33647500e-02   1.14234405e+00  -9.79972300e-01
C     1.824887263419794e+00   3.937369506063240e-02   1.734870037908329e+00 -1.97089511e+00  -1.60574713e+00   9.92388790e-01
C     8.969407661915999e-01   8.971611983770462e-01   8.658977870204766e-01 -4.88550590e-01   7.80777100e-02   4.82148770e-01
C     2.644264191856360e+00   2.688900963024840e+00   8.951006088279605e-01  2.69466180e-01  -1.43934028e+00   7.68998800e-02
C     8.659777567749516e-01   2.674288818402942e+00   2.665778259421147e+00  7.67421700e-01  -6.27759230e-01   4.27093720e-01
C     2.673741540945428e+00   8.833855018448433e-01   2.667334790722248e+00 -3.22908110e-01   5.55956260e-01  -2.32883000e-01
C     3.592295821534270e+00   2.003771927083940e-02   1.377150256285700e-02 -1.55227179e+00  -1.02558046e+00  -5.91839830e-01
C     5.331744039031010e+00   1.767374082264768e+00   7.621863985842600e-03  3.28761580e-01   9.91460370e-01  -2.91686130e-01
C     3.524714341664501e+00   1.771232747315582e+00   1.797077763530057e+00  1.41179519e+00   6.10070520e-01  -1.17637087e+00
C     5.326820176850588e+00   7.089907809191269e+00   1.793195498516144e+00 -4.72717890e-01   2.71443070e-01  -4.53866380e-01
C     4.442223684128201e+00   8.905763821672353e-01   8.734543956866675e-01  1.97838540e-01   1.18148110e-01   1.43275361e+00
C     6.213402905021455e+00   2.698874506466057e+00   9.085379444434515e-01  2.77902540e-01  -1.57994150e+00   9.63358000e-03
C     4.461782651135584e+00   2.660247551201656e+00   2.662314538331100e+00 -1.49356858e+00   4.79841350e-01  -5.18067960e-01
C     6.226895615249155e+00   8.467674578970802e-01   2.668874972651324e+00 -1.99914070e-01   1.02320253e+00  -4.84243410e-01
C     4.664333670565400e-03   3.568313709635818e+00   3.255671776805240e-02 -4.15000340e-01  -5.86770000e-01  -8.34301910e-01
C     1.794965140327393e+00   5.323561960258485e+00   7.065430311320430e+00 -8.22300210e-01   8.67516810e-01   2.24050001e+00
C     1.521678704995540e-02   5.352510798125756e+00   1.803420680118109e+00 -1.68896580e-01  -1.07796944e+00  -1.37632218e+00
C     1.782171472380143e+00   3.542765043560371e+00   1.799650372760461e+00 -7.32843340e-01   1.05043636e+00  -7.95748250e-01
C     9.152861832892960e-01   4.460209201788647e+00   8.883778892193218e-01 -8.35044160e-01  -5.10978450e-01   1.21692270e-01
C     2.647330694290401e+00   6.205603970228148e+00   9.026018428819418e-01  1.73136070e+00   7.88970100e-01  -1.40977997e+00
C     9.150816739705185e-01   6.213542869862843e+00   2.618508244177314e+00  2.79001900e-02   8.47160930e-01   1.94764576e+00
C     2.660794188901134e+00   4.447786664586387e+00   2.669919626439559e+00  5.93244000e-01  -7.11861430e-01   2.27016930e-01
C     3.536753024045280e+00   3.540395095458863e+00   1.675000272486320e-02  1.10209021e+00   1.83459540e-01  -7.77111280e-01
C     5.339658556776117e+00   5.317611570767509e+00   7.063283709857642e+00 -5.79914910e-01   4.94327410e-01   2.46709362e+00
C     3.543612083199771e+00   5.326561359182993e+00   1.783450704114838e+00  2.99454990e-01  -1.16041870e-01  -5.54343800e-01
C     5.311389284111319e+00   3.579283853928359e+00   1.778286932670992e+00  7.88837170e-01  -7.23703420e-01  -1.72643710e-01
C     4.458534101998244e+00   4.425008008637501e+00   8.624184274006651e-01 -1.26773201e+00   9.89040670e-01   6.98109050e-01
C     6.214044369078684e+00   6.209979133266532e+00   9.367814135341401e-01  1.70645900e-01   6.07321800e-02  -2.03825853e+00
C     4.414295615749162e+00   6.217664830887502e+00   2.672991318022113e+00  7.59931280e-01  -1.28748460e-01  -6.77458500e-02
C     6.201028278587654e+00   4.457044958543580e+00   2.666338047702472e+00  8.40245090e-01   6.94731000e-03   3.21324720e-01
C     7.098956902270755e+00   7.077578676662236e+00   3.535465120034988e+00  1.13653031e+00   1.88955220e-01   5.34340280e-01
C     1.771385933823043e+00   1.760835541886213e+00   3.553302640336485e+00 -1.23410030e-01   2.42044590e-01   6.85786300e-02
C     7.097934355676868e+00   1.740334069123645e+00   5.313493163954159e+00  7.66494600e-02   8.91021080e-01   1.41203140e-01
C     1.804245328226255e+00   4.788944319093999e-03   5.368844460537765e+00 -1.06832130e+00   1.76291440e-01  -1.58915200e+00
C     9.005842592897072e-01   8.551802760678502e-01   4.415840702489845e+00 -5.51568960e-01   5.16269590e-01   9.77431440e-01
C     2.663135276806805e+00   2.631056458291495e+00   4.456823744431645e+00 -8.20928620e-01   1.66948977e+00  -4.95253760e-01
C     8.604212449813500e-01   2.654860148782184e+00   6.200864500530489e+00  1.20682500e-01   5.80976880e-01   4.87819320e-01
C     2.676916588992877e+00   9.114317122078273e-01   6.217885263072948e+00 -1.95179500e-02  -5.00821090e-01   7.17706840e-01
C     3.552342292440523e+00   1.570399833633020e-02   3.546459646217116e+00  5.09258700e-02  -5.59291880e-01   9.68548440e-01
C     5.346709827678253e+00   1.780732798726081e+00   3.493476947134720e+00 -2.53143940e-01  -3.25530510e-01   2.47917640e+00
C     3.537782181472203e+00   1.790856472053033e+00   5.335233848032072e+00  1.53733956e+00  -4.57710440e-01  -2.84398900e-01
C     5.340503463888731e+00   3.980929919878600e-03   5.327532938386695e+00 -8.97648660e-01   1.14040390e-01   3.21596500e-02
C     4.448132560431076e+00   9.005212786652941e-01   4.437071428328998e+00 -1.38901640e-01  -1.32023700e-02  -4.19687490e-01
C     6.214550062263870e+00   2.658375263767774e+00   4.441464860013516e+00  8.62163680e-01   1.44503770e-01  -9.99591180e-01
C     4.482687669050289e+00   2.659012676024109e+00   6.200692832124217e+00 -1.76684447e+00   3.10246870e-01   5.92108120e-01
C     6.209412094394135e+00   8.791851349186853e-01   6.228891304899720e+00  2.96019480e-01   5.94053000e-03  -1.71080330e-01
C     4.312182413970600e-03   3.582504893470160e+00   3.550958424724862e+00 -2.27737850e-01  -8.43840780e-01   1.33745520e-01
C     1.826793884534931e+00   5.337583963634470e+00   3.566956071999624e+00 -1.70765658e+00   5.68092920e-01  -6.55940670e-01
C     7.103118243956730e+00   5.335667675064570e+00   5.353395654573494e+00  4.62661970e-01   3.70020370e-01  -8.95207710e-01
C     1.745127989338573e+00   3.573708220477910e+00   5.344097411281176e+00  1.04094095e+00  -1.20918088e+00  -6.74418390e-01
C     9.149198862716873e-01   4.463863570773363e+00   4.426912639394305e+00 -1.09658796e+00  -7.32046300e-02   7.94667870e-01
C     2.657389183381928e+00   6.242872221592963e+00   4.463425336518839e+00  1.20244978e+00  -8.34555890e-01   1.23442000e-02
C     8.933646609399304e-01   6.244708184987256e+00   6.221932230238967e+00 -3.56972190e-01  -9.91374800e-01   2.99993540e-01
C     2.664278879837910e+00   4.433975212688406e+00   6.234672656100793e+00  6.56877300e-02  -2.11160570e-01  -6.20463160e-01
C     3.525063080878238e+00   3.547260054604128e+00   3.552704679825691e+00  1.16473989e+00  -4.69647030e-01   2.86068940e-01
C     5.323403015928702e+00   5.319380714989175e+00   3.557886435578766e+00 -5.53905850e-01   8.85802630e-01   7.40348500e-02
C     3.556163780441036e+00   5.314586226100437e+00   5.366726861439268e+00 -6.29597100e-02   6.15877850e-01  -1.45484759e+00
C     5.360070036908316e+00   3.563925964689397e+00   5.300580003422668e+00 -1.25305531e+00  -8.15052620e-01   9.60875180e-01
C     4.426065386502227e+00   4.433231316261223e+00   4.421424937131665e+00  4.04150390e-01   1.54553280e-01   1.06570761e+00
C     6.210715494765737e+00   6.234751630676101e+00   4.454152043789919e+00  3.11551340e-01  -1.27026966e+00  -3.70296050e-01
C     4.438772473861965e+00   6.219039386569531e+00   6.223955998158880e+00  5.76113870e-01   8.35529300e-02  -2.61926190e-01
C     6.202906323843858e+00   4.432481377674812e+00   6.240871627130789e+00  1.56391444e+00   3.97004770e-01  -1.31477954e+00
