64
Lattice="7.10842262195238 0 0 0 7.10842262195238 0 0 0 7.10842262195238 " PBC="1 1 1" Properties=species:S:1:pos:R:3:force:R:3 Energy="-512.47848432"
C     7.064831782135826e+00   7.079279864363655e+00   7.107204733952515e+00  6.43149110e-01   8.29724550e-01   6.22525820e-01
C     1.724671441806963e+00   1.760713916775185e+00   3.355708608336500e-02  1.28703195e+00  -2.21573500e-01  -5.51283270e-01
C     7.105628370152304e+00   1.825841711324982e+00   1.817051791334221e+00 -3.47628560e-01  -1.65952013e+00  -3.18225680e-01
C     1.778094792007573e+00   7.075792969815867e+00   1.746108951660133e+00  5.38067800e-02   1.05699434e+00   1.49679186e+00
C     8.157258293262546e-01   8.405914470721456e-01   9.360726327147000e-01  1.79365437e+00   1.37370593e+00  -1.06684117e+00
C     2.710331080118485e+00   2.697646242121547e+00   8.395945618839168e-01 -1.47724833e+00  -2.15603038e+00   7.96668190e-01
C     9.592405458862564e-01   2.661223537627382e+00   2.639666535189970e+00 -8.42401750e-01   2.94291840e-01   4.80086910e-01
C     2.657440648361697e+00   9.090293496991720e-01   2.676206244320461e+00  1.08699730e-01  -1.05868530e+00  -5.95570330e-01
C     3.570608663878685e+00   4.695418802682660e-02   7.090120279943381e+00 -3.24399010e-01  -9.93828010e-01   2.01023660e-01
C     5.374957135317156e+00   1.813720215820679e+00   7.023811065554139e-02 -4.49237950e-01  -1.06681004e+00  -2.17247831e+00
C     3.547045522409456e+00   1.836763589427933e+00   1.802241534973903e+00 -1.07928480e-01  -2.15826691e+00  -1.22420370e+00
C     5.327472090289068e+00   7.068652630378303e+00   1.792729825750307e+00 -5.34848350e-01   1.55116447e+00  -1.34903340e-01
C     4.456597056834293e+00   9.041644874264964e-01   8.904315835984660e-01 -3.35703300e-02   3.62235790e-01   1.10505924e+00
C     6.243995992124959e+00   2.729789747282699e+00   9.278343263192510e-01 -7.35063270e-01  -1.04330906e+00   8.56712200e-02
C     4.390219032914090e+00   2.671822337922254e+00   2.696462192165734e+00  1.54655264e+00   3.19348030e-01   3.13359000e-03
C     6.189989964522187e+00   9.208412023141472e-01   2.706760732689138e+00  3.45078110e-01  -9.86178450e-01  -1.27831490e+00
C     1.356151975866220e-02   3.590457583444737e+00   7.922408094216200e-03 -1.41185993e+00  -6.70834840e-01  -7.36198950e-01
C     1.760677166230239e+00   5.315764233897023e+00   7.033986630366218e+00  1.07533841e+00   6.75717970e-01   1.37397925e+00
C     2.497395010661980e-02   5.409389836898853e+00   1.758929844866017e+00  1.07749020e-01  -3.03838730e+00   3.55410780e-01
C     1.816448854927593e+00   3.514578584019095e+00   1.696458538933540e+00 -9.36118320e-01   2.96311728e+00   1.92124276e+00
C     8.680573258124327e-01   4.470815608095723e+00   8.321676819305408e-01  1.89178168e+00  -1.65838880e-01   1.38673424e+00
C     2.685809510027402e+00   6.238546888597146e+00   8.329021241556391e-01 -1.37955060e+00  -5.97457550e-01   1.45889550e-01
C     9.007238687099639e-01   6.210830153622598e+00   2.672662198054807e+00  2.78860940e-01   1.30309804e+00   6.44818580e-01
C     2.668793723380777e+00   4.478635512735758e+00   2.638159691762982e+00 -1.09252328e+00  -1.62500167e+00   6.53156380e-01
C     3.603110007034527e+00   3.520839113988981e+00   7.070534372014269e+00 -7.06004360e-01   5.73935690e-01  -2.04768570e-01
C     5.312404864451037e+00   5.300404780805084e+00   4.474332642355420e-02  8.94623320e-01  -4.54493060e-01  -7.80979220e-01
C     3.511329181871040e+00   5.313937937957492e+00   1.704309151959294e+00  8.74067030e-01   4.74793600e-01   1.53693379e+00
C     5.297072992038864e+00   3.571778923494616e+00   1.820399431882884e+00  1.66493308e+00  -9.06143500e-02  -8.07006230e-01
C     4.416833322624502e+00   4.379160033338799e+00   8.797140015616134e-01  7.72840010e-01   1.79205527e+00   4.40679760e-01
C     6.227228502680449e+00   6.189442189475090e+00   9.098498038379723e-01 -1.37599884e+00   1.40305385e+00  -7.86774880e-01
C     4.378932066225376e+00   6.185749648260904e+00   2.640208765667424e+00  1.25082033e+00   8.91649290e-01   3.42494600e-01
C     6.270709088909787e+00   4.514318585856313e+00   2.622996217882677e+00 -1.54867308e+00  -2.11643492e+00   1.38151184e+00
C     7.101672532964274e+00   3.835847014204400e-02   3.570500544770634e+00  6.99287300e-02  -6.63913620e-01  -3.02313950e-01
C     1.793087308323867e+00   1.757572065061371e+00   3.560940000683640e+00  6.15161900e-02   3.93028000e-01   9.45341500e-02
C     7.091532154844166e+00   1.806285729855100e+00   5.315359124891909e+00 -4.77471060e-01  -1.03038963e+00   8.97929270e-01
C     1.721765021050323e+00   2.137673283976880e-02   5.364144584754101e+00  1.69745803e+00   1.12106970e-01  -3.83320070e-01
C     8.846225806334020e-01   9.146413071892096e-01   4.476001628902369e+00 -4.42617430e-01  -4.23874010e-01  -1.20950163e+00
C     2.702959716945771e+00   2.615320614221827e+00   4.457594368527880e+00 -1.08561681e+00   1.67207740e+00  -4.69121200e-01
C     8.543647267406576e-01   2.626955040608207e+00   6.260888234386448e+00  6.54356710e-01   1.53448037e+00  -1.10599142e+00
C     2.637224934188452e+00   9.178236769119573e-01   6.206953148841424e+00  5.79191880e-01  -5.33199640e-01   1.21557939e+00
C     3.526549380963854e+00   9.799387087027199e-03   3.591232259341865e+00  4.54470080e-01  -6.68009610e-01  -1.08569211e+00
C     5.263659709345102e+00   1.739558611300029e+00   3.563787563700985e+00  1.99231756e+00   1.47861719e+00  -3.42376560e-01
C     3.593351706630244e+00   1.787758834727915e+00   5.348707223350247e+00 -3.37948230e-01  -1.54570244e+00  -2.87955460e-01
C     5.346006591428456e+00   7.029380230340005e+00   5.347757751340893e+00 -2.17749560e-01   2.46137369e+00   2.41556410e-01
C     4.476404605380698e+00   8.482478579919214e-01   4.451981913448259e+00 -1.74782645e+00  -4.93257400e-02   1.06689115e+00
C     6.204229201293440e+00   2.672011279795494e+00   4.373034492314467e+00  1.36170936e+00  -2.17936360e-01   7.65025920e-01
C     4.508659854945436e+00   2.645447033380328e+00   6.208740277372318e+00 -4.26808940e-01   7.99042340e-01  -1.57227440e-01
C     6.214165354431676e+00   8.869517974732973e-01   6.242105791466074e+00 -1.40682900e-02  -1.58221340e-01  -5.28352780e-01
C     8.368433179930719e-02   3.561378448190841e+00   3.521672078951593e+00 -2.12973755e+00   4.67227360e-01  -2.80099800e-01
C     1.775450814214064e+00   5.332059652995337e+00   3.608432580639705e+00  3.88348310e-01   1.97860350e-01  -1.26560752e+00
C     7.100051101764652e+00   5.333787639450033e+00   5.330750068296054e+00  6.19920000e-02   5.21621100e-02  -5.27884700e-01
C     1.783753025328867e+00   3.481969903681690e+00   5.332917213100214e+00  3.05605770e-01   1.20845241e+00   8.35721350e-01
C     9.012160558921728e-01   4.425506664484296e+00   4.479269868370367e+00  3.19599340e-01  -3.45358330e-01  -7.45249380e-01
C     2.666727020588238e+00   6.249821699883180e+00   4.525090191905078e+00 -8.07407720e-01  -5.39495920e-01  -2.01559920e+00
C     8.587472114543400e-01   6.232834560179713e+00   6.214151706260246e+00  2.00329000e-01  -5.11027970e-01  -1.57159460e-01
C     2.697915153749262e+00   4.405430062141724e+00   6.203164857174547e+00 -8.78080990e-01   2.57859780e-01  -5.41655150e-01
C     3.538288798752331e+00   3.564271007523371e+00   3.575386874479622e+00 -3.14232560e-01  -4.31896700e-02  -1.01973424e+00
C     5.295089813212111e+00   5.318052790559532e+00   3.517894521002872e+00  1.27264658e+00   8.85945070e-01   1.49534510e-01
C     3.567916562064038e+00   5.336182040525354e+00   5.339905858799067e+00  3.75888700e-02  -6.54854850e-01   5.43399550e-01
C     5.377946155944640e+00   3.555189215699833e+00   5.240445804679195e+00 -1.33548454e+00   5.10364480e-01   2.57125623e+00
C     4.430781540573692e+00   4.442616495562183e+00   4.406949203139845e+00  6.40320400e-01   1.23303880e-01   8.07887710e-01
C     6.212118981727830e+00   6.223145140390617e+00   4.418903935049482e+00  1.06288720e-01  -7.62282380e-01   4.36535970e-01
C     4.472500446425115e+00   6.178333786362590e+00   6.272860381931504e+00 -1.04682976e+00   1.21270773e+00  -1.45601016e+00
C     6.221988102440760e+00   4.463978940472485e+00   6.203774262245760e+00 -2.20069140e-01  -9.62838020e-01  -3.98225000e-03
