64
Lattice="7.10842262195238 0 0 0 7.10842262195238 0 0 0 7.10842262195238 " PBC="1 1 1" Properties=species:S:1:pos:R:3:force:R:3 Energy="-512.18021708"
C     2.285528474472880e-02   7.066468709696760e+00   4.153614830586259e-02 -4.15625850e-01   1.26888563e+00  -1.81866030e+00
C     1.790094449148169e+00   1.818278207488849e+00   7.084150555542879e+00 -7.45023560e-01  -1.83452491e+00   1.14931560e+00
C     7.106091057380640e+00   1.713818586487652e+00   1.784698516621553e+00  5.40218350e-01   2.17572402e+00  -2.67390990e-01
C     1.811629131138554e+00   7.083884060778855e+00   1.795340180704824e+00 -3.87232960e-01   4.37705870e-01  -2.39275746e+00
C     9.404252620533784e-01   8.547255502728488e-01   8.672200957962489e-01 -1.77952103e+00   9.68468270e-01   1.18640343e+00
C     2.636537762973777e+00   2.664009754957517e+00   9.031752082504710e-01  5.61185300e-01   2.72710690e-01  -8.36322030e-01
C     9.201475624348878e-01   2.686652497865908e+00   2.689144995173385e+00 -2.10097730e+00  -1.72672513e+00  -4.89179870e-01
C     2.685554744160701e+00   8.797830954294797e-01   2.600979584838655e+00 -6.38151450e-01  -5.74899510e-01   2.58947769e+00
C     3.556036184255006e+00   2.831988463385380e-02   7.105383627161498e+00  8.72636410e-01  -1.29577771e+00  -4.32478100e-02
C     5.343217957234630e+00   1.780993535667783e+00   7.075406840299148e+00 -1.46049349e+00   6.26489700e-02   1.53959325e+00
C     3.522065601227836e+00   1.723934085128590e+00   1.721940314752133e+00  1.85035607e+00   2.42033013e+00   8.13116470e-01
C     5.346283037984148e+00   1.089131188568540e-02   1.749056743436421e+00 -7.61540220e-01  -6.78077190e-01  -3.84970830e-01
C     4.453592397677046e+00   9.016450491972898e-01   8.363259669947885e-01 -3.73469480e-01  -4.10054260e-01   8.70953410e-01
C     6.174354349211462e+00   2.611825971493383e+00   9.336189473947284e-01  1.59443807e+00   1.34172182e+00  -1.63571293e+00
C     4.445324662411950e+00   2.639348504361951e+00   2.648328930078928e+00 -9.25696570e-01   1.37131963e+00  -3.65306000e-03
C     6.187820545022789e+00   8.896472402465753e-01   2.641663575440833e+00  2.43482953e+00  -1.18064286e+00   6.44152330e-01
C     7.053557894944732e+00   3.478833951958651e+00   3.864138536232000e-03  1.35746249e+00   2.11750952e+00   1.33421688e+00
C     1.825208066532635e+00   5.299386641433222e+00   4.705534088070920e-02 -1.68600250e+00   2.05829261e+00  -1.46486707e+00
C     7.104060820796141e+00   5.265584456937919e+00   1.812724752316975e+00  9.09979690e-01   2.58557247e+00  -1.01701363e+00
C     1.776074436130517e+00   3.546120716626595e+00   1.799998330047710e+00 -8.45999310e-01  -4.14925000e-02  -4.51072240e-01
C     8.794312285097897e-01   4.448063182226305e+00   9.157850523887676e-01  9.85565900e-02  -1.85856040e+00  -5.62990670e-01
C     2.714570827705958e+00   6.246586870001496e+00   8.574625773184535e-01 -1.26574439e+00  -1.51334233e+00   2.22210312e+00
C     9.438978686717007e-01   6.193821688651272e+00   2.655500617660246e+00 -2.36178277e+00   1.48159511e+00  -1.40766800e-01
C     2.610042397173798e+00   4.433090214072215e+00   2.666625156892093e+00  2.94281742e+00   1.57967102e+00   3.19241500e-01
C     3.488174063860200e+00   3.571370473530870e+00   7.105977464787172e+00  2.57354040e+00  -5.21174420e-01   1.18009181e+00
C     5.352536672784093e+00   5.340833721203656e+00   7.087939131546660e+00 -1.25603484e+00   3.91222080e-01   7.84979380e-01
C     3.535664013699896e+00   5.332403842818598e+00   1.809481961001957e+00  1.17988380e-01   7.73848560e-01  -1.77777133e+00
C     5.309820170902179e+00   3.591001733196298e+00   1.773507797975113e+00  8.68448700e-02  -1.78250914e+00   4.52570630e-01
C     4.383268701613160e+00   4.499155040891782e+00   9.051880291995502e-01  1.86785488e+00  -1.81048645e+00  -7.92876640e-01
C     6.240439932625077e+00   6.203459856713277e+00   8.749869005193134e-01 -1.78826450e-01  -4.87517510e-01   1.44288806e+00
C     4.442995019066697e+00   6.230723429745799e+00   2.624042790945019e+00  6.63657400e-02  -8.15447430e-01   1.10079023e+00
C     6.245158716812912e+00   4.446280105496304e+00   2.707582395259784e+00 -1.62462756e+00  -5.52586430e-01  -1.14502389e+00
C     3.126198967204560e-02   7.106395795458360e+00   3.531242503746030e+00 -1.22528920e+00  -9.74485060e-01   1.11772198e+00
C     1.791163840247121e+00   1.766028671115480e+00   3.541185552054207e+00 -4.86824560e-01   8.84692010e-01   2.43814250e-01
C     7.081548517442828e+00   1.760061008157538e+00   5.366274836844863e+00  8.95476930e-01   2.77275240e-01  -1.36264136e+00
C     1.825951962959818e+00   3.191710190070480e-02   5.340975605319151e+00 -1.88729926e+00  -1.21026566e+00   3.10494380e-01
C     8.969704083139255e-01   8.721593832537560e-01   4.459485990871288e+00  7.24766900e-02   8.64199190e-01  -6.76918380e-01
C     2.600406859228162e+00   2.715529682833170e+00   4.413417085797556e+00  2.96892195e+00  -1.65116872e+00   1.92227129e+00
C     8.786581164656385e-01   2.687515886877333e+00   6.233458466433071e+00 -6.98170870e-01  -1.24399288e+00  -2.46429100e-01
C     2.672210102376175e+00   8.617119923606895e-01   6.261302157835610e+00  4.74221190e-01   2.65886809e+00  -2.12584916e+00
C     3.559704201411153e+00   7.083196107637692e+00   3.510829459760854e+00  6.15895780e-01   1.63132659e+00   8.99300790e-01
C     5.351820996794712e+00   1.767739384103209e+00   3.516753619172362e+00 -8.40167460e-01   8.21579190e-01   6.60834740e-01
C     3.575324462529020e+00   1.763588705051165e+00   5.340025209214857e+00 -9.17596140e-01   1.13510852e+00  -8.78371450e-01
C     5.289387578754799e+00   4.328787689210920e-02   5.282180775565738e+00  1.82730733e+00  -2.31040034e+00   1.71089977e+00
C     4.472851815755221e+00   8.878683574859202e-01   4.396399806382181e+00 -1.75712059e+00   7.65367830e-01   1.67989880e-01
C     6.208829701328878e+00   2.666401952421826e+00   4.433430636431487e+00  2.41082900e-02  -6.40837200e-02   1.13264528e+00
C     4.438590000653310e+00   2.702633084926382e+00   6.237542752817844e+00 -8.53008450e-01  -1.13799974e+00  -4.43475190e-01
C     6.173188781154460e+00   8.631918237817212e-01   6.228402174339238e+00  1.92299533e+00   7.71327930e-01  -4.94492230e-01
C     7.103789705557415e+00   3.580661537316342e+00   3.591820339145217e+00  8.96686540e-01  -1.29623889e+00  -5.72296870e-01
C     1.794147316304962e+00   5.398618586271220e+00   3.528003906400358e+00  3.17143900e-02  -3.04930688e+00   2.24989131e+00
C     2.699963730064120e-02   5.287659734468556e+00   5.364302320652039e+00 -1.03687595e+00   1.66681530e+00  -8.10653090e-01
C     1.751906012475195e+00   3.590170687507794e+00   5.381034410151899e+00  5.48018860e-01  -7.09256530e-01  -2.36990510e+00
C     9.204026126384933e-01   4.450226843903381e+00   4.433263943921048e+00 -1.16907664e+00   1.11926919e+00   1.30071151e+00
C     2.688794407769766e+00   6.239405799302319e+00   4.469070419258286e+00 -2.11184440e-01   1.11264700e-02  -1.71561226e+00
C     8.873790136727594e-01   6.255195667383900e+00   6.229421806479851e+00  1.12654506e+00  -2.40111852e+00   2.38622900e-02
C     2.676425539158287e+00   4.442134118003189e+00   6.233025492411286e+00 -8.77208880e-01   6.51978650e-01  -5.40870660e-01
C     3.569116392718068e+00   3.599726824372765e+00   3.555346738345093e+00 -1.53435268e+00  -1.99228099e+00  -1.08928040e-01
C     5.309348029471758e+00   5.325917336093622e+00   3.527847876523849e+00  1.30622385e+00   6.09643820e-01   1.12246761e+00
C     3.562614958305590e+00   5.351894924389959e+00   5.316575731423323e+00  1.30377380e-01  -3.34072400e-01   1.02220740e+00
C     5.285168019087567e+00   3.581098776391698e+00   5.369171803399417e+00  1.50324018e+00  -7.84097190e-01  -1.83011679e+00
C     4.462423688687456e+00   4.457491012062985e+00   4.441108656956028e+00 -1.37137237e+00   2.00807070e-01  -1.09534760e-01
C     6.189177045311363e+00   6.179663061392529e+00   4.465735005196530e+00  1.35182028e+00   1.29124605e+00  -1.10544491e+00
C     4.443523743541173e+00   6.261890735228547e+00   6.218540090964702e+00 -6.37019000e-02  -8.59482290e-01  -9.96213410e-01
C     6.211930466359948e+00   4.407599481641122e+00   6.235078475948169e+00  1.68772680e-01   4.70742860e-01   9.96439100e-02
