64
Lattice="7.10842262195238 0 0 0 7.10842262195238 0 0 0 7.10842262195238 " PBC="1 1 1" Properties=species:S:1:pos:R:3:force:R:3 Energy="-512.90959102"
C     3.444364855253140e-02   7.073543580561993e+00   2.602251352729600e-03 -5.83370920e-01   9.25019300e-01  -9.82481680e-01
C     1.747792652641906e+00   1.810829149256899e+00   7.084937813348044e+00  1.80164807e+00  -2.11406531e+00   1.30940276e+00
C     1.706106729871440e-02   1.745428959952303e+00   1.746304220029504e+00 -1.11162339e+00   1.03529302e+00   8.15047330e-01
C     1.748660591043808e+00   7.102481684711109e+00   1.798778027136535e+00  1.47353731e+00   3.67468440e-01  -3.29450840e-01
C     9.049887801135116e-01   8.632717224519699e-01   8.755770417652258e-01 -4.22098900e-01   6.91650730e-01   1.95913760e-01
C     2.664892194541564e+00   2.660047520189129e+00   9.281289704368499e-01 -9.01775830e-01   1.15386751e+00  -1.89530831e+00
C     8.509691754235359e-01   2.696425441620788e+00   2.633622314520410e+00  1.34050044e+00  -1.80150509e+00   3.14483890e-01
C     2.711267472630218e+00   9.317103359212583e-01   2.659072315689892e+00 -2.61587495e+00  -2.46960196e+00   1.07488702e+00
C     3.572389821334578e+00   2.217500869999480e-02   1.558507442589760e-02 -1.00061176e+00  -8.50172950e-01  -1.49802700e-01
C     5.321480400862670e+00   1.826297005793793e+00   7.071236115495315e+00  1.15781440e+00  -2.31253012e+00   8.21471310e-01
C     3.549326828480893e+00   1.815035131836927e+00   1.787549207344852e+00  7.15896330e-01  -1.44595117e+00   7.90888500e-02
C     5.323651242046592e+00   7.090844770376811e+00   1.735620687337001e+00  7.93985010e-01   2.50195041e+00   2.98635870e-01
C     4.448976188027618e+00   9.263401358845270e-01   8.542097631275416e-01  7.14481000e-03  -4.67113020e-01   9.01564560e-01
C     6.213928999379561e+00   2.663139612944603e+00   9.024192985890601e-01  3.86042830e-01   2.98083700e-02  -1.28028408e+00
C     4.441061954619415e+00   2.651667898351995e+00   2.694912627118800e+00  5.33044210e-01   1.12214995e+00  -8.38501120e-01
C     6.218306010607827e+00   9.177442047470658e-01   2.652244391426477e+00 -1.85335890e-01  -1.42084342e+00   4.27355750e-01
C     1.438588352990360e-02   3.562614034210649e+00   3.263256463740780e-02 -1.30519715e+00   2.18426300e-02  -1.90178388e+00
C     1.778679104346937e+00   5.337751864576755e+00   7.102730550587035e+00  1.03068527e+00  -4.50637800e-02   2.27270030e-01
C     7.101846262813106e+00   5.341623466956738e+00   1.752173502418386e+00 -8.11338460e-01  -7.51045500e-01   7.06099840e-01
C     1.736599943637132e+00   3.576187922624670e+00   1.719991682859312e+00  1.45760486e+00  -6.45726940e-01   2.84624521e+00
C     8.823497335848832e-01   4.455523756102900e+00   8.612746111168810e-01  3.69765990e-01   4.83912980e-01   4.28763210e-01
C     2.683678049504795e+00   6.204557254997352e+00   9.270561672950396e-01 -5.79839420e-01   3.00765970e-01  -2.55960550e-01
C     8.115162214506906e-01   6.215905993878635e+00   2.684420310994776e+00  2.82145215e+00   7.53990190e-01  -6.43795150e-01
C     2.665644905412796e+00   4.393989553524418e+00   2.699870467559346e+00 -4.17034600e-02   1.77165369e+00  -1.12970452e+00
C     3.574352670072639e+00   3.539517560686424e+00   4.351335605761560e-02 -1.19780335e+00   7.07832260e-01  -1.50637092e+00
C     5.309115228630954e+00   5.316090723747960e+00   1.668908354300980e-02  5.06852010e-01   1.04115852e+00  -7.05677990e-01
C     3.581691476669753e+00   5.292518625666230e+00   1.820109479324214e+00 -5.08148550e-01   8.02472700e-01  -1.00536864e+00
C     5.331338219183634e+00   3.546352522288233e+00   1.761579935902979e+00  1.98501120e-01  -3.81433160e-01   1.47444669e+00
C     4.462965492659552e+00   4.432084301187260e+00   8.947329612100541e-01 -6.29954760e-01  -3.18872040e-01   6.65438110e-01
C     6.203568046905554e+00   6.239753543336890e+00   8.393437767338833e-01  5.68898250e-01  -1.26289059e+00   1.68369031e+00
C     4.494044582617585e+00   6.249929747907004e+00   2.628220624171472e+00 -1.78908565e+00  -2.01389174e+00   1.87673416e+00
C     6.219459423262148e+00   4.396878985150996e+00   2.665691607749409e+00 -3.48794840e-01   1.71179497e+00  -2.64121280e-01
C     7.088836285565530e+00   2.574244167606800e-03   3.572697829286703e+00 -4.44512060e-01   7.83214070e-01  -2.84928240e-01
C     1.764342340017338e+00   1.772660616167262e+00   3.569843015678285e+00  6.61522010e-01   1.34244174e+00  -1.85765295e+00
C     2.752331479505660e-02   1.795036011300914e+00   5.318484556149471e+00 -6.51833430e-01  -1.32916751e+00   1.04081067e+00
C     1.791216869079867e+00   7.106591277080409e+00   5.275002832572515e+00 -2.90734800e-01   3.61701060e-01   2.83795258e+00
C     8.714356036625875e-01   9.306547351621883e-01   4.446923488827641e+00  1.26927124e+00  -1.98713132e+00  -1.08909013e+00
C     2.666863786639447e+00   2.666676337534958e+00   4.415654035311844e+00 -4.65949590e-01  -1.73635330e-01   1.68017495e+00
C     8.960156049876069e-01   2.642957450526125e+00   6.203305390689745e+00 -2.47801530e-01   2.33420825e+00   6.18579070e-01
C     2.661541781708079e+00   8.990749279148026e-01   6.245213380582860e+00 -1.86993100e-02  -3.29086050e-01  -1.76747279e+00
C     3.555468434540347e+00   7.067629159689475e+00   3.567933906615231e+00  8.13608460e-01   1.78655572e+00  -1.43117392e+00
C     5.331560357390509e+00   1.805736390955026e+00   3.578459632325570e+00  1.23752680e-01  -1.63068385e+00  -6.97160190e-01
C     3.537604755243608e+00   1.774755752650280e+00   5.304614673017553e+00 -3.43344370e-01  -2.02469720e-01   1.21048625e+00
C     5.290107804134657e+00   5.702945299573600e-03   5.312410124683776e+00  2.10245896e+00  -9.58389480e-01   1.44880521e+00
C     4.413415806281485e+00   8.772403415740796e-01   4.435367894848117e+00  9.05442240e-01   2.23784810e-01   2.93871300e-01
C     6.242203247940195e+00   2.658490420214218e+00   4.487321863008946e+00 -1.17975149e+00   2.82061830e-01  -1.11772360e+00
C     4.402065574631452e+00   2.658236365189779e+00   6.210421774743079e+00  1.20892176e+00   2.81908450e-01   2.19720100e-02
C     6.286264805550265e+00   8.389439279615082e-01   6.200175054620575e+00 -2.47916671e+00   2.22713105e+00   9.37189900e-02
C     7.094862806262767e+00   3.518184331393090e+00   3.546125621438202e+00  2.00725970e-01   1.62634149e+00   5.08452530e-01
C     1.780274589803996e+00   5.368597016346364e+00   3.541449701038766e+00 -7.74138980e-01  -2.29466954e+00   6.31143680e-01
C     7.104641365671517e+00   5.351126788241642e+00   5.318044047199709e+00 -1.79790200e-02  -6.84661840e-01   1.53543233e+00
C     1.788123212471416e+00   3.569681014726775e+00   5.329906085278382e+00 -2.72075500e-01  -6.91422500e-02  -1.71158150e-01
C     8.711097535696868e-01   4.462981344441994e+00   4.442466863266032e+00  6.10174590e-01  -7.43098730e-01  -3.49886330e-01
C     2.685442999757115e+00   6.183800234441596e+00   4.456725221694132e+00 -7.90996260e-01   1.52793312e+00  -1.40966154e+00
C     9.224762106009735e-01   6.206691487804783e+00   6.231858573753987e+00 -6.08262280e-01   4.97140950e-01  -1.36660527e+00
C     2.680104218948364e+00   4.476011296357133e+00   6.217639027313392e+00 -5.30347640e-01  -1.93823663e+00   8.28190160e-01
C     3.582769397875850e+00   3.519588884618575e+00   3.594254120881853e+00 -1.26065086e+00   9.99934190e-01  -1.56177212e+00
C     5.339776201170478e+00   5.340894498217057e+00   3.559498128239399e+00  7.14325490e-01  -6.68364600e-01  -3.82618680e-01
C     3.544411354239163e+00   5.319090335925147e+00   5.333478067644932e+00  1.04149524e+00  -9.73978200e-02   3.64523400e-01
C     5.319238191115644e+00   3.523070945438983e+00   5.361263967571571e+00  3.98222360e-01   1.98405123e+00  -6.53965420e-01
C     4.453001261251967e+00   4.433986159659240e+00   4.437727606821051e+00 -1.59470530e-01  -1.55753400e-02   6.00885910e-01
C     6.234738764431158e+00   6.219254700690691e+00   4.481204070165269e+00 -1.43723472e+00   7.12377350e-01  -1.80330650e+00
C     4.446721965046364e+00   6.184960897686989e+00   6.241402341963599e+00 -9.75883020e-01   1.80602900e+00  -8.15219840e-01
C     6.174932903728503e+00   4.498803671561675e+00   6.231397592547080e+00  1.78426586e+00  -2.82700155e+00  -1.89392470e-01
