64
Lattice="7.10842262195238 0 0 0 7.10842262195238 0 0 0 7.10842262195238 " PBC="1 1 1" Properties=species:S:1:pos:R:3:force:R:3 Energy="-513.8783934"
C     1.739615834102120e-02   1.484622497877480e-02   7.091264309479843e+00 -1.63579960e-01  -8.65255030e-01   9.64582090e-01
C     1.769273026283474e+00   1.745977516925889e+00   3.870180695459000e-03  7.31740530e-01   9.85823920e-01   1.21123137e+00
C     7.092913108106552e+00   1.807790298586849e+00   1.764286894320902e+00  6.26379930e-01  -9.40475730e-01   6.31214940e-01
C     1.776915717947593e+00   7.075182143060130e+00   1.827330570442741e+00 -6.14230740e-01   1.25839413e+00  -1.09953530e+00
C     8.959611544703378e-01   8.818094934657632e-01   9.339718094935853e-01 -4.03843270e-01  -1.11419000e-01  -1.18357322e+00
C     2.689767550826444e+00   2.672999421623900e+00   8.880365427651093e-01 -1.16557119e+00  -2.79026020e-01  -3.03948100e-01
C     8.835241871701596e-01   2.681155341401183e+00   2.658897448493439e+00 -1.63850950e-01  -3.20878400e-02  -2.87461760e-01
C     2.679062053108046e+00   8.930665336952476e-01   2.638591528437147e+00 -8.41875340e-01  -4.23478440e-01   1.71424546e+00
C     3.530616322797434e+00   3.114484286726800e-03   1.164544444144120e-02 -7.39473500e-02  -5.58682820e-01   3.95474170e-01
C     5.315551976397590e+00   1.772326235967217e+00   7.091787631553128e+00  4.26494640e-01  -8.03818750e-01   5.66075080e-01
C     3.539022814472072e+00   1.781241264196090e+00   1.778441256526072e+00  1.15460127e+00  -1.05055890e-01  -1.24940020e-01
C     5.347191138973853e+00   4.106628157068060e-02   1.771314209838807e+00 -1.18199419e+00  -6.82894120e-01  -3.15416400e-02
C     4.407036423485392e+00   8.728337593077153e-01   8.725245429237454e-01  1.17407911e+00   1.24418646e+00   7.55281690e-01
C     6.242314281501518e+00   2.641359619289602e+00   8.339327032670868e-01 -8.17804930e-01   1.07272410e+00   1.06100957e+00
C     4.480418305128855e+00   2.635943427758519e+00   2.693135734716479e+00 -1.16414764e+00   1.28096169e+00  -1.07734379e+00
C     6.185216374395952e+00   9.401832913473936e-01   2.675219239839674e+00  1.07963692e+00  -8.33218440e-01  -1.31932330e-01
C     6.183972258268999e-03   3.552374209258087e+00   7.097010687241625e+00  4.49962390e-01   6.01528350e-01  -1.83082430e-01
C     1.796110875885284e+00   5.314459980514706e+00   9.004238932753999e-03 -3.50718170e-01   9.41745990e-01  -4.79305170e-01
C     7.093982072700149e+00   5.367414459159301e+00   1.785461890126715e+00 -1.64840310e-01  -1.21277214e+00  -9.30264410e-01
C     1.770743616755100e+00   3.565754961829523e+00   1.758583451431744e+00  6.12821800e-01  -3.59910360e-01   4.84174220e-01
C     8.969853360014273e-01   4.432880231268021e+00   8.779929102768590e-01 -7.07155200e-01   9.05707940e-01   3.60328980e-01
C     2.660149241716821e+00   6.236522338750743e+00   9.275310099260556e-01 -6.61439000e-03  -1.00469067e+00  -1.02514140e+00
C     8.421959602259320e-01   6.205576602801061e+00   2.684926359601093e+00  9.99819660e-01   9.58345880e-01   2.18100710e-01
C     2.665148595345467e+00   4.459752414551085e+00   2.653657972348689e+00 -3.94078100e-02  -6.39590400e-02  -4.44281650e-01
C     3.548295467442957e+00   3.552301419010458e+00   7.083536956502321e+00  6.42976540e-01   1.87823300e-01   8.48054540e-01
C     5.314650059735564e+00   5.316265662028638e+00   7.093774080254287e+00 -3.36078500e-02   1.01270629e+00   8.25127990e-01
C     3.563243556117877e+00   5.351885256935196e+00   1.778223241204316e+00  2.36925070e-01  -4.86574830e-01   1.44266700e-01
C     5.365455377885228e+00   3.536378268004754e+00   1.735383905779529e+00 -9.99898890e-01  -1.39391560e-01   1.36635359e+00
C     4.433964905475606e+00   4.435530251220757e+00   9.041592271937575e-01  4.52448550e-01  -1.50917440e-01  -1.10557158e+00
C     6.202201523741085e+00   6.266377073996707e+00   8.747089611948714e-01  8.35707560e-01  -1.32449117e+00   8.33147800e-02
C     4.482236639635050e+00   6.222670582096506e+00   2.665522853796410e+00 -6.41839770e-01  -1.36513140e-01  -4.27932470e-01
C     6.208442007959182e+00   4.435483051294560e+00   2.660847004481201e+00  8.80501410e-01   3.37180440e-01  -7.35732480e-01
C     7.073719798358743e+00   4.629836495590541e-02   3.553578304965689e+00  8.39430070e-01  -8.06393830e-01   8.94205580e-01
C     1.769648777503168e+00   1.802455214157860e+00   3.555853355625220e+00  6.30804390e-01  -2.94073560e-01  -5.00333480e-01
C     3.114342118274400e-03   1.797929210391481e+00   5.381841358287721e+00  9.45498880e-01  -1.28724880e-01  -1.28068524e+00
C     1.798744617550220e+00   7.094562048901714e+00   5.299093987673956e+00 -8.69596620e-01  -5.96921100e-02   8.87280340e-01
C     9.040324129342169e-01   9.229192785828781e-01   4.468885031596356e+00 -6.41391800e-01  -5.69160370e-01  -7.93338320e-01
C     2.684986425772232e+00   2.697451329173307e+00   4.398372393659231e+00 -3.97992960e-01  -6.70862970e-01   1.75428265e+00
C     9.472011526632148e-01   2.691210560618304e+00   6.244761782493812e+00 -1.97830010e+00  -1.25061336e+00  -2.89006900e-01
C     2.649684293019884e+00   8.632251622838090e-01   6.252296923723690e+00 -1.27344840e-01   4.81664780e-01  -1.43924527e+00
C     3.559167586587569e+00   7.074680786012741e+00   3.524825446310051e+00  5.68200300e-02   7.52424180e-01   8.63407240e-01
C     5.327004000659540e+00   1.765174594137687e+00   3.614635034796786e+00 -1.48350780e-01   3.28632020e-01  -8.10842960e-01
C     3.518962134996170e+00   1.760250092199230e+00   5.359327775418335e+00  1.12794225e+00   1.22313330e-01  -1.14034483e+00
C     5.318868339886725e+00   7.085316621189464e+00   5.359109973349259e+00  8.82588000e-03  -3.64595000e-02   2.77260750e-01
C     4.425963878227213e+00   8.265175522110338e-01   4.479760847120731e+00 -5.90652100e-02   1.69357941e+00  -4.51046920e-01
C     6.247150781167941e+00   2.690453016019691e+00   4.459967941924924e+00 -1.05469330e+00  -1.49165967e+00   2.87655370e-01
C     4.445888360325716e+00   2.649468410224914e+00   6.228150465094264e+00 -5.31344850e-01   1.14260030e-01  -6.61575340e-01
C     6.231505853823583e+00   8.689876761649382e-01   6.238265323977166e+00 -6.36077820e-01   1.11426023e+00  -7.12354790e-01
C     7.093369468838757e+00   3.561688019995942e+00   3.539790239778128e+00  6.18479980e-01  -5.80396450e-01   3.70467970e-01
C     1.753751643324252e+00   5.305188464891439e+00   3.539101007120892e+00 -2.36127460e-01   8.83400800e-02   5.79304050e-01
C     7.726002377225599e-03   5.298341845476534e+00   5.318915042223338e+00 -1.60705490e-01   1.41433063e+00  -1.95206900e-02
C     1.786809789223919e+00   3.558271641000544e+00   5.348125256790347e+00  4.89679140e-01  -1.31944080e-01  -1.30671668e+00
C     8.801784658956041e-01   4.395186754062077e+00   4.440654144413705e+00  1.76374010e-01   1.37891408e+00  -9.62123800e-02
C     2.646843198667122e+00   6.179977538009238e+00   4.404066737767435e+00  5.06015200e-01   1.17078247e+00   1.47806330e-01
C     8.974439714288698e-01   6.204515030966991e+00   6.199101753889181e+00  2.39283430e-01   6.04765700e-02   4.56850820e-01
C     2.684660788932010e+00   4.459702513424293e+00   6.191063620674712e+00 -3.42492530e-01  -5.91208030e-01   6.51706070e-01
C     3.572397996020591e+00   3.609107454283248e+00   3.523537897720890e+00  2.76768610e-01  -1.78867399e+00   6.73971230e-01
C     5.362593811275321e+00   5.316621651833447e+00   3.544599798522819e+00 -7.23853570e-01   9.32650910e-01   5.36957230e-01
C     3.550562059079570e+00   5.337411513301709e+00   5.292558859338260e+00  2.58756770e-01  -1.48502840e-01   9.88226960e-01
C     5.331197543499983e+00   3.518210703641010e+00   5.344634665862796e+00  1.13718650e-01   1.83336413e+00  -7.81062380e-01
C     4.474240943703622e+00   4.461131377455140e+00   4.432354705583724e+00 -8.05924570e-01  -7.19021780e-01   1.26149680e-01
C     6.208502998225263e+00   6.230987507646132e+00   4.472745260500148e+00  6.71914120e-01  -5.62085410e-01  -1.22315618e+00
C     4.395234380493632e+00   6.215697788180096e+00   6.253149365764280e+00  1.08960546e+00  -2.69160770e-01  -1.27927030e+00
C     6.216198363300996e+00   4.468062160593866e+00   6.190247218336805e+00 -9.25447100e-02  -1.65207248e+00   1.24630885e+00
