64
Lattice="7.10842262195238 0 0 0 7.10842262195238 0 0 0 7.10842262195238 " PBC="1 1 1" Properties=species:S:1:pos:R:3:force:R:3 Energy="-514.03401983"
C     7.104117332755971e+00   7.247747703352000e-04   2.176399970410640e-02 -8.12581300e-01  -5.21236670e-01  -6.26503240e-01
C     1.750793615419391e+00   1.760135077921238e+00   7.101131653087118e+00  1.40249100e-01   7.49639270e-01   1.07791026e+00
C     7.093700721332849e+00   1.783812736078875e+00   1.794202762001398e+00  9.71161450e-01  -2.58873530e-01   6.03805700e-02
C     1.779591257137536e+00   7.104856893045356e+00   1.779506169318774e+00 -3.43326610e-01   4.60521630e-01  -6.67976850e-01
C     8.704622473532310e-01   8.937576145423639e-01   8.839255287112847e-01  6.34606300e-02  -4.71054900e-01   8.22171550e-01
C     2.638179097756735e+00   2.641483376927416e+00   8.909024455128147e-01  1.12583431e+00   7.16444430e-01  -6.14165100e-01
C     9.132985261562916e-01   2.672426767097633e+00   2.670517800203032e+00 -9.97949440e-01   3.18327620e-01  -3.33649210e-01
C     2.674923529458682e+00   8.906772506842132e-01   2.648195007396767e+00 -9.54746800e-02  -2.40554770e-01   1.11680563e+00
C     3.543669732507219e+00   8.312731580280400e-03   8.356661632072000e-04  6.92566190e-01  -5.46189000e-03   3.36495550e-01
C     5.362199862493721e+00   1.791205851024806e+00   7.090003417475508e+00 -7.90680940e-01  -2.41465410e-01   1.71442165e+00
C     3.560423218359166e+00   1.771584898572177e+00   1.781296212302942e+00 -2.16081490e-01   8.90643890e-01  -2.77104440e-01
C     5.306213570517469e+00   2.873750446277880e-02   1.792724067927985e+00  1.72089950e-01  -1.03874995e+00  -5.66800950e-01
C     4.456568907480719e+00   9.077828167085288e-01   9.114577290346163e-01 -8.16406840e-01  -4.72642900e-02  -1.22354600e+00
C     6.238504309145651e+00   2.665831430422345e+00   9.421627737943851e-01 -5.42460960e-01   7.74765930e-01  -2.23997176e+00
C     4.445128398863412e+00   2.693019725259320e+00   2.652525671709550e+00  2.94639000e-03  -8.81298490e-01   1.00064855e+00
C     6.196649916759092e+00   8.889024908086778e-01   2.672268746862790e+00  1.01168445e+00  -1.00909000e-03   3.39893640e-01
C     7.078288452660844e+00   3.569901589080674e+00   7.107112537711133e+00  1.94046229e+00  -4.62240300e-01   2.70708690e-01
C     1.802976403704359e+00   5.304734663191379e+00   7.081189897521649e+00 -8.75522470e-01   1.23329831e+00  -5.89166510e-01
C     8.973032957452200e-03   5.321404696161767e+00   1.792508895975278e+00 -7.64970700e-02   1.30266410e+00  -9.03932090e-01
C     1.776280651470723e+00   3.593231147782608e+00   1.772028748480570e+00  1.38899980e-01  -2.04068026e+00  -4.42789530e-01
C     9.351559305336249e-01   4.463269306642331e+00   8.466900471747484e-01 -2.13193795e+00  -4.30962690e-01   1.59033855e+00
C     2.644971764243955e+00   6.239628079677647e+00   8.239715995654545e-01  7.50912640e-01  -1.38300668e+00   2.44262281e+00
C     8.987291742385658e-01   6.248092362828186e+00   2.699030678511019e+00 -3.99596210e-01  -1.11222026e+00  -1.35422332e+00
C     2.650672505932516e+00   4.425116412082457e+00   2.666271726119427e+00  4.59893610e-01   1.47880225e+00  -3.42075260e-01
C     3.566371119902224e+00   3.518911949532473e+00   7.056038592270660e+00  4.60882900e-02   1.71644870e-01   1.56331437e+00
C     5.318620611358417e+00   5.295243568393381e+00   7.093087477713421e+00 -1.11601810e-01   1.34626029e+00   4.31518720e-01
C     3.544252196656701e+00   5.298249435982473e+00   1.764407168831632e+00  8.07469900e-02   1.23163755e+00  -4.03433960e-01
C     5.358013783497030e+00   3.575076662916486e+00   1.780555870087069e+00 -9.77299940e-01  -9.86412750e-01   2.47871100e-01
C     4.444902137771417e+00   4.412470243904572e+00   8.821379025908072e-01 -1.55371200e-01   2.76069010e-01  -5.38089180e-01
C     6.154215974676323e+00   6.233775928587280e+00   8.821868085384328e-01  2.26729650e+00  -8.20665870e-01   7.55825810e-01
C     4.428414791262363e+00   6.222800666230452e+00   2.659621085916156e+00 -3.14620360e-01   1.62583300e-02  -2.29278130e-01
C     6.231441806935777e+00   4.442618201583612e+00   2.675945791715664e+00  7.72155900e-02   7.43428970e-01  -6.43482650e-01
C     2.235598913990000e-03   5.241750839988000e-03   3.560847164684223e+00 -6.19232230e-01  -2.06140220e-01   3.62124770e-01
C     1.777815573167059e+00   1.776219803373096e+00   3.560574485592519e+00  2.10165610e-01   3.03373960e-01  -1.72999050e-01
C     7.076790565846357e+00   1.766859432467080e+00   5.350497763923999e+00  1.71522789e+00   5.19781640e-01  -7.59629800e-01
C     1.792278938503521e+00   2.796737795612800e-02   5.339649600163616e+00 -1.00615315e+00  -1.25349208e+00  -9.49179400e-02
C     8.817642838979000e-01   8.859584664963785e-01   4.438258819243444e+00  6.38335900e-02   3.96883850e-01   6.17720800e-01
C     2.656824205952090e+00   2.671804566865704e+00   4.469181808240742e+00  1.03489061e+00  -9.03531370e-01  -8.39844060e-01
C     8.799868939059952e-01   2.660397467834712e+00   6.228240315556181e+00 -4.55744030e-01  -3.40603570e-01   1.28880010e-01
C     2.658285342221631e+00   9.013757110642180e-01   6.255482207899711e+00  5.00549700e-01  -2.66263730e-01  -1.27828059e+00
C     3.546507414817123e+00   7.105188856381710e+00   3.566491465497181e+00  4.47262790e-01  -1.65389900e-02  -1.71431440e-01
C     5.347566037182832e+00   1.763041072172520e+00   3.575668865604958e+00 -3.89343610e-01   1.37568243e+00  -5.44599850e-01
C     3.570153085072969e+00   1.767294112510293e+00   5.360848053764076e+00 -1.76206180e-01   3.13855340e-01  -1.13506247e+00
C     5.325647287118288e+00   7.277958499487000e-03   5.362740102612841e+00 -1.17275790e-01  -9.11546530e-01  -5.42728510e-01
C     4.461681142860570e+00   8.864758174946622e-01   4.462841095263702e+00 -9.38340420e-01  -9.40920300e-02  -1.65573350e-01
C     6.276403717354896e+00   2.694381414696408e+00   4.435340527421030e+00 -1.93306236e+00  -1.45574140e+00  -2.66534600e-02
C     4.497588273462107e+00   2.652775461680417e+00   6.176535853029312e+00 -1.22541727e+00   2.89438160e-01   1.18899826e+00
C     6.203195494476040e+00   8.849718885209488e-01   6.241047560590634e+00  9.36383330e-01   1.24319400e-02  -3.98409470e-01
C     1.087951190413620e-02   3.578251639879709e+00   3.544600935870438e+00  4.90433890e-01  -1.15460735e+00   4.29113130e-01
C     1.785912564120823e+00   5.346547542389838e+00   3.544928278732089e+00 -4.28946490e-01  -7.10955900e-01   1.19836843e+00
C     7.099174206750249e+00   5.314985435114776e+00   5.332079414410221e+00  2.00301730e-01   5.86802860e-01  -5.84300630e-01
C     1.794175749995442e+00   3.521714587318860e+00   5.353967385004821e+00 -1.43577379e+00   6.23405990e-01  -1.03720260e+00
C     8.826516993777808e-01   4.412002580780402e+00   4.449924025099769e+00  7.91121440e-01   1.46379009e+00  -2.01675930e-01
C     2.668475123878949e+00   6.209411525720324e+00   4.463954274245993e+00 -1.12628460e-01   7.59005150e-01  -6.44775710e-01
C     8.618564355083280e-01   6.210949717291067e+00   6.209118729792608e+00  1.09381161e+00   3.03992100e-01   3.00881070e-01
C     2.666534737756368e+00   4.408606105368341e+00   6.187026249879231e+00  7.12403050e-01   6.72950190e-01   8.77281480e-01
C     3.543824553951882e+00   3.577726469616543e+00   3.545789179795598e+00  2.88394380e-01  -1.03849210e+00   5.07973900e-01
C     5.326037468435899e+00   5.357798611544322e+00   3.519604167727208e+00  1.14055600e-02  -8.22231630e-01   1.28910445e+00
C     3.544527505864774e+00   5.326386349818089e+00   5.328788143652935e+00  6.99110680e-01  -2.00613640e-01  -1.22922470e-01
C     5.356274565734593e+00   3.544543997405253e+00   5.298598104111986e+00 -9.69901300e-02   8.70025510e-01  -6.80870800e-02
C     4.450261675174219e+00   4.450746469596903e+00   4.423599830116480e+00 -2.86049390e-01   7.87133800e-02  -5.80452700e-02
C     6.185486067950155e+00   6.208269913047553e+00   4.457544609569539e+00  1.28611781e+00   6.89421180e-01  -5.53690460e-01
C     4.439660955605239e+00   6.208068389266276e+00   6.235171240863359e+00 -6.26885790e-01   1.84033690e-01  -4.45468010e-01
C     6.230785201938367e+00   4.451661323588096e+00   6.191223986689019e+00 -9.42300100e-01  -8.40150710e-01   1.14526644e+00
