64
Lattice="7.10842262195238 0 0 0 7.10842262195238 0 0 0 7.10842262195238 " PBC="1 1 1" Properties=species:S:1:pos:R:3:force:R:3 Energy="-511.52806603"
C     7.100492605893580e+00   7.108112337352638e+00   7.104811256972135e+00  7.30996450e-01  -5.44548210e-01   6.54848830e-01
C     1.774056781454056e+00   1.759417766994654e+00   7.101938459054488e+00  1.52929785e+00   1.47959127e+00   6.25864460e-01
C     1.980477626158200e-02   1.767551366324910e+00   1.757113429633929e+00 -8.40704920e-01   1.03694060e+00  -2.70615600e-01
C     1.748591639344394e+00   2.424498136693880e-02   1.781236643721387e+00 -1.76315220e-01  -4.17233930e-01   4.03397090e-01
C     8.983677820325648e-01   9.157579692985853e-01   8.549722836219891e-01 -6.12460850e-01  -1.14711505e+00   1.35936732e+00
C     2.666674062839720e+00   2.703537987125908e+00   9.273083030453710e-01 -9.92863730e-01  -7.79769710e-01  -6.31916890e-01
C     7.886386162589349e-01   2.699649608868542e+00   2.654156486027030e+00  2.84818714e+00  -1.43663877e+00   9.24157130e-01
C     2.652077414579133e+00   9.109862984464580e-01   2.689917325291048e+00 -5.11717860e-01  -9.99688700e-02  -9.95070310e-01
C     3.555713035362702e+00   7.086600046893504e+00   2.087864566678540e-02 -1.00059629e+00   4.84885570e-01   9.31453310e-01
C     5.316746546818881e+00   1.772614766841363e+00   7.079669477007457e+00  8.22585970e-01   1.24513524e+00   1.32297756e+00
C     3.536506646117271e+00   1.824986852420701e+00   1.808191284706843e+00  7.74377580e-01  -8.24373660e-01  -3.05906090e-01
C     5.311319052895833e+00   5.004251331831180e-02   1.762577247596565e+00 -2.93613640e-01  -7.36060900e-01   3.14359290e-01
C     4.395498884899323e+00   9.281468125776261e-01   9.027889365653001e-01  1.23568292e+00  -4.98003550e-01  -8.46970500e-02
C     6.297979983617608e+00   2.747815214278269e+00   8.346479527511111e-01 -1.67442844e+00  -3.40642234e+00   9.86982170e-01
C     4.545458097406616e+00   2.670939471832850e+00   2.677257651110185e+00 -2.56385056e+00  -1.00201444e+00  -9.84292890e-01
C     6.236707015570411e+00   8.621237832830662e-01   2.682190043397751e+00 -1.21122929e+00   2.06641247e+00  -1.22819051e+00
C     5.895832347367300e-02   3.641283231683095e+00   7.089656384283200e+00 -7.17570720e-01  -2.36887949e+00  -6.36001230e-01
C     1.812139800219575e+00   5.286765423818734e+00   7.075480910062848e+00 -5.87449460e-01   1.39500467e+00   2.30547048e+00
C     7.040264860308428e+00   5.392094618159035e+00   1.741011075293974e+00  1.30429903e+00  -1.22360612e+00   6.99900320e-01
C     1.712612571505943e+00   3.588633704368897e+00   1.811846506702274e+00  1.71533250e+00  -1.05587572e+00  -1.11677764e+00
C     9.200560770357684e-01   4.469675701444379e+00   8.976824590077708e-01 -1.53120052e+00   8.09931730e-01  -9.21210930e-01
C     2.611107096713822e+00   6.193028175434201e+00   9.567365329341353e-01  2.58262854e+00   4.04605680e-01  -2.24180257e+00
C     8.061050058154419e-01   6.252083386708184e+00   2.671676188753187e+00  1.19958925e+00  -3.94196150e-01  -4.48113960e-01
C     2.664844212688879e+00   4.416123902047025e+00   2.649113628851950e+00  1.81066710e-01   7.41619270e-01   1.82595830e-01
C     3.566526652189150e+00   3.540671470930329e+00   1.403110215693940e-02  8.02763000e-03   3.45971290e-01  -5.23232450e-01
C     5.271754070182496e+00   5.272619876057612e+00   7.077409567288107e+00  1.64587579e+00   1.99909086e+00   8.69276520e-01
C     3.593205699629629e+00   5.321747108879372e+00   1.806187207117587e+00 -9.80107430e-01  -3.17096840e-01  -9.25062520e-01
C     5.388121649672492e+00   3.518055384606763e+00   1.758293356704622e+00 -1.80287020e-01   1.38367479e+00   6.35869300e-02
C     4.518628920080402e+00   4.377423730029638e+00   8.702759355963607e-01 -3.07448538e+00   1.44613922e+00   1.20240938e+00
C     6.128688989289866e+00   6.265449922434380e+00   8.414990504722671e-01  2.04853357e+00  -1.47688074e+00   9.41635940e-01
C     4.462325165949943e+00   6.259346986193979e+00   2.677877434478423e+00 -3.19009580e-01  -7.52225610e-01  -1.00916018e+00
C     6.204546236942292e+00   4.430417304998644e+00   2.662831676076705e+00 -2.22386230e-01   2.13493041e+00  -5.64667010e-01
C     7.021130550468365e+00   8.011832050775800e-03   3.583056933570829e+00  2.92321720e+00  -3.77031610e-01   7.26455470e-01
C     1.725061480956122e+00   1.726453807694702e+00   3.590439456967056e+00  7.54383970e-01   2.01538469e+00  -8.44711330e-01
C     6.580778625762640e-02   1.732652067882437e+00   5.390174988630505e+00 -1.35530932e+00   1.38939590e+00  -8.24482650e-01
C     1.841797987580096e+00   7.049062528479844e+00   5.359446841497221e+00 -1.52739704e+00   7.59459670e-01  -1.11261714e+00
C     8.788068957510752e-01   8.587460741067208e-01   4.489079633754419e+00  5.26222170e-01  -8.80666850e-01  -5.25807790e-01
C     2.680487860517165e+00   2.636293872993685e+00   4.418974166264968e+00 -1.09299267e+00   9.04332070e-01  -7.22758490e-01
C     9.807284544558020e-01   2.661817019831926e+00   6.177991942318793e+00 -1.97796495e+00   7.62008190e-01   1.35921220e+00
C     2.688620393584029e+00   8.937271904935503e-01   6.265556193352549e+00 -4.21453230e-01  -1.06399141e+00  -1.56244452e+00
C     3.570427399101875e+00   3.889942110342600e-02   3.506924589963010e+00 -6.99691580e-01  -1.51170667e+00   2.03686836e+00
C     5.382369443004161e+00   1.779003319502635e+00   3.582896922977653e+00 -6.13001030e-01  -6.38359000e-01   5.16889300e-01
C     3.507224565397574e+00   1.814157028390678e+00   5.332071381892661e+00  2.03661701e+00  -1.87889960e+00   2.87216310e-01
C     5.303521184365918e+00   7.090686394720838e+00   5.426887005925304e+00 -1.89228200e-01   9.51053900e-01  -2.26729833e+00
C     4.412100677012559e+00   8.831455214971922e-01   4.463831227450441e+00  9.39420610e-01   6.81419590e-01   3.53186510e-01
C     6.290913358522614e+00   2.638690548764244e+00   4.514070430822649e+00 -1.55146798e+00   3.08741770e-01  -1.84752960e+00
C     4.440566568647027e+00   2.659995557619777e+00   6.208734732802674e+00 -3.46226200e-02   4.64791800e-02  -2.73200760e-01
C     6.233423492993780e+00   8.754240685104434e-01   6.275868524215836e+00 -4.87549020e-01   4.05249830e-01  -1.49630837e+00
C     7.042392482282819e+00   3.575242857837341e+00   3.537724247827851e+00  2.49807525e+00  -5.58692800e-01   1.48148868e+00
C     1.771712139337075e+00   5.327651080370640e+00   3.506707711988874e+00 -7.52234810e-01   3.64742930e-01   4.46570780e-01
C     7.070112558215998e+00   5.369004897636300e+00   5.353230241579126e+00  1.62765145e+00  -7.53139870e-01  -9.96400680e-01
C     1.815531868409612e+00   3.558601187473207e+00   5.276015427374733e+00 -5.72378110e-01   7.52865100e-02   5.10963380e-01
C     8.963928489760504e-01   4.474857954787038e+00   4.409184375548477e+00 -1.17316882e+00  -8.53483220e-01   4.68129190e-01
C     2.675298072246529e+00   6.164418409325903e+00   4.369003590183570e+00  4.85344380e-01   1.64027045e+00   1.62518433e+00
C     9.387968645995888e-01   6.169139610377429e+00   6.237522707066056e+00 -1.71701172e+00   1.49868227e+00  -4.47426670e-01
C     2.686477061995646e+00   4.457667087691283e+00   6.190276220701095e+00  1.12306160e-01  -1.99133271e+00   3.39165000e-01
C     3.567859907935757e+00   3.515214432422454e+00   3.478713108774111e+00  5.56022330e-01   2.10869280e-01   2.17414153e+00
C     5.345630413703406e+00   5.368680184891018e+00   3.550151121167908e+00 -1.06913807e+00  -1.18998705e+00   7.24590130e-01
C     3.543587630225958e+00   5.256472098897115e+00   5.273892283706592e+00  1.07279785e+00   1.93987751e+00   4.46920830e-01
C     5.364001278954081e+00   3.537372523076613e+00   5.308573140321953e+00 -7.66417810e-01  -5.02255480e-01   1.02632868e+00
C     4.456262321213118e+00   4.370883625798108e+00   4.407403431345262e+00 -9.79164300e-02   1.93154590e+00  -1.03253690e-01
C     6.176701905781716e+00   6.273770544363769e+00   4.503597307439698e+00  3.43842580e-01  -1.77788456e+00  -9.45490230e-01
C     4.413952350020842e+00   6.182823323920929e+00   6.249995287563560e+00 -6.78555130e-01  -1.65024820e-01  -1.13865173e+00
C     6.185730384435605e+00   4.463009849216700e+00   6.207109391970612e+00  1.77829894e+00  -2.18754000e-01  -3.35552060e-01
