64
Lattice="7.10842262195238 0 0 0 7.10842262195238 0 0 0 7.10842262195238 " PBC="1 1 1" Properties=species:S:1:pos:R:3:force:R:3 Energy="-514.07811343"
C     7.064056253227984e+00   3.188809953641520e-02   2.336502973080900e-02  1.35538377e+00  -3.80626700e-01  -3.54274070e-01
C     1.775323146943809e+00   1.796277070806140e+00   7.101426297204717e+00  2.24605490e-01  -1.63417146e+00   5.57502460e-01
C     1.701628423620840e-02   1.795835069087628e+00   1.804993063201653e+00 -1.05604848e+00   8.15938100e-02  -3.76844990e-01
C     1.766199131089908e+00   9.119679716102799e-03   1.765150709837684e+00  7.10192160e-01  -2.42008750e-01  -9.01756200e-02
C     8.783197555489266e-01   9.194092105773484e-01   9.270983913254023e-01  1.05830550e-01  -4.76047930e-01  -1.33547677e+00
C     2.691137557117997e+00   2.638739952301453e+00   8.718188898102580e-01 -7.02049800e-01   1.17055099e+00  -5.26608500e-02
C     8.910350886789039e-01   2.686386429607241e+00   2.693284869423047e+00  7.94630860e-01  -1.00658755e+00  -5.67101290e-01
C     2.671209165387053e+00   8.970106419859546e-01   2.645056780978490e+00 -9.41841090e-01  -9.40113090e-01   1.09951457e+00
C     3.552616179964072e+00   7.101074288116575e+00   7.093478725294426e+00  3.39110920e-01  -4.03523820e-01   4.96419700e-01
C     5.321216536215016e+00   1.779877300063764e+00   4.383053387492000e-02  3.28123380e-01  -7.52130880e-01  -7.09362520e-01
C     3.537748061043628e+00   1.750284723444026e+00   1.757725820242642e+00  8.49252080e-01   5.01399570e-01   8.33264670e-01
C     5.309948264677792e+00   7.067062120817077e+00   1.837958870691486e+00  8.46307980e-01   1.86179908e+00  -1.93035201e+00
C     4.427963264257540e+00   8.396805027133926e-01   9.129676290833305e-01  3.90077230e-01   1.16825648e+00  -1.78120210e-01
C     6.219127744262698e+00   2.675567765800732e+00   8.784582276215642e-01  2.53811340e-01  -2.04287960e-01   1.00630879e+00
C     4.426548190566577e+00   2.660263758405230e+00   2.668341983123276e+00  6.53217340e-01   3.86941730e-01  -7.50130090e-01
C     6.221555981429690e+00   8.928800086856987e-01   2.671555700989778e+00 -1.30705500e-01  -2.63571990e-01   2.32266930e-01
C     2.542277591084660e-02   3.531447866075522e+00   8.557972160670399e-03 -1.10299070e+00   6.94105310e-01  -3.38055320e-01
C     1.755162736298548e+00   5.325750927920088e+00   7.094674361979110e+00  3.69218710e-01  -9.39206500e-02   2.94864930e-01
C     3.332847921190580e-02   5.347577481743250e+00   1.786674018351877e+00 -1.04142298e+00  -6.81244150e-01  -5.25729800e-02
C     1.802566816392995e+00   3.537081006664967e+00   1.775877532823943e+00 -3.39092490e-01   3.47659670e-01   3.93834530e-01
C     8.907606324815458e-01   4.417681712864199e+00   9.377060771485498e-01  2.81163080e-01   4.45359920e-01  -2.24837690e+00
C     2.657388046034308e+00   6.224330612030954e+00   8.445303662143400e-01 -6.39384800e-01   2.92025970e-01   6.62707630e-01
C     9.203340163602103e-01   6.200100984856875e+00   2.652149138563368e+00 -6.15367180e-01   1.18524623e+00   5.16140130e-01
C     2.661213230414583e+00   4.477248801651049e+00   2.630021329789570e+00  3.08164960e-01  -9.93157860e-01   1.03789156e+00
C     3.578968239964031e+00   3.545736506383983e+00   7.089328899253097e+00 -7.86760180e-01   5.29968120e-01   4.39592500e-02
C     5.353865592392902e+00   5.332696851998994e+00   7.106780574374780e+00 -4.89580740e-01   2.36628900e-01  -4.04778650e-01
C     3.513825944232089e+00   5.368611304275830e+00   1.739756794122675e+00  1.25256339e+00  -8.56262710e-01   6.02347510e-01
C     5.332518004085875e+00   3.573806387794292e+00   1.751793770482025e+00 -3.50405600e-01  -1.31831590e-01   9.66251200e-01
C     4.416247162095257e+00   4.461473932341198e+00   8.650216028483354e-01  1.11274781e+00  -1.40774830e-01   4.04711740e-01
C     6.231803554562908e+00   6.248559457278546e+00   9.104062511606660e-01 -5.14912840e-01  -1.46284607e+00   3.42725100e-02
C     4.423066627335754e+00   6.231101242408053e+00   2.674344050846699e+00 -4.50523890e-01  -1.07661524e+00   5.79943820e-01
C     6.225462770501642e+00   4.465683113711404e+00   2.678705281376748e+00 -3.86247300e-01  -2.24404320e-01  -8.97276810e-01
C     1.014634919510940e-02   7.090545150363378e+00   3.516228377824970e+00 -3.63191300e-02   3.85510080e-01   1.59131090e+00
C     1.786713541181644e+00   1.735952935010260e+00   3.588431967334942e+00 -1.70063910e-01   1.88042696e+00  -1.13287562e+00
C     7.096960999367512e+00   1.801236546183888e+00   5.322400799423508e+00 -2.63894620e-01  -1.20321935e+00   4.11625690e-01
C     1.771121216164674e+00   7.108383950180947e+00   5.347390885649475e+00 -3.60328250e-01  -1.44429530e-01   1.15211310e-01
C     8.874624665543182e-01   8.984755457194842e-01   4.470028208122105e+00 -1.65643270e-01  -1.05291379e+00  -7.90329540e-01
C     2.672585071669380e+00   2.658884226827366e+00   4.429610925536631e+00  2.49798700e-01   1.21238870e-01   9.14241340e-01
C     8.801457671515521e-01   2.634179401601140e+00   6.226325164333900e+00  4.19919570e-01   1.41028457e+00  -2.35586300e-01
C     2.668596962242656e+00   8.580610354188314e-01   6.242125339628279e+00  9.21306800e-02   1.50948739e+00  -1.01090205e+00
C     3.522080884336469e+00   7.101739636473806e+00   3.566230870723932e+00  1.06796196e+00   5.99422680e-01  -3.17068840e-01
C     5.334318069945938e+00   1.783527403994908e+00   3.569942960100322e+00 -4.23868820e-01  -5.90097760e-01  -1.16773299e+00
C     3.598232278516909e+00   1.775918264085555e+00   5.344820622198536e+00 -1.35681154e+00  -3.04318200e-02  -9.59060000e-03
C     5.330345101459393e+00   2.867566118598480e-02   5.341443979285583e+00  5.09198290e-01  -1.62489275e+00  -4.93033260e-01
C     4.455668270334765e+00   8.894764959352427e-01   4.455508188657362e+00 -4.93972310e-01  -5.07970000e-03  -2.95925210e-01
C     6.212650976076711e+00   2.661663691156012e+00   4.396885027310222e+00  7.72923640e-01   8.26342960e-01   1.32285602e+00
C     4.479304273135848e+00   2.654315714693718e+00   6.245101280758142e+00 -6.78923300e-01   4.52728900e-01  -1.08494151e+00
C     6.185126595018262e+00   8.887330970976431e-01   6.242341435675927e+00  8.71512940e-01   9.52714130e-01  -4.39557840e-01
C     1.058181116481060e-02   3.573705163856184e+00   3.529493476360379e+00 -2.11648030e-01  -3.24666880e-01   1.05261675e+00
C     1.785665901855909e+00   5.339317423574584e+00   3.563443729298856e+00 -2.23234710e-01  -6.83974570e-01  -4.35046730e-01
C     1.653376450876280e-02   5.300889361975090e+00   5.290925059483278e+00 -7.18698680e-01   1.29923699e+00   1.62453181e+00
C     1.764523889131052e+00   3.537411619401023e+00   5.343410240066501e+00  7.96739100e-01  -2.41549800e-02  -6.90336910e-01
C     9.052611037840839e-01   4.433768144337485e+00   4.467867816319434e+00 -2.31272190e-01  -2.54618110e-01  -1.58067695e+00
C     2.640504476048416e+00   6.212462318540377e+00   4.449946416631022e+00  6.08084170e-01   7.02954410e-01  -1.34826520e-01
C     8.649274162486204e-01   6.227070411361381e+00   6.219922181574709e+00 -1.02587400e-01  -2.89058380e-01   2.28561550e-01
C     2.664509974657287e+00   4.450051905622702e+00   6.182514178621186e+00 -2.45570800e-01  -8.19540790e-01   1.38333305e+00
C     3.554060042766646e+00   3.579081832557498e+00   3.535293451628715e+00 -2.65022940e-01  -5.21221760e-01   2.07533100e-02
C     5.310617380499012e+00   5.329108164839287e+00   3.574606654012852e+00  3.68468990e-01   1.68975600e-01  -1.00637001e+00
C     3.539477824603978e+00   5.337887777617249e+00   5.318078523049417e+00  7.33803820e-01  -1.53013000e-02   2.95743960e-01
C     5.354845701703748e+00   3.549582518442535e+00   5.296021585249140e+00 -8.39682610e-01   4.42897600e-02   1.05204914e+00
C     4.435400380339490e+00   4.458857393059001e+00   4.438168257939266e+00 -9.91488400e-02  -8.25591370e-01   5.86430300e-02
C     6.232907421511568e+00   6.185125813091773e+00   4.422400852473165e+00 -2.89234920e-01   1.55012747e+00   3.55645560e-01
C     4.464345663995450e+00   6.227849707733212e+00   6.213247088397624e+00 -7.41965470e-01  -2.38669050e-01  -7.29736500e-02
C     6.224101649738365e+00   4.435763194230015e+00   6.184951372400679e+00  8.09235650e-01  -1.56370210e-01   9.83874310e-01
