64
Lattice="7.10842262195238 0 0 0 7.10842262195238 0 0 0 7.10842262195238 " PBC="1 1 1" Properties=species:S:1:pos:R:3:force:R:3 Energy="-511.11463692"
C     7.090225200261252e+00   1.829885692953500e-02   9.653664423317198e-03  3.49424130e-01  -7.55424370e-01  -1.55292330e+00
C     1.757104046516070e+00   1.784905229551343e+00   7.047642976482630e+00  7.92115470e-01  -5.83371640e-01   2.68985548e+00
C     7.083896002928856e+00   1.742598599317698e+00   1.742766002670399e+00  8.73824940e-01   1.59658218e+00   1.01886390e+00
C     1.761924125726240e+00   2.517270160307500e-02   1.765082184643627e+00  1.57601179e+00  -9.36598190e-01  -1.93804802e+00
C     8.839720177952195e-01   8.871046285596274e-01   8.344545325716209e-01 -5.67071260e-01   5.17278930e-01   1.55123099e+00
C     2.671123366726030e+00   2.687142268184426e+00   9.434476922671761e-01 -4.81835610e-01  -5.81456500e-01  -3.02267806e+00
C     9.143925123975096e-01   2.677625654149222e+00   2.706174003486083e+00 -1.96574733e+00  -1.54798274e+00  -9.96465710e-01
C     2.669882733726161e+00   9.355589070119527e-01   2.602621843716554e+00 -5.05212840e-01  -2.71283681e+00   2.58774151e+00
C     3.539214031040550e+00   2.129178718945980e-02   7.044193685490502e+00  1.32795208e+00  -1.40160609e+00   2.35268915e+00
C     5.320876184939970e+00   1.748355852966089e+00   7.084029285852981e+00 -9.38729030e-01   8.68580620e-01   2.08069941e+00
C     3.518631166838983e+00   1.768240385729467e+00   1.790409067933330e+00  2.41126277e+00   1.21657428e+00  -1.33456895e+00
C     5.411802790957212e+00   7.043784951189852e+00   1.801663549130671e+00 -3.10977633e+00   9.75233100e-01  -1.08716296e+00
C     4.468687346363295e+00   8.225995318313422e-01   9.368958591383221e-01 -1.35823247e+00   1.80097771e+00  -1.88771435e+00
C     6.176368378592386e+00   2.663761528839627e+00   9.205662485272058e-01  1.80155387e+00  -9.84773830e-01  -2.50690199e+00
C     4.421627953681692e+00   2.699476021188162e+00   2.647936758402983e+00  7.17451600e-02  -1.55077833e+00   1.01657470e-01
C     6.211621178891752e+00   8.460909493163348e-01   2.634212100345191e+00  2.02710215e+00   1.00397675e+00   6.18584370e-01
C     7.097491003358058e+00   3.562483807908251e+00   7.103989238980359e+00  1.10602910e-01  -6.11954040e-01   1.13205169e+00
C     1.740970272948135e+00   5.239504151934723e+00   4.983814616798680e-02  1.10109105e+00   5.32844375e+00  -1.69834196e+00
C     7.089867575519240e+00   5.265297347748297e+00   1.766176384137524e+00  1.71100135e+00   2.49928945e+00   4.52898600e-01
C     1.783047301131153e+00   3.543651037355728e+00   1.817086125015476e+00 -4.88765830e-01   2.53628000e-02  -1.84424690e-01
C     9.157820668512673e-01   4.447196807677379e+00   9.151990340279748e-01 -2.29867944e+00  -2.70549399e+00   4.38218920e-01
C     2.639324477893496e+00   6.233586204787552e+00   7.933787257146296e-01  1.01357313e+00  -8.02793730e-01   3.37467012e+00
C     9.933700021589837e-01   6.196941504254963e+00   2.659694800258725e+00 -4.20286623e+00   1.33764867e+00  -1.02452893e+00
C     2.639000262737797e+00   4.420070498285650e+00   2.685458496118426e+00  2.11552463e+00   2.07812239e+00  -2.78599270e-01
C     3.553847856351439e+00   3.607158609137749e+00   7.102301272945013e+00  7.29999000e-02  -1.60053374e+00   1.43894474e+00
C     5.334865347403452e+00   5.273930740272966e+00   2.449669061191300e-02 -3.57930520e-01   2.87675133e+00  -1.76314960e-01
C     3.602708594409176e+00   5.285371248890272e+00   1.791617499778730e+00 -1.51232379e+00   2.11996354e+00  -6.23552470e-01
C     5.311422906950311e+00   3.532880355401904e+00   1.728121941230937e+00  3.75898680e-01  -1.27663540e-01   2.74297432e+00
C     4.468841030460339e+00   4.405374971866419e+00   9.060593796443097e-01 -1.06110688e+00   1.44409225e+00  -8.49189080e-01
C     6.211501473054831e+00   6.224326418061609e+00   8.550622051681319e-01  1.36534706e+00  -1.91072873e+00   1.64157276e+00
C     4.499264155178999e+00   6.228726034073806e+00   2.694365562913965e+00 -1.72606549e+00  -1.32097600e+00  -6.96222680e-01
C     6.209753440848346e+00   4.426573709803783e+00   2.673181965916782e+00 -4.07470420e-01   1.36659550e-01  -8.78690830e-01
C     6.031944423695059e-02   7.100131142603352e+00   3.512596684708412e+00 -1.53659506e+00  -1.28725156e+00   1.03466229e+00
C     1.795978303803421e+00   1.703057145483234e+00   3.555174501265010e+00 -9.58720060e-01   3.77727161e+00   2.87099800e-02
C     7.049514979579607e+00   1.792330261314837e+00   5.327319827876548e+00  1.98308249e+00  -6.11348400e-01  -9.98757510e-01
C     1.830734012108971e+00   6.091420595756600e-03   5.311957033825977e+00 -2.70240532e+00   1.01995620e-01   1.02466989e+00
C     8.857471330918860e-01   8.443415665095528e-01   4.406758128739819e+00  5.30050860e-01   1.30570950e+00   1.42389120e+00
C     2.634862592099148e+00   2.700524442440385e+00   4.428776254552590e+00  1.44359076e+00  -1.21436370e+00   1.52081112e+00
C     8.744961350216286e-01   2.647797077898500e+00   6.234917470175826e+00 -8.01673870e-01   1.15979127e+00  -1.02317957e+00
C     2.674917487299455e+00   9.049549440218404e-01   6.184530624865801e+00  3.35788000e-03   1.05586185e+00   3.93998060e-01
C     3.577835015229951e+00   4.777201204925760e-02   3.533115075516816e+00  2.69061040e-01  -7.09555440e-01   6.78467600e-01
C     5.322946655196497e+00   1.770390185982434e+00   3.491242485568349e+00  2.32600630e-01   7.24571940e-01   1.43555649e+00
C     3.543686152963470e+00   1.846533050055730e+00   5.374012710287863e+00  4.94161800e-01  -1.43559799e+00  -2.55488833e+00
C     5.372889437345450e+00   2.843973263922700e-02   5.286994030690193e+00 -1.30958168e+00  -1.32975507e+00   1.54042972e+00
C     4.475932037444919e+00   9.214244483901183e-01   4.448278780684370e+00 -1.31569186e+00   3.23671520e-01  -8.55705450e-01
C     6.204793823302147e+00   2.681036346406525e+00   4.391517954979443e+00 -6.51221580e-01  -8.67381420e-01   2.00080977e+00
C     4.433254560803190e+00   2.683821497473267e+00   6.234827690798135e+00 -2.86835100e-01  -2.78935700e-02   4.24150070e-01
C     6.172407778761201e+00   8.968240458921796e-01   6.206460748406537e+00  1.93242207e+00   1.50419340e-01  -1.36960710e-01
C     7.054152585581122e+00   3.579488931920947e+00   3.580709021579443e+00  2.60289722e+00  -1.13132039e+00  -8.99512470e-01
C     1.803915710669366e+00   5.383872092461803e+00   3.537263337705170e+00  4.49587150e-01  -2.58813243e+00   2.17909173e+00
C     7.079815910513429e+00   5.336695268638518e+00   5.395631769254748e+00  1.33967562e+00   6.58523180e-01  -2.34304522e+00
C     1.777093357428867e+00   3.561152400351525e+00   5.399233322659398e+00 -6.72146880e-01   1.05162150e-01  -2.74808761e+00
C     8.708421214580437e-01   4.413067422488878e+00   4.459821437334726e+00 -2.56665600e-02   2.27139538e+00   9.39842250e-01
C     2.697590938593564e+00   6.271647685032532e+00   4.485873024310537e+00  1.38984800e-02  -9.93648240e-01  -2.74732016e+00
C     8.807503384953832e-01   6.223997866768113e+00   6.237103239047249e+00  1.78114960e-01  -5.88487190e-01   7.35903000e-02
C     2.648584620040570e+00   4.504333242433546e+00   6.267688506885871e+00  3.62572170e-01  -2.41209648e+00  -1.44633078e+00
C     3.563864050328376e+00   3.598032318588610e+00   3.554997643710224e+00 -1.57848564e+00  -2.20607981e+00  -5.24883200e-02
C     5.312562529264749e+00   5.294538128532572e+00   3.552271350382775e+00  1.16922399e+00   1.16103599e+00   1.22202409e+00
C     3.523099450213689e+00   5.381259889317406e+00   5.351596370639919e+00  1.86203476e+00  -1.34373288e+00   7.96552500e-02
C     5.312192109362020e+00   3.546505922048373e+00   5.357339194190391e+00  3.07775670e-01   5.78411860e-01  -1.38438174e+00
C     4.425777779723021e+00   4.404683322345493e+00   4.432789314542711e+00 -5.45729000e-03   2.19404381e+00   1.52449228e+00
C     6.244722401832496e+00   6.216737750409402e+00   4.467717331012569e+00 -1.27073200e-02  -3.00705290e-01  -1.61081074e+00
C     4.491812395746452e+00   6.203271767850753e+00   6.253016509345512e+00 -1.80559040e+00   8.60498060e-01  -2.09438683e+00
C     6.205292905654296e+00   4.492843898952840e+00   6.238638089659360e+00  3.51695950e-01  -3.05713418e+00  -1.29806260e-01
