64
Lattice="7.10842262195238 0 0 0 7.10842262195238 0 0 0 7.10842262195238 " PBC="1 1 1" Properties=species:S:1:pos:R:3:force:R:3 Energy="-514.01980637"
C     7.105550604008841e+00   2.113653923943900e-02   1.011293960879540e-02 -9.98620000e-03  -7.98154520e-01   5.38780350e-01
C     1.751171143744739e+00   1.742092266374476e+00   2.560944308884780e-02  1.01062678e+00   1.11412109e+00  -9.77338120e-01
C     7.105463952337104e+00   1.813287312883121e+00   1.792142527873443e+00 -1.08744800e-01  -1.64237325e+00   2.96015680e-01
C     1.786086649390787e+00   7.104007863047623e+00   1.752936236165512e+00 -3.36150420e-01   2.60667690e-01   1.89712739e+00
C     8.792572143240521e-01   9.030636060153370e-01   9.381208536084267e-01  2.34098420e-01  -6.37924660e-01  -1.45080128e+00
C     2.678085000418927e+00   2.651630863470144e+00   8.414273264880314e-01 -1.43502220e-01   1.71831280e-01   1.34925413e+00
C     8.858125305799900e-01   2.671115973966505e+00   2.671046027087924e+00  9.29823190e-01   4.01215400e-01  -1.70794960e-01
C     2.692145531445513e+00   8.663197429871997e-01   2.666987188856130e+00 -5.75965490e-01   1.36937284e+00  -7.13043570e-01
C     3.572911508470660e+00   7.093339115874169e+00   7.096710853975514e+00 -6.67565820e-01   1.24159104e+00  -3.76881060e-01
C     5.326414854592795e+00   1.767468837538292e+00   2.065892432360120e-02  7.07686160e-01  -2.63694270e-01  -1.18367034e+00
C     3.578081037736829e+00   1.786057718110723e+00   1.747664132360936e+00 -1.38856253e+00  -5.61584810e-01   7.01252510e-01
C     5.308845463992525e+00   7.100215946085211e+00   1.793748889217111e+00  1.13991907e+00   1.12971610e-01  -2.67612300e-02
C     4.435198785473986e+00   8.813711170427878e-01   8.900609504430591e-01  6.63539040e-01  -2.19463570e-01  -9.38405800e-02
C     6.213905186163784e+00   2.652943718043832e+00   8.875744952948094e-01 -6.47783540e-01   5.20059590e-01   8.37970150e-01
C     4.404896290687188e+00   2.689348011723412e+00   2.647455162770477e+00  6.31823330e-01  -3.66043770e-01   6.42577580e-01
C     6.227463009542683e+00   8.910940885866501e-01   2.676423975305311e+00 -1.06557510e+00   1.36837420e-01  -8.14036000e-02
C     7.085155757585573e+00   3.553201700735281e+00   4.545068555847040e-02  4.69185730e-01  -1.29155880e-01  -1.37732898e+00
C     1.746694827852473e+00   5.354887499228752e+00   7.097504509361037e+00  1.01266111e+00  -1.35969141e+00   5.03279570e-01
C     3.475698782162100e-02   5.325079395235176e+00   1.798972513579418e+00 -1.31776466e+00  -5.37869040e-01  -3.58604210e-01
C     1.787072018934371e+00   3.542611359463327e+00   1.756210873213867e+00  4.92412860e-01   4.54863590e-01   4.91174080e-01
C     9.040539514547553e-01   4.418115682065150e+00   9.025611827045554e-01 -6.72136540e-01   1.13731317e+00  -3.06263120e-01
C     2.649353680283828e+00   6.233034022518431e+00   8.697173557468811e-01  1.49422920e-01   1.40878550e-01  -7.06193630e-01
C     8.896014620049024e-01   6.210105094515358e+00   2.681754154922692e+00  8.20668850e-01  -5.47605790e-01  -1.63318310e-01
C     2.677372736472403e+00   4.479683294229946e+00   2.655037788263458e+00 -1.34902493e+00  -1.39133259e+00  -1.60741830e-01
C     3.588245797746524e+00   3.542012119436460e+00   7.079340996798186e+00 -1.13963621e+00   6.41336920e-01   3.19515910e-01
C     5.336651480755179e+00   5.350888798252324e+00   7.098379769438237e+00  3.71650640e-01  -5.77762080e-01   4.44495430e-01
C     3.536869246755117e+00   5.378916100211138e+00   1.721152559357384e+00  4.82348230e-01  -1.98391233e+00   1.88818107e+00
C     5.301139862788219e+00   3.545913008517638e+00   1.767454123103469e+00  5.44306480e-01   7.09887170e-01  -3.14445500e-02
C     4.448383345581110e+00   4.456578788188160e+00   8.657505005037902e-01 -4.81153600e-01  -1.80971300e-01  -8.82940300e-02
C     6.233829810430739e+00   6.206910640474156e+00   9.346422759151035e-01 -3.78866970e-01   7.85871000e-01  -1.63355362e+00
C     4.428630958394237e+00   6.191187591565204e+00   2.667141441626984e+00  7.64774700e-01   1.41427907e+00  -5.05841290e-01
C     6.193923410178964e+00   4.420313393086575e+00   2.643129545437755e+00  1.09589793e+00   4.72192930e-01   9.68778570e-01
C     9.941555539427200e-03   7.077430252797931e+00   3.542381259823117e+00  1.73730100e-01   1.72937561e+00   3.96617100e-02
C     1.799750317182498e+00   1.814584102421688e+00   3.562659741368096e+00 -2.13824860e-01  -1.79758921e+00  -9.96606900e-02
C     7.095083522785117e+00   1.780911220133843e+00   5.313035239368979e+00  1.93593120e-01   2.75067650e-01   6.93939830e-01
C     1.739603678699440e+00   6.355214159184800e-03   5.326405542559163e+00  1.62354339e+00  -1.29740890e-01  -4.15654310e-01
C     8.857784812356402e-01   9.050216921102422e-01   4.426339060773097e+00  7.53098000e-02  -3.57625530e-01   3.67315630e-01
C     2.698583700896673e+00   2.666221824992635e+00   4.489252937097895e+00 -1.69820567e+00   6.37607960e-01  -1.52411735e+00
C     8.553225156044764e-01   2.654240436498172e+00   6.259351464500230e+00  7.64175790e-01  -2.56560210e-01  -6.98709980e-01
C     2.684124529529557e+00   8.945006579588326e-01   6.205483980054322e+00 -1.24179316e+00  -6.34786690e-01   5.71776080e-01
C     3.572085225425312e+00   7.098949154090099e+00   3.535386785217716e+00 -9.26529300e-01  -4.59174400e-02   6.79391520e-01
C     5.299364889660004e+00   1.805050783593327e+00   3.556662720624733e+00  8.25067650e-01  -6.34355540e-01  -2.07688100e-01
C     3.576054710784772e+00   1.790346727066952e+00   5.328622161984758e+00 -2.64539440e-01  -9.82808180e-01   4.55217190e-01
C     5.367612926318850e+00   7.087293331351633e+00   5.314858976276366e+00 -4.64087720e-01   1.33707811e+00  -6.82798000e-03
C     4.428924962753801e+00   8.961757577492356e-01   4.445755361738496e+00  1.14414742e+00  -5.48055340e-01  -5.42066830e-01
C     6.218894019326953e+00   2.685585381462193e+00   4.435589322212730e+00 -4.31827230e-01  -4.89847240e-01  -2.17811850e-01
C     4.474832790970963e+00   2.643894056290536e+00   6.202663784464064e+00 -4.39669160e-01   8.70547190e-01   4.71380180e-01
C     6.240130716241108e+00   8.994062514931208e-01   6.219570243570793e+00 -8.12309240e-01  -6.65387880e-01  -5.86790300e-02
C     2.214984488392000e-03   3.542831436227642e+00   3.540829917670528e+00 -3.34432960e-01   5.40404440e-01   5.91709020e-01
C     1.772831431562820e+00   5.283905065640671e+00   3.607173110319894e+00  2.57839890e-01   1.67093245e+00  -2.01539699e+00
C     2.395467338713800e-03   5.311426816582752e+00   5.330892592169586e+00 -1.06379380e-01  -9.81090200e-02   3.56821750e-01
C     1.770995894673884e+00   3.520262976335630e+00   5.372466130778429e+00  1.58464660e-01   8.79439980e-01   2.78128500e-02
C     8.902295622276055e-01   4.415193978199878e+00   4.482065113397229e+00  1.03232400e-02  -3.56899810e-01  -8.77290720e-01
C     2.661109873949688e+00   6.213091698279151e+00   4.412273696019128e+00 -1.36881430e-01   4.48452000e-01   1.64874608e+00
C     8.661839721151577e-01   6.203476206085303e+00   6.216647189105223e+00  1.91715240e-01   1.19995657e+00   1.53282130e-01
C     2.658716183716630e+00   4.456509481067616e+00   6.234699170517165e+00  4.23681980e-01  -2.54165650e-01  -5.13989140e-01
C     3.503534014541722e+00   3.579198837193824e+00   3.553246412713561e+00  1.95901105e+00   1.22423280e-01   1.35564070e-01
C     5.340183016197021e+00   5.327314994149166e+00   3.555844754433850e+00 -5.80406330e-01  -4.47403770e-01  -5.59806850e-01
C     3.563642765132216e+00   5.360954751187602e+00   5.337812001832120e+00 -7.86503530e-01  -3.17407140e-01  -2.26538590e-01
C     5.336481944875692e+00   3.559222605778647e+00   5.322824532495886e+00 -1.81766500e-01   1.38441790e-01   2.48427990e-01
C     4.416853510544743e+00   4.482125748242178e+00   4.454263859277731e+00  1.02168178e+00  -1.33344391e+00  -3.80967040e-01
C     6.264434626431566e+00   6.200416598821203e+00   4.413907211537206e+00 -1.40135944e+00   4.83950700e-02   8.57208540e-01
C     4.466802690274054e+00   6.249409553539672e+00   6.195713737500038e+00 -1.24525430e-01  -1.01861755e+00   7.82007460e-01
C     6.213801118856627e+00   4.431129995450524e+00   6.231965839851322e+00  5.96594900e-02   6.02656260e-01  -1.56009920e-01
