64
Lattice="7.10842262195238 0 0 0 7.10842262195238 0 0 0 7.10842262195238 " PBC="1 1 1" Properties=species:S:1:pos:R:3:force:R:3 Energy="-511.58511366"
C     7.096315341340937e+00   7.106402477375622e+00   3.673902930075560e-02  4.50700290e-01   3.06626640e-01  -1.31256093e+00
C     1.790590190541687e+00   1.782809950899871e+00   7.028739050619682e+00 -3.79365710e-01  -2.19234200e-02   2.62814562e+00
C     1.176614545752880e-02   1.788318196503883e+00   1.828408847069969e+00 -5.17626240e-01   3.15072790e-01  -1.97720157e+00
C     1.763665547099687e+00   1.949072615023040e-02   1.847542588236223e+00 -3.33266500e-01   3.20401370e-01  -2.67167498e+00
C     8.995186356547430e-01   9.035080245975394e-01   8.619261691342301e-01 -2.75400580e-01   2.43737030e-01   1.43624403e+00
C     2.668691362095049e+00   2.670897389970940e+00   8.903880800520315e-01  1.07111571e+00  -9.01210730e-01  -8.42589970e-01
C     8.887416982890134e-01   2.686705029109070e+00   2.655288502329265e+00  7.66991790e-01  -3.07367070e-01  -1.58754130e-01
C     2.628114211084851e+00   9.553574989458552e-01   2.726749759265030e+00  7.40424200e-01  -3.83131184e+00  -8.94897880e-01
C     3.561217513502724e+00   7.107096188339107e+00   2.629426852405860e-02  4.38025100e-02  -1.22992398e+00  -4.86471950e-01
C     5.379412197025789e+00   1.794797168300882e+00   7.107424881801057e+00 -1.53866560e+00  -1.23325124e+00   3.03578230e-01
C     3.533956001912762e+00   1.773400460793551e+00   1.846944343388523e+00  1.13852697e+00   2.01501540e-01  -2.17575151e+00
C     5.330050670594472e+00   7.090637915278569e+00   1.811964648686218e+00  4.43255950e-01   1.85837084e+00  -1.02612931e+00
C     4.471651487511608e+00   8.962976671971686e-01   8.665139450931783e-01 -1.12424134e+00  -4.27329050e-01   1.82239099e+00
C     6.214479262374575e+00   2.671342945900762e+00   9.320611365775553e-01  1.15976752e+00   2.70224110e-01  -1.56377555e+00
C     4.465223554189021e+00   2.623268825890154e+00   2.708566627455749e+00 -4.49115780e-01   2.10001193e+00  -1.37102416e+00
C     6.204704754766718e+00   9.549496887401459e-01   2.697130454976240e+00  9.24198670e-01  -2.77426432e+00  -5.83465160e-01
C     2.410985025293260e-02   3.527393363981526e+00   1.807103198456400e-03 -1.12765719e+00   4.62669280e-01  -1.11414373e+00
C     1.738178937553713e+00   5.336554379702190e+00   7.062738138421557e+00  1.01016176e+00   2.80344120e-01   5.72937820e-01
C     7.077127291825867e+00   5.361782455917475e+00   1.764662645540595e+00  9.31801320e-01  -1.73089202e+00  -1.60088530e-01
C     1.810330493410106e+00   3.539407380135814e+00   1.697153245076193e+00 -1.41856809e+00   6.59797610e-01   2.75148025e+00
C     8.859443207353648e-01   4.416294219853001e+00   8.142092473602776e-01  3.46306140e-01   1.40584869e+00   2.00914248e+00
C     2.652714826835468e+00   6.219948624906856e+00   9.508823914854342e-01 -2.10972260e-01   1.88896880e-01  -1.42080057e+00
C     8.260896251693097e-01   6.216740522694224e+00   2.629905107079733e+00  1.91302242e+00   1.41434901e+00   1.91935876e+00
C     2.710074110640772e+00   4.376642585467927e+00   2.670172259779474e+00 -9.36180630e-01   2.22845486e+00  -4.89696570e-01
C     3.590890486382295e+00   3.574489933713431e+00   3.819220413696220e-02 -1.55393550e+00  -1.61569809e+00  -1.84033063e+00
C     5.367868189775135e+00   5.350618678192765e+00   7.076302643717720e+00 -3.43712920e-01  -6.70570500e-02   9.76441580e-01
C     3.525440040529776e+00   5.331640327144983e+00   1.797053808145827e+00  1.90466245e+00  -5.94094880e-01  -6.00765040e-01
C     5.343570677165034e+00   3.608554347919185e+00   1.752037802630570e+00 -9.70682060e-01  -1.95119692e+00   1.02968489e+00
C     4.441485829860246e+00   4.471733589792869e+00   8.528157303675333e-01  6.40701060e-01   3.13829250e-01   1.24916812e+00
C     6.247304252012307e+00   6.248073809845147e+00   9.186397238287333e-01 -1.50331122e+00  -7.47859880e-01  -8.95713640e-01
C     4.471625683937498e+00   6.212442201704362e+00   2.654113835491310e+00 -2.77670796e+00  -6.62850150e-01   2.01528363e+00
C     6.201539729595163e+00   4.452410480248019e+00   2.658829705225871e+00  5.91218980e-01   4.63392680e-01  -2.79682300e-02
C     7.073238700315821e+00   4.980537633970860e-02   3.573632302524328e+00  5.52239000e-01  -1.94834147e+00  -7.47510310e-01
C     1.776853092744311e+00   1.764143233099752e+00   3.583825780561408e+00 -1.06101009e+00   2.48646747e+00  -8.68785280e-01
C     1.595364613874460e-02   1.756178885312077e+00   5.314183747211692e+00 -7.68015450e-01   7.43780390e-01   4.83781160e-01
C     1.734012051298095e+00   4.243941556818600e-02   5.351349779459231e+00  9.44371300e-02  -2.11988109e+00  -4.13365380e-01
C     8.871338441765956e-01   9.116923780653026e-01   4.424320908507053e+00 -1.57863930e-01  -5.99958910e-01   6.66926550e-01
C     2.645547901897305e+00   2.654910120993203e+00   4.428552836829644e+00  1.76755369e+00  -6.91184840e-01   1.05703992e+00
C     8.767114038469255e-01   2.669680285849944e+00   6.161439695911219e+00  1.10970662e+00  -2.06175550e-01   6.54293780e-01
C     2.627932448718457e+00   8.142393159879602e-01   6.242359206732477e+00  2.08462515e+00   2.45510646e+00  -9.34178740e-01
C     3.470138929409867e+00   7.084623123478656e+00   3.619960736107916e+00  2.88407992e+00   1.04968515e+00  -1.59160505e+00
C     5.353199675361861e+00   1.773791850543008e+00   3.570211089801548e+00 -8.51117070e-01   1.21078376e+00  -4.41291790e-01
C     3.562277663652271e+00   1.721976923128626e+00   5.330595673356748e+00 -6.85052050e-01   1.19401073e+00   3.36203040e-01
C     5.337499160152614e+00   4.084791082779420e-02   5.259982380155323e+00 -4.17112910e-01  -2.18058021e+00   2.90393962e+00
C     4.457718481586824e+00   9.043425534131273e-01   4.388303739523358e+00 -1.31282113e+00  -1.28343601e+00   2.18366107e+00
C     6.211618335522704e+00   2.661462096290509e+00   4.470950668125503e+00  9.82536050e-01   1.91047490e-01  -9.79856230e-01
C     4.423433208690267e+00   2.636739002418149e+00   6.232266881549280e+00  1.26439219e+00   5.50167840e-01   1.23402200e-01
C     6.233451429094677e+00   8.228931096855482e-01   6.216817649079650e+00 -3.31859000e-01   3.23740863e+00  -9.43568000e-03
C     2.393043366600380e-02   3.595499445440650e+00   3.500876957250592e+00 -6.65143970e-01  -1.02232043e+00   1.69290129e+00
C     1.779998711922114e+00   5.367707894845054e+00   3.522522672802302e+00 -4.86290000e-01  -1.68283618e+00   6.35997910e-01
C     1.530834353330100e-02   5.362330302048798e+00   5.299054322675737e+00 -5.53176650e-01  -1.02138621e+00   7.88966210e-01
C     1.822911619521018e+00   3.566966592465102e+00   5.264337070936562e+00 -2.20094776e+00  -5.16242690e-01   1.58399290e+00
C     9.247932720381888e-01   4.468574393527862e+00   4.390889925840967e+00 -9.39749580e-01   1.44881280e-01   3.71799390e-01
C     2.607020464549584e+00   6.193903577679855e+00   4.535842036538958e+00  1.22323284e+00   7.79741080e-01  -3.09760732e+00
C     8.317777849498338e-01   6.273984081379274e+00   6.174698183613591e+00  1.45544357e+00  -1.72833271e+00   2.11711431e+00
C     2.669502219863312e+00   4.402609653298787e+00   6.202377101779799e+00  1.19081390e-01   1.06736878e+00   7.52447570e-01
C     3.595166913430488e+00   3.507311074900859e+00   3.596779316933381e+00 -9.01981450e-01   1.95288080e-01  -1.63366154e+00
C     5.306525914607393e+00   5.282208853835087e+00   3.590505280960517e+00  1.21632007e+00   2.12800956e+00  -1.28022480e+00
C     3.532189985397050e+00   5.262057897391911e+00   5.323488814589725e+00  1.29551147e+00   1.79898816e+00   8.46616590e-01
C     5.337308938763302e+00   3.529460208942517e+00   5.352920527605573e+00 -1.36485510e-01   6.66371030e-01  -1.66345850e-01
C     4.461405975820949e+00   4.411283777085067e+00   4.443471141213785e+00 -1.17476077e+00  -4.16578040e-01   7.47091020e-01
C     6.209457090709319e+00   6.223577332485913e+00   4.490027684079249e+00  3.04271300e-02   1.25906600e-01  -3.10410830e+00
C     4.502754035264287e+00   6.185590988268027e+00   6.184632346393493e+00 -2.70272914e+00   1.54977565e+00   2.70396250e-01
C     6.231936482065902e+00   4.456684845853650e+00   6.216149599521823e+00  6.69664420e-01  -1.04866926e+00  -4.20242600e-02
