64
Lattice="7.10842262195238 0 0 0 7.10842262195238 0 0 0 7.10842262195238 " PBC="1 1 1" Properties=species:S:1:pos:R:3:force:R:3 Energy="-511.69869988"
C     7.101620925816053e+00   1.082935487412948e-01   5.924123869394900e-02 -1.02541915e+00  -3.81233607e+00  -1.75037567e+00
C     1.806908925266195e+00   1.786671246067056e+00   7.103508140937437e+00 -5.72930200e-01  -4.17520030e-01   7.23412440e-01
C     7.082902956288843e+00   1.817623592849774e+00   1.791761445336785e+00  1.14393211e+00  -2.42077000e-03   3.41815560e-01
C     1.742016917094704e+00   1.837975077895060e-02   1.761504515538981e+00  6.86475710e-01   2.67336400e-02  -1.54227350e-01
C     8.902797476913028e-01   9.364203056650442e-01   8.864113441014988e-01 -4.34583840e-01   1.96316460e-01   9.81051800e-01
C     2.670606300064651e+00   2.645301310716618e+00   9.043273413887206e-01  1.29568563e+00   7.28581510e-01  -1.53530700e+00
C     9.142905065329124e-01   2.729283343255251e+00   2.668572722521521e+00 -8.69160180e-01  -2.21221854e+00  -2.51869060e-01
C     2.655240946981937e+00   8.937797928209384e-01   2.639679685771817e+00 -2.12677000e-01  -1.29172476e+00   1.90905628e+00
C     3.545285263716066e+00   7.746901139728400e-03   2.504972589174900e-02  1.27060113e+00  -1.59086504e+00  -8.63821420e-01
C     5.347600157611408e+00   1.754716327358012e+00   4.715926601941360e-02 -1.16899935e+00   6.72258900e-01  -1.55216420e-01
C     3.548210877213779e+00   1.724889101707587e+00   1.783300005555294e+00  4.28402900e-01   2.00423013e+00  -8.94480000e-01
C     5.275958417825321e+00   7.082655085592084e+00   1.863839429019061e+00  1.48617822e+00   1.50110504e+00  -3.35107823e+00
C     4.444181770223106e+00   8.522704432683532e-01   8.995567367999860e-01 -6.01857100e-01   2.78237040e-01   9.15296050e-01
C     6.168401471772568e+00   2.661836710162583e+00   9.625510804688429e-01  2.57536052e+00   1.27842222e+00  -3.39193664e+00
C     4.434548649141162e+00   2.657785193606088e+00   2.603642826457465e+00 -1.91603310e-01   1.03950626e+00   1.91402700e+00
C     6.191190079513121e+00   9.369151940478486e-01   2.653277103064710e+00  1.20163320e+00  -2.44119183e+00   1.47460564e+00
C     3.794916716758440e-02   3.572699961813489e+00   7.083416824160042e+00 -5.62236390e-01  -1.39893517e+00   7.57963240e-01
C     1.751215713554567e+00   5.283570827609079e+00   3.675267747218600e-03  6.76468800e-01   2.59936856e+00  -1.52217965e+00
C     7.094395072054371e+00   5.317601761144293e+00   1.801377008614859e+00  1.03722734e+00   1.52548415e+00  -1.28024891e+00
C     1.817711239700678e+00   3.577711541929041e+00   1.732064698921346e+00 -9.74273820e-01  -1.17581083e+00   1.35227307e+00
C     9.387018960733857e-01   4.434962501506098e+00   8.435392388484334e-01 -2.49112738e+00  -3.32921550e-01   2.29173055e+00
C     2.615453470640595e+00   6.247138270344130e+00   8.239656995746800e-01  6.00578140e-01  -1.08419524e+00   2.52165877e+00
C     9.254634541228024e-01   6.231757278731652e+00   2.685174585718984e+00 -2.15993084e+00  -1.54204420e-01  -1.57603006e+00
C     2.641543585267007e+00   4.435655004037738e+00   2.659507706575366e+00  1.26221618e+00   1.07918322e+00  -9.41981920e-01
C     3.610397704073004e+00   3.559938423936482e+00   7.025709227646358e+00 -1.14764907e+00  -3.29598480e-01   3.23336659e+00
C     5.348852946013956e+00   5.299357425816254e+00   7.063566482909466e+00  5.12538510e-01   2.19151358e+00   1.23156599e+00
C     3.495557511351368e+00   5.373563955567862e+00   1.769253904626626e+00  1.54297748e+00  -9.20170590e-01  -1.05879285e+00
C     5.354195636455149e+00   3.636693394281586e+00   1.718249195222472e+00 -1.57742661e+00  -2.34051789e+00   2.43867892e+00
C     4.481747580158794e+00   4.497691132337418e+00   8.608257853126542e-01 -2.02404780e+00  -1.33474694e+00  -5.83855980e-01
C     6.169484013453368e+00   6.248481975471988e+00   9.185408456700893e-01  1.88247795e+00  -5.19183510e-01  -4.84197800e-02
C     4.408540210290653e+00   6.216414246095965e+00   2.649719621880305e+00 -1.42559812e+00  -1.38366060e-01   2.27795472e+00
C     6.208344693653515e+00   4.472435120021237e+00   2.676319907998154e+00  2.57289450e-01  -4.71768140e-01  -9.62608050e-01
C     1.621587584919640e-02   7.085001362646267e+00   3.565293838454163e+00 -1.04735114e+00   7.88992280e-01  -1.30835610e-01
C     1.804739647935250e+00   1.732114315711234e+00   3.574476498794679e+00 -1.56025991e+00   2.33174195e+00  -4.22106740e-01
C     7.070342871108886e+00   1.814834247813686e+00   5.347233647341120e+00  1.34246003e+00  -1.09247336e+00  -8.09110290e-01
C     1.780321789730193e+00   7.106312058239896e+00   5.335084428988600e+00 -7.46737000e-01  -8.91015230e-01   1.42196582e+00
C     8.375338301663787e-01   8.526088041850652e-01   4.459484711355216e+00  2.03194425e+00   1.49901847e+00   9.23858200e-02
C     2.682514116384997e+00   2.671450069829645e+00   4.457298658146887e+00  1.03206592e+00  -1.68887246e+00  -2.14595230e-01
C     9.127780474520550e-01   2.638159976099888e+00   6.219972580291086e+00 -1.75539020e-01   1.14500200e+00  -5.20555830e-01
C     2.712581180214620e+00   8.741992162087912e-01   6.275684842575335e+00 -1.40671222e+00   7.50788910e-01  -2.22402554e+00
C     3.485588943805984e+00   7.087245776004305e+00   3.600828985299995e+00  2.55600991e+00   3.77981740e-01  -1.38760755e+00
C     5.330691637062118e+00   1.782090436362275e+00   3.532451930770597e+00 -4.69128570e-01   7.75692070e-01   9.96888220e-01
C     3.607297436631517e+00   1.755300924034281e+00   5.387428507382815e+00 -6.73728210e-01  -3.95340100e-02  -1.49463742e+00
C     5.349386433131587e+00   7.106036464694919e+00   5.310982326916323e+00  3.72504450e-01  -8.63235500e-01   2.26725739e+00
C     4.466489208836513e+00   8.439820224934332e-01   4.492549823509052e+00 -1.41652865e+00   1.56693374e+00  -2.26548074e+00
C     6.220850470484655e+00   2.725163941262734e+00   4.430441118214421e+00  3.95016070e-01  -2.53710898e+00  -2.18501200e-01
C     4.496319846529794e+00   2.620777537014523e+00   6.223023302026911e+00 -4.39493270e-01   1.31498486e+00   4.71745780e-01
C     6.202072861291663e+00   9.299555507132852e-01   6.243302138993020e+00  7.98687710e-01  -6.77483400e-01  -2.26178740e-01
C     7.101799205055363e+00   3.582508660934148e+00   3.543026988933918e+00  1.11135850e-01  -6.26850980e-01  -2.41842870e-01
C     1.762216068643243e+00   5.322746979605101e+00   3.494232217038095e+00  6.83887670e-01  -4.38194340e-01   2.61018119e+00
C     7.102853028708777e+00   5.310746469453791e+00   5.293701111769067e+00  6.51554090e-01   1.54704030e-01   1.37417918e+00
C     1.832485172021408e+00   3.529179781670158e+00   5.323610937290336e+00 -2.61543944e+00   2.39308330e-01  -3.86096830e-01
C     8.848534622000996e-01   4.403450295357827e+00   4.390024404302756e+00  8.23009350e-01   1.85646381e+00   1.57842580e+00
C     2.668515499719430e+00   6.182459301598559e+00   4.466196697245699e+00 -1.58825023e+00   9.35441790e-01  -9.75453470e-01
C     8.340998933671092e-01   6.200335918224466e+00   6.256744379420119e+00  1.47202788e+00   9.48352420e-01  -9.85100310e-01
C     2.640903827231207e+00   4.430232414926297e+00   6.210619388891915e+00  1.57946989e+00   6.64944000e-02  -4.64520150e-01
C     3.543567229053038e+00   3.580857018938391e+00   3.553338608954943e+00  4.47793660e-01  -2.07483640e+00  -8.18706730e-01
C     5.285351132054258e+00   5.324959120724445e+00   3.516421655836008e+00  1.20695041e+00   6.37154300e-02   1.91188027e+00
C     3.523880665859627e+00   5.326846406930056e+00   5.323968348779670e+00  1.71474778e+00  -8.32885350e-01   5.35013570e-01
C     5.379502829414194e+00   3.519841589042716e+00   5.350230273980808e+00 -1.44679549e+00   1.06821207e+00  -1.17405958e+00
C     4.457291691892721e+00   4.398070783287465e+00   4.426557289347531e+00 -8.40063170e-01   1.49318084e+00   7.50800840e-01
C     6.242078921628570e+00   6.205261628594769e+00   4.479642278631429e+00 -1.28367976e+00   3.30973240e-01  -2.67435255e+00
C     4.480541778429763e+00   6.182451411249451e+00   6.227414032510832e+00 -1.74194482e+00   1.22322792e+00  -1.09737002e+00
C     6.251906600237626e+00   4.432525165558152e+00   6.189969350096590e+00 -1.92177200e-01  -3.65945860e-01   6.80785460e-01
