64
Lattice="7.10842262195238 0 0 0 7.10842262195238 0 0 0 7.10842262195238 " PBC="1 1 1" Properties=species:S:1:pos:R:3:force:R:3 Energy="-511.27990936"
C     2.489831648994300e-02   7.069335891960536e+00   7.073610541903074e+00 -4.38784200e-02   1.70632754e+00   5.01665780e-01
C     1.747563121675506e+00   1.833344509231939e+00   1.184476461170600e-02  9.80929930e-01  -2.31334674e+00   5.44574270e-01
C     7.105025931335259e+00   1.805632110395191e+00   1.789459311587072e+00 -1.38749202e+00  -9.27823240e-01  -7.38389890e-01
C     1.725378445520748e+00   7.087711946359725e+00   1.789190542127810e+00  2.38725148e+00   8.55943660e-01  -1.18369431e+00
C     8.865288463274074e-01   8.860698554788340e-01   8.884362493690320e-01 -9.21386410e-01   6.10336970e-01   1.44147710e-01
C     2.685610403109816e+00   2.660904298367518e+00   8.728158460827129e-01 -8.35336000e-01   1.12089077e+00   7.56783610e-01
C     8.566357255992951e-01   2.658193003811797e+00   2.668712189773326e+00  1.29092614e+00   5.98132400e-02   7.28110670e-01
C     2.703418565625892e+00   9.174064835883895e-01   2.632133597571104e+00 -1.12749571e+00  -1.33173420e+00   1.05488322e+00
C     3.552692950928368e+00   7.059994216206011e+00   7.099131840551434e+00 -9.65844480e-01   1.48281751e+00   7.12981630e-01
C     5.336324919820016e+00   1.733049997380705e+00   7.066689568387563e+00 -1.00234304e+00   1.17883508e+00   1.98358432e+00
C     3.587202210221681e+00   1.773364421090868e+00   1.723493860515734e+00 -1.57104094e+00   2.92240630e-01   1.33154974e+00
C     5.395455124952640e+00   7.087195945961739e+00   1.803278724918387e+00 -1.57050850e+00   6.67132980e-01  -1.95452829e+00
C     4.412687050794482e+00   8.792326191817870e-01   8.909298129399017e-01  1.98548300e+00  -1.45489012e+00  -1.25699399e+00
C     6.150120670236489e+00   2.659735958025695e+00   9.193771515913323e-01  2.48735407e+00  -5.43289110e-01  -2.45346734e+00
C     4.445636508912290e+00   2.659867606012617e+00   2.619770202445042e+00 -1.41171368e+00   3.53386290e-01   1.46698602e+00
C     6.188159687865990e+00   9.143657136442321e-01   2.670550498947084e+00  2.08175548e+00  -4.32028000e-02   3.16397610e-01
C     7.057298346927376e+00   3.554752332045608e+00   7.103444947060345e+00  1.25272614e+00  -3.37809460e-01   1.34924356e+00
C     1.733322747556634e+00   5.312505235378431e+00   2.880290195088280e-02  1.65231546e+00   1.31833568e+00  -7.00487800e-01
C     7.083736063419907e+00   5.259598383165391e+00   1.795442257653647e+00  3.35581710e-01   2.05981398e+00  -6.03294400e-02
C     1.796493877696050e+00   3.583116573236610e+00   1.791164551089383e+00 -1.12799193e+00  -2.56697951e+00  -4.11121390e-01
C     9.006174556233425e-01   4.448258663848355e+00   9.401246468607786e-01 -1.52879000e+00  -9.64700340e-01  -1.81227929e+00
C     2.630706652814364e+00   6.201878232680327e+00   8.952724194026861e-01  1.24527087e+00  -2.61227090e-01   2.43371860e-01
C     8.569774985588648e-01   6.205145121548027e+00   2.641397507182166e+00  1.61548900e-01   1.08616730e-01   9.54904590e-01
C     2.650607677118222e+00   4.401340870945343e+00   2.655715576360275e+00  1.51102472e+00   2.13097806e+00   4.77169340e-01
C     3.533543002558540e+00   3.578541876775283e+00   7.107925670174636e+00  4.58509660e-01  -5.74041290e-01  -3.55729080e-01
C     5.365784853273666e+00   5.309186668278286e+00   5.432754155787400e-03 -5.69910700e-01   2.37970412e+00  -1.67832428e+00
C     3.575416019012365e+00   5.283347409886132e+00   1.771146024559618e+00 -1.63934600e-01   1.64620890e+00  -5.04660120e-01
C     5.282399288477077e+00   3.544850939093984e+00   1.725253834872220e+00  1.01763727e+00  -2.10997500e-02   1.89024516e+00
C     4.460439443597308e+00   4.457084623541800e+00   8.052353613921110e-01 -1.22863996e+00  -6.48765260e-01   3.17433728e+00
C     6.258576291013519e+00   6.237337674825257e+00   8.326495618999507e-01 -7.05793660e-01  -2.24100214e+00   2.61234014e+00
C     4.535321486750497e+00   6.189113638181594e+00   2.650208681356561e+00 -2.57780015e+00  -3.48801460e-01   7.12782580e-01
C     6.202320518735744e+00   4.353835851249692e+00   2.700550317098723e+00 -8.02658500e-02   2.46788938e+00  -8.54788610e-01
C     6.575674778321480e-02   9.213191015668901e-02   3.498809188194661e+00 -2.47118402e+00  -2.76037757e+00   2.46743471e+00
C     1.798331902532903e+00   1.787616524107063e+00   3.574985461854272e+00  3.88938680e-01   1.46157520e+00  -1.41143900e+00
C     6.902448966162880e-02   1.775363380615838e+00   5.346929691189889e+00 -2.72177692e+00   6.05544170e-01   2.68849700e-02
C     1.782585893418889e+00   1.922636391299260e-02   5.292741474715367e+00 -8.26254690e-01  -5.59753560e-01   8.06164200e-01
C     9.256971079743217e-01   9.507250820928536e-01   4.441785236621000e+00 -2.38976120e-01  -1.71816661e+00  -7.59957760e-01
C     2.647428221848748e+00   2.726758858045983e+00   4.460342626881224e+00  1.41807603e+00  -1.81161773e+00  -6.81398850e-01
C     8.998758338913980e-01   2.684047474228357e+00   6.259126411840081e+00 -1.17925959e+00   5.86177560e-01  -1.02046059e+00
C     2.577030029515804e+00   8.811781944528810e-01   6.244330869914586e+00  3.63407175e+00   1.78666460e-01  -1.36838376e+00
C     3.578455082935093e+00   7.090877042615507e+00   3.515347288841221e+00  6.64127050e-01   6.34730710e-01   3.69781100e-02
C     5.271962062628357e+00   1.763011003544838e+00   3.596741926630400e+00  3.57511687e+00   2.89753356e+00  -3.26861396e+00
C     3.534145725712490e+00   1.752805583357756e+00   5.319297333191842e+00  6.08647400e-02   1.67742408e+00   6.18798720e-01
C     5.359785486750837e+00   6.261226595303160e-02   5.355454182680019e+00  1.63729070e-01  -2.63353544e+00  -1.98651502e+00
C     4.534531456660510e+00   9.177977311693943e-01   4.408526846456127e+00 -5.82000954e+00  -2.66157729e+00   2.91289456e+00
C     6.168743600153269e+00   2.678340974717473e+00   4.481915623269531e+00  1.06753991e+00  -1.41254190e+00   6.88726120e-01
C     4.390950631770141e+00   2.689553871642487e+00   6.245784968845734e+00  1.16044983e+00  -1.71953232e+00  -1.09152814e+00
C     6.237909689593488e+00   8.432704693891712e-01   6.199454118398455e+00  1.38259188e+00   2.53797657e+00   1.08246708e+00
C     7.052628255434489e+00   3.481848420739114e+00   3.596183844370505e+00  1.62905533e+00   1.54276102e+00  -6.85490970e-01
C     1.747670316688616e+00   5.299266438006717e+00   3.513835185181495e+00  3.26450610e-01   8.44016540e-01   1.40692239e+00
C     7.108018221837148e+00   5.281958708443089e+00   5.338249667412834e+00  3.19472420e-01   2.15929409e+00   3.38958900e-02
C     1.785441275701117e+00   3.591399804863018e+00   5.355451552563650e+00  2.96295020e-01  -7.18352210e-01   5.68845410e-01
C     9.048854236486167e-01   4.413392064149934e+00   4.486107602256998e+00 -1.66566578e+00   5.26900600e-01  -1.90079774e+00
C     2.630951964478981e+00   6.230194776355550e+00   4.400053109103504e+00  1.83640723e+00  -5.51264200e-02   1.39170660e-01
C     9.131156975265051e-01   6.240486421709012e+00   6.195675565270569e+00 -8.74067250e-01  -2.03396132e+00   1.55860220e-01
C     2.670675465016743e+00   4.472735877382289e+00   6.258221509640554e+00 -4.51704810e-01   2.56754260e-01  -1.36536807e+00
C     3.562382015296332e+00   3.595712698119251e+00   3.540450967660656e+00 -5.15462300e-02  -1.73122752e+00   6.66700050e-01
C     5.362578385998236e+00   5.324523516586292e+00   3.608141917238773e+00  1.39739530e-01  -3.49532620e-01  -1.43606065e+00
C     3.567596114372329e+00   5.389243927435738e+00   5.309014360113976e+00 -1.71351460e-01  -1.23147741e+00   5.29090960e-01
C     5.303189505366469e+00   3.578866802773244e+00   5.409674458140557e+00 -2.49242940e-01  -1.12893233e+00  -2.59173178e+00
C     4.480012129860348e+00   4.451763542705372e+00   4.455609625848149e+00 -1.98915431e+00   5.15846930e-01   7.91115800e-02
C     6.218030985736658e+00   6.209801493785258e+00   4.497415112287084e+00  1.66138369e+00   9.71776920e-01  -1.89005912e+00
C     4.507715998589951e+00   6.250971842663096e+00   6.188448360908588e+00 -2.59387716e+00  -3.82795930e-01   1.01250878e+00
C     6.193941252319740e+00   4.445164651818774e+00   6.214648656085610e+00  1.56002601e+00  -3.64632190e-01   1.21760317e+00
