64
Lattice="7.10842262195238 0 0 0 7.10842262195238 0 0 0 7.10842262195238 " PBC="1 1 1" Properties=species:S:1:pos:R:3:force:R:3 Energy="-513.55002028"
C     3.895401378914760e-02   7.070476296201464e+00   1.843569406497000e-02 -1.55445165e+00   1.19598132e+00  -7.65518200e-01
C     1.788631393604520e+00   1.774163692130260e+00   1.473334322756920e-02 -7.34726060e-01  -1.76079080e-01  -3.68164430e-01
C     2.786786003944800e-03   1.729481569225465e+00   1.804700764863518e+00  8.23283400e-02   1.94329970e+00  -6.67872130e-01
C     1.752700663039885e+00   1.812988972385760e-02   1.825186030422513e+00  1.05060576e+00  -9.30093240e-01  -2.31631585e+00
C     9.072592813825657e-01   8.663567067848238e-01   8.822777252637425e-01 -9.42341280e-01   5.94903350e-01   1.19963162e+00
C     2.642681928065374e+00   2.665331779396384e+00   8.928649388297444e-01  8.49758310e-01   3.13358000e-01  -3.70786840e-01
C     9.256145081034775e-01   2.673154385237016e+00   2.685753140236026e+00 -1.57288960e+00  -1.28706861e+00  -3.85540280e-01
C     2.680565342323723e+00   8.968296615460494e-01   2.654475298781537e+00 -7.82579050e-01  -7.16221790e-01   9.10950860e-01
C     3.548821775053742e+00   1.706135163561920e-02   7.079454091802071e+00  5.81221600e-01  -6.85952410e-01   8.53717960e-01
C     5.355760484610715e+00   1.784270091990246e+00   7.087481846719515e+00 -1.04092032e+00   1.84252650e-01   9.84460970e-01
C     3.545448117678290e+00   1.775623904304861e+00   1.778422419206129e+00  5.95085200e-01   8.93611160e-01  -4.53074270e-01
C     5.353659305968470e+00   9.309758936961600e-03   1.780617855532316e+00 -1.00129080e+00   1.12836680e-01  -1.28188852e+00
C     4.458379920311616e+00   9.317884574858523e-01   8.951989893970215e-01 -4.60623150e-01  -1.35062479e+00  -1.04435489e+00
C     6.188563019765448e+00   2.665938980856585e+00   9.522900013326465e-01  1.45813330e+00  -7.54964300e-02  -2.12338047e+00
C     4.433977984973227e+00   2.676712008589873e+00   2.660194238032006e+00 -2.13928550e-01   9.53531900e-02   1.18058040e-01
C     6.202216806849719e+00   8.811201897243017e-01   2.671103463142694e+00  1.38394657e+00  -1.48053000e-01   3.57073300e-01
C     7.080108848609600e+00   3.551000933092129e+00   7.104773440163797e+00  8.02550790e-01   2.35124900e-02   1.12300896e+00
C     1.788431575844672e+00   5.293110401849344e+00   9.623951216765601e-03 -4.45160740e-01   2.27639164e+00  -1.01667065e+00
C     7.101450821262756e+00   5.299362259543635e+00   1.769662212421919e+00  1.97236770e-01   1.49146896e+00   3.92146930e-01
C     1.771195214844149e+00   3.560375023253802e+00   1.774407084520769e+00 -3.91203440e-01  -5.47208460e-01   5.83580900e-02
C     8.985813901322959e-01   4.471259386919889e+00   8.813348640874258e-01 -7.83832920e-01  -1.82457928e+00   3.53003750e-01
C     2.652446199544658e+00   6.230361397781762e+00   8.333859944833826e-01  6.50237990e-01  -5.92886040e-01   2.69305035e+00
C     8.800721238932090e-01   6.221753097988943e+00   2.698253443581748e+00  2.98921300e-02   3.60983680e-01  -1.06383781e+00
C     2.632625713669086e+00   4.397502109477864e+00   2.670934353768564e+00  1.84042912e+00   2.68446424e+00  -3.44594110e-01
C     3.515751118330264e+00   3.576945253970605e+00   7.073888694480194e+00  2.00401776e+00  -1.20924657e+00   1.81638985e+00
C     5.333962222309581e+00   5.324411345677349e+00   7.185335752748399e-03 -6.96897600e-01   7.82502570e-01  -3.56113960e-01
C     3.573637847093972e+00   5.313063673059459e+00   1.780987777845460e+00 -1.35997106e+00   1.00736605e+00  -1.07245841e+00
C     5.313255671554425e+00   3.595797857022238e+00   1.805628414015429e+00  1.94370620e-01  -1.87512907e+00  -8.43902890e-01
C     4.454141949829798e+00   4.464079027062975e+00   8.965534993272624e-01 -8.73869930e-01  -7.31295490e-01  -3.69139390e-01
C     6.203313565375758e+00   6.216689342051359e+00   8.460441758954952e-01  1.15814856e+00  -1.64877980e-01   2.27138494e+00
C     4.435485397074024e+00   6.253766945521505e+00   2.614885223336352e+00  1.11256810e-01  -1.58224919e+00   1.59281975e+00
C     6.223957277674952e+00   4.425586705322996e+00   2.670902294782548e+00 -3.28372590e-01   9.86758710e-01   3.28592400e-02
C     1.988787372200980e-02   1.537082656813080e-02   3.578376890286274e+00 -1.40316487e+00  -1.04431317e+00  -1.44597730e-01
C     1.811998769114794e+00   1.753714110852818e+00   3.586716562788284e+00 -1.48634404e+00   9.68975170e-01  -1.30104556e+00
C     9.319142054819998e-04   1.740868053830859e+00   5.343916501925497e+00  2.36543730e-01   1.15190928e+00  -2.78335640e-01
C     1.784157707828623e+00   2.843155795321400e-02   5.329058761302078e+00 -6.33052790e-01  -1.38865070e+00   7.12865170e-01
C     8.746970190448697e-01   8.768699216713514e-01   4.472568900534945e+00  1.29339445e+00   6.01430760e-01  -9.83583590e-01
C     2.652233302287189e+00   2.665653506604166e+00   4.401809884669810e+00  1.33183516e+00  -4.17038150e-01   2.38635849e+00
C     8.982330774239160e-01   2.663592490549723e+00   6.223923868088638e+00 -7.86518490e-01  -3.93738890e-01   3.22344370e-01
C     2.649596219663621e+00   8.749577559865714e-01   6.220913664361747e+00  1.21416767e+00   1.47190968e+00  -5.40517850e-01
C     3.532590331759008e+00   7.083490040913029e+00   3.524125124513529e+00  1.27973213e+00   1.45059999e+00   7.85631520e-01
C     5.328869321839255e+00   1.788988591841175e+00   3.527000054957961e+00 -9.60284200e-02  -3.10411320e-01   8.91939380e-01
C     3.566999149040701e+00   1.776829137360082e+00   5.305953260081126e+00 -7.39968660e-01   1.88627360e-01   3.08138820e-01
C     5.332351311575436e+00   1.560135271369740e-02   5.301221183142991e+00  2.34003670e-01  -1.13933223e+00   1.08954779e+00
C     4.449280855021111e+00   8.996598800122024e-01   4.435392347821929e+00 -3.92180010e-01  -4.67244410e-01  -8.13670420e-01
C     6.233328950972933e+00   2.640766492506188e+00   4.434848979996856e+00 -6.33539220e-01   7.83570180e-01   8.33349900e-01
C     4.429997836979837e+00   2.686355365800392e+00   6.183859874107378e+00  4.76116300e-02  -7.88874860e-01   1.28966358e+00
C     6.236778668470421e+00   8.484065179847998e-01   6.208388268284176e+00 -1.99729470e-01   1.29503603e+00   8.22578930e-01
C     7.099054145492198e+00   3.546288688653105e+00   3.563733468604847e+00  1.03851752e+00  -2.93706100e-02   1.26188000e-02
C     1.794233186050211e+00   5.377564717986851e+00   3.550762872018586e+00 -8.33671790e-01  -2.44028670e+00   6.26492360e-01
C     1.715034908682160e-02   5.340115557266357e+00   5.363149050166170e+00 -1.06625332e+00  -5.22428490e-01  -1.02147665e+00
C     1.800676544649884e+00   3.538122603831475e+00   5.356542340014689e+00 -8.74182260e-01   4.87444850e-01  -1.63649782e+00
C     9.045985277116736e-01   4.436751762563778e+00   4.429592443637818e+00 -4.18130780e-01   6.46164810e-01   1.42713182e+00
C     2.667687723905332e+00   6.230320453267471e+00   4.461925032840662e+00  8.77249800e-02   3.87513000e-02  -1.13437706e+00
C     8.743582316228006e-01   6.240612809463196e+00   6.228634264337781e+00  1.66867455e+00  -1.67837565e+00  -2.98977380e-01
C     2.674234936559482e+00   4.442032254307045e+00   6.226998189787563e+00 -5.47096910e-01   2.79952440e-01  -9.71186310e-01
C     3.546054323959324e+00   3.545905331421209e+00   3.544043493368578e+00 -2.22650460e-01  -5.19686800e-02   2.14994400e-01
C     5.318850284493270e+00   5.354816557171005e+00   3.524493056468340e+00  7.85826880e-01  -6.54171380e-01   9.34094280e-01
C     3.557258264271836e+00   5.340244077547326e+00   5.312228149064705e+00  1.00723840e-01  -5.09890460e-01   6.89380270e-01
C     5.308657517298452e+00   3.568606007973953e+00   5.359467811343950e+00  9.75747940e-01  -2.56532040e-01  -1.79112288e+00
C     4.444089502897499e+00   4.429989733378050e+00   4.428647805355847e+00 -4.61841250e-01   9.70101090e-01  -1.65602160e-01
C     6.222776924098901e+00   6.214484309354635e+00   4.458908644786092e+00  2.27776600e-02   3.12724290e-01  -8.58012460e-01
C     4.460114659767800e+00   6.202261589912224e+00   6.208677367832132e+00 -7.68119730e-01   1.13001284e+00  -2.61478290e-01
C     6.184935449534009e+00   4.454192917219983e+00   6.252005051890912e+00  1.46966354e+00  -7.56056950e-01  -1.05133766e+00
