64
Lattice="7.10842262195238 0 0 0 7.10842262195238 0 0 0 7.10842262195238 " PBC="1 1 1" Properties=species:S:1:pos:R:3:force:R:3 Energy="-513.05385966"
C     7.105689786923741e+00   7.073400488014652e+00   4.928020607654300e-02  1.19616360e-01   1.95038783e+00  -1.06710611e+00
C     1.765817550963666e+00   1.764632363660234e+00   1.931173606865880e-02 -1.08913890e-01  -5.37060020e-01  -1.07412996e+00
C     7.099474750858622e+00   1.773667239894480e+00   1.836699684708579e+00  4.01448730e-01   1.78897970e-01  -1.23608249e+00
C     1.749250519037042e+00   2.457033387025620e-02   1.808316890534539e+00  1.06745606e+00  -1.23355029e+00   2.65918910e-01
C     8.804498654712358e-01   8.868642217066189e-01   9.403688211777756e-01 -1.91198320e-01  -5.75902100e-02  -7.34691860e-01
C     2.678627870654416e+00   2.626475222081357e+00   8.284548817118885e-01 -4.74329030e-01   1.50475161e+00   1.95604555e+00
C     9.300382216683557e-01   2.668258530241717e+00   2.650745225095918e+00 -1.11631345e+00   6.99874970e-01   1.65015220e-01
C     2.676793257860421e+00   8.559710170000989e-01   2.712001417265733e+00 -5.90076750e-01   1.73485985e+00  -1.82287600e+00
C     3.590966546504329e+00   7.089785402153753e+00   7.096518784396322e+00 -1.40319216e+00   1.57556061e+00   1.30187190e-01
C     5.352640242501667e+00   1.768698807904231e+00   7.092399098066901e+00  4.36716560e-01   1.26286410e+00   7.14856430e-01
C     3.554586279293205e+00   1.800795326391864e+00   1.749216114271561e+00  1.65635160e-01  -1.20722474e+00   1.30839492e+00
C     5.319157297266228e+00   4.561112265700380e-02   1.748041731770511e+00  2.15795170e-01  -1.48458179e+00   2.02534250e+00
C     4.458478585217581e+00   9.375314232047763e-01   8.865346752339558e-01 -1.98689850e-01  -1.64818451e+00  -9.36994970e-01
C     6.234381708362956e+00   2.663474064228874e+00   9.384320603507305e-01 -1.45696928e+00   6.06514000e-02  -5.40238540e-01
C     4.425134680728591e+00   2.691671115319854e+00   2.684937306571928e+00 -2.04789440e-01  -7.10698170e-01  -3.30213700e-01
C     6.197582399638383e+00   8.897604063346857e-01   2.696505269206811e+00  2.11203720e-01   5.21023180e-01  -4.74797440e-01
C     7.082238034436967e+00   3.531730070453535e+00   1.521266416483580e-02  7.65473490e-01   4.43506180e-01   4.40075550e-01
C     1.759959997472108e+00   5.395762706399408e+00   7.035394098044977e+00  6.86923170e-01  -2.44079553e+00   2.31298323e+00
C     1.851502406140920e-02   5.314744672840637e+00   1.790697385554797e+00 -7.39352730e-01   4.46028980e-01   2.16909290e-01
C     1.803513516117526e+00   3.540289535382956e+00   1.736586082213023e+00 -6.97001740e-01   8.05774280e-01  -6.60025400e-02
C     8.760557229444565e-01   4.450060009224489e+00   8.717991994796006e-01  9.80288810e-01  -4.15987600e-02  -4.13926410e-01
C     2.640088775493598e+00   6.238990383084407e+00   8.738244601682648e-01  4.35583720e-01   2.87898200e-01  -2.02081340e-01
C     8.592102541038068e-01   6.219586024269010e+00   2.724243684870349e+00  1.27551504e+00  -1.91106220e-01  -1.68416815e+00
C     2.654529322793449e+00   4.465639183659612e+00   2.625933986783071e+00  3.12506660e-01  -1.32707984e+00   9.72927780e-01
C     3.545475271852699e+00   3.531746561994014e+00   7.091620228200427e+00  1.33634885e+00   6.15382050e-01  -5.12912950e-01
C     5.361293183188540e+00   5.390641727659734e+00   7.099972695863153e+00 -7.57928710e-01  -2.66089825e+00  -1.14489420e-01
C     3.536418217339878e+00   5.345808692942716e+00   1.732829991700616e+00 -7.05622480e-01  -8.86360100e-02   8.93452980e-01
C     5.269472337605702e+00   3.571899837763382e+00   1.833556126973337e+00  2.35066181e+00   5.40503790e-01  -2.37345265e+00
C     4.412054045760171e+00   4.487015489994024e+00   8.575785156913858e-01  9.12881640e-01  -1.35019873e+00   6.98966830e-01
C     6.237419208432708e+00   6.201978319270816e+00   9.273759041444872e-01 -8.62722580e-01   1.23151816e+00  -9.24436430e-01
C     4.393494380804708e+00   6.195044977099947e+00   2.669513309002600e+00  1.73827946e+00   7.45858840e-01  -1.43528584e+00
C     6.229883072023663e+00   4.456644541097395e+00   2.660471679766864e+00 -6.25440000e-01  -9.50455950e-01   6.91480540e-01
C     6.379169543414200e-03   1.596025697178120e-02   3.569332346597264e+00 -6.53346130e-01   8.81049800e-02  -1.64705670e-01
C     1.785965379700889e+00   1.857456420927432e+00   3.545332463642263e+00  1.11597589e+00  -3.24864253e+00   1.23381779e+00
C     7.105841480662452e+00   1.779990821573006e+00   5.322535290779478e+00  1.34066000e-02   1.74946770e-01   7.35274430e-01
C     1.719071426466927e+00   6.166343370171400e-03   5.312504382367718e+00  1.54439672e+00   1.01846600e+00   8.63561200e-01
C     8.855224358528678e-01   9.420161270357343e-01   4.444442222827903e+00  7.97374400e-02  -8.85884160e-01  -6.90663180e-01
C     2.702610337973998e+00   2.659357221268501e+00   4.488617230862988e+00 -1.18820601e+00  -6.35550000e-03  -1.62971762e+00
C     8.510802800690865e-01   2.650705489013473e+00   6.228955493955979e+00  1.25073774e+00  -1.48520900e-02   4.47924140e-01
C     2.675868452077558e+00   8.856195369058569e-01   6.214137133993875e+00 -7.89510800e-01  -8.75135270e-01   3.00458400e-01
C     3.548661124702530e+00   7.042255645147384e+00   3.551339720514199e+00 -8.58019230e-01   1.77138112e+00   6.60361290e-01
C     5.307862724565310e+00   1.807379360675187e+00   3.573678294018680e+00  4.39752770e-01  -1.50560756e+00  -6.40028640e-01
C     3.568372638459337e+00   1.712348209268705e+00   5.314981738735014e+00  1.00074000e-01   1.69986520e+00   5.33439520e-01
C     5.344916159398548e+00   7.092342941528203e+00   5.315643035291352e+00  7.27864060e-01   7.91049480e-01  -6.52427280e-01
C     4.433209137982648e+00   8.461524371719977e-01   4.410642881701649e+00  6.51310640e-01   5.44374500e-01   9.00269800e-01
C     6.234431467321295e+00   2.662262717930199e+00   4.448736989606455e+00 -7.66371770e-01   4.46522300e-01  -5.92276300e-01
C     4.499104286754275e+00   2.665897965258067e+00   6.195018889188932e+00 -1.67352638e+00  -7.07577700e-01   2.26176050e-01
C     6.256533259268305e+00   9.146019265278947e-01   6.220886936692696e+00 -1.35877028e+00  -2.01242918e+00   3.23260970e-01
C     2.359200166506560e-02   3.538275932507389e+00   3.559331577897412e+00 -4.48792860e-01   3.93725460e-01  -7.06880480e-01
C     1.756654936374938e+00   5.292344966901624e+00   3.581298949572676e+00  9.09684930e-01   1.28161620e+00  -8.67065840e-01
C     1.838892064413040e-02   5.288005274892114e+00   5.311874931544716e+00 -6.40172770e-01   7.79018960e-01   4.93998220e-01
C     1.762044471321196e+00   3.509941475607164e+00   5.350675047984141e+00  1.41592100e+00   1.11124531e+00  -5.85060400e-02
C     9.140055298700768e-01   4.402352186231490e+00   4.435566006586535e+00 -5.74419600e-01   1.61854000e-02   8.66331140e-01
C     2.628529698386990e+00   6.222204340656861e+00   4.483082613011057e+00  5.41218520e-01  -1.07702016e+00  -1.15200772e+00
C     8.423497864914288e-01   6.253251869218460e+00   6.213634852851546e+00  9.50246200e-01  -1.21924388e+00  -7.38594920e-01
C     2.704738528622200e+00   4.415481016305272e+00   6.209068757581589e+00 -2.04585088e+00   1.32755212e+00   8.18492000e-03
C     3.561575991255451e+00   3.545439232150015e+00   3.557256344997729e+00 -8.01857010e-01   1.39290597e+00   6.12296180e-01
C     5.343374555784949e+00   5.350519018107632e+00   3.535994128846369e+00 -4.27778620e-01  -7.74706530e-01   2.84576000e-03
C     3.571530555208273e+00   5.352763289297219e+00   5.346112933430851e+00 -7.45003230e-01  -1.28959347e+00  -7.25731580e-01
C     5.329178893644356e+00   3.567244318536865e+00   5.299295511455234e+00  7.76638460e-01  -3.91823880e-01   1.37537924e+00
C     4.439335674186148e+00   4.452686713551032e+00   4.452821915749264e+00  5.62785620e-01   4.43993170e-01  -1.12847623e+00
C     6.248861209818765e+00   6.203032285092685e+00   4.395513528249920e+00 -8.50659700e-01   3.33976440e-01   2.11479225e+00
C     4.461918848512983e+00   6.236651783126653e+00   6.168446610256205e+00  5.07308650e-01  -1.99988270e-01   2.21124893e+00
C     6.239324336779094e+00   4.400067041611838e+00   6.236813855162390e+00 -1.00908349e+00   1.90516003e+00  -9.94781740e-01
