64
Lattice="7.10842262195238 0 0 0 7.10842262195238 0 0 0 7.10842262195238 " PBC="1 1 1" Properties=species:S:1:pos:R:3:force:R:3 Energy="-512.09848826"
C     7.034421879083240e+00   2.052592573638100e-02   1.011848417843900e-02  2.26118767e+00  -1.08397188e+00   1.06731189e+00
C     1.750401799164577e+00   1.774503901236854e+00   7.099706272183356e+00 -3.92213720e-01  -3.37439870e-01   4.50562210e-01
C     7.108020141111256e+00   1.782362688948621e+00   1.813049038556899e+00  4.11479870e-01   4.76526320e-01  -5.53737330e-01
C     1.780093964785222e+00   7.221112443794861e-02   1.748689451239645e+00 -8.22460950e-01  -2.86556729e+00   4.35141760e-01
C     8.452383651072920e-01   9.108116445026845e-01   8.939017022688714e-01  6.17260660e-01  -2.95134100e-02   6.36097400e-02
C     2.640530563959431e+00   2.645935808519679e+00   8.547447430139228e-01  7.46213570e-01  -1.03768950e-01   1.03621224e+00
C     9.397386595125125e-01   2.732957402570624e+00   2.660567288051104e+00 -1.36150579e+00  -2.53710086e+00   4.40525300e-02
C     2.677636672204283e+00   8.470382887989022e-01   2.652340497300299e+00 -5.11230510e-01   1.85730970e+00   1.48927830e+00
C     3.592333211837251e+00   1.640232977451900e-02   7.080041816184292e+00 -5.07439260e-01  -4.19179090e-01   1.40685100e+00
C     5.377640493771980e+00   1.803168544367778e+00   5.721064668831979e-02 -9.76747670e-01   8.53197100e-02  -1.81004305e+00
C     3.535221514391801e+00   1.741713885038413e+00   1.791429908505788e+00  1.23438899e+00   1.55964729e+00  -1.14628742e+00
C     5.311640495766708e+00   3.456442065284520e-02   1.826630461898897e+00 -9.83852290e-01  -1.92015876e+00  -1.62097389e+00
C     4.487077617607723e+00   9.082944809687163e-01   8.925793224088728e-01 -1.44912635e+00  -3.05624620e-01   3.10266470e-01
C     6.227078088457811e+00   2.679326131008378e+00   9.398132979500227e-01  6.25132780e-01   7.54820720e-01  -2.12026070e-01
C     4.431131559303501e+00   2.693576243666240e+00   2.650984992190891e+00 -3.00386640e-01  -4.65005850e-01   9.24316090e-01
C     6.197247308596076e+00   8.635321750567668e-01   2.670550143525953e+00  1.57587535e+00   9.52707950e-01   6.31616610e-01
C     1.284228955797060e-02   3.561344256678039e+00   2.730984886377800e-03 -3.18101220e-01  -2.77951600e-01   1.64659620e-01
C     1.796521600544268e+00   5.349741854262588e+00   7.034930984311284e+00 -4.69660100e-01   1.55360510e-01   1.40610156e+00
C     2.325634194894920e-02   5.334250611015274e+00   1.794192596957051e+00  1.17599420e-01   2.47147000e-02  -5.09385330e-01
C     1.797614307269414e+00   3.594067240451173e+00   1.761533375734818e+00 -6.08029430e-01  -5.36549540e-01  -7.74182670e-01
C     9.475526641617739e-01   4.486625521929091e+00   8.346766707784961e-01 -1.68550729e+00  -7.84769000e-01   1.40672708e+00
C     2.640061479150737e+00   6.269156467241127e+00   8.131293357958472e-01  1.40115604e+00  -1.55819570e+00   1.59748942e+00
C     9.106362797166493e-01   6.244648900742606e+00   2.714529314517857e+00  5.95721900e-02  -3.17193120e-01  -2.05078560e+00
C     2.626786357739435e+00   4.445283078139623e+00   2.666634611094178e+00  2.05408794e+00   7.54899750e-01  -4.44603350e-01
C     3.535177015666200e+00   3.468166271048591e+00   7.037460374332158e+00  1.86240555e+00   2.08708084e+00   1.92326230e+00
C     5.341450803371298e+00   5.324842613677704e+00   7.078137043259037e+00 -8.60577560e-01  -8.74144360e-01   1.32348147e+00
C     3.549266406888623e+00   5.292148845521538e+00   1.727727921365110e+00 -8.26682860e-01   1.76675960e+00   7.18507340e-01
C     5.354681781478130e+00   3.609272725109162e+00   1.836834673654133e+00 -8.97237180e-01  -2.44518879e+00  -2.41008102e+00
C     4.474069986139611e+00   4.398824276085184e+00   8.739677659682840e-01 -1.31740558e+00   1.13009184e+00  -4.31282230e-01
C     6.159865251385115e+00   6.191254623990511e+00   9.218727055205355e-01  1.64976372e+00   1.27313108e+00  -2.88245700e-01
C     4.357828936572251e+00   6.233966718650401e+00   2.677532604897126e+00  2.38924822e+00  -7.81963630e-01  -7.45368820e-01
C     6.246835949130101e+00   4.419755097574001e+00   2.687401228020473e+00 -1.67307910e-01   1.92694971e+00  -8.49509600e-02
C     7.085845772169296e+00   7.043497486579098e+00   3.570664180659347e+00  4.48015960e-01   2.56952453e+00  -4.10909500e-02
C     1.786937954083758e+00   1.788814008981628e+00   3.540061283932628e+00 -3.20913410e-01  -5.84874980e-01   8.39565410e-01
C     7.051690085817102e+00   1.760644040980830e+00   5.311378123887805e+00  1.62517294e+00   8.19856170e-01   6.19591830e-01
C     1.769147207203100e+00   1.265256575824280e-02   5.345977375811488e+00 -4.63297270e-01   7.70246600e-02   4.64556330e-01
C     8.243941242059875e-01   8.973655655273712e-01   4.461331337383440e+00  2.02601751e+00  -9.08336450e-01  -1.20451201e+00
C     2.667383767754100e+00   2.632796813401550e+00   4.491678188727386e+00 -2.89847480e-01   3.99012190e-01  -9.20986990e-01
C     8.497107002828912e-01   2.635552251261740e+00   6.203199830613838e+00  4.26864140e-01   5.72081030e-01   7.25112680e-01
C     2.688793768011730e+00   8.958214739658547e-01   6.264661811618501e+00 -7.32459260e-01  -1.34239520e-01  -1.45656985e+00
C     3.540560437369004e+00   7.084032555727386e+00   3.619345431045929e+00  3.28047040e-01   1.30668019e+00  -1.72604606e+00
C     5.376850534766220e+00   1.817336625828604e+00   3.511196965210309e+00 -2.11689681e+00  -9.08718930e-01   1.46484336e+00
C     3.577003898457221e+00   1.754492127708577e+00   5.388239649487984e+00  3.60101760e-01   5.90212070e-01  -2.29413160e+00
C     5.332503502903730e+00   7.098791773613293e+00   5.337844274070815e+00  3.09095460e-01   4.11104490e-01  -4.83565900e-02
C     4.469955773295607e+00   9.081434980722675e-01   4.465716807634623e+00 -5.72032640e-01  -6.54465240e-01  -5.36118240e-01
C     6.255798888127432e+00   2.693192388844761e+00   4.391098202623732e+00 -8.61945110e-01  -1.56704587e+00   1.45603100e+00
C     4.507807839410202e+00   2.664653351541532e+00   6.158997384067439e+00 -1.30217278e+00  -9.45897250e-01   2.43794671e+00
C     6.234991255602621e+00   9.136018425494870e-01   6.250710039458001e+00 -1.83917541e+00  -7.95979290e-01  -8.37833910e-01
C     3.713880698890440e-02   3.540380096687135e+00   3.582432671896341e+00  1.20656430e-01   1.22940950e+00  -2.15838013e+00
C     1.842975071281742e+00   5.382584046283060e+00   3.572503058506915e+00 -2.62726425e+00  -1.70859821e+00  -3.21923020e-01
C     7.066036730854142e+00   5.258181816705677e+00   5.327946222077822e+00  1.56131425e+00   2.94372943e+00  -1.01167976e+00
C     1.751588337068307e+00   3.515149887945064e+00   5.379615000323138e+00  2.12850130e-01   2.69803000e-01  -2.84714761e+00
C     8.855090009341160e-01   4.428487723678444e+00   4.405427858530712e+00  1.12100427e+00   7.31871310e-01   2.63923699e+00
C     2.692359494966375e+00   6.214616668183820e+00   4.493957433356264e+00 -8.73697530e-01   3.97145920e-01  -2.90661050e-01
C     8.487204970119252e-01   6.249241581513161e+00   6.245797479669545e+00  2.38975790e-01  -1.31890964e+00  -1.76829947e+00
C     2.667918250050898e+00   4.375984203364863e+00   6.180981105114730e+00  1.52337790e-01   2.07191071e+00   7.78849460e-01
C     3.497092077626573e+00   3.568925318318043e+00   3.571179470215070e+00  1.71407669e+00  -8.90920800e-01  -1.35687500e-02
C     5.298926868658160e+00   5.355596777637777e+00   3.518496035724977e+00  4.32138370e-01  -1.11943103e+00   8.16290010e-01
C     3.583423941430699e+00   5.312604184621302e+00   5.325484504240290e+00 -7.79838000e-01  -4.58754430e-01   6.62013520e-01
C     5.381314624171579e+00   3.538941494117299e+00   5.296667314359941e+00 -1.67480029e+00   7.22165050e-01  -3.69105540e-01
C     4.438272396330649e+00   4.450101522412590e+00   4.428290393866513e+00  3.38154810e-01  -2.79559360e-01  -3.63886960e-01
C     6.198028310989335e+00   6.195839485496185e+00   4.412536707656069e+00 -2.66180180e-01  -3.20883780e-01   1.55573820e+00
C     4.445607435463774e+00   6.199101540636503e+00   6.224504697300919e+00  3.03030120e-01   5.24705160e-01  -5.87052680e-01
C     6.213759747836979e+00   4.423702262486434e+00   6.194375363689144e+00  4.37369990e-01  -2.19983060e-01   1.03018344e+00
