64
Lattice="7.10842262195238 0 0 0 7.10842262195238 0 0 0 7.10842262195238 " PBC="1 1 1" Properties=species:S:1:pos:R:3:force:R:3 Energy="-513.03416331"
C     7.091611200503700e+00   7.100879943842144e+00   3.182305746944220e-02  9.40597550e-01  -3.60337570e-01  -1.28008271e+00
C     1.825044217391244e+00   1.800109008187903e+00   3.815125962267100e-02 -2.09111024e+00  -5.90728250e-01  -1.65560400e+00
C     7.107088582326905e+00   1.752669314896131e+00   1.783734401261602e+00  3.14122200e-01   1.70430734e+00  -3.29851670e-01
C     1.747484502521329e+00   5.625093855039360e-02   1.802898637560896e+00  4.02096170e-01  -2.50909923e+00  -1.00436060e+00
C     8.753534107896006e-01   8.940797682555024e-01   8.718614692617518e-01  4.12073630e-01   4.71002680e-01   1.09817033e+00
C     2.646795927656699e+00   2.690945985128388e+00   9.174556738729199e-01  1.23011761e+00  -5.26005410e-01  -2.57177860e-01
C     9.115025120971224e-01   2.706812908511168e+00   2.644878075233823e+00 -1.63873724e+00  -2.01237773e+00   1.03567697e+00
C     2.625843283310439e+00   8.968408217695628e-01   2.681866396915862e+00  1.02416522e+00  -5.79567400e-02   5.28419600e-02
C     3.548323119206949e+00   7.093687997256359e+00   1.727360913505240e-02  2.23215570e-01  -2.03467800e-01   5.18640870e-01
C     5.356003663748545e+00   1.756966640706826e+00   2.657825000772760e-02 -8.30434970e-01   1.74995002e+00  -6.84414960e-01
C     3.539333523624792e+00   1.776787482003529e+00   1.812253108476137e+00  5.81880910e-01   4.56442360e-01  -6.80310710e-01
C     5.348182835013569e+00   1.750491720710720e-02   1.789302713036753e+00 -1.45009738e+00  -7.59292350e-01  -1.84264090e-01
C     4.462551782463068e+00   9.230644325727786e-01   9.311643379798162e-01 -8.10738730e-01  -1.50050560e+00  -1.25690824e+00
C     6.215880332472977e+00   2.686672756870375e+00   9.051406871049009e-01  1.12373066e+00  -6.99378790e-01  -9.13641320e-01
C     4.458296822851188e+00   2.676445940331207e+00   2.648918360482579e+00 -4.40204200e-02  -4.51611230e-01   6.44098400e-02
C     6.221593371732671e+00   8.655544502079305e-01   2.672447879112814e+00  4.10426530e-01   1.32148268e+00   6.15587990e-01
C     4.134422089512260e-02   3.579189311907513e+00   7.049898407895730e+00 -7.76325940e-01  -6.35514300e-01   1.92051521e+00
C     1.816468758510929e+00   5.317858446285102e+00   7.099403097958612e+00 -8.74205600e-01   7.20666950e-01   3.46628090e-01
C     7.057645522288138e+00   5.314220782093543e+00   1.691548609261454e+00  1.73648168e+00   1.05133944e+00   2.82746357e+00
C     1.766514105296200e+00   3.594623119100057e+00   1.779258867295824e+00 -3.11054830e-01  -1.08887569e+00  -8.75672350e-01
C     9.109733611172895e-01   4.489848054239642e+00   8.598038073925768e-01 -7.74909310e-01  -1.74028824e+00  -9.19988100e-02
C     2.670328716161340e+00   6.179876598408034e+00   9.091307158057331e-01  3.62083000e-01   1.12810672e+00   1.01790900e-02
C     8.688596534735520e-01   6.254103742585241e+00   2.670811449141465e+00 -5.89528790e-01  -5.76645010e-01  -9.47201520e-01
C     2.648042958236926e+00   4.395374558587698e+00   2.649327379120133e+00  1.67591764e+00   1.57867216e+00   2.43641000e-01
C     3.554088760794031e+00   3.538706418581256e+00   1.265299226360000e-03  4.32840190e-01   3.13500090e-01   2.59750770e-01
C     5.311405917820249e+00   5.329422641455996e+00   8.805629604751199e-03  2.62033230e-01   1.75560800e-02  -1.14572203e+00
C     3.602227780703159e+00   5.242906740590239e+00   1.775465812985792e+00 -1.95590810e+00   3.13728001e+00   2.45415100e-02
C     5.328312448011205e+00   3.587110085064527e+00   1.770207357352647e+00  5.74831790e-01  -1.67437468e+00  -2.22918000e-01
C     4.492437368263203e+00   4.432829974720097e+00   8.742904883552319e-01 -1.92720069e+00  -4.06420240e-01   2.04580740e-01
C     6.181325863611800e+00   6.200540001037886e+00   8.641711511660786e-01  5.23978550e-01   1.32167441e+00   7.48516680e-01
C     4.413924129583041e+00   6.247164145002466e+00   2.645920383242593e+00  7.95691180e-01  -1.28698050e+00   1.01025220e+00
C     6.201450305638604e+00   4.444811363214559e+00   2.647895316299108e+00  5.58650680e-01   7.10503000e-02  -4.40365100e-02
C     7.061777150767560e+00   7.106465244747357e+00   3.607373496753551e+00  1.40046151e+00  -1.18158240e-01  -1.35750449e+00
C     1.764181902918804e+00   1.740691693865657e+00   3.556620141173239e+00 -2.90805110e-01   2.05972637e+00   3.58859590e-01
C     1.834051228608820e-02   1.750737174543789e+00   5.350225440253427e+00 -2.57079000e-03   6.14342330e-01  -2.82590090e-01
C     1.781014718767190e+00   7.092099051548110e+00   5.373437070224095e+00 -2.60205180e-01   1.12102440e-01  -8.74785350e-01
C     8.775739398476362e-01   8.674304340215748e-01   4.472029300173861e+00  2.38246220e-01   1.08116540e-01  -3.61788410e-01
C     2.673322286179300e+00   2.662573711419824e+00   4.414177402680991e+00 -2.61962800e-01  -1.14017171e+00   5.06569280e-01
C     9.271991176739277e-01   2.675116594217041e+00   6.182871234689387e+00 -5.00832900e-01   1.18441870e-01   6.39860360e-01
C     2.657498582006049e+00   8.705634002071135e-01   6.251786894400705e+00  1.00099890e+00   6.15515770e-01  -2.09529990e-01
C     3.504900040116607e+00   1.658878369984160e-02   3.581393349425070e+00  2.01437138e+00  -1.23177620e-01  -1.11033371e+00
C     5.377427027840701e+00   1.832144891830588e+00   3.540619579445203e+00 -1.92681218e+00  -2.52212803e+00   3.63141290e-01
C     3.565958262716455e+00   1.754367659228501e+00   5.332644320755833e+00 -9.80591020e-01   1.38610539e+00   4.86188240e-01
C     5.309697053022401e+00   9.408566011379599e-03   5.367132254781287e+00  7.06317300e-02  -7.18616360e-01  -1.03537082e+00
C     4.437136470395972e+00   9.108776817488244e-01   4.470499070036454e+00  4.22857460e-01  -4.83199010e-01  -1.07904359e+00
C     6.225635363002856e+00   2.630846262234622e+00   4.458568933269082e+00  1.15147258e+00   1.80914121e+00  -1.20843900e-01
C     4.418223374667843e+00   2.687072961063881e+00   6.210996419627680e+00  1.55783666e+00  -1.67468095e+00   5.00298060e-01
C     6.248201619283855e+00   8.727368715074048e-01   6.229144080408088e+00 -1.19123805e+00   1.95702840e-01   7.95691700e-01
C     7.099335496859497e+00   3.554286588195546e+00   3.555020461746834e+00  6.57189950e-01   6.35211780e-01  -6.20198910e-01
C     1.781348317040747e+00   5.350399383354937e+00   3.495252346768291e+00  1.03214210e-01   2.80531990e-01   9.86678740e-01
C     7.092506932838045e+00   5.364612603299401e+00   5.331680845153918e+00  5.45984880e-01  -4.95089290e-01  -1.74207060e-01
C     1.792559010354749e+00   3.580585263941629e+00   5.284323183059180e+00 -3.03056700e-02  -3.79287000e-01   2.21965580e-01
C     8.923334420704470e-01   4.515308860211505e+00   4.371110597732364e+00 -5.53410780e-01  -1.98321789e+00   2.25746843e+00
C     2.685311707191324e+00   6.225790824205555e+00   4.431188284516009e+00 -1.16293154e+00  -1.16442330e+00   9.64073320e-01
C     8.973630775794541e-01   6.207619421293597e+00   6.248692740202672e+00 -2.10197190e-01   3.10905810e-01  -6.40836400e-01
C     2.690178986327690e+00   4.423031227391107e+00   6.227392565074520e+00 -8.63250320e-01   8.61010600e-02  -7.35291760e-01
C     3.556031279443398e+00   3.489347948771667e+00   3.501359476978038e+00 -2.88544320e-01   1.86689865e+00   2.11771540e+00
C     5.335405161017214e+00   5.337857780073793e+00   3.522132846905821e+00 -1.05446347e+00   2.40701100e-01   1.34435366e+00
C     3.563126622565778e+00   5.267995065216814e+00   5.332122420367072e+00 -2.58886330e-01   1.64267654e+00  -6.17357040e-01
C     5.361078864246546e+00   3.559848075884982e+00   5.320878388550982e+00 -1.19255396e+00  -6.61543710e-01   7.60665950e-01
C     4.439093134806353e+00   4.400507550561600e+00   4.451689544025898e+00  5.58224200e-01   7.00800880e-01  -1.74808714e+00
C     6.189453278614377e+00   6.230428074785938e+00   4.453839344278865e+00 -1.10959500e-01  -2.01229820e-01   2.96613950e-01
C     4.402639935179148e+00   6.177095783479090e+00   6.217293842310964e+00  1.16639828e+00   1.32262626e+00   4.92022350e-01
C     6.214277667509072e+00   4.461229047181939e+00   6.236230893423323e+00  7.35311000e-01  -3.80992260e-01  -1.52580733e+00
