64
Lattice="7.10842262195238 0 0 0 7.10842262195238 0 0 0 7.10842262195238 " PBC="1 1 1" Properties=species:S:1:pos:R:3:force:R:3 Energy="-513.86188471"
C     1.936334321688000e-04   1.077544459697940e-02   7.076776704422248e+00 -2.08167070e-01  -8.34117760e-01   5.67402090e-01
C     1.786871134911130e+00   1.777629901168225e+00   7.092481626853520e+00 -1.00967632e+00   7.16566800e-01   2.42742820e-01
C     7.102183486382200e+00   1.762866773649878e+00   1.747889113936860e+00  8.67125870e-01   1.40298310e-01   6.12064390e-01
C     1.775963829074549e+00   1.752091115800220e-02   1.752091684474030e+00 -4.49513430e-01  -8.03929180e-01   7.90666890e-01
C     8.768682156499226e-01   8.730758721821527e-01   8.568776252210538e-01  6.59350400e-01   6.25090420e-01   2.55752920e-01
C     2.611353830062963e+00   2.685544650200581e+00   8.935241739435232e-01  2.12820496e+00  -7.02983930e-01   8.16966090e-01
C     8.715559492575442e-01   2.632300076828864e+00   2.696125252933546e+00  2.34365900e-02   1.14159479e+00  -1.12895093e+00
C     2.630292089607166e+00   8.949355512547242e-01   2.670930088714992e+00  1.58542542e+00   2.75054440e-01  -4.15568030e-01
C     3.539233223781624e+00   7.102932358705217e+00   3.325049981576440e-02  8.96491850e-01   3.71759420e-01  -1.17224978e+00
C     5.331557442937235e+00   1.769294635888239e+00   7.105791081946076e+00 -2.15216810e-01   1.25656115e+00   9.60745400e-02
C     3.554805645215258e+00   1.800137086457252e+00   1.823621679856530e+00 -5.10952030e-01  -4.17762520e-01  -1.52060757e+00
C     5.343579278356405e+00   1.145365919915360e-02   1.753627814602212e+00 -2.14492720e-01  -1.01134907e+00   8.27254600e-01
C     4.441566723709661e+00   9.102646513820756e-01   9.236539340606551e-01 -3.36921210e-01  -6.77475930e-01  -8.53962860e-01
C     6.259033078251080e+00   2.675339087845047e+00   8.764492452206998e-01 -8.24326940e-01   1.57001800e-02   8.23151000e-03
C     4.474827957243582e+00   2.659581918507519e+00   2.680233094650465e+00 -6.93224530e-01  -3.76826030e-01   2.53607090e-01
C     6.234717794584429e+00   8.617291236592038e-01   2.634778997049137e+00 -2.59597550e-01   8.24023690e-01   9.81202410e-01
C     2.800562126982360e-02   3.621900411388236e+00   7.080433774607560e+00 -8.04363940e-01  -2.45173814e+00   1.92854170e-01
C     1.775340633663454e+00   5.319885484079421e+00   7.096077564604298e+00  4.08585530e-01  -7.63433300e-02   2.90876220e-01
C     1.309797951961200e-03   5.336242391033398e+00   1.760530945976946e+00 -9.66404200e-02   5.98098330e-01   6.35740000e-04
C     1.764249646186373e+00   3.548719342683788e+00   1.827202618835581e+00 -1.26227910e-01   3.78635380e-01  -1.74647478e+00
C     9.084170301746851e-01   4.455150279578445e+00   8.591744987380282e-01 -7.01554380e-01  -2.03731500e-02   1.84026175e+00
C     2.652519913887228e+00   6.196101644122411e+00   8.790550507847393e-01  6.28076190e-01   5.87592590e-01   6.00165210e-01
C     8.818236392267770e-01   6.259977147859242e+00   2.673563332790345e+00  2.44061800e-01  -1.90200610e+00  -5.02902330e-01
C     2.676968622646456e+00   4.463842672010860e+00   2.682566078954348e+00 -9.07825620e-01  -1.35815273e+00  -2.19980500e-01
C     3.559099416814643e+00   3.558885808714912e+00   2.574798624571160e-02 -6.78628310e-01  -8.36950620e-01  -4.84180830e-01
C     5.296381840107522e+00   5.298254909467892e+00   1.713044550348560e-02  9.72351540e-01  -6.05938800e-02  -2.85304600e-01
C     3.557913660837400e+00   5.294977713387393e+00   1.791166967953075e+00  5.22853290e-01   1.20164320e+00   2.17992200e-02
C     5.372232832348041e+00   3.517086862024788e+00   1.814228468038009e+00 -7.16119320e-01   9.26312500e-01  -1.21470031e+00
C     4.459993176825225e+00   4.375835992753235e+00   9.296838668007488e-01 -5.72662660e-01   1.54971668e+00  -5.53851840e-01
C     6.197891473853900e+00   6.204478067169366e+00   8.586396610200994e-01  6.14509620e-01   6.57243700e-01   3.30002880e-01
C     4.486155370857004e+00   6.223808995979099e+00   2.687835268305650e+00 -1.45533368e+00   2.84013020e-01  -1.07737813e+00
C     6.211577817513770e+00   4.468801720883250e+00   2.652072580851751e+00  1.20231083e+00  -9.77680120e-01   9.59421990e-01
C     7.101014932787698e+00   7.098772723040671e+00   3.575819990669859e+00  2.43799420e-01   4.29331160e-01  -1.15393470e+00
C     1.754805751314572e+00   1.768879148586100e+00   3.558281095202628e+00 -7.31013000e-03  -7.60121750e-01   2.34272500e-01
C     4.135751364542199e-03   1.759542164390504e+00   5.316589308510526e+00 -4.59347200e-02   7.41613420e-01   5.11715160e-01
C     1.801778350155984e+00   7.107834255859743e+00   5.336334587274779e+00  3.78969800e-02  -7.49364600e-02  -9.91249500e-02
C     8.930789023506064e-01   8.347965898680954e-01   4.453590904908295e+00 -2.22338300e-01   1.88600262e+00   4.24425200e-02
C     2.642278382913236e+00   2.663083811827036e+00   4.418508706751809e+00  6.67065460e-01  -6.16218900e-02  -1.30581130e-01
C     8.800295444417152e-01   2.679987285396265e+00   6.198862910889150e+00  8.95944290e-01  -2.41977020e-01  -2.66369530e-01
C     2.694377220727062e+00   9.377047976324780e-01   6.205699791765066e+00 -1.33591983e+00  -2.09741040e+00   1.05717947e+00
C     3.568537838201027e+00   3.005163855253820e-02   3.545616516210158e+00 -2.82237150e-01  -8.30150590e-01   1.71381150e-01
C     5.359347323580541e+00   1.752518545252361e+00   3.557412659211143e+00 -7.79373950e-01   4.53468470e-01   2.00357940e-01
C     3.518757128087809e+00   1.794618533640442e+00   5.322937769668222e+00  1.50666587e+00   3.85880600e-01  -8.79081000e-02
C     5.327406408464059e+00   7.101141960299917e+00   5.373138018884472e+00 -6.41586410e-01   5.48918590e-01  -9.73848860e-01
C     4.419442042641816e+00   9.011308259049590e-01   4.470140947704858e+00  1.03076356e+00  -2.79589750e-01  -6.91755970e-01
C     6.233067645357423e+00   2.656738549459519e+00   4.443963825985578e+00 -1.44115070e-01  -4.38807900e-02  -4.24740960e-01
C     4.423823887597463e+00   2.680405260646321e+00   6.207587859897164e+00  4.45408320e-01  -5.17314060e-01   5.40043580e-01
C     6.213463397697951e+00   9.179850381054314e-01   6.214116661736729e+00  1.04958170e-01  -1.33613497e+00   2.12196990e-01
C     8.573397437755799e-03   3.558709804170840e+00   3.559056339773566e+00 -8.11418440e-01  -1.13059220e-01  -1.53695730e-01
C     1.774018822477265e+00   5.318477874232208e+00   3.568517081606976e+00  2.93432140e-01   1.70912873e+00  -5.98284350e-01
C     7.088289221360695e+00   5.377506144584462e+00   5.320259316025007e+00  5.38614250e-01  -1.45357945e+00   6.35782300e-01
C     1.808139890811301e+00   3.554781405494124e+00   5.279802652778216e+00 -1.84073664e+00   1.89727680e-01   1.91470705e+00
C     8.631567081739784e-01   4.454454080667043e+00   4.440555195170835e+00  1.07271744e+00   1.33717420e-01  -5.38992000e-02
C     2.703848554110176e+00   6.252695137558862e+00   4.422608631666347e+00 -1.21865027e+00  -1.31716411e+00   1.14426960e+00
C     9.070374985968218e-01   6.200750552515890e+00   6.226148946537151e+00 -4.64269670e-01   1.13839344e+00  -8.30628450e-01
C     2.664403988076022e+00   4.417408322930234e+00   6.231043806353283e+00  4.04940150e-01   1.17031410e+00  -8.56225390e-01
C     3.546457016100747e+00   3.540520274781201e+00   3.535204098756382e+00  5.66819570e-01   2.85888480e-01   4.60087240e-01
C     5.344543962390165e+00   5.340390368884846e+00   3.579180639631916e+00 -5.61525270e-01  -9.82303700e-02  -7.82024850e-01
C     3.548516752639118e+00   5.338455385163456e+00   5.345093798879822e+00  2.13508920e-01  -8.67605800e-01  -1.02941706e+00
C     5.330693627420453e+00   3.546302550077214e+00   5.312536583522186e+00 -3.05174390e-01   1.62458300e-02   3.87645540e-01
C     4.419711736196019e+00   4.417769999473140e+00   4.413356735289512e+00  8.63070130e-01   9.12575100e-01   1.31162469e+00
C     6.208782217065776e+00   6.258618728296560e+00   4.458985771171519e+00  1.83680600e-02  -1.10440690e+00  -4.81092800e-02
C     4.443096171920580e+00   6.166905006642605e+00   6.222897838367667e+00 -4.52740560e-01   1.78574093e+00   1.06506730e+00
C     6.202003483086892e+00   4.451255645909173e+00   6.210885670403261e+00  2.27814030e-01   3.91054210e-01  -2.10336280e-01
