64
Lattice="7.10842262195238 0 0 0 7.10842262195238 0 0 0 7.10842262195238 " PBC="1 1 1" Properties=species:S:1:pos:R:3:force:R:3 Energy="-510.31278952"
C     1.662809327693020e-02   2.805054650078200e-03   7.103758144160983e+00  1.54125322e+00  -6.59253560e-01   9.30368960e-01
C     1.829064101467080e+00   1.778336336208201e+00   4.682225570299939e-02 -1.70437952e+00  -5.15284700e-01  -1.03320285e+00
C     7.105417463253169e+00   1.775709276460527e+00   1.772393268392523e+00 -4.69947400e-01   6.89315200e-02  -2.17999090e-01
C     1.737451035077425e+00   1.534353022527000e-02   1.856619475248153e+00 -5.54216180e-01  -6.67499620e-01  -6.59001550e-01
C     9.052142592790180e-01   9.112401402182183e-01   9.161304506438733e-01 -4.40964200e-02  -1.12035112e+00   2.12555990e-01
C     2.673283403107569e+00   2.678073626942735e+00   9.034534319118177e-01  1.57531300e-01  -7.54057450e-01   8.21525420e-01
C     8.280814762716600e-01   2.710861510614390e+00   2.624417546985546e+00  2.13573171e+00  -2.33856000e+00   6.56456480e-01
C     2.676127482997831e+00   9.023865998450081e-01   2.695292572307839e+00 -2.85977890e-01  -7.80192850e-01  -5.00215090e-01
C     3.500751138170218e+00   7.050430686581516e+00   6.947445281347481e-02 -3.18122810e-01   1.43404245e+00  -1.39647819e+00
C     5.330706422581168e+00   1.738947642375840e+00   7.071746571323658e+00  5.06248000e-03   1.20951073e+00  -9.55886610e-01
C     3.545073432721990e+00   1.789712584685022e+00   1.817486258124755e+00  1.07717036e+00  -6.24423840e-01  -1.60179361e+00
C     5.327516091425085e+00   8.104326845907239e-02   1.754421469987735e+00 -4.88208660e-01  -9.05517460e-01   3.97166520e-01
C     4.395393111570736e+00   9.056159562412741e-01   8.125034391841561e-01  1.26382741e+00  -4.53172740e-01   2.98058919e+00
C     6.248037627974012e+00   2.586479753294153e+00   7.850989772153060e-01 -7.94400360e-01   2.41414077e+00   3.51934457e+00
C     4.508768898148427e+00   2.609970317768432e+00   2.691277806296290e+00 -1.88149548e+00   3.08638093e+00  -1.10855901e+00
C     6.187730978897777e+00   9.396253512559497e-01   2.709892845863962e+00  8.05940100e-01  -6.96298060e-01  -7.72496150e-01
C     3.758713520354780e-02   3.543170365818163e+00   7.101313202200833e+00 -1.79097631e+00  -1.74055010e-01  -4.99039930e-01
C     1.830971931014062e+00   5.324348436137162e+00   7.078452941560270e+00 -1.91503655e+00   2.74002470e-01   1.65265654e+00
C     7.017550037994670e+00   5.404604588959521e+00   1.796449734391580e+00  1.93600244e+00  -4.26267292e+00  -8.68782820e-01
C     1.770992482631026e+00   3.524078351092689e+00   1.757301163075323e+00 -8.88157270e-01   2.87877879e+00   3.17520030e-01
C     8.540589223995452e-01   4.435838401341334e+00   8.592207745692844e-01  1.44814777e+00   1.28038204e+00   6.99006440e-01
C     2.607532555315129e+00   6.207107401612278e+00   1.030847738738410e+00  1.66867908e+00  -1.35111700e-02  -3.97422824e+00
C     7.304883782687036e-01   6.192174596045992e+00   2.700477597935320e+00  4.13230376e+00   2.70683890e+00   6.16436070e-01
C     2.651675717616877e+00   4.468277972304609e+00   2.663821666094992e+00  1.39799981e+00  -1.10821037e+00  -1.05749345e+00
C     3.521345091511073e+00   3.530101388662841e+00   1.429674391024880e-02  2.19570909e+00   8.45002580e-01  -1.36851577e+00
C     5.315200180562126e+00   5.415602313931828e+00   7.068992768400669e+00 -6.87568900e-02  -3.32483758e+00   1.01665900e+00
C     3.595716821004370e+00   5.362711455669682e+00   1.786586300416746e+00 -1.39278537e+00  -1.47048208e+00   8.52745200e-02
C     5.361495915401663e+00   3.523223847609539e+00   1.754964198054772e+00  7.69882000e-03  -3.51500440e-01  -6.39874060e-01
C     4.468750113735029e+00   4.434371791586376e+00   8.470118454667558e-01 -8.78482420e-01   6.20389200e-01   1.24737117e+00
C     6.204553061028007e+00   6.246240121146093e+00   9.189431823903812e-01 -7.75782960e-01   1.43757845e+00  -2.25181459e+00
C     4.483794095031092e+00   6.259095419117457e+00   2.622164887857268e+00 -7.83697800e-02  -7.75859580e-01   9.93098760e-01
C     6.229042927554205e+00   4.397465643269824e+00   2.672320780516369e+00 -8.62444090e-01   1.17612340e+00  -4.66691670e-01
C     7.050311336165726e+00   4.856602285591160e-02   3.620270236828791e+00  1.22922324e+00  -2.89166100e-02  -3.99094610e-01
C     1.813573497977803e+00   1.842480467235842e+00   3.490820600685852e+00 -1.46051178e+00  -8.33227400e-01   2.09467869e+00
C     5.940508783533999e-02   1.773403375246825e+00   5.403208921262310e+00 -4.82679650e-01   8.16387850e-01  -1.11259874e+00
C     1.804620581856365e+00   7.042977789801350e+00   5.268380128470139e+00 -1.22662368e+00   2.80701702e+00   1.71383037e+00
C     9.175581773271004e-01   9.667634606292287e-01   4.465371764800648e+00  3.78212210e-01  -2.16201363e+00  -1.44141073e+00
C     2.696710418283625e+00   2.694734205711038e+00   4.381921157937087e+00 -5.81970000e-03  -1.14499740e-01   1.89468573e+00
C     9.446411964250740e-01   2.683470696816970e+00   6.243347419645110e+00  1.36996850e-01  -1.02312040e-01  -5.18410080e-01
C     2.638090597895116e+00   8.212903736374167e-01   6.276796386620425e+00  6.45132910e-01   8.05000210e-01  -1.50344598e+00
C     3.590342213745614e+00   7.059270720951748e+00   3.546195852653688e+00 -1.70408715e+00   1.35307964e+00  -1.29491260e-01
C     5.337213756984420e+00   1.801993806445596e+00   3.623434835494989e+00 -2.28340550e-01  -1.46440766e+00  -2.35984180e-01
C     3.518169830210945e+00   1.709129160085238e+00   5.362513130678584e+00  6.87424480e-01   1.60818176e+00  -1.60917801e+00
C     5.272578576122190e+00   7.081763191805951e+00   5.361014319769157e+00  2.13699927e+00   1.34164782e+00   2.39233040e-01
C     4.429625213466097e+00   8.460304566398386e-01   4.458277843362793e+00  3.31693900e-02   6.55206410e-01   5.07216030e-01
C     6.225728980928761e+00   2.657418114661991e+00   4.530164681560817e+00  6.85235800e-02  -2.68544350e-01  -1.13234870e+00
C     4.412050491548861e+00   2.671427678298392e+00   6.165870304646038e+00  6.39866080e-01  -8.68998240e-01   1.51358419e+00
C     6.311830887261130e+00   8.805757556358359e-01   6.251228669972356e+00 -3.87705720e+00  -4.61782600e-01  -8.68182470e-01
C     7.077264128961302e+00   3.477301233873327e+00   3.591814154817538e+00  5.46619820e-01   1.92571617e+00  -1.93565834e+00
C     1.718171571247461e+00   5.293758334571158e+00   3.516629150692286e+00 -4.10106330e-01   2.49474980e-01  -1.89621790e-01
C     1.630210101557700e-02   5.262373653524691e+00   5.335240743202013e+00 -9.64442200e-02   2.22321027e+00  -5.29652620e-01
C     1.794828942949994e+00   3.590120999633680e+00   5.306594795222581e+00  2.47989450e-01  -1.94268090e+00  -4.25787140e-01
C     8.669644058346075e-01   4.375320063439475e+00   4.352543113512019e+00  4.60604770e-01   1.41866501e+00   3.71627587e+00
C     2.609983397266053e+00   6.147783705215937e+00   4.394533205686395e+00  1.87994369e+00   1.52958353e+00  -3.91534490e-01
C     9.409359311343992e-01   6.223835723648151e+00   6.173100281292840e+00 -1.18557079e+00  -1.88514508e+00   1.35871428e+00
C     2.704306834116487e+00   4.421097096680430e+00   6.199457530441313e+00 -6.42467310e-01   1.13299985e+00  -4.00512210e-01
C     3.632443837070898e+00   3.616667119571165e+00   3.527010362170760e+00 -1.57481131e+00  -1.94963279e+00   2.12700440e-01
C     5.385323632360807e+00   5.357774016402057e+00   3.520966070416975e+00 -2.78448550e-01   3.50189680e-01   6.41419840e-01
C     3.564389647096899e+00   5.346226597108545e+00   5.244024397878781e+00 -5.47024650e-01  -1.64503146e+00   2.04607603e+00
C     5.342649425593483e+00   3.601810160874234e+00   5.329592461672388e+00 -1.09507011e+00  -1.26526683e+00  -1.15121620e-01
C     4.509480735589593e+00   4.501571975666807e+00   4.375790356680015e+00 -1.03816619e+00  -6.10139660e-01   1.31096628e+00
C     6.241163427879340e+00   6.273330604087817e+00   4.539257349270963e+00 -1.22086053e+00  -2.38651555e+00  -2.38234850e+00
C     4.346511261497819e+00   6.224183609851173e+00   6.197845269106870e+00  2.10163459e+00   2.57464600e-02   1.00245212e+00
C     6.200353476028337e+00   4.430079868176872e+00   6.220776471805181e+00  1.32328411e+00   1.29850548e+00   3.20034820e-01
