64
Lattice="7.10842262195238 0 0 0 7.10842262195238 0 0 0 7.10842262195238 " PBC="1 1 1" Properties=species:S:1:pos:R:3:force:R:3 Energy="-513.38305786"
C     7.093577745621523e+00   5.334160334048000e-03   1.518977504399940e-02  6.43270090e-01  -8.98211060e-01  -1.18417351e+00
C     1.784455053146818e+00   1.779488895851807e+00   1.153483738547400e-02 -8.44734440e-01   1.87263970e-01  -6.29061910e-01
C     9.139298962533999e-04   1.762065014662568e+00   1.763518402751453e+00  2.10800660e-01   7.59676140e-01  -5.49316650e-01
C     1.795646695888198e+00   1.057775936391720e-02   1.768553724998557e+00 -6.26583280e-01  -9.98827710e-01   5.01078200e-02
C     9.079773742356382e-01   8.733326284071871e-01   8.654697178103001e-01 -8.41602440e-01   6.85196760e-01   1.03751156e+00
C     2.638521439390114e+00   2.663634003737824e+00   8.855864827406740e-01  9.60639690e-01   1.29473030e-01   9.02390390e-01
C     8.718778897180041e-01   2.684922094547521e+00   2.655022860575956e+00  3.01853230e-01  -1.25741278e+00   4.05905340e-01
C     2.683390371641364e+00   8.613908338267180e-01   2.647489780788637e+00 -8.20864240e-01   1.04819715e+00   5.79935440e-01
C     3.530576444546536e+00   1.082292886008100e-02   4.813112956002000e-02  7.46240120e-01  -6.38427590e-01  -6.10624070e-01
C     5.331930635124785e+00   1.739013466369301e+00   3.543122170712800e-02 -3.96048050e-01   2.21969027e+00  -1.72611228e+00
C     3.533592121758844e+00   1.760737658906736e+00   1.784528909657840e+00  1.00794984e+00   9.19727310e-01  -7.27349300e-02
C     5.321624062083820e+00   1.779742879792020e-02   1.781714756226808e+00 -7.24090950e-01  -1.06197704e+00  -3.28463270e-01
C     4.420440420598794e+00   9.252647737105735e-01   9.067320496768404e-01  4.43002060e-01  -2.06816018e+00  -1.32863340e-01
C     6.230336162881462e+00   2.654436486794032e+00   8.489422087134429e-01  1.02079422e+00   3.70998290e-01   7.75079390e-01
C     4.483180638158986e+00   2.621509562375930e+00   2.663788683014035e+00 -1.25328570e+00   1.95634241e+00  -2.02153140e-01
C     6.188055549474607e+00   8.823947299000678e-01   2.628004954629181e+00  1.92012075e+00   3.56414430e-01   1.61108707e+00
C     2.627209024548420e-02   3.618478132402063e+00   7.067404107029326e+00 -7.29574830e-01  -2.19183894e+00   1.85742503e+00
C     1.822054557005725e+00   5.318600992111986e+00   1.303108926275780e-02 -8.58277060e-01   5.52200480e-01   1.29529430e-01
C     7.105783262681194e+00   5.371407757734538e+00   1.760070391275396e+00  2.35888530e-01  -1.14828206e+00   6.08740770e-01
C     1.795954277334966e+00   3.558954120656290e+00   1.809105143518870e+00 -1.08179717e+00   2.60170600e-01  -1.07608290e+00
C     9.127479788243725e-01   4.477806457405587e+00   9.306719375449287e-01 -5.35396450e-01  -8.97851700e-01  -1.90420249e+00
C     2.663135703312162e+00   6.217454279409497e+00   9.245993542691152e-01  8.91833460e-01  -7.45643300e-02  -7.50379520e-01
C     9.033994078999058e-01   6.209397308875085e+00   2.622513982492136e+00 -1.04501093e+00   9.72208670e-01   1.28803810e+00
C     2.661902889577175e+00   4.468768524549614e+00   2.683720344619384e+00  1.59546840e-01  -9.49747700e-01  -6.97591620e-01
C     3.547397602581825e+00   3.533555513382352e+00   4.914976652146600e-03  7.11900540e-01   2.34436450e-01   2.26702640e-01
C     5.299742133648448e+00   5.284346072180017e+00   1.539023256188340e-02  9.17790100e-02   1.57157348e+00  -4.37132090e-01
C     3.572588146325677e+00   5.322181931091038e+00   1.816598273971065e+00 -5.89537470e-01   2.47496000e-01  -1.14689562e+00
C     5.393512819555952e+00   3.523996390979880e+00   1.755095561704789e+00 -1.94896608e+00   7.38464040e-01   7.01517040e-01
C     4.441003310132800e+00   4.415664342524643e+00   9.091161435393621e-01  4.86363400e-02  -3.19250490e-01   2.65597000e-02
C     6.200201213615817e+00   6.202985156250714e+00   9.007649553927076e-01  5.50044000e-03   1.00938514e+00  -9.97820230e-01
C     4.450762676800476e+00   6.207121831710197e+00   2.670018220261298e+00  1.24242060e-01   4.68786280e-01   3.16306290e-01
C     6.218470499507252e+00   4.483440948595331e+00   2.665722813724711e+00  5.24510600e-01  -1.59390686e+00  -4.90739920e-01
C     7.093114987308961e+00   7.084850521918270e+00   3.516131063519302e+00  4.36220860e-01   2.53366790e-01   1.26250669e+00
C     1.762990531287692e+00   1.732089720568969e+00   3.542997844401176e+00  5.11785660e-01   1.75243981e+00   2.17224270e-01
C     2.148982784365300e-02   1.782352808241179e+00   5.338836538784340e+00 -4.38550110e-01  -4.31674000e-01  -2.87947970e-01
C     1.849895902628800e+00   7.099991746435775e+00   5.339473311282640e+00 -2.16371942e+00  -8.26211000e-03  -1.12584570e-01
C     9.387666538034537e-01   8.348575801341750e-01   4.439431566807291e+00 -1.82898505e+00   1.42446333e+00   1.05591660e-01
C     2.633666742161785e+00   2.704961875260921e+00   4.438652625856592e+00  7.66073820e-01  -2.11014660e+00  -4.48324430e-01
C     8.914099868878828e-01   2.708554614221521e+00   6.217408358999372e+00  2.09638960e-01  -1.19670353e+00  -1.09177440e-01
C     2.679523674072989e+00   8.737135687753927e-01   6.264405197561919e+00 -4.35510860e-01   1.04258468e+00  -1.21331235e+00
C     3.551745113856217e+00   7.102477632910215e+00   3.540110118796027e+00  1.07339027e+00   5.79934110e-01  -2.03626880e-01
C     5.373979016364644e+00   1.792759041367276e+00   3.566861743231457e+00 -2.02016273e+00  -1.65304709e+00  -5.28193740e-01
C     3.540266433009441e+00   1.774313111173733e+00   5.342684683369678e+00  2.75320000e-02   7.19655240e-01  -1.39047630e-01
C     5.283676387684986e+00   2.617619762434040e-02   5.363650336129332e+00  8.76210620e-01  -1.24351148e+00  -5.49689270e-01
C     4.417158959464724e+00   8.883228700282430e-01   4.461301126587305e+00  7.68384800e-01   5.89993370e-01  -6.03185330e-01
C     6.221549086259748e+00   2.646982168329343e+00   4.430575040896580e+00  1.00634201e+00   1.39292667e+00   2.49870500e-01
C     4.430084701904253e+00   2.666778485568007e+00   6.223005459886134e+00  7.35184460e-01  -6.83691660e-01  -1.79266950e-01
C     6.200830095765008e+00   8.943184690870820e-01   6.230829060905933e+00  5.86661430e-01  -3.64443230e-01   9.75894700e-02
C     7.100248005071226e+00   3.590986592256117e+00   3.536997198362277e+00  4.49691950e-01  -1.12607103e+00   2.37955050e-01
C     1.747669037172544e+00   5.327687048989097e+00   3.547469397650287e+00  1.46813080e+00   1.23223089e+00  -3.51623320e-01
C     7.105415899400192e+00   5.331237066329751e+00   5.328755587077335e+00 -2.79202320e-01   4.97836230e-01   1.73699800e-02
C     1.768107244973794e+00   3.559588120869768e+00   5.338513105555131e+00  7.14683080e-01   7.21319420e-01  -7.60203600e-01
C     8.956082212872547e-01   4.460368146118430e+00   4.411228757893989e+00 -9.09844250e-01  -3.38692540e-01   1.65521906e+00
C     2.694659922694659e+00   6.269743765117992e+00   4.399036178163486e+00 -1.31081512e+00  -2.53612414e+00   1.60034526e+00
C     9.095557283941830e-01   6.208660023280938e+00   6.209660747017383e+00 -1.87117000e-03  -3.93118800e-02   4.93377300e-01
C     2.718805243976466e+00   4.427492189090513e+00   6.230872635536593e+00 -2.15053402e+00   8.13660650e-01  -7.03683380e-01
C     3.530824741748652e+00   3.570075816519089e+00   3.500062047681435e+00  1.10484655e+00  -7.81352190e-01   2.54600422e+00
C     5.327385012111973e+00   5.303007600831624e+00   3.559011343458381e+00 -4.90588320e-01   1.55336150e+00   2.33825840e-01
C     3.551507408203804e+00   5.351395415532451e+00   5.304450255202353e+00 -1.53074500e-01  -4.42652460e-01   8.01351270e-01
C     5.336556085723618e+00   3.559735904976038e+00   5.290645627390087e+00 -9.72768040e-01  -7.95253400e-01   1.67791339e+00
C     4.414238677283976e+00   4.458044260595499e+00   4.451927178594085e+00  1.04076245e+00  -8.93559240e-01  -1.42194158e+00
C     6.185687733899885e+00   6.219388481204399e+00   4.460494818209519e+00  7.42796410e-01   9.96441100e-02  -5.54080170e-01
C     4.381348503410820e+00   6.214934556843386e+00   6.237365753094606e+00  1.78007319e+00   3.81797380e-01   3.14972040e-01
C     6.189155577875051e+00   4.428373846748071e+00   6.223034177913519e+00  1.11697674e+00   9.96112930e-01  -9.22881440e-01
