64
Lattice="7.10842262195238 0 0 0 7.10842262195238 0 0 0 7.10842262195238 " PBC="1 1 1" Properties=species:S:1:pos:R:3:force:R:3 Energy="-503.80664553"
C     2.189422600650480e-02   7.043986048465771e+00   7.042195365723567e+00 -1.87546353e+00   1.28788799e+00   1.48969092e+00
C     1.723982138065502e+00   1.709923099807666e+00   7.105579250952000e-04  2.70500000e-01   3.51723196e+00   5.92871540e-01
C     7.098847645815086e+00   1.780484714776643e+00   1.709819814426997e+00 -3.31729610e-01  -1.80594430e-01   1.23259472e+00
C     1.819750432897678e+00   7.094174355532020e+00   1.779511429551513e+00 -2.64285226e+00   5.08190330e-01   4.43451260e-01
C     7.790175794954436e-01   8.419900292226306e-01   8.746722817341521e-01  4.75870606e+00  -4.95196860e-01  -4.62518030e-01
C     2.596128797242768e+00   2.709394971943657e+00   9.169167132698717e-01  2.13407578e+00  -2.52313028e+00  -4.28240590e-01
C     8.062563441330216e-01   2.652094190456516e+00   2.635280354096525e+00  2.80772075e+00   1.36605728e+00   8.03702540e-01
C     2.597472999960210e+00   8.665890100360454e-01   2.682981637340714e+00  3.20714502e+00   1.48537075e+00  -7.08912430e-01
C     3.528067668951259e+00   1.200149111363176e-01   1.178100206080460e-01  7.46029690e-01  -1.98573925e+00  -3.78608089e+00
C     5.398814778735531e+00   1.815033567983950e+00   7.101091348330863e+00 -5.74846670e-01  -5.71200450e-01  -3.87733100e-01
C     3.599848875989150e+00   1.758862243766901e+00   1.839006083511864e+00 -2.32506129e+00   3.51458044e+00  -4.56093380e-01
C     5.264233145797857e+00   1.200683664744200e-01   1.764901204203722e+00  2.20626417e+00  -5.33609589e+00   9.03592170e-01
C     4.439825302336213e+00   9.446283301801319e-01   9.187699501311318e-01  4.52052440e-01   2.11607469e+00   1.31186180e-01
C     6.375482120264301e+00   2.739632424663482e+00   7.319171001310973e-01 -3.79013370e+00  -1.89740931e+00   5.27003876e+00
C     4.555181068950477e+00   2.732443321446745e+00   2.722207548295076e+00 -2.05088542e+00  -4.27484028e+00  -8.43699900e-02
C     6.225361404395080e+00   8.046856670709064e-01   2.691390474794817e+00 -2.90235595e+00   4.26360618e+00  -1.57904905e+00
C     1.029016680155724e-01   3.616507890904477e+00   7.007788254463303e+00 -1.49818371e+00   1.31056500e-02   1.30291694e+00
C     1.931459720876335e+00   5.318543200636086e+00   7.082921935777239e+00 -3.59710662e+00   4.70642520e-01   5.11425120e-01
C     7.094114076108202e+00   5.473800889195875e+00   1.685659565457689e+00  3.42002770e-01  -2.67591500e+00   2.60140408e+00
C     1.733674685560550e+00   3.667430213690466e+00   1.835696046518862e+00 -1.29394946e+00  -3.69758328e+00  -3.24307419e+00
C     8.923494360213421e-01   4.531689651465485e+00   8.463283706318429e-01  1.56546779e+00  -5.85347500e-02   4.17707470e-01
C     2.751305805205820e+00   6.251224831424142e+00   8.891779421852029e-01 -2.05455812e+00  -1.56361670e+00   1.80167024e+00
C     8.863066370363062e-01   6.317433319464857e+00   2.737215916393813e+00 -1.00624009e+00  -2.68411711e+00  -3.09610417e+00
C     2.555756582056704e+00   4.484729065858301e+00   2.678290433832645e+00  3.18005318e+00  -6.84285200e-01   1.34733604e+00
C     3.636835065144403e+00   3.417935455615075e+00   7.076047664598341e+00 -2.55390669e+00   2.40810729e+00   1.09083554e+00
C     5.204567960778851e+00   5.327390912102747e+00   7.059173762067211e+00  2.58657303e+00  -2.21167982e+00   3.15238824e+00
C     3.577398842417987e+00   5.249918701915284e+00   1.840035169854562e+00 -6.18933600e-01   1.76277428e+00  -1.01215268e+00
C     5.481628542016567e+00   3.570503814645039e+00   1.838250173850454e+00 -1.69261622e+00  -7.86840640e-01  -2.19273712e+00
C     4.447518961390518e+00   4.236020286072003e+00   9.573727367586252e-01  7.07045860e-01   5.68772156e+00  -1.41597550e+00
C     6.095819003336951e+00   6.250200934229956e+00   8.394306416582996e-01  1.84162104e+00  -1.26493350e-01  -8.19612100e-02
C     4.424225371307039e+00   6.254829014945160e+00   2.748701350242079e+00  1.70095980e+00  -1.10458497e+00  -4.60145314e+00
C     6.311382843383392e+00   4.496937141950115e+00   2.685300689136263e+00 -1.45835139e+00   8.50492720e-01  -1.27481007e+00
C     7.006241603869643e+00   7.080665011595388e+00   3.591723238092228e+00  2.38468838e+00   5.16191570e-01  -8.23786000e-03
C     1.676194487486480e+00   1.715863750759652e+00   3.534903554648008e+00  9.05063760e-01   1.09745014e+00   7.76267080e-01
C     7.078160998643266e+00   1.753293718739072e+00   5.362367336930649e+00  2.64025715e+00   1.09117267e+00  -1.41154503e+00
C     1.874771045661002e+00   7.057935403762581e+00   5.420503429159866e+00 -2.16685015e+00   8.17142750e-01  -4.93839747e+00
C     7.926832376454888e-01   8.373691990984996e-01   4.436738398729252e+00  2.17240350e+00   5.84502450e-01   1.84575893e+00
C     2.591473562353156e+00   2.631121997948051e+00   4.467693588881018e+00  1.59267892e+00   3.08302760e-01  -2.23801234e+00
C     9.354347939530073e-01   2.669241056416254e+00   6.197302754292512e+00 -9.38515670e-01  -6.02688210e-01  -2.22627810e-01
C     2.657524101243255e+00   9.667296956217837e-01   6.200769105498929e+00 -2.39637850e-01  -2.89146420e+00   3.34491340e+00
C     3.575211794030492e+00   3.172517448996480e-02   3.532161622790796e+00 -1.44946183e+00  -1.37335970e-01   1.45226210e+00
C     5.330464878380540e+00   1.691709472865344e+00   3.623790114457536e+00  1.90950329e+00   2.90171812e+00  -1.17053803e+00
C     3.517338571269762e+00   1.813167180540843e+00   5.360295516073823e+00  4.85707030e-01  -1.59552513e+00  -1.07187962e+00
C     5.310077282548344e+00   7.023547129822258e+00   5.475581549062186e+00 -1.89796770e+00   3.53720477e+00  -3.01208216e+00
C     4.379020210665865e+00   9.028603051284050e-01   4.520667900024723e+00  1.56847876e+00  -1.42628956e+00  -1.21843815e+00
C     6.358431289094160e+00   2.653054609436704e+00   4.435804707418114e+00 -5.68918099e+00  -4.63157160e-01   8.92384400e-02
C     4.530120467172121e+00   2.585585513728557e+00   6.156949731847522e+00 -2.33595460e+00   2.06612665e+00   1.18244582e+00
C     6.223824989929994e+00   9.342700789067203e-01   6.224580615254499e+00  8.71442300e-02  -3.86300594e+00   4.64315970e-01
C     3.229207119390980e-02   3.609841825424120e+00   3.607648948130076e+00 -7.18357840e-01  -2.39156645e+00  -3.45985825e+00
C     1.721006907777901e+00   5.382809241111660e+00   3.579550633029288e+00  1.16939332e+00  -7.28611160e-01  -1.52952759e+00
C     7.107035055904576e+00   5.341604842889474e+00   5.261323668419491e+00 -7.23185340e-01  -8.88450080e-01   2.30178839e+00
C     1.754428151904997e+00   3.558806763055378e+00   5.272560876149866e+00  5.12978030e-01  -1.62832370e-01   1.94745714e+00
C     8.468248939518498e-01   4.455841431509787e+00   4.440817851386644e+00  2.62755762e+00   9.10205250e-01  -9.69654000e-03
C     2.764613696445401e+00   6.198684134060256e+00   4.285048569650893e+00 -3.32088018e+00  -3.38964540e-01   6.71916674e+00
C     9.605926389528066e-01   6.135305864485694e+00   6.191214248150030e+00 -3.90312920e-01   2.17296082e+00   5.24491760e-01
C     2.682451633350167e+00   4.443341341416744e+00   6.149841451395974e+00  1.25224669e+00  -2.32051960e+00   8.74110710e-01
C     3.535716047353474e+00   3.479725916829008e+00   3.584039033240008e+00 -5.76602800e-02   3.04446380e+00  -5.86531180e-01
C     5.380829047822408e+00   5.377846780196412e+00   3.520780611670819e+00 -2.64799197e+00  -1.74615232e+00   1.68423799e+00
C     3.548088825597394e+00   5.254569245245967e+00   5.261203464992987e+00  1.86675250e-01   3.65643637e+00   1.47352407e+00
C     5.326061921409713e+00   3.483318016031573e+00   5.226872982528566e+00  2.62487732e+00   1.26612439e+00   2.93839164e+00
C     4.462654641338379e+00   4.433487503812447e+00   4.479225298560539e+00 -1.66208500e-02  -1.43789678e+00  -3.07961049e+00
C     6.115023899813631e+00   6.209322670437575e+00   4.464391939826707e+00  3.15160192e+00   3.17227110e-01   1.11510257e+00
C     4.311234150393092e+00   6.259396105394284e+00   6.336301063456671e+00  2.44924415e+00  -1.55206243e+00  -3.17067256e+00
C     6.234709690982643e+00   4.406804973244884e+00   6.147142667664065e+00 -1.36410995e+00   1.89472568e+00   9.77223400e-02
