64
Lattice="7.10842262195238 0 0 0 7.10842262195238 0 0 0 7.10842262195238 " PBC="1 1 1" Properties=species:S:1:pos:R:3:force:R:3 Energy="-514.24721986"
C     7.083101352364166e+00   7.088627084687824e+00   7.072959410391082e+00  1.28153028e+00   4.64271190e-01   1.79062745e+00
C     1.758026648687920e+00   1.776108983064450e+00   1.736559212375520e-02  2.93766010e-01   3.85783810e-01  -6.51099380e-01
C     7.106493465185158e+00   1.752163692795170e+00   1.787730685374340e+00  4.13473400e-02   8.85723510e-01  -5.27336050e-01
C     1.819633854766710e+00   7.410317328671400e-03   1.769972281816604e+00 -1.70374536e+00  -1.02993280e+00   6.81972000e-02
C     8.747604261746402e-01   8.688306511092624e-01   9.113759821744863e-01  5.08172710e-01   4.07006260e-01  -1.20147676e+00
C     2.670161810398223e+00   2.693238309254886e+00   8.723370227350298e-01 -6.94055260e-01  -1.53766687e+00   1.10764278e+00
C     8.989986545400901e-01   2.663051610672567e+00   2.655742517282005e+00 -2.24734970e-01  -5.19863260e-01   3.62541230e-01
C     2.664122281287592e+00   8.784718047087683e-01   2.662587288507029e+00  3.43445020e-01   6.06229150e-01  -1.68688080e-01
C     3.572435101986668e+00   4.092269143375660e-02   7.091908048232312e+00 -7.57942350e-01  -9.66878960e-01   6.59106630e-01
C     5.343897095931745e+00   1.784819075469188e+00   1.997303262499740e-02  8.65376100e-02   2.42250650e-01  -1.08510687e+00
C     3.533023661201923e+00   1.782871794176666e+00   1.788836969186691e+00  1.10252433e+00   3.20181410e-01  -6.50318350e-01
C     5.337826005424681e+00   7.086180507790472e+00   1.784009923722354e+00 -5.44217280e-01   5.08937110e-01  -6.36455230e-01
C     4.450666073337071e+00   9.097579630177219e-01   8.771826922666314e-01 -1.25357030e-01  -3.60025100e-01   9.63667840e-01
C     6.223578825254664e+00   2.696072579521932e+00   8.722291879638844e-01 -1.52971730e-01  -1.34110270e+00   1.52455391e+00
C     4.448971354300236e+00   2.659170056500916e+00   2.703314427234509e+00 -1.28241802e+00   4.55087360e-01  -1.72960326e+00
C     6.228640661918139e+00   8.566590412254887e-01   2.665940473625335e+00 -6.69407410e-01   7.74752280e-01  -5.31706010e-01
C     7.100343044681655e+00   3.566685312182029e+00   7.106430982150329e+00 -2.07646000e-02  -3.00405000e-03   2.33737160e-01
C     1.803176079295755e+00   5.342131932426747e+00   7.099537802567261e+00 -1.03821377e+00  -1.87316180e-01   6.77435610e-01
C     7.364183665867600e-03   5.358422375629226e+00   1.782550066968884e+00  5.60930800e-02  -1.24397478e+00  -5.31870470e-01
C     1.780250847672445e+00   3.537234264256654e+00   1.791963182370741e+00 -4.56500190e-01   1.18101752e+00  -8.92090820e-01
C     8.699025301561322e-01   4.451907914768785e+00   9.016218757395487e-01  9.44010740e-01  -1.17668960e-01  -5.87088330e-01
C     2.677510782039683e+00   6.211153444683356e+00   8.978064298982636e-01  3.84607850e-01   8.08996040e-01  -1.00111826e+00
C     9.103696427841729e-01   6.198896036138559e+00   2.636217457450519e+00  4.29502200e-02   1.03805635e+00   1.58139208e+00
C     2.651950173814234e+00   4.449234294852951e+00   2.668574641795629e+00  5.06165210e-01  -6.33639590e-01   4.29603790e-01
C     3.534880878779850e+00   3.545689661878918e+00   1.281506429933600e-03  1.30766737e+00   9.40383900e-02  -2.02474770e-01
C     5.326216529601697e+00   5.327888999275731e+00   9.507444170023799e-03 -1.19864130e-01  -1.30478550e-01   5.84487830e-01
C     3.541125770219973e+00   5.316657904788810e+00   1.771796160892443e+00  3.97279860e-01   1.06034940e-01   2.21203630e-01
C     5.317357444658844e+00   3.563944730925114e+00   1.812249767517506e+00  7.54078130e-01  -5.21454300e-01  -1.08418072e+00
C     4.444533637142797e+00   4.408605039104946e+00   9.038739661940169e-01 -7.08539830e-01   1.27422064e+00  -2.47198160e-01
C     6.230148429440067e+00   6.208174020426409e+00   9.014541880499427e-01 -6.38313550e-01   2.59203350e-01  -8.67062900e-01
C     4.411504493607419e+00   6.210027612708800e+00   2.660345718518038e+00  1.06696411e+00   3.44410800e-02   5.48297300e-02
C     6.225099956611118e+00   4.463207747702441e+00   2.658509470786840e+00  5.06923500e-02  -3.92116740e-01   4.58114560e-01
C     7.099352272736880e+00   7.089183318757839e+00   3.536288844048194e+00  1.09149226e+00   2.17652250e-01   5.29266890e-01
C     1.782822461723683e+00   1.759208921538078e+00   3.539446760797129e+00 -3.99172690e-01   1.79668550e-01   3.70522160e-01
C     7.105890102273172e+00   1.752149831371061e+00   5.311102103837470e+00 -2.39950190e-01   9.57825090e-01   3.33941960e-01
C     1.783469043845198e+00   1.667124140223360e-02   5.355053623065382e+00 -1.72200890e-01  -1.63156260e-01  -1.37623666e+00
C     9.027408836283890e-01   8.846542131140609e-01   4.436605186889354e+00 -7.08913780e-01  -3.31235960e-01  -2.03563740e-01
C     2.660368891975779e+00   2.626080917878626e+00   4.428587312679350e+00 -4.75934210e-01   1.84678941e+00   5.45105800e-01
C     8.790362134647964e-01   2.671133673938829e+00   6.227292620652483e+00 -5.82642000e-01  -2.14873240e-01  -2.74023020e-01
C     2.650960823553983e+00   9.086611334074559e-01   6.196558502444198e+00  7.12338240e-01   7.39474000e-03   1.32781245e+00
C     3.553714218006183e+00   1.396563358460920e-02   3.539733798902524e+00  1.03632400e-01  -6.53134550e-01   1.10871008e+00
C     5.314079395567631e+00   1.762229219225090e+00   3.498080148370753e+00  8.48344190e-01  -2.18620790e-01   2.69979006e+00
C     3.549351494707385e+00   1.782047430405424e+00   5.314038522137566e+00  7.44704810e-01   3.97459000e-02   6.97902220e-01
C     5.347949394414728e+00   7.108093073527336e+00   5.327227631635167e+00 -8.68066130e-01  -7.18067300e-02   2.04577210e-01
C     4.461679650091820e+00   8.899191374117902e-01   4.459388321144489e+00 -8.12880770e-01  -1.82155970e-01  -1.36678777e+00
C     6.186229893293112e+00   2.640738129899935e+00   4.415769262842514e+00  1.75631087e+00   9.93030030e-01   6.94198700e-02
C     4.477813779080886e+00   2.675587527215616e+00   6.226755081733958e+00 -1.54303617e+00  -1.13540500e-01  -5.73431080e-01
C     6.222539502783393e+00   8.737062471000941e-01   6.211293693861649e+00  9.85655000e-03   4.78640760e-01   1.35891590e-01
C     2.520376540992440e-02   3.565092812262470e+00   3.531999408586607e+00 -8.70425880e-01  -3.01839060e-01   7.59091270e-01
C     1.812623670547318e+00   5.336177704387556e+00   3.582834439942823e+00 -1.46430350e+00   1.95381350e-01  -9.09616010e-01
C     3.087898786128000e-04   5.336656385566786e+00   5.333786644270867e+00  1.03658790e-01   4.23251970e-01  -4.19138600e-02
C     1.735034526807756e+00   3.571941635288387e+00   5.342847110826544e+00  1.57598988e+00  -1.33153921e+00  -1.78965410e-01
C     9.012213872091377e-01   4.462892133738113e+00   4.461828713714161e+00 -6.97710080e-01  -5.41261720e-01  -7.38657250e-01
C     2.657574357791179e+00   6.243869177865418e+00   4.453878938192858e+00  1.07126443e+00  -7.10053370e-01   1.94994550e-01
C     9.140049611962673e-01   6.244780335476849e+00   6.214725569218358e+00 -9.68211510e-01  -1.04969854e+00   2.19082220e-01
C     2.660094151441517e+00   4.427334097771444e+00   6.223524161484716e+00  1.55561720e-01   4.18515450e-01  -6.08961800e-02
C     3.520266957052297e+00   3.553763550459166e+00   3.570507511024803e+00  1.25750975e+00  -2.87906550e-01  -2.02476280e-01
C     5.325252129904842e+00   5.322742003709267e+00   3.546824166129070e+00 -2.84647920e-01   5.48542890e-01   2.60009890e-01
C     3.565568650072652e+00   5.306504376086854e+00   5.358117850804186e+00 -3.99531040e-01   1.42622658e+00  -6.88274030e-01
C     5.345213220379838e+00   3.582603913797257e+00   5.312368113906092e+00 -5.14536760e-01  -1.45635577e+00   4.87269170e-01
C     4.442224821475820e+00   4.442823990418461e+00   4.441951502626082e+00 -3.26282290e-01   4.50994800e-02   2.34045150e-01
C     6.211543199495610e+00   6.227823833074875e+00   4.431720634286020e+00  3.26508510e-01  -7.09955520e-01   2.25861460e-01
C     4.434557037079853e+00   6.237077435473139e+00   6.250328317163307e+00  6.55232270e-01  -7.00846070e-01  -1.08158919e+00
C     6.203185116179014e+00   4.449193492507112e+00   6.231873288188810e+00  8.87183380e-01   3.81678810e-01  -8.48110570e-01
