64
Lattice="7.10842262195238 0 0 0 7.10842262195238 0 0 0 7.10842262195238 " PBC="1 1 1" Properties=species:S:1:pos:R:3:force:R:3 Energy="-513.8649617"
C     7.059742791297942e+00   1.330277317529420e-02   6.106845872841999e-04  1.71672673e+00  -3.14145700e-02  -1.02632410e-01
C     1.750378767875288e+00   1.819588005440811e+00   7.068123550482696e+00  6.85642860e-01  -1.26815760e+00   3.25884010e-01
C     1.459224103856220e-02   1.776741632677630e+00   1.785007164331713e+00 -9.67576190e-01  -7.77287100e-02  -6.53042520e-01
C     1.805916020794634e+00   2.878491764165420e-02   1.708808925646207e+00 -5.53059270e-01  -8.56502760e-01   1.51425630e+00
C     8.795200837925398e-01   9.239749504261744e-01   8.408564490674192e-01  3.65817530e-01  -7.17448540e-01   9.96014510e-01
C     2.656800534904765e+00   2.668279642256898e+00   8.718274910016282e-01 -2.47315350e-01  -4.07094950e-01   9.10392290e-01
C     8.548393561189950e-01   2.665736177559237e+00   2.679011654391670e+00  1.61944271e+00  -6.29770960e-01   5.31804500e-02
C     2.673220422483156e+00   9.020654413110365e-01   2.665138643553799e+00 -5.35279400e-01  -4.99211270e-01  -2.27668920e-01
C     3.607053475567199e+00   7.107779307752890e+00   7.106346747342281e+00 -1.63018470e+00   7.10598500e-02  -6.63565480e-01
C     5.336892740618901e+00   1.791096736737589e+00   2.582731624215080e-02  8.82624900e-02   7.63019000e-03  -1.34033938e+00
C     3.535952046984459e+00   1.791013283856030e+00   1.777326158269672e+00  7.45161220e-01  -1.08900434e+00  -3.42778500e-01
C     5.333367034083608e+00   7.061266268433860e+00   1.780384983607284e+00  9.79877000e-03   1.23785665e+00   2.20513330e-01
C     4.446414170346917e+00   8.831266841772492e-01   8.634610908305668e-01  5.09688980e-01   1.95861000e-02   1.61623903e+00
C     6.219930569513401e+00   2.682350835917415e+00   8.858993955044063e-01 -1.69304880e-01  -6.35867670e-01   1.35567346e+00
C     4.437499284286496e+00   2.639479299338159e+00   2.676748901303271e+00 -3.77015530e-01   1.51799491e+00  -7.76059410e-01
C     6.233616842089044e+00   8.613323315085554e-01   2.652066823029429e+00 -1.85033110e-01   3.45181450e-01  -1.39005370e-01
C     1.742260167316760e-02   3.547973953487855e+00   3.247397572875560e-02 -1.94408920e+00   9.90673800e-02  -1.23371251e+00
C     1.771517937231097e+00   5.343687042043324e+00   7.060649968192706e+00  1.41539570e-01  -3.27972910e-01   2.19971686e+00
C     2.655002956992620e-02   5.352000484465866e+00   1.792434186453542e+00 -5.13693410e-01  -2.15797574e+00  -5.03878460e-01
C     1.786296347858077e+00   3.499156861145004e+00   1.795093376271458e+00 -7.12015060e-01   2.57625262e+00  -7.48686800e-02
C     8.752513338407774e-01   4.425501830756913e+00   9.023511288161343e-01  1.36292823e+00   4.48037700e-01  -3.61502880e-01
C     2.689701513580304e+00   6.209945083922181e+00   8.749893173830041e-01 -5.26691740e-01   9.50631590e-01  -7.73472530e-01
C     9.187939765995874e-01   6.189456406320330e+00   2.614227267738645e+00  5.70674930e-01   1.72473120e+00   1.97371767e+00
C     2.673212958639405e+00   4.448687941490377e+00   2.689918462638667e+00 -1.15332760e-01  -8.62324980e-01  -2.52611820e-01
C     3.550815971935557e+00   3.536323462066353e+00   3.668052698259300e-02  2.28037010e-01   9.91746920e-01  -1.66616618e+00
C     5.355480554927940e+00   5.338921555518876e+00   7.093833791004295e+00 -4.28167370e-01  -9.85969950e-01   4.90480480e-01
C     3.544697965839201e+00   5.345470971784039e+00   1.767562597632650e+00  1.94390920e-01  -1.04369537e+00   5.51695340e-01
C     5.306492220684174e+00   3.555345103407890e+00   1.794682793780926e+00  9.95441930e-01   3.96441250e-01  -6.60645630e-01
C     4.437105762010254e+00   4.436024499845526e+00   8.602534151232918e-01  1.84078490e-01   5.93167420e-01   1.65472719e+00
C     6.252705018266304e+00   6.184471624958055e+00   9.250057427903007e-01 -1.39421792e+00   1.36280624e+00  -1.60691240e+00
C     4.426863378025548e+00   6.204086535251457e+00   2.680093911735565e+00  3.99828060e-01   1.22507320e-01   1.07984000e-01
C     6.221828234016036e+00   4.459038089162001e+00   2.676577872655034e+00 -3.38903890e-01  -7.10584040e-01   4.99549290e-01
C     1.784320703959300e-02   7.067544569460297e+00   3.521923574943888e+00 -2.07063960e-01   7.71572580e-01   4.60655730e-01
C     1.760638709663865e+00   1.763870696176501e+00   3.563316204197053e+00  1.68293940e-01   8.67901500e-02  -1.59384030e-01
C     7.098158270989399e+00   1.765391543196050e+00   5.289706462593532e+00 -8.94334690e-01   8.31727800e-02   1.00603172e+00
C     1.775359328814945e+00   7.918285209096600e-03   5.347450809652162e+00 -1.24898280e-01   7.53868090e-01  -1.70982500e-02
C     8.783984457873300e-01   8.703357885148212e-01   4.435400380339490e+00  5.21107990e-01  -6.60782500e-02  -3.77500200e-01
C     2.641891116048899e+00   2.648274834982790e+00   4.466003348150435e+00 -4.91542000e-02   6.38187590e-01  -2.26711860e-01
C     8.143680495216084e-01   2.662791229151996e+00   6.197848396812823e+00  2.31103705e+00   5.63115630e-01   2.77878790e-01
C     2.686831132526348e+00   9.094582719200628e-01   6.215454111452682e+00 -4.56133600e-01  -3.35268450e-01   1.64438900e-01
C     3.570547033854569e+00   1.183154294563280e-02   3.581442895130732e+00 -8.34909870e-01  -3.27859400e-02  -8.93235260e-01
C     5.344932437686348e+00   1.800434645028126e+00   3.517771900712677e+00 -2.40837270e-01  -1.67105658e+00   4.66702660e-01
C     3.574510832475934e+00   1.794393267727614e+00   5.331871421964360e+00 -4.01093050e-01  -2.63039710e-01   6.70876700e-02
C     5.331368572148221e+00   1.368449546998820e-02   5.306621807228536e+00  4.92395400e-01   2.74353830e-01   3.15559710e-01
C     4.458164890527361e+00   9.190645231645046e-01   4.413809826147311e+00  1.61879000e-02  -5.00170780e-01   8.11606970e-01
C     6.197914647311642e+00   2.655959821761498e+00   4.412146668506909e+00  1.05637374e+00   6.50796830e-01   4.52204480e-01
C     4.459904179374022e+00   2.684349226768576e+00   6.229514926816173e+00 -4.35257030e-01  -5.56516550e-01  -2.12036060e-01
C     6.213480813333370e+00   9.086924815512102e-01   6.214650433191265e+00 -6.68906150e-01  -5.97113400e-01  -1.41170040e-01
C     1.487629360645740e-02   3.553442463009421e+00   3.575462437012073e+00 -7.63015850e-01   5.67904400e-01  -9.88613690e-01
C     1.802345957702191e+00   5.333574386771433e+00   3.611418615729689e+00 -1.68259460e-01   2.82879080e-01  -2.14863918e+00
C     1.842503143104000e-03   5.325464387404275e+00   5.332420476527528e+00 -2.34708500e-01   5.17296200e-01   1.26780840e-01
C     1.728666659656308e+00   3.557919205407044e+00   5.353082386388631e+00  1.62496331e+00  -2.74310740e-01  -3.82451920e-01
C     9.057903969323691e-01   4.454958281083479e+00   4.450579990339143e+00 -7.49617950e-01  -3.11346610e-01   4.25299010e-01
C     2.665363269708591e+00   6.247641973170983e+00   4.505951759179894e+00  4.59466170e-01  -7.60452050e-01  -1.48290122e+00
C     8.652662036706895e-01   6.256415401621266e+00   6.207514998565308e+00  3.46203420e-01  -1.19262362e+00   5.69236890e-01
C     2.681143967924991e+00   4.432552888406370e+00   6.244328239798217e+00 -1.16667696e+00   1.59969000e-01  -6.45741530e-01
C     3.537376290540601e+00   3.534764229564656e+00   3.582771814739541e+00  5.98555700e-02   2.45015580e-01  -5.73594420e-01
C     5.301511633291245e+00   5.293916070469097e+00   3.595376185392420e+00  8.24315310e-01   1.41858245e+00  -1.46346407e+00
C     3.561909873865913e+00   5.336459340091761e+00   5.359115944424260e+00 -2.33167540e-01  -4.55515980e-01  -1.85885320e-01
C     5.342319026110104e+00   3.560697390219619e+00   5.298440652550952e+00 -7.89188480e-01  -5.39151270e-01   1.64588001e+00
C     4.410440362741205e+00   4.430419437525429e+00   4.452549378826014e+00  7.78506540e-01   4.46330200e-02   2.76787100e-01
C     6.231602528371215e+00   6.223058488718880e+00   4.443577056710823e+00 -6.40956730e-01  -8.40973050e-01  -2.83579870e-01
C     4.468592377837092e+00   6.224612389903611e+00   6.201114148332904e+00  1.14024530e-01   1.97141890e-01   5.12743450e-01
C     6.208847614553880e+00   4.419199929767379e+00   6.226612486776201e+00  1.11662178e+00   9.94766440e-01  -5.03382440e-01
