64
Lattice="7.10842262195238 0 0 0 7.10842262195238 0 0 0 7.10842262195238 " PBC="1 1 1" Properties=species:S:1:pos:R:3:force:R:3 Energy="-512.55720781"
C     7.065078586569193e+00   2.934470592297920e-02   1.326502745118200e-02  1.73381549e+00  -1.86883590e-01  -1.15824684e+00
C     1.740237465660239e+00   1.787212197028437e+00   7.057508898405381e+00  2.03201522e+00  -2.09031879e+00   2.41582358e+00
C     3.061746899309020e-02   1.776697489373160e+00   1.774548044541324e+00 -1.16322640e+00   7.81776340e-01   6.12152980e-01
C     1.757182310249116e+00   1.072426395411540e-02   1.766360492283382e+00  1.17347886e+00  -7.84538760e-01  -3.12809200e-01
C     8.924639527097501e-01   8.756545946560100e-01   8.972305054975911e-01 -7.07161360e-01   1.05647681e+00  -6.74337120e-01
C     2.671411897600176e+00   2.623000554020475e+00   8.779989524360859e-01 -8.55853190e-01   2.26246172e+00  -3.25991500e-01
C     8.844210568521249e-01   2.698226360491566e+00   2.715165376173895e+00  4.82996800e-01  -2.47964591e+00  -1.26876211e+00
C     2.680896594817815e+00   9.142462921442160e-01   2.641796858364958e+00 -1.61749585e+00  -1.88942635e+00   1.23877933e+00
C     3.591099545091549e+00   7.742991507287400e-03   7.056914847527028e+00 -1.23122031e+00  -2.19806670e-01   1.41377950e+00
C     5.298778658046533e+00   1.798770278955879e+00   7.090362819323175e+00  1.64103743e+00  -9.68658370e-01   1.34937602e+00
C     3.529057730053772e+00   1.763477671489841e+00   1.758264780845690e+00  1.57579617e+00   4.34119600e-02   8.59902110e-01
C     5.336881224974258e+00   7.053529461254252e+00   1.808108969172904e+00  1.14989457e+00   3.48843629e+00  -1.52991570e+00
C     4.440874434430699e+00   8.771274598228739e-01   9.027356233956502e-01 -2.98349200e-02  -3.16948140e-01  -6.46423870e-01
C     6.222828246910218e+00   2.678753974071695e+00   9.038557686321097e-01  1.04419800e-02  -4.31916170e-01  -1.20989556e+00
C     4.469797042218503e+00   2.631294732617717e+00   2.697041670777717e+00 -1.14802931e+00   1.91146397e+00  -1.84979563e+00
C     6.239071205849596e+00   9.232223817233950e-01   2.657538175920043e+00  5.72294700e-02  -2.11580164e+00   5.35924620e-01
C     3.083669274669100e-02   3.546128678059929e+00   2.732228860336300e-02 -1.73393076e+00  -2.70535290e-01  -1.14332139e+00
C     1.695968271025439e+00   5.286644936055325e+00   7.095999371955478e+00  2.54518488e+00   1.34432599e+00   2.91143170e-01
C     2.083343609892220e-02   5.327027671706865e+00   1.796908796324379e+00 -7.72450380e-01  -3.53166830e-01  -3.74088780e-01
C     1.760166923654576e+00   3.524760119906173e+00   1.787493619479963e+00  1.53740657e+00   2.59284290e-01   1.03692577e+00
C     8.983308893191672e-01   4.386702282991298e+00   9.511658042952936e-01 -8.06255440e-01   1.52260069e+00  -2.31949302e+00
C     2.630115729641964e+00   6.231333829996179e+00   8.136415687298444e-01  9.61315280e-01  -3.81932480e-01   1.87319638e+00
C     8.954379034812796e-01   6.193444302494376e+00   2.675762536580520e+00  7.45866500e-01   1.05520165e+00   2.08841700e-02
C     2.641168473805350e+00   4.444544868450536e+00   2.680162294761169e+00  1.56978087e+00   2.42400560e-01  -7.15389500e-01
C     3.573391682418641e+00   3.582079667629031e+00   3.017525402190000e-03 -1.25028147e+00  -6.48084700e-01  -8.88923040e-01
C     5.333381606349979e+00   5.322445937907144e+00   8.845294602970800e-03  6.96373450e-01   6.93807700e-01  -9.76403200e-01
C     3.548549451383170e+00   5.367562385434023e+00   1.768503184113728e+00 -1.26778350e-01  -8.29931170e-01  -1.23556520e-01
C     5.327661032162307e+00   3.565646842721472e+00   1.743286836795767e+00  4.90607000e-02  -6.93149070e-01   1.81424886e+00
C     4.438967315725979e+00   4.450353373826017e+00   8.727633148395512e-01 -1.19390050e-01   3.67027960e-01   8.69887060e-01
C     6.241322656546029e+00   6.262039230177078e+00   8.608577021302179e-01 -9.59402910e-01  -2.54089587e+00   1.89701037e+00
C     4.506724302550236e+00   6.242834760205755e+00   2.684113227137591e+00 -3.11222359e+00  -1.37931347e+00   4.98941070e-01
C     6.202100441971429e+00   4.431470915399379e+00   2.666518246215889e+00  2.32585180e-01   7.27320250e-01   2.83724510e-01
C     2.373879059216860e-02   7.084431693657500e+00   3.540163360881451e+00 -6.23272320e-01   1.03325346e+00   6.71158510e-01
C     1.761327729068422e+00   1.728228780822916e+00   3.601723295949818e+00  4.43024730e-01   2.26917325e+00  -1.58229890e+00
C     7.099956204322675e+00   1.797794719035510e+00   5.299728201140113e+00 -5.83370330e-01  -1.54208634e+00   1.67118607e+00
C     1.791179692029564e+00   1.309236386574220e-02   5.302918603380421e+00 -7.33775900e-01  -5.17859340e-01   2.46568482e+00
C     8.527364003710942e-01   8.864439006770984e-01   4.497759302110344e+00  1.69444446e+00  -8.74232950e-01  -2.68321284e+00
C     2.655976384386203e+00   2.666467492078382e+00   4.421899779762680e+00  1.69610840e-01  -1.50516260e-01   1.22942224e+00
C     8.671846247673751e-01   2.591336654133495e+00   6.216661405950463e+00  1.50635270e-01   3.69072832e+00   5.07952200e-02
C     2.683163897296691e+00   9.194121250306226e-01   6.223220205333484e+00 -1.41447930e-01  -1.02011385e+00  -1.55987882e+00
C     3.549402035592213e+00   7.661244647157400e-03   3.556144516615735e+00  7.61550600e-01   3.35485710e-01  -5.16390780e-01
C     5.360020704455334e+00   1.785267190431153e+00   3.574933001695336e+00 -7.78877290e-01  -7.50451450e-01  -1.06319490e+00
C     3.559365840494440e+00   1.794938057237211e+00   5.320972148645340e+00 -1.25392810e-01   4.86949580e-01   4.11110020e-01
C     5.342778088042905e+00   1.869422739565940e-02   5.318129561523828e+00  6.64567230e-01  -9.89628510e-01   8.67811100e-02
C     4.435756512312751e+00   9.159121509852133e-01   4.441863713606724e+00  4.51842110e-01  -1.12475556e+00   1.28303180e-01
C     6.225568685998680e+00   2.651972991850845e+00   4.433684336034796e+00  1.20585820e-01   8.75100830e-01   1.34734880e-01
C     4.458677336714036e+00   2.678091113662380e+00   6.228895427784840e+00 -8.17231610e-01   2.03539230e-01  -6.77752490e-01
C     6.209882671971579e+00   8.940460032480574e-01   6.199684289122890e+00 -4.67968510e-01   9.60466550e-01   5.52357300e-01
C     7.105588136480275e+00   3.540548708471681e+00   3.557208576397723e+00 -2.34451080e-01   1.16083807e+00   5.95797990e-01
C     1.806674702740866e+00   5.343404624412631e+00   3.592580087354843e+00 -1.55721128e+00  -1.57869970e+00  -8.86140120e-01
C     7.101577209016940e+00   5.349009118058918e+00   5.289916658650405e+00  7.03704300e-01  -5.78617170e-01   2.58232817e+00
C     1.759083600047288e+00   3.531364342109736e+00   5.366722454217244e+00  4.47617370e-01   3.81373300e-02  -1.51431435e+00
C     8.857046958088446e-01   4.433260745130870e+00   4.507897974209024e+00  1.20478100e-02  -6.85482600e-02  -2.31800800e+00
C     2.656875102258049e+00   6.197694925968457e+00   4.452978158878452e+00  8.52969540e-01   2.37815431e+00  -8.12824510e-01
C     8.650232377855380e-01   6.222982641849525e+00   6.232909056448771e+00 -2.17014790e-01   5.66285300e-02  -5.55072890e-01
C     2.641505270869085e+00   4.467352668932163e+00   6.163559285368050e+00  1.68217880e-01  -1.05581652e+00   2.81249494e+00
C     3.564989811218706e+00   3.568949913460308e+00   3.552219387813424e+00 -8.00133840e-01  -9.88880620e-01  -2.83517830e-01
C     5.314002624603335e+00   5.332915507078785e+00   3.599824849520695e+00  1.33747533e+00  -5.41832060e-01  -1.30455650e+00
C     3.537798317591551e+00   5.371265660366364e+00   5.321812079862119e+00  1.00873196e+00  -1.83284403e+00   6.10922900e-01
C     5.347963469091516e+00   3.523744255229549e+00   5.316791116628708e+00 -7.91801300e-01   1.55714097e+00   4.78706960e-01
C     4.421296843356052e+00   4.429510554609236e+00   4.451102246149034e+00  4.58206180e-01   5.86392860e-01  -4.25985400e-02
C     6.288514621309494e+00   6.199689051766046e+00   4.449339712760405e+00 -3.16601614e+00   1.60214076e+00  -1.57806870e+00
C     4.508452431173384e+00   6.202745602408420e+00   6.217796905379782e+00 -2.51304543e+00   1.31558321e+00  -6.74471860e-01
C     6.192103653988244e+00   4.490404359393882e+00   6.163425575938569e+00  1.55760348e+00  -2.11435594e+00   2.07013856e+00
