64
Lattice="7.10842262195238 0 0 0 7.10842262195238 0 0 0 7.10842262195238 " PBC="1 1 1" Properties=species:S:1:pos:R:3:force:R:3 Energy="-506.77576077"
C     7.769569899463580e-02   2.146445077489960e-02   7.002423314659310e+00 -3.36970000e-04  -8.28197800e-02   3.01243673e+00
C     1.846859468822441e+00   1.838116890926329e+00   1.688932780821520e-02 -1.19294099e+00  -2.74859734e+00  -1.33353387e+00
C     7.099862515312544e+00   1.751854902916557e+00   1.687560855255860e+00  3.26448930e-01   8.91271390e-01   7.67720430e-01
C     1.776780089244004e+00   5.791843232859320e-02   1.756149882947788e+00  7.93129570e-01  -3.96717080e+00   1.27233839e+00
C     9.842206092363294e-01   8.743155100028543e-01   8.428816386718572e-01 -2.92621794e+00   2.16095292e+00  -1.79042300e-02
C     2.662145286788518e+00   2.696896658956268e+00   9.022232482932006e-01 -2.18735580e-01  -3.04921880e-01   1.81419832e+00
C     8.013379554380173e-01   2.684115857253961e+00   2.683779984285166e+00  6.69502280e-01  -2.83736680e+00   4.98484420e-01
C     2.712624968097959e+00   8.460335843457913e-01   2.629443557199017e+00 -1.63328475e+00   2.70393206e+00   3.25528820e-01
C     3.502366953715971e+00   7.074615743945768e+00   7.103582708290721e+00  1.12259809e+00   1.29535730e-01   1.43613100e-01
C     5.236113789766113e+00   1.665307796075498e+00   7.089051244265559e+00  1.73116818e+00   3.45370418e+00  -2.02746024e+00
C     3.549591546139262e+00   1.775512088817048e+00   1.759659879869091e+00  1.25049683e+00  -7.92825890e-01  -2.33881540e-01
C     5.422794331601840e+00   6.144989668620920e-02   1.744146600511655e+00 -2.93185612e+00  -3.43861831e+00  -5.09834600e-02
C     4.410335726760239e+00   8.362548116843622e-01   8.816070455895456e-01  1.71948790e-01   2.61812210e-01   1.85679300e-02
C     6.153327137511917e+00   2.593382458163531e+00   7.398268552330500e-01  2.00612715e+00   1.29330496e+00   3.32465445e+00
C     4.503781771006686e+00   2.613772328690965e+00   2.605353965950551e+00 -2.24705544e+00   1.70861647e+00   1.81428431e+00
C     6.225155899897137e+00   8.946807853880233e-01   2.599459661914048e+00  1.99615113e+00   1.10243876e+00   1.84484138e+00
C     4.009022406072840e-02   3.564059816287331e+00   7.072504755680306e+00 -1.97002448e+00  -1.20809320e+00   1.13163847e+00
C     1.759217309476770e+00   5.292157304544456e+00   1.105924837008290e-01  3.68448840e-01   1.55472997e+00  -7.66511780e-01
C     7.063938324496719e+00   5.298789960438499e+00   1.733702408408768e+00  6.35318650e-01   1.09152630e-01   1.90807387e+00
C     1.758995171269895e+00   3.472322352501826e+00   1.914306101915108e+00 -3.53397240e-01   3.31278413e+00  -4.30753844e+00
C     8.796238667627917e-01   4.393840560986302e+00   9.730933688038862e-01 -1.06300490e-01  -1.95661580e-01  -1.54584906e+00
C     2.628882560485847e+00   6.170275251975200e+00   9.280691175183895e-01  2.26163533e+00   1.77697281e+00   9.01134020e-01
C     8.532430887354477e-01   6.190696683899067e+00   2.700770607115716e+00  6.63451870e-01   7.52238410e-01  -2.47088976e+00
C     2.642559449943631e+00   4.425503963283700e+00   2.676938198597642e+00  2.05191565e+00  -8.03198720e-01   6.72939180e-01
C     3.443612428718813e+00   3.657705465040949e+00   5.326753357677960e-02  4.64886807e+00  -1.12783615e+00  -1.26979240e-01
C     5.355564149977950e+00   5.434900259660604e+00   7.098911408365987e+00 -1.54667042e+00  -3.81578295e+00   6.55369950e-01
C     3.684263384959984e+00   5.299115881615626e+00   1.878854763371966e+00 -3.62721526e+00   1.99742785e+00  -1.56648649e+00
C     5.319226817639451e+00   3.510725463537924e+00   1.742462686277204e+00  4.98417930e-01  -4.03682950e-01  -1.68646823e+00
C     4.517357365442137e+00   4.504864312687487e+00   9.541051370486636e-01 -2.26076336e+00  -1.41624994e+00  -1.89473577e+00
C     6.265591664381423e+00   6.235078404863942e+00   7.980350268676344e-01  5.55954930e-01   1.77899391e+00   2.09047973e+00
C     4.551926335485459e+00   6.243980211426742e+00   2.744275361981962e+00 -4.20247150e-01  -1.22709609e+00  -2.31741050e+00
C     6.141381717635912e+00   4.351841014609842e+00   2.606906800871891e+00  1.93783116e+00   2.33922044e+00   3.47716282e+00
C     2.674423167590460e-02   2.140189665584360e-02   3.522926004701761e+00 -1.26812207e+00  -9.20604300e-02   6.34266420e-01
C     1.769588782416255e+00   1.839223387991358e+00   3.534895451046221e+00 -3.10432950e-01  -2.14892567e+00   7.03318400e-01
C     6.162142292402979e-02   1.793602953300722e+00   5.324330949417517e+00 -1.33488747e+00  -2.17571800e-01   8.29624710e-01
C     1.819545425989317e+00   7.038171074425707e+00   5.226384633894572e+00 -5.49016220e-01   2.40471422e+00   2.49266905e+00
C     8.564398174718880e-01   8.939813876864415e-01   4.444613535813045e+00  2.88911323e+00  -5.35459400e-02  -1.50730369e+00
C     2.699300514233674e+00   2.746109263933695e+00   4.388030136336714e+00 -2.57107063e+00  -1.59874550e+00   1.61366570e+00
C     9.833808912722288e-01   2.671824896954397e+00   6.227072472803941e+00 -1.72293625e+00   1.28544965e+00  -3.90645160e-01
C     2.709587254775528e+00   8.943021907992821e-01   6.157155094177014e+00 -2.89407280e+00  -5.57999490e-01   1.63234670e+00
C     3.595277591570681e+00   7.072169309216869e+00   3.482880919124669e+00 -6.44588670e-01   1.97670675e+00   1.74096822e+00
C     5.371141120802061e+00   1.808817536739665e+00   3.544494664952270e+00 -1.87272974e+00  -2.51454529e+00   7.70499020e-01
C     3.432150168328289e+00   1.821327436455925e+00   5.307527349186098e+00  4.11511808e+00  -2.36926170e-01  -6.48820180e-01
C     5.303076268194133e+00   7.071586702898934e+00   5.337194635327573e+00  1.01052665e+00   2.14767128e+00  -5.25881490e-01
C     4.350214749682839e+00   8.659336134704814e-01   4.502651105304749e+00  2.80012384e+00   1.12012166e+00  -2.63207730e+00
C     6.193611208257494e+00   2.653819973300200e+00   4.519057060374805e+00 -8.22737860e-01  -6.60355110e-01  -3.04541930e-01
C     4.300481737085401e+00   2.717795492543295e+00   6.208889625331564e+00  2.10858321e+00  -1.90109234e+00   1.64976695e+00
C     6.284965599148007e+00   8.874428473078870e-01   6.160799084864705e+00 -2.68809480e+00  -5.60015420e-01   9.97730960e-01
C     6.964459859562259e+00   3.467314042260679e+00   3.630411254706935e+00  4.11228313e+00   3.66657028e+00  -3.52299781e+00
C     1.742429703196247e+00   5.264710334208337e+00   3.541903005149244e+00  2.85217100e-01   1.61530125e+00  -7.84074450e-01
C     7.094124454405227e+00   5.314128088262578e+00   5.376284064567631e+00  1.24088708e+00   1.51829274e+00  -1.39188802e+00
C     1.825564980432385e+00   3.639538753687920e+00   5.410455176196913e+00 -1.23279159e+00  -1.19816821e+00  -3.42011167e+00
C     8.178560814170162e-01   4.427455367461341e+00   4.404537244260652e+00  9.11347130e-01  -1.75679260e-01   3.29930467e+00
C     2.708316055558394e+00   6.204381321537507e+00   4.292605249401310e+00 -2.14898026e+00  -6.38720340e-01   3.78312272e+00
C     9.922219919058537e-01   6.221524277864805e+00   6.297609137209522e+00 -2.22434859e+00  -1.68513933e+00  -3.95715761e+00
C     2.666170715433997e+00   4.560816626403614e+00   6.303487234042453e+00 -1.55275578e+00  -1.62945789e+00  -2.15416291e+00
C     3.582645498069584e+00   3.556246522480332e+00   3.526500048510870e+00  2.44527020e-01   4.13336620e-01   1.06976992e+00
C     5.377546591509170e+00   5.336130717714037e+00   3.655315257934975e+00 -1.07497988e+00  -6.55988620e-01  -2.47226079e+00
C     3.526900110535924e+00   5.414147006568836e+00   5.318308054015817e+00  1.72309700e-01  -2.64464831e+00   1.02645711e+00
C     5.302567944892576e+00   3.535363469591522e+00   5.423391510186145e+00 -1.49265806e+00   9.33001760e-01  -1.04957348e+00
C     4.385508281243816e+00   4.445218249325329e+00   4.543297918856624e+00  2.72111002e+00   1.29278670e-01  -2.60197352e+00
C     6.281785433036272e+00   6.273183175402679e+00   4.439531155808197e+00 -1.81518745e+00  -2.18247381e+00   1.32322769e+00
C     4.401498393590602e+00   6.201152391646599e+00   6.240273879872674e+00  1.32814228e+00   2.03345640e+00  -8.65888310e-01
C     6.172333424660596e+00   4.479154569755471e+00   6.254297944691219e+00  2.05560691e+00  -8.37325330e-01  -7.02071140e-01
