64
Lattice="7.10842262195238 0 0 0 7.10842262195238 0 0 0 7.10842262195238 " PBC="1 1 1" Properties=species:S:1:pos:R:3:force:R:3 Energy="-506.60008297"
C     7.079526313375890e+00   1.130573292443140e-02   2.996285435401440e-02  1.44571533e+00  -6.13029190e-01  -1.50183563e+00
C     1.728021641387769e+00   1.724074476475336e+00   5.446572929360680e-02  1.90411046e+00   3.49959027e+00  -1.92429222e+00
C     4.981475945756700e-02   1.730013421405893e+00   1.771910961917756e+00 -2.52349766e+00   7.39835010e-01   5.10791480e-01
C     1.792861331568778e+00   7.062751075750726e+00   1.677147655875596e+00  2.48231900e-01   1.84654602e+00   3.58028178e+00
C     8.768238590927738e-01   9.151396786990978e-01   8.440101007627822e-01  1.04152910e-01  -3.34304802e+00   2.13735777e+00
C     2.608126250772351e+00   2.613968663323730e+00   9.879954659844542e-01  1.95772350e+00   8.28289260e-01  -2.77537102e+00
C     8.322864636725209e-01   2.696702812271421e+00   2.648079993118776e+00  2.71644008e+00  -1.69713868e+00  -2.59903800e-02
C     2.772031690870502e+00   8.551476484080244e-01   2.650392220828609e+00 -4.04034453e+00  -4.32031860e-01   7.55679040e-01
C     3.600903268316374e+00   6.423739353241599e-02   3.067710865887200e-02 -3.33139936e+00  -2.32905376e+00  -1.82216620e-01
C     5.314685317511760e+00   1.808919258267357e+00   3.109096102380840e-02  2.49733301e+00  -5.17938270e-01  -2.12337289e+00
C     3.581482844465856e+00   1.751988967767171e+00   1.769720714740082e+00 -9.36465570e-01   5.28806410e-01   9.07364150e-01
C     5.246573762567217e+00   7.102962569501352e+00   1.746075470989592e+00  2.67764701e+00   1.41781598e+00   9.80675110e-01
C     4.445809314666182e+00   9.140091551656130e-01   8.457771835418880e-01  9.38576440e-01   5.52854910e-01   1.80477570e+00
C     6.203977563132692e+00   2.662491964559695e+00   9.214814579395308e-01  1.43454556e+00  -5.68198630e-01   6.30931580e-01
C     4.391748623293462e+00   2.678676989854720e+00   2.638101260529046e+00  2.31751221e+00   3.04582400e-01   2.04614123e+00
C     6.289479092090576e+00   7.843909783223540e-01   2.651304942293017e+00 -3.52411359e+00   3.62963264e+00  -6.35913010e-01
C     3.633569740129679e-02   3.549849013206558e+00   1.034366479019536e-01 -1.71255732e+00   1.97957350e-01  -3.53082832e+00
C     1.826822957983447e+00   5.360198557189286e+00   7.037101185737170e+00 -2.46814750e-01  -9.73457600e-02   2.85788127e+00
C     6.036045983546800e-03   5.410129112851333e+00   1.830606771344073e+00  3.48414430e-01  -4.07080068e+00  -2.17154446e+00
C     1.761072749949042e+00   3.568523337018882e+00   1.751052930676569e+00  5.75358190e-01   2.91882300e-02   3.12758460e+00
C     9.983017546885136e-01   4.448077185818867e+00   8.554002106637130e-01 -3.72193375e+00   1.35326730e+00   3.12058660e-01
C     2.722669595765376e+00   6.194114555663216e+00   9.609378239552337e-01 -2.06578574e+00   1.48199354e+00  -4.98863159e+00
C     9.404498571956437e-01   6.191448328506906e+00   2.602585946182324e+00 -5.44599600e-01   2.11266805e+00   2.84346539e+00
C     2.630171957264888e+00   4.451494488909205e+00   2.748498902365861e+00  1.13023680e+00  -8.69044470e-01  -3.27466739e+00
C     3.594325987034541e+00   3.494949314712001e+00   6.287698361140040e-02 -2.47629125e+00   3.31964200e-02  -3.34745606e+00
C     5.265576068999227e+00   5.353503986934222e+00   7.086472024202118e+00  1.22083323e+00  -9.81351590e-01   5.37429750e-01
C     3.504576322550493e+00   5.335774798993454e+00   1.795216778488141e+00  1.90805960e+00  -2.30000801e+00   2.96782270e-01
C     5.375031133996631e+00   3.528072502678641e+00   1.828365841113118e+00 -8.32417860e-01   7.98054110e-01  -1.45880959e+00
C     4.483212626060776e+00   4.343966304031405e+00   8.023266659402332e-01 -1.75447380e-01   3.40887278e+00   4.85514161e+00
C     6.196897645287399e+00   6.280067611625922e+00   9.495253936072763e-01 -5.71609350e-01  -2.50203711e+00  -2.31206269e+00
C     4.385720396574798e+00   6.248687906475289e+00   2.611270235012951e+00  1.51355269e+00  -1.78689294e+00   9.12586200e-01
C     6.287999260669545e+00   4.411387488971094e+00   2.740321088646908e+00 -2.33490197e+00   1.33310770e+00  -2.55255259e+00
C     7.078339206798351e+00   7.043602477981196e+00   3.542191536023390e+00  2.11389583e+00   2.01293308e+00  -4.03029600e-02
C     1.776461418657949e+00   1.757444753212247e+00   3.475464133131414e+00  7.12657780e-01   9.74394690e-01   1.96047225e+00
C     7.098818572366571e+00   1.788235383380360e+00   5.281993255377023e+00  2.24941890e-01  -8.45874730e-01   2.64767550e+00
C     1.767873093532691e+00   3.771281211546940e-02   5.194197269765855e+00  1.56619250e-01  -8.38991840e-01   4.83374340e+00
C     8.388559256894726e-01   9.346618951615349e-01   4.374790485954286e+00  1.84971974e+00  -2.04278311e+00  -4.43922710e-01
C     2.651608614107344e+00   2.642413940532600e+00   4.549823806242915e+00  1.52835970e-01   1.50296636e+00  -2.72650402e+00
C     8.862272359556407e-01   2.632556335464315e+00   6.239651892893423e+00 -1.24804012e+00   1.45299338e+00   3.60893120e-01
C     2.662293710652823e+00   9.544508907249004e-01   6.343480854639775e+00  9.14562210e-01  -2.40927230e+00  -4.40941901e+00
C     3.568004208914943e+00   7.032445240005297e+00   3.625521584039316e+00  2.93033410e-01   2.53643743e+00  -3.49577895e+00
C     5.349615253255726e+00   1.814095114029658e+00   3.532471194595897e+00 -7.08371300e-01  -2.38841357e+00   1.12560550e-01
C     3.611856921068437e+00   1.799806402636970e+00   5.390393075036486e+00 -3.19651747e+00  -1.78188886e+00  -1.65794222e+00
C     5.284175185700231e+00   7.087679105447220e+00   5.371440598647043e+00  1.56821395e+00   1.11253120e+00  -1.07057226e+00
C     4.433389763001422e+00   8.595787547324276e-01   4.414496002182820e+00  9.88600920e-01   1.06109693e+00   2.39564777e+00
C     6.223626593854670e+00   2.673310201860847e+00   4.462444587449958e+00  2.26900190e-01  -5.33761110e-01  -1.54705539e+00
C     4.477462694087684e+00   2.631320394023375e+00   6.171301494948850e+00  4.57691140e-01   2.70619648e+00   1.77439936e+00
C     6.273909016436407e+00   8.851854966206798e-01   6.236807884087388e+00 -3.05123438e+00   1.25257160e-01  -5.44165350e-01
C     3.289443892672860e-02   3.508394114171242e+00   3.636367046599102e+00 -9.87525590e-01   1.32909848e+00  -3.61883035e+00
C     1.813001554293797e+00   5.360409961678005e+00   3.546471446198666e+00 -1.85025043e+00  -1.58296038e+00   1.35898900e-01
C     7.091278952830441e+00   5.298949331273639e+00   5.326882020127382e+00  1.32948690e-01   1.43426823e+00  -8.60330720e-01
C     1.696748846913341e+00   3.568494974412628e+00   5.370422459275179e+00  3.21030099e+00  -5.57367030e-01  -2.71395740e-01
C     8.850909545998338e-01   4.429614764084845e+00   4.382537529262466e+00  2.35676130e-01   6.58850140e-01   3.59323943e+00
C     2.706196395017336e+00   6.166212219774061e+00   4.450838452585606e+00 -2.60561701e+00   3.08025037e+00  -5.60426670e-01
C     9.289757257393444e-01   6.172423204038285e+00   6.165977997248732e+00 -1.70067140e+00   2.54543506e+00   3.44964660e-01
C     2.652578202952712e+00   4.496617049679537e+00   6.230597752833878e+00  1.21279992e+00  -3.58194832e+00  -8.76615450e-01
C     3.520615269760677e+00   3.607752304594971e+00   3.614925911450396e+00  9.02650200e-02  -1.65096946e+00  -1.05566832e+00
C     5.281932407279395e+00   5.341269325341810e+00   3.433936586016921e+00  2.44550052e+00   1.26924591e+00   2.97189075e+00
C     3.530161810255111e+00   5.360312434119658e+00   5.345919513251361e+00  5.18803980e-01  -1.27348673e+00   3.30570000e-03
C     5.384159485988330e+00   3.583385627032778e+00   5.219565452990980e+00 -2.95209718e+00   1.14929606e+00   3.80384815e+00
C     4.446710378317492e+00   4.576483803110773e+00   4.358981993805441e+00 -5.08183360e-01  -4.37992643e+00   2.39645846e+00
C     6.215334761036892e+00   6.269160945547378e+00   4.454524738387885e+00 -1.14579540e+00  -2.85152056e+00  -3.01447840e-01
C     4.327592976621177e+00   6.220232890727429e+00   6.254871381143975e+00  3.70075395e+00   1.38290111e+00  -7.61693640e-01
C     6.144381756318458e+00   4.496709174836691e+00   6.189198939253034e+00  2.83818884e+00  -1.56178550e+00   6.33746430e-01
