64
Lattice="7.10842262195238 0 0 0 7.10842262195238 0 0 0 7.10842262195238 " PBC="1 1 1" Properties=species:S:1:pos:R:3:force:R:3 Energy="-514.39972502"
C     1.633728770754600e-02   8.337326722545601e-03   7.077699164425646e+00 -7.47853860e-01  -5.00608790e-01   1.36803121e+00
C     1.762265614348904e+00   1.750483546024707e+00   6.870006125325200e-03  1.23566128e+00   1.40238303e+00  -5.24177300e-02
C     1.323588291844000e-02   1.802506039379594e+00   1.757685586570612e+00 -8.41686720e-01  -1.21745567e+00   6.05217270e-01
C     1.781206361841026e+00   7.094664125850538e+00   1.751246421940285e+00 -5.47829640e-01   9.75896210e-01   1.09235843e+00
C     8.698404025424333e-01   8.936512725399688e-01   8.869347372590093e-01  9.48845090e-01  -2.96836470e-01  -4.81279930e-01
C     2.685594551327374e+00   2.693904652791284e+00   9.054540974582167e-01 -1.02863991e+00  -1.26181821e+00  -4.15891890e-01
C     8.806085965483403e-01   2.641338862695551e+00   2.671222955726936e+00  6.09105400e-01   1.26270632e+00  -1.79928390e-01
C     2.659090726504477e+00   8.926243187240573e-01   2.667232713773425e+00  9.92536800e-02   1.08867460e-01  -1.93994890e-01
C     3.551243188135019e+00   7.103291405131753e+00   3.221537131384000e-04 -2.55643700e-01   2.32054220e-01   1.94209090e-01
C     5.307251329135764e+00   1.793800638533785e+00   3.357265352890280e-02  1.01033136e+00  -1.35711600e+00  -1.40721549e+00
C     3.559680174942697e+00   1.796863160251159e+00   1.798326713384391e+00 -7.03051830e-01  -8.85631530e-01  -7.16262600e-01
C     5.332403629565919e+00   7.090493401046706e+00   1.793295514022407e+00  5.00710300e-02   5.76058090e-01  -3.17555000e-01
C     4.429255930910988e+00   8.604849364480252e-01   9.142403210692155e-01  4.22272650e-01   1.36396934e+00  -1.78346170e-01
C     6.229096596144986e+00   2.692662171601534e+00   8.598938711071722e-01 -1.79579730e-01  -7.08987900e-01   1.12195423e+00
C     4.427102078857128e+00   2.674750510452111e+00   2.656250129741299e+00  9.31588310e-01  -6.39355870e-01   4.48628730e-01
C     6.239948243032451e+00   8.770820370023321e-01   2.670949992298328e+00 -1.08667258e+00   6.62784820e-01  -4.43731970e-01
C     2.468349995836660e-02   3.579612547390307e+00   1.552294681219880e-02 -6.28257680e-01  -2.75730350e-01  -1.47071415e+00
C     1.779637248631887e+00   5.322065281875844e+00   9.283742110172400e-03  1.80216020e-01   2.72214490e-01  -3.20293910e-01
C     1.070592422375580e-02   5.376418840260507e+00   1.762547534390014e+00 -1.13037547e+00  -1.70281086e+00  -9.55818400e-02
C     1.760454601518007e+00   3.559393492258432e+00   1.788586610542015e+00  8.88624610e-01   6.41128600e-02  -9.97431400e-02
C     8.947677213966659e-01   4.458148754408014e+00   8.858052089046914e-01 -1.28370400e-01  -1.44913300e-01   6.90439380e-01
C     2.660815727421673e+00   6.211423777995594e+00   8.999589313518257e-01  2.48332470e-01  -2.48305500e-02  -8.56127750e-01
C     8.632317020326195e-01   6.234265556737346e+00   2.632569130625031e+00  1.39505322e+00  -3.32451150e-01   1.50015389e+00
C     2.683589905064307e+00   4.440181789730606e+00   2.670359353462832e+00 -1.40059577e+00   5.71468700e-02  -2.65304990e-01
C     3.571377581953490e+00   3.553964007977050e+00   8.432295248748800e-03 -8.64545740e-01   1.76118450e-01  -5.58280350e-01
C     5.315677653309512e+00   5.317781533152353e+00   2.030975860450680e-02  5.45098060e-01   3.75559610e-01  -5.24316290e-01
C     3.558832922050619e+00   5.324101987124926e+00   1.764374256834901e+00  7.68044200e-02  -1.19821530e-01   8.94122280e-01
C     5.332032498820928e+00   3.541067338986037e+00   1.761684714052398e+00  9.68153600e-02   4.87927780e-01   5.39889970e-01
C     4.457898609016016e+00   4.408476447739751e+00   8.898809651823207e-01 -4.68952340e-01   1.25244840e+00  -3.45451200e-02
C     6.207172585847704e+00   6.232224231013560e+00   8.798949109172924e-01  4.44097320e-01  -2.70080630e-01   6.37370000e-03
C     4.429009481898752e+00   6.224635918782483e+00   2.683303009127364e+00  6.18568950e-01  -6.32088200e-02  -6.10308580e-01
C     6.196211611420343e+00   4.441388799891483e+00   2.643703763816999e+00  1.09237361e+00   4.70792330e-01   5.77791880e-01
C     7.104268457820871e+00   7.102424675161696e+00   3.561591700869441e+00  1.53905320e-01   3.87287460e-01  -5.22568510e-01
C     1.775591205560809e+00   1.768924358153963e+00   3.564143482421569e+00 -8.50621800e-02  -6.19520820e-01  -4.43385620e-01
C     1.962329823209340e-02   1.766140984192876e+00   5.321960503726425e+00 -5.47868950e-01   2.59151710e-01   4.15594090e-01
C     1.776470872860034e+00   7.093058759686037e+00   5.328649173990714e+00  6.37203110e-01   1.20892350e-01  -1.11842120e-01
C     8.947567033416051e-01   8.654771105698249e-01   4.444905265477370e+00 -1.04781170e-01   3.63382590e-01   4.47074400e-02
C     2.686720596554608e+00   2.632923698745317e+00   4.431573205600881e+00 -1.30398508e+00   1.73475981e+00  -1.24425000e-02
C     9.294170876998201e-01   2.662924298823443e+00   6.224052388369608e+00 -1.30229397e+00   1.03292120e-01  -1.83512040e-01
C     2.662866720600221e+00   9.022459952455846e-01   6.208143098788012e+00 -1.14100090e-01  -8.01825630e-01   5.36124200e-01
C     3.561942217188834e+00   3.166759626674280e-02   3.557086311528659e+00 -6.96158050e-01  -1.15818711e+00  -1.90966700e-02
C     5.315694713523800e+00   1.761021071716595e+00   3.546128962396834e+00  6.92821920e-01   5.53373530e-01   3.72296700e-01
C     3.541441028763170e+00   1.806525923455430e+00   5.326945356172926e+00  6.41034080e-01  -1.60467630e+00   4.89273410e-01
C     5.340311820814895e+00   7.079989924699166e+00   5.347756258572143e+00 -9.12123530e-01   1.26058544e+00   1.41590800e-01
C     4.427889407746519e+00   8.917799092010276e-01   4.462083053075505e+00  7.38065490e-01  -7.20035800e-02  -2.57548720e-01
C     6.228706556995827e+00   2.656093886612112e+00   4.426767627572857e+00 -2.81880130e-01  -2.16333300e-02   4.17376450e-01
C     4.430469054315317e+00   2.653485024426345e+00   6.218745453294194e+00  4.73826050e-01   7.21207860e-01   2.40821600e-01
C     6.232598987054087e+00   8.662038046142676e-01   6.224785551078635e+00 -5.25799650e-01   1.18042813e+00  -3.26189800e-01
C     5.887479950788800e-03   3.547143263220482e+00   3.539954231087970e+00 -6.75515630e-01   5.01332460e-01   4.61488800e-01
C     1.795149106304798e+00   5.340654517869406e+00   3.556349950029453e+00 -1.01257845e+00  -3.61978020e-01  -5.50880720e-01
C     3.264400919782600e-03   5.371307671144049e+00   5.342381295892256e+00 -4.00410590e-01  -1.38981258e+00  -3.33478750e-01
C     1.795229076059273e+00   3.549400400655010e+00   5.318808202631359e+00 -3.33745270e-01   1.81547100e-01   6.69654290e-01
C     8.732024731890148e-01   4.454028357236330e+00   4.469325398377666e+00  7.92069730e-01  -3.12132680e-01  -1.35370412e+00
C     2.672167096419324e+00   6.213271257034533e+00   4.417563428711802e+00  7.07090100e-02   7.52321390e-01   1.03353920e+00
C     9.076126410710059e-01   6.199470183433576e+00   6.226145250157388e+00 -3.07685630e-01   1.17342251e+00  -1.01459740e-01
C     2.658038751040943e+00   4.464255244859724e+00   6.220896035473650e+00  8.48125910e-01  -1.12798837e+00  -1.56745980e-01
C     3.528449177993275e+00   3.541125272630389e+00   3.543778562457531e+00  1.19539571e+00   4.03042830e-01   3.48952800e-02
C     5.318024712290183e+00   5.336336933054244e+00   3.561343545835777e+00  9.63078500e-02  -3.31526210e-01  -4.01730300e-01
C     3.561340347045598e+00   5.327920205251033e+00   5.327963922050146e+00 -5.47049290e-01   2.36180170e-01   1.08929500e-02
C     5.334076170324179e+00   3.540016429785895e+00   5.326454519591015e+00  3.15780500e-02   6.57526090e-01  -1.82566740e-01
C     4.422247808134157e+00   4.446475231697224e+00   4.417512176984712e+00  6.50574510e-01  -7.47194740e-01   1.17389407e+00
C     6.206109379076430e+00   6.236792245557624e+00   4.449357057311597e+00  5.10466730e-01  -7.92397980e-01  -2.25229400e-01
C     4.427971794364685e+00   6.205710098977865e+00   6.250239888385914e+00  5.17342190e-01   4.94389500e-02  -9.68736850e-01
C     6.216456612294781e+00   4.479485822249563e+00   6.213451029042592e+00  1.96475320e-01  -1.19810386e+00   3.00701160e-01
