64
Lattice="7.10842262195238 0 0 0 7.10842262195238 0 0 0 7.10842262195238 " PBC="1 1 1" Properties=species:S:1:pos:R:3:force:R:3 Energy="-512.87884394"
C     2.767458202841020e-02   7.095720863957227e+00   8.057560533490260e-02 -1.93409731e+00  -3.12863330e-01  -2.88263288e+00
C     1.772891071228602e+00   1.730462744799703e+00   4.844560617672880e-02 -5.86800780e-01   1.11272323e+00  -1.39076587e+00
C     8.970829346440001e-03   1.768941418368251e+00   1.833277192469728e+00 -1.29572770e-01   7.27328150e-01  -1.79613821e+00
C     1.750946517589947e+00   7.541325557557999e-04   1.807169946544802e+00  7.19464350e-01  -5.83824240e-01  -3.04411700e-01
C     8.910263453190814e-01   8.460217132800160e-01   9.203927319310515e-01 -4.25499020e-01   1.43335970e+00   8.01225440e-01
C     2.638958323044339e+00   2.642275966049546e+00   8.815608408425155e-01  2.18181460e+00   8.75753740e-01  -8.65487600e-02
C     9.379412948530454e-01   2.674440441057426e+00   2.620107283845683e+00 -7.51628430e-01   4.23499670e-01   1.50887575e+00
C     2.648232753120880e+00   8.668496758935208e-01   2.693055196288194e+00  1.31459719e+00   7.35046840e-01  -1.18956914e+00
C     3.531179452037390e+00   7.101397365924654e+00   2.807286694780880e-02  1.00698895e+00   4.54896470e-01  -1.07463188e+00
C     5.355466053745795e+00   1.736413845132941e+00   1.223196039181740e-02 -7.70859070e-01   2.41005664e+00   3.70851320e-01
C     3.574232040140778e+00   1.776599250972551e+00   1.786375535686063e+00 -1.13362428e+00   4.99794460e-01  -2.02200150e-01
C     5.284202339874640e+00   2.878349595713020e-02   1.775240120567607e+00  1.80052137e+00  -7.79618190e-01   3.76684430e-01
C     4.462633173902067e+00   9.174546076095270e-01   9.178484142226749e-01 -1.57314641e+00  -1.13628111e+00  -1.18378661e+00
C     6.221478926128490e+00   2.693154003362613e+00   9.717926696328787e-01  6.29001180e-01  -9.78485570e-01  -2.78254795e+00
C     4.430436639908170e+00   2.708620438214982e+00   2.636041879411806e+00  2.85456580e-01  -1.68972014e+00   1.91540806e+00
C     6.193692528612266e+00   9.086945429937699e-01   2.666381124743549e+00  3.50717810e-01  -5.06804610e-01   1.38394156e+00
C     1.293732916840000e-03   3.585657265649451e+00   7.103691467156806e+00  3.00522470e-01  -1.31578378e+00   7.45758830e-01
C     1.781694639390793e+00   5.319890815396386e+00   7.062367505266151e+00 -2.90208030e-01   1.25347310e-01   3.60867820e-01
C     5.699817593620799e-03   5.300524628810457e+00   1.771581699781998e+00 -1.41615500e-02   2.53991299e+00  -1.49344780e-01
C     1.820209423746251e+00   3.583092404599702e+00   1.737380803861939e+00 -1.42415135e+00  -1.13331522e+00  -2.81812140e-01
C     9.377323783122438e-01   4.467789339333710e+00   8.383270590465446e-01 -1.60593216e+00  -7.62723360e-01   1.32523128e+00
C     2.618811773823188e+00   6.215991863623885e+00   8.310411391137232e-01  1.28542693e+00   2.61202220e-01   2.67213496e+00
C     8.883485314339011e-01   6.275944513253644e+00   2.741778315284008e+00 -5.70064510e-01  -2.23004128e+00  -2.40271014e+00
C     2.647233806490091e+00   4.458300945736307e+00   2.620133869346281e+00  7.95911840e-01   8.53331200e-02   1.51495154e+00
C     3.586373439228416e+00   3.582383837032941e+00   7.085251792375169e+00 -9.74366600e-01  -2.07565179e+00   1.38579600e-02
C     5.294726572816228e+00   5.316713208316793e+00   6.925807242892200e-03  1.42046587e+00   6.33304440e-01  -3.92285840e-01
C     3.537136949950986e+00   5.352843187967467e+00   1.779420654994655e+00 -7.70155400e-02  -6.36689210e-01  -1.54773617e+00
C     5.330466868738874e+00   3.572063118230963e+00   1.802940719422807e+00 -1.64226780e-01   1.74903950e-01  -9.29039810e-01
C     4.442535814965446e+00   4.459676283344825e+00   8.862879418848155e-01 -4.18375250e-01  -7.15410350e-01   3.17787690e-01
C     6.172075957593298e+00   6.234998435109468e+00   8.954944865253348e-01  1.35213935e+00  -7.21949400e-01   3.06958690e-01
C     4.436680749421805e+00   6.216971191008242e+00   2.626459796804272e+00 -7.36524340e-01   8.42544140e-01   1.25810414e+00
C     6.228859885671739e+00   4.462900877097936e+00   2.634171866673162e+00  1.45692900e-01  -5.40781410e-01   1.06370426e+00
C     7.106693638366137e+00   4.788780825373740e-02   3.595225913338233e+00 -1.08436401e+00  -1.23537221e+00  -1.51847380e+00
C     1.806255590143191e+00   1.790402599268746e+00   3.537955626984131e+00 -7.61733100e-01  -2.92408200e-02   9.31860040e-01
C     7.099693477022639e+00   1.814581330136866e+00   5.359599530415099e+00  9.91742200e-02  -1.59384172e+00  -9.13341700e-01
C     1.774731584013372e+00   7.097509627425324e+00   5.351991527853365e+00 -6.14481000e-01   7.03537680e-01  -4.72410990e-01
C     8.648865428185554e-01   8.984134891900115e-01   4.423620586710530e+00  1.21363061e+00   1.18252582e+00   2.14737295e+00
C     2.702164568791498e+00   2.674110183742501e+00   4.469640301499732e+00  7.01050000e-04  -1.55404911e+00  -2.12491496e+00
C     8.594171802862750e-01   2.631702684991879e+00   6.240630438351293e+00  1.83251325e+00   1.10008401e+00   1.03362050e-01
C     2.668347954198277e+00   8.861429300633676e-01   6.244380557788700e+00 -5.27400980e-01  -4.88667660e-01  -2.09396090e-01
C     3.526845802187107e+00   7.075079710690176e+00   3.545818182159887e+00  4.89986450e-01   4.28706230e-01   3.61080830e-01
C     5.311855880972095e+00   1.760736521559116e+00   3.587253888454129e+00  2.73818820e-01   9.18652590e-01  -7.12407700e-01
C     3.554335423058945e+00   1.731411861387925e+00   5.331639545218495e+00  8.95797600e-02   8.78027810e-01   4.01263460e-01
C     5.327216684664331e+00   7.054636598077317e+00   5.349387712647658e+00 -1.88247700e-02   1.21856638e+00  -4.49572580e-01
C     4.396241146389302e+00   8.241714173253027e-01   4.461426945667679e+00  1.58068099e+00   1.06026072e+00  -6.30723480e-01
C     6.263470653240067e+00   2.688894423276030e+00   4.454546205824197e+00 -1.34174782e+00  -2.44251680e-01  -1.17210563e+00
C     4.472119363888457e+00   2.621830365488770e+00   6.172131118952830e+00 -2.57314220e-01   1.27620717e+00   1.55067416e+00
C     6.202497447374756e+00   9.060406844928190e-01   6.235332104467250e+00  1.43603158e+00  -1.72020346e+00   7.90771900e-02
C     3.412504905070300e-02   3.582976039721413e+00   3.511852859365456e+00 -4.72451160e-01  -1.21331679e+00   7.54046910e-01
C     1.756089034850161e+00   5.313086704348748e+00   3.552628690787883e+00  1.16029440e+00   1.41386949e+00   4.77000900e-02
C     4.101275514835199e-03   5.362066010895786e+00   5.296988757230817e+00 -1.40551490e-01  -2.12790175e+00   1.09718013e+00
C     1.845020306637968e+00   3.514626281534875e+00   5.300746624848880e+00 -2.79398427e+00   1.34909412e+00   1.59196068e+00
C     9.140873478144329e-01   4.431722837897032e+00   4.405016067608335e+00 -3.14608030e-01  -1.44728900e-02   1.18565626e+00
C     2.661942412406943e+00   6.230761317638364e+00   4.451795175186032e+00 -4.13310290e-01  -1.29989240e+00   2.42485700e-02
C     8.665235414637152e-01   6.190076474025473e+00   6.238299017900386e+00  5.41615460e-01   1.44072353e+00  -9.37522250e-01
C     2.669284702131141e+00   4.443227180149467e+00   6.196901412751387e+00  6.47932060e-01  -3.93750890e-01   7.38776600e-02
C     3.558074808778196e+00   3.559844663842124e+00   3.526116478026295e+00 -3.41406590e-01   4.58394180e-01   4.23707730e-01
C     5.342350942927668e+00   5.371297221762797e+00   3.516191769448477e+00 -2.38759000e-01  -1.46715189e+00   1.67597430e-01
C     3.544170805217703e+00   5.350430233909108e+00   5.349967973186129e+00  2.47468080e-01  -1.07739379e+00  -1.78507141e+00
C     5.343621857807898e+00   3.563927173121242e+00   5.296790361155493e+00  2.93085600e-02  -5.44419000e-01   5.15525870e-01
C     4.437432394029643e+00   4.439356928369782e+00   4.403346085882219e+00  4.77959550e-01   1.05054727e+00   6.53066280e-01
C     6.227705406754025e+00   6.206322987176161e+00   4.411795867850613e+00 -3.60189160e-01   1.28183451e+00   1.21072503e+00
C     4.436773727589673e+00   6.183457537387086e+00   6.210853966838375e+00 -1.88668290e-01   9.59148960e-01   1.22827146e+00
C     6.214758907720446e+00   4.428888354377307e+00   6.229406239034313e+00 -2.73498960e-01   1.08211350e+00  -9.57209390e-01
