64
Lattice="7.10842262195238 0 0 0 7.10842262195238 0 0 0 7.10842262195238 " PBC="1 1 1" Properties=species:S:1:pos:R:3:force:R:3 Energy="-504.15881002"
C     7.107296645856992e+00   9.434525970787840e-02   7.097946724332227e+00  1.20615476e+00  -2.54417030e+00   2.07965539e+00
C     1.826944440926022e+00   1.719337707978272e+00   7.092306475320163e+00  5.46126030e-01   2.30342876e+00  -6.44219200e-02
C     1.256385264394520e-02   1.780111664757546e+00   1.744413806117941e+00 -1.03152090e-01   2.55818617e+00   5.59461600e-01
C     1.751588337068307e+00   7.288642458684860e-02   1.815957236419193e+00 -1.90459032e+00  -3.74256758e+00  -1.29145234e+00
C     9.745557845894988e-01   9.904662115187137e-01   9.569694048591664e-01 -3.15590300e+00  -2.31478689e+00  -3.42493827e+00
C     2.679530498158704e+00   2.625956662651228e+00   8.624150153578075e-01  3.87445010e-01   1.26155299e+00   1.09207658e+00
C     8.377217057762254e-01   2.759514114057813e+00   2.687748403381233e+00  1.42921258e+00  -3.65080934e+00  -2.02816550e-01
C     2.622434012737661e+00   8.351581242425485e-01   2.641286331452390e+00  2.33973322e+00   2.78256980e+00   1.59310226e+00
C     3.570110008031892e+00   7.006727464555720e+00   4.021021423455400e-03 -1.69966210e+00   9.11739830e-01   6.22064030e-01
C     5.196623516574513e+00   1.681358187846100e+00   4.172551668445940e-02  2.79463935e+00   1.39133413e+00  -1.34092727e+00
C     3.529050763799605e+00   1.636450088186215e+00   1.705835685716939e+00  4.52810570e-01   3.91203189e+00   1.98863907e+00
C     5.346128429792163e+00   5.488605032312740e-02   1.875497526452766e+00  3.87979060e-01  -1.41581821e+00  -3.42736476e+00
C     4.390771144098986e+00   7.506746635723011e-01   8.997595400973347e-01  8.56556540e-01   2.09270034e+00   8.77921410e-01
C     6.155830795042908e+00   2.625755352122630e+00   7.780382521110862e-01  1.72125903e+00  -4.53099920e-01   2.89063785e+00
C     4.537061273186740e+00   2.686544236589405e+00   2.621117461784211e+00 -3.88301831e+00  -8.42967650e-01  -9.28476290e-01
C     6.266768179409260e+00   9.447364492881822e-01   2.641794796922398e+00 -1.84835867e+00   4.60255080e-01   1.32285438e+00
C     2.518976181736300e-02   3.462453516125802e+00   7.095007604831536e+00  3.07197230e-01   1.92711529e+00  -3.76020470e-01
C     1.795154650874442e+00   5.337067678899579e+00   3.072146521602080e-02 -2.97298163e+00  -1.13312830e+00   1.33761722e+00
C     6.507689824383800e-03   5.284876502675920e+00   1.845896064304752e+00 -8.89158810e-01   1.48392132e+00  -2.63935008e+00
C     1.810193585190445e+00   3.541712428338802e+00   1.862327609696239e+00 -3.58040310e-01  -2.63008230e-01  -3.90113402e+00
C     9.283143580987795e-01   4.356247099286622e+00   9.541508442061101e-01 -1.84128648e+00   1.75288183e+00  -1.67422845e+00
C     2.533567214343017e+00   6.158032273528322e+00   9.702909442701773e-01  5.01694033e+00   3.84677562e+00  -1.10181809e+00
C     8.237552191809018e-01   6.266235687470795e+00   2.682128342289409e+00  1.30435506e+00  -1.62755073e+00  -3.92686240e-01
C     2.699080508553585e+00   4.492257880592048e+00   2.616110857564493e+00 -2.43551420e-01  -1.07106743e+00   6.31661280e-01
C     3.504180241242106e+00   3.660497155856502e+00   7.101898936224721e+00  1.26141902e+00  -2.13441901e+00   1.07226337e+00
C     5.395525285083901e+00   5.366052627553761e+00   7.011344598300088e+00 -1.78798313e+00   8.96766170e-01   4.07938472e+00
C     3.586671566473099e+00   5.472298595159365e+00   1.849838821995161e+00  9.41738700e-02  -3.77962417e+00  -2.26663709e+00
C     5.346999069394661e+00   3.559357168218845e+00   1.688580913901830e+00 -1.38677901e+00   6.55188800e-02   7.96960950e-01
C     4.491456477025869e+00   4.588554686646021e+00   9.298706761472023e-01 -1.45898087e+00  -2.49441607e+00  -2.64282573e+00
C     6.224383996284830e+00   6.332104108573370e+00   9.106181532389681e-01  1.23905107e+00  -3.36876865e+00  -7.25390230e-01
C     4.534417935151267e+00   6.276214633313204e+00   2.735401633688511e+00 -5.40477490e-01  -2.22075368e+00  -1.35130473e+00
C     6.134914474736237e+00   4.335120796175756e+00   2.668153041250037e+00  3.36549791e+00   4.41665631e+00  -9.67047190e-01
C     7.049864358551381e+00   5.600392086434860e-02   3.529502930562463e+00  3.31928992e+00  -6.52923920e-01   1.78070345e+00
C     1.761009413903498e+00   1.847723995181485e+00   3.617548848312950e+00 -5.44921830e-01  -1.79604489e+00  -1.86388276e+00
C     7.100139814878950e+00   1.802514640570964e+00   5.382885869907504e+00  8.48347260e-01  -7.26251300e-02  -8.73335290e-01
C     1.816064147095398e+00   7.038543555770994e+00   5.389782248280749e+00 -1.85270704e+00   5.19206870e-01  -3.76300672e+00
C     8.676859107305376e-01   9.386558334948081e-01   4.495796097951152e+00  3.90563200e-01  -1.45915322e+00  -3.20497660e-01
C     2.749183869969524e+00   2.682010840063501e+00   4.364726381208889e+00 -2.91729327e+00   7.30877540e-01   2.26232071e+00
C     1.029955631699600e+00   2.675295939719744e+00   6.180117289597947e+00 -3.90741869e+00  -5.84094610e-01   1.47216185e+00
C     2.703264028518134e+00   7.847116392667423e-01   6.221959028992244e+00 -1.78026813e+00   1.12855356e+00   1.00192563e+00
C     3.560743950387780e+00   7.032506088102924e+00   3.448585765520670e+00 -1.72166865e+00   3.33460737e+00   5.39500278e+00
C     5.382063354326144e+00   1.862803376422196e+00   3.536044314310066e+00 -1.38404598e+00  -1.95330337e+00   1.83353843e+00
C     3.460365416981177e+00   1.698108119486737e+00   5.331476975593175e+00  2.99240577e+00   2.79453397e+00   2.38841080e-01
C     5.357091536746310e+00   7.106419466505684e+00   5.344945659352422e+00 -2.01868111e+00  -2.01910040e-01  -1.13916833e+00
C     4.330172196684617e+00   8.416129984868658e-01   4.540755449338129e+00  3.76341626e+00   1.80729420e-01  -4.75390776e+00
C     6.230792381445213e+00   2.674008959804393e+00   4.524877081394930e+00 -9.97993870e-01   5.19007130e-01  -1.94607359e+00
C     4.397504881762687e+00   2.596720786678561e+00   6.279527158254123e+00 -1.74714157e+00   2.11613456e+00  -1.22720817e+00
C     6.163553314293050e+00   8.820216087967440e-01   6.242753653103660e+00  1.57455153e+00   1.13002185e+00  -2.87436440e-01
C     7.025941744150258e+00   3.559459031914989e+00   3.488314455206945e+00  2.62367459e+00  -9.87901890e-01   4.53435379e+00
C     1.788357221744067e+00   5.264066879792775e+00   3.493305207644221e+00 -2.02208781e+00   2.87520358e+00   4.78367830e-01
C     7.103526765004701e+00   5.260413363818774e+00   5.272049567310809e+00  1.50791047e+00   2.20658409e+00   1.55042661e+00
C     1.803339217594884e+00   3.680049725283526e+00   5.334815375192433e+00  6.18115360e-01  -3.80695787e+00  -1.32234226e+00
C     9.277215867364977e-01   4.431252900077625e+00   4.403418307456038e+00 -2.49589424e+00   3.04752110e-01  -6.60837610e-01
C     2.618984295240175e+00   6.162765416729849e+00   4.265245499410740e+00  2.39989150e+00   1.00575929e+00   5.43875379e+00
C     9.309539997544904e-01   6.172744291488031e+00   6.260336834043814e+00 -2.79491732e+00   1.50492257e+00  -8.24327590e-01
C     2.620897456104122e+00   4.601047597232218e+00   6.189383758241153e+00  2.32846075e+00  -4.52251598e+00   9.48322660e-01
C     3.514057110135691e+00   3.598009216215095e+00   3.427988329052731e+00  4.93834219e+00  -1.92673991e+00   3.49697189e+00
C     5.456049451892307e+00   5.302015904791908e+00   3.598110369068977e+00 -5.22451907e+00   1.67766850e-01  -1.07188909e+00
C     3.542328941832634e+00   5.324470274500869e+00   5.300756363387870e+00  7.90069280e-01   2.07329131e+00  -1.58990115e+00
C     5.285145840808992e+00   3.538129001411833e+00   5.441985437738637e+00 -3.49712000e-02  -2.11267350e+00  -3.70596425e+00
C     4.468968555562142e+00   4.438629665651529e+00   4.461213408652174e+00 -9.74036390e-01  -2.71406040e-01   5.95973900e-02
C     6.272619122067781e+00   6.228934666277702e+00   4.398727032863743e+00 -7.55433130e-01  -1.29030160e-01   2.27676703e+00
C     4.428225209631088e+00   6.246791663657178e+00   6.199220109125805e+00  1.55895517e+00  -2.83131241e+00  -8.88828930e-01
C     6.186084099545176e+00   4.387090900455934e+00   6.192617806196348e+00  2.88158366e+00   1.73580004e+00   1.22509006e+00
