64
Lattice="7.10842262195238 0 0 0 7.10842262195238 0 0 0 7.10842262195238 " PBC="1 1 1" Properties=species:S:1:pos:R:3:force:R:3 Energy="-504.18845071"
C     2.109516821979060e-02   7.106058216468135e+00   7.087188482117988e+00 -4.37341970e-01   1.22798907e+00   8.30487910e-01
C     1.828968137761710e+00   1.639758703494694e+00   9.033283947579319e-02 -2.15854006e+00   5.47100792e+00  -4.41009093e+00
C     7.061862309670548e+00   1.757943266890587e+00   1.819660155930404e+00  1.82664455e+00   1.25860107e+00  -2.41691822e+00
C     1.821942670433686e+00   4.817413551687100e-02   1.783696939874395e+00 -1.28884271e+00  -2.80124272e+00   2.78224200e-02
C     8.591287915805815e-01   9.100563745993097e-01   8.844692519574886e-01  8.55358710e-01  -2.11356182e+00   1.95209586e+00
C     2.708067545103598e+00   2.682775279832055e+00   8.344465000540603e-01 -3.40448430e-01  -1.91141714e+00   2.05874734e+00
C     1.001228505533846e+00   2.654091657212736e+00   2.647845628424994e+00 -2.33086220e+00  -4.03103240e-01   3.61385240e-01
C     2.741540325294690e+00   8.366649676695361e-01   2.656576335255330e+00 -1.32239995e+00   2.98854785e+00  -1.18501182e+00
C     3.533304657148092e+00   7.095211545476503e+00   6.967920808367485e+00 -2.78981140e-01   4.36669070e-01   3.68980288e+00
C     5.256999828192424e+00   1.666545301369413e+00   1.756697373657980e-02  1.80712544e+00   4.18455775e+00  -1.37821206e+00
C     3.555046691826302e+00   1.731668901949865e+00   1.735761860610235e+00  9.42699970e-01   1.11019544e+00   2.65412770e-01
C     5.386551754536865e+00   7.084913786879588e+00   1.769428629654626e+00 -1.88676010e+00  -7.88117430e-01   1.11146646e+00
C     4.419531253345697e+00   7.862145019770626e-01   9.136489713914576e-01  4.44472940e-01   1.83375400e+00  -2.86891053e+00
C     6.069562835958136e+00   2.654743357398537e+00   9.216817732889624e-01  2.53619991e+00  -8.27754650e-01   6.97611390e-01
C     4.362032715541266e+00   2.705554149033619e+00   2.624762376566842e+00 -1.06247799e+00  -1.39941690e-01   6.64027580e-01
C     6.244634683897365e+00   8.338913322474384e-01   2.638809685927355e+00 -1.61832607e+00   2.31454238e+00   1.89554120e-01
C     7.064790979789987e+00   3.526457113638246e+00   7.093118186099140e-02  1.40278160e-01  -8.77103970e-01   1.29612151e+00
C     1.707479010858231e+00   5.393589874857152e+00   7.104913333920958e+00 -2.01652170e-01  -1.69771994e+00   1.95707849e+00
C     6.340329122218520e-02   5.315061779573715e+00   1.774572213178232e+00 -6.86770130e-01  -6.25846110e-01   2.96089898e+00
C     1.912055859650521e+00   3.561811564381078e+00   1.807108032183781e+00 -4.61257455e+00  -1.06680463e+00  -1.85155654e+00
C     9.150105186600923e-01   4.410647573260578e+00   9.894694684989374e-01 -3.19754900e-01   5.46607830e-01  -3.06852661e+00
C     2.582672624307334e+00   6.215658336434554e+00   8.301434875052696e-01  2.95542268e+00   1.83869967e+00   8.11224320e-01
C     1.004942727437022e+00   6.209227204321788e+00   2.728133342643787e+00 -1.97451698e+00  -1.10210884e+00  -2.45282970e+00
C     2.675144245981033e+00   4.432627526843880e+00   2.684932686097225e+00  9.95949270e-01   1.23097104e+00  -1.25775801e+00
C     3.507353298931222e+00   3.636040272411261e+00   7.077832660602449e+00  3.27471211e+00  -2.62765296e+00   2.32873790e+00
C     5.346947746583345e+00   5.421015235588506e+00   9.125778742710761e-02  1.18048734e+00  -2.98763423e+00  -2.13362264e+00
C     3.576891585379824e+00   5.346897063530063e+00   1.703260446370166e+00 -1.97042933e+00   5.90641510e-01   2.02106846e+00
C     5.185416164219143e+00   3.603752324102471e+00   1.848713203273284e+00  4.31020448e+00  -1.05141133e+00  -3.95867088e+00
C     4.506549008848427e+00   4.508472974514756e+00   8.742555149159416e-01 -4.01253516e+00  -9.67742270e-01   1.14922179e+00
C     6.282541413781908e+00   6.185267483954590e+00   9.669757181286618e-01 -6.58681260e-01   2.11703839e+00  -2.73557839e+00
C     4.404990690539582e+00   6.207675080242711e+00   2.650896207992367e+00  2.77378622e+00  -4.96933900e-02  -9.53866300e-02
C     6.190767625956815e+00   4.379858578029667e+00   2.650970917514103e+00  7.16687680e-01   1.28414291e+00   1.65735258e+00
C     7.256839375882980e-02   9.754319687616399e-03   3.494342468672931e+00  5.97119620e-01   2.75560920e-01  -2.17518370e-01
C     1.942565564956692e+00   1.809065976110234e+00   3.509682231434212e+00 -4.16641804e+00  -7.60616430e-01   7.74799290e-01
C     7.022744375655783e+00   1.778387872272195e+00   5.250102881145368e+00  3.65608515e+00   1.27112987e+00   5.49696150e-01
C     1.737013085159807e+00   1.737781861066160e-02   5.259357834143930e+00 -2.29367980e-01   8.40792060e-01  -6.82237620e-01
C     9.118120839022232e-01   9.569811337564893e-01   4.294231301075635e+00  1.98318470e-01  -7.71325880e-01   3.73398468e+00
C     2.742149872534355e+00   2.704775208082919e+00   4.438301540863390e+00 -2.12213007e+00  -7.27919520e-01   1.37287447e+00
C     8.264647366309672e-01   2.639453211427144e+00   6.305320922741507e+00  1.09326927e+00  -7.88694030e-01  -1.24965329e+00
C     2.616889727430966e+00   8.935767051866850e-01   6.091922166056667e+00  1.70414599e+00  -1.31006280e-01   3.55238724e+00
C     3.534114946242545e+00   7.081902374720851e+00   3.530904782587354e+00  2.44318249e+00   4.83783950e-01   2.39531240e-01
C     5.207534021201273e+00   1.873878014527251e+00   3.433771386275232e+00  3.60079390e+00  -5.03415703e+00   4.69386735e+00
C     3.593483141364488e+00   1.798310861601948e+00   5.313550315672024e+00 -1.76569221e+00  -2.69950240e-01  -8.24617710e-01
C     5.440142934595532e+00   7.049471120612043e+00   5.293658176896443e+00 -1.12479069e+00   2.20545585e+00  -1.02293299e+00
C     4.434800998144171e+00   8.562612538956735e-01   4.455224207173693e+00  1.04067280e+00   9.54830740e-01  -1.96726557e+00
C     6.133010839158601e+00   2.620996263178540e+00   4.406407896757331e+00 -4.77877800e-01   2.64116665e+00  -5.16366550e-01
C     4.377408162584101e+00   2.712694772808088e+00   6.181546295797246e+00  1.07824101e+00  -9.66214010e-01   1.44159111e+00
C     6.314913099309162e+00   9.234782138534888e-01   6.142515439959577e+00 -4.72117571e+00  -3.63000688e+00   2.81279559e+00
C     7.067608403095424e+00   3.454706543901847e+00   3.552823888073028e+00  1.72948767e+00   1.55519757e+00   7.24493000e-03
C     1.819855495384001e+00   5.190068129234350e+00   3.625143842461289e+00 -1.48434384e+00   4.17608975e+00  -9.35772060e-01
C     1.130950038842000e-04   5.315436891035373e+00   5.361752529458244e+00  3.24003390e-01  -1.14462382e+00  -1.22507261e+00
C     1.742307082906052e+00   3.528524953778404e+00   5.505043188537264e+00  6.98765030e-01   1.27221600e-02  -3.41367746e+00
C     8.506495096583147e-01   4.301986590154055e+00   4.503100286530107e+00  1.14266580e+00   2.67018113e+00   7.70358360e-01
C     2.680708577039516e+00   6.290136336846021e+00   4.389695853009258e+00 -1.87709219e+00  -4.29788722e+00   3.52373858e+00
C     8.278329658168647e-01   6.250679402156509e+00   6.202191927370547e+00  2.33218927e+00  -1.19199349e+00  -7.75183160e-01
C     2.631444151661190e+00   4.512167648255727e+00   6.396089153102776e+00 -1.29983303e+00   2.53444330e-01  -6.54400028e+00
C     3.486816426224006e+00   3.609437640513947e+00   3.530526259082838e+00  3.34119371e+00  -4.58498200e-01   2.73302680e+00
C     5.379008865126330e+00   5.334999767675196e+00   3.551359197592177e+00 -1.19571460e+00   5.58946960e-01  -6.47796200e-02
C     3.533199736830220e+00   5.412009574971228e+00   5.412866779654974e+00 -2.92354320e-01  -1.64895210e-01  -1.09749389e+00
C     5.253718367058354e+00   3.647964509187859e+00   5.346601139896393e+00  1.72155821e+00  -2.52321274e+00   1.16589539e+00
C     4.388157803606969e+00   4.591273018540136e+00   4.557443253365067e+00  2.01142225e+00  -3.26487764e+00  -3.67016076e+00
C     6.401338012365384e+00   6.207688444077236e+00   4.305915486420355e+00 -5.32196927e+00  -9.66638410e-01   4.84520876e+00
C     4.484611919053523e+00   6.248208372285345e+00   6.220334256833991e+00  8.21955060e-01  -2.30420530e-01  -9.92008900e-02
C     6.216082496012290e+00   4.407968266606647e+00   6.359633536611881e+00 -1.03014999e+00   3.00898081e+00  -4.12729922e+00
