64
Lattice="7.10842262195238 0 0 0 7.10842262195238 0 0 0 7.10842262195238 " PBC="1 1 1" Properties=species:S:1:pos:R:3:force:R:3 Energy="-510.52595993"
C     7.074650646300833e+00   7.069974654817170e+00   7.085521628097824e+00  1.06195503e+00   1.68965029e+00   4.70067410e-01
C     1.749297505710560e+00   1.813640885824240e+00   7.086863200698897e+00 -1.09381579e+00  -8.22925510e-01  -2.83789190e-01
C     7.045879518999061e+00   1.726809442078380e+00   1.814013651506433e+00  3.25897336e+00   4.13050470e-01  -7.44971790e-01
C     1.809492552551661e+00   1.434998599567260e-02   1.751629281582599e+00 -1.03786902e+00  -1.06703110e-01  -1.03832970e+00
C     8.475454036686130e-01   9.276358591597005e-01   8.162667802876366e-01  7.57245400e-01  -2.13331639e+00   2.79722926e+00
C     2.636514944937167e+00   2.602810003663306e+00   8.281775110612561e-01  5.00615150e-01   1.88468126e+00   2.53857257e+00
C     8.508140696419676e-01   2.614016360839509e+00   2.725815001690500e+00  6.87319450e-01   8.30740110e-01  -6.72214550e-01
C     2.695838712417734e+00   8.724035575707529e-01   2.623889320100654e+00 -7.96570190e-01   3.06792570e-01   1.68648059e+00
C     3.619422699599808e+00   2.518720278521980e-02   7.057310146908926e+00 -2.66564170e+00   5.41060890e-01   1.42675440e+00
C     5.348753570265729e+00   1.754477342189528e+00   4.560763952992000e-02 -4.87793820e-01   1.39448077e+00  -2.54914710e-01
C     3.524110765499836e+00   1.716950912915155e+00   1.692306580365424e+00  6.43864210e-01   1.93884689e+00   3.16486724e+00
C     5.307557773234912e+00   7.082090819004507e+00   1.785041498012968e+00  5.40948100e-01  -1.70938000e-02  -1.76535620e-01
C     4.424493572092492e+00   8.689261172250490e-01   9.119331403394419e-01  1.50877821e+00  -4.40287140e-01  -1.95249289e+00
C     6.256675996394515e+00   2.612740541147672e+00   9.822496568964820e-01 -2.29079745e+00   1.70670565e+00  -2.44736323e+00
C     4.453244795810928e+00   2.627938988467268e+00   2.698072249889164e+00 -1.89198708e+00   2.71933677e+00  -2.89368830e+00
C     6.180599311735810e+00   8.828838604605499e-01   2.650762711815564e+00  1.41690802e+00  -1.26110760e+00   8.88888030e-01
C     7.065992729718125e+00   3.538853420761038e+00   7.239836028975941e-02  7.70748290e-01   4.32383570e-01  -3.05699150e-01
C     1.804556250631654e+00   5.301586129560302e+00   7.076373585775468e+00 -4.29586020e-01   1.59094464e+00   1.60228309e+00
C     7.089044349095619e+00   5.332319394757873e+00   1.750462505093752e+00  1.77109905e+00   2.32484740e-01   1.44429524e+00
C     1.729671435193645e+00   3.498144550679691e+00   1.830886203437265e+00  7.38552910e-01   1.16778834e+00  -1.45997838e+00
C     8.651640556376402e-01   4.461145594300379e+00   9.191441374978486e-01  7.95894500e-01  -1.73803330e+00  -9.62189120e-01
C     2.672717572667017e+00   6.268620705428257e+00   8.355810043042124e-01  4.25072960e-01  -1.84081410e+00  -1.15182800e-02
C     9.506765315663590e-01   6.201340764846029e+00   2.604080989627762e+00 -2.13197562e+00   1.24427758e+00   1.73847326e+00
C     2.609720172376434e+00   4.470273093281365e+00   2.671736254924326e+00  1.31363543e+00  -1.77752253e+00  -2.15200530e-01
C     3.533078253887644e+00   3.456817034577725e+00   7.053025403006268e+00  1.07803179e+00   2.49294948e+00   1.62151922e+00
C     5.306191178986217e+00   5.297794710187473e+00   1.979127025860400e-02  5.69118580e-01   1.68155921e+00  -8.69100380e-01
C     3.495610398015661e+00   5.307394777104235e+00   1.733638788026319e+00  1.65167874e+00   3.10587780e-01   3.60677970e-01
C     5.386814766173805e+00   3.536555409896444e+00   1.798160020873952e+00 -2.23233221e+00  -2.76486500e-01  -6.46832700e-02
C     4.446853328696381e+00   4.371974484333373e+00   8.343171978466026e-01 -1.12913972e+00   7.24217370e-01   2.24726596e+00
C     6.227802152385884e+00   6.201386827424606e+00   8.913981869063335e-01 -1.48560340e+00   1.49695010e-01   2.18402900e-02
C     4.453458190657980e+00   6.175213615337767e+00   2.650494582114337e+00 -3.92053000e-01  -2.47335810e-01  -2.15002230e-01
C     6.268227183152015e+00   4.427735581481022e+00   2.685241262723160e+00 -1.77221400e+00   9.19461860e-01  -1.53137661e+00
C     4.066422918729340e-02   7.081650594391650e+00   3.561356554249172e+00 -6.75635490e-01   6.47792170e-01  -1.07532731e+00
C     1.756174407005826e+00   1.756541557034150e+00   3.620678971129441e+00  1.79684083e+00   1.74658166e+00  -2.13414876e+00
C     7.073107763171161e+00   1.807841194892808e+00   5.340649541973572e+00  1.19188907e+00  -4.16610570e-01   2.83870780e-01
C     1.850114273371686e+00   1.415748991112300e-02   5.339260698362076e+00 -2.70403916e+00   6.41391150e-01  -7.61222400e-02
C     9.180609560590129e-01   9.027801932054775e-01   4.449050897549354e+00 -1.12861756e+00  -1.37836290e+00   1.35240620e+00
C     2.658691162069007e+00   2.760083143288544e+00   4.517643479452592e+00 -9.72701790e-01  -2.61777598e+00  -2.51180694e+00
C     8.420961579723472e-01   2.723280138184208e+00   6.278642230722160e+00 -1.05943340e-01  -9.02656330e-01  -1.81308308e+00
C     2.659947931188223e+00   9.963061361221748e-01   6.218166756608700e+00  1.69438143e+00  -3.13966922e+00  -1.34027731e+00
C     3.616404463355356e+00   7.097166006275872e+00   3.532009857967858e+00 -1.32528698e+00   7.82209800e-02   2.97815160e-01
C     5.387686614208148e+00   1.861995433107207e+00   3.482589331628797e+00 -2.13747575e+00  -4.11306975e+00   3.08069146e+00
C     3.588575983977223e+00   1.829557070575777e+00   5.278655424451576e+00 -6.23074330e-01   1.26515390e-01   1.68401752e+00
C     5.326745182991947e+00   9.135460414319199e-02   5.322621089440501e+00  1.73209836e+00  -3.08343174e+00   3.03110940e-01
C     4.486211740648381e+00   9.043692099979523e-01   4.452484194590588e+00 -1.41319550e+00   1.30069952e+00  -2.20352063e+00
C     6.195987838276264e+00   2.664653778046889e+00   4.415503123499621e+00  1.51917372e+00   2.19026931e+00   1.62020839e+00
C     4.468386233581111e+00   2.710962379131367e+00   6.184431249117574e+00  1.56323340e-01  -2.81624112e+00   1.08219291e+00
C     6.215656843665805e+00   9.214581423133371e-01   6.261367128818357e+00 -1.49323300e-01  -9.75136290e-01  -1.75274345e+00
C     7.100224689445032e+00   3.609536589756817e+00   3.572068947137511e+00  6.98476240e-01  -2.78467224e+00   1.94624620e-01
C     1.768570429791714e+00   5.343686046864157e+00   3.581881413722160e+00 -1.68245120e-01   2.27910800e-01  -1.26531634e+00
C     2.201009329521080e-02   5.250670417607350e+00   5.424189857130597e+00 -1.40362494e+00   3.90194923e+00  -3.29349386e+00
C     1.696981789922598e+00   3.590543026684630e+00   5.391115788364262e+00  2.73483074e+00  -1.38083960e-01  -1.63076019e+00
C     8.532032104845495e-01   4.470558354281104e+00   4.435191321630236e+00  1.07616439e+00  -6.70124230e-01   2.06077300e+00
C     2.667517263930903e+00   6.223682963646047e+00   4.430184788494743e+00  1.45530046e+00   2.39754560e-01   7.20789480e-01
C     8.688822582574836e-01   6.238525989834643e+00   6.214964696555295e+00  1.90995468e+00  -1.74504657e+00  -7.24003800e-02
C     2.724660238435881e+00   4.401853530384697e+00   6.219761175802367e+00 -2.64016545e+00   1.94781274e+00  -2.77132690e-01
C     3.521645138029863e+00   3.598249694152329e+00   3.561520758811693e+00  5.82699450e-01  -1.31974721e+00  -5.69695700e-02
C     5.348491198386824e+00   5.277693939207993e+00   3.532592179948889e+00 -9.47210300e-02   1.58767703e+00   2.77120460e-01
C     3.591713641721691e+00   5.340668237125063e+00   5.324809204091390e+00 -3.15711020e-01  -2.26493180e-01  -3.09782480e-01
C     5.342525739039894e+00   3.598409136071695e+00   5.357101275285300e+00 -4.22191290e-01  -1.55597067e+00  -1.43008574e+00
C     4.460114517599348e+00   4.420014697168083e+00   4.422992415403601e+00 -1.12834230e-01   1.74156348e+00   6.70147350e-01
C     6.231397663631307e+00   6.205044181946823e+00   4.395274258744530e+00 -2.42064400e-02   1.62440030e-01   2.44296036e+00
C     4.481084719749480e+00   6.269637565284048e+00   6.209275470511378e+00 -6.44577470e-01  -1.34965479e+00  -6.47357280e-01
C     6.192364319845719e+00   4.446599913429978e+00   6.267722556230221e+00  8.90317160e-01  -9.93720840e-01  -8.20711600e-02
