64
Lattice="7.10842262195238 0 0 0 7.10842262195238 0 0 0 7.10842262195238 " PBC="1 1 1" Properties=species:S:1:pos:R:3:force:R:3 Energy="-503.59304232"
C     7.653702610757580e-02   7.075926750329574e+00   4.514417037509600e-03 -8.43635140e-01   5.97134670e-01   1.43737790e+00
C     1.793231253881922e+00   1.774498996425246e+00   7.085363963284112e+00  1.62761770e-01   1.88547026e+00   2.80305327e+00
C     7.008188458656808e+00   1.831649079352843e+00   1.797008527493738e+00  2.81280215e+00  -2.91065544e+00  -6.98975910e-01
C     1.792780508803588e+00   7.040967101379057e+00   1.852311060298171e+00 -2.03138260e+00   1.18974277e+00  -4.20718242e+00
C     9.877795831894848e-01   9.187251670686257e-01   9.430555205912308e-01 -4.62848885e+00  -1.16759734e+00  -1.19520551e+00
C     2.706654319602516e+00   2.676634384614863e+00   8.774860797440530e-01 -1.84480279e+00   7.20402770e-01   7.89622480e-01
C     8.542106161382560e-01   2.615775340016828e+00   2.674431200108021e+00 -3.32945720e-01   2.41780625e+00   9.93004440e-01
C     2.645221269877917e+00   8.880518969579686e-01   2.548661665439682e+00  2.00699843e+00  -1.99965761e+00   3.81333205e+00
C     3.567437098958319e+00   6.967266406981087e+00   7.105089480633482e+00 -2.39174943e+00   5.85047189e+00   5.14886130e-01
C     5.325329256290269e+00   1.694322529020456e+00   7.046637632271484e+00 -1.17579148e+00   1.91940302e+00   2.92537456e+00
C     3.538038155770749e+00   1.695113980794967e+00   1.744039476582772e+00  2.06504205e+00   2.81569905e+00  -1.27760233e+00
C     5.386845972149106e+00   6.998366964375433e+00   1.791749361018331e+00  2.28524760e-01   3.45479461e+00  -3.35903841e+00
C     4.444912231731537e+00   8.069219057429321e-01   8.158368628875790e-01  1.60698780e-01  -7.03441180e-01   2.63131475e+00
C     6.172229073016533e+00   2.629685172483871e+00   8.862338467886774e-01  4.69709430e-01   1.86988604e+00  -1.38583128e+00
C     4.428316410693302e+00   2.626752592731989e+00   2.728183385939031e+00 -4.04830990e-01   1.81707774e+00  -2.97689952e+00
C     6.114103145831662e+00   8.900534865993081e-01   2.602179984166495e+00  4.11314281e+00   9.96330940e-01   3.23804001e+00
C     7.093495927677167e+00   3.572721358165575e+00   6.122171632010720e-02 -2.28234040e-01  -3.45249490e-01  -2.75903725e+00
C     1.758849946195768e+00   5.263560831186457e+00   3.919939653799000e-02 -7.91563600e-02   3.75467979e+00  -7.87923900e-02
C     7.014024971217412e+00   5.190201838663832e+00   1.892058089714806e+00  2.01572058e+00   3.97039965e+00  -3.10947836e+00
C     1.748857067845025e+00   3.535598189706435e+00   1.861170358493704e+00  1.36746492e+00  -3.66422390e-01  -3.00633218e+00
C     8.456067235674604e-01   4.430635320320399e+00   8.997412003669752e-01  3.02049910e-01  -1.30392999e+00   3.19864627e+00
C     2.623067586445782e+00   6.194998274763335e+00   8.891041567584073e-01  2.24159536e+00  -1.38942442e+00   2.32661721e+00
C     8.379722776735804e-01   6.141272745517148e+00   2.700700162647552e+00 -3.20482030e-01   3.00275621e+00  -1.54682789e+00
C     2.710765333656341e+00   4.416399282339325e+00   2.726880483157012e+00 -1.38089033e+00   2.32338843e+00  -2.36445163e+00
C     3.486284716212030e+00   3.671659369728235e+00   7.079465749615168e+00  1.70305576e+00  -2.43581067e+00   1.86461819e+00
C     5.324937297867002e+00   5.397955868030357e+00   7.010965790458669e+00  5.47320520e-01  -6.85750680e-01   9.00340920e-01
C     3.637774940783220e+00   5.379999210565749e+00   1.866073392995848e+00 -2.51471147e+00  -2.89200111e+00  -3.92423537e+00
C     5.321057876222137e+00   3.588043207701854e+00   1.688244614427678e+00 -2.08165542e+00  -1.72839032e+00   3.18233303e+00
C     4.436408994425041e+00   4.558105474016346e+00   8.570217129475612e-01  2.17630480e-01  -2.75343488e+00  -6.45545950e-01
C     6.256984999525805e+00   6.158231735867039e+00   8.791272012743323e-01  1.80591260e-01   6.42935480e-01   1.02185200e-01
C     4.626252073484405e+00   6.145059757667953e+00   2.613485574922474e+00 -6.07035241e+00   1.14812188e+00   3.92113952e+00
C     6.087523545223638e+00   4.379583126653142e+00   2.791858361073754e+00  5.37655533e+00  -1.66762716e+00  -5.03737097e+00
C     3.866825519982360e-02   1.178539506598376e-01   3.565409563574417e+00 -2.43037760e+00  -3.82783019e+00  -1.15388541e+00
C     1.862764777687369e+00   1.762003526806905e+00   3.487951356979515e+00 -2.36986914e+00   1.33804408e+00   1.37215031e+00
C     1.083132390719522e-01   1.808625893665830e+00   5.409732320700685e+00 -3.00174681e+00   3.76453670e-01  -1.60343777e+00
C     1.842669906698665e+00   2.098306839507320e-02   5.230854907627611e+00 -2.79629024e+00   1.09485420e-01   3.70383139e+00
C     9.419166091190544e-01   9.346550710758195e-01   4.399744958982927e+00  5.29347420e-01   6.16327880e-01   1.72346033e+00
C     2.750654673693828e+00   2.683121033508292e+00   4.430105742835209e+00 -2.72617285e+00  -2.34984850e-01  -4.19110000e-04
C     9.513239666985885e-01   2.819836117326906e+00   6.257122334250824e+00 -1.12597522e+00  -4.64767758e+00  -9.60450140e-01
C     2.616775423995236e+00   8.496875268251500e-01   6.319688040035695e+00  1.90340061e+00   2.44021960e-01  -5.18477032e+00
C     3.570601128950708e+00   7.078948896206468e+00   3.445712185676534e+00 -2.07754740e-01   3.82793760e-01   1.65106334e+00
C     5.330489047017449e+00   1.819458489980674e+00   3.591954901585414e+00 -2.48823006e+00  -3.08496461e+00  -9.59425950e-01
C     3.518297710733879e+00   1.773650677269775e+00   5.323240801724514e+00 -4.08441060e-01  -1.55201037e+00   1.82484251e+00
C     5.324122175045167e+00   5.543553139165340e-02   5.240671852518510e+00  6.64844000e-01  -1.33778922e+00   3.46457983e+00
C     4.305705290363482e+00   7.759916661545619e-01   4.483439882331937e+00  3.56651166e+00   4.91103579e+00  -3.01532314e+00
C     6.111335339316113e+00   2.604501239573056e+00   4.554592633725995e+00  3.87555954e+00   2.19569911e+00  -6.45027580e-01
C     4.310236056773017e+00   2.623829467182194e+00   6.277251894341914e+00  3.42627761e+00   1.80449779e+00  -1.36180162e+00
C     6.265060096537900e+00   8.688299402670003e-01   6.259050778223403e+00  8.21106630e-01   3.83538290e-01  -2.40852806e+00
C     7.072442130477024e+00   3.591574672059470e+00   3.597115403154856e+00  6.10820400e-02  -3.46743552e+00   8.69908800e-01
C     1.746807425266774e+00   5.353805526221763e+00   3.490357486952159e+00  1.70994772e+00  -1.97400568e+00   2.18386883e+00
C     1.104444152576544e-01   5.334881199185895e+00   5.361880481065404e+00 -2.65110465e+00   3.34279030e-01  -2.38760778e+00
C     1.827391347456142e+00   3.597238805371539e+00   5.290297456850158e+00  2.52305760e-01   6.51319960e-01   5.43161640e-01
C     9.725512804948849e-01   4.439652425498095e+00   4.366754911771959e+00 -2.93604574e+00   5.21941760e-01   2.57961023e+00
C     2.591478751501668e+00   6.256528496625149e+00   4.334846126725719e+00  3.51008140e+00  -6.06645510e-01  -1.51043000e-03
C     9.487751706839613e-01   6.216498338735560e+00   6.240769123676610e+00 -4.91143280e-01  -1.95959790e-01  -1.05364198e+00
C     2.665447717769317e+00   4.594789981715606e+00   6.203452606122204e+00  3.17814930e-01  -3.77537705e+00  -1.35045346e+00
C     3.574313147242872e+00   3.624047439356380e+00   3.582687864268399e+00  9.05535020e-01  -2.93321306e+00   6.36873380e-01
C     5.351606677852718e+00   5.252391722144782e+00   3.579914797520110e+00 -3.25749930e-01   4.01521400e+00   2.41858292e+00
C     3.545279363725292e+00   5.476864477176643e+00   5.250110700410251e+00 -5.98571000e-01  -2.63377725e+00   1.15464430e+00
C     5.219439349573701e+00   3.530226781237858e+00   5.436204584127148e+00  2.49796385e+00   2.50188940e-01  -2.61211933e+00
C     4.457603325140381e+00   4.477536906019837e+00   4.492583872853401e+00 -1.85108772e+00  -1.40957380e-01  -3.19870890e-01
C     6.252561001624023e+00   6.276404214944479e+00   4.462916373459247e+00  8.56356860e-01  -1.19564480e+00  -9.76067840e-01
C     4.406128606832592e+00   6.341209002770424e+00   6.127098764065547e+00  2.37790035e+00  -3.98446901e+00   5.40392390e-01
C     6.226641773477395e+00   4.462146886710633e+00   6.125330970444178e+00 -5.18197570e-01  -5.37245170e-01   4.24567203e+00
