64
Lattice="7.10842262195238 0 0 0 7.10842262195238 0 0 0 7.10842262195238 " PBC="1 1 1" Properties=species:S:1:pos:R:3:force:R:3 Energy="-508.66169791"
C     4.576452241714340e-02   2.009160111429900e-02   7.381030627477000e-02 -2.54047625e+00   2.51253450e-01  -2.41190654e+00
C     1.795382404735187e+00   1.822525490004300e+00   7.056618355219547e+00 -9.40413160e-01  -1.53643728e+00   2.64569080e-01
C     4.545274700103020e-02   1.800573046016537e+00   1.724662627362914e+00 -3.30185634e+00   5.91347070e-01   3.20926073e+00
C     1.687550548043061e+00   9.306375327794479e-02   1.754026810363872e+00  4.26371681e+00  -1.46725729e+00   7.47372230e-01
C     8.942833534793392e-01   9.959398391045662e-01   8.577307070196799e-01  5.72452080e-01  -2.60124512e+00   2.81778220e-01
C     2.604908552189182e+00   2.638335269801696e+00   8.701660393826556e-01  2.66375324e+00   1.65517931e+00   4.56416650e-01
C     8.054806019725009e-01   2.743515898109241e+00   2.701951031775993e+00  3.05241577e+00  -2.96374315e+00  -8.62961290e-01
C     2.676573536517236e+00   9.233990971097281e-01   2.679676078653961e+00 -1.86962807e+00  -2.03364700e-02  -2.08102410e-01
C     3.583500285889638e+00   7.015101470738985e+00   2.801187668172920e-02 -4.74435830e-01   2.99912159e+00  -1.67951364e+00
C     5.277970456847912e+00   1.776406186214192e+00   4.004018076548360e-02  7.10947590e-01  -1.18519253e+00  -1.51401819e+00
C     3.601538690214377e+00   1.797248223504484e+00   1.742324711794150e+00 -3.49904616e+00  -9.09170910e-01   1.39787008e+00
C     5.302624101431275e+00   8.711300836583800e-03   1.762764270195698e+00  2.15333027e+00  -7.11869630e-01   2.66110395e+00
C     4.418689971528620e+00   8.695323235060827e-01   9.504401054300178e-01  9.33761500e-01  -7.40398170e-01  -2.77644238e+00
C     6.183907713791610e+00   2.618951312159219e+00   8.871255273221301e-01  1.04674093e+00   2.25368371e+00  -1.38181400e-01
C     4.425626725742347e+00   2.723957215438763e+00   2.541135196485400e+00  1.51571718e+00  -1.45789996e+00   4.52393165e+00
C     6.242384228380100e+00   8.524840513680841e-01   2.687972816283346e+00  2.82462330e-01   2.19398936e+00  -6.02399120e-01
C     4.538294229090180e-02   3.524595488838294e+00   7.096119575381983e+00 -2.54021993e+00   1.66156050e-01   1.76858850e-01
C     1.709585378648989e+00   5.267499750328652e+00   7.102039185403013e+00  4.11458564e+00   2.32011060e+00   2.92203580e-01
C     6.546146390758000e-04   5.299268783786182e+00   1.751576750339437e+00 -2.47564100e-02   6.42496140e-01   1.48257290e+00
C     1.778672777850805e+00   3.523473779748858e+00   1.765949412203267e+00 -3.82299900e-01   1.70662499e+00   1.51533922e+00
C     9.293199155626047e-01   4.442028771179960e+00   8.795846993541555e-01 -1.88722514e+00  -2.13467383e+00   8.72575850e-01
C     2.677061956235456e+00   6.195790010874750e+00   8.458266581633231e-01 -1.82702140e+00   2.99098400e-02   2.05485910e+00
C     8.953060422416785e-01   6.291223072496167e+00   2.686180072098583e+00  2.05554500e-01  -1.80215279e+00  -1.40746095e+00
C     2.701334376113708e+00   4.433189945241574e+00   2.634564962444048e+00 -3.10249400e-01   1.05500390e-01   7.81889110e-01
C     3.532534530641441e+00   3.561796423440897e+00   1.427051383078100e-02  2.11890860e-01   3.69417690e-01  -1.85041999e+00
C     5.389524639045001e+00   5.394931589626678e+00   7.059485182062192e+00 -9.42276210e-01  -4.38155479e+00  -6.34410770e-01
C     3.578417621547886e+00   5.338880397751906e+00   1.768890308809614e+00 -6.55189000e-02   4.25159820e-01  -1.94151300e-02
C     5.298557515018825e+00   3.575425402130223e+00   1.755346702275954e+00  2.08256543e+00   2.03466190e-01  -1.69979046e+00
C     4.480044188846364e+00   4.485755593168855e+00   7.922232516177486e-01 -8.11682790e-01  -5.22985500e-01   2.95581862e+00
C     6.219184042969848e+00   6.181609987263921e+00   8.540754850242498e-01  8.07368220e-01   2.75294543e+00   2.21718345e+00
C     4.490877282750792e+00   6.287572542059666e+00   2.745972071377129e+00 -1.49202631e+00  -3.11740648e+00  -2.59715485e+00
C     6.209631318147736e+00   4.397649893584134e+00   2.648531662292050e+00 -6.99130050e-01   1.56915362e+00   1.39124306e+00
C     1.755346773360180e-02   7.096964340326143e+00   3.570297457136381e+00 -1.09934980e+00   5.58979330e-01  -1.16290290e-01
C     1.711682931995699e+00   1.825252209837105e+00   3.640613547188064e+00  1.48999466e+00  -1.50944098e+00  -2.61366518e+00
C     7.099003107017785e+00   1.737731817770915e+00   5.308111945862366e+00 -1.20071213e+00   1.34957781e+00   2.48801888e+00
C     1.764132641550048e+00   7.078081526478375e+00   5.349524549783094e+00  1.09666587e+00   3.97062980e-01   1.30996765e+00
C     8.274530206278258e-01   8.653489457099864e-01   4.518792484884888e+00  2.82354578e+00  -3.97091640e-01  -2.51423283e+00
C     2.680125615300450e+00   2.655442115342083e+00   4.431868702729195e+00 -8.60905040e-01   9.33647510e-01   4.21715530e-01
C     8.373837002806443e-01   2.646910586513560e+00   6.164485086330079e+00  2.98587239e+00   7.82623830e-01   7.86309120e-01
C     2.710118182861016e+00   9.190309003255120e-01   6.244739888552141e+00 -1.25555276e+00  -2.27430918e+00  -1.21541225e+00
C     3.544306291752840e+00   2.894549690864000e-03   3.561719723560827e+00  6.02687240e-01   1.27269053e+00  -9.26415860e-01
C     5.401436009576656e+00   1.847761456568692e+00   3.681314811257208e+00 -2.77422538e+00  -3.67070821e+00  -6.74718964e+00
C     3.548947096544533e+00   1.805013464374572e+00   5.324695966919053e+00 -6.05361870e-01  -2.11488605e+00  -2.17048680e-01
C     5.266949984923222e+00   7.097003792071684e+00   5.320675372000955e+00  2.74008621e+00   1.02881019e+00  -3.75579490e-01
C     4.409206553827052e+00   9.098632387567241e-01   4.402888658886622e+00  1.15786769e+00   5.16022170e-01   2.61486114e+00
C     6.243421560493037e+00   2.682118461581967e+00   4.477844700719284e+00  2.06128640e-01  -8.41496540e-01   6.75794510e-01
C     4.379287558440603e+00   2.623923511613456e+00   6.210178666689475e+00  2.51518573e+00   1.47205224e+00   1.53355116e+00
C     6.199167435714190e+00   9.217990622621924e-01   6.219139259907342e+00 -8.35971130e-01  -1.93891802e+00   9.25007360e-01
C     7.081113197641579e+00   3.544446683099585e+00   3.621814186221855e+00 -1.98689890e-01   2.04512294e+00  -3.31312902e+00
C     1.815245541146479e+00   5.386808297509220e+00   3.573028157685854e+00 -8.83813520e-01  -2.13791413e+00  -2.96061334e+00
C     2.987869063019360e-02   5.315102226498423e+00   5.353142665812448e+00 -1.54259832e+00   9.81266140e-01  -4.20866620e-01
C     1.782746259433196e+00   3.564821910276422e+00   5.310874705397857e+00 -3.21096200e-01   1.62359610e-01  -8.56921850e-01
C     8.548623163240576e-01   4.486400753605847e+00   4.374610571777774e+00  2.43042097e+00  -3.43448050e-01   3.09658749e+00
C     2.748686280386124e+00   6.163272744852239e+00   4.410572010728127e+00 -3.51186858e+00   3.12780064e+00   1.40224548e+00
C     8.597046448970278e-01   6.192621857997242e+00   6.331892775168878e+00  1.23625118e+00   6.31942500e-01  -3.76243504e+00
C     2.670019641945822e+00   4.451143261747551e+00   6.202443636615523e+00 -1.78514945e+00  -6.19198380e-01   1.09219440e-01
C     3.633028362662940e+00   3.501562351359613e+00   3.536600690548533e+00 -3.71691679e+00   1.53237631e+00  -8.01689940e-01
C     5.319592190562119e+00   5.295312946598152e+00   3.640289545285045e+00  1.05483172e+00   1.29117642e+00  -2.74359692e+00
C     3.537571558909973e+00   5.321736943835027e+00   5.287342130145894e+00  1.55617197e+00  -2.13425229e+00   2.22918978e+00
C     5.373525356833036e+00   3.469381455895480e+00   5.358799335280765e+00 -2.62053647e+00   2.77799089e+00   9.43959210e-01
C     4.399444628127231e+00   4.381668666765623e+00   4.467124062060703e+00  2.97728778e+00   3.02510100e-01  -4.67877110e-01
C     6.253522273614925e+00   6.244027695689844e+00   4.439844423993061e+00 -1.53996919e+00  -1.93381946e+00   1.60620789e+00
C     4.493761454144630e+00   6.139324966635042e+00   6.168050102442463e+00 -2.01452453e+00   3.06827195e+00   6.01622960e-01
C     6.232073319201337e+00   4.396223659669658e+00   6.207110813655135e+00  8.54555000e-01   9.54753740e-01   3.92819870e-01
