64
Lattice="7.10842262195238 0 0 0 7.10842262195238 0 0 0 7.10842262195238 " PBC="1 1 1" Properties=species:S:1:pos:R:3:force:R:3 Energy="-513.88229776"
C     7.108043954327033e+00   7.104259430124144e+00   7.105113649270390e+00  2.38109750e-01  -3.27897000e-03   7.46657980e-01
C     1.802993677171326e+00   1.758013924611430e+00   6.399215295202600e-03 -5.41084900e-01   1.25791286e+00   1.23972860e-01
C     4.988548826263600e-03   1.783584200291642e+00   1.792782641330374e+00 -4.61962620e-01  -3.23453820e-01  -1.00719392e+00
C     1.775713825851004e+00   7.096812717671659e+00   1.792211621741310e+00 -6.52700420e-01   6.60249130e-01   1.01451800e-02
C     8.911550788527295e-01   8.872301633030966e-01   9.048337454161695e-01  2.36720970e-01  -6.41392000e-03  -5.94271680e-01
C     2.668292437417615e+00   2.706312973148304e+00   8.963580887894386e-01 -1.34228920e-01  -1.91156602e+00   1.01201480e-01
C     8.509939127342535e-01   2.668522465973598e+00   2.656352917532384e+00  1.51848670e+00   5.14313490e-01   8.23501200e-01
C     2.632296806954459e+00   8.860149784562076e-01   2.682949649438924e+00  1.12990034e+00   4.78299190e-01  -6.48087390e-01
C     3.537192822152779e+00   1.066441103565500e-02   1.236723367427600e-02  3.74764550e-01  -7.98105700e-01  -2.35427500e-02
C     5.318212019226221e+00   1.770433191939285e+00   4.599931361628200e-03  2.25383910e-01   3.92640790e-01  -1.11000470e-01
C     3.550694560077207e+00   1.771716191137968e+00   1.792081182186233e+00  1.62178300e-01   8.46613400e-01  -7.10549230e-01
C     5.309791737211699e+00   3.472130354006860e-02   1.779849150710189e+00  8.30440820e-01  -9.37098750e-01  -3.44284470e-01
C     4.435703981069590e+00   8.956897548947061e-01   8.583329325840464e-01 -3.49261120e-01   1.42043090e-01   1.81377831e+00
C     6.222737401269134e+00   2.678905525641953e+00   8.440833885999943e-01  5.29410900e-01  -9.85470770e-01   1.53989036e+00
C     4.483770423983768e+00   2.684270181109041e+00   2.658747034270800e+00 -1.00359426e+00  -1.38559117e+00  -6.40865900e-02
C     6.237586540701183e+00   8.913290219542409e-01   2.686297361071813e+00 -1.28489220e+00   6.90682640e-01  -5.18018770e-01
C     2.939659740810520e-02   3.544304585731410e+00   7.077746861941425e+00 -7.46903870e-01   1.93351210e-01   7.29601030e-01
C     1.799562015067294e+00   5.318393639424161e+00   7.104608240422108e+00 -6.05071370e-01   2.75137630e-01   1.02336911e+00
C     7.068772549467901e+00   5.345256155252462e+00   1.769101428961428e+00  9.69126400e-01  -3.11391120e-01  -4.06333410e-01
C     1.762482563407267e+00   3.556892109422680e+00   1.774593680614544e+00  1.50823800e-02   2.35807350e-01  -1.70803270e-01
C     8.677563551987018e-01   4.433403837678211e+00   8.750034631440180e-01  5.85533470e-01   5.88541840e-01   2.57047430e-01
C     2.678005172832904e+00   6.218023664061359e+00   9.678050577957371e-01 -6.24832320e-01   8.35278700e-02  -3.25706497e+00
C     8.666570376405187e-01   6.228146839798727e+00   2.628681676462605e+00 -2.08222150e-01  -4.83922980e-01   1.72432554e+00
C     2.688928970209963e+00   4.449136269705020e+00   2.644710600796896e+00 -1.10015737e+00  -1.02540389e+00   6.52853470e-01
C     3.541358713229231e+00   3.561604496030157e+00   7.104987688021564e+00  5.46421980e-01  -5.67334860e-01   2.72323700e-02
C     5.302805508376537e+00   5.342754772416711e+00   7.069361055776612e+00  9.85539330e-01  -5.15059570e-01   1.44516794e+00
C     3.539885492641235e+00   5.331070871408896e+00   1.783940616601808e+00  1.87780307e+00  -2.13562990e-01  -7.01926600e-02
C     5.362334211681239e+00   3.544508099871021e+00   1.761966278672376e+00 -5.63516140e-01   6.87199750e-01  -2.61982340e-01
C     4.464417814485044e+00   4.419611294184397e+00   8.633552464177550e-01 -1.01125285e+00   1.34682049e+00   5.33136250e-01
C     6.204964923034610e+00   6.241606282608567e+00   8.891977746843126e-01 -3.76088950e-01  -5.09385780e-01  -5.25287320e-01
C     4.448535607993630e+00   6.233908500669142e+00   2.660888659837754e+00 -4.50489130e-01  -2.13978180e-01   6.54906600e-02
C     6.216094011656934e+00   4.451798231807758e+00   2.670105298438394e+00  4.86764970e-01  -3.79666770e-01  -3.98666420e-01
C     7.051153755330422e+00   9.276775856004799e-03   3.585628263285162e+00  2.42009163e+00  -3.99341470e-01  -4.34686400e-01
C     1.768489962447655e+00   1.786405746482198e+00   3.537381195352209e+00 -4.66221890e-01  -5.57736900e-01   1.28400685e+00
C     2.726755374918900e-02   1.769275016641808e+00   5.376675951906672e+00 -7.62247690e-01   2.19187680e-01  -5.56025370e-01
C     1.796999997386594e+00   7.088669024381281e+00   5.371413870977992e+00 -3.69715140e-01  -3.00451140e-01  -2.14755625e+00
C     8.992544866701838e-01   8.827571883694616e-01   4.479383389879609e+00 -6.78896700e-01  -1.44722120e-01  -6.63260320e-01
C     2.669373770666569e+00   2.644549452856100e+00   4.452976595025476e+00 -2.05892780e-01   1.34185964e+00  -1.50656387e+00
C     9.341884031308165e-01   2.673159574385529e+00   6.219415990799939e+00 -8.46203040e-01  -2.17238540e-01  -4.63309720e-01
C     2.659221805817590e+00   8.734669065104788e-01   6.218379440613490e+00  4.11653810e-01   1.30352180e-01   7.81287600e-01
C     3.548307693929864e+00   2.792586476802720e-02   3.546561296660582e+00  1.79390920e-01  -1.25301135e+00   3.93219570e-01
C     5.344746694603288e+00   1.780325486109955e+00   3.559274355095321e+00  1.20291420e-01   4.50461080e-01   6.51840890e-01
C     3.532158992674426e+00   1.778529756387691e+00   5.342422311490774e+00  9.68060190e-01  -5.10323890e-01  -2.47146440e-01
C     5.319957705653240e+00   7.094927208571704e+00   5.353172165766320e+00 -6.50250280e-01   1.13550366e+00  -5.84489220e-01
C     4.450331479884347e+00   8.974266268776770e-01   4.434019355992876e+00 -6.95096900e-01  -8.58143700e-02   5.49766220e-01
C     6.215801286813443e+00   2.656707343484217e+00   4.513289001924032e+00  1.31624301e+00   1.65561840e-01  -2.18559707e+00
C     4.430548099974851e+00   2.635767849719805e+00   6.245636687149880e+00 -1.08114600e-01   1.42955120e+00  -1.09901158e+00
C     6.196807936993934e+00   8.925444200538086e-01   6.250293414808242e+00  1.27534646e+00  -6.49116220e-01  -7.72049000e-01
C     1.167643716406440e-02   3.574224931718157e+00   3.570849852658181e+00 -8.61085430e-01  -5.89554940e-01  -2.80681070e-01
C     1.780099011765282e+00   5.314044919717923e+00   3.515812890522831e+00 -2.30922200e-01   1.42419320e+00   1.06036640e-01
C     7.095568814797385e+00   5.340619260093210e+00   5.344695656128875e+00  8.56355700e-01  -1.35971600e-01  -8.07831800e-01
C     1.775547773098601e+00   3.597167650061112e+00   5.265795719258186e+00  4.65572410e-01  -1.53605301e+00   2.25010216e+00
C     8.998710712482426e-01   4.483663371139111e+00   4.412419134345934e+00 -7.38344890e-01  -9.62611030e-01   3.41673000e-01
C     2.670025897357728e+00   6.192281435637971e+00   4.399420885995681e+00  1.98075510e-01   6.31266990e-01   1.30260023e+00
C     9.311400982586819e-01   6.186875053730103e+00   6.221310243259717e+00 -1.68277592e+00   1.16953820e+00   5.30830100e-01
C     2.658388769770752e+00   4.444510392600829e+00   6.212277286299578e+00  6.96684420e-01  -3.53861950e-01  -5.92879710e-01
C     3.566791583100197e+00   3.533068586432881e+00   3.528141383293828e+00  5.73881150e-01   4.58380800e-01   8.03508230e-01
C     5.339440683622815e+00   5.312957899730873e+00   3.536768591490818e+00 -5.95647760e-01   1.23686618e+00   7.94974210e-01
C     3.558548940566951e+00   5.278106369888406e+00   5.305637930453702e+00  1.05877050e-01   1.92269856e+00   7.85748400e-02
C     5.362371175478863e+00   3.564852263241009e+00   5.335360520123161e+00 -1.35141352e+00  -1.34800610e+00   5.17464830e-01
C     4.487028569491645e+00   4.421414843171545e+00   4.430498980774547e+00 -1.42201134e+00  -3.59083700e-02   4.89901000e-03
C     6.182117173217859e+00   6.238216773450673e+00   4.464127506505243e+00  9.87599400e-01  -1.07317971e+00  -2.56963580e-01
C     4.410977404070146e+00   6.229311483760789e+00   6.212914769640139e+00  1.53155300e-01  -8.68494110e-01  -1.35441290e-01
C     6.223195752359672e+00   4.417594634687104e+00   6.216578450658488e+00  3.42932760e-01   1.50822918e+00  -1.68059940e-01
