64
Lattice="7.10842262195238 0 0 0 7.10842262195238 0 0 0 7.10842262195238 " PBC="1 1 1" Properties=species:S:1:pos:R:3:force:R:3 Energy="-513.33982391"
C     3.263782487014660e-02   7.087974033901724e+00   2.430035597914860e-02 -4.30093240e-01   9.44522560e-01  -6.86872590e-01
C     1.792167549521065e+00   1.789691188332936e+00   4.028122737652780e-02 -6.33959260e-01  -9.27661110e-01  -1.42272065e+00
C     2.065494360693400e-02   1.815533716599494e+00   1.772375568420200e+00 -1.63882298e+00  -1.25556406e+00  -8.02498340e-01
C     1.750963364551557e+00   7.064629263175382e+00   1.785748359558301e+00  1.39639173e+00   1.23173522e+00   1.59820800e-02
C     9.107760313053583e-01   8.895932162346633e-01   9.097429642459937e-01 -6.23755850e-01  -1.01498240e-01   8.71160000e-03
C     2.686539260693571e+00   2.653878262365684e+00   9.003116512822301e-01 -7.10163850e-01   7.63885820e-01  -2.50115770e-01
C     8.520644411808256e-01   2.683685157927415e+00   2.635606346357878e+00  1.51282487e+00  -4.11224230e-01   1.20654229e+00
C     2.696164633594861e+00   8.599461890976553e-01   2.647059934472805e+00 -1.90181313e+00   1.29319578e+00  -2.90431820e-01
C     3.514559249109568e+00   2.492710560155400e-03   1.774454213362740e-02  6.04281470e-01  -8.08573200e-02  -1.37863310e-01
C     5.323997493312413e+00   1.799842868845010e+00   2.711863229530000e-03  5.43396710e-01  -7.10630190e-01   3.91471700e-02
C     3.574490999976824e+00   1.801615638362212e+00   1.749509052367731e+00 -5.81275530e-01  -1.20381650e+00   1.57965603e+00
C     5.318208393930684e+00   1.074025790501040e-02   1.737201245106558e+00  1.55530220e-01   1.31797210e-01   1.33477094e+00
C     4.425077955516082e+00   9.111249126875479e-01   8.949426596773442e-01  6.84982870e-01  -3.43397880e-01  -1.17381284e+00
C     6.236662872265940e+00   2.703065277021678e+00   8.261920575392639e-01 -1.13667732e+00  -1.33137769e+00   2.88737104e+00
C     4.444932348567552e+00   2.656287591128506e+00   2.667917965713993e+00  5.71542920e-01   5.17167310e-01  -9.65497100e-02
C     6.197915429238130e+00   8.922181434555505e-01   2.665291687892808e+00  6.16806580e-01   4.79095380e-01  -7.33281730e-01
C     7.064002655721429e+00   3.561964679804313e+00   7.081211364957961e+00  2.08826414e+00   4.76937530e-01   9.15758510e-01
C     1.784714794909353e+00   5.327738016379282e+00   3.732547416690560e-02  3.51677880e-01  -4.87477720e-01  -8.01781570e-01
C     7.067516277938269e+00   5.346380067952911e+00   1.805496410607375e+00  1.34644596e+00  -1.26430748e+00  -6.07274120e-01
C     1.786699466504857e+00   3.539894520337963e+00   1.765303967429371e+00 -8.86896310e-01   1.04804101e+00   1.00840866e+00
C     8.625654295804468e-01   4.455980045750878e+00   9.341555622183122e-01  4.69185010e-01  -3.41246880e-01  -2.07499861e+00
C     2.681736454950368e+00   6.199405354619282e+00   9.345399857136018e-01 -8.28472050e-01   4.79054370e-01  -1.16372072e+00
C     8.611826992124044e-01   6.200780976564705e+00   2.659860710842676e+00  1.24528700e-01   8.93586560e-01   7.63808180e-01
C     2.634557498600297e+00   4.453636754234195e+00   2.689918960228250e+00  1.98269776e+00  -8.43768890e-01  -7.69928640e-01
C     3.535307028715919e+00   3.545526523579789e+00   2.553892753645740e-02  1.07009966e+00   4.62984490e-01  -1.34028761e+00
C     5.343708722732314e+00   5.365258829999786e+00   7.069251159562906e+00 -1.14828574e+00  -1.16928956e+00   1.12564559e+00
C     3.582577896970467e+00   5.359999592440152e+00   1.807122462281700e+00 -1.42710794e+00  -1.60581982e+00  -9.28249090e-01
C     5.337558088976134e+00   3.578681770532445e+00   1.796122249361476e+00  6.53106400e-02  -9.27831660e-01  -1.51784050e+00
C     4.438801973815838e+00   4.456809598670632e+00   8.741830800894438e-01  2.51557570e-01   3.24170020e-01   1.06976342e+00
C     6.226652649364004e+00   6.213008032144915e+00   9.038650095815157e-01 -4.64170910e-01   5.41739730e-01  -1.15374007e+00
C     4.429509275093165e+00   6.229218718845598e+00   2.657704513009351e+00  1.56323579e+00  -1.86809430e-01  -3.88040520e-01
C     6.238775708721283e+00   4.424279039897821e+00   2.667453359211550e+00 -1.30757000e+00   1.23295873e+00   2.74410220e-01
C     7.102049634784265e+00   1.716541894277600e-02   3.520686282902651e+00 -1.69288010e-01  -7.93939300e-02   1.70886137e+00
C     1.761963079882197e+00   1.788914522077475e+00   3.518590151240466e+00  1.18636681e+00  -3.55680920e-01   5.01355070e-01
C     3.889124641741300e-02   1.812257586782388e+00   5.345156424083104e+00 -1.06675701e+00  -1.53533882e+00   4.80597700e-02
C     1.812135606250229e+00   7.047262107198651e+00   5.306596287991330e+00 -1.32700496e+00   2.18960348e+00   2.65766270e-01
C     9.183932748164980e-01   9.194662912109869e-01   4.436857038302779e+00 -9.62449710e-01  -1.35746489e+00  -3.96303170e-01
C     2.676555196786877e+00   2.649205114251069e+00   4.424518025066305e+00 -2.11533800e-01   5.04503040e-01   2.88619300e-01
C     9.092996119271844e-01   2.665988739814925e+00   6.241974143479152e+00 -5.03068230e-01   1.10511905e+00  -5.47640780e-01
C     2.613316323379892e+00   8.553628203607317e-01   6.226917153769694e+00  1.91713969e+00   5.68364110e-01  -7.37413400e-02
C     3.549954360029787e+00   7.097952126733419e+00   3.500851438013386e+00  4.60757580e-01  -2.19286640e-01   2.07245031e+00
C     5.303743464741246e+00   1.746509582358996e+00   3.572241184217595e+00  1.04899947e+00   1.17924709e+00  -4.03920400e-01
C     3.533131140551938e+00   1.728353746892575e+00   5.332047284339978e+00  1.79771600e-01   1.32222108e+00   1.88563340e-01
C     5.315725919499101e+00   1.531630496663540e-02   5.373907221296182e+00  2.37967950e-01  -6.63933560e-01  -1.71458445e+00
C     4.441423773330772e+00   8.684825516535609e-01   4.433355571488621e+00 -6.92305780e-01   2.03848600e-02   7.68090320e-01
C     6.209231042870003e+00   2.690802181738785e+00   4.465477609213459e+00  3.89674690e-01  -1.34870681e+00  -5.68242830e-01
C     4.451993571261355e+00   2.672487259774129e+00   6.245255320276317e+00 -1.04957606e+00  -6.12765650e-01  -1.23577883e+00
C     6.219182976706455e+00   8.788053318980987e-01   6.256394645027215e+00  5.77287860e-01   5.83642310e-01  -7.69345790e-01
C     7.076936999352330e+00   3.548614066944786e+00   3.554754606740846e+00  1.40670056e+00   3.05323690e-01   7.59047900e-02
C     1.756903446829734e+00   5.331216949493736e+00   3.555388891291229e+00  6.52385300e-02  -5.77093800e-01  -4.37243520e-01
C     4.229205796727340e-02   5.282576714705672e+00   5.326793235928858e+00 -1.75157789e+00   2.02300209e+00   5.45558370e-01
C     1.766173469684249e+00   3.583925653899219e+00   5.300617606978327e+00  1.56424673e+00  -2.05776620e+00   1.29011977e+00
C     9.144476737570408e-01   4.443186946477438e+00   4.451707528335127e+00 -1.55346447e+00  -3.53992380e-01  -1.03799223e+00
C     2.665400944348477e+00   6.178617128088223e+00   4.398786174939941e+00  4.20453340e-01   1.18700909e+00   7.16853350e-01
C     9.412592221951568e-01   6.217501194998790e+00   6.219848182895236e+00 -1.58438652e+00  -1.08775469e+00   2.68008510e-01
C     2.679404252572973e+00   4.421888121949584e+00   6.194136520689112e+00 -7.69395310e-01   6.56557080e-01   1.31775243e+00
C     3.607764033492294e+00   3.545568960862830e+00   3.566732227771320e+00 -1.96002239e+00   4.83788020e-01   1.76231900e-02
C     5.358439364759288e+00   5.342486998136615e+00   3.522594681123442e+00 -1.02997162e+00  -1.92427500e-02   1.50950906e+00
C     3.552140413238115e+00   5.329051013121422e+00   5.319135261156106e+00  3.46758850e-01  -3.04272220e-01  -2.30067720e-01
C     5.338562722345019e+00   3.568231109764974e+00   5.331896159275077e+00 -7.74444440e-01  -4.87641500e-01   4.68173930e-01
C     4.483868235879019e+00   4.460341844954736e+00   4.460666273363112e+00 -8.83388820e-01  -4.38145470e-01  -1.14814171e+00
C     6.192038967342402e+00   6.227321196511415e+00   4.441450074494467e+00  1.88218436e+00  -6.27662600e-02   2.35883090e-01
C     4.396127482711608e+00   6.234535108123096e+00   6.203236367906104e+00  1.14512810e+00   1.59731240e-01   9.96416320e-01
C     6.187095201578644e+00   4.419248409209647e+00   6.218118348250658e+00  1.77466528e+00   1.63251175e+00  -6.10016710e-01
