64
Lattice="7.10842262195238 0 0 0 7.10842262195238 0 0 0 7.10842262195238 " PBC="1 1 1" Properties=species:S:1:pos:R:3:force:R:3 Energy="-514.20962882"
C     7.076290985904624e+00   7.096147084977522e+00   2.080023976528680e-02  1.07499104e+00   1.86565200e-02  -5.77205610e-01
C     1.763943059918772e+00   1.757327748575922e+00   2.411759843358840e-02 -8.56584800e-02   5.48336490e-01  -2.42171260e-01
C     8.114975262992000e-03   1.770743119165517e+00   1.816853466343123e+00 -2.66785910e-01   2.17268730e-01  -1.17449497e+00
C     1.805608083926735e+00   7.068202311805326e+00   1.793228126175969e+00 -7.53353880e-01   2.05061238e+00  -1.51546964e+00
C     8.699907456808464e-01   8.797550882443569e-01   9.144903242927607e-01  4.52028010e-01  -4.74392170e-01  -1.49755090e-01
C     2.667519112120785e+00   2.652841783263462e+00   8.861316276714017e-01 -5.15626000e-02   6.21293530e-01  -1.90558940e-01
C     9.089039571241552e-01   2.660035506954901e+00   2.676835908396141e+00 -4.44315830e-01   4.67234500e-01  -3.63543550e-01
C     2.667215369222232e+00   9.128400328973016e-01   2.624589997318307e+00 -1.47870240e-01  -1.51713651e+00   2.25437702e+00
C     3.546818763727878e+00   2.697305180004240e-02   7.075190602083048e+00  3.01813280e-01  -8.25494280e-01   1.70315433e+00
C     5.355012252045734e+00   1.803355353714231e+00   1.863700459356840e-02 -3.27928050e-01  -1.13271575e+00   1.19804160e-01
C     3.549312824888332e+00   1.786278647885753e+00   1.780255965736731e+00  5.11717120e-01   1.79915500e-01  -3.30710900e-02
C     5.312440477648364e+00   7.105976398523779e+00   1.800354248768293e+00 -1.53692460e-01   2.09454510e-01  -1.37075200e+00
C     4.435633536601426e+00   8.955678454467733e-01   9.112790232899495e-01  2.40651280e-01   4.19100190e-01  -1.09181677e+00
C     6.237268438788939e+00   2.670898811655464e+00   9.102583959701699e-01  8.36979900e-02   3.11945310e-01  -3.42626400e-02
C     4.455792880983293e+00   2.663744113204208e+00   2.693139573264693e+00 -2.47822940e-01   4.34183410e-01  -8.51714510e-01
C     6.199975450113405e+00   8.848010020411640e-01   2.652522046414014e+00  8.20189360e-01   8.06769000e-03   1.09179097e+00
C     5.791729498097400e-03   3.560029198493339e+00   6.006617113900000e-03 -1.58464680e-01   4.68128000e-02  -2.59118740e-01
C     1.795126785857772e+00   5.330056783837927e+00   1.774262285952000e-04 -6.64013400e-01  -1.77151420e-01  -8.72799970e-01
C     1.368200752207120e-02   5.365933490390650e+00   1.777643478255429e+00 -5.55246750e-01  -8.91625760e-01  -3.49776970e-01
C     1.765859490657124e+00   3.586554632921000e+00   1.758407944477257e+00  7.90355620e-01  -1.93463577e+00   9.07420210e-01
C     8.924397129886159e-01   4.438412290087809e+00   8.924940213374327e-01 -2.25592530e-01   1.09414209e+00  -4.02640130e-01
C     2.681420912070267e+00   6.236278448770650e+00   8.580823606866914e-01 -6.18571390e-01  -9.66959990e-01   5.53231600e-01
C     9.069743047197300e-01   6.226691248098830e+00   2.643123076773171e+00 -5.03278000e-02  -1.72880470e-01   1.30134232e+00
C     2.666909778133799e+00   4.427077057209505e+00   2.669133648150466e+00 -3.81976020e-01   1.20481368e+00  -7.21866590e-01
C     3.575146751963519e+00   3.520279183539204e+00   7.082860519005801e+00 -9.96626890e-01   8.81979030e-01   7.04082260e-01
C     5.301526774231426e+00   5.300151649875586e+00   2.309490967124900e-02  7.01224220e-01   1.29535128e+00  -1.21105521e+00
C     3.518270414391018e+00   5.316079776777125e+00   1.751962240098119e+00  1.20786598e+00   4.76727860e-01   1.09210920e-01
C     5.358282339703613e+00   3.574340372501506e+00   1.802114365293231e+00 -7.86557450e-01  -5.33285780e-01  -4.80132480e-01
C     4.423499743525991e+00   4.427398215743477e+00   8.804824220468354e-01  4.29569890e-01  -2.65777270e-01   5.88854890e-01
C     6.192206797200460e+00   6.225580983569812e+00   8.820751352190725e-01  3.23764080e-01  -6.47506010e-01   8.48305540e-01
C     4.408451426092128e+00   6.224443920287517e+00   2.633476876193605e+00  1.23773520e-01  -3.54790540e-01   1.08495512e+00
C     6.232621236416887e+00   4.485877005027205e+00   2.683852134774759e+00 -2.46507900e-02  -6.73369930e-01  -1.02394952e+00
C     2.447358823839800e-03   7.103239300393948e+00   3.537413609759356e+00 -3.90957100e-01   1.28840920e-01   8.04787650e-01
C     1.785352918007950e+00   1.745650529485369e+00   3.560531479635668e+00 -4.25344330e-01   1.31291774e+00  -3.87119710e-01
C     7.100318662792069e+00   1.762900041067740e+00   5.325577198071255e+00  3.34309230e-01   3.81848900e-01   5.59125310e-01
C     1.789953560211840e+00   2.156496387074640e-02   5.341181962827809e+00 -8.74972850e-01  -1.24803107e+00   7.56145100e-02
C     8.856145610100229e-01   8.856805271719366e-01   4.470836080352868e+00  2.19315470e-01  -3.44224360e-01  -1.42068768e+00
C     2.642485948853741e+00   2.661044405377358e+00   4.428004777445642e+00  1.39698763e+00  -3.63038650e-01   6.73836270e-01
C     8.914782277450347e-01   2.666814027681107e+00   6.236077351494731e+00 -6.58075360e-01  -7.10082890e-01  -1.30183490e-01
C     2.637726575572746e+00   8.873159619641200e-01   6.241312562585908e+00  1.33364219e+00   5.63783090e-01  -9.83036030e-01
C     3.535434127312365e+00   6.280433553222400e-03   3.571097865523393e+00  7.98499190e-01  -1.28870200e-01  -1.29781734e+00
C     5.344753803025907e+00   1.776302189991261e+00   3.564238664200450e+00 -3.50556490e-01  -2.91428480e-01  -6.94724160e-01
C     3.586284228524535e+00   1.763720495206540e+00   5.332719030277569e+00 -1.24243546e+00   7.75305170e-01   3.45567600e-02
C     5.313292066678240e+00   7.538340020057599e-03   5.356808479357582e+00  5.78182300e-01  -1.11249737e+00  -9.10224010e-01
C     4.456760266217649e+00   8.724022780546814e-01   4.427256971386017e+00 -4.41670900e-01   6.43470020e-01   1.20901440e+00
C     6.241434756370746e+00   2.665725088419949e+00   4.398446534507158e+00 -2.77973090e-01   1.44470110e-01   1.47973161e+00
C     4.474648114151296e+00   2.680583824222535e+00   6.234518545498391e+00 -1.54656170e-01  -1.10857900e+00  -1.26588999e+00
C     6.221423125010922e+00   8.466776785193896e-01   6.237239791845780e+00 -4.56513350e-01   2.12239958e+00  -3.34965630e-01
C     2.969543549505000e-02   3.584280079851052e+00   3.530763182808763e+00 -4.21368340e-01  -5.62865270e-01   1.05818545e+00
C     1.804667070940300e+00   5.361579794788578e+00   3.554082221045221e+00 -9.73326580e-01  -1.50096795e+00   3.29781210e-01
C     4.048815355899600e-03   5.345714790679906e+00   5.326580409755615e+00 -4.52658590e-01  -3.11985530e-01  -2.24875370e-01
C     1.761526196227972e+00   3.527796482628306e+00   5.342999373239065e+00  3.99003570e-01   5.49027590e-01  -6.65789700e-01
C     9.016903298493791e-01   4.450557456639436e+00   4.464739968198183e+00 -1.84557810e-01   7.83521600e-02  -9.74872360e-01
C     2.673801251695436e+00   6.207175997890561e+00   4.454568170850093e+00 -1.80434290e-01   1.23044489e+00  -3.62799620e-01
C     8.847225250554391e-01   6.217510578116648e+00   6.207148843716153e+00  1.61538690e-01   2.94369490e-01   9.32509160e-01
C     2.658444784140998e+00   4.412091436063153e+00   6.186976633089342e+00  6.48105080e-01   4.31452790e-01   1.15711872e+00
C     3.548314660184031e+00   3.563821826298013e+00   3.536919218966136e+00  1.83042130e-01  -5.50127170e-01   9.99649550e-01
C     5.295956614266394e+00   5.345045603774458e+00   3.521167452029799e+00  8.93615080e-01   6.16185800e-02   1.23107891e+00
C     3.549938650415797e+00   5.313152670510661e+00   5.315695993039872e+00  2.03043260e-01   4.70938040e-01   6.94047110e-01
C     5.339440470370135e+00   3.551627753798761e+00   5.302089690218703e+00  4.67896440e-01   4.88462110e-01   3.60685640e-01
C     4.453446888266014e+00   4.463434790720924e+00   4.441401310715293e+00 -7.86400510e-01  -9.79212100e-01  -8.18165160e-01
C     6.189324545080729e+00   6.210637302116917e+00   4.439357497043591e+00  8.21502520e-01   7.28197820e-01  -3.20497640e-01
C     4.429290122423789e+00   6.220098754792589e+00   6.231989937404005e+00 -1.98308740e-01  -2.73468880e-01  -4.25531340e-01
C     6.220910820992699e+00   4.460886207958976e+00   6.189266540352150e+00 -6.95283100e-02  -8.73015890e-01   1.27334188e+00
