64
Lattice="7.10842262195238 0 0 0 7.10842262195238 0 0 0 7.10842262195238 " PBC="1 1 1" Properties=species:S:1:pos:R:3:force:R:3 Energy="-511.35793472"
C     7.085550132872530e+00   2.430106682141060e-02   2.509699690217200e-03  1.08165620e-01  -2.82281070e-01  -1.60038870e-01
C     1.703782702180057e+00   1.765636072934178e+00   7.106658522758394e+00  1.61686354e+00   6.07471050e-01   1.07822270e-01
C     2.468300236878320e-02   1.768722478951555e+00   1.789194807181382e+00 -1.82682278e+00   1.46111436e+00   6.93915410e-01
C     1.749687260522815e+00   2.985672560429780e-02   1.724948528120690e+00  1.52862752e+00  -7.82068530e-01   1.63258455e+00
C     8.418752992815438e-01   9.401694299232847e-01   9.242502596342469e-01  1.39776182e+00  -2.46312871e+00  -2.30796787e+00
C     2.645082015878791e+00   2.628880001453703e+00   8.483284675044322e-01  1.50064675e+00   8.32110580e-01   6.48005000e-01
C     9.239502841996829e-01   2.664333472523632e+00   2.666413610234923e+00  7.87216090e-01   1.40496470e-01  -1.09298419e+00
C     2.697813218968891e+00   8.902520248430847e-01   2.666889092623975e+00 -8.99334950e-01  -1.23492657e+00  -3.28753420e-01
C     3.574286774994951e+00   3.542198075772200e-03   7.100280917067956e+00  4.51463510e-01   2.79751900e-01  -6.30039690e-01
C     5.384308549610672e+00   1.806128704799424e+00   5.993189303570820e-02 -1.53913755e+00  -1.73548505e+00  -2.54199301e+00
C     3.561201732804508e+00   1.732144597591595e+00   1.780041149205155e+00 -4.75318500e-01   1.94534538e+00  -5.02916460e-01
C     5.286957990987509e+00   7.042775199756680e+00   1.845261282164786e+00  2.92927884e+00   2.43933925e+00  -3.11939444e+00
C     4.473635092843719e+00   8.735081353616748e-01   9.141822452564100e-01 -6.88463940e-01  -2.26043300e-01   9.68486400e-02
C     6.176146027132832e+00   2.693295105551619e+00   9.441056478648834e-01  2.01702922e+00   7.92086200e-02  -1.49898870e-01
C     4.354669029464983e+00   2.718712194724370e+00   2.686023544632490e+00  1.73826921e+00  -2.50435274e+00  -2.33240140e-01
C     6.246835167203613e+00   8.654682250415500e-01   2.634141798045480e+00 -2.52771665e+00  -1.97409100e-02   1.46960345e+00
C     7.091237155305436e+00   3.581556629892652e+00   3.466550242250160e-02 -9.12059600e-02  -1.57734150e-01  -5.11643380e-01
C     1.745221322927573e+00   5.346387318543983e+00   7.043938848539574e+00  1.07076774e+00  -5.93420350e-01   4.55898450e-01
C     7.722867562850180e-02   5.334589185184664e+00   1.802709980024561e+00 -1.47680724e+00   3.63848260e-01  -4.65986610e-01
C     1.829423432230521e+00   3.556274885086586e+00   1.758373113206419e+00 -1.18199540e+00  -1.26845900e-02  -1.05983040e-01
C     9.685135542782727e-01   4.480557701296433e+00   8.855393538987033e-01 -2.61826557e+00  -1.28712539e+00   1.88192310e-01
C     2.643043391355601e+00   6.202558011135478e+00   7.586513800153341e-01  2.90380670e-01   1.62445034e+00   3.60748754e+00
C     9.434192585766963e-01   6.256210821218262e+00   2.706754548361458e+00 -1.16783265e+00  -1.42958288e+00  -1.02798049e+00
C     2.640589634951403e+00   4.465753913600699e+00   2.667230794499317e+00 -6.96839900e-02  -3.07355490e-01   5.68582710e-01
C     3.615192264045968e+00   3.549459898152339e+00   7.063584680471373e+00 -1.23038178e+00  -8.66084210e-01   1.42871205e+00
C     5.329918880439099e+00   5.310824093428802e+00   4.485940696493879e-02  1.73111300e+00   2.57003270e-01  -6.23787950e-01
C     3.499594455641492e+00   5.336271037976557e+00   1.734096854779952e+00  1.34481361e+00  -2.91297310e-01   9.57298910e-01
C     5.287040661942579e+00   3.566156800960232e+00   1.828695885175365e+00  6.58233540e-01  -1.24022550e-01  -3.55117560e-01
C     4.470142724810514e+00   4.437513216794832e+00   9.307303687788652e-01 -1.82092774e+00  -7.29737100e-02  -1.59418684e+00
C     6.260710097315591e+00   6.214386284206705e+00   9.100450722073437e-01 -1.25680920e+00  -3.98393320e-01   2.35536720e-01
C     4.435450636887413e+00   6.202145225033935e+00   2.668275092866422e+00 -1.39990724e+00  -4.97919400e-01   7.20116620e-01
C     6.202767140928959e+00   4.439160238315886e+00   2.664624491345695e+00  1.61779071e+00   5.17334320e-01   7.94924500e-02
C     7.098486111440632e+00   7.094849087007110e+00   3.521508229810202e+00  1.40217813e+00   1.22956121e+00   2.46359090e-01
C     1.838947154688345e+00   1.780516987015338e+00   3.570857458670385e+00 -1.94109024e+00  -5.58199060e-01  -1.01764911e+00
C     7.073154749844679e+00   1.803016495207936e+00   5.229499757939335e+00 -1.64572030e-01  -7.90621700e-02   2.63885733e+00
C     1.711055471531032e+00   6.471522170093240e-02   5.334582929772759e+00  1.81999231e+00  -1.11012694e+00  -2.68395930e-01
C     8.492544817191395e-01   9.281304632056002e-01   4.395841439785380e+00  1.39922663e+00  -7.88485350e-01   8.05955350e-01
C     2.691420259085594e+00   2.624017556044719e+00   4.471118355815109e+00 -9.15263570e-01   1.40259609e+00  -5.51809200e-02
C     7.947204404841546e-01   2.652386986384234e+00   6.248550145244914e+00  2.33630108e+00  -1.47854710e-01  -1.12051749e+00
C     2.690401408871470e+00   9.165032874102924e-01   6.221502952596945e+00 -1.80232054e+00  -3.67825020e-01  -3.68029000e-03
C     3.525809536337564e+00   7.042733046810544e+00   3.570493009842657e+00  7.18035640e-01   2.35662058e+00   4.32433200e-02
C     5.273417441075576e+00   1.751606179209084e+00   3.550009308136640e+00  1.07799792e+00   7.31295140e-01  -5.48883070e-01
C     3.594824713965560e+00   1.788845428209609e+00   5.322292182725874e+00 -5.16238620e-01  -1.33020007e+00   1.31793834e+00
C     5.377800575449382e+00   7.082427331731338e+00   5.324234914627920e+00 -6.23119950e-01   3.17110370e-01   7.53911560e-01
C     4.422214896137425e+00   8.634058583868094e-01   4.507989601776596e+00  1.06146246e+00  -9.92656880e-01  -2.96856048e+00
C     6.211307128780400e+00   2.662688938950495e+00   4.335718401265420e+00 -2.90240400e-01   7.52607830e-01   1.39835576e+00
C     4.522858289370850e+00   2.616058966079366e+00   6.167879073794225e+00 -1.23498026e+00   2.74567822e+00   1.59524677e+00
C     6.222971552710237e+00   9.035406522573652e-01   6.185714888074293e+00  4.25523460e-01  -9.41939900e-02   9.10369610e-01
C     4.525307140963440e-02   3.545362816606850e+00   3.471879711025279e+00 -1.61164662e+00   1.07013400e-02   2.73895390e+00
C     1.780177488751007e+00   5.338818767727791e+00   3.657396746246563e+00 -1.77890730e-01  -5.77605960e-01  -2.39712350e+00
C     1.560440933542400e-03   5.321514521291246e+00   5.285044901207788e+00 -1.26145420e-01  -5.46758750e-01   2.05640691e+00
C     1.796405306750205e+00   3.472083509501794e+00   5.387849894675728e+00 -1.15298233e+00   1.67408527e+00  -4.85126830e-01
C     8.869582661378815e-01   4.370580735910269e+00   4.517653573412712e+00  8.76393690e-01   1.30587683e+00  -2.62776796e+00
C     2.641796289691148e+00   6.250097435596610e+00   4.483695430125127e+00  1.88941340e-01  -6.47920480e-01   5.63297910e-01
C     8.421860084342641e-01   6.231246467482179e+00   6.191423377943510e+00  7.74999450e-01   5.15615680e-01   2.69884910e-01
C     2.665773710030670e+00   4.426070149145382e+00   6.237865333036339e+00  7.77082570e-01   1.15122090e-01  -1.02206076e+00
C     3.471008431664745e+00   3.559321199600387e+00   3.567381440009205e+00  2.02109058e+00   1.38570395e+00   1.71266270e-01
C     5.329442473955106e+00   5.347217369053321e+00   3.568305677118258e+00 -9.42896700e-02  -8.99454470e-01  -1.02350897e+00
C     3.571603771961259e+00   5.374090334262873e+00   5.378423984113157e+00 -9.45853450e-01  -8.28705820e-01  -5.89091850e-01
C     5.354561933472757e+00   3.581328876031907e+00   5.268394842904963e+00 -5.17944490e-01  -9.02520060e-01   6.67800360e-01
C     4.392776998793898e+00   4.513135531079666e+00   4.445342078047369e+00  1.25092741e+00  -2.09405046e+00   9.74849000e-02
C     6.289110662546181e+00   6.195902679373277e+00   4.393424931515711e+00 -2.60551162e+00   7.58789450e-01   9.16530410e-01
C     4.520394723343437e+00   6.197031923390690e+00   6.256803023906734e+00 -1.98034563e+00   1.05719968e+00  -6.69440220e-01
C     6.211912766387624e+00   4.442747930296426e+00   6.204909477338174e+00  6.97578700e-02   3.31172210e-01   4.59137080e-01
