64
Lattice="7.10842262195238 0 0 0 7.10842262195238 0 0 0 7.10842262195238 " PBC="1 1 1" Properties=species:S:1:pos:R:3:force:R:3 Energy="-510.81319965"
C     5.288666429280000e-02   2.798500684422560e-02   7.096273970321289e+00 -2.20795965e+00  -7.71145440e-01   2.00953250e-01
C     1.791144931842952e+00   1.720623692714456e+00   5.025583708113800e-03 -1.23117230e+00   2.69908177e+00  -7.08201590e-01
C     7.065662330234747e+00   1.784586416796836e+00   1.809383438264444e+00  1.61864817e+00  -3.74171750e-01  -1.82796353e+00
C     1.790306848816054e+00   2.625090714607660e-02   1.821372788192240e+00 -7.63341360e-01  -8.83695840e-01  -6.57711240e-01
C     8.661943504121830e-01   8.893369575992122e-01   8.819550739610208e-01  1.31155241e+00   9.26428900e-02   1.50105254e+00
C     2.700803661280899e+00   2.671989456938050e+00   8.190384253514008e-01 -3.16886280e-01  -1.02754483e+00   2.22009218e+00
C     9.552045967752990e-01   2.654086823485354e+00   2.599570908728050e+00 -1.54810991e+00   1.12390389e+00   1.28869836e+00
C     2.703483607692865e+00   8.506815686443308e-01   2.686392045261111e+00 -3.04206930e-01   2.18554348e+00  -3.95063550e-01
C     3.539079681853032e+00   2.084509391201900e-02   7.088162620353834e+00  5.54387460e-01  -1.35391314e+00   4.59854290e-01
C     5.362717355660457e+00   1.734205826898717e+00   7.103289628026098e+00 -1.06575064e+00   1.21865970e+00  -2.55869790e-01
C     3.580185557337706e+00   1.749880965039210e+00   1.775416267280131e+00  3.59087880e-01   7.96304900e-01  -5.34939350e-01
C     5.385825913503136e+00   1.380832419202860e-02   1.758725904221049e+00 -2.16627421e+00  -2.26163569e+00   1.00007312e+00
C     4.484481692751125e+00   8.329003470499842e-01   8.575185916886993e-01 -8.12380160e-01   1.68627125e+00   5.54570250e-01
C     6.172411546225190e+00   2.635595257218591e+00   9.010396959269706e-01  1.12408890e+00   9.58073300e-01   3.94802680e-01
C     4.437131565584364e+00   2.705821923313714e+00   2.685086156941591e+00 -1.93496324e+00  -6.68315350e-01  -2.44053170e-01
C     6.168130854123425e+00   8.999234603229520e-01   2.663430702850892e+00  1.32356016e+00   5.48519010e-01   1.13485250e-01
C     7.087124293061729e+00   3.546979129742186e+00   7.103362702610632e+00 -2.63588540e-01  -9.86854900e-01   1.04593276e+00
C     1.734752535682421e+00   5.352904604738904e+00   7.059356590696997e+00  7.71959990e-01  -6.44579350e-01   2.36417709e+00
C     1.755666652378080e-02   5.285786096434376e+00   1.750118883944301e+00  2.44031970e-01   9.84710750e-01   1.56619836e+00
C     1.809268850491809e+00   3.559517036643568e+00   1.735707765514096e+00 -7.62010780e-01  -5.70458360e-01  -6.58904460e-01
C     8.413896518481454e-01   4.392358170533128e+00   8.470859152304562e-01  2.38936980e+00   2.04722690e+00   1.07899530e+00
C     2.638687349974065e+00   6.254896829296954e+00   9.136485448861004e-01  9.78546400e-02  -8.24557070e-01  -1.15377711e+00
C     9.299551242079280e-01   6.239974046606562e+00   2.732045889538061e+00 -2.12602955e+00  -4.68198140e-01  -2.05852184e+00
C     2.641545078035757e+00   4.454303311023272e+00   2.665404640728239e+00  1.22961070e-01  -2.12890240e-01   5.07259950e-01
C     3.570516680889982e+00   3.585469390039604e+00   7.073008671759839e+00  1.15955137e+00  -1.88799751e+00   1.66756394e+00
C     5.372491436762957e+00   5.382869165114347e+00   7.104341674573858e+00 -5.63958860e-01  -2.15270385e+00   1.02742421e+00
C     3.516565814646742e+00   5.344414731266933e+00   1.785071637724877e+00  1.13787825e+00  -2.71838900e-01  -3.77650260e-01
C     5.291235981888677e+00   3.562235226369230e+00   1.823408427177930e+00  1.03024804e+00  -3.56918800e-02  -2.66957488e+00
C     4.474375150722687e+00   4.458455482844067e+00   8.609624802796367e-01 -1.43120385e+00   3.55980230e-01   1.33525995e+00
C     6.271699150012301e+00   6.173285811123223e+00   9.355611106229647e-01 -8.40949160e-01   2.75537758e+00  -2.13769738e+00
C     4.408702993168651e+00   6.177456109421699e+00   2.711038226000722e+00  1.42001317e+00   5.86759380e-01  -1.35403567e+00
C     6.221651163208572e+00   4.426661498823140e+00   2.636223286357068e+00  8.23317420e-01  -2.39936740e-01   8.62252890e-01
C     7.092473238914828e+00   7.297378710084840e-02   3.580182927221337e+00  6.15756750e-01  -1.71434185e+00  -2.19175792e+00
C     1.854093212933231e+00   1.862924077438284e+00   3.508272275807536e+00 -1.06653865e+00  -2.58499375e+00   1.75014201e+00
C     7.010565799517841e+00   1.847387198117749e+00   5.288725429187745e+00  4.22357254e+00  -5.48636420e-01   1.54945880e-01
C     1.689179869591791e+00   2.948346233252160e-02   5.346799607055943e+00  1.54981672e+00   1.52549670e-01  -2.29858611e+00
C     8.519562509885492e-01   9.948415167255500e-01   4.362225353794269e+00  8.25190150e-01  -9.09260300e-01   2.78781006e+00
C     2.737721893915905e+00   2.686811086774560e+00   4.539660539001970e+00 -1.99451726e+00  -3.22325780e-01  -2.94955694e+00
C     8.509779187833586e-01   2.697873071887352e+00   6.238576957224828e+00  7.18023050e-01  -1.77539961e+00  -1.21588314e+00
C     2.623121183952336e+00   8.664531680797771e-01   6.174466306867727e+00  3.37079110e-01   3.92770830e-01   2.53022655e+00
C     3.512154043231865e+00   7.046978552220339e+00   3.599635552226324e+00  1.80927756e+00   1.36035021e+00  -7.40034280e-01
C     5.272104799754566e+00   1.810576373748532e+00   3.502423607844252e+00  6.92807910e-01  -2.06645606e+00   2.49053304e+00
C     3.553402726926975e+00   1.733268581376270e+00   5.387955099330505e+00  9.94118500e-01   3.33357160e-01  -1.65810693e+00
C     5.418496934706918e+00   7.053220529207187e+00   5.283668781672783e+00 -2.80761820e+00   1.88630902e+00   1.39990617e+00
C     4.434271562827433e+00   7.950338508374704e-01   4.472360481583727e+00  1.13909490e-01   2.60512096e+00  -1.14285523e+00
C     6.169895022449256e+00   2.649950005857419e+00   4.412908193822190e+00  1.15125720e-01   2.09040236e+00  -9.43667160e-01
C     4.471955159325935e+00   2.631898237698155e+00   6.232209018989153e+00 -5.69377550e-01   8.47771300e-01  -3.08144950e-01
C     6.260895058472163e+00   9.633482900656759e-01   6.158203017839655e+00 -1.16341516e+00  -3.85586336e+00   1.74204058e+00
C     1.796788877234780e-02   3.542378345369843e+00   3.527111941530000e+00 -8.72065940e-01  -1.31417720e+00  -5.92697730e-01
C     1.713001331139030e+00   5.284291408410069e+00   3.582686584752327e+00  2.16547304e+00   1.70030167e+00  -7.80826100e-02
C     7.097598838129205e+00   5.307098498049434e+00   5.347205426903320e+00  4.03992950e-01  -2.62002100e-01  -1.65595610e+00
C     1.768289433845545e+00   3.539326130865267e+00   5.345124507265540e+00  5.87737760e-01  -3.27779000e-03   1.03981323e+00
C     8.686307622651880e-01   4.351606792084513e+00   4.419967994831469e+00  6.49427580e-01   2.78498772e+00   1.64859117e+00
C     2.642361693626343e+00   6.269975357526951e+00   4.482364377989532e+00 -1.63560775e+00  -3.61071218e+00   5.64002100e-01
C     8.269488912956153e-01   6.225563212513262e+00   6.196698396201359e+00  2.00831664e+00   2.73590100e-02   3.35650400e-02
C     2.685157454420469e+00   4.439085031204566e+00   6.283819792505889e+00 -1.78336473e+00   1.29281264e+00  -3.06508758e+00
C     3.543355469143188e+00   3.612177724181278e+00   3.617267568029877e+00  1.00484185e+00  -1.16875911e+00  -7.35903400e-01
C     5.393970317635775e+00   5.297760092169313e+00   3.539649635178704e+00 -2.24930123e+00   1.22810670e+00   5.16113960e-01
C     3.543417738925339e+00   5.321723793253178e+00   5.385261646915561e+00  8.17938980e-01   1.50280494e+00  -6.30456460e-01
C     5.339259987519814e+00   3.575816578627002e+00   5.315705305073504e+00 -7.31733600e-02  -1.56133747e+00   1.35222711e+00
C     4.469513842661322e+00   4.462277326265709e+00   4.512117462792030e+00 -7.07626770e-01   4.78754980e-01  -2.08623907e+00
C     6.258928300101661e+00   6.211416100899164e+00   4.381281186648607e+00  1.09437400e-02  -5.23665160e-01   2.10394509e+00
C     4.468921426720171e+00   6.230947416142556e+00   6.232990518971996e+00  6.55030700e-02  -2.15700280e-01  -4.00257790e-01
C     6.254189185825133e+00   4.422124192664795e+00   6.249238169470304e+00 -1.92427394e+00   1.34366445e+00  -1.57142648e+00
