64
Lattice="7.10842262195238 0 0 0 7.10842262195238 0 0 0 7.10842262195238 " PBC="1 1 1" Properties=species:S:1:pos:R:3:force:R:3 Energy="-513.33555709"
C     7.133302099170000e-04   3.494401042075320e-02   7.106555806051535e+00  1.95595550e-01  -1.18396509e+00  -5.68008370e-01
C     1.780239545280479e+00   1.771039824725675e+00   7.078796349457043e+00 -2.38632300e-01   1.19941740e+00   1.30036561e+00
C     7.092904933420540e+00   1.761796742792889e+00   1.766081771032451e+00  8.06557920e-01   9.74452230e-01  -3.28632320e-01
C     1.783273917644279e+00   9.843103886140200e-03   1.807306783680237e+00 -8.26354660e-01   4.88313500e-02  -1.59581909e+00
C     9.011200921868028e-01   9.348710249550151e-01   8.630555553200958e-01 -5.17276450e-01  -1.73598715e+00   8.75667310e-01
C     2.655462800851908e+00   2.627070268138878e+00   9.010840524841194e-01  6.14640140e-01   1.59587751e+00  -3.27012570e-01
C     8.464667716202542e-01   2.670817064795334e+00   2.672152666321406e+00  9.37604510e-01   1.12314400e-01  -4.73250160e-01
C     2.676958386517883e+00   8.899618590317364e-01   2.647127037982339e+00  5.00319000e-03  -4.61767260e-01   1.45561884e+00
C     3.553190540511768e+00   7.093457400026566e+00   2.995702544746600e-03 -3.99234980e-01   2.62131700e-01   6.35003230e-01
C     5.318424347809880e+00   1.775908312293887e+00   7.074523050114803e+00  4.40280610e-01  -5.17974830e-01   8.30386390e-01
C     3.555222269865016e+00   1.723511986993415e+00   1.759250150389274e+00  1.45393210e-01   2.18459336e+00   9.35718250e-01
C     5.327108423387829e+00   2.892040417679140e-02   1.788174890703864e+00  4.54154570e-01  -7.18228780e-01  -8.77923700e-01
C     4.437179263100145e+00   8.824181876947138e-01   8.891448169357935e-01  1.46508390e-01  -1.94279910e-01  -6.42055140e-01
C     6.210474163817789e+00   2.632711583414336e+00   8.633618572507915e-01  3.43589920e-01   7.51125070e-01   3.45570940e-01
C     4.472538263233453e+00   2.654653506936620e+00   2.688144555773846e+00 -1.12335021e+00   1.72755280e-01  -1.23129098e+00
C     6.226099898421072e+00   8.987585320239864e-01   2.643823611822372e+00 -3.26528280e-01  -5.23676810e-01   1.12983509e+00
C     7.086136719907133e+00   3.531094932892438e+00   3.042404881360000e-04  1.51722276e+00   9.21457860e-01  -1.12941200e-01
C     1.802286460204862e+00   5.354905554622208e+00   1.211993165132620e-02 -1.57417863e+00  -1.17621993e+00  -1.17482761e+00
C     1.410908155308080e-02   5.308725900324056e+00   1.793724791664429e+00 -7.82651130e-01   9.86250150e-01  -4.51090010e-01
C     1.763124169632948e+00   3.605236065155943e+00   1.806133893947937e+00  2.53986640e-01  -3.20676112e+00  -9.60141340e-01
C     9.240025311059399e-01   4.437706636974323e+00   8.897166895355726e-01 -1.74530434e+00   7.03292970e-01   1.00760950e-01
C     2.634107677616904e+00   6.209846987690026e+00   8.926021404454830e-01  1.78657002e+00   9.50201770e-01   7.78760470e-01
C     8.741675837281322e-01   6.233918665713489e+00   2.674803823621761e+00  4.65688480e-01  -9.57765650e-01  -3.55027220e-01
C     2.641823159528652e+00   4.411814563002103e+00   2.693848993842170e+00  1.49366499e+00   2.23964775e+00  -1.04213656e+00
C     3.562867804898183e+00   3.544999647295194e+00   7.099408713612482e+00 -5.41056240e-01  -9.16825800e-02   6.54906660e-01
C     5.357943339028865e+00   5.306696587834499e+00   7.084776238901891e+00 -9.25129810e-01   2.10002132e+00   6.10923350e-01
C     3.562671114844288e+00   5.362623950987230e+00   1.798472578216553e+00  1.49673000e-02  -1.51911006e+00  -6.37685310e-01
C     5.374619200905801e+00   3.542748338767214e+00   1.753045563705407e+00 -2.23676963e+00  -3.48399140e-01   1.03432188e+00
C     4.460643099905371e+00   4.453345451075227e+00   8.840107586984985e-01 -2.16361430e-01  -3.86687940e-01   1.13888530e-01
C     6.213014998399081e+00   6.265770654462995e+00   8.704783834725783e-01  5.61140240e-01  -1.93501412e+00   8.43164690e-01
C     4.483396023364373e+00   6.237864266772946e+00   2.675057096719712e+00 -9.66130110e-01  -5.54573640e-01  -5.95893500e-02
C     6.183246772656402e+00   4.377886701594879e+00   2.714944090977734e+00  1.76337771e+00   2.60598918e+00  -2.00971476e+00
C     7.107862831718674e+00   7.106285046233940e+00   3.548285018061706e+00 -1.21339570e-01   2.50515020e-01   7.38805900e-02
C     1.777234317449422e+00   1.805255363996331e+00   3.566506606437361e+00 -3.81375550e-01  -2.53112830e-01  -1.27426547e+00
C     7.088343387541060e+00   1.761422128920815e+00   5.339478571515379e+00  1.56461843e+00   1.24282980e+00  -7.81481530e-01
C     1.804774123784957e+00   1.496045733027820e-02   5.292139035898322e+00 -1.57414660e+00  -5.55705160e-01   1.01849816e+00
C     8.768208735552734e-01   9.057681475695684e-01   4.404696828348471e+00  7.93738310e-01  -2.63819880e-01   1.41075193e+00
C     2.644359657972146e+00   2.702289250524253e+00   4.435640929360950e+00  1.02987266e+00  -1.39141728e+00   1.15586624e+00
C     9.007648843084815e-01   2.718048410220114e+00   6.214465045529336e+00 -9.39147310e-01  -2.99021627e+00   6.23723280e-01
C     2.666912905839751e+00   8.828455460626282e-01   6.258934555513567e+00  1.12876790e-01  -1.64128040e-01  -2.17481396e+00
C     3.575331215530508e+00   7.072587853140734e+00   3.556554814769362e+00 -5.88200110e-01   1.41103363e+00   1.98321290e-01
C     5.352501699344803e+00   1.784353331619126e+00   3.568121284635495e+00 -7.68618570e-01  -2.71583570e-01   1.41787290e-01
C     3.557595203504025e+00   1.747592052955570e+00   5.342014216948159e+00 -7.10955330e-01   1.61042711e+00  -7.78812800e-02
C     5.339605812280277e+00   4.797232739868920e-02   5.329800311949796e+00 -4.53460440e-01  -2.58336436e+00   3.04894710e-01
C     4.423672762532561e+00   8.795365042487919e-01   4.484226997968650e+00  9.59223290e-01   2.97410130e-01  -2.04322312e+00
C     6.238991165010895e+00   2.667163122315976e+00   4.462172477032064e+00 -1.77067062e+00  -5.66107590e-01   2.51966230e-01
C     4.454355273592625e+00   2.664230471479868e+00   6.201051665298074e+00 -1.24102660e+00  -3.05662160e-01   8.48347820e-01
C     6.232004651838828e+00   8.701213984886020e-01   6.192595272496644e+00 -5.30712000e-01   1.47332237e+00   1.23360685e+00
C     7.069719107023982e+00   3.533720642039814e+00   3.561161570216705e+00  1.13222001e+00  -4.58863020e-01   7.11332200e-01
C     1.777499248360469e+00   5.325139816827447e+00   3.533973844053539e+00 -8.99876400e-01  -4.24549080e-01   1.23090933e+00
C     5.520472090918199e-03   5.312764692804062e+00   5.304590148959514e+00 -2.31137760e-01  -9.13760700e-02   9.88634500e-01
C     1.765943725465171e+00   3.565111507413961e+00   5.372091374737903e+00  1.44025030e-01  -7.96931400e-02  -2.17596463e+00
C     8.697737966224840e-01   4.380462438531236e+00   4.444292448363299e+00  4.38917770e-01   2.59897740e+00  -4.36144660e-01
C     2.646560994289108e+00   6.206468283334514e+00   4.418618318628610e+00  1.11834290e+00  -1.23906940e-01   4.41698040e-01
C     8.618189741211206e-01   6.214348254145689e+00   6.192918563557400e+00  1.61157379e+00   5.38150450e-01   6.84781120e-01
C     2.653768508320431e+00   4.437146351103414e+00   6.199419997969879e+00  1.11405003e+00   7.02895620e-01   1.41076201e+00
C     3.552293812998255e+00   3.580049715381438e+00   3.557199548700996e+00  5.73916290e-01  -9.19546880e-01   2.95035490e-01
C     5.360272484784534e+00   5.345712302731989e+00   3.568103300326265e+00 -7.49094510e-01  -6.05977560e-01  -8.99361400e-02
C     3.559823054237359e+00   5.317308538711218e+00   5.327173607623255e+00 -6.07071540e-01   1.22301013e+00  -1.83719920e-01
C     5.292651411000772e+00   3.561477539602164e+00   5.370915783805008e+00  1.99455828e+00  -1.32553500e-02  -2.21229261e+00
C     4.466219373113857e+00   4.481523735930490e+00   4.450522269947467e+00 -1.13232662e+00  -1.08991312e+00   4.92839200e-02
C     6.231195713344672e+00   6.213645515485475e+00   4.469034024134472e+00 -1.26621330e-01   7.50818360e-01  -1.32420936e+00
C     4.423351603998590e+00   6.249382968039073e+00   6.214920695419277e+00  9.88298460e-01  -1.44083167e+00  -5.10343800e-02
C     6.224866729264956e+00   4.430538859025446e+00   6.201300531174001e+00 -2.62724280e-01   1.90654610e-01   9.19842810e-01
