64
Lattice="7.10842262195238 0 0 0 7.10842262195238 0 0 0 7.10842262195238 " PBC="1 1 1" Properties=species:S:1:pos:R:3:force:R:3 Energy="-501.45844564"
C     6.946594971833675e+00   7.076747417721054e+00   7.092730919234802e+00  3.87702446e+00   2.02747207e+00   2.71178113e+00
C     1.723240445249331e+00   1.801715796036928e+00   6.998241571800417e+00  1.68832006e+00  -2.88032712e+00   3.55036784e+00
C     1.813621621998940e-02   1.840907515478489e+00   1.859209429029750e+00 -8.79271580e-01  -3.42077514e+00  -1.63175084e+00
C     1.727528530110620e+00   2.488736951910820e-02   1.703433038871379e+00  1.47976124e+00  -1.36448318e+00   2.01414009e+00
C     7.617072198154458e-01   9.032404635701226e-01   8.896067222376413e-01  2.95158466e+00   4.94814500e-01  -8.82715790e-01
C     2.745835731831278e+00   2.592465684898229e+00   7.765786796945215e-01 -5.06371689e+00   2.05329850e-01   2.31915081e+00
C     9.736633221295578e-01   2.636507125672285e+00   2.722953435080593e+00 -3.30308810e-01   3.46381900e-02  -2.06688487e+00
C     2.656039009589485e+00   7.838906164541322e-01   2.717101923748261e+00 -4.70803000e-02   3.49289487e+00  -1.59003285e+00
C     3.606679927958518e+00   4.958906703938200e-03   7.063828357198787e+00  7.53089250e-01  -5.16046730e-01   1.48021910e-01
C     5.416676538758162e+00   1.875867164429006e+00   7.673833663617420e-02 -2.54648785e+00  -4.47759133e+00  -2.70023168e+00
C     3.545563203040508e+00   1.757623103535783e+00   1.687908457121978e+00  8.11630040e-01  -1.85744000e+00   2.67290066e+00
C     5.328577734343384e+00   7.025786211863333e+00   1.878044758614417e+00 -7.48842600e-01   1.24052938e+00  -2.49179615e+00
C     4.517548084421032e+00   8.363476476837793e-01   8.371156416636442e-01 -6.21278400e-01   1.87379196e+00   2.59008918e+00
C     6.216924915176986e+00   2.685754846257455e+00   9.590211799642032e-01  5.43839130e-01   1.16349971e+00   2.30149945e+00
C     4.301749026670095e+00   2.692231045769631e+00   2.679364232153622e+00  1.90367964e+00   1.18384714e+00  -1.91440391e+00
C     6.228562682521998e+00   8.362509731361474e-01   2.703112690200554e+00  1.33815840e-01   2.03214751e+00  -1.57262897e+00
C     7.092034080565363e+00   3.498209663830890e+00   6.867148539431960e-02 -5.26664100e-01   2.04966803e+00  -1.04524662e+00
C     1.701138226796965e+00   5.421162166684061e+00   7.007057579702193e+00  2.39557617e+00  -1.31862087e+00   2.86999336e+00
C     4.818998729931360e-02   5.337365663975810e+00   1.858778018860942e+00  8.95220320e-01  -3.58162880e+00  -1.71969504e+00
C     1.814520482039239e+00   3.469320465629400e+00   1.687435249428165e+00 -5.73780830e-01   3.59340810e+00   2.44208426e+00
C     8.631787442841004e-01   4.507836770690266e+00   8.528350652770598e-01  1.39288157e+00  -2.83673626e+00   3.70642240e-01
C     2.701968376327186e+00   6.272360730905545e+00   8.384997226319844e-01 -2.95808662e+00  -1.14006288e+00  -1.18834498e+00
C     9.313538485268653e-01   6.164497454985438e+00   2.637453541059911e+00  8.23199240e-01   3.29809905e+00   2.01681536e+00
C     2.657583243319454e+00   4.585775506654279e+00   2.713223994872147e+00 -6.67781300e-01  -6.21529674e+00  -1.20338546e+00
C     3.525864271191738e+00   3.426593087860878e+00   7.038832726403176e+00  3.02525758e+00   4.82418806e+00   1.16528131e+00
C     5.411275985756844e+00   5.368945471223196e+00   7.064420062297676e+00 -1.65976399e+00  -3.26140187e+00   3.01508925e+00
C     3.438083426520750e+00   5.280954146158431e+00   1.668885323011691e+00  3.21874104e+00   2.48548034e+00   2.59313019e+00
C     5.282368011417549e+00   3.663822760295043e+00   1.874088779257934e+00  5.25424890e-01  -3.02487184e+00  -3.34313577e+00
C     4.423281443867330e+00   4.410118351196519e+00   8.431794104954090e-01 -5.60424950e-01   1.48410661e+00   5.26553140e-01
C     6.267646282855508e+00   6.104609492001521e+00   1.067345366006990e+00 -3.63349046e+00   4.04904573e+00  -5.74746964e+00
C     4.309453490526782e+00   6.180081249895264e+00   2.687904930847326e+00  3.23395011e+00   7.57562630e-01  -9.65843470e-01
C     6.316275926093868e+00   4.429383242760112e+00   2.681532727558079e+00 -2.89487433e+00   3.65061290e-01   9.92348660e-01
C     3.255053344037299e-02   7.014109419278138e+00   3.518625337932435e+00 -3.15558920e-01   2.09547204e+00   2.14675377e+00
C     1.813826984328432e+00   1.729727094142759e+00   3.596890634831611e+00 -3.12957440e-01  -7.68707490e-01  -2.53906460e-01
C     7.005584074777293e+00   1.788631820109878e+00   5.242899632167618e+00  2.07307193e+00   7.51810700e-02   1.73365190e+00
C     1.665363739361517e+00   1.173015551380374e-01   5.357523160167796e+00  4.76484415e+00  -4.34949270e+00   2.11708121e+00
C     9.028241232572691e-01   8.823598986292298e-01   4.488674027159722e+00 -3.15730308e+00   1.67493505e+00  -4.38369753e+00
C     2.645645287287199e+00   2.546543710920053e+00   4.548118779993282e+00  1.75571750e-01   3.66158085e+00  -1.09784826e+00
C     7.899641238248863e-01   2.614508121516361e+00   6.247253853295931e+00  7.57107140e-01   2.67287186e+00  -2.56807937e+00
C     2.706610673887629e+00   8.751519580925498e-01   6.198227133570017e+00 -1.33565060e+00   5.96844800e-01   5.57929330e-01
C     3.588659081437651e+00   3.110169474196460e-02   3.699683046391514e+00 -8.14192200e-01  -1.18162789e+00  -4.33257823e+00
C     5.318681672708723e+00   1.900928334881173e+00   3.397545300750736e+00 -1.49599310e-01  -3.14430205e+00   3.24800593e+00
C     3.644205077716819e+00   1.723548595369908e+00   5.384707047782748e+00  3.90437680e-01   1.40154830e+00  -1.94759748e+00
C     5.462597304304493e+00   5.968053921186500e-02   5.236797335685253e+00 -3.37006461e+00  -6.44342680e-01   1.29904565e+00
C     4.615154119753156e+00   9.706048522130766e-01   4.332197315204829e+00 -4.33233521e+00  -1.70975377e+00   3.49913243e+00
C     6.143177518442403e+00   2.760413684940374e+00   4.283311271162565e+00  3.31489668e+00  -1.66434954e+00   4.21226294e+00
C     4.530910994851690e+00   2.666416524688197e+00   6.258597829534057e+00 -1.37648654e+00  -1.10821520e-01  -2.39040166e+00
C     6.194779832936222e+00   9.156354200926164e-01   6.174775949757053e+00  4.86529970e-01   7.42345550e-01   1.31345104e+00
C     1.164749166715576e-01   3.503433501445875e+00   3.583296985002706e+00 -1.78363029e+00   3.36397210e+00  -1.94973010e+00
C     1.880433259698963e+00   5.438925759390310e+00   3.630505441306651e+00 -3.40965082e+00  -1.92977468e+00  -1.46228172e+00
C     7.049591892712356e+00   5.195315282475529e+00   5.331262443398504e+00  1.81433938e+00   4.82420536e+00  -3.57666570e-01
C     1.697335007442586e+00   3.547049147704993e+00   5.371252509784517e+00  2.30781374e+00  -1.20905071e+00   3.57405440e-01
C     9.337547182667703e-01   4.464544628744585e+00   4.458613289826230e+00 -4.18883750e-01  -1.07906846e+00   3.75737700e-01
C     2.682852477301708e+00   6.256687512039159e+00   4.599584683857023e+00 -6.84430770e-01   1.82594883e+00  -2.63079150e+00
C     8.067183916033215e-01   6.363222223771587e+00   6.222741310901575e+00  2.13354700e-02  -4.76983089e+00  -4.70866960e-01
C     2.668746310201902e+00   4.387967368964980e+00   6.247360337466779e+00 -1.19000677e+00   1.75432567e+00  -2.13858866e+00
C     3.419294586020019e+00   3.536934715327447e+00   3.668389139901905e+00  2.80796423e+00   7.18117530e-01  -2.76747645e+00
C     5.236816101920970e+00   5.306372230510348e+00   3.488750343682003e+00  2.43489597e+00   5.13821180e-01   1.98113317e+00
C     3.600710843316052e+00   5.341088202733452e+00   5.301293475801037e+00 -6.14125400e-01   1.41703470e-01   3.91342798e+00
C     5.408717877708584e+00   3.639569675326317e+00   5.302968291254535e+00 -5.05267747e+00  -3.28368861e+00  -1.10178180e+00
C     4.379845285279368e+00   4.498958635174790e+00   4.407581355163440e+00  1.71774898e+00  -2.84662655e+00   1.11210756e+00
C     6.216747133527260e+00   6.186393671350277e+00   4.442589412472000e+00  7.03365130e-01  -1.41864584e+00  -1.71717952e+00
C     4.606316786583520e+00   6.260476585632524e+00   6.179020459987682e+00 -3.75481311e+00  -1.73036570e-01  -5.91847970e-01
C     6.205389651286155e+00   4.341280670881344e+00   6.250198730618944e+00  2.40579052e+00   3.44209967e+00   6.30845700e-02
