64
Lattice="7.10842262195238 0 0 0 7.10842262195238 0 0 0 7.10842262195238 " PBC="1 1 1" Properties=species:S:1:pos:R:3:force:R:3 Energy="-510.96086113"
C     3.962860309578560e-02   3.783983962768880e-02   7.036837818679099e+00 -1.48344370e-01  -1.08216885e+00   2.18795852e+00
C     1.808910657075987e+00   1.803051326478774e+00   7.051151196298279e+00 -3.25115500e-01  -4.21870140e-01   1.76733348e+00
C     7.094263495151675e+00   1.780208054968273e+00   1.734941051050303e+00  6.14122260e-01  -1.96641600e-02  -3.91941710e-01
C     1.766581706395316e+00   4.575279351982040e-02   1.804001935835746e+00 -5.67002420e-01  -2.81493794e+00  -3.84495200e-01
C     9.298717424105953e-01   8.952809495098299e-01   8.398302060937698e-01 -8.49079100e-01   8.87271420e-01   4.87392820e-01
C     2.677724532307867e+00   2.681909260704261e+00   8.973758016559440e-01 -4.96460810e-01  -5.95173710e-01   1.63331610e-01
C     8.440416621592151e-01   2.674723853867286e+00   2.626158328600958e+00  1.05684602e+00  -1.37885057e+00   1.81921033e+00
C     2.659279597293490e+00   8.562262093721570e-01   2.710511207547676e+00  1.10932162e+00   2.06360718e+00  -2.19408001e+00
C     3.560627514425264e+00   7.093802442860541e+00   5.071724479340220e-02 -4.79456160e-01  -4.10645530e-01  -1.96556735e+00
C     5.291604198180393e+00   1.752331735905907e+00   7.041650789466649e+00  1.37263350e+00   7.52116270e-01   1.28770855e+00
C     3.553965998335384e+00   1.781009316365999e+00   1.775674942779273e+00  5.65597720e-01  -9.21849660e-01  -2.18036300e-01
C     5.387274538948867e+00   7.099302371610087e+00   1.738743630646646e+00 -1.23638456e+00   7.36537520e-01   1.12904913e+00
C     4.466200038204330e+00   8.581524497337246e-01   8.134199991967790e-01 -4.42613140e-01   9.60576860e-01   3.35003298e+00
C     6.184049668991332e+00   2.683225598405032e+00   8.244683361381402e-01  5.96685440e-01  -2.75394711e+00   1.26106869e+00
C     4.458818794324175e+00   2.659894973439704e+00   2.667129215140078e+00 -1.07762407e+00  -5.54570330e-01  -1.39054240e-01
C     6.254133242539115e+00   8.946578962671869e-01   2.668354209610182e+00 -1.50624430e+00   6.38131140e-01  -1.29562893e+00
C     7.077500697266094e+00   3.541743349977199e+00   6.657677541665800e-03  6.52729710e-01   5.74604900e-01  -8.53568320e-01
C     1.781757620015207e+00   5.341812479914204e+00   7.088175131177644e+00 -1.23870531e+00   6.96929700e-02   2.65949269e+00
C     7.094797479858889e+00   5.269513068867315e+00   1.829386184095992e+00 -2.89606550e-01   1.41862361e+00  -2.41766755e+00
C     1.790406224564282e+00   3.493880989876441e+00   1.832520358713377e+00 -8.01008590e-01   2.92861779e+00  -2.74038060e+00
C     8.498832216998785e-01   4.413511130228819e+00   8.814643795475622e-01  1.37858499e+00   3.18045000e-01   6.84882840e-01
C     2.631144815984662e+00   6.179680903533306e+00   9.771330853788321e-01  1.37351817e+00   2.34736430e+00  -2.01724074e+00
C     8.222362203512340e-01   6.186997460767619e+00   2.684468790437044e+00  1.39081160e+00   6.80124820e-01  -7.09683900e-02
C     2.640808503283873e+00   4.496862574596832e+00   2.675451756343574e+00  1.03865332e+00  -3.35470175e+00   8.19367770e-01
C     3.516067798557985e+00   3.617938034451395e+00   5.418665262154560e-02  1.17606468e+00  -1.65949330e+00  -1.42088992e+00
C     5.381431913144809e+00   5.361352040927834e+00   7.056623331115381e+00 -2.40382141e+00   2.79675240e-01   3.15692569e+00
C     3.569640638886293e+00   5.374250629192955e+00   1.867482708864490e+00 -3.31502130e-01  -2.03001022e+00  -2.46921183e+00
C     5.334481848003102e+00   3.472192339452106e+00   1.747279353444516e+00 -1.29485833e+00   2.75913588e+00   5.51044980e-01
C     4.447182875169045e+00   4.428792035250806e+00   9.010170200588128e-01  8.74020600e-02   1.53275402e+00   4.23434380e-01
C     6.260974104131698e+00   6.264582979211645e+00   8.985812479638435e-01  2.73027720e-01  -2.27769149e+00  -1.72218427e+00
C     4.495751670309778e+00   6.207782204171594e+00   2.675486018940602e+00  5.59054890e-01   5.18357200e-01   2.43606600e-01
C     6.184878155647692e+00   4.349590701261028e+00   2.656021380701387e+00  1.38199647e+00   1.85871795e+00   7.45638520e-01
C     7.096279585975158e+00   6.054343063370680e-02   3.548057548537866e+00  1.17395532e+00  -2.73791607e+00   3.24688380e-01
C     1.790566874915494e+00   1.808058357203849e+00   3.543645990375668e+00 -3.40918070e-01  -4.14730860e-01   1.36076260e-01
C     1.041582949663360e-02   1.803178851580576e+00   5.366762901141951e+00  1.55234600e-02  -2.66961200e-01  -2.49531964e+00
C     1.805291332614788e+00   7.100286319469148e+00   5.316133800789038e+00 -1.07534760e+00   7.53519840e-01  -1.02119439e+00
C     9.228309919739378e-01   9.118874331819953e-01   4.375446522277885e+00 -1.08927363e+00   1.81979960e-01   3.09702875e+00
C     2.683278982658908e+00   2.699309186509270e+00   4.459090407152485e+00 -1.17106795e+00  -3.13265670e-01  -8.07299200e-02
C     8.988725511228112e-01   2.674290169003240e+00   6.191104280852098e+00  5.46049300e-02   8.66435370e-01   1.09479069e+00
C     2.698008629506715e+00   8.889245269187999e-01   6.200002106698231e+00 -1.89480876e+00  -1.05495981e+00   1.63685986e+00
C     3.613035781875738e+00   7.102651078422143e+00   3.516146133375257e+00 -2.05185163e+00  -3.69654580e-01   2.14884199e+00
C     5.340882840403960e+00   1.772590811457133e+00   3.543203064562216e+00 -9.91285640e-01   2.85284090e-01   1.53739022e+00
C     3.486032367209020e+00   1.758472773291551e+00   5.359107698654021e+00  3.67331769e+00   1.38494911e+00  -1.89864756e+00
C     5.389747559178364e+00   6.440515230624800e-03   5.289688051778946e+00 -3.07226880e+00   6.54113050e-01   1.50395471e+00
C     4.420491245820528e+00   8.865606920607451e-01   4.462570619783011e+00  1.10080049e+00  -4.70081200e-02  -1.52846448e+00
C     6.179287949930872e+00   2.666319352550981e+00   4.512489375463509e+00  1.20604885e+00  -7.00567700e-02  -1.78980325e+00
C     4.444535485332678e+00   2.638331146916577e+00   6.212523166638004e+00 -2.33294366e+00   1.68825575e+00   5.21058520e-01
C     6.223486557929055e+00   9.308283228425687e-01   6.188999547998542e+00  8.92459370e-01  -1.77153215e+00   3.84670300e-02
C     7.049060182700380e+00   3.508491997150720e+00   3.564313018301056e+00  1.42942558e+00   4.81270000e-04   5.84722500e-02
C     1.714658944209788e+00   5.224862862780082e+00   3.545605284902418e+00  7.41553800e-01   5.41834448e+00   3.46184370e-01
C     7.086186976455056e+00   5.286154170557639e+00   5.354003851212862e+00  1.38540823e+00   1.67266621e+00  -1.19670834e+00
C     1.783133952802891e+00   3.607472019491064e+00   5.333005002119571e+00 -3.18957940e-01  -1.42029191e+00   4.30535700e-02
C     8.761750733602464e-01   4.411819467813711e+00   4.419294045282867e+00 -1.54195243e+00  -5.38437210e-01   1.22747004e+00
C     2.609082831204325e+00   6.235705367739026e+00   4.419298736841796e+00  2.56269251e+00  -2.04124832e+00   1.89291320e-01
C     9.263102094252968e-01   6.207921813591851e+00   6.186966041539639e+00 -1.45882314e+00   5.46906900e-01   4.98351580e-01
C     2.653856937097824e+00   4.514870554872756e+00   6.245674717210897e+00  4.05320180e-01  -2.34453391e+00  -2.97330290e-01
C     3.549838705993759e+00   3.591729138083003e+00   3.594506754221768e+00  9.96526680e-01  -8.51335280e-01  -1.57203263e+00
C     5.437561510921080e+00   5.288982611918137e+00   3.605614944081589e+00 -4.02754000e+00   8.03126800e-01  -2.14298191e+00
C     3.528369563659930e+00   5.345097992849168e+00   5.382247817893133e+00  1.15335198e+00   9.07188290e-01  -2.77193766e+00
C     5.311467903265495e+00   3.581645200838497e+00   5.395747281122323e+00 -8.25046470e-01  -1.77695243e+00  -2.15880844e+00
C     4.464154163090068e+00   4.434071816151811e+00   4.431768331801801e+00 -5.73354480e-01   1.10605530e+00   2.36122275e+00
C     6.229155098463148e+00   6.240502486744133e+00   4.452778625455508e+00  1.51208897e+00  -9.08270060e-01  -1.61152480e-01
C     4.442704142413088e+00   6.241896874925272e+00   6.205007075980746e+00  6.33301080e-01  -4.57629720e-01   6.29196830e-01
C     6.165688471195419e+00   4.441774645071296e+00   6.244242938726777e+00  2.69078646e+00   7.12418600e-02  -6.94496750e-01
