64
Lattice="7.10842262195238 0 0 0 7.10842262195238 0 0 0 7.10842262195238 " PBC="1 1 1" Properties=species:S:1:pos:R:3:force:R:3 Energy="-514.18827766"
C     3.164847460989500e-02   1.374264236701980e-02   7.093839690995070e+00 -6.99649960e-01  -5.12345340e-01   3.61281330e-01
C     1.782099108637871e+00   1.776460281310330e+00   7.080055606524176e+00  5.92630340e-01   5.59011660e-01   1.05798259e+00
C     1.968684753031620e-02   1.750616971117284e+00   1.741748929561930e+00 -1.08003466e+00   8.39211750e-01   9.68299610e-01
C     1.778410334887675e+00   5.724199483207400e-03   1.800659768772501e+00 -3.30584850e-01   2.25068840e-01  -1.02338680e+00
C     9.110747272238507e-01   9.180328067054377e-01   8.775223326994149e-01  3.50153300e-02  -1.32069004e+00  -4.03872200e-01
C     2.659236306999734e+00   2.662624252304653e+00   9.303359934919077e-01 -1.68975070e-01   2.14121490e-01  -1.09423604e+00
C     8.483180181231808e-01   2.673078467283435e+00   2.661914547390272e+00  8.56474030e-01  -4.61517330e-01   3.90340440e-01
C     2.685644736791071e+00   8.878114901049601e-01   2.653423891991813e+00 -9.22891910e-01  -3.44474190e-01   1.02791903e+00
C     3.560070569512987e+00   7.087762558328779e+00   4.265693330035800e-03 -7.41785950e-01   4.16913030e-01   1.84040720e-01
C     5.299020842005197e+00   1.793744553079313e+00   7.080656836909375e+00  7.10924570e-01  -1.66107173e+00   3.11817690e-01
C     3.553446656978767e+00   1.754842288606838e+00   1.783667795341653e+00  2.78538700e-01   6.02052800e-01  -5.27723910e-01
C     5.339734687982378e+00   5.703371804930800e-03   1.776917921558606e+00  2.51923300e-02   1.47428570e-01  -7.63519900e-01
C     4.425526070478048e+00   8.650815979352482e-01   8.603116331045495e-01  7.70047980e-01   1.02787178e+00   1.09914170e+00
C     6.207225046006640e+00   2.631808458320465e+00   8.475813012028440e-01  1.23776960e-01   7.65285270e-01   1.34290704e+00
C     4.456129606962802e+00   2.664648731066829e+00   2.650864433343256e+00 -2.99852490e-01  -2.83328040e-01   2.58656510e-01
C     6.248452688770794e+00   8.585319684174064e-01   2.655336555266176e+00 -8.98734960e-01   1.24248570e+00   1.08897000e-02
C     7.104163537503000e+00   3.527896213797665e+00   2.868945152586760e-02  5.00346350e-01   1.06492826e+00  -1.65259505e+00
C     1.784162896977136e+00   5.337497098710053e+00   3.914167614631560e-02 -4.55724010e-01   7.46128500e-02  -9.25799810e-01
C     1.687823866892800e-03   5.321906124293381e+00   1.800864207007052e+00 -8.11646980e-01  -4.70951980e-01  -1.32680145e+00
C     1.747720786489218e+00   3.567679496169662e+00   1.810417216166070e+00  1.01273887e+00  -8.04294360e-01  -6.60915660e-01
C     9.036622773683933e-01   4.428366098567416e+00   8.864628090812675e-01 -1.06267656e+00   4.07449950e-01   1.07901578e+00
C     2.654485605994336e+00   6.212809564985363e+00   9.360466158879108e-01  6.59731880e-01   1.80779050e-01  -8.24276970e-01
C     8.530087951258926e-01   6.216092305635506e+00   2.649291623754355e+00  1.71222774e+00  -5.69633000e-03   7.05672480e-01
C     2.677532675981352e+00   4.421501068337925e+00   2.685661583752680e+00 -3.51177060e-01   9.38720680e-01  -5.35559140e-01
C     3.539059991522375e+00   3.566770115663885e+00   3.303305316781860e-02 -1.01260700e-02   8.75440200e-02  -4.92298500e-01
C     5.332722513404653e+00   5.341923158054398e+00   7.085444004122814e+00  5.89450900e-02   6.02187910e-01   7.84477800e-01
C     3.570061741842302e+00   5.339790631268397e+00   1.810969114098287e+00  2.02469630e-01  -3.40603670e-01  -5.18495250e-01
C     5.330355693009097e+00   3.551618228512450e+00   1.754195848653776e+00  1.07354500e-02  -5.45491760e-01   6.00203020e-01
C     4.466835104681201e+00   4.464714093539846e+00   8.990492665091444e-01 -8.74937280e-01  -3.07012440e-01  -4.38884240e-01
C     6.217833727008953e+00   6.246838294909566e+00   8.701294310061626e-01  5.73355890e-01  -1.12803982e+00   5.82469630e-01
C     4.479470468056703e+00   6.251200804955686e+00   2.674031138082967e+00 -6.47451410e-01  -1.35793231e+00  -4.47219000e-02
C     6.185081172197720e+00   4.383296993135188e+00   2.696353504383874e+00  1.20346164e+00   2.18937819e+00  -1.10039763e+00
C     7.100099154701563e+00   7.085010248174542e+00   3.541643547723614e+00  6.49672660e-01   8.03776970e-01   5.35229210e-01
C     1.778582429799305e+00   1.784022932135748e+00   3.560682675784796e+00 -3.01242200e-01   4.18327000e-02  -1.02906548e+00
C     4.961181399176600e-03   1.760717684239173e+00   5.328195301206426e+00  4.47132910e-01   8.06784230e-01   1.00200290e-01
C     1.801459039811894e+00   7.104118256850912e+00   5.303600869783489e+00 -6.80356380e-01  -2.85285080e-01   5.16666400e-01
C     8.895674837447788e-01   9.031246673656428e-01   4.421550258622456e+00  2.89380800e-01  -1.00894160e+00   4.02203610e-01
C     2.667393079787733e+00   2.666217986444420e+00   4.419722540998401e+00 -5.98142770e-01   5.48750420e-01   1.18080078e+00
C     9.169988155511326e-01   2.688468060087282e+00   6.197314269937157e+00 -1.12290081e+00  -9.70619070e-01   7.41695360e-01
C     2.679826848297731e+00   8.760530217438610e-01   6.228318579289227e+00 -5.37392780e-01   1.04322320e-01  -8.92441180e-01
C     3.562752079777930e+00   7.091577080075124e+00   3.539462043905762e+00  9.46902700e-02   8.85103620e-01   4.51539220e-01
C     5.347040156077404e+00   1.789759571358541e+00   3.559704201411153e+00 -2.58484290e-01  -3.75430490e-01  -3.99394360e-01
C     3.526185642978388e+00   1.784030467063725e+00   5.318470836893814e+00  6.23225340e-01  -2.21775860e-01   3.69342780e-01
C     5.332561223295404e+00   3.091012275235560e-02   5.306226081341282e+00 -2.32568390e-01  -8.61526780e-01   9.41848590e-01
C     4.420557780656251e+00   9.103767512067930e-01   4.431232712157383e+00  8.20452660e-01  -4.43606600e-01  -3.84343000e-03
C     6.222510926924461e+00   2.667173145191869e+00   4.486640591785045e+00 -7.21799260e-01  -5.84539240e-01  -6.60548840e-01
C     4.403772164734061e+00   2.661211879814285e+00   6.220464625304841e+00  1.80156490e-01   4.95132510e-01   3.08155560e-01
C     6.242360983838132e+00   8.695940246144241e-01   6.210649173182693e+00 -8.26616310e-01   1.21118665e+00  -1.77155430e-01
C     7.067430621445698e+00   3.536666159120863e+00   3.573694430138027e+00  8.93503280e-01   1.40600960e-01   6.14170100e-02
C     1.799150863902953e+00   5.344891208835151e+00   3.524276391746882e+00 -1.61120698e+00  -1.03050430e+00   7.04185390e-01
C     9.239101216118800e-03   5.318983496333169e+00   5.330532621648109e+00 -3.81853660e-01   7.78939940e-01   3.38457050e-01
C     1.766973949155488e+00   3.589806451932745e+00   5.333457879724691e+00  3.26574070e-01  -4.79881330e-01  -4.70077560e-01
C     8.662533503199290e-01   4.453026211815363e+00   4.436137950270541e+00  7.75321710e-01  -2.10894630e-01  -3.81771870e-01
C     2.664331055659941e+00   6.185019968678962e+00   4.408002458119450e+00  4.38989070e-01   1.55638856e+00   6.36013090e-01
C     9.057107825990249e-01   6.208381657451139e+00   6.215330993572904e+00  4.18509100e-02   5.39458960e-01   2.16853170e-01
C     2.642799714628187e+00   4.487859544095923e+00   6.236034487706332e+00  9.20915980e-01  -1.45647588e+00  -4.55317300e-02
C     3.550081387542006e+00   3.546844851638894e+00   3.559121026419408e+00  8.90493600e-01   1.11575210e-01  -2.37700490e-01
C     5.364394659061873e+00   5.342978829897693e+00   3.563404277553315e+00 -1.22503140e+00  -6.15374890e-01   2.31332380e-01
C     3.538407580494311e+00   5.328706538961256e+00   5.319948251451155e+00  5.55106340e-01   4.21917650e-01   4.85662540e-01
C     5.306429097891308e+00   3.534874552283719e+00   5.380225969247327e+00  6.76409900e-01   1.14342606e+00  -1.40005101e+00
C     4.452839331384683e+00   4.453384973904995e+00   4.451692813900304e+00 -4.56124670e-01  -5.74525940e-01   2.16905000e-01
C     6.231691952327775e+00   6.230804394679441e+00   4.457895907815420e+00 -1.65843770e-01  -3.97649140e-01  -5.37814730e-01
C     4.430434223044479e+00   6.242951196168271e+00   6.221724308877332e+00  3.82450350e-01  -8.54634870e-01  -9.68126870e-01
C     6.214735094504669e+00   4.461863047395416e+00   6.225282500903999e+00  1.49088090e-01  -1.24452565e+00   3.55225560e-01
