64
Lattice="7.10842262195238 0 0 0 7.10842262195238 0 0 0 7.10842262195238 " PBC="1 1 1" Properties=species:S:1:pos:R:3:force:R:3 Energy="-509.39124987"
C     7.078012503694735e+00   7.096837739319280e+00   1.190447536171400e-02  4.27975560e-01   9.36367670e-01   5.04289710e-01
C     1.751994156915683e+00   1.832349898738949e+00   7.075939047900706e+00 -2.00728130e-01  -2.06623549e+00  -1.72926260e-01
C     7.098504309002539e+00   1.744200695607794e+00   1.799644828190817e+00  8.14461920e-01   8.47016530e-01  -7.03504040e-01
C     1.851853206797217e+00   5.701644458234140e-02   1.724353553147397e+00 -2.03991023e+00  -3.81101273e+00   9.22600930e-01
C     8.966977292222221e-01   8.452305458424100e-01   9.284661940059429e-01 -7.26662370e-01   2.58974007e+00  -2.23440598e+00
C     2.645230155406191e+00   2.678427626389211e+00   7.999452732783070e-01 -3.40434100e-02  -7.12040090e-01   4.18581338e+00
C     8.731255600562664e-01   2.658554396017798e+00   2.670156194744353e+00  1.49210420e-01  -4.62275390e-01   8.98886570e-01
C     2.603504638721732e+00   8.493891152435624e-01   2.677838195985561e+00  2.88332750e+00   3.50053874e+00  -1.50530041e+00
C     3.593346801818636e+00   3.129717636401460e-02   1.651869465280840e-02  6.93647430e-01   1.47925670e-01  -2.32501769e+00
C     5.380176210288986e+00   1.774620195030917e+00   8.357614160703079e-02 -1.45054244e+00   1.47565662e+00  -3.09072902e+00
C     3.545042368915140e+00   1.805971608659522e+00   1.763585577345212e+00  3.79851700e-02  -5.98318690e-01  -1.26128660e-01
C     5.291960898827464e+00   7.074422323766277e+00   1.765973509755949e+00  1.23567295e+00  -4.73634470e-01   5.82800060e-01
C     4.468012472719752e+00   9.375961098506183e-01   8.812700352731314e-01 -1.12312235e+00  -2.31360733e+00   1.87545537e+00
C     6.275511610316086e+00   2.677748132270965e+00   9.110831862467687e-01 -2.12752400e+00  -3.91879890e-01   6.81516660e-01
C     4.467203392057143e+00   2.657463821819438e+00   2.694350777394916e+00 -1.85206835e+00   1.19202200e-02  -8.77195690e-01
C     6.189753680554298e+00   8.507777456023794e-01   2.632027895326744e+00  1.32403836e+00  -6.70966850e-01  -1.01234350e-01
C     7.087226654347457e+00   3.550666481807859e+00   7.101094191699911e+00  5.36692360e-01   3.96239420e-01   4.71662520e-01
C     1.795982497772767e+00   5.338611272871512e+00   1.092685399878540e-02 -1.03286255e+00  -1.07643034e+00  -1.95049460e-01
C     3.828440037834360e-02   5.300705680334589e+00   1.781928222158087e+00 -7.11697420e-01   2.39871088e+00   1.86160580e-01
C     1.806745715882840e+00   3.470151724570583e+00   1.859747039032501e+00 -1.27424021e+00   3.44044880e+00  -4.14808412e+00
C     8.449964654855333e-01   4.459020744610809e+00   9.179193562804226e-01  2.88839874e+00  -2.21234992e+00  -1.17213496e+00
C     2.712014496763353e+00   6.217064027007660e+00   8.080965725808872e-01 -2.77000930e-01   1.45127517e+00   2.72828269e+00
C     9.941115528067022e-01   6.211754035310520e+00   2.672690844997966e+00 -2.06894800e+00  -2.31828710e-01  -1.11577893e+00
C     2.647859205512198e+00   4.486621327959745e+00   2.622929327625823e+00  6.16827390e-01  -2.33412265e+00   3.14144652e+00
C     3.530820263442402e+00   3.544957352180605e+00   1.338693689911500e-02  1.45703147e+00   3.51238130e-01  -3.23404240e-01
C     5.354321384451296e+00   5.349538411207203e+00   7.102190026131010e+00 -4.39197750e-01  -1.68052140e+00   4.48860330e-01
C     3.541368807189351e+00   5.365192579500967e+00   1.777002653956236e+00 -8.50283300e-01  -1.62432302e+00  -1.72069450e-01
C     5.307474462521806e+00   3.574008266996700e+00   1.854229481394857e+00  9.42463800e-01   2.84161450e-01  -2.36153498e+00
C     4.370568154002232e+00   4.436560545995300e+00   9.642133140143035e-01  2.51396508e+00   4.70582000e-02  -2.50887251e+00
C     6.244655227238737e+00   6.161839402515142e+00   8.961100048400006e-01 -9.72468010e-01   2.12611146e+00  -1.74923600e-01
C     4.377529716610903e+00   6.150779194508005e+00   2.712474482791094e+00  1.95567750e+00   2.69151188e+00  -9.77548740e-01
C     6.218043283307790e+00   4.521404759113513e+00   2.626612130301019e+00 -5.38724190e-01  -2.51243985e+00   3.22025722e+00
C     2.819946795467100e-02   7.054004374969495e+00   3.481931447115316e+00 -5.91873190e-01   5.98360820e-01   1.35721466e+00
C     1.716446357077587e+00   1.769005820677189e+00   3.569797024183933e+00  8.82933480e-01  -1.69611027e+00  -1.99712530e-01
C     7.085365882558220e+00   1.741852357111051e+00   5.288870085588062e+00 -1.01373052e+00   7.35220580e-01  -4.70893800e-02
C     1.803882229998825e+00   5.764930744820001e-04   5.449409189986060e+00 -1.19369190e-01   1.20437360e+00  -3.72701633e+00
C     8.904413932216815e-01   8.113262843982841e-01   4.444315124231458e+00 -7.88054400e-01   1.82189569e+00   9.35917580e-01
C     2.611176474918593e+00   2.637548580670341e+00   4.409914623804229e+00  1.27734160e-01   7.85710240e-01   1.12273449e+00
C     7.749010208719754e-01   2.670864833395340e+00   6.171948077070365e+00  3.51547929e+00  -3.37503190e-01   5.15896930e-01
C     2.738228795532937e+00   9.142029307662343e-01   6.199939268242270e+00 -2.78928998e+00   2.23681410e-01   1.82912818e+00
C     3.551823093252358e+00   2.292331234920220e-02   3.470973955815038e+00 -9.60831870e-01  -1.42025990e-01   4.51423178e+00
C     5.356833785342110e+00   1.733509130397730e+00   3.477617203258785e+00 -9.93835620e-01   1.30032863e+00   2.77988958e+00
C     3.534919690767356e+00   1.795117615992592e+00   5.314695553640332e+00  1.84562235e+00  -8.57636000e-03   2.76214580e-01
C     5.346239676606166e+00   7.098617617259102e+00   5.269243588565790e+00 -7.02171090e-01   1.16327221e+00   1.71876735e+00
C     4.449365303081837e+00   9.119045644805095e-01   4.462241002226121e+00 -4.67835900e-02  -5.99233740e-01  -3.12924236e+00
C     6.233936650022718e+00   2.651127018474839e+00   4.333004334424878e+00  8.99095500e-02   8.73162110e-01   2.37545059e+00
C     4.497900830804708e+00   2.674421177232126e+00   6.250092672953453e+00 -1.55106769e+00  -2.94746000e-03  -4.82336000e-02
C     6.139295182344264e+00   9.361288603376241e-01   6.206136604335065e+00  3.24829791e+00  -2.36372860e+00   9.19115600e-02
C     2.828348951003940e-02   3.629943307245861e+00   3.517612316624858e+00 -9.37657580e-01  -1.27413015e+00   3.29715440e-01
C     1.837566770099767e+00   5.338529952516740e+00   3.639046921926842e+00 -4.06928500e-01   1.83011463e+00  -2.98428483e+00
C     2.537664224804280e-02   5.376907331062953e+00   5.272340088543289e+00 -5.24232500e-01  -5.14219820e-01   2.91885990e+00
C     1.716792324006503e+00   3.559816443404322e+00   5.296939638030513e+00  1.12815365e+00  -4.96103420e-01   1.18301293e+00
C     9.210099562671462e-01   4.527220159658934e+00   4.453127649006150e+00 -7.03710930e-01  -2.33996204e+00  -6.72520440e-01
C     2.672123237451759e+00   6.313902210528372e+00   4.489255425045812e+00  1.20392839e+00  -3.69400054e+00  -8.39753300e-02
C     8.873941546129400e-01   6.286014304737136e+00   6.282074745836906e+00  1.84738870e-01  -2.59498526e+00  -1.76439304e+00
C     2.679236635967593e+00   4.367678793459881e+00   6.223955642737750e+00 -1.35450101e+00   3.10907508e+00  -4.85712000e-01
C     3.513024469581684e+00   3.519916867238262e+00   3.577475257961152e+00  1.08410819e+00   7.18620620e-01  -1.09956672e+00
C     5.286179618710618e+00   5.321865961705579e+00   3.678436255517239e+00 -5.07202850e-01  -1.40997066e+00  -5.37771909e+00
C     3.596729273638137e+00   5.318042056841376e+00   5.361650381425195e+00 -1.84907930e+00   5.14280020e-01  -3.22806200e-02
C     5.338080202617573e+00   3.567143165682982e+00   5.335124946997534e+00  1.96689510e-01  -2.13150370e+00  -3.45854580e-01
C     4.379065846739085e+00   4.367834610083711e+00   4.487432470064913e+00  1.97199527e+00   2.12307240e+00  -9.54453200e-02
C     6.208006261652577e+00   6.184278275862791e+00   4.372618223085840e+00  1.23938606e+00   1.96415516e+00   2.60487537e+00
C     4.491966577433080e+00   6.247066546359894e+00   6.200623311750992e+00 -3.98434560e-01  -1.18039273e+00   6.84685540e-01
C     6.247800562079635e+00   4.409453500428870e+00   6.215073313252929e+00 -1.22818027e+00   2.31192517e+00  -7.43844930e-01
