64
Lattice="7.10842262195238 0 0 0 7.10842262195238 0 0 0 7.10842262195238 " PBC="1 1 1" Properties=species:S:1:pos:R:3:force:R:3 Energy="-508.40572959"
C     7.076287147356409e+00   2.328861418764400e-02   4.316724696024780e-02  7.72684530e-01  -1.80993740e-01   1.66884630e-01
C     1.834440627999944e+00   1.739114405970505e+00   3.773143618273380e-02 -1.94518379e+00   1.74322438e+00  -1.45970573e+00
C     2.795031774184000e-04   1.824575630172134e+00   1.898498960366562e+00  5.45685900e-02  -4.62994850e-01  -2.69382810e+00
C     1.754960786011914e+00   1.942611058861460e-02   1.777657197511086e+00 -1.33944940e-01   3.28298000e-03   7.37332620e-01
C     8.469862551453238e-01   9.356587803497636e-01   9.773334007282637e-01  1.13977974e+00  -7.87442330e-01  -1.97549370e+00
C     2.740674661588027e+00   2.715675760918010e+00   7.592536766639265e-01 -5.02944330e-01  -3.19520414e+00   3.95448936e+00
C     1.015199115014289e+00   2.659147736053889e+00   2.669248164838874e+00 -1.77163831e+00   5.96826950e-01  -3.78860100e-01
C     2.632084833791930e+00   9.001173070077993e-01   2.685939949582479e+00  2.26694509e+00  -6.18746760e-01  -5.41199360e-01
C     3.568229048322414e+00   7.081797098981848e+00   7.100103206502457e+00 -5.77356800e-01  -9.24653100e-02  -4.62305870e-01
C     5.366469394371971e+00   1.735673005327484e+00   1.104040394171728e-01 -8.30305450e-01   1.61689103e+00  -2.21374356e+00
C     3.568059654611379e+00   1.749915796310048e+00   1.773936791280230e+00 -2.58854650e-01   1.36837954e+00  -2.55959130e-01
C     5.336258598236972e+00   1.409600205546000e-04   1.869850595523438e+00 -6.29094260e-01  -1.71874184e+00  -1.64462787e+00
C     4.453989829585731e+00   8.350644352324170e-01   9.393549468594851e-01  8.09235200e-02   7.30908420e-01  -3.03336600e-01
C     6.176272485971242e+00   2.731348553279039e+00   9.401165432589919e-01  1.61686136e+00  -1.98309517e+00  -3.51442000e-03
C     4.412064068636066e+00   2.716462378965140e+00   2.698420775850223e+00 -4.65786290e-01  -1.07415663e+00  -3.24113275e+00
C     6.176787064684704e+00   9.251376751141278e-01   2.732338969802684e+00  1.41386560e-01   6.75962370e-01  -9.50171910e-01
C     2.623839632226540e-02   3.571028558402848e+00   7.095833390287301e+00 -1.55850021e+00  -1.73158094e+00   8.79106260e-01
C     1.693638698764412e+00   5.315488498183593e+00   7.027330516677528e+00  2.33534639e+00  -1.51621230e-01   2.58764003e+00
C     7.101270480580887e+00   5.325745027929313e+00   1.724552233559626e+00  1.68606518e+00  -2.67122190e-01   1.48728049e+00
C     1.869624263347217e+00   3.490448119340564e+00   1.689903009424924e+00 -2.05385999e+00   2.33398546e+00   1.03756437e+00
C     8.851568496775212e-01   4.366655322771052e+00   8.738361890655877e-01  6.16203920e-01   2.59042409e+00  -4.73294840e-01
C     2.602443635561471e+00   6.246587083254174e+00   8.622953806051130e-01  4.89004360e-01  -5.25266650e-01  -1.57290410e+00
C     8.949855945499688e-01   6.241099167738857e+00   2.623001478115416e+00 -1.33542821e+00  -9.30532380e-01   2.31664561e+00
C     2.686180001014356e+00   4.479639293093929e+00   2.558732096681210e+00 -1.33487626e+00  -2.39474637e+00   2.14884640e+00
C     3.595128385779887e+00   3.602253513193043e+00   7.056090768092691e+00  3.52803730e-01  -1.23779840e+00   2.60515230e-01
C     5.362282035859208e+00   5.384894425803012e+00   7.093340466474467e+00  1.12831120e-01  -2.59040461e+00   1.08606182e+00
C     3.480208152219550e+00   5.348211481956727e+00   1.658929906048155e+00  1.72387680e+00   5.94119320e-01   2.67998425e+00
C     5.231348374325893e+00   3.608122084739664e+00   1.765165211019829e+00  2.55132062e+00  -1.36078340e-01  -6.81564200e-01
C     4.434716265746540e+00   4.496427610216713e+00   8.365944521171458e-01 -7.70934410e-01  -1.59615960e-01  -1.19155700e-02
C     6.268294002324642e+00   6.187406052899817e+00   9.307407470758905e-01 -2.47709449e+00   3.09648654e+00  -1.89741824e+00
C     4.359515978512656e+00   6.156585211935568e+00   2.674708997264010e+00  1.51032083e+00   2.23221330e+00  -2.46319500e-01
C     6.171760414713197e+00   4.513227300815690e+00   2.546389458149199e+00  1.27252540e+00  -3.01698308e+00   3.49980710e+00
C     7.037643274046172e+00   8.843574364696760e-02   3.616415979000001e+00  2.91770441e+00  -2.24120698e+00  -1.50361610e+00
C     1.883668942591361e+00   1.815443368547994e+00   3.564823474129398e+00 -3.21437225e+00  -1.96177905e+00   1.40740878e+00
C     7.074415144259431e+00   1.782230685540567e+00   5.322830290318207e+00  4.92594010e-01   1.50371846e+00   1.17226651e+00
C     1.638239420328121e+00   6.346925738409880e-02   5.459952757837175e+00  2.85581263e+00  -2.90128572e+00  -5.29797921e+00
C     8.623094552819006e-01   9.340383443293083e-01   4.511519786618140e+00  1.00319310e-01  -4.06422090e-01  -1.72457755e+00
C     2.742041255836722e+00   2.605474738050865e+00   4.476389464440516e+00 -1.14703900e-01   2.06299684e+00  -1.13257778e+00
C     9.225478635009833e-01   2.669642184704700e+00   6.268515998363065e+00 -6.69994280e-01  -8.03141600e-01  -2.18921411e+00
C     2.625208998760057e+00   8.400408997402266e-01   6.167744724606707e+00  2.24344644e+00   1.69465545e+00   4.50783071e+00
C     3.532462948825658e+00   7.553054454881000e-03   3.610377800489668e+00 -1.44886331e+00  -2.25446415e+00  -1.43443819e+00
C     5.254579907879897e+00   1.852666623597623e+00   3.498017380999018e+00  1.68277555e+00  -3.23849356e+00   3.31856081e+00
C     3.619145968707212e+00   1.737834107972417e+00   5.401365351855813e+00 -1.05325615e+00  -4.40432800e-01  -1.95371996e+00
C     5.397903052450290e+00   7.075235882735137e+00   5.344489014283312e+00 -1.98323892e+00   6.26309320e-01  -5.75498700e-01
C     4.442477596984188e+00   7.870916102441443e-01   4.468750895661517e+00  5.29059940e-01   3.79961814e+00   2.06639110e-01
C     6.176240640237904e+00   2.625172034962433e+00   4.386835210494293e+00  2.33626318e+00   2.80053710e+00   6.05989020e-01
C     4.499124332506063e+00   2.636906547939303e+00   6.290021962326065e+00 -3.16782600e-02   5.25459110e-01  -1.93192444e+00
C     6.222977310532559e+00   9.144766761213303e-01   6.238010771363144e+00 -8.72080000e-04  -1.11799063e+00   8.84002320e-01
C     8.718764680334799e-02   3.544690715248129e+00   3.463918135522426e+00 -2.04597404e+00   5.44456200e-01   1.87205081e+00
C     1.778238239976045e+00   5.278732479752776e+00   3.567366938827060e+00 -8.44971200e-02   2.51605623e+00  -1.91083006e+00
C     7.086839032061989e+00   5.323640863749566e+00   5.343332473923039e+00  1.08185552e+00  -2.23505820e-01  -1.70432945e+00
C     1.854712711964565e+00   3.522046834992119e+00   5.296596087965288e+00 -1.55765626e+00  -4.98618690e-01   1.73136686e+00
C     9.457840175296915e-01   4.392105537193213e+00   4.438045353312165e+00 -1.74043951e+00   5.85352850e-01  -4.75217000e-01
C     2.594939771391120e+00   6.210835840360694e+00   4.465307433575937e+00  1.23621474e+00   1.42095420e-01   6.54324310e-01
C     8.189815579704408e-01   6.215516665571738e+00   6.216663680645701e+00 -1.28481260e-01   4.43064850e-01   1.47240955e+00
C     2.680375263102865e+00   4.418916161536388e+00   6.205447940351639e+00 -3.25078970e-01   1.07035905e+00  -9.60315890e-01
C     3.533077827382288e+00   3.554718140532806e+00   3.490027300721460e+00  3.34630740e-01   9.04873550e-01   2.72398018e+00
C     5.286408367750530e+00   5.261388639402238e+00   3.512212403381575e+00  4.08095120e-01   3.03051344e+00   8.08881730e-01
C     3.566971923782067e+00   5.283420200133762e+00   5.348854083361576e+00 -7.23539640e-01   2.34225563e+00  -7.33890780e-01
C     5.416733050717991e+00   3.606351874254604e+00   5.278183780610739e+00 -3.15048303e+00  -3.01778310e+00   1.32849579e+00
C     4.400419690458017e+00   4.439100101060521e+00   4.447481357834858e+00  1.94985846e+00  -1.03136491e+00  -1.29953682e+00
C     6.240329823158693e+00   6.231522558616740e+00   4.416756907081337e+00 -1.06308017e+00  -1.68724182e+00   8.00350090e-01
C     4.511475003555634e+00   6.187346910823619e+00   6.202237279106863e+00 -2.01762916e+00   1.07109095e+00   4.52914250e-01
C     6.222651673692337e+00   4.420270244961272e+00   6.228654167921117e+00  1.14121991e+00   1.79901681e+00  -9.53170930e-01
