64
Lattice="7.10842262195238 0 0 0 7.10842262195238 0 0 0 7.10842262195238 " PBC="1 1 1" Properties=species:S:1:pos:R:3:force:R:3 Energy="-512.51318127"
C     2.945495755781540e-02   7.100267268896526e+00   7.040193349576871e+00 -1.56303486e+00   6.19498410e-01   2.41722532e+00
C     1.774247216096045e+00   1.737125398237203e+00   2.707896729708040e-02 -5.25281580e-01   2.01271434e+00  -1.25952106e+00
C     7.077897418332517e+00   1.798859845080891e+00   1.786096672266681e+00  1.52774643e+00  -1.64184445e+00  -7.05129980e-01
C     1.814641751729136e+00   7.104241374730690e+00   1.779128925330331e+00 -1.52927089e+00  -4.76898510e-01   2.16558560e-01
C     8.538264769798711e-01   8.552100603586279e-01   8.824461948798366e-01  1.51084600e+00   8.89615900e-01   1.52299860e-01
C     2.682834848413611e+00   2.681506142057480e+00   8.488538510202764e-01 -3.39367540e-01  -1.49741864e+00   1.96372486e+00
C     9.557367332926321e-01   2.601451441932171e+00   2.649975596178851e+00 -2.53144835e+00   3.18300067e+00  -5.20647900e-01
C     2.658371780640690e+00   8.573726557723106e-01   2.694690488911925e+00  1.77758220e+00   2.06138448e+00  -1.76982080e+00
C     3.539379870540275e+00   1.242865044571280e-02   7.070563943052368e+00  7.35782860e-01   3.75203840e-01   8.86685270e-01
C     5.372279037095071e+00   1.764493536166465e+00   7.099379497995514e+00 -1.70392903e+00   6.51253520e-01  -1.58954810e-01
C     3.569905427628888e+00   1.777893979068558e+00   1.795349777075361e+00 -2.47262940e-01  -5.49940600e-02  -9.46916610e-01
C     5.408987784515466e+00   7.106100653751177e+00   1.756880699877350e+00 -2.30022259e+00  -1.40336136e+00   5.41592270e-01
C     4.477029222476317e+00   8.738254553474316e-01   9.030318313662256e-01 -4.99702450e-01   5.42983640e-01  -9.83370380e-01
C     6.202972645426902e+00   2.663514582237808e+00   8.907663192196418e-01  8.51008000e-03   2.96905530e-01   6.31660680e-01
C     4.416926514045050e+00   2.676600406354740e+00   2.706611242561439e+00 -4.49744010e-01  -5.59827220e-01  -7.98045080e-01
C     6.216357449799232e+00   8.784892914284136e-01   2.655731641395396e+00  3.82059120e-01   7.67777400e-01   5.55078100e-02
C     7.067843620799921e+00   3.552697073813488e+00   7.102837745600144e+00  8.59106880e-01   4.53262600e-01   1.25268476e+00
C     1.763614153204145e+00   5.351777137827145e+00   7.103649669631801e+00 -6.94218100e-02  -4.77519040e-01   3.81149070e-01
C     2.353740897934400e-03   5.319779995087740e+00   1.781742123653895e+00  5.30086320e-01   3.67063550e-01  -1.11874200e-02
C     1.793797439743605e+00   3.541154488247357e+00   1.793859922778435e+00 -3.89289330e-01   3.53620560e-01  -1.49914606e+00
C     8.574434556616058e-01   4.438524318828301e+00   8.903259524383327e-01  1.06545119e+00   3.70454300e-02   3.81497620e-01
C     2.677071694774446e+00   6.232024413253711e+00   8.728552267440277e-01 -2.44859810e-01  -3.87842810e-01   6.61643100e-02
C     9.107568385642844e-01   6.229624680861426e+00   2.673879728681161e+00 -3.79344770e-01  -1.26592284e+00   1.58099070e-01
C     2.661658004417916e+00   4.450963489739491e+00   2.681975582287305e+00 -7.68311200e-01  -5.26703080e-01   1.74740180e-01
C     3.541319048231011e+00   3.570643068644166e+00   7.094483927337120e+00  1.07615032e+00  -9.29968790e-01   1.00931960e+00
C     5.346632488040147e+00   5.356439267886699e+00   3.588104269052160e-02 -6.28062700e-01  -1.36537876e+00  -2.51657560e-01
C     3.549929551634843e+00   5.308374530993950e+00   1.763906096121148e+00 -2.23342850e-01   9.42286640e-01   1.06804272e+00
C     5.292635630302555e+00   3.545502426027107e+00   1.839543124840806e+00  7.24094820e-01   1.60923750e-01  -2.32850430e+00
C     4.431202359192796e+00   4.427357982071447e+00   9.239064963163438e-01  1.92730330e-01   3.64106890e-01  -9.88340770e-01
C     6.268372266057689e+00   6.178970061271306e+00   8.959837592542693e-01 -8.08907320e-01   2.05014546e+00  -1.03773443e+00
C     4.434789837920658e+00   6.158665918320668e+00   2.691694288777595e+00  8.16054540e-01   2.38828955e+00  -1.31944470e+00
C     6.200371815758698e+00   4.457897258415718e+00   2.634282758066035e+00  1.36253017e+00  -1.44372705e+00   1.57821272e+00
C     3.781787460179300e-02   3.370721596909940e-02   3.551888419656236e+00 -1.08789896e+00  -1.37773546e+00  -1.28873888e+00
C     1.830457423384826e+00   1.835632923725996e+00   3.508170127774486e+00 -7.41898900e-01  -3.75022071e+00   2.25699741e+00
C     7.081655783540163e+00   1.767438342405252e+00   5.285981151551068e+00  7.83086010e-01   1.52066718e+00   2.07356500e-02
C     1.716592150825523e+00   3.962014407286780e-02   5.326014721483515e+00  2.11050677e+00  -9.65313700e-01  -1.28913183e+00
C     9.095090971417957e-01   8.780487824786521e-01   4.392353478974198e+00 -8.10347840e-01   2.50246056e+00   1.26490020e+00
C     2.686100599933691e+00   2.664711427354337e+00   4.451656703113393e+00 -1.22697685e+00   6.30977810e-01   2.39074300e-02
C     8.684301625788516e-01   2.713309935701623e+00   6.265703693121915e+00 -5.80300200e-02  -3.06747481e+00  -1.50676377e+00
C     2.629010298840328e+00   9.021643905539070e-01   6.144717913624158e+00  5.77097300e-01   7.31775300e-02   2.96540791e+00
C     3.578877749744079e+00   3.476935647697980e-02   3.561806517401018e+00 -9.91597650e-01  -2.42277361e+00   3.28254910e-01
C     5.283919637907043e+00   1.748976844766172e+00   3.507426728936887e+00  1.06078975e+00   4.67152550e-01   1.85131930e+00
C     3.547181364365725e+00   1.777504011003625e+00   5.314182467695622e+00  9.00881350e-01   3.37583100e-02   3.77347180e-01
C     5.397988637858634e+00   7.075583555685481e+00   5.318794341207250e+00 -2.59536243e+00   1.48249177e+00  -1.47241920e-01
C     4.462728568933627e+00   8.703588908883362e-01   4.458875732789361e+00 -3.22479560e-01   3.53159830e-01  -8.35906040e-01
C     6.157362589033292e+00   2.643525058072332e+00   4.378124265078839e+00  1.83495143e+00   9.25258690e-01   1.29305065e+00
C     4.453309198119865e+00   2.686863049343912e+00   6.216487889354308e+00 -5.54162830e-01  -5.44736950e-01   5.13054500e-02
C     6.227072899309298e+00   9.207691229087805e-01   6.158227755150372e+00  6.29115260e-01  -1.83334013e+00   1.56289780e+00
C     2.618607833178220e-02   3.524936266618697e+00   3.538152814627610e+00 -1.33046091e+00   7.20460500e-02   2.69514100e-02
C     1.754789615195224e+00   5.289195935680964e+00   3.621217363058679e+00  7.69792340e-01   1.92063889e+00  -1.71235952e+00
C     2.449988940209200e-03   5.343722441987971e+00   5.365284278152766e+00 -5.02601550e-01  -9.61943190e-01  -1.81386903e+00
C     1.756610153312433e+00   3.531841175099086e+00   5.373041557589518e+00  7.17893660e-01   4.84220040e-01  -3.13779010e-01
C     8.631282744834984e-01   4.393584515603529e+00   4.483825372090620e+00  6.11312720e-01   1.05956901e+00  -3.26915220e-01
C     2.645444829769315e+00   6.277221257040422e+00   4.456706668711094e+00  5.05532560e-01  -2.20757343e+00   6.53440750e-01
C     8.656829704889002e-01   6.253538836239630e+00   6.189303219812869e+00  1.33721410e+00  -1.23277726e+00   4.20830190e-01
C     2.656776579520536e+00   4.425828960365886e+00   6.264192726809807e+00 -1.00961460e-01   1.60166840e+00  -1.68902154e+00
C     3.512756055543553e+00   3.572154177124726e+00   3.588163695465263e+00  1.67026748e+00   2.88323730e-01  -1.39581230e-01
C     5.351306631333928e+00   5.310449337388275e+00   3.544214308764137e+00 -9.73344310e-01   6.65646400e-01   6.59515270e-01
C     3.574987594381057e+00   5.349921341933743e+00   5.377345778570155e+00 -1.39990454e+00   5.68681690e-01  -8.18274610e-01
C     5.300481622853606e+00   3.600142311674904e+00   5.324265551929412e+00  9.59697270e-01  -1.64000133e+00  -2.41952200e-02
C     4.420665117837813e+00   4.475193045829345e+00   4.476386265650338e+00  4.74802860e-01  -3.62830650e-01  -7.92462070e-01
C     6.232704191708862e+00   6.224646083826831e+00   4.396892348985521e+00  7.98229140e-01  -6.24957020e-01   1.48765411e+00
C     4.450927947626391e+00   6.249881055212057e+00   6.239474253412150e+00  8.91745950e-01  -1.02601326e+00  -2.14010810e-01
C     6.227548381698350e+00   4.444507051642198e+00   6.239904312980660e+00 -1.28426870e+00   8.81047060e-01  -6.55831510e-01
