64
Lattice="7.10842262195238 0 0 0 7.10842262195238 0 0 0 7.10842262195238 " PBC="1 1 1" Properties=species:S:1:pos:R:3:force:R:3 Energy="-507.69235134"
C     7.066853133192049e+00   6.937322887536600e-03   7.094857474945802e+00  1.41969275e+00   8.85501910e-01   1.14268056e+00
C     1.836468234468072e+00   1.761282519500559e+00   3.345337419733920e-02 -1.68318429e+00  -8.02361130e-01  -1.99870524e+00
C     4.875802135087780e-02   1.848601387785472e+00   1.790797187808382e+00 -3.21823744e+00  -1.02744387e+00   1.29342718e+00
C     1.726705232602771e+00   1.358149442622440e-02   1.815895961816209e+00  1.54823063e+00  -1.44455010e-01  -8.60153510e-01
C     8.346131214802732e-01   9.295211550069770e-01   9.953604315768100e-01  2.80708407e+00  -1.46701536e+00  -3.52600409e+00
C     2.711695399671942e+00   2.688329374761966e+00   7.831410332888531e-01 -1.34811426e+00  -1.43204478e+00   3.92390872e+00
C     8.705978760568206e-01   2.729502282671947e+00   2.719682707664679e+00  1.38587381e+00  -2.68178898e+00  -9.62653060e-01
C     2.630268205307163e+00   9.366747161106139e-01   2.651199097880206e+00 -6.86953950e-01  -8.62363000e-01   7.17467430e-01
C     3.573157602061765e+00   7.061462389813946e+00   7.027975463861840e+00 -1.35378122e+00   1.10901529e+00   2.37792222e+00
C     5.330322070170104e+00   1.772174542228506e+00   1.172710600049976e-01 -6.83854950e-01  -1.32275347e+00  -4.12523612e+00
C     3.576858673383093e+00   1.803014860270733e+00   1.702998003407035e+00 -1.10356072e+00  -2.62745110e-01   3.08232293e+00
C     5.328359434684723e+00   1.170572386525880e-02   1.785435375710342e+00 -4.75756900e-02  -2.01735000e-03   1.18759134e+00
C     4.409976964670607e+00   8.675389085507559e-01   9.214679519365528e-01  1.84100588e+00  -3.52166380e-01  -1.56478410e+00
C     6.269252786367629e+00   2.634787882577411e+00   7.899988840114982e-01 -4.16763510e-01   1.39737447e+00   4.65645850e+00
C     4.482643028156236e+00   2.663183756249073e+00   2.677854189936455e+00  1.64167700e-01   9.94209120e-01  -5.29732710e-01
C     6.208785273687504e+00   9.172430609523557e-01   2.701457209656582e+00  5.45017660e-01   9.30312990e-01  -7.04062380e-01
C     6.265626708904939e-02   3.455448378886470e+00   7.020440678053093e+00 -2.87940050e+00   3.45536144e+00   2.77954017e+00
C     1.728003159488957e+00   5.279240092212071e+00   5.131591614645860e-02  1.42871180e+00   9.04146940e-01  -1.26770485e+00
C     7.042584125356655e+00   5.374525298642991e+00   1.743978628485145e+00  2.83989843e+00  -2.47817627e+00   1.65085540e+00
C     1.791665623799867e+00   3.453340162905830e+00   1.752676636571429e+00 -5.40520430e-01   4.25231029e+00   1.32803521e+00
C     7.820621169035896e-01   4.332416112453073e+00   9.470381565325382e-01  3.56062757e+00   2.19282734e+00  -2.77715777e+00
C     2.716132477071346e+00   6.238702776305201e+00   8.758973472884830e-01 -3.61503812e+00  -3.41360360e-01  -6.76510230e-01
C     8.721461615876828e-01   6.175209279199969e+00   2.670921914028979e+00 -2.82089700e-02   3.05305962e+00   2.22179880e-01
C     2.658438528729092e+00   4.505856790653691e+00   2.601551599606887e+00  7.50655700e-01  -2.19363877e+00   1.37330941e+00
C     3.532488681315542e+00   3.576891087790241e+00   7.090476767337774e+00  1.43863452e+00   4.10302800e-02  -1.75866956e+00
C     5.330834658525233e+00   5.389939344420652e+00   1.620315177270660e-02 -1.05795140e-01  -3.41276936e+00  -1.98706301e+00
C     3.531213074876383e+00   5.383725445703153e+00   1.721990784552735e+00  1.24004128e+00  -1.12457499e+00   1.94581861e+00
C     5.359255553844517e+00   3.580523207412156e+00   1.817112355094943e+00  1.25180180e-01  -3.57425650e-01  -2.68617943e+00
C     4.408765831624612e+00   4.445235807129200e+00   8.536531025521694e-01  1.48542836e+00   1.28976704e+00   1.61159186e+00
C     6.253810804489071e+00   6.226660610797338e+00   8.702257501326636e-01 -2.97116591e+00   1.40353768e+00  -5.21177600e-02
C     4.424444452892189e+00   6.252977270852650e+00   2.691136490854604e+00  2.94903200e-02  -1.66987638e+00  -9.84333680e-01
C     6.255483274163105e+00   4.512050146029819e+00   2.643491577401792e+00 -2.88291102e+00  -2.26283355e+00   1.81041705e+00
C     7.049641296249565e+00   2.501731148460180e-02   3.579078491598867e+00  2.20795851e+00   6.34093900e-02  -6.07052510e-01
C     1.713050947928918e+00   1.805593298407686e+00   3.614015820102357e+00  1.47081290e+00  -1.20057625e+00  -1.55503431e+00
C     1.490700199217580e-02   1.797032909383325e+00   5.391121475102358e+00 -1.42266661e+00   8.67546600e-02  -1.34036630e-01
C     1.751074398112881e+00   7.066350070123232e+00   5.375785693057744e+00  1.00780939e+00   2.46972230e-01  -3.71993640e-01
C     8.778474719500537e-01   9.390097618570578e-01   4.638143256095820e+00  3.20365580e-01  -2.65440804e+00  -6.48154423e+00
C     2.667771745460700e+00   2.647164854790677e+00   4.327355626389894e+00  9.55754250e-01   2.00947950e+00   4.33772009e+00
C     9.509419600669898e-01   2.659114042130671e+00   6.211295399883078e+00 -2.90349740e-01  -5.99200490e-01  -4.78055750e-01
C     2.641369286744365e+00   8.117132669257170e-01   6.205854399957050e+00  1.92528109e+00   1.99443336e+00   5.49478830e-01
C     3.504650818819550e+00   1.662148244389360e-02   3.542959885424386e+00  1.66635285e+00   7.02750440e-01  -3.69420830e-01
C     5.355638148657425e+00   1.830653402596460e+00   3.653228580474873e+00 -1.43257718e+00  -3.02407360e+00  -5.15666168e+00
C     3.593888250369602e+00   1.764089848845875e+00   5.330054864563819e+00 -1.83730396e+00  -1.01779490e-01   5.05216200e-02
C     5.320604501027434e+00   7.103088317497499e+00   5.345074606138748e+00  4.22788480e-01   4.20556100e-02  -1.59065402e+00
C     4.481053229437273e+00   9.018133766449314e-01   4.434674610389988e+00 -1.88802696e+00  -4.58349750e-01   1.59040138e+00
C     6.195743877211946e+00   2.662453223656415e+00   4.417580062420733e+00  3.41398844e+00   1.81319232e+00   3.43472250e+00
C     4.449538251004181e+00   2.644458465046564e+00   6.306672376050023e+00  3.30153080e-01  -8.01031900e-02  -2.14842072e+00
C     6.204924547194128e+00   9.030919686215908e-01   6.217844531811336e+00 -6.24268840e-01  -5.26479740e-01   1.58813296e+00
C     4.224201467202859e-02   3.591838536707125e+00   3.593069928757587e+00 -2.53309699e+00   5.65545020e-01  -2.65353753e+00
C     1.778645481507944e+00   5.359955449135682e+00   3.591590950347270e+00 -9.98597550e-01  -1.94782073e+00  -4.34288647e+00
C     6.247422038575120e-02   5.290617406952284e+00   5.295378841675840e+00 -3.32603336e+00   2.85547392e+00   1.12530416e+00
C     1.726587090618827e+00   3.579775685689437e+00   5.282745610827123e+00  3.11497571e+00  -1.44010743e+00  -4.39369540e-01
C     8.722421252930528e-01   4.493918479200306e+00   4.393634985404132e+00  1.85807907e+00  -1.80508336e+00   2.26768389e+00
C     2.669767150774360e+00   6.158615803941197e+00   4.378526743967584e+00  5.03504400e-02   3.05062711e+00   2.59815642e+00
C     8.853829686010634e-01   6.224856279883704e+00   6.268455079181212e+00 -3.11539930e-01  -1.83599818e+00  -7.00261870e-01
C     2.683365918667551e+00   4.400104289746367e+00   6.117855184543177e+00 -1.72151041e+00   1.19247438e+00   2.47983031e+00
C     3.644501285687395e+00   3.581974534058482e+00   3.555731304008834e+00 -3.43976623e+00  -1.18587801e+00  -1.83041660e+00
C     5.300674545443513e+00   5.268676691861845e+00   3.614475024203610e+00  1.46008399e+00   3.15434333e+00  -2.57509549e+00
C     3.575352967303725e+00   5.270514716698699e+00   5.241174560166197e+00 -1.28818717e+00   1.55012100e+00   2.86218551e+00
C     5.376985097206416e+00   3.496772198608673e+00   5.376330411483114e+00 -2.06461835e+00   1.04136389e+00  -5.85081700e-01
C     4.466103505825150e+00   4.403998212573377e+00   4.496770378355450e+00  9.08624390e-01  -1.02549581e+00  -1.71714284e+00
C     6.204524485169075e+00   6.249333066912281e+00   4.366478962805850e+00 -4.16022490e-01  -1.91910425e+00   4.10421939e+00
C     4.408202560216202e+00   6.182384378824144e+00   6.173499419222954e+00  1.96694005e+00   6.63385040e-01   1.92872620e-01
C     6.236104221332234e+00   4.402216699696353e+00   6.156110724725684e+00  1.45573718e+00   1.06639482e+00   1.90792686e+00
