64
Lattice="7.10842262195238 0 0 0 7.10842262195238 0 0 0 7.10842262195238 " PBC="1 1 1" Properties=species:S:1:pos:R:3:force:R:3 Energy="-507.64221059"
C     7.105919388974367e+00   7.222590995699821e-02   7.085052614373357e+00  9.00734490e-01  -2.57348505e+00   1.86429590e+00
C     1.816370875531451e+00   1.712251890142204e+00   7.067673942751981e+00  2.61858720e-01   2.10424880e+00   2.31624672e+00
C     7.089329396842680e+00   1.797945275426601e+00   1.809558731966252e+00  1.96205923e+00   7.50713730e-01  -2.56082998e+00
C     1.778290131461171e+00   1.724645496064400e-02   1.812421009418422e+00 -3.25370891e+00  -1.04881187e+00   3.55361910e-01
C     9.483567689285481e-01   9.085764010098255e-01   9.075593279013560e-01 -2.50569666e+00  -2.81235470e-01  -5.56790060e-01
C     2.693511557020398e+00   2.665171413382077e+00   8.771976910383595e-01  1.30625780e-01  -7.83382800e-01   3.56282900e-01
C     8.678853019850286e-01   2.681058951190456e+00   2.645076613477600e+00  1.02639599e+00   9.17173100e-02   8.98381380e-01
C     2.633919375501700e+00   8.746621166898055e-01   2.689051163994801e+00  1.69609444e+00   7.44603180e-01  -8.58795840e-01
C     3.539049257804218e+00   7.066502616872658e+00   1.989640382915380e-02 -5.48921930e-01  -1.18012243e+00  -5.91612370e-01
C     5.292231800813513e+00   1.720247728242084e+00   7.052010604593037e+00  7.20695180e-01   2.47372452e+00   2.18053183e+00
C     3.527115495741310e+00   1.708724264332802e+00   1.784287081120307e+00  2.03493615e+00   2.12361127e+00  -1.20287466e+00
C     5.364436954176462e+00   9.107417687083300e-02   1.784253955870898e+00 -1.47344123e+00  -1.74082079e+00  -9.93810920e-01
C     4.428926882027907e+00   8.298773481623768e-01   7.762587295923954e-01 -1.05446260e-01   1.67394835e+00   4.96384062e+00
C     6.238628208951917e+00   2.641881590762588e+00   8.277071467364908e-01 -6.48205570e-01  -6.49508590e-01   1.50283260e+00
C     4.554485651965563e+00   2.652507687400322e+00   2.698593012930306e+00 -4.72576161e+00   8.35889090e-01  -2.07069865e+00
C     6.199135589980853e+00   1.030314820294588e+00   2.678215582142456e+00  1.33612810e-01  -4.03579186e+00   2.32596570e-01
C     1.391232041495920e-02   3.518727485965484e+00   7.102000942089318e+00  7.02133050e-01   1.65974500e-01  -2.25502000e-02
C     1.794273419722241e+00   5.311297087869937e+00   7.041479121060376e+00 -2.48195894e+00   6.05966180e-01   3.36579527e+00
C     7.059081210404699e+00   5.297288021823119e+00   1.837182559857156e+00  2.77353990e-01   7.80754890e-01  -3.07585041e+00
C     1.808710839316139e+00   3.526446806425447e+00   1.775707001765289e+00 -1.15711532e+00   8.77108280e-01  -1.52244829e+00
C     8.834159258936569e-01   4.370470342106980e+00   8.653494432995698e-01  7.00779200e-02   2.30940808e+00   7.72070440e-01
C     2.534837205128306e+00   6.207446615539705e+00   9.787686623394679e-01  5.06625516e+00   6.34893100e-02  -3.42076279e+00
C     7.691016142774484e-01   6.191207992738124e+00   2.689067726619506e+00  1.86827966e+00   1.12696753e+00   5.72327560e-01
C     2.647127393403470e+00   4.501041971676260e+00   2.626571541207858e+00  1.01083484e+00  -2.23690451e+00   7.29765360e-01
C     3.554191548585116e+00   3.613773565059468e+00   7.100848098108806e+00  7.14057470e-01  -2.20409869e+00   1.01350811e+00
C     5.318324900977426e+00   5.313897917538142e+00   6.972536520427330e+00 -9.52279500e-02   1.71420717e+00   5.66805232e+00
C     3.561591203279858e+00   5.420239564512212e+00   1.813137467334292e+00 -3.85437860e-01  -2.80121666e+00  -2.00685403e+00
C     5.360563361438145e+00   3.514984688203375e+00   1.714891673966367e+00 -8.00906840e-01   7.55541070e-01   1.44866457e+00
C     4.466809230022864e+00   4.472736943645682e+00   8.801655285664357e-01 -1.06152139e+00   2.08103300e-02  -7.02261570e-01
C     6.214061926882555e+00   6.317898636809562e+00   9.308340806648910e-01  1.01327172e+00  -2.85260081e+00  -2.20046107e+00
C     4.509138180703535e+00   6.214380242047479e+00   2.640097376684968e+00 -8.95113360e-01   1.67062111e+00   1.00580371e+00
C     6.180566897328663e+00   4.363130540330700e+00   2.696276235829995e+00  2.15036014e+00   2.10267491e+00  -1.75225688e+00
C     7.007245810733171e+00   1.116203616116810e-01   3.571709545289845e+00  3.53893876e+00  -2.46435135e+00   6.09005470e-01
C     1.800478077490334e+00   1.851503685656992e+00   3.539877957713258e+00 -3.22107450e-01  -1.37561883e+00   1.26166478e+00
C     2.009110352471560e-02   1.860856805971935e+00   5.442892188128044e+00  6.55155320e-01  -1.79667706e+00  -2.79076271e+00
C     1.804465902580154e+00   7.044932037348041e+00   5.339427106535610e+00 -2.28867755e+00   1.86135574e+00  -1.77780808e+00
C     9.168174086058702e-01   9.813060848779033e-01   4.446194164666828e+00 -1.46444685e+00  -1.54785214e+00   9.93915330e-01
C     2.752374343294059e+00   2.711647631071935e+00   4.465813908687612e+00 -2.22000104e+00  -6.43103280e-01  -1.31971292e+00
C     1.001327454776717e+00   2.676502949880620e+00   6.226832563540516e+00 -2.38100756e+00  -4.53418630e-01   7.55601340e-01
C     2.682581219894529e+00   7.833828618263856e-01   6.244079729343421e+00 -1.26102868e+00   1.79452933e+00  -7.38178050e-01
C     3.561637265858435e+00   7.079519560374401e+00   3.478207131252019e+00 -6.22413250e-01   1.76619980e-01   3.79475697e+00
C     5.361717556018954e+00   1.797779862432234e+00   3.582977177069032e+00 -1.25868105e+00   1.00989806e+00   3.12053185e+00
C     3.486131316451891e+00   1.716117947952543e+00   5.383404500421859e+00  3.63677987e+00   1.57035192e+00  -1.39442665e+00
C     5.365005699070287e+00   3.932379393384000e-04   5.335978597469970e+00 -2.15701999e+00   5.47340700e-02   9.78238350e-01
C     4.434702972996241e+00   8.526262909047103e-01   4.524221542660913e+00 -1.71214370e-01   8.06345090e-01  -3.68550652e+00
C     6.232328013983812e+00   2.702805890680275e+00   4.608663845564191e+00 -2.67567960e-01  -7.67434570e-01  -5.27490334e+00
C     4.466338865698099e+00   2.651379509646301e+00   6.248275902300235e+00 -2.96077949e+00   7.42839520e-01  -1.07599837e+00
C     6.196089844140862e+00   9.315032675703377e-01   6.249210375537859e+00  2.24819687e+00  -1.53036140e+00  -1.60671051e+00
C     7.085259114050467e+00   3.545022536416031e+00   3.538341614332397e+00  8.43613140e-01  -1.88575288e+00   2.45212090e+00
C     1.691812971498692e+00   5.205584109792381e+00   3.522539022174328e+00  7.25862900e-01   4.77850728e+00   1.06253435e+00
C     7.076345507506119e+00   5.262972324877747e+00   5.295529042645800e+00  1.75768794e+00   1.20958861e+00   1.17319053e+00
C     1.827982412796995e+00   3.585608928375635e+00   5.337428218094867e+00  2.11859570e-01  -1.96001606e+00  -1.87604200e-02
C     9.104110848880476e-01   4.327153462850582e+00   4.446801508295481e+00 -1.98173437e+00   3.02157412e+00  -1.13967585e+00
C     2.550717563429838e+00   6.199937420052390e+00   4.381164395264961e+00  3.83017488e+00  -1.51650456e+00   9.70909700e-02
C     8.771764368547258e-01   6.184676205361058e+00   6.166563873441071e+00 -5.79909970e-01   4.42562000e-01   1.22636182e+00
C     2.686127185434290e+00   4.481980096662695e+00   6.198813862773071e+00  6.39890790e-01  -7.04108750e-01   4.84992500e-02
C     3.566072068562601e+00   3.652311380704214e+00   3.504534027435904e+00  2.03478051e+00  -2.95506491e+00   1.54910109e+00
C     5.421988378645183e+00   5.306156845304962e+00   3.551372916847834e+00 -3.41888019e+00   1.33737676e+00   3.25217070e-01
C     3.550197254830712e+00   5.335371893599352e+00   5.308139100036775e+00 -2.07900300e-01   8.52279490e-01  -1.68505332e+00
C     5.285374660933130e+00   3.577097729635804e+00   5.352527574003139e+00  1.31671607e+00  -1.50722447e+00   1.49823210e-01
C     4.500968399502143e+00   4.465748155778377e+00   4.415687729235063e+00 -2.32910473e+00   5.53936200e-01   5.49509810e-01
C     6.206172999458879e+00   6.232980211759197e+00   4.489509764407156e+00  1.08730355e+00  -2.69336780e-01  -2.25550466e+00
C     4.399122616582546e+00   6.227438983074228e+00   6.179428483446070e+00  1.23785702e+00  -1.01674821e+00   5.24905700e-01
C     6.208007754421327e+00   4.391945953105393e+00   6.238916668741837e+00  5.44764580e-01   1.58002590e+00  -1.58891627e+00
