64
Lattice="7.10842262195238 0 0 0 7.10842262195238 0 0 0 7.10842262195238 " PBC="1 1 1" Properties=species:S:1:pos:R:3:force:R:3 Energy="-509.47626104"
C     7.809938631522559e-02   1.991410380147760e-02   9.963022975739599e-03 -2.30646555e+00  -5.20806110e-01  -1.94659146e+00
C     1.840908084152298e+00   1.769451021185879e+00   7.037418434638701e+00 -1.49560200e+00   1.62154206e+00   2.77268087e+00
C     7.095555024457502e+00   1.784122876557785e+00   1.736799974649659e+00  9.80624360e-01  -5.73896980e-01   5.64864700e-01
C     1.820152911786422e+00   7.045502985852879e+00   1.828134319788385e+00 -1.64511678e+00   3.49025356e+00  -2.73940528e+00
C     9.532390468366427e-01   8.772798644038469e-01   8.410814306433422e-01 -8.87469090e-01   8.11718810e-01   1.39122779e+00
C     2.692541257332768e+00   2.715249042308132e+00   9.498611244076187e-01  1.62354000e-02  -1.15817036e+00  -2.72369094e+00
C     8.942478824504653e-01   2.579361094545581e+00   2.675398656426602e+00 -1.67631899e+00   3.63585607e+00  -5.15766610e-01
C     2.631744695769563e+00   9.463821202089384e-01   2.642976714351426e+00  1.35894220e+00  -2.88970330e+00   1.24546267e+00
C     3.535382093658787e+00   7.063223714770730e+00   7.085093558887648e+00  9.88169220e-01   1.45863448e+00   6.80044430e-01
C     5.286338634124628e+00   1.747515210907047e+00   7.034885419322290e+00  8.67273600e-02  -2.99638960e-01   3.62382888e+00
C     3.547323106312767e+00   1.778149384693295e+00   1.797778582916163e+00  1.53864800e-01  -1.43697600e-02  -1.13192012e+00
C     5.417156925958822e+00   7.037478429725613e+00   1.744455319306042e+00 -1.90866341e+00   2.43339886e+00   1.09863525e+00
C     4.429226217704436e+00   8.178707958518396e-01   9.189918040011020e-01  2.01545350e-01   1.28682459e+00  -1.66811244e+00
C     6.215799154286657e+00   2.638346927614793e+00   8.812803424859305e-01 -1.11510218e+00   7.78707980e-01  -2.01574064e+00
C     4.436596941119114e+00   2.641769775274776e+00   2.650868769481054e+00  7.54720330e-01  -3.28131480e-01   2.80783910e-01
C     6.212157082873073e+00   9.258792257618462e-01   2.633952927256467e+00  1.09963989e+00  -2.18195095e+00  -7.69884000e-02
C     7.064066133935426e+00   3.550204292169106e+00   7.107484450382612e+00  2.62012200e+00  -4.60803480e-01  -3.27568110e-01
C     1.749681858121623e+00   5.308023303832296e+00   1.156232565574554e-01 -2.12255100e-01   1.38192556e+00  -3.09154831e+00
C     7.077709400554219e+00   5.299215257363853e+00   1.790755461367603e+00  1.32588776e+00   8.54353600e-01  -1.36337275e+00
C     1.788528037139625e+00   3.533748578140711e+00   1.794128265732340e+00 -4.31892390e-01  -1.05644084e+00   8.21883170e-01
C     8.732524454000334e-01   4.370407716903698e+00   9.080079404529042e-01 -4.80361290e-01   1.65757222e+00   1.12129424e+00
C     2.660834280404711e+00   6.254606592401379e+00   9.111062175360574e-01  9.10945510e-01  -2.47094956e+00   9.32423640e-01
C     8.720812616891622e-01   6.195667959258365e+00   2.633127283969153e+00  8.15310780e-01   4.71195100e-02   3.37256060e-01
C     2.721177324604760e+00   4.396851049050099e+00   2.676165584143074e+00 -1.77250436e+00   2.66357864e+00  -2.89638840e-01
C     3.550756119017096e+00   3.704585867640980e+00   9.328368787380760e-02 -1.63460191e+00  -3.94742622e+00  -2.01055055e+00
C     5.377934995721127e+00   5.313740394892883e+00   2.768090852454200e-02 -5.55472320e-01   2.60352329e+00  -8.11902320e-01
C     3.589023814602283e+00   5.375134348293073e+00   1.869560856217447e+00 -1.69894760e-01  -9.05254900e-01  -2.36683097e+00
C     5.297816604129142e+00   3.541933002692700e+00   1.712760639949117e+00  7.26703120e-01  -1.90868530e-01   2.58734396e+00
C     4.414813322168577e+00   4.520179622474955e+00   9.441249116901835e-01  2.17554460e+00  -8.14629880e-01  -9.68590810e-01
C     6.299234264788907e+00   6.256341402941791e+00   8.438940913056238e-01 -8.76149490e-01  -2.35918693e+00   1.47348218e+00
C     4.550172190035521e+00   6.191124468772339e+00   2.693714431401973e+00 -2.96593464e+00   9.79141950e-01   2.14549200e-02
C     6.182766101118839e+00   4.446384101719235e+00   2.641868155843836e+00  1.73952780e-01  -5.91819860e-01   2.71170990e-01
C     5.605062320096200e-02   5.418203214684260e-02   3.475978143171066e+00 -1.72216169e+00  -2.26862336e+00   1.97950726e+00
C     1.738832059424039e+00   1.739184495017538e+00   3.570233765669706e+00  1.47284373e+00   2.22869874e+00  -9.92428740e-01
C     7.101136628982952e+00   1.760423964216515e+00   5.336639894026308e+00  9.22617710e-01   1.34486645e+00  -9.96968850e-01
C     1.799044308647880e+00   1.270282230616620e-02   5.312192749120056e+00 -1.61930333e+00  -1.85802277e+00  -1.69894640e-01
C     9.480418658064822e-01   8.540447766385314e-01   4.405634571460501e+00 -3.04849053e+00   8.58350330e-01   1.47510164e+00
C     2.617752263431676e+00   2.706840631359386e+00   4.400451749444033e+00  2.26929426e+00  -1.25951229e+00   6.39755350e-01
C     9.425341177920538e-01   2.712114725522295e+00   6.199665593971400e+00 -1.51732808e+00  -1.83705253e+00   1.90137340e-01
C     2.626443731769151e+00   8.657185836862263e-01   6.176101741659910e+00  2.93710864e+00   6.46362860e-01   7.68855400e-02
C     3.552253792578904e+00   3.223513272872360e-02   3.514058318567537e+00  2.16476320e-01  -1.44334879e+00   6.74980980e-01
C     5.274037082275361e+00   1.665740770097282e+00   3.565332650441669e+00  2.94469932e+00   5.79484958e+00  -2.30839409e+00
C     3.507749095902704e+00   1.791301032803687e+00   5.286306219717481e+00  2.88953010e-01  -8.41758100e-02   9.20108000e-01
C     5.343917354936212e+00   3.355545114616239e-02   5.266796442994629e+00 -5.78745190e-01  -1.87716354e+00   1.39245607e+00
C     4.434583053906642e+00   8.713500182542427e-01   4.365592329252458e+00 -1.77559733e+00  -2.57305300e-01   3.49893933e+00
C     6.168549895636874e+00   2.687090447783526e+00   4.494266649740234e+00  2.27106330e-01  -1.64771600e+00  -1.21142883e+00
C     4.345804684289390e+00   2.673866649183540e+00   6.297617525148214e+00  1.26081856e+00   3.57764980e-01  -1.48332162e+00
C     6.184607609082776e+00   8.673587100373390e-01   6.183590038384723e+00  1.86652786e+00   1.48833031e+00   3.69550190e-01
C     7.052513738746081e+00   3.618527535939271e+00   3.518354791367517e+00  1.04407339e+00  -3.56645321e+00   2.28468427e+00
C     1.768441411921160e+00   5.333950706664936e+00   3.494105260610102e+00 -6.52335700e-02  -1.07747748e+00   2.80197221e+00
C     3.249210220643660e-02   5.385266267390263e+00   5.374297758034925e+00 -1.79930633e+00  -1.92579607e+00  -1.94561842e+00
C     1.843920846911333e+00   3.604397697792141e+00   5.319880294930909e+00 -3.24887192e+00  -1.62665000e-01   4.21443980e-01
C     8.567170459540679e-01   4.442751555591962e+00   4.459947896173135e+00  1.16937639e+00   1.33806857e+00  -1.32151786e+00
C     2.623282331893132e+00   6.221234751811492e+00   4.428275466179011e+00  1.99509485e+00   2.55051920e-01  -7.18490690e-01
C     8.776293855440722e-01   6.214498099694518e+00   6.211604474098595e+00  1.84416297e+00   1.27485835e+00   1.83944554e+00
C     2.620110766972767e+00   4.539061156806651e+00   6.270686128704726e+00  1.69839083e+00  -1.92832046e+00  -4.42051000e-03
C     3.607574309692566e+00   3.552172116803001e+00   3.516950664647389e+00 -1.93552006e+00  -1.15609947e+00   1.72298601e+00
C     5.349013240944037e+00   5.283708233418324e+00   3.597814871940663e+00 -2.79239770e-01   8.14715190e-01   2.92807060e-01
C     3.503495273638443e+00   5.360575090335468e+00   5.365373062351289e+00  1.84024821e+00  -2.06827600e-01  -1.06618111e+00
C     5.241601420944527e+00   3.514015596947591e+00   5.429535888530421e+00  2.39417105e+00   1.34224933e+00  -2.05649312e+00
C     4.420133621078515e+00   4.372147858761075e+00   4.494821604294176e+00 -1.19189800e-01   2.26042933e+00  -4.04393910e-01
C     6.225033848280751e+00   6.229278074174474e+00   4.447359448386925e+00  1.21079081e+00   1.27873290e-01  -9.01673360e-01
C     4.515948973668436e+00   6.233402665315504e+00   6.218782488176045e+00 -2.67439774e+00  -6.28954080e-01  -5.45290490e-01
C     6.242383375369386e+00   4.482759037613394e+00   6.239048743234116e+00 -1.48156997e+00  -1.89453408e+00   3.33648170e-01
