64
Lattice="7.10842262195238 0 0 0 7.10842262195238 0 0 0 7.10842262195238 " PBC="1 1 1" Properties=species:S:1:pos:R:3:force:R:3 Energy="-511.83493279"
C     7.063610341877032e+00   1.390101802299340e-02   5.188785983046380e-02  1.61650108e+00   5.68004600e-02  -1.36390054e+00
C     1.804817769499844e+00   1.824992752411475e+00   7.073166265489324e+00 -5.73654040e-01  -1.74083403e+00   1.82752334e+00
C     5.795639130538400e-03   1.749526254750472e+00   1.749630464226081e+00 -3.11031400e-01   1.59603725e+00   2.11679815e+00
C     1.752305150405308e+00   7.095191286472036e+00   1.776041310881108e+00  1.06272245e+00   7.24146010e-01  -4.73290330e-01
C     9.059792677213825e-01   9.155624165923093e-01   9.265290777577666e-01 -6.89437940e-01  -6.86076290e-01  -2.35843961e+00
C     2.656076684229371e+00   2.667004462323097e+00   9.059249593725657e-01  4.10466560e-01   2.81604870e-01  -1.03969118e+00
C     8.962111576938832e-01   2.697862835758779e+00   2.700968363433005e+00 -4.39135830e-01  -1.77830336e+00  -1.58488649e+00
C     2.653012101069437e+00   8.893966683492202e-01   2.632203117944327e+00  7.45562680e-01  -1.04071134e+00   9.68056030e-01
C     3.585277391544639e+00   7.106430413476518e+00   2.110277423199400e-03 -6.68997230e-01   1.18547850e-01   8.16874000e-02
C     5.313176483726439e+00   1.828179884777378e+00   1.476511787668060e-02  5.98319650e-01  -1.74178907e+00   4.46565950e-01
C     3.565010567812757e+00   1.753492399151301e+00   1.724695326106966e+00 -4.53676950e-01   5.76772680e-01   1.87230102e+00
C     5.321535206801070e+00   7.077859956945310e+00   1.796623961829996e+00  4.82193610e-01   1.83628142e+00  -1.23525631e+00
C     4.475171649477258e+00   9.091883651131815e-01   8.776045771491283e-01 -8.81678180e-01  -1.33345079e+00   3.47697200e-02
C     6.197490203397002e+00   2.657253341425660e+00   9.193686214841882e-01  1.15466777e+00   2.13269970e-01  -1.02742279e+00
C     4.445708446149204e+00   2.636039036042757e+00   2.655694535429320e+00 -6.36854800e-02   1.14239818e+00  -2.87401700e-01
C     6.226135369449946e+00   8.917464285304874e-01   2.618824284646999e+00  7.68633440e-01  -1.29661245e+00   2.27476173e+00
C     1.400345039294760e-02   3.477019669253348e+00   3.478492392251760e-02 -6.75720370e-01   3.39448942e+00  -1.46268051e+00
C     1.806033167599411e+00   5.345496277768566e+00   4.603698825616800e-02 -1.68937296e+00  -5.77732830e-01  -2.38325210e+00
C     1.551136008332820e-02   5.283230760670938e+00   1.828830163278656e+00 -8.44135650e-01   8.07404020e-01  -2.61694700e+00
C     1.735816240043278e+00   3.550138041670288e+00   1.751581584066818e+00  1.29138594e+00   2.71281920e-01   1.37654223e+00
C     8.768269867987265e-01   4.421120270138172e+00   8.555560272875433e-01  1.92820300e-01   2.54083930e-01   1.96097041e+00
C     2.696332747789824e+00   6.247251436432240e+00   8.942738992772546e-01 -9.77388670e-01  -6.75664370e-01  -2.36638310e-01
C     8.826215596658720e-01   6.182694519303054e+00   2.623721632411048e+00  1.33145670e+00   1.48512846e+00   2.05146064e+00
C     2.634863942699445e+00   4.441308759052781e+00   2.645743028098225e+00  1.36652268e+00   2.61994920e-01   2.35414680e-01
C     3.522227388926667e+00   3.557348541239111e+00   3.443675338259000e-03  2.40711200e-02   3.48359000e-01  -1.77496500e-01
C     5.339197220148080e+00   5.323984840320148e+00   7.102874353976638e+00 -1.84143330e-01   6.87652890e-01  -1.89210230e-01
C     3.545432265895847e+00   5.351232135064871e+00   1.738848479880291e+00  1.93562400e-02  -4.96692480e-01   1.51780114e+00
C     5.335201007119568e+00   3.565418022597334e+00   1.765587948913040e+00 -5.77440650e-01   7.65805100e-02   1.07953298e+00
C     4.416820172042655e+00   4.478011251061270e+00   8.796672992250000e-01  7.43063950e-01  -1.26380661e+00  -5.59383480e-01
C     6.205683726729944e+00   6.217058553522242e+00   9.135956582218077e-01  3.87259490e-01  -7.76531550e-01   1.58934900e-02
C     4.430848430830546e+00   6.226360706447001e+00   2.632050429026449e+00 -1.12200934e+00   3.30108300e-01   8.81452540e-01
C     6.231981265128408e+00   4.456091079312202e+00   2.699826253170649e+00 -9.94471000e-01  -9.90843660e-01  -1.20235251e+00
C     3.854911803671240e-02   7.044826974861718e+00   3.565492234529488e+00 -1.95296377e+00   1.52793189e+00  -2.11413320e-01
C     1.820327068140612e+00   1.769068588048923e+00   3.515288999775737e+00 -2.22502241e+00   3.60525970e-01   1.73174698e+00
C     7.085744050641604e+00   1.771273833998326e+00   5.361847213647542e+00  8.96442460e-01   4.37346330e-01  -4.18208570e-01
C     1.798118081180494e+00   7.103435990447844e+00   5.314539381595371e+00 -8.85027530e-01   3.31547500e-02   3.03183464e+00
C     8.480298426701659e-01   8.553358083547757e-01   4.517303483598677e+00  1.92289915e+00   3.43053920e-01  -3.10326964e+00
C     2.663705372300929e+00   2.651480733584410e+00   4.408785877376400e+00  2.84682630e-01   1.65878200e-02   2.08111982e+00
C     9.097592425337936e-01   2.693147321445350e+00   6.222972547889404e+00 -9.89788130e-01  -1.36020067e+00  -6.06417410e-01
C     2.676686347184215e+00   8.863607321324444e-01   6.274482452889163e+00  8.30214740e-01   5.39615000e-02  -2.83917696e+00
C     3.563058523877078e+00   5.306508570056200e-03   3.571447102326713e+00 -2.68141150e-01   2.84335790e-01  -9.81434220e-01
C     5.379282112891842e+00   1.794861854946724e+00   3.530828793549546e+00 -4.84402190e-01   2.91950590e-01  -2.94328900e-01
C     3.600307582500819e+00   1.768042771580631e+00   5.349485169121779e+00 -1.36059440e+00   8.09692620e-01  -6.12088190e-01
C     5.298309786490518e+00   5.782971921429560e-02   5.320971011297721e+00  1.45889234e+00  -2.37573741e+00   4.20751400e-02
C     4.492914414505231e+00   9.437234990648321e-01   4.390081271683715e+00 -1.46601656e+00  -1.69681345e+00   1.79364686e+00
C     6.241990919356535e+00   2.713978482849033e+00   4.450928445215975e+00  6.03088000e-02  -2.37689252e+00   5.03702900e-01
C     4.439454455928129e+00   2.672830596586675e+00   6.271219971243487e+00 -1.27388340e-01   5.22307180e-01  -1.68619742e+00
C     6.175315692286590e+00   9.168783277877235e-01   6.239669806118426e+00  7.28240470e-01  -2.31432830e-01   2.20428660e-01
C     2.416877907645240e-02   3.547903864440821e+00   3.582785960500554e+00 -4.25802930e-01   1.67023359e+00  -2.26769050e-01
C     1.824725049215606e+00   5.394064006645906e+00   3.532276139479204e+00 -1.94737604e+00  -2.70376219e+00   2.16737860e-01
C     7.088364926061598e+00   5.298745106291767e+00   5.296582653046537e+00  8.69991100e-01   1.51200174e+00   2.15472841e+00
C     1.766516451075665e+00   3.599877736184987e+00   5.319326122303453e+00 -1.39892299e+00  -2.23858468e+00  -1.42240885e+00
C     8.940774224760378e-01   4.501028963262866e+00   4.434012531907161e+00  3.30533480e-01  -1.71649156e+00  -5.47472390e-01
C     2.650083573118449e+00   6.173367060393770e+00   4.496800731320037e+00  1.77264552e+00   2.70853557e+00  -2.52092052e+00
C     9.144815098487120e-01   6.234645359757932e+00   6.258008825635764e+00 -1.53356273e+00  -1.36257220e-01  -5.77202000e-01
C     2.576271418653798e+00   4.402327377836547e+00   6.170846342648491e+00  4.54167519e+00   2.40035108e+00   2.92185102e+00
C     3.538007944974614e+00   3.518606429528265e+00   3.580203186225804e+00  6.20819950e-01   5.86674460e-01  -2.38240125e+00
C     5.258691206270627e+00   5.361847213647542e+00   3.482496353460927e+00  2.83018731e+00  -2.24884184e+00   3.01600625e+00
C     3.554108735461593e+00   5.296475244780749e+00   5.308933892769917e+00 -4.37968220e-01  -3.91487090e-01   8.15652640e-01
C     5.367794404348340e+00   3.530583268632251e+00   5.375164488004982e+00 -1.48593789e+00   1.54803327e+00  -1.61009338e+00
C     4.446637588069864e+00   4.404448033556771e+00   4.399632148315947e+00 -6.12456820e-01   8.79254440e-01   1.33477770e+00
C     6.210956825713686e+00   6.166041404378502e+00   4.457395901368329e+00 -9.79487020e-01   2.53868188e+00  -1.43838587e+00
C     4.432807583188844e+00   6.197840293211036e+00   6.202060279383625e+00  1.08688160e-01   9.79967280e-01  -1.30141600e-02
C     6.225140830041183e+00   4.464370756727300e+00   6.208349029791314e+00  2.76888050e-01  -2.11130887e+00   1.08466646e+00
