64
Lattice="7.10842262195238 0 0 0 7.10842262195238 0 0 0 7.10842262195238 " PBC="1 1 1" Properties=species:S:1:pos:R:3:force:R:3 Energy="-512.90944902"
C     7.105764069940120e+00   7.087132609916195e+00   2.205821731634820e-02 -1.86606680e-01   4.56877300e-02  -6.60975360e-01
C     1.781813918722357e+00   1.768915188288783e+00   3.029879840703560e-02 -4.28878390e-01  -4.86565490e-01  -8.57132800e-02
C     7.091028949606896e+00   1.782488223692090e+00   1.753789246879912e+00  6.40043550e-01  -5.68840900e-02   1.52914913e+00
C     1.760872434599611e+00   7.090247805045184e+00   1.797071721370830e+00  7.55637900e-01   7.98516750e-01  -5.76761200e-01
C     8.695024681310786e-01   8.558364545599023e-01   9.325626357933964e-01  3.02313620e-01   7.77350940e-01  -1.32477450e+00
C     2.647497457885067e+00   2.681966057000994e+00   8.885602913437510e-01  1.38484685e+00  -5.90613210e-01  -5.29461790e-01
C     9.101440214502141e-01   2.664018924822697e+00   2.691267783420395e+00 -1.01745818e+00   5.25474700e-02  -1.38033992e+00
C     2.661983570173912e+00   9.441932947157881e-01   2.646394657199800e+00  4.29903850e-01  -2.26432441e+00   1.03457192e+00
C     3.509455117331503e+00   7.103184992045132e+00   1.550993839880420e-02  1.97208539e+00   5.37166450e-01  -1.26743781e+00
C     5.366566424340734e+00   1.813499428214102e+00   1.619568792895560e-02 -2.15247414e+00  -2.36145908e+00  -1.37455527e+00
C     3.555345316660569e+00   1.813222128647696e+00   1.789691117248710e+00 -6.33208300e-01  -4.26375290e-01  -6.98461710e-01
C     5.315543446290445e+00   7.106776735826565e+00   1.800775564976981e+00  5.63923400e-01   7.17660270e-01  -1.87788730e+00
C     4.405722289395633e+00   9.133152309494487e-01   9.069497095774649e-01  9.23486330e-01  -4.83291320e-01  -4.15127170e-01
C     6.206976037962260e+00   2.643790984162546e+00   8.773543606729044e-01  1.57787799e+00   2.45476601e+00   7.47853600e-02
C     4.438776312410179e+00   2.660282453556720e+00   2.660288922221304e+00  5.35750380e-01   5.75410830e-01   5.59006880e-01
C     6.195129069739542e+00   9.340529165956794e-01   2.653740430051081e+00  7.57000040e-01  -2.08647253e+00   9.32503260e-01
C     3.788576003781400e-03   3.610027142001823e+00   1.098727559105540e-02  3.96555100e-01  -1.24484081e+00   7.64897700e-02
C     1.781382935058906e+00   5.335644288354151e+00   2.114030670342760e-02  1.03726890e-01   3.28589150e-01  -1.82284658e+00
C     7.078241608155778e+00   5.355806973694650e+00   1.770765013107186e+00  8.73935690e-01   1.98042500e-02   3.99011260e-01
C     1.796456274140390e+00   3.559020371155109e+00   1.763264774232372e+00 -9.68556980e-01   2.32261590e-01   6.76822790e-01
C     9.153122712003113e-01   4.511108066779990e+00   9.174298702988094e-01 -1.48995735e+00  -2.17240420e+00  -3.69210540e-01
C     2.671896834191312e+00   6.213737356305725e+00   8.260163373320976e-01 -8.53745760e-01   1.09040520e-01   3.08813937e+00
C     8.750171113154483e-01   6.228313958814524e+00   2.675307597532840e+00 -2.34283210e-01  -6.69202570e-01   1.56200710e-01
C     2.674408879660993e+00   4.432490689708446e+00   2.629808859037459e+00 -7.68536010e-01   9.49252080e-01   4.59662430e-01
C     3.586829444539489e+00   3.550005114167293e+00   7.081059955556156e+00 -1.37422520e+00  -1.27827400e-02   9.37964940e-01
C     5.323634181832304e+00   5.289901233373320e+00   1.526803877704560e-02 -4.21788900e-01   1.54081194e+00  -3.50454960e-01
C     3.542762982117811e+00   5.315261952754694e+00   1.726336305468793e+00  4.66749870e-01   7.74978680e-01   1.30463474e+00
C     5.344856306480088e+00   3.557733106902853e+00   1.731635705616229e+00 -1.21625196e+00  -8.08610990e-01   1.95310222e+00
C     4.420738547843477e+00   4.419514761805218e+00   9.172936018371840e-01  1.08076040e+00  -1.50384360e-01  -2.41120908e+00
C     6.207837720952257e+00   6.201656663147262e+00   8.638194264148410e-01 -1.27618980e-01   6.90382460e-01   1.17814190e+00
C     4.475445039411223e+00   6.214060149776900e+00   2.624796354826966e+00 -1.90524068e+00   1.91113110e-01   1.44700898e+00
C     6.170668276661861e+00   4.469508582428583e+00   2.616449218481204e+00  2.02037376e+00  -1.03348038e+00   1.31703467e+00
C     9.974396451931600e-03   1.070464470768420e-02   3.553305412621307e+00 -4.35701260e-01  -9.10535800e-02   2.77591630e-01
C     1.807152033319799e+00   1.763852854035724e+00   3.599139668664352e+00 -1.41651706e+00   6.31950440e-01  -2.10893544e+00
C     4.549937825341740e-02   1.738540614096619e+00   5.353874051415819e+00 -9.06649980e-01   1.23232106e+00  -3.02867760e-01
C     1.779496359695558e+00   1.954318630916600e-03   5.314962688162392e+00  5.27691410e-01  -1.68164093e+00   1.70043280e-01
C     9.359724039557580e-01   8.426839534387950e-01   4.448556293503454e+00 -1.45210295e+00   1.93508220e+00   5.25513100e-02
C     2.651398986724280e+00   2.686690527926925e+00   4.389851029875053e+00  1.74243959e+00  -5.57673800e-01   2.68420820e+00
C     9.215585132407316e-01   2.691354861597490e+00   6.286883025065526e+00 -6.17683910e-01  -1.38698229e+00  -1.42230904e+00
C     2.650013768408320e+00   8.462680201237990e-01   6.197653697117262e+00  4.10373920e-01   2.09601199e+00   7.85342660e-01
C     3.557062498312882e+00   7.006061334272001e-04   3.534846971603953e+00  4.44724040e-01   3.55495450e-01  -2.62799350e-01
C     5.325736853243300e+00   1.741441774620519e+00   3.589861684376503e+00 -3.81035920e-01   1.61350065e+00  -1.06882161e+00
C     3.569887016814302e+00   1.773974252667438e+00   5.308792932749363e+00 -1.05059338e+00   2.03193520e-01   6.81340400e-01
C     5.313003393635642e+00   1.969495113210300e-02   5.355099045885924e+00  7.83763460e-01  -1.78504661e+00   6.79881680e-01
C     4.437443767505835e+00   8.840776489553528e-01   4.498038520950858e+00  2.54855380e-01  -4.79439120e-01  -2.36119428e+00
C     6.218231443254542e+00   2.657904970527235e+00   4.404420310708553e+00  2.84187160e-01  -2.00874400e-01   1.83120250e+00
C     4.440292254618121e+00   2.664250730484335e+00   6.188209588992782e+00  8.15132760e-01   1.57360680e-01   1.09616919e+00
C     6.216825681597212e+00   8.398419349910928e-01   6.245762577314481e+00  7.06975900e-01   2.30205023e+00  -2.03005100e-01
C     7.082519883393851e+00   3.550905111555212e+00   3.509291481442791e+00  7.92907940e-01  -1.47375400e-02   1.73709661e+00
C     1.763302591040710e+00   5.318954351800427e+00   3.549310408024641e+00  2.67877090e-01  -5.18910860e-01   3.00832750e-01
C     1.154727712505900e-02   5.321009396779869e+00   5.357460961469871e+00 -4.69000740e-01   4.64097960e-01  -4.77774910e-01
C     1.844011692552417e+00   3.525874649488763e+00   5.392178710798630e+00 -2.31894540e+00   4.26037730e-01  -1.65881760e+00
C     8.869104264536490e-01   4.386142707962652e+00   4.525801887177791e+00  2.00137140e-01   1.52378724e+00  -2.70600888e+00
C     2.689812333888950e+00   6.213553248159868e+00   4.385482833090837e+00 -1.21529880e+00   2.06822600e-01   1.37872955e+00
C     8.819419944633999e-01   6.227169147351573e+00   6.215559671528589e+00  6.90735340e-01  -5.75213190e-01   4.95887080e-01
C     2.683715581976229e+00   4.439889633560925e+00   6.224578553811940e+00  4.73278180e-01   4.75975750e-01  -2.83603450e-01
C     3.543066369595233e+00   3.581843739082274e+00   3.517036960897995e+00  5.01989200e-01  -6.44335000e-01   3.34924810e-01
C     5.319219282711474e+00   5.323087544132825e+00   3.551482457640408e+00  5.36883260e-01   1.00377247e+00  -6.76710970e-01
C     3.557169551157539e+00   5.347872410197754e+00   5.289505152064934e+00 -1.13814000e-01  -1.57778400e-01   1.22334718e+00
C     5.330991114907099e+00   3.562922895173489e+00   5.350275981138254e+00  5.56541500e-02   5.24174100e-02  -2.20201122e+00
C     4.418290691430054e+00   4.485461517725066e+00   4.396506148384576e+00  7.02535020e-01  -1.77714517e+00   1.46526586e+00
C     6.230571167333279e+00   6.218252626353950e+00   4.473489796685366e+00 -3.99061160e-01   1.85189460e-01  -1.30082332e+00
C     4.444747885000564e+00   6.202003838508023e+00   6.251313828875343e+00 -5.97098640e-01   5.59939280e-01  -1.01666417e+00
C     6.210759353733303e+00   4.473930803224711e+00   6.211835711086423e+00  1.59537850e-01  -1.48704091e+00   8.77925990e-01
