64
Lattice="7.10842262195238 0 0 0 7.10842262195238 0 0 0 7.10842262195238 " PBC="1 1 1" Properties=species:S:1:pos:R:3:force:R:3 Energy="-513.43223419"
C     3.413827071677620e-02   1.598691355660620e-02   7.062146291154217e+00 -3.15868390e-01  -5.77818130e-01   1.43106080e+00
C     1.798805821068979e+00   1.778349557874274e+00   7.011819156594200e-03 -6.25360000e-02   1.18627480e-01  -4.11414200e-02
C     7.099829532231587e+00   1.770940093556317e+00   1.742424158626603e+00  4.77704970e-01   5.00089180e-01   1.27948430e-01
C     1.755463351491148e+00   4.202371501336840e-02   1.788691246522981e+00 -2.13754700e-01  -2.68811099e+00  -1.65384230e-01
C     9.014807735505415e-01   8.940128069144220e-01   8.661325071353889e-01 -2.07714020e-01   2.42758890e-01   2.03344900e-01
C     2.679966528802215e+00   2.673372827064129e+00   9.171490876053194e-01 -2.07897950e-01  -4.53882870e-01  -5.06016120e-01
C     8.867421700902336e-01   2.678720706653833e+00   2.619704662788486e+00 -2.10861560e-01  -1.35418605e+00   1.85076438e+00
C     2.663897939469705e+00   8.325726487672022e-01   2.682055054452197e+00  1.10927703e+00   2.27738789e+00  -6.81471730e-01
C     3.534880594442946e+00   7.096458078467147e+00   1.567791042531480e-02  6.64345000e-03  -5.30047000e-03  -2.08424130e-01
C     5.294951412223699e+00   1.749367808010272e+00   7.063933704022015e+00  1.39370551e+00   1.21921604e+00   5.58224990e-01
C     3.564752745324329e+00   1.749820188025808e+00   1.784947098160574e+00 -2.41277700e-02   3.75258020e-01  -3.94636450e-01
C     5.367454266325972e+00   2.886694883868900e-02   1.781027442843680e+00 -8.24096160e-01  -5.76981210e-01  -7.35241990e-01
C     4.457070975370369e+00   8.601528309432188e-01   8.530377264059560e-01 -6.81909520e-01   1.03510599e+00   1.41854813e+00
C     6.193062509115456e+00   2.665443452715745e+00   8.426175607715242e-01  5.33859170e-01  -1.00025185e+00   1.11195322e+00
C     4.433636993940146e+00   2.677702567281971e+00   2.661098500473496e+00 -1.06121200e-01  -9.24321490e-01   1.16982920e-01
C     6.249086475731593e+00   9.032676888287573e-01   2.677596865037612e+00 -1.27894124e+00   4.04122750e-01  -7.18578330e-01
C     9.459888822695999e-03   3.548539499591502e+00   7.462919656059401e-03 -4.67508360e-01   2.28660220e-01  -4.36804960e-01
C     1.803480390868117e+00   5.357660423808588e+00   7.104749555863793e+00 -1.69944005e+00  -7.30683740e-01   6.26552580e-01
C     7.085061215564727e+00   5.288158177062670e+00   1.787855580359773e+00  3.55270770e-01   1.42097682e+00  -7.21319550e-01
C     1.779230575773796e+00   3.554535667324151e+00   1.810182069545801e+00 -4.36098130e-01   4.85187750e-01  -2.12384745e+00
C     8.768857023695678e-01   4.459957066038315e+00   8.675986193007640e-01  6.79324190e-01  -5.48427190e-01   1.01024239e+00
C     2.633018098597710e+00   6.186016996035643e+00   9.214718615689937e-01  1.42617218e+00   1.84361099e+00  -8.95818000e-02
C     8.305021785106748e-01   6.232589106346644e+00   2.673175355083745e+00  1.18592607e+00  -8.44073920e-01  -2.07930180e-01
C     2.634043701813324e+00   4.430511065093001e+00   2.674348244816045e+00  1.45647125e+00   9.55574900e-02   3.55706780e-01
C     3.540729333490455e+00   3.580872088794345e+00   1.013071066534540e-02  6.57398850e-01  -6.73372940e-01  -5.33519900e-02
C     5.329065656472020e+00   5.366810527573505e+00   7.088734492953612e+00 -2.20629050e-01  -6.73782600e-01   1.40628460e+00
C     3.579463554852193e+00   5.321374343197180e+00   1.815722729556960e+00 -8.48912420e-01  -5.02859100e-02  -1.31623898e+00
C     5.327068545136930e+00   3.530490432632834e+00   1.756878567350564e+00 -2.22278960e-01   1.58695140e-01   5.49047700e-02
C     4.474946952238240e+00   4.436861587693256e+00   8.763110574849670e-01 -1.17831954e+00   8.10739490e-01   6.54232910e-01
C     6.218132138590541e+00   6.258456016502788e+00   8.834229632320508e-01  6.12760360e-01  -1.38928220e+00  -2.56610250e-01
C     4.471991412281296e+00   6.235537608965195e+00   2.650860808047720e+00  3.27101190e-01  -5.80175590e-01   4.75635780e-01
C     6.216094935751875e+00   4.354691918585819e+00   2.666589117189410e+00  1.84317740e-01   2.32859536e+00   8.88828200e-02
C     7.093496851772107e+00   3.538402178093120e-02   3.566663133903454e+00  5.58354570e-01  -9.08276150e-01   1.38613710e-01
C     1.833049936198567e+00   1.800613919446602e+00   3.522564754664212e+00 -1.74619149e+00  -4.34053820e-01   8.38582930e-01
C     2.180665023982640e-02   1.804378611150380e+00   5.356341384907222e+00  4.23200000e-05  -4.14176590e-01  -9.52449170e-01
C     1.793075081836961e+00   7.095234150260435e+00   5.287540312968540e+00 -9.85036250e-01   6.42825440e-01   2.79957840e-01
C     8.991293073478456e-01   9.294449527164906e-01   4.400390830262180e+00  2.16579750e-01  -5.74232920e-01   1.32452980e+00
C     2.704185706595043e+00   2.681057245169027e+00   4.468802147388607e+00 -1.40232608e+00  -6.43440000e-04  -6.14623500e-01
C     9.390499955290870e-01   2.663413287215473e+00   6.243220676469795e+00 -1.26410901e+00   8.56151560e-01  -3.61098280e-01
C     2.658847689535099e+00   8.892687167420602e-01   6.193903790932533e+00 -7.26947700e-02  -6.48789840e-01   1.28789965e+00
C     3.581532674508422e+00   7.081198498713019e+00   3.545475698358056e+00 -8.41203570e-01   6.58473400e-02   8.20868940e-01
C     5.327112119767591e+00   1.786245451552118e+00   3.534413997582169e+00 -2.68472030e-01  -1.82689930e-01   1.93131264e+00
C     3.518929365167892e+00   1.768576471950941e+00   5.345820777261169e+00  1.83611714e+00   4.48935270e-01  -6.28679900e-01
C     5.357149186053758e+00   7.102901081645689e+00   5.351605753757777e+00 -1.32927979e+00   5.26481710e-01  -3.38308840e-01
C     4.440369878593131e+00   8.839885093356979e-01   4.481503050420666e+00  7.46118400e-02  -2.07596550e-01  -1.73556709e+00
C     6.186548990384524e+00   2.660366546196315e+00   4.500512749612201e+00  6.27510720e-01  -1.08151550e-01  -1.28098012e+00
C     4.428353658827831e+00   2.665742219718464e+00   6.200581514225988e+00 -7.78328110e-01   4.48229570e-01   6.83832390e-01
C     6.250423356773736e+00   9.116048022986241e-01   6.204225433829452e+00 -3.88150960e-01  -1.03858229e+00   1.98759280e-01
C     7.054592596941299e+00   3.472849370954873e+00   3.591525695027618e+00  2.02401241e+00   1.70661242e+00  -1.11146018e+00
C     1.749081338578686e+00   5.280514987808967e+00   3.526977805595161e+00 -7.19352930e-01   1.84306630e+00   1.15604485e+00
C     7.077906019523888e+00   5.287636205589683e+00   5.343643751749569e+00  1.35949312e+00   1.25152324e+00  -4.21270240e-01
C     1.800078797391768e+00   3.591860999322603e+00   5.363893373098709e+00 -6.57894250e-01  -1.35841685e+00  -7.26315960e-01
C     8.643713243470578e-01   4.398654313700340e+00   4.452410266995340e+00 -1.57929970e-01   3.71913340e-01  -2.62889170e-01
C     2.637224578767321e+00   6.195436366849405e+00   4.414920303929007e+00  1.21004969e+00  -8.46874800e-02   1.41284560e-01
C     9.215805493508535e-01   6.200738112776306e+00   6.201422582790386e+00 -1.19600593e+00   8.20402180e-01  -2.99564360e-01
C     2.653632453111484e+00   4.495091084595702e+00   6.232773783166312e+00  1.03421580e+00  -1.52166343e+00  -1.57385400e-02
C     3.539881014334985e+00   3.565003956979720e+00   3.583944775556067e+00  1.26388800e+00   9.91499500e-02  -9.32970860e-01
C     5.390036018968283e+00   5.348667274015122e+00   3.530713281681971e+00 -1.94156490e+00  -9.23477930e-01   4.02749560e-01
C     3.533787816633573e+00   5.344197213534761e+00   5.345757654468303e+00  8.15685860e-01   3.04546330e-01  -1.09577202e+00
C     5.315415281430607e+00   3.600887274365479e+00   5.350098057320076e+00 -2.24256750e-01  -1.72643118e+00  -5.08021520e-01
C     4.470511296523360e+00   4.470463812260259e+00   4.420184730637153e+00 -1.14019166e+00   1.59712770e-01   9.75651230e-01
C     6.208372203249055e+00   6.221729000436262e+00   4.462632463059805e+00  1.08238589e+00  -2.93724000e-03  -4.26967060e-01
C     4.410826847679054e+00   6.233813887564071e+00   6.243092156188825e+00  8.83871740e-01  -2.14301290e-01  -9.01842630e-01
C     6.193193090838985e+00   4.442440135596980e+00   6.241221077186789e+00  9.45642870e-01   3.67074490e-01  -4.09492210e-01
