64
Lattice="7.10842262195238 0 0 0 7.10842262195238 0 0 0 7.10842262195238 " PBC="1 1 1" Properties=species:S:1:pos:R:3:force:R:3 Energy="-510.9113478"
C     7.028491606428279e+00   2.723791162686360e-02   4.561808891117140e-02  1.70929516e+00  -9.45384810e-01  -2.19392820e-01
C     1.681052952178798e+00   1.777668855324182e+00   1.120578850239420e-02  3.25420742e+00  -9.84414550e-01  -6.77439100e-02
C     3.855132164772460e-02   1.804222154768514e+00   1.800527765364448e+00 -2.10299068e+00  -2.87794320e-01   1.34291810e+00
C     1.768185864127972e+00   3.033995617400540e-02   1.705343925040088e+00  9.09030250e-01  -1.18090529e+00   2.67895739e+00
C     8.444060399027162e-01   9.271517044950525e-01   9.293880142513045e-01  6.40299890e-01  -1.47769616e+00  -1.28581336e+00
C     2.664217249813795e+00   2.625942801227120e+00   8.416444177148462e-01 -1.09645070e-01   5.55131830e-01   5.60793680e-01
C     9.032964068561420e-01   2.733785747058533e+00   2.660515965239787e+00  1.25155740e+00  -2.78992456e+00  -1.37420850e-01
C     2.716747782133333e+00   8.589683544820481e-01   2.656063249310619e+00 -2.55447880e+00   1.18891807e+00   1.21898620e-01
C     3.620197873086520e+00   1.793469243871240e-02   2.299517850189040e-02 -2.36204063e+00  -3.95877220e-01  -1.16455578e+00
C     5.365411874338794e+00   1.819807513531316e+00   7.321071082677300e-02  2.43443480e-01  -1.33666110e+00  -2.01763130e+00
C     3.564484971044234e+00   1.777876279096234e+00   1.752952514453312e+00 -5.40915440e-01  -2.74826680e-01   9.72354250e-01
C     5.243990490702884e+00   1.816059810957600e-03   1.812471052713667e+00  2.49420269e+00   1.78757040e-01  -6.98295000e-02
C     4.441247057944439e+00   8.977499179384345e-01   9.008100938763446e-01  8.67110770e-01   5.97345350e-01   4.67646760e-01
C     6.247256056906943e+00   2.698501385362734e+00   9.453771314189228e-01 -6.10161920e-01  -1.44773400e-02  -1.18661300e-01
C     4.412183205799177e+00   2.701109181285107e+00   2.654123858367205e+00  6.02360490e-01  -6.21323990e-01   9.06494940e-01
C     6.212872403441324e+00   8.545956793915813e-01   2.701761805565849e+00 -7.17392290e-01   1.94443733e+00  -1.08420110e+00
C     3.165465893757440e-02   3.561550756355150e+00   3.541593859849500e-02 -2.13334609e+00   3.46606200e-02  -1.20658692e+00
C     1.771619161169205e+00   5.300765462168823e+00   6.968172659780912e+00  7.82858500e-01   1.10417267e+00   3.88861522e+00
C     6.808752847608661e-02   5.378866554505477e+00   1.801256378682998e+00 -1.54305134e+00  -1.79680069e+00  -6.96562220e-01
C     1.792517568250874e+00   3.520426470055890e+00   1.722563225826323e+00  4.31101890e-01   2.75369805e+00   1.13256333e+00
C     9.512702270235814e-01   4.461172819559014e+00   8.476591384305330e-01 -1.29072781e+00  -3.52381390e-01   1.87586820e-01
C     2.649337473080254e+00   6.230255553368950e+00   8.017286343452126e-01 -1.07337930e-01  -3.11979900e-02   6.58402340e-01
C     9.317611611429913e-01   6.227708747712658e+00   2.702964195252022e+00 -7.73115200e-01   7.66031950e-01  -7.89580710e-01
C     2.628136105026520e+00   4.502070418260923e+00   2.653373635443890e+00  4.39620050e-01  -2.30108360e+00  -1.92706380e-01
C     3.614625438426249e+00   3.455276568311745e+00   7.041794450687799e+00 -8.32951800e-01   2.77072611e+00   7.55857760e-01
C     5.316036841904500e+00   5.319495302761809e+00   7.083989478686310e+00  7.88965690e-01  -1.46322776e+00   1.33545817e+00
C     3.488469347735835e+00   5.338576086179544e+00   1.699820680664348e+00  1.13023787e+00  -2.51859180e-01   1.76906257e+00
C     5.309710487941152e+00   3.579208007059004e+00   1.817252604273236e+00  1.59567194e+00   3.08792700e-02  -8.54904230e-01
C     4.447224885946729e+00   4.395597407636835e+00   8.647726658881830e-01 -7.39666590e-01   9.73089250e-01  -4.71471500e-02
C     6.175145445564841e+00   6.208129166279677e+00   9.510224984952744e-01  6.21556460e-01   6.63140180e-01  -1.44473970e+00
C     4.377587863507934e+00   6.242354728426227e+00   2.670296586091097e+00  7.98053340e-01  -1.53528166e+00  -6.44711650e-01
C     6.256150826131349e+00   4.464209324449599e+00   2.682801794248428e+00 -8.31300300e-01   1.58370450e-01  -4.57466800e-01
C     7.068827781911660e+00   7.075668145914658e+00   3.540755918991054e+00  1.91762404e+00   1.51106606e+00   9.66076590e-01
C     1.783448784840731e+00   1.790729942130397e+00   3.584632088939194e+00  4.98390330e-01  -1.20947073e+00  -6.87178930e-01
C     7.067297480690026e+00   1.811092303062292e+00   5.292318025979894e+00  7.03142600e-02  -1.55976959e+00   2.37574850e+00
C     1.741441703536293e+00   3.034315496418440e-02   5.388750460737457e+00  9.19524690e-01  -3.75061320e-01  -9.87498060e-01
C     8.337459650048594e-01   9.121729074344146e-01   4.486567375032060e+00  1.63559618e+00  -8.91199350e-01  -1.73871903e+00
C     2.715055195623285e+00   2.597051612667296e+00   4.503706777148046e+00 -2.08804211e+00   2.60388094e+00  -1.64793840e+00
C     8.063262199273762e-01   2.599978861102212e+00   6.248284574575830e+00  2.04043925e+00   2.76069183e+00  -9.52593790e-01
C     2.708558239517057e+00   9.208115601918219e-01   6.270671414269901e+00 -1.67523210e+00  -9.07952360e-01  -7.15085600e-01
C     3.528819882232908e+00   7.070473097411284e+00   3.587457971267550e+00  4.11322890e-01   1.57960762e+00  -5.95122960e-01
C     5.344844933003896e+00   1.815442160116148e+00   3.589713047259518e+00 -7.64108370e-01  -1.63497831e+00  -1.71223516e+00
C     3.626960684198735e+00   1.788063075216051e+00   5.377545383077325e+00 -1.28948967e+00  -1.87399766e+00  -1.06429313e+00
C     5.330194118562945e+00   7.062346677587874e+00   5.374006170539053e+00  4.81961660e-01   1.84406711e+00  -1.13867879e+00
C     4.433435754495774e+00   8.798446543693690e-01   4.465974416870371e+00  9.47627300e-01  -4.79748040e-01   2.79240250e-01
C     6.273472061697955e+00   2.698003298189750e+00   4.393520824136854e+00 -5.89344470e-01  -8.74082340e-01  -3.85821060e-01
C     4.569590481359254e+00   2.618285466212403e+00   6.161376999623711e+00 -1.88798165e+00   1.88560141e+00   1.36687159e+00
C     6.204071323227049e+00   9.222977181089853e-01   6.264917146159012e+00 -3.76091230e-01  -1.15942121e+00  -1.01201315e+00
C     5.923661821924600e-02   3.561873052236741e+00   3.542150093919515e+00 -1.11296466e+00   9.69270750e-01  -6.48307980e-01
C     1.789177604798641e+00   5.340606038427137e+00   3.639583110245069e+00 -1.48283360e-01  -4.24528200e-02  -2.87543283e+00
C     7.087390929994206e+00   5.268910985471400e+00   5.274701861958784e+00  3.59876620e-01   2.22418767e+00   1.43078289e+00
C     1.738664442818659e+00   3.485524968002405e+00   5.351108022005925e+00  2.02189603e+00   6.27928570e-01  -7.67271700e-02
C     9.177094445604541e-01   4.413405925574042e+00   4.444396800007362e+00 -4.71669680e-01  -1.35543420e-01   5.97387990e-01
C     2.677094512811056e+00   6.202679778414959e+00   4.486509299219254e+00 -1.64897591e+00   1.72543890e+00  -8.26146300e-02
C     8.337910324042702e-01   6.213624758891426e+00   6.219441652205597e+00  2.73931540e-01   1.16201460e-01  -6.95048890e-01
C     2.705970915851830e+00   4.415373963460616e+00   6.179641593956217e+00 -1.24634459e+00  -1.09524303e+00  -2.58323830e-01
C     3.499804936035270e+00   3.577761229803155e+00   3.543008009445523e+00  1.22771751e+00  -2.16470680e-01   2.68514770e-01
C     5.305180787795011e+00   5.347791445264112e+00   3.542495278921942e+00  3.29839010e-01   1.65552500e-01  -7.87021700e-01
C     3.541997618254316e+00   5.347393515765844e+00   5.313257875165437e+00  1.36173385e+00  -1.31996988e+00   1.44331286e+00
C     5.418173643646161e+00   3.545141957916047e+00   5.203239467675400e+00 -3.21709195e+00   1.07552043e+00   3.79348610e+00
C     4.412416504229565e+00   4.483467036506346e+00   4.407976299124209e+00  1.20891081e+00  -1.48262209e+00  -9.39426700e-02
C     6.225119575857549e+00   6.216944747676096e+00   4.399812702250496e+00 -1.23025741e+00  -1.09824141e+00   1.85553202e+00
C     4.461405193894461e+00   6.194372378151643e+00   6.251061266619655e+00 -7.25769600e-01   8.71755200e-01  -1.16363374e+00
C     6.198371221296524e+00   4.413253236656165e+00   6.173624740713744e+00  1.44914014e+00   7.18988530e-01   7.28617020e-01
