64
Lattice="7.10842262195238 0 0 0 7.10842262195238 0 0 0 7.10842262195238 " PBC="1 1 1" Properties=species:S:1:pos:R:3:force:R:3 Energy="-507.00865061"
C     7.279806689368199e-03   1.088403286092252e-01   1.160775558470996e-01 -1.51811385e+00  -2.55427226e+00  -4.42897052e+00
C     1.761526338396425e+00   1.744085752414028e+00   7.038117619087604e+00  1.41670773e+00   1.26657522e+00   2.43074627e+00
C     7.097622367008077e+00   1.809399645468017e+00   1.821471168761301e+00  4.30758280e-01   2.27808280e-01  -3.56071050e-01
C     1.723188767016884e+00   2.395808542999560e-02   1.803866164963704e+00  6.73480240e-01   6.82993440e-01  -9.47901600e-01
C     8.905661460386626e-01   9.396181717491036e-01   9.144417026820401e-01  1.85437030e-01   2.79612600e-01   9.20874140e-01
C     2.693034724031048e+00   2.651665126067173e+00   8.096837411834807e-01  6.71782870e-01  -1.23384240e-01   1.81061451e+00
C     8.859733230996544e-01   2.711371753190053e+00   2.705580023691956e+00  5.62665000e-01  -2.16576478e+00  -4.58942030e-01
C     2.680036262428117e+00   9.009436611373742e-01   2.657000708085745e+00 -6.78921820e-01  -1.39410476e+00   1.19363554e+00
C     3.607232607817223e+00   7.087839755798433e+00   7.090146936528206e+00 -3.79116372e+00  -4.24616530e-01   8.07903270e-01
C     5.305115816812264e+00   1.729000471182543e+00   8.181083593358000e-03  2.75783839e+00   9.68054480e-01   1.70144323e+00
C     3.569757288101487e+00   1.688468671908660e+00   1.731770552393331e+00 -3.44806850e-01   2.95279883e+00   1.45490839e+00
C     5.328530463332960e+00   3.944812024546380e-02   1.839303997503869e+00 -1.29961291e+00  -1.48441320e+00  -1.37542100e-01
C     4.416014076917547e+00   8.007822900418120e-01   9.124444491784984e-01  1.29237958e+00   1.88863699e+00  -6.15567770e-01
C     6.234718860847823e+00   2.655807275012073e+00   8.795153922336106e-01 -1.05488985e+00  -2.49167800e-02  -9.06568300e-02
C     4.560402347533321e+00   2.656349292236848e+00   2.652201598722304e+00 -4.84240494e+00   1.18340003e+00  -6.40651720e-01
C     6.179071782798998e+00   9.042620860690689e-01   2.714461855587193e+00  1.84652400e+00   1.12328986e+00   2.07972700e-02
C     1.932246978681500e-02   3.561485785372403e+00   1.855120593254500e-02 -1.40843691e+00  -2.46382555e+00  -1.36941829e+00
C     1.685652457035069e+00   5.268585561883857e+00   7.058120649256058e+00  1.51260313e+00   1.65147291e+00   1.35124100e+00
C     4.975042823285599e-03   5.396098650452429e+00   1.815446993843530e+00 -2.17044177e+00  -3.02593890e+00  -1.74422568e+00
C     1.811209663119748e+00   3.573826433546080e+00   1.784228649886371e+00 -1.23687510e+00  -2.43452548e+00  -3.89557630e-01
C     8.654049600802319e-01   4.314732773838204e+00   9.307285916732101e-01  7.43116850e-01   5.90071369e+00  -1.44043304e+00
C     2.496915618640487e+00   6.276841454019835e+00   8.322866058409734e-01  4.81387864e+00  -2.60965317e+00   1.10575241e+00
C     8.069289430813260e-01   6.264648518868202e+00   2.652312134694045e+00  3.06203954e+00  -6.36609920e-01   1.56119833e+00
C     2.575875763850768e+00   4.462100468710924e+00   2.680857143072275e+00  4.58549820e+00  -1.10419890e-01  -1.92355118e+00
C     3.670977956335882e+00   3.498946949425036e+00   7.048348416343440e+00 -3.24361327e+00   2.80178299e+00  -5.56068600e-02
C     5.369733866375980e+00   5.371099963035092e+00   7.029313766588508e+00 -1.02983358e+00  -5.43459510e-01   1.27972335e+00
C     3.538298537291320e+00   5.368337558920734e+00   1.784890799453424e+00 -9.71739730e-01  -1.50568390e-01  -1.08026742e+00
C     5.306885956213096e+00   3.553631191629981e+00   1.667316991729040e+00  2.35596777e+00   5.98317020e-01   3.00426537e+00
C     4.472840229026351e+00   4.490862212894837e+00   7.828115579004161e-01 -1.03979308e+00  -1.01498474e+00   2.49746442e+00
C     6.162175844157747e+00   6.317898352472658e+00   9.052680700382514e-01  2.57513334e+00  -2.38604459e+00   1.27269860e-01
C     4.468743787238897e+00   6.236082896064374e+00   2.759015742547925e+00 -5.82362650e-01  -1.50023881e+00  -3.40339745e+00
C     6.227336977209632e+00   4.409162126185676e+00   2.680194922420995e+00 -1.38782213e+00   1.95077702e+00  -1.47268368e+00
C     7.103545531240417e+00   1.612965068281580e-02   3.566868354064493e+00 -1.09809875e+00   2.56463700e-01   1.18741383e+00
C     1.814624620430622e+00   1.771797084987384e+00   3.616223411831225e+00 -1.40800887e+00   1.08631912e+00  -1.00365135e+00
C     7.091702259397462e+00   1.796626520862139e+00   5.343996756016877e+00  1.71764381e+00   1.21567999e+00   6.88688580e-01
C     1.832243272399649e+00   7.060433161302797e+00   5.320403474835740e+00 -3.02921006e+00   1.32963768e+00   4.75067480e-01
C     8.206540276444744e-01   9.099213145695295e-01   4.527018778046109e+00  3.89099814e+00  -1.69880985e+00  -3.04526006e+00
C     2.683492448590187e+00   2.708447490292638e+00   4.456522062975653e+00  7.45701330e-01  -1.76578562e+00   7.90065020e-01
C     9.273623270572831e-01   2.656974762343182e+00   6.202038883031539e+00 -1.30704967e+00   5.83593720e-01   7.75816730e-01
C     2.705585355008921e+00   8.982492846274895e-01   6.204662388567903e+00 -1.28951267e+00  -2.60631843e+00   1.46850682e+00
C     3.555857976099923e+00   7.051500148764695e+00   3.592805850857254e+00  2.85453300e-02   2.66286572e+00  -2.27637047e+00
C     5.360131880185111e+00   1.846056572487512e+00   3.625830089581024e+00 -5.06466720e-01  -2.75653911e+00  -1.57887005e+00
C     3.595747813726994e+00   1.720933975361819e+00   5.461740099620748e+00  7.99613300e-02   2.41108518e+00  -5.87753587e+00
C     5.318165174721154e+00   7.094762861840729e+00   5.401290997755208e+00  2.65594350e+00   1.15884919e+00  -3.17917195e+00
C     4.395268998511791e+00   8.198723854931791e-01   4.460950041594103e+00  2.17641453e+00   2.80689188e+00   2.04194516e+00
C     6.308932996611635e+00   2.715076236554240e+00   4.471063478792481e+00 -3.57077681e+00  -2.63073952e+00  -6.28454240e-01
C     4.546493012655862e+00   2.597658814127497e+00   6.239418949884167e+00 -2.27021312e+00   1.11321602e+00  -1.20187901e+00
C     6.268236210848742e+00   1.001037502218047e+00   6.252663718330882e+00 -2.41232263e+00  -4.25620311e+00   7.02214030e-01
C     7.056575207094244e+00   3.562810013422283e+00   3.586230915354885e+00  3.50003795e+00  -3.90719970e-01  -2.43980916e+00
C     1.748073790756527e+00   5.287453803465255e+00   3.546638565214462e+00 -1.23604175e+00   1.99418319e+00  -6.40660540e-01
C     6.149780745466800e-03   5.249339010050623e+00   5.275973914186633e+00 -4.28371790e-01   2.53071879e+00   9.05407820e-01
C     1.765208288060906e+00   3.560598014471391e+00   5.350686350376107e+00  1.10396824e+00  -9.14595450e-01  -2.33231466e+00
C     8.928457460886704e-01   4.359169585078384e+00   4.400722864682760e+00 -3.32978650e-01   3.13766475e+00   1.78737498e+00
C     2.668829194409651e+00   6.201474118854380e+00   4.357421197450768e+00 -2.55813934e+00   9.60951500e-02   1.72243669e+00
C     7.956961425729758e-01   6.198154201153936e+00   6.206988548786072e+00  2.81498607e+00  -3.26341740e-01   8.27946500e-01
C     2.658351948141580e+00   4.490807833461794e+00   6.101872251703238e+00 -3.60853130e-01  -1.58924662e+00   3.20263325e+00
C     3.546623211021602e+00   3.613527969057947e+00   3.540032636989469e+00  5.60839220e-01  -2.14678789e+00   3.48972780e-01
C     5.344839886023835e+00   5.281838931521942e+00   3.555610745161200e+00 -1.70874000e-01   1.71849206e+00   1.02844122e+00
C     3.474286907261316e+00   5.361902161754394e+00   5.212588678357903e+00  3.66087873e+00  -9.13244130e-01   3.85602408e+00
C     5.393193153790730e+00   3.497270001444752e+00   5.299192083906113e+00 -2.65717542e+00   1.67640659e+00   1.82715878e+00
C     4.427870499342349e+00   4.470273377618269e+00   4.476237983954485e+00  6.41567770e-01  -1.68758214e+00  -2.44273932e+00
C     6.268263791528508e+00   6.200433587951265e+00   4.457315931613854e+00 -1.97878060e+00  -3.87244260e-01  -4.48205360e-01
C     4.468918512266897e+00   6.243229775250748e+00   6.204001092011564e+00 -1.88696326e+00  -1.34391457e+00  -7.33366100e-02
C     6.202405108964922e+00   4.409582376130971e+00   6.138978573200769e+00  2.05968448e+00   1.20198950e+00   2.81701926e+00
