64
Lattice="7.10842262195238 0 0 0 7.10842262195238 0 0 0 7.10842262195238 " PBC="1 1 1" Properties=species:S:1:pos:R:3:force:R:3 Energy="-514.1582694"
C     1.197157887124680e-02   2.482047926225400e-03   7.073364590480422e+00 -4.35744820e-01  -4.61289290e-01   1.16007994e+00
C     1.741453077012485e+00   1.771830139152567e+00   7.081561028266639e+00  1.54711103e+00   4.91626750e-01   1.26548355e+00
C     1.504490539100380e-02   1.783526764236872e+00   1.756067354161169e+00 -7.61989970e-01  -1.10926849e+00   3.66826410e-01
C     1.821812586299740e+00   7.061984929960743e+00   1.762247843292355e+00 -1.98751435e+00   2.26881409e+00   1.08211290e+00
C     8.971032647326932e-01   8.743543930745857e-01   8.870334732492011e-01  2.68490470e-01  -1.37089850e-01  -6.61237610e-01
C     2.663562990595850e+00   2.677385887054250e+00   8.949388922133557e-01 -7.00446180e-01  -8.60100970e-01  -1.01765800e-02
C     8.534517920235710e-01   2.637929663206999e+00   2.669832761515142e+00  1.44163938e+00   1.37243163e+00  -3.23375630e-01
C     2.675194431444730e+00   8.890006581250600e-01   2.646960274387673e+00 -4.99107200e-02  -1.65044690e-01   4.16388960e-01
C     3.566323280217992e+00   3.977873298152000e-03   3.084792405443060e-02 -7.50236870e-01   4.05038590e-01  -1.25839163e+00
C     5.320844765711990e+00   1.811402230288523e+00   7.094034390690632e+00  8.44979910e-01  -1.96704016e+00  -1.12981860e-01
C     3.550322434153050e+00   1.784372808697105e+00   1.775048406409546e+00  1.64918100e-01  -3.96562000e-01  -1.04969520e-01
C     5.324819298051510e+00   7.107065693206067e+00   1.746112363702990e+00  8.46754870e-01   1.10486380e-01   7.73229630e-01
C     4.436495006338743e+00   8.842344607583500e-01   8.495279427373310e-01  6.12070900e-01   1.07699563e+00   1.81986474e+00
C     6.247709574270099e+00   2.658168906259116e+00   8.440410934854055e-01 -1.34714447e+00   5.32924900e-02   1.96598268e+00
C     4.454278289375650e+00   2.639816238570347e+00   2.693944317789504e+00 -2.27907580e-01   5.64933670e-01  -6.48234290e-01
C     6.229666620554884e+00   8.950383390458093e-01   2.658521555105294e+00 -5.97340750e-01  -4.79109690e-01  -3.77390760e-01
C     7.099390516050575e+00   3.554062743967242e+00   2.787745640998500e-02  1.86984420e-01   6.52423350e-01  -2.02396519e+00
C     1.790908647875064e+00   5.341122749667385e+00   1.403060456735600e-03 -2.39752150e-01  -5.68634480e-01   1.41423490e-01
C     2.028104057712200e-02   5.354848473988569e+00   1.807675924066893e+00 -1.27097313e+00  -1.46648591e+00  -1.56271994e+00
C     1.752635905309817e+00   3.531334771071637e+00   1.786984727504597e+00  8.22214280e-01   1.01120503e+00   5.11032000e-03
C     8.723981551695618e-01   4.425248913080094e+00   8.930033398181557e-01  7.46757520e-01   9.80209510e-01   4.74199660e-01
C     2.698723878990740e+00   6.232352040452267e+00   9.361595687233426e-01 -8.09268270e-01  -7.91971700e-01  -2.31293897e+00
C     8.779971042462048e-01   6.205659913514168e+00   2.649253451524885e+00  1.22218756e+00   6.19173130e-01   1.37955443e+00
C     2.671110358312635e+00   4.473240717556762e+00   2.680368367932923e+00 -1.18024914e+00  -1.24654843e+00   2.17347870e-01
C     3.556681984450033e+00   3.536844154023268e+00   3.429927648911920e-02 -6.21378090e-01   6.96257240e-01  -1.43828282e+00
C     5.311428025014597e+00   5.324547045465164e+00   7.102884163599853e+00  5.68794980e-01   5.28117000e-02   5.80254730e-01
C     3.527820793433667e+00   5.359801907207090e+00   1.801957198069103e+00  1.65430298e+00  -1.70156253e+00   3.42886200e-02
C     5.348700114927627e+00   3.514427103533063e+00   1.781908602911656e+00 -4.54414870e-01   1.17489849e+00   2.58916690e-01
C     4.406805186497563e+00   4.416315474036635e+00   9.118152826924024e-01  1.36441597e+00   8.42125510e-01  -1.19839920e-01
C     6.240762370675120e+00   6.222255521299724e+00   8.917381116760220e-01 -6.43692980e-01  -2.25587180e-01  -6.27891190e-01
C     4.464262708703476e+00   6.204257563899693e+00   2.672940137379249e+00 -2.31436830e-01   7.39946200e-01  -5.07774890e-01
C     6.221825035225857e+00   4.444675236921387e+00   2.678765987305923e+00  3.34466060e-01  -1.82428880e-01  -2.30403740e-01
C     7.102505284674207e+00   7.102121074431596e+00   3.541894261789421e+00  3.33616260e-01   3.91675880e-01  -2.20999800e-02
C     1.756313021246916e+00   1.788386792782166e+00   3.542979220333911e+00  9.49883630e-01  -1.02103627e+00   1.08656040e-01
C     5.971999095740600e-03   1.779318151540475e+00   5.324615073069638e+00 -3.56593980e-01   6.66963500e-02   1.96871450e-01
C     1.783661824266652e+00   5.402401191200001e-03   5.322998617765850e+00  3.94621870e-01  -6.98061600e-02  -5.69489400e-02
C     9.030626108361701e-01   8.868231350238753e-01   4.427254696690779e+00 -6.12393520e-01   1.69966400e-02   3.81755080e-01
C     2.653430644993302e+00   2.662947045775827e+00   4.455183618080533e+00 -2.77158510e-01   9.77531870e-01  -8.86036780e-01
C     8.747855189064888e-01   2.680481818357938e+00   6.223943345166617e+00  1.11316310e-01  -4.49054750e-01  -3.24429700e-01
C     2.671742581420458e+00   9.071829369236271e-01   6.234512432254938e+00 -5.67631440e-01  -6.64563240e-01  -7.04187330e-01
C     3.595077702726607e+00   5.477252881388599e-03   3.530570971061118e+00 -1.55507716e+00  -2.16940010e-01   6.89288350e-01
C     5.335414615219299e+00   1.741048323428502e+00   3.577840986304952e+00  4.32986280e-01   1.46108939e+00  -9.62098360e-01
C     3.538974335029804e+00   1.806106668689302e+00   5.321660101786504e+00  6.37798760e-01  -1.30451441e+00   6.80187530e-01
C     5.324278560342806e+00   3.465071690345200e-03   5.319962539380621e+00 -1.26547930e-01   2.09239160e-01   1.03324443e+00
C     4.443998515087963e+00   8.883376555472926e-01   4.429105019098765e+00 -1.59987240e-01  -1.09878990e-01   7.56499290e-01
C     6.227742939225459e+00   2.672102836278839e+00   4.445203677058958e+00 -3.46578810e-01  -5.52766350e-01  -1.82604930e-01
C     4.454750146469165e+00   2.660916951359781e+00   6.224430911874123e+00 -9.71182460e-01   8.22304400e-01  -4.63533180e-01
C     6.211636533084612e+00   8.853925649716003e-01   6.221410258765980e+00  2.96731990e-01   5.16273930e-01  -7.94122490e-01
C     1.892347402515440e-02   3.564290982190934e+00   3.551166843676080e+00 -1.28309169e+00  -6.20847280e-01   3.62238960e-01
C     1.766824174690884e+00   5.336689084310839e+00   3.583108469634824e+00 -3.57270800e-02  -3.31732080e-01  -8.62749490e-01
C     1.113129223333660e-02   5.331464606937817e+00   5.313612940875307e+00 -9.04756180e-01  -4.76223200e-02   9.20816060e-01
C     1.753873339519506e+00   3.562469519978785e+00   5.314349657795643e+00  7.28848310e-01  -3.89672870e-01   1.52762042e+00
C     8.734423824524398e-01   4.430712873211183e+00   4.473709802365455e+00  6.23883580e-01   6.08074790e-01  -1.77753316e+00
C     2.657515073546528e+00   6.214298424103123e+00   4.434225429164630e+00  7.88280800e-01   8.01080950e-01   2.17772390e-01
C     8.979175345438141e-01   6.207569377998352e+00   6.191773325589093e+00  1.42211070e-01   7.19262520e-01   8.14037970e-01
C     2.663718309630097e+00   4.447753255000073e+00   6.212984218929137e+00  2.69294700e-01  -2.61746420e-01   4.14506880e-01
C     3.551486367272849e+00   3.578635565785415e+00   3.574853245193539e+00  1.08721220e-01  -7.68604520e-01  -7.87774010e-01
C     5.337230817198709e+00   5.321304893908182e+00   3.576949447939951e+00  3.84986600e-02   3.56386030e-01  -8.86665870e-01
C     3.557455949504899e+00   5.338017221993160e+00   5.325879732537962e+00 -2.96981160e-01   2.15403050e-01   5.14427730e-01
C     5.315104145772530e+00   3.543104826161607e+00   5.319313966900773e+00  7.49807120e-01   7.14628980e-01   3.05910660e-01
C     4.441909136427267e+00   4.459473480047476e+00   4.435007355652830e+00 -6.14004500e-02  -6.32038750e-01   8.60029650e-01
C     6.209875065959375e+00   6.229875750348365e+00   4.454328332670895e+00  5.29196890e-01  -4.57331390e-01  -6.33495090e-01
C     4.429712078390513e+00   6.248613410206232e+00   6.243728146760636e+00  3.12885690e-01  -1.15714271e+00  -9.57886530e-01
C     6.211427118954226e+00   4.447752046568228e+00   6.197848467897050e+00 -2.01667310e-01  -1.59658680e-01   9.05572710e-01
