64
Lattice="7.10842262195238 0 0 0 7.10842262195238 0 0 0 7.10842262195238 " PBC="1 1 1" Properties=species:S:1:pos:R:3:force:R:3 Energy="-511.24143715"
C     7.083524019173152e+00   7.055809061304260e+00   7.056677141874615e+00  2.07990987e+00   1.73236884e+00   1.00111116e+00
C     1.723425335321677e+00   1.802511157443880e+00   7.091694013627222e+00  6.94136200e-01  -1.88052490e-01   6.31922490e-01
C     1.955804291244180e-02   1.725471210435939e+00   1.758823645032074e+00 -1.52699683e+00   1.24320731e+00   1.50152390e-01
C     1.826106500067577e+00   7.054793552048767e+00   1.796226103415955e+00 -1.11864844e+00   1.89099785e+00  -2.09111630e-01
C     8.639890333785543e-01   8.631023287409353e-01   8.850315281867306e-01  1.47347988e+00  -7.26834220e-01  -6.42334350e-01
C     2.655824477394813e+00   2.703234599648487e+00   8.757719547134661e-01 -3.69507500e-01  -1.41107844e+00   8.21655720e-01
C     8.927059234157351e-01   2.608866592988224e+00   2.646116575706905e+00  5.22433620e-01   1.35454257e+00  -8.09634850e-01
C     2.711452433786790e+00   9.431296614391573e-01   2.680249586190943e+00 -1.23189233e+00  -3.19016558e+00  -6.30076600e-01
C     3.575814659352894e+00   8.243218315479420e-02   7.089802106946910e+00 -1.00670766e+00  -1.79188190e+00   9.63923330e-01
C     5.354071665564656e+00   1.853211768528352e+00   7.080211067726875e+00 -1.47081490e-01  -2.36613238e+00  -4.32655060e-01
C     3.535823384535036e+00   1.835768268092681e+00   1.807760158874940e+00  8.83975580e-01  -1.52663046e+00  -6.43070160e-01
C     5.365905341037074e+00   7.054879421794016e+00   1.717193949884533e+00 -5.61451690e-01   1.95660499e+00   1.21719495e+00
C     4.440568345752682e+00   9.508588626065619e-01   8.603418439006846e-01  9.91935440e-01  -6.53403120e-01   6.52136220e-01
C     6.223732367183255e+00   2.699946527681380e+00   8.395743739636760e-01 -3.72826610e-01  -1.42663909e+00   3.04692215e+00
C     4.439929369643370e+00   2.619202097309252e+00   2.772722203043808e+00 -1.11605295e+00   2.12656537e+00  -3.23845393e+00
C     6.204624287422659e+00   8.688744389926015e-01   2.648058952187820e+00 -1.31321790e-01   6.39095600e-02  -3.65009510e-01
C     7.079368577477952e+00   3.605567033313130e+00   4.618178682493740e-02 -2.53050340e-01  -2.36707170e-01  -2.20175979e+00
C     1.766438045174166e+00   5.370691513071347e+00   7.051214887764954e+00  1.44838082e+00  -7.87184010e-01   2.25232655e+00
C     1.329872137440080e-02   5.386650277274377e+00   1.749542390869819e+00  8.53888470e-01  -4.03263461e+00   1.21684638e+00
C     1.757787308098304e+00   3.563511259313746e+00   1.710103156152630e+00  6.11162520e-01  -1.27896530e-01   3.09017452e+00
C     8.846958684706142e-01   4.461251580881643e+00   8.868213579182205e-01  6.90304300e-02   9.32345600e-01  -8.47541370e-01
C     2.721348068916092e+00   6.198241919089067e+00   9.524096360853411e-01 -1.82862164e+00   1.65002722e+00  -3.38867219e+00
C     8.773058101464097e-01   6.168003826611206e+00   2.637286208791437e+00  1.57155425e+00   2.37870910e+00   2.36500921e+00
C     2.683300165758316e+00   4.411691445122324e+00   2.714868101939926e+00 -1.34975702e+00   1.14975108e+00  -1.42263401e+00
C     3.591159469094236e+00   3.527435090422305e+00   7.227453156771900e-02 -2.59746295e+00   5.49382680e-01  -3.70463510e+00
C     5.324804086027103e+00   5.289115894842262e+00   5.792013835002200e-02 -1.52934080e-01   1.34072160e+00  -1.39061146e+00
C     3.538038440107655e+00   5.307715793469755e+00   1.768513562410754e+00  1.80883676e+00  -1.06161622e+00   1.48379802e+00
C     5.302521313640190e+00   3.497273200234931e+00   1.833645195508766e+00  1.43278695e+00   1.10806715e+00  -1.22495549e+00
C     4.422111610756757e+00   4.369045316624349e+00   8.751709375809451e-01  1.31566865e+00   2.22871063e+00   3.42887986e+00
C     6.315420143094647e+00   6.171659475111993e+00   8.666659231687939e-01 -4.48976876e+00   1.55953730e+00  -5.20423340e-01
C     4.495902795374679e+00   6.187163087014666e+00   2.646643167654595e+00 -1.47938436e+00   8.50131000e-03  -1.28408330e-01
C     6.244327671124408e+00   4.429658196547053e+00   2.644132330616759e+00 -5.49692670e-01  -2.65007700e-01   5.74650890e-01
C     7.087416591399863e+00   7.106190859634225e+00   3.506619141043028e+00  1.36381089e+00  -3.16366200e-02   1.37867517e+00
C     1.801186502888643e+00   1.757794700857829e+00   3.533393725683520e+00 -4.40756900e-01   1.09725005e+00   8.98262400e-02
C     1.077985181900380e-02   1.755597985015571e+00   5.260009676498184e+00 -1.29761105e+00   1.50193655e+00   2.38448759e+00
C     1.768908222034616e+00   6.258560936820660e-02   5.299110265961756e+00  6.18290630e-01  -1.23931253e+00   1.19685976e+00
C     9.361200458935754e-01   9.397009848726265e-01   4.437413841046604e+00 -1.59353321e+00  -1.83656455e+00  -2.14721977e+00
C     2.625428151429431e+00   2.635100724256918e+00   4.436432096798557e+00  9.23278760e-01   1.66180743e+00   7.47050220e-01
C     8.129992516619012e-01   2.714818129728907e+00   6.235775172449155e+00  9.19751830e-01  -1.56184980e+00  -2.73009570e-01
C     2.619584459361981e+00   9.369633180689859e-01   6.210995495532739e+00  1.41059012e+00  -4.11003680e-01  -2.20407180e-01
C     3.565356392573220e+00   7.098365552592997e+00   3.551203096631442e+00  7.90784770e-01   5.63891400e-02   7.92076200e-02
C     5.278503943965543e+00   1.756947021460394e+00   3.590506702645041e+00  1.79696638e+00  -1.32815551e+00  -1.29819174e+00
C     3.563537986982797e+00   1.793591224403399e+00   5.285417666889981e+00 -1.19761255e+00  -2.81171840e-01   2.30551538e+00
C     5.339997273113960e+00   5.658091152841400e-03   5.328027115927237e+00  3.51919880e-01  -8.48848700e-01   4.18523670e-01
C     4.454069941508657e+00   8.633336368129902e-01   4.453904599598516e+00 -8.14163740e-01   6.87967100e-02   1.86942080e-01
C     6.148574659400865e+00   2.633109583996830e+00   4.405669971405149e+00  2.72099697e+00   1.29015322e+00   9.65919070e-01
C     4.418313296213985e+00   2.709012112301344e+00   6.231199622977113e+00  1.15377161e+00  -1.04215073e+00  -1.66338458e+00
C     6.268193347060343e+00   8.392334540148207e-01   6.179892094769346e+00 -1.93879718e+00   2.32320638e+00   3.10532610e-01
C     4.573480921059180e-02   3.523660375842633e+00   3.512234652744376e+00 -1.88591884e+00   3.62753160e-01   1.11817103e+00
C     1.781088788530891e+00   5.342254979222298e+00   3.639386846696531e+00 -5.96579180e-01  -1.51456755e+00  -2.10980558e+00
C     7.107888990713917e+00   5.349091504677084e+00   5.363587497673371e+00 -4.03877400e-01  -6.74388000e-02  -1.09002171e+00
C     1.719524517324726e+00   3.534818182492342e+00   5.376861552821281e+00  2.02125557e+00   3.75877610e-01  -5.25019180e-01
C     8.818166018883832e-01   4.424412393906172e+00   4.505916359235247e+00 -2.09910520e-01   3.20635060e-01  -1.52717119e+00
C     2.660403509993939e+00   6.231363543202731e+00   4.485492510447688e+00  5.60273490e-01   4.33257050e-01  -1.13199268e+00
C     8.982422472890959e-01   6.265739093066562e+00   6.169714895020066e+00  2.15380560e-01  -1.06702101e+00   9.37115260e-01
C     2.679777942350106e+00   4.431134189419870e+00   6.253201399417859e+00 -4.73692630e-01   2.09421600e-01  -6.96885960e-01
C     3.539375534402476e+00   3.547391560422598e+00   3.592988324065909e+00 -1.09704460e-01  -1.59459300e-02   4.03987500e-02
C     5.330014275470658e+00   5.272777114365967e+00   3.561252131520884e+00  1.32691891e+00   2.38575706e+00  -5.70129170e-01
C     3.569475652397283e+00   5.325244666061091e+00   5.352617922054639e+00 -5.60226020e-01   9.98876740e-01   6.93504440e-01
C     5.306057896062091e+00   3.594161284882436e+00   5.295092301160028e+00  3.44110180e-01  -7.10888230e-01   1.66833053e+00
C     4.431699877691970e+00   4.479522714962961e+00   4.449538961846443e+00 -2.33386800e-01  -1.42674976e+00  -1.16298160e-01
C     6.255850282022975e+00   6.244193179768438e+00   4.458988472372114e+00 -1.39469358e+00  -1.36832703e+00  -1.13833930e+00
C     4.463441543722413e+00   6.241337868570436e+00   6.258879323069809e+00 -5.35199490e-01  -2.06005290e-01  -4.94240080e-01
C     6.165278101957567e+00   4.496074179444046e+00   6.236974363345149e+00  1.68152608e+00  -1.57051378e+00  -6.25602040e-01
