64
Lattice="7.10842262195238 0 0 0 7.10842262195238 0 0 0 7.10842262195238 " PBC="1 1 1" Properties=species:S:1:pos:R:3:force:R:3 Energy="-501.45521026"
C     6.276012114352759e-02   6.175826005946480e-02   7.089596318112060e+00 -1.66421885e+00  -3.23131618e+00  -1.00626370e+00
C     1.844200207920299e+00   1.693861050223966e+00   5.942641310319999e-02 -4.50524516e+00   2.35443705e+00  -3.61607920e+00
C     7.058523767902838e+00   1.765351451692473e+00   1.800694031369529e+00  1.86690381e+00   1.24154849e+00  -1.87730037e+00
C     1.847042226368001e+00   2.617420726600680e-02   1.788672409203038e+00 -3.48591034e+00  -3.78169750e+00  -8.33683700e-01
C     8.368713962624210e-01   8.831817744525542e-01   8.789047787305526e-01  3.77795975e+00   4.00565760e-01   2.45503549e+00
C     2.682815940009441e+00   2.645862520682467e+00   7.601292921622582e-01  9.44187730e-01  -7.20484100e-01   5.03016449e+00
C     9.244791508426110e-01   2.685859411154194e+00   2.678435090232962e+00  2.96599070e-01  -2.03245059e+00  -4.32223600e-02
C     2.712649847577129e+00   8.330880094071522e-01   2.593193800627196e+00  2.37467540e-01   1.95424061e+00   2.19848872e+00
C     3.553278756036482e+00   7.097527398481873e+00   7.027511710370112e+00 -1.56523463e+00   3.22438550e-01   1.04262629e+00
C     5.248304236969830e+00   1.621645163142862e+00   9.737614894459399e-03  2.98496835e+00   5.70485847e+00  -1.77533323e+00
C     3.524163652164129e+00   1.607302143401357e+00   1.673014747880102e+00  1.36072236e+00   5.99416444e+00   1.76034869e+00
C     5.337701323691927e+00   8.142129437400400e-03   1.782593570515318e+00  1.08221088e+00  -1.52422971e+00   1.18508450e-01
C     4.403447380904554e+00   7.625231245637694e-01   8.722311783222180e-01  1.14852676e+00   1.89504947e+00  -1.07032176e+00
C     6.151128502395552e+00   2.604688901930224e+00   8.693639960584409e-01 -7.16909920e-01  -4.61253770e-01   2.11312068e+00
C     4.378660950986649e+00   2.667116775400493e+00   2.710214146566386e+00 -8.60967470e-01   7.39170860e-01  -2.52939464e+00
C     6.234743171653183e+00   8.955682719521304e-01   2.649219686517440e+00 -2.14162088e+00   1.82819290e-01  -4.20400190e-01
C     7.054952425294323e+00   3.508739725679026e+00   2.328747684002480e-02 -3.27367650e-01  -8.87072120e-01   3.74767283e+00
C     1.708361592610730e+00   5.380634490295298e+00   7.046423100076812e+00  8.52224840e-01  -6.49976600e-01   4.31001908e+00
C     7.090373481957105e+00   5.335929336101213e+00   1.822897758096909e+00  2.73161913e+00  -2.66878044e+00   2.49412087e+00
C     1.883018024332047e+00   3.501956157972760e+00   1.841158300628522e+00 -3.81561612e+00   1.86787161e+00  -2.28435160e+00
C     7.949555871044242e-01   4.359458968963243e+00   1.044299717704498e+00  2.68047236e+00   1.60738503e+00  -4.59806267e+00
C     2.592550488380086e+00   6.227294966431947e+00   8.185305285552018e-01  2.05468770e+00   6.85080590e-01   9.47222950e-01
C     1.012827034385995e+00   6.119718657533010e+00   2.815725245441534e+00 -4.59369418e+00   3.60194488e+00  -6.37055847e+00
C     2.616101190109729e+00   4.528561519007329e+00   2.725615752604462e+00  3.46644533e+00  -3.67989148e+00  -2.20498704e+00
C     3.530799720101030e+00   3.571219277381743e+00   7.054292479338283e+00  8.05448540e-01   1.62519605e+00   1.82684650e+00
C     5.320503632510456e+00   5.448831417395507e+00   6.291565343045320e-02  1.98941064e+00  -4.27018588e+00   1.58931650e-01
C     3.551463762488917e+00   5.375671034200884e+00   1.758025653508753e+00 -2.29669219e+00  -3.39171620e-01   2.85945000e-01
C     5.270572508174599e+00   3.513423607511797e+00   1.861966999416727e+00  1.21898007e+00   9.93995520e-01  -3.27717091e+00
C     4.426366499284410e+00   4.503957420129627e+00   9.353320061619221e-01 -4.40692200e-02  -1.90814445e+00  -5.69992360e-01
C     6.330281011424019e+00   6.209927668286763e+00   9.896614669939036e-01 -3.92479098e+00   2.66471496e+00  -3.89357787e+00
C     4.445551421093528e+00   6.218870206111175e+00   2.619029789144943e+00  1.70324613e+00  -9.27626200e-01   1.38741909e+00
C     6.232878063726147e+00   4.376715873305138e+00   2.707898577897921e+00 -1.40614757e+00   8.87820750e-01  -5.94263680e-01
C     7.232258450463019e-02   4.442081728928480e-02   3.476261627065151e+00  1.08759037e+00  -2.54161590e-01   5.86884220e-01
C     1.913663002920677e+00   1.805726012658001e+00   3.523089498422021e+00 -2.46145568e+00   1.47627130e+00  -3.39310050e-01
C     7.055843750406646e+00   1.848984602848916e+00   5.268883191538956e+00  2.25398981e+00  -1.38358017e+00   1.23983396e+00
C     1.770861971991723e+00   5.829439680096499e-02   5.216619296151895e+00 -5.02711250e-01  -7.36124910e-01   3.05304690e-01
C     9.507710735872050e-01   9.910985767949889e-01   4.285554262836079e+00 -1.38235502e+00  -1.52149822e+00   4.34994630e+00
C     2.743722326702125e+00   2.806876752048384e+00   4.500992568139051e+00 -2.46496663e+00  -3.74375850e+00  -8.24862120e-01
C     8.499122951483944e-01   2.672771525594703e+00   6.331835623451013e+00  7.23598460e-01  -1.19692123e+00  -2.65814066e+00
C     2.630680849240254e+00   9.086063985532820e-01   6.117073755644561e+00  1.42604474e+00  -3.04560090e-01   2.21764209e+00
C     3.569275763553208e+00   7.028077540810664e+00   3.517332458026309e+00  2.66320420e-01   2.03559928e+00  -6.54143840e-01
C     5.214555792149535e+00   1.810258840510096e+00   3.480762111594326e+00  2.75159186e+00  -4.02353302e+00   3.77274109e+00
C     3.572115222968768e+00   1.783602468937775e+00   5.285465222237309e+00 -8.13908050e-01   1.34550547e+00   1.33141676e+00
C     5.469929144647439e+00   2.362512691447480e-02   5.284697015004766e+00 -2.24522232e+00  -1.52282441e+00  -2.68278320e-01
C     4.389660595233064e+00   7.831813380451086e-01   4.500732755292290e+00  2.30112872e+00   2.98670264e+00  -3.62534335e+00
C     6.090745011270795e+00   2.577506151662892e+00   4.416206786254775e+00  1.58072652e+00   4.85003992e+00  -9.06546100e-02
C     4.422090498741575e+00   2.755935520858226e+00   6.168920457708055e+00 -7.91401870e-01  -4.40672220e+00   1.42280584e+00
C     6.291463195012271e+00   9.206586580212657e-01   6.152905963471683e+00 -1.96180577e+00  -1.48544606e+00   1.69777535e+00
C     7.077847517205725e+00   3.520006717700179e+00   3.588823925758209e+00  3.33048470e-01  -1.91830389e+00  -9.52791600e-01
C     1.718129631554003e+00   5.190002305240888e+00   3.646135725300411e+00  2.32492557e+00   3.24047947e+00  -6.55177220e-01
C     1.072476865212142e-01   5.251116826547886e+00   5.318125580807161e+00 -4.70535459e+00   1.79905288e+00  -4.23073600e-01
C     1.696136385220402e+00   3.582144069937968e+00   5.526737596783921e+00  3.45842327e+00  -5.01211470e-01  -4.95728178e+00
C     8.486425887000100e-01   4.309371743666651e+00   4.468790702828190e+00  1.24921740e+00   1.53724999e+00   2.78447078e+00
C     2.636659956758615e+00   6.269691376043282e+00   4.311651912390469e+00  5.70837500e-02  -2.94589753e+00   5.75459422e+00
C     8.811946149091332e-01   6.191342199757190e+00   6.141721713489827e+00  8.65351280e-01   2.31557762e+00   7.31726200e-01
C     2.643532024326499e+00   4.568033807889701e+00   6.297791397165500e+00 -1.77946400e-01  -2.54424916e+00  -2.18285903e+00
C     3.560939005504473e+00   3.686850566456759e+00   3.588298755495043e+00 -5.12249100e-01  -1.21609002e+00   1.34022475e+00
C     5.415142967662124e+00   5.296770955161740e+00   3.535786349653186e+00 -2.11570418e+00   2.40286134e+00   1.08210724e+00
C     3.573455516053769e+00   5.456881208423073e+00   5.394036283797688e+00 -1.31426228e+00  -8.58261070e-01  -1.07193621e+00
C     5.254148284458411e+00   3.622364520301096e+00   5.316120721291417e+00  2.50055169e+00  -2.43779561e+00   2.25010651e+00
C     4.410097097012885e+00   4.564349157024624e+00   4.595829446355329e+00  2.07464389e+00  -8.05964150e-01  -5.50647348e+00
C     6.396863189241868e+00   6.235754344770879e+00   4.273116300356735e+00 -4.24204519e+00  -1.36170306e+00   5.75512927e+00
C     4.498131285866049e+00   6.311061471596742e+00   6.242527178758987e+00  8.34056840e-01  -1.74030723e+00  -1.43528028e+00
C     6.189838697288834e+00   4.336751468324785e+00   6.326698508591991e+00 -2.42665400e-01   5.27665440e+00  -3.87901420e+00
