64
Lattice="7.10842262195238 0 0 0 7.10842262195238 0 0 0 7.10842262195238 " PBC="1 1 1" Properties=species:S:1:pos:R:3:force:R:3 Energy="-511.72045448"
C     1.338338268780500e-02   6.997121071142826e+00   7.043874019725280e+00 -1.05100827e+00   3.55967426e+00   2.11294465e+00
C     1.740899473058840e+00   1.809871289308854e+00   7.106646438439941e+00  6.64625350e-01  -3.52717140e-01  -3.82817650e-01
C     4.118051392218400e-03   1.724845527076927e+00   1.761478569796418e+00  2.34052020e-01   6.73661400e-02  -8.13272140e-01
C     1.787614320496051e+00   7.058157470885230e+00   1.739070831339845e+00  7.53825000e-02   1.92852616e+00   1.27407238e+00
C     8.712620870664334e-01   8.399388227914034e-01   8.132374549038974e-01  7.76212440e-01   1.30176340e-01   1.54988271e+00
C     2.631316342222482e+00   2.696653053313081e+00   9.481969715880506e-01 -4.98252500e-01  -1.11663596e+00  -1.67483423e+00
C     8.375291386074496e-01   2.589014119210862e+00   2.661153661833027e+00  1.78327457e+00   2.53350096e+00  -1.54465060e-01
C     2.695290866286411e+00   9.204138439462329e-01   2.645282828817806e+00 -4.60843620e-01  -9.87758730e-01  -6.19480150e-01
C     3.585240996420823e+00   1.185372122420720e-02   2.630329622078600e-02 -1.64032175e+00   3.83356610e-01  -8.34201690e-01
C     5.332650789420417e+00   1.869404186582902e+00   7.026827809029842e+00  7.93282670e-01  -2.86228330e+00   2.55295727e+00
C     3.560086208042752e+00   1.859082970191340e+00   1.757265976383354e+00 -3.02824420e-01  -2.76951902e+00   6.75404110e-01
C     5.369272316495263e+00   7.107863471476710e+00   1.661944588081297e+00 -4.77341560e-01   1.91598690e-01   2.88579112e+00
C     4.447694255092327e+00   9.349728175669336e-01   8.322546890234096e-01  8.66790500e-01   6.55117580e-01   7.52010530e-01
C     6.267899129448101e+00   2.700139237018607e+00   9.068342687941161e-01 -2.65963206e+00  -2.07820121e+00   4.36344610e-01
C     4.433058368338878e+00   2.671729501922837e+00   2.686361194706941e+00  6.92267420e-01  -6.40369330e-01   5.20144400e-02
C     6.290583385544593e+00   8.419895316330471e-01   2.648348904746491e+00 -2.92826031e+00   6.35189380e-01  -8.62831230e-01
C     7.065462157053767e+00   3.577066879081634e+00   4.453519180924060e-02  1.18437480e+00   4.85152350e-01  -2.10495183e+00
C     1.830501495605070e+00   5.368806501560975e+00   7.098953490227898e+00 -9.09549530e-01  -1.90692551e+00   1.00566923e+00
C     4.833727381600000e-03   5.322706177259263e+00   1.792725702865188e+00 -2.76334160e-01  -3.09782180e-01  -7.99684300e-01
C     1.719279205660110e+00   3.539830686702835e+00   1.787564774790390e+00  8.39296380e-01   9.18915360e-01   6.05477310e-01
C     8.667407748589824e-01   4.451263109752924e+00   8.542822690382655e-01  1.16477745e+00   5.85618480e-01   1.72095172e+00
C     2.726221674548591e+00   6.173239393123515e+00   9.556223587726763e-01 -1.31986130e+00   1.48882125e+00  -2.55232979e+00
C     8.705656038181258e-01   6.222127427524112e+00   2.668168324358669e+00  1.50382240e+00  -2.77372160e-01   5.19906200e-02
C     2.674116154817502e+00   4.449750935008971e+00   2.705401673368420e+00 -8.72222590e-01  -6.58786270e-01  -2.39790290e-01
C     3.516787526348260e+00   3.528867793001366e+00   8.740061514504320e-02  5.03062970e-01   5.73747650e-01  -2.55323968e+00
C     5.266083326037391e+00   5.303838433267449e+00   6.150420503502600e-03  1.32032259e+00  -4.57908690e-01   9.42473530e-01
C     3.574732046587868e+00   5.291678196859867e+00   1.801627722680666e+00  1.37832550e-01  -3.58396040e-01   4.14896340e-01
C     5.348021189483190e+00   3.512235079249733e+00   1.877576242479533e+00  5.87687840e-01   1.47939424e+00  -2.94899848e+00
C     4.435244776968338e+00   4.349312975189265e+00   9.359572630155774e-01  3.01996270e-01   2.54948602e+00   1.97501120e-01
C     6.205948302219861e+00   6.167642718742109e+00   8.532174273297896e-01  5.04169100e-01   2.89244490e-01   7.75188200e-02
C     4.472998036008515e+00   6.209037622690513e+00   2.621063295603847e+00  4.81996580e-01   7.95874260e-01   9.06634100e-02
C     6.273040082855338e+00   4.422009462723707e+00   2.685327416805314e+00 -1.54350378e+00   5.03415960e-01   7.66300950e-01
C     2.251422262742120e-02   7.096215183666221e+00   3.582533895834449e+00 -7.58821840e-01   9.72838000e-03  -9.47994800e-01
C     1.762596937927223e+00   1.785583301985064e+00   3.521219343514925e+00  2.88878020e-01  -1.68049320e+00   2.84695950e-01
C     7.101081965213004e+00   1.722087601268819e+00   5.337871641497902e+00  7.16903000e-01   2.23152483e+00  -6.42860110e-01
C     1.760542177284686e+00   5.069371591453000e-03   5.341588209180542e+00  1.19046571e+00   6.89693300e-01  -8.76964710e-01
C     8.915277734506962e-01   8.771502778594842e-01   4.415570298093380e+00  3.59279930e-01   1.33858910e-01   1.16130553e+00
C     2.620700766050227e+00   2.634480158962192e+00   4.397440834874880e+00  8.84001190e-01   2.21761744e+00   1.84319406e+00
C     8.615562468210853e-01   2.718568106997863e+00   6.211188844628003e+00  1.06035680e-01  -1.54541487e+00   5.07523340e-01
C     2.639484346318219e+00   9.434038332996106e-01   6.191774320768260e+00  6.66038390e-01  -1.43743719e+00   1.15957269e+00
C     3.646194156534347e+00   4.132268237458400e-02   3.500885842778867e+00 -2.86715669e+00  -1.08372523e+00   8.78599240e-01
C     5.329952645446544e+00   1.751105604088183e+00   3.492593583455732e+00  1.87914851e+00   9.18309990e-01   1.57412580e+00
C     3.529011454222517e+00   1.810817136022671e+00   5.295521436633598e+00  2.15686700e-01  -9.72676640e-01   1.29511200e-02
C     5.294471878033754e+00   1.881613684359240e-02   5.346531477354717e+00  8.90016960e-01   2.25773500e-01  -7.32996990e-01
C     4.478178796582423e+00   9.209406491466012e-01   4.369961023626257e+00 -9.47026170e-01  -7.68387220e-01   2.47446889e+00
C     6.263576639821332e+00   2.671236888235271e+00   4.468360643259679e+00 -2.42494247e+00  -8.84698120e-01  -6.27213570e-01
C     4.408676336583826e+00   2.701398565169967e+00   6.204881114731920e+00 -3.20252320e-01  -1.36937120e-01  -3.24182170e-01
C     6.225996328703499e+00   8.690123423914295e-01   6.207010727064646e+00 -6.25722900e-01   2.76023560e-01  -1.23148610e-01
C     2.462073258663200e-02   3.527441345834211e+00   3.583890040701893e+00 -4.15705160e-01   6.41844120e-01  -1.63123890e-01
C     1.811956474000205e+00   5.384945535361649e+00   3.565043124388356e+00 -1.47197496e+00  -1.35248563e+00   4.96491280e-01
C     7.058773202452574e+00   5.345249473335199e+00   5.403901281625498e+00  1.36208682e+00  -6.46989760e-01  -1.97536674e+00
C     1.766833984314100e+00   3.596404774145534e+00   5.309656179592336e+00 -1.90493060e-01  -1.21287421e+00   1.34839859e+00
C     8.655567959873952e-01   4.469962952802454e+00   4.478781306483694e+00  7.87170830e-01   1.11614140e-01  -9.93088140e-01
C     2.673615792949280e+00   6.238749905147172e+00   4.482461905547878e+00  9.49860840e-01   1.59129350e-01  -1.25282177e+00
C     9.334575151170281e-01   6.212436301713588e+00   6.224018339025258e+00 -9.09879100e-01  -5.41651950e-01  -6.54222720e-01
C     2.679789600163203e+00   4.436770884220626e+00   6.258611975295072e+00 -5.94854100e-02  -1.48925000e-03  -8.68200860e-01
C     3.558769799257753e+00   3.527109027076726e+00   3.606679146032030e+00 -7.41673070e-01   1.00588017e+00  -2.25378348e+00
C     5.339671280852607e+00   5.359943578069907e+00   3.546333045210254e+00  8.44421760e-01  -6.31217400e-01   5.82009900e-02
C     3.559548100450417e+00   5.302740821730695e+00   5.357189704062692e+00  4.10312100e-02   1.45204514e+00  -5.97460820e-01
C     5.288255775705243e+00   3.583751568629255e+00   5.335068292869252e+00  1.47210649e+00  -3.51599180e-01  -6.14414860e-01
C     4.448357115501643e+00   4.456703114499784e+00   4.394271971155110e+00 -2.82756710e-01  -1.11446760e-01   2.42342330e+00
C     6.202894381693857e+00   6.261605758565711e+00   4.489848551829225e+00  1.08291300e-01  -1.34840635e+00  -7.02439690e-01
C     4.435754948459775e+00   6.228655305268736e+00   6.251429127490240e+00 -6.61789670e-01  -3.39063480e-01  -9.57462970e-01
C     6.158707929098354e+00   4.447381768833952e+00   6.256750848084703e+00  4.09433580e-01   1.33775000e-03  -5.00736150e-01
