64
Lattice="7.10842262195238 0 0 0 7.10842262195238 0 0 0 7.10842262195238 " PBC="1 1 1" Properties=species:S:1:pos:R:3:force:R:3 Energy="-514.4141631"
C     1.519283166572600e-02   6.770914714002400e-03   7.088406865755056e+00 -5.89240600e-01  -4.11991740e-01   7.02916500e-01
C     1.787028586472163e+00   1.784915821101046e+00   7.095310707972053e+00 -3.98467080e-01  -3.74714480e-01   7.39864070e-01
C     7.098319987604003e+00   1.788698568198279e+00   1.751490596257282e+00  7.41552310e-01  -7.73431420e-01   1.68083817e+00
C     1.774769827327068e+00   7.091021485763145e+00   1.780581389324275e+00  2.69626020e-01   1.00779714e+00  -1.78974110e-01
C     8.855920273103175e-01   8.866328425503380e-01   8.940149394412080e-01  2.87455740e-01   1.51810300e-02  -7.29700040e-01
C     2.657260734185184e+00   2.663830267286362e+00   9.050599354239378e-01  5.15396060e-01   3.34990000e-04  -9.86156540e-01
C     9.060416796719860e-01   2.652622417341408e+00   2.681494270991705e+00 -9.41655740e-01   5.86809350e-01  -1.03384356e+00
C     2.651769122290103e+00   9.038682083716949e-01   2.665286996333879e+00  6.30388120e-01  -9.79629130e-01   3.39768340e-01
C     3.520176040326987e+00   7.101863607364300e+00   1.591454981433460e-02  2.27589368e+00   5.89894810e-01  -1.16251380e+00
C     5.342719301387837e+00   1.791139316189083e+00   6.437885114255400e-03 -7.12013860e-01  -1.21415814e+00  -5.75908400e-01
C     3.561941150925440e+00   1.774167459594249e+00   1.784531895195340e+00 -5.41635110e-01   1.66177530e-01  -3.50774890e-01
C     5.341694124677581e+00   7.102744198758465e+00   1.799141480785095e+00  2.74535200e-02   1.95150690e-01  -1.05181250e+00
C     4.455706940153817e+00   8.933062297059939e-01   8.831367781373696e-01 -6.19989640e-01  -4.14027520e-01   5.36129030e-01
C     6.219094192507931e+00   2.633411691958180e+00   9.049063224111196e-01  1.94987000e-03   2.06598975e+00  -1.41973629e+00
C     4.435141420503443e+00   2.654574319108634e+00   2.657697688923636e+00  4.23931350e-01   2.93633020e-01   7.79838880e-01
C     6.212677419408858e+00   9.204534378602264e-01   2.671426114445415e+00  5.96385200e-01  -1.85316100e+00  -2.70841880e-01
C     7.096057732105189e+00   3.553817290134173e+00   7.092618463988954e+00  6.91443470e-01   1.47671100e-02   4.15758940e-01
C     1.781254770199068e+00   5.333064002027317e+00   3.866932146321660e-02 -2.29874000e-02   8.40072900e-02  -1.97040402e+00
C     7.092794113111894e+00   5.321442939475462e+00   1.766425676518807e+00  6.19209590e-01   6.13829770e-01   3.18694210e-01
C     1.773924849130228e+00   3.540541173543704e+00   1.772652086060118e+00  1.41952690e-01   4.35669230e-01   5.06496420e-01
C     8.754706997628307e-01   4.454700671847730e+00   8.750695714743839e-01  2.90242390e-01  -9.38647910e-01   9.39112960e-01
C     2.705828391978299e+00   6.227426756587322e+00   8.832601803540527e-01 -2.03895136e+00  -7.61617190e-01   1.11865675e+00
C     8.920250076129651e-01   6.222189484053585e+00   2.664519571027824e+00 -4.53501430e-01  -2.35912850e-01  -2.80831080e-01
C     2.676263609291004e+00   4.428121995334646e+00   2.674248229309782e+00 -6.62852100e-01   7.27821400e-01  -2.01815310e-01
C     3.547171696910961e+00   3.563845994934921e+00   7.098763908596623e+00 -4.72141700e-02  -3.80379910e-01   9.24100340e-01
C     5.331146931530930e+00   5.339972962308600e+00   1.100604182677220e-02  2.29332320e-01   3.02160400e-02  -3.67893510e-01
C     3.557098253678661e+00   5.328755515993110e+00   1.784873028396874e+00  1.91075000e-01  -9.76088500e-02   1.07894520e-01
C     5.341515632185593e+00   3.552490289799472e+00   1.758028283625123e+00 -6.55170830e-01  -2.46713790e-01   1.16670120e+00
C     4.430170074059919e+00   4.453242236778785e+00   9.126754018294224e-01  7.07498430e-01  -5.25895510e-01  -1.38958814e+00
C     6.240736211679878e+00   6.218108254290538e+00   8.749740342743713e-01 -7.00465780e-01   4.15657110e-01   6.29103530e-01
C     4.451366963807402e+00   6.197141322014811e+00   2.663810292618800e+00 -5.85251560e-01   1.00944070e+00   5.69469370e-01
C     6.213715249111378e+00   4.454503413120025e+00   2.662413061068613e+00  2.27365880e-01  -7.92000270e-01  -7.29467600e-02
C     7.604092929292600e-03   1.524045809728000e-04   3.557711710550767e+00 -3.94656480e-01   2.93225780e-01  -4.18349640e-01
C     1.767615626465395e+00   1.771538835993599e+00   3.564787860932072e+00  4.23167460e-01   2.83369220e-01  -6.93327060e-01
C     1.372401829975540e-02   1.771884945090967e+00   5.327338878449169e+00 -5.22026350e-01   1.23897170e-01  -1.34206750e-01
C     1.755157404981583e+00   4.662272228005600e-03   5.306985331961322e+00  1.15089011e+00  -2.92849710e-01   1.28316362e+00
C     9.036765652978596e-01   8.895643560388261e-01   4.432073709637555e+00 -8.45284660e-01  -1.50263890e-01   3.09250720e-01
C     2.636991991179195e+00   2.672521095865800e+00   4.439465971572772e+00  1.33342604e+00  -3.93901040e-01   1.19571920e-01
C     8.904121776047133e-01   2.665205249473749e+00   6.214680146397816e+00  7.76754700e-02   9.44285000e-02  -1.82020380e-01
C     2.664360342361135e+00   8.742792570474923e-01   6.221268232482032e+00 -3.90666380e-01   5.87265740e-01  -3.81591170e-01
C     3.547710870766688e+00   1.752439428508600e-03   3.567915353632193e+00  3.62039350e-01   9.79847900e-02  -4.35967900e-01
C     5.325024589296776e+00   1.736585655707666e+00   3.558544462260699e+00  4.63078430e-01   2.53701940e+00  -5.25402760e-01
C     3.545785909921193e+00   1.783607231580931e+00   5.320487638559561e+00  2.52654780e-01  -3.55757850e-01   5.34748820e-01
C     5.321260324098355e+00   4.353624517845200e-03   5.287578627366461e+00  5.97762070e-01  -2.05024350e-01   2.37886671e+00
C     4.470985854817472e+00   9.055464358680506e-01   4.442469777719306e+00 -1.79191347e+00  -8.54099620e-01  -2.48124550e-01
C     6.217481717920811e+00   2.671111140239123e+00   4.424216699031444e+00  3.12340700e-02  -5.65892010e-01   8.82204870e-01
C     4.423004144300924e+00   2.671401306050472e+00   6.216476444793890e+00  6.69175910e-01  -7.41361600e-02   4.70232170e-01
C     6.223151751223654e+00   8.648036586108062e-01   6.219408526956189e+00 -7.33340400e-02   1.25447838e+00  -5.82786310e-01
C     1.526142794400900e-02   3.551539182852916e+00   3.544952873874355e+00 -8.00128050e-01   2.60246340e-01   4.10302680e-01
C     1.765808238930034e+00   5.348977627746711e+00   3.535327216636160e+00  7.35794580e-01  -1.02570973e+00   1.20388490e+00
C     9.462518939065400e-03   5.353563129010421e+00   5.325513506604580e+00 -5.40675070e-01  -9.12651420e-01   5.52929980e-01
C     1.793293950169431e+00   3.557173318621528e+00   5.311606872927716e+00 -1.18062939e+00   8.85919900e-02   1.11304476e+00
C     8.811587173749023e-01   4.439958300923434e+00   4.461975502641264e+00  4.53249340e-01   5.87633020e-01  -1.28821425e+00
C     2.673967375532065e+00   6.223421160440952e+00   4.473107079211506e+00 -5.08260870e-01   1.36227810e-01  -1.46491060e+00
C     8.789555328680594e-01   6.228076466414789e+00   6.209594638687015e+00  8.83274180e-01   3.54440000e-04   3.71886370e-01
C     2.657805026105198e+00   4.425378783961361e+00   6.223589274635914e+00  4.14963310e-01   1.06933827e+00  -7.22864300e-02
C     3.560361019661241e+00   3.558167005019577e+00   3.588290296472126e+00 -4.68891310e-01  -5.82030480e-01  -1.61476333e+00
C     5.303590136065332e+00   5.315736084543448e+00   3.560074905650786e+00  1.45587389e+00   3.06473280e-01  -2.37056040e-01
C     3.567498018140173e+00   5.345436780271237e+00   5.331755128170297e+00 -5.88732610e-01  -8.56680210e-01   4.28648730e-01
C     5.318112714562219e+00   3.545828133951555e+00   5.354070883638167e+00  7.79884660e-01   7.42120650e-01  -1.21825970e+00
C     4.444040525865647e+00   4.438704375173265e+00   4.433418338860355e+00 -2.17933850e-01  -2.35793300e-02   1.17925920e+00
C     6.214549777926965e+00   6.219180204421634e+00   4.458712807742911e+00  6.55953600e-02   2.35838800e-02  -1.35406395e+00
C     4.453230863302593e+00   6.216275489686423e+00   6.215869101165238e+00 -5.80359000e-01   4.45822420e-01   8.66424100e-02
C     6.238392351489386e+00   4.465330180528321e+00   6.221410827439789e+00 -1.17014175e+00  -9.12871730e-01   5.79507600e-02
