64
Lattice="7.10842262195238 0 0 0 7.10842262195238 0 0 0 7.10842262195238 " PBC="1 1 1" Properties=species:S:1:pos:R:3:force:R:3 Energy="-511.66679198"
C     1.996826998184200e-02   3.922164590079060e-02   5.395946743461040e-02 -1.24133671e+00  -1.78602695e+00  -1.04429309e+00
C     1.776127109542131e+00   1.727200263154028e+00   7.084812989446836e+00 -5.04123820e-01   1.74985934e+00   2.12392397e+00
C     7.049742520187674e+00   1.772996204799152e+00   1.830620135178598e+00  2.76046239e+00   1.20833838e+00  -1.27197875e+00
C     1.761437198776770e+00   3.766326640980800e-02   1.792807023219961e+00  3.95556000e-01  -1.50629482e+00   4.11642950e-01
C     8.801689406092934e-01   8.779486958881626e-01   9.486393287276932e-01 -2.50141740e-01   1.49797959e+00  -1.33144797e+00
C     2.665070544865100e+00   2.671748694663911e+00   8.307324914035628e-01  1.47654809e+00  -5.02759350e-01   1.66762462e+00
C     9.369707819127370e-01   2.676980920217588e+00   2.708439599943529e+00 -1.98402407e+00  -2.80505390e-01  -1.18604725e+00
C     2.668535118965861e+00   9.164346911320095e-01   2.680241340420704e+00  9.30264540e-01  -4.02854680e-01  -7.36862970e-01
C     3.538849226791692e+00   7.088139589064544e+00   7.050566599622011e+00  8.34189740e-01   5.64106340e-01   9.60652700e-01
C     5.357552162532087e+00   1.725858406216051e+00   7.065751256601724e+00 -1.19533414e+00   1.67917181e+00   1.71551451e+00
C     3.587817444199443e+00   1.767968843985383e+00   1.786512870411082e+00 -1.35558591e+00   7.95384260e-01  -1.14752389e+00
C     5.348871214660090e+00   7.095594405118817e+00   1.826924821679591e+00 -7.92340210e-01   5.48706530e-01  -1.56121964e+00
C     4.444746321147587e+00   8.704296907776314e-01   9.038121229172230e-01 -1.14322500e-02  -5.01806750e-01  -1.01630839e+00
C     6.161506728336525e+00   2.670750814296516e+00   9.450001717673842e-01  1.71066538e+00  -8.32330570e-01  -2.24419682e+00
C     4.436967076684938e+00   2.706829613304326e+00   2.649550441421949e+00 -1.33831434e+00  -5.97214450e-01  -2.44935650e-01
C     6.209568621860226e+00   9.145675928466402e-01   2.660883115268110e+00 -5.47491670e-01  -1.00523871e+00   1.85027541e+00
C     7.077515767122049e+00   3.574610919066424e+00   6.631966377049260e-02  9.36058520e-01  -1.57195557e+00  -8.73627320e-01
C     1.697653109354831e+00   5.326765086575283e+00   7.101273821539518e+00  2.28475069e+00   2.80105890e-01   4.45879550e-01
C     7.097995985700984e+00   5.265094686619401e+00   1.817109582810122e+00  1.11197670e-01   2.55961868e+00  -1.24524113e+00
C     1.803767997647322e+00   3.544780139204689e+00   1.788171052155649e+00  1.00195810e-01  -1.98925210e-01  -1.31673204e+00
C     9.291310447735913e-01   4.421744602896886e+00   8.767453110228227e-01 -2.62160954e+00   2.69216800e-01   2.45172117e+00
C     2.590855271753668e+00   6.234972631535356e+00   8.248636355200384e-01  2.13467578e+00  -3.16898260e-01   1.93072575e+00
C     8.855959369427585e-01   6.242676668886687e+00   2.717305366803646e+00  1.35106420e-01  -2.57795865e+00  -1.76017192e+00
C     2.700821432337449e+00   4.440173330707688e+00   2.653219382673035e+00 -1.59002071e+00   7.69668400e-02  -2.13121710e-01
C     3.613154208196587e+00   3.607989583742027e+00   7.044419093571782e+00 -1.87145701e+00  -1.61488633e+00   1.79242214e+00
C     5.351189342360698e+00   5.346888249086015e+00   7.051470222305464e+00  5.06113110e-01   1.57926259e+00   1.95046927e+00
C     3.545977695163480e+00   5.323110220000983e+00   1.736104842001649e+00  6.29866740e-01   1.25974225e+00   1.77751370e-01
C     5.259511091735618e+00   3.563440032919094e+00   1.707461524138586e+00  9.67465530e-01   3.37718510e-01   1.92387770e+00
C     4.486343317551077e+00   4.494798501920663e+00   8.124123802903940e-01 -2.43630210e+00  -1.00726243e+00   9.13058970e-01
C     6.209994416375165e+00   6.251704010192955e+00   9.273784631766304e-01  1.04829252e+00  -1.43227022e+00  -9.62180280e-01
C     4.487730597309596e+00   6.208493330770499e+00   2.683132335900258e+00 -1.96331341e+00   3.76510270e-01  -3.11327940e-01
C     6.125522968939145e+00   4.404812908889856e+00   2.626459370298915e+00  3.45525740e+00   4.57135640e-01   1.18357802e+00
C     1.462159882398280e-02   7.106307295596740e+00   3.557651004621592e+00 -1.17175760e-01   3.34556470e-01  -3.73559760e-01
C     1.824166256113448e+00   1.812513418912482e+00   3.577992040285626e+00 -1.16610365e+00  -8.85850370e-01  -2.95065720e-01
C     7.090121132954096e+00   1.762090249562869e+00   5.326966752525013e+00  1.49542432e+00   9.05238510e-01  -1.00756160e-01
C     1.728047658214558e+00   3.017475643231660e-02   5.288325793668050e+00  1.37940028e+00  -1.80340636e+00   1.32712111e+00
C     9.016145540642500e-01   8.711101800750439e-01   4.398530769315204e+00 -7.70389520e-01   2.00237246e+00   1.56190402e+00
C     2.693448078806402e+00   2.689362868326687e+00   4.475960115714269e+00 -3.72810630e-01  -1.06703578e+00  -6.02657400e-01
C     8.592256793808921e-01   2.643219822405029e+00   6.299395412729702e+00  5.21712500e-01  -2.37830330e-01  -2.30303263e+00
C     2.649148744459693e+00   8.942669330230869e-01   6.188701847259217e+00 -2.75141000e-02  -8.51031600e-01  -6.84637400e-02
C     3.544803312662430e+00   7.107265226629012e+00   3.542117466259689e+00  5.74483340e-01  -6.99700600e-02   4.94375650e-01
C     5.309464891939632e+00   1.845919877520529e+00   3.519793607190032e+00  5.85090040e-01  -1.70391555e+00   1.92168973e+00
C     3.539843481863551e+00   1.759088007269312e+00   5.328744711190726e+00  1.36062117e+00   1.13162593e+00   2.88997950e-01
C     5.413658302513710e+00   1.747890038031800e-02   5.268011841094197e+00 -1.52564264e+00  -9.52573530e-01   1.30565421e+00
C     4.436376793270573e+00   8.975141315601292e-01   4.475423429806459e+00  5.61106990e-01   4.02334000e-03  -2.58615894e+00
C     6.236813073235901e+00   2.673136898517371e+00   4.460156599461259e+00 -1.05632178e+00  -1.48472300e-02  -6.79218780e-01
C     4.474574755229857e+00   2.661088477597602e+00   6.194140501405778e+00 -8.06257890e-01  -1.72283640e-01   4.58597160e-01
C     6.254675046511211e+00   8.830207686802112e-01   6.186918841613442e+00 -2.00990260e-01  -1.72886130e-01   1.20947996e+00
C     7.086339309951803e+00   3.536033936013041e+00   3.548450217803395e+00  3.74756160e-01  -2.06041700e-01   4.88278610e-01
C     1.760359846244482e+00   5.250698922382056e+00   3.575065644861425e+00  4.70539410e-01   2.79063888e+00  -3.98925790e-01
C     7.108305046689865e+00   5.299467393114186e+00   5.339802289081494e+00  5.69910710e-01   3.11347970e-01   7.43729120e-01
C     1.821397596587184e+00   3.499587702640003e+00   5.388659046422564e+00 -2.43335081e+00   1.49538416e+00  -2.40488690e-01
C     8.671628729941580e-01   4.363437624187884e+00   4.472390976716767e+00  1.04282080e+00   1.59456503e+00  -1.76970980e-01
C     2.635613170443593e+00   6.239440204067800e+00   4.408867268815399e+00  2.75864460e-01  -1.34945633e+00   1.39929002e+00
C     8.409204959552253e-01   6.210350903769558e+00   6.260433579675673e+00  7.16987610e-01   7.13966950e-01  -1.81859185e+00
C     2.640665979410342e+00   4.466293798298688e+00   6.266441902811001e+00  9.62252230e-01   3.29575000e-02  -2.29378343e+00
C     3.527441985592247e+00   3.583342834328605e+00   3.548953991714474e+00  1.76813106e+00  -1.01587618e+00   2.67622730e-01
C     5.364687099568459e+00   5.316109276730998e+00   3.563653214513467e+00 -1.43703937e+00  -1.36868760e-01  -3.27530780e-01
C     3.521101983457469e+00   5.367595439599206e+00   5.345749693034969e+00  1.18454007e+00  -5.58291110e-01  -1.48240567e+00
C     5.337690447805318e+00   3.576553224463112e+00   5.357725181538657e+00  2.87692530e-01  -1.05064319e+00  -1.22780888e+00
C     4.434065418571453e+00   4.419994580332069e+00   4.424536862386248e+00  4.81248300e-02   1.69483346e+00   1.38947775e+00
C     6.297277671462752e+00   6.189856539429609e+00   4.437515917995428e+00 -1.82728231e+00   5.46438780e-01  -6.02487090e-01
C     4.538843710158706e+00   6.227262267687895e+00   6.142548351956307e+00 -3.24873804e+00   3.03672380e-01   1.22479496e+00
C     6.227233762913189e+00   4.457553210760910e+00   6.263644383088900e+00  9.28780300e-02  -7.21484860e-01  -1.51062044e+00
