76
Lattice="10.7446858958278 0 0 5.37234294791388 9.3051709414712 0 0 0 30 " PBC="1 1 1" Properties=species:S:1:pos:R:3:force:R:3 Energy="-609.14055283"
C     6.735537367161851e-02   5.724010767544421e-02  -1.280469000000011e-01  3.21848871e+00  -2.26007716e+00   1.24047179e+00
C     1.252954186955626e+01   8.550368599755746e+00  -2.922963000000003e-01 -5.18349640e-01  -9.57110140e-01   8.55797930e-01
C     1.390363908067113e+01   8.345614175478739e+00  -3.041787000000014e-01  1.99095171e+00   1.88547961e+00   1.82690770e-01
C     1.442301286036356e+01   7.067182043979575e+00  -9.714059999999947e-02  3.18354322e+00  -1.30202164e+00  -6.62933160e-01
C     8.340988779011512e+00   9.013516361779716e+00   5.128680000000000e-02 -1.38743271e+00  -3.12385960e-01   9.22343200e-02
C     9.738441498973494e+00   8.827022963265621e+00  -4.955759999999998e-02  2.26924620e-01   4.88043820e-01  -1.61784970e-01
C     1.030458082564110e+01   7.512768063836774e+00   2.433630000000000e-02 -2.13872840e-01   1.64947264e+00  -1.33741763e+00
C     1.172454962586425e+01   7.380323657675958e+00  -3.573809999999966e-02 -1.47749311e+00   7.32244220e-01   1.13291240e-01
C     1.221785502469011e+01   6.087900364203120e+00   1.595568000000000e-01  8.69628460e-01  -7.45520760e-01  -9.42486250e-01
C     1.362043107950636e+01   5.904864115848362e+00   8.396729999999999e-02 -2.81781370e-01   1.22440592e+00   1.05244460e-01
C     6.069207443946524e+00   7.965946637922466e+00  -6.874889999999922e-02 -1.55249647e+00   2.03298052e+00  -6.69282970e-01
C     7.487900796229919e+00   7.815556930448732e+00  -2.435399999999532e-03 -4.17068890e-01   1.67657030e-01  -8.68386480e-01
C     8.025504869595167e+00   6.462256137980003e+00  -1.694847000000017e-01 -9.82300400e-02   2.37614870e+00   1.33683694e+00
C     9.450929176637189e+00   6.410816780816846e+00  -8.775869999999841e-02 -4.13550800e-01  -2.05921975e+00   1.24800127e+00
C     1.000328688565859e+01   5.104601456028449e+00   9.975389999999999e-02 -2.10714844e+00  -2.68280450e-01  -6.33652050e-01
C     1.136973554583897e+01   4.923562097357415e+00   1.723146000000000e-01  1.02309523e+00   1.45771118e+00  -1.75676510e-01
C     1.193421347544929e+01   3.658617066722106e+00   9.466350000000001e-02  1.77711003e+00  -1.36070113e+00   9.38591290e-01
C     5.175722880480419e+00   6.861805475973519e+00  -1.797566999999987e-01 -7.46550770e-01  -5.11224910e-01   8.62642240e-01
C     5.723082322791424e+00   5.512412948351298e+00  -1.142177999999987e-01  4.26478380e-01   1.41771692e+00   7.85172110e-01
C     7.167988249626172e+00   5.316613169224981e+00  -6.275970000000086e-02 -1.20220169e+00   2.28232335e+00  -3.65363100e-01
C     7.735883795204129e+00   4.054665241097736e+00   8.571809999999999e-02 -1.22897978e+00   9.66442990e-01  -2.07546630e-01
C     9.106343930141849e+00   3.977760329571371e+00   9.061259999999999e-02  2.59806175e+00  -1.76735095e+00  -3.46588900e-02
C     9.677726985869230e+00   2.644082746839461e+00   5.096280000000000e-02  1.47622084e+00   1.16779778e+00  -9.41513310e-01
C     1.111636392571562e+01   2.524302306121149e+00   6.090660000000001e-02 -6.36422290e-01  -2.23720517e+00   6.36477950e-01
C     3.421112933115514e+00   4.621306696195447e+00   1.787514000000000e-01  2.41660376e+00   3.94549000e-02  -6.75509170e-01
C     4.850722939996739e+00   4.415554106231705e+00   9.089580000000000e-02 -2.25162830e-01   1.47427838e+00   2.18126720e-01
C     5.422273344207012e+00   3.151633388813470e+00   1.534593000000000e-01  2.15578292e+00  -1.62814648e+00  -1.10815827e+00
C     6.875750360707618e+00   2.950621132081694e+00   9.800940000000000e-02 -5.60143690e-01  -9.62279640e-01  -1.56511317e+00
C     7.463784080110222e+00   1.688059155724118e+00  -3.026598000000007e-01 -4.84922160e-01   1.75343090e-01   1.99853299e+00
C     8.900563854722227e+00   1.506587385759503e+00  -2.514257999999998e-01 -1.76082335e+00   1.19617978e+00   4.04246640e-01
C     9.459048452260953e+00   2.336738719897244e-01  -3.150605999999989e-01 -1.87530754e+00  -2.33216873e+00   7.53825200e-02
C     2.642508348631599e+00   3.489199122141457e+00   1.538847000000000e-01 -2.15051872e+00  -2.81386310e-01  -4.33020640e-01
C     3.241626124838355e+00   2.219661524388711e+00   2.284350000000000e-02 -2.56009910e+00  -1.92595397e+00   1.20324494e+00
C     4.607852853531472e+00   2.017936677666348e+00  -2.770140000000154e-02  1.34140047e+00  -1.40631124e+00   4.40333300e-02
C     5.191560654943878e+00   6.758640627640797e-01  -1.971603000000002e-01 -1.46007730e-01   1.33701848e+00   1.13776242e+00
C     6.610805854295097e+00   5.551569200718528e-01  -2.815437000000003e-01 -7.70344310e-01  -4.87626010e-01  -6.35893340e-01
C     9.437658791146105e-01   1.152628453631390e+00   1.481103000000000e-01 -1.17737070e-01   2.11901286e+00  -1.53245325e+00
C     2.380219713679841e+00   1.049533114925592e+00   1.617447000000000e-01  1.08022710e-01  -1.39426947e+00  -1.27297427e+00
C     1.603428756963045e+01   9.280785622931218e+00   3.310397400000000e+00 -6.29867190e-01  -3.21600680e-01  -5.73118090e-01
C     1.175934946083374e+01   8.739325728379626e+00   3.332761500000000e+00  1.95836200e+00   3.58635612e+00   1.29320821e+00
C     1.320415175517298e+01   8.975398566489391e+00   3.320865900000000e+00 -3.30320210e-01  -2.76853970e-01   3.92610490e-01
C     1.405283683428990e+01   7.798996703830233e+00   3.416472000000000e+00  3.43329600e-01   2.20453817e+00  -5.05972220e-01
C     7.531721332246755e+00   8.289816090143866e+00   3.376488000000000e+00  8.65668020e-01  -1.50197080e-01  -1.22610481e+00
C     8.953502492364093e+00   8.449993720825967e+00   3.360103200000000e+00  4.52921290e-01   7.35269400e-01   5.89011040e-01
C     9.837100709163320e+00   7.310196167403742e+00   3.408076200000000e+00 -2.05050136e+00  -7.05312260e-01   1.04661181e+00
C     1.123732598787494e+01   7.483296447280477e+00   3.451543500000000e+00 -6.60154520e-01  -1.09574041e+00  -1.05331417e+00
C     1.210575233211935e+01   6.372745325277802e+00   3.421349100000000e+00 -1.54843486e+00  -1.02282440e+00   7.66310180e-01
C     1.349225025384856e+01   6.535378869726096e+00   3.424717200000000e+00  7.23121080e-01  -2.57627292e+00   3.79832460e-01
C     4.718814567906511e+00   7.962350003250736e+00   3.402817200000000e+00  1.51201844e+00   1.18731180e-01   7.10179000e-03
C     5.611958309935867e+00   6.806083320833515e+00   3.478557900000000e+00 -1.41416865e+00   1.91016083e+00   1.19051110e-01
C     7.020965596497561e+00   6.954457807436773e+00   3.392320800000000e+00 -1.30058490e+00   1.24182349e+00   1.07509087e+00
C     7.828548061619480e+00   5.829253367496332e+00   3.569332500000000e+00  1.18043770e-01  -5.40601260e-01   1.01603140e-01
C     9.228530725323473e+00   5.970086850518105e+00   3.571711800000000e+00  4.49845040e-01   2.31707580e+00  -7.99623730e-01
C     1.005617636636246e+01   4.855341887972771e+00   3.536915400000000e+00  6.96114710e-01  -7.97567800e-02   1.77955400e-01
C     1.147226988072206e+01   5.099084513229831e+00   3.530544300000000e+00  1.25046639e+00  -3.05945295e+00  -8.74626560e-01
C     1.230438955524637e+01   3.888465862093525e+00   3.432304800000000e+00  1.89020988e+00   2.86482690e-01  -6.07445900e-02
C     3.617084453394171e+00   5.346301689315888e+00   3.503949900000000e+00 -2.13512719e+00   1.07558060e+00  -3.74651580e-01
C     4.989695674449070e+00   5.572324012293361e+00   3.655657500000000e+00  1.17401634e+00  -2.97751705e+00  -1.36994835e+00
C     5.837830195860475e+00   4.377560069714882e+00   3.589436700000000e+00 -4.22705740e-01   3.16341600e-01   9.98658070e-01
C     7.229782281322811e+00   4.529910190602254e+00   3.662890200000000e+00  9.37559900e-01  -2.86591830e-01  -1.74577314e+00
C     8.066797664530599e+00   3.373239198507690e+00   3.380763600000000e+00 -7.77262600e-02   2.44242091e+00   1.17284721e+00
C     9.469978913780164e+00   3.556601220897057e+00   3.406929600000000e+00  2.12526109e+00  -9.89632270e-01  -9.27608110e-01
C     1.038047102566366e+01   2.412123817853979e+00   3.185258700000000e+00 -6.25776100e-01   6.05235060e-01   2.14120609e+00
C     1.179575970932592e+01   2.535696580988888e+00   3.392548200000000e+00 -6.53828270e-01   1.94764068e+00  -1.21856132e+00
C     3.042123632155810e+00   4.022021584819703e+00   3.350774100000000e+00 -1.35646295e+00   2.53930999e+00   1.65380170e+00
C     3.923932643858968e+00   2.941890276292110e+00   3.443839200000000e+00 -3.21375361e+00  -1.47242040e+00   3.68154300e-02
C     5.273102022515548e+00   3.057789530211348e+00   3.556305000000000e+00  2.16703850e+00   5.58860890e-01  -2.15905320e-01
C     6.104746943093370e+00   1.880873184650918e+00   3.509914500000000e+00  5.31991150e-01   1.99352900e+00  -4.15874670e-01
C     7.487950275508489e+00   2.124042890533202e+00   3.282973200000000e+00  8.53649990e-01  -2.09532087e+00   1.25234073e+00
C     8.403706961142408e+00   1.019611593354346e+00   3.314216100000000e+00 -1.71730202e+00  -2.57612318e+00  -8.86855110e-01
C     9.804367829420411e+00   1.117916537008523e+00   3.239536200000000e+00  3.92291140e-01   3.29101600e-01  -3.45924800e-02
C     1.937088559707489e+00   1.415003380971869e+00   3.326786400000000e+00 -1.49866523e+00   1.68162962e+00   1.17897110e-01
C     3.312861135971316e+00   1.650515582532500e+00   3.437475900000000e+00  9.94645330e-01  -1.44682471e+00  -3.75532210e-01
C     4.138203008906480e+00   4.979886483160654e-01   3.436443900000000e+00  1.34131530e-01  -1.63759202e+00   3.99845220e-01
C     5.554974083158935e+00   6.032928484996010e-01   3.542879400000000e+00 -3.36617170e-01  -8.74772110e-01  -1.68681979e+00
C     1.328482742340169e+00   1.517969284749892e-01   3.230036700000000e+00  4.13068590e-01  -1.78287261e+00   1.34932317e+00
