76
Lattice="10.7446858958278 0 0 5.37234294791388 9.3051709414712 0 0 0 30 " PBC="1 1 1" Properties=species:S:1:pos:R:3:force:R:3 Energy="-611.37742718"
C     1.355307817711250e-01   3.687062322923720e-02   1.237272000000000e-01 -2.15694260e-01   8.90561800e-02  -5.62459040e-01
C     1.254456127501814e+01   8.618540980561759e+00   8.021249999999999e-02  5.73536860e-01  -2.85632097e+00  -1.14612543e+00
C     1.397825168381675e+01   8.398807929570925e+00   3.319770000000000e-02  5.39178730e-01   1.59647120e-01   7.80606870e-01
C     1.460873857050856e+01   7.087280747951428e+00  -9.253890000000098e-02 -3.70970115e+00   2.17739080e-01  -1.32431250e-01
C     8.275985900594270e+00   8.997555388169754e+00  -5.878829999999979e-02  1.04069552e+00   1.27236477e+00  -2.16556390e-01
C     9.696401249963429e+00   8.837365567713722e+00  -4.374989999999812e-02  3.27624400e-01   1.31921212e+00  -5.25905370e-01
C     1.030985044939389e+01   7.577870203491132e+00  -1.334939999999989e-01 -6.08126140e-01  -8.91474860e-01   5.98143320e-01
C     1.172746283255232e+01   7.425278799521287e+00  -1.020377999999980e-01  5.15338600e-02   5.83634420e-01  -1.17071350e-01
C     1.229968026686326e+01   6.120169487350817e+00  -2.482158000000005e-01  7.84532680e-01   7.50407950e-01   7.76299180e-01
C     1.373131258480116e+01   5.944390248760457e+00  -2.231792999999982e-01 -5.07237570e-01   3.98337680e-01   2.71234720e-01
C     6.066310031946729e+00   8.036300988262198e+00   5.349870000000000e-02  8.12087100e-02  -1.46822940e-01  -7.93433230e-01
C     7.469246356081204e+00   7.861376801829515e+00  -6.703139999999763e-02 -9.66142340e-01  -3.70179360e-01   4.08503720e-01
C     8.022417975059527e+00   6.547232913089981e+00  -1.331744999999991e-01  1.08967764e+00   6.58856620e-01  -4.91984170e-01
C     9.439260179132640e+00   6.437401375037298e+00  -1.535292000000013e-01  1.00557305e+00  -9.60631820e-01  -3.37124090e-01
C     1.004438912358958e+01   5.124941722237903e+00  -1.904319000000001e-01 -2.45442140e-01   9.25434680e-01   3.17110610e-01
C     1.147411614010026e+01   4.988744726740406e+00  -1.966458000000024e-01 -7.98118410e-01  -1.59284607e+00   3.20307190e-01
C     1.202290274531593e+01   3.642673493781800e+00  -5.502779999999774e-02 -4.90715280e-01   7.21787530e-01  -1.25762323e+00
C     5.219660103786128e+00   6.902638334040717e+00  -1.130718000000002e-01  1.50036827e+00  -8.33940000e-03   2.35265730e-01
C     5.762976911750689e+00   5.591644245664373e+00  -2.713908000000025e-01  2.40222319e+00  -2.19628800e-02   5.81798680e-01
C     7.223113699465833e+00   5.397439093682044e+00  -2.614061999999997e-01 -2.12233940e+00   3.38393260e-01   5.91258350e-01
C     7.754608827939208e+00   4.086088338103569e+00  -1.774721999999969e-01  9.90678210e-01   1.42592739e+00  -5.92921700e-02
C     9.201484040805706e+00   3.993944999490732e+00  -1.100525999999995e-01 -8.76321190e-01  -1.08502620e+00  -2.66232700e-01
C     9.763899420510658e+00   2.684075906281034e+00  -3.013920000000070e-02 -1.00072876e+00   1.93284350e-01   3.56427600e-01
C     1.115768320630180e+01   2.518458565719119e+00  -2.343000000000117e-02  3.75550290e-01  -8.22017870e-01  -1.59348600e-01
C     3.507943748385466e+00   4.640986016113033e+00  -2.173629000000012e-01  1.42097291e+00  -1.66893488e+00   2.36300100e-02
C     4.972397536001512e+00   4.448875272005879e+00  -2.215764000000000e-01 -2.87147695e+00  -4.56309540e-01  -6.03289720e-01
C     5.473568152353034e+00   3.113885287964592e+00  -2.212614000000031e-01  4.57336290e-01   2.86045020e-01   8.50548970e-01
C     6.891409558491420e+00   2.959524877947342e+00  -1.207548000000003e-01 -3.65013920e-01   1.84864001e+00  -3.40050030e-01
C     7.468469676460924e+00   1.735757182807430e+00   4.525530000000000e-02 -2.33097870e-01  -3.10649624e+00  -1.64011370e-01
C     8.880996975846886e+00   1.565288219169108e+00   7.530270000000000e-02  9.64512770e-01  -1.29051839e+00   2.13240440e-01
C     9.477083085203526e+00   2.149453544387864e-01   1.600806000000000e-01 -1.44071536e+00   1.03024306e+00  -6.64915340e-01
C     2.676008345224338e+00   3.438723966791103e+00  -1.630092000000012e-01 -5.09097800e-02   2.67002381e+00   3.31900170e-01
C     3.212004207727503e+00   2.160154211813736e+00  -1.260702000000009e-01  1.46620820e-01  -1.01777937e+00  -2.92206250e-01
C     4.616426092134513e+00   1.965009330618175e+00  -1.137344999999996e-01 -1.33344710e-01   1.98654921e+00  -5.66251080e-01
C     5.169013522540452e+00   6.979417904914520e-01  -7.016189999999867e-02 -2.42409900e-02  -1.11877919e+00   6.00015600e-01
C     6.566579545215247e+00   5.711796800168576e-01   4.212060000000000e-02  1.88425057e+00   8.38388700e-01   1.67493490e-01
C     9.599277133048134e-01   1.178120527731776e+00  -5.002620000000135e-02 -7.41637470e-01   1.15583847e+00   7.72815200e-01
C     2.333557638029891e+00   1.036720732006596e+00  -1.231554000000017e-01  1.77590074e+00  -1.45211626e+00   6.43653310e-01
C     1.596104410808563e+01   9.251243473179196e+00   3.706752300000000e+00  1.16766338e+00  -7.90510400e-02  -4.27541980e-01
C     1.173134241629023e+01   8.770994109691436e+00   3.693348300000000e+00  1.27149951e+00  -6.80576350e-01  -4.44131130e-01
C     1.317503978085495e+01   8.937538617485814e+00   3.788816999999999e+00 -8.50532850e-01  -8.35979220e-01  -8.62896340e-01
C     1.401526229163360e+01   7.776511223512270e+00   3.632613600000000e+00 -4.99150340e-01   3.66831210e-01   2.57614200e-01
C     7.507944416818644e+00   8.291286307152387e+00   3.525328200000000e+00 -4.66293780e-01  -5.87823250e-01   9.66362980e-01
C     8.912222913392318e+00   8.442103308075684e+00   3.589432800000000e+00 -1.18830879e+00   2.05348190e-01  -5.06851710e-01
C     9.733167738516624e+00   7.338944586074582e+00   3.474821100000000e+00  1.63272218e+00  -3.25284511e+00   2.96529100e-01
C     1.117254810318044e+01   7.488046737045347e+00   3.481262100000000e+00  2.86193040e-01  -1.37453412e+00   6.44885640e-01
C     1.205986897758001e+01   6.315866351286539e+00   3.419230200000000e+00 -4.66208420e-01   1.05124342e+00   7.65913120e-01
C     1.348550839323375e+01   6.466818928550432e+00   3.508242900000000e+00 -1.14584491e+00  -2.00363680e-01  -8.05683380e-01
C     4.662437684500076e+00   7.952578364091514e+00   3.600525900000000e+00  9.72510690e-01  -3.24396080e-01   3.40994500e-01
C     5.526674783158946e+00   6.821796125534510e+00   3.484046400000000e+00  7.15236640e-01  -1.96713320e-01  -3.33766940e-01
C     6.989978835660262e+00   6.959799068608042e+00   3.487774800000000e+00 -3.20554341e+00   1.53305336e+00  -2.02542740e-01
C     7.761298361933688e+00   5.821190622980241e+00   3.397070100000000e+00  2.44724767e+00  -8.50221310e-01   3.27918140e-01
C     9.191805550087564e+00   5.952027281706044e+00   3.448493100000000e+00  6.11394470e-01   2.20536298e+00  -1.17633236e+00
C     1.008620271345059e+01   4.855595546932595e+00   3.287081700000000e+00 -1.04321147e+00  -5.25986840e-01   1.28275680e+00
C     1.150412142760402e+01   5.014404293917711e+00   3.398821500000000e+00 -1.32041676e+00   8.69742010e-01  -1.37948461e+00
C     1.230320597437106e+01   3.886465715599972e+00   3.269867700000000e+00  1.82012861e+00  -1.12888653e+00   6.88256780e-01
C     3.575027012886667e+00   5.306545439526448e+00   3.328992600000000e+00 -1.62522645e+00   8.33548820e-01   6.31048850e-01
C     4.952889806622050e+00   5.518452004291358e+00   3.335363100000000e+00  1.27927930e+00  -5.17948630e-01   7.26856040e-01
C     5.806636277479024e+00   4.375466685408510e+00   3.399233700000000e+00  6.01032930e-01  -1.45806248e+00  -6.16416190e-01
C     7.221505810944327e+00   4.522239286834446e+00   3.386628000000000e+00 -5.08211870e-01  -6.04250430e-01   1.76263290e-01
C     8.076585965938639e+00   3.368544739768460e+00   3.436547700000000e+00  1.77508800e-01   7.97590700e-02   9.65180500e-01
C     9.503956189320579e+00   3.531939354147937e+00   3.355718100000000e+00  2.09695450e-01  -1.58601390e-01   2.81086630e-01
C     1.037285051835937e+01   2.386675943315558e+00   3.480015900000000e+00 -8.19951500e-01   5.22375240e-01  -2.63570840e-01
C     1.179522301226522e+01   2.575136175811241e+00   3.340434900000000e+00 -2.69522452e+00  -3.63251070e-01   7.85222430e-01
C     2.973505381826935e+00   3.997175289582553e+00   3.299431200000000e+00  1.20906995e+00   1.75034420e+00  -1.01843281e+00
C     3.870756118871278e+00   2.908928383167929e+00   3.218293500000000e+00 -9.02566830e-01  -2.69245937e+00   1.67338627e+00
C     5.280685245759762e+00   3.016840729714238e+00   3.384469200000000e+00 -2.69574350e-01   1.30351480e+00  -2.02019850e-01
C     6.107823522730547e+00   1.852224145205718e+00   3.573208200000000e+00 -2.76126480e-01   1.86838198e+00   4.62976580e-01
C     7.517898669900411e+00   2.076925692219965e+00   3.757884900000000e+00 -2.15456350e-01  -2.15430190e-01  -2.20036835e+00
C     8.367883479947226e+00   9.318797432324536e-01   3.752315700000000e+00 -6.27178500e-02   2.92447390e-01   7.13739410e-01
C     9.777934935084682e+00   1.093315712180770e+00   3.692655000000000e+00  2.17691710e-01   7.09206550e-01  -3.06828230e-01
C     1.820781364097202e+00   1.431151295466017e+00   3.495892800000000e+00  2.72232779e+00  -8.02596120e-01  -3.46077550e-01
C     3.283076114528503e+00   1.577251319136410e+00   3.415459200000000e+00 -1.05022347e+00   2.57934270e-01   1.30128500e-02
C     4.084700973659450e+00   4.132208673454004e-01   3.593734500000000e+00  1.17441260e+00   2.01081753e+00  -7.29274500e-01
C     5.507204928797280e+00   5.721376473651306e-01   3.612645900000000e+00 -1.75062500e-02   6.65784870e-01   4.34309120e-01
C     1.262923181746447e+00   1.113069659569296e-01   3.646071300000000e+00  1.90736620e-01   3.25634730e-01  -7.06766010e-01
