72
Lattice="7.395 0 0 3.6975 6.40425786098592 0 0 0 13.6 " PBC="1 1 1" Properties=species:S:1:pos:R:3:force:R:3 Energy="-568.19434246"
C     3.648644414850000e+00   6.233249829600394e+00   1.548460640000000e-01  2.49381705e+00  -4.86010069e+00  -1.38794135e+00
C     1.243191900525000e+00   3.737314187012406e-01   1.354399968800000e+01 -1.39292029e+00   3.12613186e+00   1.09093625e+00
C     1.407497929875000e+00   1.042650516431324e+00   3.245765120000000e+00  1.39166799e+00   1.08728267e+00   7.99663730e-01
C     2.631923391000000e+00   1.739923120942407e+00   2.976607384000000e+00  3.83206933e+00   1.92094726e+00   2.03420493e+00
C     6.138847733400000e+00   6.124377317895237e+00   2.344338080000000e-01  1.00376287e+00   1.26779412e+00   2.43167950e-01
C     3.665807840100000e+00   4.985933769628813e-01   3.060092480000000e-01 -1.70990898e+00  -1.00870531e+00  -1.93270477e+00
C     3.960426119100000e+00   1.157631985666556e+00   3.292469424000000e+00 -3.27879298e+00  -4.15132835e+00   1.09901917e+00
C     5.170937665875000e+00   1.817174161165764e+00   3.637071120000000e+00 -1.91365981e+00  -1.10947113e+00  -1.66120815e+00
C     8.560023792524998e+00   6.154202010791836e+00   3.896605360000000e-01  3.26691167e+00   1.16348023e+00  -1.69268235e+00
C     6.147329946299999e+00   4.208819346419688e-01   2.366091280000000e-01 -2.84080718e+00   3.36619516e+00   1.97408305e+00
C     6.359971322550000e+00   1.083885675557084e+00   3.800309336000000e+00  1.89110225e+00  -5.40212500e-01  -1.13876523e+00
C     7.611362946974999e+00   1.786972193438632e+00   3.406656248000000e+00 -2.01860665e+00  -2.01556143e+00   9.53675450e-01
C     1.261721736900000e+00   1.794398122555038e+00   1.344405940800000e+01 -2.64249719e+00   3.36556068e+00   1.57134459e+00
C     2.450121605100000e+00   2.568239329571916e+00   1.322732273600000e+01 -1.67188700e+00   2.00597872e+00   2.10662197e+00
C     2.748958213950000e+00   3.225801884924019e+00   3.110218544000000e+00 -3.64512634e+00   2.89727880e-01   1.03927988e+00
C     3.829532030850000e+00   3.960964704680584e+00   3.618781568000000e+00  4.49543732e+00  -9.99456780e-01  -9.25366450e-01
C     3.617141788800000e+00   1.880087861232781e+00   1.348516554400000e+01  4.26107751e+00  -3.20928620e-01   2.72876109e+00
C     4.874020022550000e+00   2.575995526266162e+00   3.428349200000000e-01 -5.82585080e-01   9.62246780e-01  -1.48772879e+00
C     5.081452028025000e+00   3.179672976197117e+00   3.529117856000000e+00  2.71917175e+00   4.59345769e+00   9.00932340e-01
C     6.410505683624999e+00   3.938701775209601e+00   3.476750512000000e+00 -2.87488193e+00  -2.65713293e+00   7.66999060e-01
C     6.134969314725000e+00   1.838550164965714e+00   5.528533280000000e-01  2.32022930e-01   2.04515184e+00  -2.63132740e+00
C     7.360547286599999e+00   2.637211649702230e+00   3.879837920000000e-01  1.17540167e+00  -9.04475270e-01  -2.63729490e-01
C     7.582259258924999e+00   3.156588956825905e+00   3.263362296000000e+00  2.65112554e+00   3.88240988e+00   1.09482500e-01
C     8.928516272774999e+00   3.955584423609819e+00   3.165644120000000e+00 -3.48164195e+00   6.46139900e-02   1.72483100e+00
C     2.432558923800000e+00   4.066195755366545e+00   1.347392868000000e+01  8.60160110e-01  -1.91208288e+00  -1.17692240e-01
C     3.677948322525000e+00   4.767234703925094e+00   8.556983999999998e-03 -5.28022710e-01  -1.55012370e-01   7.59694230e-01
C     3.944382851475000e+00   5.393706124388783e+00   3.938230064000000e+00 -2.25450055e+00  -1.70759244e+00  -2.36765608e+00
C     5.176288392075000e+00   6.133389837853879e+00   3.711550160000000e+00 -6.14218730e-01  -3.17007424e+00  -7.52557620e-01
C     4.880978273849999e+00   4.035368860157435e+00   2.695598880000000e-01  1.38304358e+00  -8.72810230e-01   8.68451010e-01
C     6.146530990500000e+00   4.778740273383477e+00   5.740357359999999e-01 -1.77172414e+00  -6.81249640e-01  -1.38553929e+00
C     6.387936772200000e+00   5.321105215797572e+00   3.578699104000000e+00  3.76403380e-01   2.25016303e+00  -7.71760540e-01
C     7.623999412049999e+00   6.032981769719705e+00   3.456594632000000e+00 -2.38793940e+00   4.63455397e+00  -2.27555770e-01
C     7.402397514300000e+00   4.192253580698384e+00   6.793637920000000e-01  1.13262616e+00  -6.76755126e+00  -3.85358043e+00
C     8.653727649299999e+00   4.758997483422982e+00   2.247727760000000e-01 -2.75750074e+00   4.00183710e-01   1.51727121e+00
C     8.833069969124999e+00   5.465210047651154e+00   3.553643144000000e+00  1.49363124e+00  -7.69974616e+00  -1.11208552e+00
C     1.002409875982500e+01   6.006916760442398e+00   3.885221072000000e+00  3.53157605e+00   4.98308142e+00  -7.67156800e-01
C     7.391725420049999e+00   2.089629926920536e-01   6.683058224000000e+00 -2.23426241e+00   1.75688415e+00  -4.93471500e-02
C     1.180970777250000e+00   9.577261506104293e-01   6.491402399999999e+00  1.34811491e+00  -1.78035487e+00   1.11722342e+00
C     1.110723379800000e+00   3.823224104075376e-01   1.020025486400000e+01 -2.00849490e+00  -1.15085019e+00   9.55062640e-01
C     2.265878249025000e+00   1.075414699643084e+00   9.752634528000000e+00  5.03496360e-01  -2.05999513e+00   1.49919439e+00
C     2.440982457375000e+00   2.131720630853814e-01   6.715523191999999e+00 -1.43378430e+00   4.51149915e+00  -9.87050750e-01
C     3.628221014775000e+00   9.538518948180224e-01   6.714617568000000e+00  1.31953086e+00   6.01894080e-01  -5.93407610e-01
C     3.481920442350000e+00   2.979529735302121e-01   9.801669464000000e+00  3.31600513e+00   1.51680543e+00   1.15023852e+00
C     4.882922937000000e+00   1.083967393887378e+00   9.981308600000000e+00 -4.40056134e+00  -1.40106225e+00   4.93439530e-01
C     4.882412608050000e+00   2.690934663356940e-01   6.784095480000000e+00 -1.18329597e+00  -1.47663869e+00  -4.31340600e-02
C     6.103743446549999e+00   9.139398553661376e-01   6.723185976000000e+00  2.43553309e+00   2.48887832e+00  -7.90656110e-01
C     6.024765955800000e+00   3.255119040385212e-01   1.038287688800000e+01 -1.48375428e+00   1.54441270e-01  -9.18711020e-01
C     7.222704005925000e+00   1.068208628699012e+00   1.052026980000000e+01  3.33701688e+00  -3.39223410e-01  -2.55236098e+00
C     8.620624486424999e+00   2.347492054119412e+00   6.321286800000000e+00 -1.82111589e+00   5.29536030e-01   8.20552290e-01
C     2.441802451950000e+00   3.035080908405546e+00   6.314252744000000e+00  9.17480600e-02   3.37118972e+00   2.09654269e+00
C     2.254884028575000e+00   2.454600064698982e+00   9.685410952000000e+00  1.02426229e+00   4.03052804e+00   1.46472548e+00
C     3.540021219525000e+00   3.256120346101623e+00   9.766048344000000e+00 -6.88619500e-02  -2.59297113e+00   1.25406017e+00
C     3.655403518800000e+00   2.379069720477450e+00   6.532127736000000e+00 -1.59211316e+00  -3.07822776e+00  -1.25759410e-01
C     4.860308250525000e+00   2.992957094459132e+00   6.578482112000000e+00  2.49821978e+00   6.19265942e+00   8.75999770e-01
C     4.756765642050000e+00   2.533201634819856e+00   1.003826091200000e+01  1.84929737e+00  -1.99052544e+00  -1.46991510e-01
C     5.996992036650000e+00   3.174816179163829e+00   1.036283021600000e+01  9.63147900e-02   2.00945282e+00  -1.34083826e+00
C     6.107877584324999e+00   2.425265233486095e+00   6.577044184000000e+00  1.38103907e+00  -5.09300738e+00   5.65014020e-01
C     7.368630982949999e+00   3.078954685812205e+00   6.466911383999999e+00 -4.17025720e-01  -5.04936170e-01   4.22792090e-01
C     7.279081156500000e+00   2.487790579356483e+00   1.032799164000000e+01 -3.09650829e+00  -6.14264420e-01   5.22395380e-01
C     8.445242484900000e+00   3.203783662145867e+00   1.003431976800000e+01  1.75128980e+00  -2.27800420e+00  -9.47535350e-01
C     9.865494830099999e+00   4.500724651167545e+00   6.613141167999999e+00 -3.15835701e+00  -4.82523380e-01  -9.48584430e-01
C     3.678645264300000e+00   5.208101957772715e+00   6.683204151999999e+00  1.39838251e+00  -9.17393990e-01   6.18990390e-01
C     3.633846021525000e+00   4.593740156368764e+00   1.013519056000000e+01 -4.49182049e+00   1.15377008e+00   3.67358170e-01
C     4.841100255675000e+00   5.300090860438974e+00   1.033888469600000e+01 -3.57861377e+00   4.00774516e+00  -1.14954360e+00
C     4.943205276150000e+00   4.505424479840684e+00   6.714641095999999e+00 -2.23893214e+00  -7.36640910e-01  -7.47894100e-01
C     6.131117850824999e+00   5.288647988665041e+00   6.777684303999999e+00  6.47330600e-02  -6.88911337e+00  -3.15256480e-01
C     5.992811717099999e+00   4.666927438809636e+00   1.026870162400000e+01  1.94862985e+00  -5.42854310e+00   3.26959530e-01
C     7.176441773324999e+00   5.305132420311525e+00   1.008977104800000e+01  3.37529209e+00   2.21318643e+00  -9.97459790e-01
C     7.336227017324999e+00   4.448493381296164e+00   6.670434840000000e+00  1.29785779e+00   4.01115033e+00   2.39635100e-02
C     8.546498707274999e+00   5.246708297132102e+00   6.703959520000000e+00  2.34959857e+00  -2.50227946e+00  -1.19275020e-01
C     8.459509103774998e+00   4.588800680366503e+00   1.001871376800000e+01 -3.29355780e-01   2.07635475e+00   1.37960450e+00
C     9.678369975299999e+00   5.279805181539690e+00   1.024712182400000e+01  2.27358717e+00   7.43632790e-01  -1.00363970e+00
