72
Lattice="7.395 0 0 3.6975 6.40425786098592 0 0 0 13.6 " PBC="1 1 1" Properties=species:S:1:pos:R:3:force:R:3 Energy="-570.19085755"
C     3.617744296425000e+00   6.169411995124178e+00   4.585238640000000e-01  2.71110020e-01  -1.05383414e+00  -2.28285899e+00
C     1.104857850675000e+00   5.057883685408554e-01   4.207194000000000e-01  3.12814477e+00  -3.52847402e+00  -1.15792930e-01
C     1.497733568625000e+00   1.105400459624861e+00   3.429052184000000e+00 -9.69929450e-01   8.06501860e-01  -2.63213420e-01
C     2.791613350425000e+00   1.752210266030024e+00   3.619353992000000e+00 -2.03787693e+00   1.86582583e+00  -1.60571649e+00
C     6.046543565249999e+00   6.118541630048048e+00   2.817414080000000e-01  2.52811097e+00  -1.60228260e-01  -3.93515890e-01
C     3.683517090300000e+00   4.472823349034040e-01   3.655810560000000e-01 -2.20592191e+00  -1.09003541e+00  -1.19618191e+00
C     3.998624104200000e+00   1.110319890300020e+00   3.398085392000000e+00  7.88989000e-02   3.63538360e-01   3.59693350e-01
C     5.161402848675000e+00   1.929573113418951e+00   3.296029768000000e+00  3.29692907e+00  -3.29737785e+00  -1.35816333e+00
C     8.577004339424999e+00   6.147348686370692e+00   2.560931680000000e-01  2.14643581e+00  -5.98906460e-01  -1.17368783e+00
C     6.185377147349999e+00   5.396362162251060e-01   1.430496960000000e-01 -4.02787063e+00  -1.82478212e+00   1.65128566e+00
C     6.422025429750000e+00   1.224220512936221e+00   3.068331768000000e+00  6.47325260e-01  -2.30920635e+00   1.78452968e+00
C     7.706230665824999e+00   1.973950009323092e+00   3.356635992000000e+00 -2.85879194e+00  -7.16035543e+00  -1.16803812e+00
C     1.173144944550000e+00   1.888860029393938e+00   5.072393359999999e-01  2.59968070e-01  -6.70352840e-01  -1.76668434e+00
C     2.469594045150000e+00   2.503457571529715e+00   6.124418640000000e-01 -1.64032965e+00   2.91036309e+00  -9.94737100e-01
C     2.789022512175000e+00   3.241797991908677e+00   3.516101024000000e+00 -3.67856895e+00  -2.15396281e+00   5.22247540e-01
C     3.935938833750000e+00   3.950731084875776e+00   3.249527016000000e+00  2.39234948e+00  -1.89991944e+00   8.60715400e-02
C     3.701791429425001e+00   1.879626562539126e+00   3.976905200000000e-01 -4.23264960e-01  -1.05021589e+00   6.67137510e-01
C     4.883146524824999e+00   2.649151940184149e+00   2.141825920000000e-01 -3.22596390e-01  -3.01386995e+00  -6.33262380e-01
C     5.247395014575000e+00   3.292951617309955e+00   3.176284760000000e+00 -1.45536914e+00   2.60825629e+00   1.44900936e+00
C     6.496243831275000e+00   4.080292999895713e+00   3.283062848000000e+00 -4.57470023e+00  -1.79416276e+00  -8.14111400e-02
C     6.120336421500000e+00   2.012104464247878e+00   5.994961600000000e-02 -1.09916920e-01  -5.67228406e+00   1.03845370e-01
C     7.373281106849999e+00   2.537587782943013e+00   7.144365600000001e-02  1.99349041e+00   3.19575989e+00   2.03818607e+00
C     7.588130925900000e+00   3.293549070525714e+00   3.532435848000000e+00  3.96453939e+00   2.53183005e+00  -3.07054370e-01
C     8.868376509225000e+00   3.916561359191481e+00   3.566226816000000e+00  2.34270897e+00   2.36434097e+00  -1.33583297e+00
C     2.438272485674999e+00   3.966449503239623e+00   6.252313040000000e-01 -2.32248140e-01  -1.06503878e+00  -2.60748662e+00
C     3.687147221850000e+00   4.622475869258848e+00   5.143858640000000e-01 -1.98069352e+00   4.81870787e+00  -1.11034411e+00
C     3.878360809125000e+00   5.281855632778726e+00   3.023385944000000e+00  8.63112930e-01   4.02981458e+00   1.13864087e+00
C     5.063621277975000e+00   6.079526699037192e+00   3.177708816000000e+00  3.37221067e+00   1.45682381e+00   1.05158011e+00
C     4.867899070125000e+00   3.994801793211630e+00   1.680304480000000e-01  1.23941450e+00   1.44572623e+00   3.08709050e-01
C     6.141884933849999e+00   4.625918029773440e+00   1.356071340800000e+01 -7.93265770e-01   4.56132769e+00   2.37732574e+00
C     6.398094913950000e+00   5.486540004837091e+00   3.331482928000000e+00 -4.22602000e-03  -1.44697576e+00  -5.60444050e-01
C     7.692840909075000e+00   6.102776972942451e+00   3.366460904000000e+00 -1.72943391e+00   1.42966275e+00  -1.70713100e-01
C     7.412868649425000e+00   3.953857323350135e+00   9.117154400000001e-02 -1.64936709e+00   6.92108940e-01  -1.19986287e+00
C     8.608058939399999e+00   4.649446760810451e+00   1.860082880000000e-01  1.51485005e+00   2.66035233e+00   2.48200699e+00
C     8.886967502249998e+00   5.378899544259041e+00   3.277422928000000e+00 -1.03980005e+00  -3.08586758e+00   8.82981990e-01
C     1.006755484875000e+01   5.996138074251125e+00   3.013827592000000e+00  1.49161395e+00   5.13584763e+00   1.08569885e+00
C     7.288386026175000e+00   2.754762699318630e-01   6.324520608000000e+00  9.55855900e-02   1.41699800e+00  -4.31069700e-02
C     1.149964799400000e+00   9.889973732298661e-01   6.393303016000000e+00  7.27923160e-01  -1.51262635e+00  -2.47187000e-03
C     1.089645189450000e+00   3.301715139723000e-01   1.029939668800000e+01 -1.14141602e+00  -1.67675348e+00   1.23253416e+00
C     2.361796908300000e+00   1.059531819937391e+00   1.058530187200000e+01 -2.81834755e+00  -4.59952587e+00  -7.98513150e-01
C     2.385468488175000e+00   1.570269591080190e-01   6.349682376000000e+00  1.40289670e-01   6.58608861e+00   8.53214380e-01
C     3.585031774425000e+00   1.009544602020154e+00   6.428917200000000e+00 -9.57332570e-01   4.17691610e-01  -4.62393270e-01
C     3.558026639475000e+00   3.611184890162850e-01   1.054784842400000e+01  7.97130100e-01  -3.46561890e+00  -1.45747507e+00
C     4.763921487749999e+00   9.643712085659653e-01   1.039022755200000e+01  1.44909540e+00   2.37298076e+00   6.10973750e-01
C     4.762015426500001e+00   2.577552401351929e-01   6.213341016000000e+00  1.20001000e-03  -8.22418000e-02   1.47689826e+00
C     5.973267249750000e+00   9.036894564057361e-01   6.287672360000000e+00  3.45665548e+00   2.71473341e+00   3.49292930e-01
C     6.009031170600000e+00   2.354073261624084e-01   1.023147665600000e+01 -1.74718050e+00   2.52024553e+00   7.24566260e-01
C     7.178725571174999e+00   9.536861526246055e-01   1.026593538400000e+01  4.04345852e+00   1.10664876e+00  -5.30397500e-02
C     8.591912030849999e+00   2.443718013785849e+00   6.477600032000000e+00  1.42934411e+00  -3.36930025e+00  -2.51780910e-01
C     2.356358440425000e+00   3.248685258896478e+00   6.433193856000000e+00  2.56133911e+00  -2.46287036e+00   1.56211605e+00
C     2.342053478475000e+00   2.361088805896821e+00   1.071998471200000e+01 -1.83818040e+00   7.31679823e+00  -1.61512683e+00
C     3.578743842900000e+00   3.194463673767366e+00   1.059675728800000e+01 -1.80704341e+00  -3.29407729e+00   2.59692220e-01
C     3.614062991475000e+00   2.562446230039496e+00   6.540606384000000e+00 -9.67452300e-01  -5.20275562e+00  -1.17137127e+00
C     4.888778039175000e+00   3.104694102619910e+00   6.440060904000000e+00 -8.57655380e-01   2.95522650e+00  -8.23504800e-02
C     4.755512004674999e+00   2.398109899308123e+00   1.049591492000000e+01  2.07942665e+00   2.02111722e+00  -1.00126368e+00
C     6.039874088700000e+00   3.123687146112733e+00   1.033269166400000e+01 -2.30002437e+00   1.70280739e+00  -2.97790280e-01
C     6.051569355149999e+00   2.327631874112345e+00   6.390957967999999e+00  1.70960326e+00   8.04824000e-03   5.33343980e-01
C     7.378670656800000e+00   3.005267038704731e+00   6.494913920000000e+00 -4.18482788e+00   2.16925808e+00  -5.84873200e-01
C     7.218120510975000e+00   2.376242817015468e+00   1.029087248000000e+01 -1.41482849e+00   2.84756000e-02   4.88647510e-01
C     8.361961917600000e+00   3.082202797313640e+00   1.047544787200000e+01  6.31826764e+00   1.56440249e+00  -2.04043520e-01
C     9.823111459874999e+00   4.625186087142621e+00   6.451081936000000e+00 -1.84900031e+00  -5.67052190e-01  -1.16209010e+00
C     3.626321017425000e+00   5.291408351887859e+00   6.328092240000000e+00  2.81976783e+00  -4.64796720e-01   5.44893700e-01
C     3.537166194900000e+00   4.597324427365270e+00   1.042812204800000e+01  3.01646730e-01  -1.95427385e+00   4.23995490e-01
C     4.716883408725000e+00   5.246233229284047e+00   1.034282638400000e+01  5.52156075e+00   3.64466744e+00  -5.70667080e-01
C     4.890158057100000e+00   4.588832893783539e+00   6.344371167999999e+00 -5.51755420e-01  -2.41093323e+00   3.15313430e-01
C     6.143440435124999e+00   5.212166291938406e+00   6.309961672000000e+00  4.22917020e-01  -2.67762754e+00   4.98066920e-01
C     6.050815028175000e+00   4.612058639381194e+00   1.028472895200000e+01 -6.46183600e-01  -2.06568104e+00   8.19070940e-01
C     7.327239504075000e+00   5.342131739246102e+00   1.032376299200000e+01 -2.64555618e+00  -1.79717814e+00   9.81778600e-02
C     7.403934638999999e+00   4.414147922776192e+00   6.409677552000000e+00 -1.68493822e+00   3.11808274e+00  -4.88466570e-01
C     8.578637857950000e+00   5.243576422910826e+00   6.290183736000000e+00 -2.19047254e+00  -6.37327570e-01   1.00023336e+00
C     8.522974583700000e+00   4.539038892325938e+00   1.029134548800000e+01 -1.81316169e+00   2.45041460e-01   1.50831462e+00
C     9.751271992874999e+00   5.302863904092355e+00   1.037360699200000e+01 -2.35459141e+00  -3.62190384e+00  -6.26884850e-01
