72
Lattice="7.395 0 0 3.6975 6.40425786098592 0 0 0 13.6 " PBC="1 1 1" Properties=species:S:1:pos:R:3:force:R:3 Energy="-560.76863081"
C     1.101006002235000e+01   6.397780209344925e+00   1.317014847200000e+01  6.82610370e-01  -9.25325420e-01   8.38035730e-01
C     1.258044388275000e+00   5.191400934125406e-01   1.309092235200000e+01 -2.30988821e+00   4.31085652e+00   1.06361343e+00
C     1.229693400300000e+00   8.299088194741344e-01   3.405258847999999e+00 -1.02641350e-01  -1.18913677e+00   1.18262194e+00
C     2.562563467500000e+00   1.315538569591646e+00   3.368468400000000e+00 -3.00411952e+00   7.86915057e+00   8.60668070e-01
C     6.222744784874999e+00   6.285968463494920e+00   1.323766322400000e+01 -3.46988403e+00   1.52218700e+00   2.79832000e-02
C     3.708028631249999e+00   5.792843362105801e-01   1.315385975200000e+01 -1.31473216e+00   2.42560817e+00   7.80431700e-01
C     3.780925657200000e+00   8.290110706073196e-01   3.667200424000000e+00  3.06422085e+00   9.97873100e-01  -4.03564740e-01
C     5.069674307325000e+00   1.582007250843420e+00   3.731574527999999e+00 -2.30751371e+00  -7.83856850e-01   2.07241760e-01
C     8.570129318850000e+00   6.299152973193881e+00   1.311759236000000e+01  1.85655971e+00   4.78615140e+00   1.45141798e+00
C     5.994229042800000e+00   6.808416484177308e-01   1.330265626400000e+01  5.90036072e+00  -1.04875935e+00  -3.62885790e-01
C     6.293460396750000e+00   7.757900226836760e-01   3.753316032000000e+00 -5.30713988e+00   2.53534272e+00  -1.65716030e-01
C     7.370316044625000e+00   1.545536411267449e+00   3.521552992000000e+00  5.83541469e+00   1.94356925e+00  -9.00848070e-01
C     1.259671325250000e+00   1.990308469217469e+00   1.306414640000000e+01 -1.38522684e+00   2.49769188e+00   1.19308396e+00
C     2.501193471750000e+00   2.691512071245598e+00   1.270669066400000e+01 -1.21848960e+00   1.21362909e+00   3.95920856e+00
C     2.504836063875000e+00   2.837438017864250e+00   3.524997056000000e+00  3.14980879e+00  -7.70629800e-02  -5.43694890e-01
C     3.693203763824999e+00   3.624428062863808e+00   3.696291232000000e+00  4.57111870e-01   9.62148900e-01   9.95177900e-01
C     3.717392439075000e+00   2.004521630813902e+00   1.312873416000000e+01 -1.62287230e+00   1.32271759e+00  -1.70078283e+00
C     4.850969770574999e+00   2.784238103991544e+00   1.339055687200000e+01  1.95190482e+00  -6.73713350e-01   1.73674878e+00
C     4.978392350025000e+00   3.031577331058076e+00   3.803287464000000e+00  5.27780780e-01  -3.49809028e+00  -1.95749245e+00
C     6.205372413899999e+00   3.666678553030693e+00   3.622090040000000e+00  3.36546836e+00   3.17348641e+00   8.41977500e-02
C     6.049442959874999e+00   1.977487337109484e+00   8.958632800000001e-02  1.70295462e+00   6.13278851e+00  -1.49308932e+00
C     7.424957181975000e+00   2.921439337999783e+00   5.732848800000000e-02  3.96087860e-01  -5.10235830e+00  -2.81069991e+00
C     7.535857741499999e+00   2.990802638072450e+00   3.434552704000000e+00 -5.30097725e+00  -1.47784068e+00   1.38747130e+00
C     8.778461665575000e+00   3.644304957983890e+00   3.519700944000000e+00 -3.39813086e+00   8.00079400e-02  -8.41183090e-01
C     2.458581928800000e+00   4.148620219131788e+00   1.282626213600000e+01  2.87337710e-01   2.30980194e+00   2.92379293e+00
C     3.638604186375000e+00   4.999007101411324e+00   1.314331540000000e+01  1.44190989e+00  -4.71920208e+00  -1.19165320e-01
C     3.641672741625000e+00   5.081668650802544e+00   3.893852176000000e+00  2.45305998e+00  -7.67636460e-01  -1.59824787e+00
C     4.834665496425000e+00   5.913393589720617e+00   3.740146744000000e+00  3.60592940e+00  -5.63343078e+00  -2.85434130e-01
C     4.922042819775000e+00   4.199849863073865e+00   1.347015576800000e+01 -1.09790714e+00   2.65296624e+00  -1.03896464e+00
C     6.208006808700000e+00   4.986629656287880e+00   1.365562400000000e-02 -2.77951965e+00  -2.73022639e+00  -7.79314460e-01
C     6.248907962100000e+00   5.119180630578815e+00   3.679393367999999e+00 -2.80393590e+00   1.27520477e+00   2.65980590e-01
C     7.476348512625000e+00   5.884285341150817e+00   3.716518648000000e+00 -3.39503980e-01  -6.72814592e+00  -1.52455659e+00
C     7.443454887074999e+00   4.386338265572664e+00   1.355943555200000e+01  9.00881190e-01  -5.65502216e+00   3.50328960e-01
C     8.661803285100000e+00   5.009862510611759e+00   1.320974704800000e+01  2.17717280e-01  -8.21056305e+00  -9.89699170e-01
C     8.674341174824999e+00   5.062256064377312e+00   3.566973320000000e+00  3.75082260e-01   1.65536149e+00   1.85476830e+00
C     9.865602944999999e+00   5.781347975417415e+00   3.796985632000000e+00 -4.24713100e-02  -3.48447220e-01  -7.32239110e-01
C     7.380599975325000e+00   1.333329982182198e-01   7.498400664000000e+00  3.50352027e+00  -2.64113056e+00  -3.78875697e+00
C     1.257125596500000e+00   7.910137121278392e-01   6.985550783999999e+00  2.06093530e-01  -4.01209648e+00  -1.52179050e-01
C     1.105698255450000e+00   5.834431331797069e-01   1.015975188800000e+01  6.06555740e+00   4.67052560e-01   6.33936580e-01
C     2.449114110300000e+00   1.339351649677642e+00   1.027646015200000e+01 -2.79310332e+00  -6.55967050e-01  -1.41962636e+00
C     2.484203126475000e+00   6.172942470354660e-02   6.621933160000000e+00 -2.31289107e+00  -1.74015841e+00   1.25652992e+00
C     3.615587248875000e+00   8.474712798461911e-01   6.445040544000000e+00  1.85895998e+00  -1.00287523e+00   1.15710406e+00
C     3.637721630100000e+00   6.724446416820132e-01   1.056765356000000e+01 -1.37420144e+00  -1.24602557e+00  -8.60283880e-01
C     4.824462873750000e+00   1.405729861119184e+00   1.046186011200000e+01  3.44047991e+00  -8.97643590e-01  -2.46426258e+00
C     4.771305210375000e+00   1.397910518442438e-01   6.847352751999999e+00  4.58149652e+00  -2.52650367e+00   1.11703121e+00
C     6.143990771025000e+00   7.800161284029115e-01   7.207452192000000e+00 -3.37438272e+00  -2.94698942e+00  -9.36901220e-01
C     6.084115748474999e+00   5.427688589573251e-01   1.040873116800000e+01  3.45397930e-01   1.73566694e+00  -7.09625620e-01
C     7.348793192924999e+00   1.260776337013994e+00   1.004998724000000e+01 -5.13780277e+00   2.78472963e+00   2.20604295e+00
C     1.337841466875000e+00   2.102014800983097e+00   6.714664895999999e+00 -2.10563172e+00   5.60689389e+00   1.94484708e+00
C     2.505566911724999e+00   2.999528759619592e+00   6.579263023999999e+00 -1.57703706e+00  -2.21640830e-01   5.04968930e-01
C     2.416003404525000e+00   2.718800421859322e+00   9.972118672000001e+00 -1.18577880e+00   4.13591010e-01   5.04269850e-01
C     3.560184056775000e+00   3.502392495723522e+00   9.852211143999998e+00  5.06603278e+00  -9.02883830e-01   1.54150748e+00
C     3.634559602050000e+00   2.241407507988449e+00   6.345452640000000e+00  4.75724765e+00   1.97404232e+00   2.44095493e+00
C     5.033373916200000e+00   2.886734216358392e+00   6.600430471999999e+00 -4.14034519e+00   8.21956920e-01   9.04686010e-01
C     4.891797232800000e+00   2.811104926352924e+00   9.957102639999999e+00 -3.01772386e+00  -1.89994293e+00   2.03120587e+00
C     6.095917207125000e+00   3.535708085537028e+00   1.015419615200000e+01  2.84464250e-01  -3.27985497e+00   2.48793500e-01
C     6.110566850024999e+00   2.120067763464651e+00   7.039965336000000e+00  3.56858806e+00   3.61592532e+00  -1.27642603e+00
C     7.499152030425000e+00   2.812512005847344e+00   7.032612496000000e+00 -1.95339588e+00  -2.64376598e+00  -1.14393405e+00
C     7.279767005775000e+00   2.810037784865712e+00   1.019583595200000e+01  1.95028488e+00  -4.79280724e+00  -1.61776361e+00
C     8.548877863649999e+00   3.393368267149661e+00   1.009396107200000e+01 -7.39491660e-01   2.70926990e+00   1.67559567e+00
C     9.882963557924999e+00   4.446068088844583e+00   6.957552056000001e+00  2.74280160e+00  -2.78293327e+00   9.18255400e-02
C     3.905835674475000e+00   5.008806896788696e+00   7.275450288000000e+00 -7.97344007e+00   3.99440733e+00  -1.18989564e+00
C     3.743457410700000e+00   4.896096377390619e+00   1.012799398400000e+01 -4.55136285e+00  -1.13164248e+00  -4.03165680e-01
C     4.951473662625000e+00   5.590907057095160e+00   1.017341744000000e+01 -1.66306874e+00  -8.86147700e-02   9.38225900e-01
C     5.016866834175000e+00   4.403815869528075e+00   6.816958791999999e+00  8.77146880e-01  -4.60692282e+00  -4.01178000e-01
C     6.233699811825000e+00   5.006332291551591e+00   6.675449296000000e+00  2.19314005e+00   7.01205940e-01   1.57844571e+00
C     6.147498811124999e+00   4.852754217428918e+00   1.043892017600000e+01 -2.27384532e+00   4.02863005e+00  -1.24034327e+00
C     7.235196786150000e+00   5.620075697816580e+00   1.073148215200000e+01  5.96444468e+00  -1.27304693e+00  -2.31697384e+00
C     7.478386574625000e+00   4.133375459679266e+00   6.865196496000000e+00 -1.64298647e+00   6.93611660e+00  -1.04984155e+00
C     8.597412099075001e+00   5.035993739915339e+00   6.946871840000000e+00  3.81587230e-01   1.57468782e+00  -4.36892980e-01
C     8.551791974324999e+00   4.791954370753750e+00   1.049473076800000e+01  3.62206100e-02   1.41739101e+00  -8.33560420e-01
C     9.832938157725000e+00   5.494162672754956e+00   1.045337044800000e+01 -4.37212710e-01   2.41698076e+00  -1.43046066e+00
