72
Lattice="7.395 0 0 3.6975 6.40425786098592 0 0 0 13.6 " PBC="1 1 1" Properties=species:S:1:pos:R:3:force:R:3 Energy="-559.93106904"
C     1.093573516980000e+01   6.282013129798006e+00   1.350442654400000e+01  3.90051991e+00   7.98651240e-01  -2.12398364e+00
C     1.246208690775000e+00   5.520832115889091e-01   1.347063530400000e+01 -2.65394809e+00  -6.12696280e-01  -5.99056680e-01
C     1.324018363125000e+00   9.108119517847351e-01   3.864122848000000e+00 -1.57537405e+00  -3.98652600e-02  -5.18939190e-01
C     2.598252587925000e+00   1.547511612476630e+00   3.979620032000000e+00  2.05527320e-01  -9.89974810e-01  -1.20281606e+00
C     6.217128356325000e+00   6.181787583012842e+00   1.326482636800000e+01 -4.88427846e+00   4.01612294e+00   1.57288103e+00
C     3.663816699374999e+00   4.703696204461255e-01   1.348562318400000e+01  1.56920998e+00   2.67143552e+00  -1.48922215e+00
C     3.898168390575000e+00   9.441289505349701e-01   3.736537032000000e+00  2.06499900e-01   6.32896700e-01   4.04855490e-01
C     5.205545193600000e+00   1.707981244439870e+00   3.696540384000000e+00 -6.06236534e+00   2.22320650e-01  -2.14501145e+00
C     8.602773806849999e+00   6.309682597796979e+00   1.330279294400000e+01 -8.03812110e-01  -2.82654161e+00  -4.45432430e-01
C     6.038003449500000e+00   6.285278276625348e-01   1.314410392800000e+01  5.15334948e+00   6.44162760e-01   1.40222433e+00
C     6.298982354175000e+00   9.079995859880947e-01   3.530973576000000e+00 -5.47328790e-01   4.60422202e+00   6.00753790e-01
C     7.435289143199999e+00   1.582460736342486e+00   3.812729400000000e+00  6.12908010e+00   4.87126121e+00   9.38128040e-01
C     1.219756479975000e+00   1.989005522955852e+00   1.349714456000000e+01 -1.31160972e+00  -8.96197100e-02  -8.60218710e-01
C     2.440413892800000e+00   2.691058009363324e+00   2.235984160000000e-01  1.11146468e+00  -2.80039782e+00  -2.54273560e+00
C     2.558259059850000e+00   2.895773570157468e+00   3.916412400000000e+00  4.12024696e+00   3.62998365e+00  -3.49108440e-01
C     3.779589713475000e+00   3.641283301040385e+00   3.676795088000000e+00 -8.18363400e-02   4.05751646e+00  -2.29810163e+00
C     3.651489825974999e+00   1.874786736789166e+00   1.347558380000000e+01  1.13745746e+00   4.62267975e+00   1.28973211e+00
C     4.900792880549999e+00   2.740600963912812e+00   1.312800724000000e+01 -9.33419000e-01  -1.24621495e+00   1.55195830e-01
C     5.107392356925000e+00   3.142447843130396e+00   3.382467696000000e+00 -2.14883194e+00  -3.41258565e+00   3.95303835e+00
C     6.228835380825000e+00   3.886567786015114e+00   3.619559488000000e+00  5.29648542e+00   1.57983607e+00   1.24706274e+00
C     6.182608274474999e+00   2.045838700397693e+00   1.289264822400000e+01 -3.90778885e+00  -1.43828560e+00   1.72167554e+00
C     7.376548217850000e+00   2.701353110043588e+00   1.297690620800000e+01  3.84423013e+00   1.40555091e+00   3.04464311e+00
C     7.589765442749999e+00   3.225607323570232e+00   4.043738456000000e+00 -6.38459057e+00  -5.30990605e+00  -3.21404135e+00
C     8.862406784550000e+00   3.733434359515661e+00   3.961236640000000e+00 -2.41248863e+00   6.72090250e-01  -1.27283830e-01
C     2.524450340025000e+00   4.059623385737720e+00   2.169202720000000e-01 -3.53831989e+00   2.83276935e+00  -3.05131005e+00
C     3.653226135000000e+00   4.830631028864441e+00   1.357418448000000e+01  1.88067801e+00   8.05316870e-01  -7.45584080e-01
C     3.707299114500000e+00   5.208513367297640e+00   3.439111696000000e+00  1.66443835e+00  -1.22473492e+00   1.52434738e+00
C     4.975289371050000e+00   5.929284794961528e+00   3.649549800000000e+00 -1.77301230e+00   1.63062570e-01  -8.77358200e-01
C     4.868297475749999e+00   4.177777268146482e+00   1.311130820800000e+01  6.48942930e-01   9.13295000e-02   6.42355130e-01
C     6.155952627225000e+00   4.948447150713667e+00   1.280223692000000e+01 -1.84435800e-02  -6.40836552e+00   2.49634701e+00
C     6.209971992974999e+00   5.341264602731858e+00   3.665745088000000e+00  1.87541544e+00  -3.86087870e+00  -5.37652750e-01
C     7.495244734275000e+00   5.947309898921391e+00   3.624644936000000e+00  1.98530412e+00  -2.16431550e+00   1.60303884e+00
C     7.443257625450000e+00   4.169250895401992e+00   1.307229878400000e+01 -1.11494404e+00  -3.44944360e-01  -1.93324598e+00
C     8.671198928399999e+00   4.870212416483014e+00   1.325465248000000e+01  9.44582000e-03  -2.13764263e+00   3.03524733e+00
C     8.797677388199999e+00   5.083836812301048e+00   3.720513920000000e+00 -1.72042929e+00   6.83285025e+00  -2.17633706e+00
C     9.897640340474998e+00   6.019254050869059e+00   3.380726080000000e+00  1.30089795e+00  -1.03254597e+01   1.66094716e+00
C     7.449181612049999e+00   1.544312493547824e-01   6.515991064000000e+00 -1.31325805e+00   8.98223270e-01   6.93128620e-01
C     1.296223996800000e+00   7.557092159933316e-01   6.828335872000000e+00 -2.05814492e+00   4.71527738e+00   4.19682910e-01
C     1.089209254200000e+00   4.602661992036108e-01   9.937661439999999e+00  1.55221620e-01   5.23278530e+00   1.77381769e+00
C     2.239308051000000e+00   1.205095733859217e+00   1.018626835200000e+01  4.80052256e+00   8.41772830e-01  -1.18015353e+00
C     2.433627279450000e+00   1.751198201160408e-01   7.193551360000000e+00  4.65442330e+00  -4.38103521e+00  -2.58616970e-01
C     3.674500107975000e+00   9.689592829394479e-01   7.440863279999999e+00 -1.26944882e+00  -3.71200337e+00  -3.26278458e+00
C     3.649037570025000e+00   4.858462780757586e-01   9.875812720000001e+00 -4.59740940e+00   4.98591480e-01   3.51403370e-01
C     4.786684296075000e+00   1.292515454712682e+00   9.847970256000000e+00  2.44807937e+00  -2.48470431e+00   1.93449050e+00
C     4.703187166199999e+00   1.988118597284820e-01   6.806589880000000e+00  4.82469848e+00  -7.48262480e-01   1.06352093e+00
C     6.069193451925000e+00   8.703875076614719e-01   6.573903944000000e+00 -7.30708900e-02  -4.97801082e+00   8.82851200e-01
C     6.011983365524999e+00   4.860676092274002e-01   9.837438144000000e+00 -3.11693510e-01  -1.48916912e+00   5.26387070e-01
C     7.238452323974999e+00   1.137698284779256e+00   1.006290683200000e+01 -1.20706239e+00   2.22329894e+00  -1.35582448e+00
C     8.686557197175000e+00   2.240221887730827e+00   7.010969728000000e+00  2.84812688e+00  -7.28890210e-01  -2.46796120e-01
C     2.576799397125000e+00   3.115427638793270e+00   7.164299120000001e+00 -3.34675780e+00  -1.98781175e+00   9.59416830e-01
C     2.295141853950000e+00   2.699232147925513e+00   1.037524280000000e+01  2.07562538e+00  -5.59741037e+00  -7.01357120e-01
C     3.560726369100000e+00   3.267217323908538e+00   1.034548681600000e+01  5.39857680e-01   5.03973833e+00  -4.78828730e-01
C     3.716605315274999e+00   2.349241441196450e+00   7.549974176000000e+00  1.28398153e+00   2.91724182e+00  -3.90029405e+00
C     4.965918020325000e+00   3.019529385001530e+00   7.167809823999999e+00 -9.66948700e-02  -4.67741578e+00   3.16216500e-02
C     4.796660151075000e+00   2.673715727376494e+00   1.017197284800000e+01 -5.25972270e-01  -1.18636135e+00  -3.41902310e-01
C     5.965861231200000e+00   3.452846275002525e+00   1.008789860000000e+01  3.29981668e+00  -5.47193099e+00  -1.00381338e+00
C     6.140818020225000e+00   2.148262892948773e+00   6.853235296000000e+00  1.32948372e+00   6.05703084e+00   1.81255786e+00
C     7.479927581700000e+00   2.817280167951850e+00   6.966841263999999e+00 -2.63464894e+00   3.10714070e+00  -1.48790320e-01
C     7.217682579074999e+00   2.599070515633792e+00   1.003679592000000e+01  1.00253889e+00   7.00855330e-01   1.11840073e+00
C     8.533441429725000e+00   3.330690884197677e+00   1.016413326400000e+01 -6.14546689e+00   6.97885340e-01  -2.43031385e+00
C     9.890615016525000e+00   4.527873901300550e+00   6.961384400000000e+00  1.92669827e+00  -6.41085290e-01  -1.77654057e+00
C     3.845418487500000e+00   5.214812211073265e+00   6.672755000000000e+00 -2.92806453e+00  -4.69269308e+00   2.04509851e+00
C     3.619152711149999e+00   4.767155995595994e+00   1.021388111200000e+01 -9.84233400e-01  -6.20385440e-01  -1.26719867e+00
C     4.927154650499999e+00   5.569813160853943e+00   1.001649615200000e+01 -3.75590591e+00  -7.71221389e+00  -2.38169950e-01
C     5.048926525575000e+00   4.337106173699699e+00   6.909269335999999e+00 -6.31366000e-03   5.29807525e+00  -2.04719220e-01
C     6.353995497000000e+00   5.007100994622527e+00   7.042791144000000e+00 -6.21594016e+00   3.58334456e+00  -6.33788600e-01
C     6.076901778074999e+00   4.764972848134098e+00   9.803725376000001e+00 -4.24778330e-01   3.84294388e+00   1.23639165e+00
C     7.314138226275000e+00   5.442528728014178e+00   9.584320112000000e+00 -1.26105053e+00   1.46713868e+00   2.20803722e+00
C     7.504795117950000e+00   4.309278712659321e+00   7.069669776000000e+00 -1.51883254e+00  -2.93691663e+00  -6.90041700e-01
C     8.559401355375000e+00   5.104088932889146e+00   6.850938799999999e+00  3.89466314e+00   3.03011391e+00   1.85440460e-01
C     8.447047752300000e+00   4.663305190564021e+00   9.678956528000001e+00  4.16399152e+00   7.30132420e-01   2.93034530e+00
C     9.706938413250001e+00   5.358822580123412e+00   9.894936904000000e+00  1.31584660e+00   3.24750034e+00  -9.01039900e-02
