72
Lattice="7.395 0 0 3.6975 6.40425786098592 0 0 0 13.6 " PBC="1 1 1" Properties=species:S:1:pos:R:3:force:R:3 Energy="-576.73820763"
C     3.637415144325000e+00   6.099361454140555e+00   4.255839840000000e-01  3.96962420e-01   3.87903884e+00  -1.49460490e+00
C     1.217319272850000e+00   4.148962590756984e-01   4.134594480000000e-01 -2.54405817e+00   1.69705883e+00  -4.46236860e-01
C     1.467388740750000e+00   1.089896711984480e+00   3.431390704000000e+00  8.66216290e-01   1.20535174e+00  -2.20905990e-01
C     2.748943202100000e+00   1.797598970633466e+00   3.533385264000000e+00 -3.57487520e-01  -1.01641116e+00  -8.58516490e-01
C     6.121534707300000e+00   6.137544087799925e+00   3.016276000000000e-01  5.76228190e-01  -5.99347950e-01  -5.30314340e-01
C     3.663476677275000e+00   4.466449191185982e-01   2.658912880000000e-01 -5.17723120e-01  -9.61560390e-01   7.38750610e-01
C     4.024028887200000e+00   1.134852168543694e+00   3.378888992000000e+00 -2.05113860e+00  -2.53493130e-01   1.87684130e-01
C     5.237289968924999e+00   1.857743469601820e+00   3.244057368000000e+00 -1.95608156e+00   1.45097089e+00   6.58984050e-01
C     8.567066605650000e+00   6.144259848762236e+00   3.172495120000000e-01  1.58577585e+00  -1.11605788e+00  -1.03628442e+00
C     6.095647548450000e+00   4.645033842889440e-01   2.174438720000000e-01  1.21599330e+00  -3.35239100e-02   1.06785142e+00
C     6.393559338599999e+00   1.150848979996716e+00   3.155639416000000e+00  3.27953019e+00  -1.74099142e+00   9.98818120e-01
C     7.653791833424999e+00   1.821783945973392e+00   3.376541496000000e+00 -9.23476100e-01   2.88695475e+00  -4.18779030e-01
C     1.174313465475000e+00   1.897583076897308e+00   4.134246320000000e-01  1.89746718e+00  -1.94665604e+00  -3.93060980e-01
C     2.447535018975000e+00   2.570011579849514e+00   5.398422079999999e-01 -6.65340700e-02  -1.79110241e+00  -9.60475670e-01
C     2.739831452850000e+00   3.173657008491169e+00   3.460155656000000e+00  1.49819400e-02   2.56823724e+00  -3.14719990e-01
C     3.930744696675000e+00   3.918381321190136e+00   3.193450952000000e+00  5.93853740e-01   1.08210536e+00   1.44236227e+00
C     3.688276031625000e+00   1.825051270248406e+00   4.201332400000000e-01 -2.86838300e-01   2.07719232e+00  -1.11140350e+00
C     4.887681471599999e+00   2.592580248590732e+00   1.726231680000000e-01 -3.81169530e-01   5.31566420e-01   8.55217610e-01
C     5.222118867600000e+00   3.309135753305382e+00   3.300681784000000e+00 -1.94958322e+00  -1.77959613e+00  -7.09800620e-01
C     6.378610420050000e+00   4.066858724140213e+00   3.358689728000000e+00  2.49277462e+00  -1.77891674e+00  -9.52329900e-02
C     6.138232247550000e+00   1.920376919344884e+00   9.591209599999999e-02 -6.26804160e-01  -2.00250005e+00   1.33752000e-01
C     7.396078819575000e+00   2.597663628267108e+00   1.179980880000000e-01 -1.14372947e+00  -1.21258004e+00   2.60748320e-01
C     7.646353868475000e+00   3.388029869925301e+00   3.473112240000000e+00 -3.11250970e-01  -4.63539305e+00  -1.87167400e-02
C     8.936867039549998e+00   3.980637303974932e+00   3.550500320000000e+00 -1.58913322e+00  -2.89394714e+00  -1.10588916e+00
C     2.494064174100000e+00   3.942018092057246e+00   5.391431680000000e-01 -2.74287750e+00   3.02594381e+00  -1.16231144e+00
C     3.672936583125000e+00   4.734974791977230e+00   4.682843120000000e-01 -1.49473760e+00  -1.46186983e+00  -4.49838060e-01
C     3.899585346525000e+00   5.375756654714246e+00   3.104689056000000e+00  1.83264695e+00  -4.13060110e-01   1.19279429e+00
C     5.170839940950000e+00   6.106866411798953e+00   3.220004952000000e+00 -2.81518905e+00   2.21982360e-01   3.99967420e-01
C     4.837867161675000e+00   4.059403975863436e+00   2.457283360000000e-01  3.25113565e+00  -2.43607860e+00  -6.03912240e-01
C     6.094639757850000e+00   4.724135009165972e+00   1.074393200000000e-01  1.14678127e+00  -3.32159500e-01   2.72725500e-01
C     6.358308667725000e+00   5.449947036063731e+00   3.325724416000000e+00  2.03595046e+00   2.45436290e-01   4.86996340e-01
C     7.607499614099999e+00   6.129958116279598e+00   3.417490824000000e+00  2.34152234e+00  -1.68180932e+00  -9.74054080e-01
C     7.379553656774999e+00   3.969795215630845e+00   2.338016800000000e-02  1.76227510e-01   3.11496613e+00   1.90335775e+00
C     8.625642659475000e+00   4.678511908724854e+00   3.413677520000000e-01 -7.09563640e-01   1.29520900e-01  -6.73167290e-01
C     8.861130925199999e+00   5.302477150960190e+00   3.329923688000000e+00  9.81899740e-01   6.24505815e+00   3.94591600e-02
C     1.011409309972500e+01   6.100642305712555e+00   3.150570152000000e+00 -2.42174418e+00  -3.61732700e-01   6.15449200e-01
C     7.334787099899999e+00   2.600359244442960e-01   6.320880160000000e+00 -1.89229222e+00   1.96503967e+00  -3.18797470e-01
C     1.166054951325000e+00   9.452754407770674e-01   6.363628768000000e+00 -3.65552720e-01   2.05852428e+00   4.47904730e-01
C     1.057959204375000e+00   3.123453262615686e-01   1.034206696000000e+01  1.24369061e+00  -6.48589320e-01   2.26714030e-01
C     2.269570831350000e+00   9.762786452050631e-01   1.048166987200000e+01  2.81606072e+00   2.76395458e+00  -5.63976780e-01
C     2.366374006575000e+00   2.871728784022098e-01   6.414393896000000e+00  2.15313554e+00  -3.03884364e+00  -1.06100730e-01
C     3.578897252175000e+00   1.018568457515209e+00   6.451031616000000e+00  1.13970614e+00  -8.25744140e-01  -5.76171500e-02
C     3.581869709400000e+00   3.298451529917544e-01   1.034481348000000e+01 -2.34790801e+00  -1.94456250e+00   4.56745740e-01
C     4.773928919399999e+00   1.034838282480803e+00   1.037386144800000e+01  1.48409940e+00  -5.96201190e-01  -6.90689100e-01
C     4.810183794299999e+00   2.259282560186652e-01   6.328426120000000e+00 -7.81328360e-01   2.13908662e+00   4.22122350e-01
C     6.019622400525000e+00   9.688992110007211e-01   6.284227752000000e+00  2.15383561e+00  -2.21222490e+00   7.77463140e-01
C     6.027239657250000e+00   2.837330874630252e-01   1.025070012000000e+01 -2.04936119e+00   2.19333000e-02   7.77315780e-01
C     7.234437430575000e+00   9.607456941488407e-01   1.030333456800000e+01 -3.49202810e-01   1.97538551e+00   2.97985330e-01
C     8.593406079674999e+00   2.398239521487209e+00   6.405121687999999e+00 -9.57833000e-02  -7.92207370e-01   3.16901040e-01
C     2.401897109250000e+00   3.207432808274495e+00   6.453420184000000e+00 -1.90728600e-01  -2.50525180e+00   2.43961870e-01
C     2.311720926300000e+00   2.463133930425168e+00   1.055352125600000e+01 -3.99330850e-01  -2.48585733e+00  -6.35490850e-01
C     3.564819501600000e+00   3.104053997046803e+00   1.054742682400000e+01 -2.08364551e+00   3.57364155e+00  -7.06851370e-01
C     3.615270003375000e+00   2.465224472318408e+00   6.525027312000000e+00 -2.31045070e-01  -9.57016360e-01  -4.80696030e-01
C     4.838656762799999e+00   3.152092463339820e+00   6.488314519999999e+00  1.89715170e+00  -2.76147005e+00  -1.14172100e-01
C     4.749309966075000e+00   2.446004269799290e+00   1.041629630400000e+01  2.33659711e+00  -5.38836990e-01   2.51109820e-01
C     5.990112948824999e+00   3.161475533658242e+00   1.035209152000000e+01  1.25782851e+00  -1.25268381e+00  -2.17833860e-01
C     6.100590995025000e+00   2.332197405498160e+00   6.412860632000000e+00 -2.06012148e+00   2.63992608e+00   1.86550590e-01
C     7.340084656049999e+00   2.992642581355628e+00   6.430383824000000e+00  3.95050870e-01   3.73773973e+00  -7.14941100e-02
C     7.241291153550000e+00   2.374475690144158e+00   1.036608986400000e+01 -4.01710800e-01   2.94429026e+00  -3.77888780e-01
C     8.482962235350000e+00   3.164702831321632e+00   1.039224116800000e+01 -9.13779700e-01  -2.07129998e+00   1.04496750e-01
C     9.800272150274999e+00   4.602511427933820e+00   6.382046296000000e+00 -7.79040900e-02  -9.46437580e-01  -2.60179500e-02
C     3.621590879625000e+00   5.303218059552013e+00   6.333957104000000e+00  1.87644609e+00  -2.60013062e+00   7.55947550e-01
C     3.524560677900000e+00   4.591862492006790e+00   1.043089440800000e+01  2.38847936e+00  -1.27657261e+00  -1.21447890e-01
C     4.805433061424999e+00   5.338784746003309e+00   1.034147386400000e+01 -1.30540833e+00  -3.53205381e+00  -7.54367000e-03
C     4.895877091275000e+00   4.521328621682473e+00   6.434137288000000e+00 -1.22317137e+00   1.93403019e+00  -4.46756990e-01
C     6.147984034049999e+00   5.170563656496639e+00   6.374255536000000e+00 -7.90250280e-01   3.25785072e+00   6.90432970e-01
C     6.038286973800000e+00   4.575286095217438e+00   1.028125972800000e+01 -2.38567000e-02   8.31266060e-01   4.96708870e-01
C     7.316843945850000e+00   5.262645356859291e+00   1.025331145600000e+01 -3.53126873e+00   2.03513016e+00  -2.56547300e-02
C     7.392728329949999e+00   4.506730948444125e+00   6.417693256000000e+00 -3.62082853e+00  -3.35820298e+00   1.34896100e-02
C     8.536850044049999e+00   5.212523201228944e+00   6.333979136000000e+00  1.84705236e+00   2.30487335e+00   4.46451280e-01
C     8.478373120200001e+00   4.561142419818785e+00   1.025412310400000e+01  1.16655065e+00  -6.59453740e-01   7.90745540e-01
C     9.697385108550000e+00   5.262698640284686e+00   1.032961004000000e+01  7.34084650e-01   8.70200630e-01  -4.02023710e-01
