72
Lattice="7.395 0 0 3.6975 6.40425786098592 0 0 0 13.6 " PBC="1 1 1" Properties=species:S:1:pos:R:3:force:R:3 Energy="-559.61587053"
C     1.106260933605000e+01   6.390852083191977e+00   1.318617512000000e+01 -1.82722782e+00   2.48932080e-01   1.09950581e+00
C     1.226320060125000e+00   5.733595651365582e-01   1.312478281600000e+01 -5.83961210e-01   3.00372968e+00   1.28814663e+00
C     1.210162354875000e+00   8.521974940617140e-01   3.382506048000000e+00  1.46696296e+00  -3.81378239e+00   1.85579979e+00
C     2.573914348800000e+00   1.335729529517183e+00   3.368992680000000e+00 -5.06667587e+00   7.40673004e+00   5.65962310e-01
C     6.105004220100000e+00   6.298347189469936e+00   1.329354603200000e+01  3.51570921e+00   9.68192230e-01  -2.96374140e-01
C     3.746527371000000e+00   6.666799130119128e-01   1.310538731200000e+01 -2.73728510e+00  -2.73446918e+00   2.65174088e+00
C     3.744522956250000e+00   7.628205039210757e-01   3.630544480000000e+00  4.30138166e+00   6.93484313e+00  -4.57518130e-01
C     4.991331011774999e+00   1.567644677911112e+00   3.671028008000000e+00  3.67235970e-01  -1.62011173e+00   8.70456450e-01
C     8.650407294299999e+00   6.332489184717697e+00   1.315676430400000e+01 -3.77328093e+00  -5.64767310e-01   1.28378180e+00
C     6.042758360549999e+00   6.513418435223700e-01   1.331919427200000e+01  6.35297045e+00   2.97169414e+00   1.13010064e+00
C     6.307698175125000e+00   7.514410983425347e-01   3.702267344000000e+00 -5.37958954e+00   4.54417525e+00   1.16956600e-02
C     7.411843813350000e+00   1.566001921727443e+00   3.501743776000000e+00  2.71126709e+00  -1.02406993e+00  -6.57952050e-01
C     1.316703635850000e+00   2.004911073734369e+00   1.313215823200000e+01 -3.85303573e+00   2.97708507e+00   6.92317620e-01
C     2.475392760450000e+00   2.706579752968291e+00   1.271471752000000e+01  3.85298070e-01   1.73954713e+00   4.68366122e+00
C     2.548014470550000e+00   2.847364169249200e+00   3.512209248000000e+00  1.22773890e-01   5.77778320e-01  -6.74468350e-01
C     3.788946939750000e+00   3.638202788967146e+00   3.649001992000000e+00 -6.65140028e+00   1.04700301e+00   8.79684050e-01
C     3.719132186775000e+00   2.036567256293770e+00   1.322181596000000e+01 -2.12720007e+00   1.47841131e+00  -3.67462045e+00
C     4.874208595050000e+00   2.785311009310830e+00   1.338308530400000e+01  1.12824348e+00   4.22868400e-02   2.79596990e+00
C     4.947872371575000e+00   3.047186812995726e+00   3.837897696000000e+00  3.99017361e+00  -6.71716223e+00  -2.61289888e+00
C     6.188556664575000e+00   3.593363953943564e+00   3.602886704000000e+00  4.14422910e+00   6.02060729e+00  -2.05685500e-02
C     6.008101360275000e+00   2.035109006779048e+00   1.658405760000000e-01  4.20206071e+00   1.66082977e+00  -3.10656931e+00
C     7.413631739474999e+00   2.927897391625807e+00   7.998894400000001e-02  4.42924790e-01  -6.05123542e+00  -2.50974135e+00
C     7.523687974874999e+00   2.955956238502667e+00   3.396756808000000e+00 -8.74136105e+00  -1.83619241e+00   1.39499963e+00
C     8.634590831324999e+00   3.624124244870930e+00   3.501542496000000e+00  6.59487582e+00   2.26921494e+00  -6.83486190e-01
C     2.415465935924999e+00   4.169425539513835e+00   1.286641423200000e+01  1.21279014e+00   1.50181921e+00   2.94577924e+00
C     3.670085071124999e+00   5.027958061408082e+00   1.317038620000000e+01  5.98134790e-01  -6.33394032e+00   2.14282300e-02
C     3.653968186275000e+00   5.040104504950516e+00   3.840494888000000e+00  2.26535110e+00   3.28634840e-01  -9.74173140e-01
C     4.783694053875000e+00   5.846280681817376e+00   3.714853463999999e+00  6.48526134e+00  -1.05504161e+00  -1.30098134e+00
C     4.935777959999999e+00   4.183667904526110e+00   1.354196349600000e+01 -1.60300593e+00   3.74410883e+00  -1.82102996e+00
C     6.179068620750000e+00   4.960160090041557e+00   7.481890400000001e-02 -1.37434756e+00  -9.65011800e-01  -1.64011009e+00
C     6.268527895424999e+00   5.113969678085868e+00   3.622913520000000e+00 -3.94732842e+00  -8.57444810e-01   9.27719140e-01
C     7.486062510675000e+00   5.902290399783578e+00   3.727925784000000e+00 -5.85954150e-01  -1.18391813e+01  -2.19811249e+00
C     7.466383417350000e+00   4.322205450979417e+00   1.353754934400000e+01 -4.28778110e+00  -3.53470320e+00   1.96040084e+00
C     8.615217484275000e+00   4.928415144468216e+00   1.328783661600000e+01  4.49701444e+00  -1.06744910e-01  -2.96289234e+00
C     8.663205007349999e+00   5.067616876504182e+00   3.512090656000000e+00  5.21409810e-01   1.47757954e+00   3.05407803e+00
C     9.902707283550001e+00   5.780860995649740e+00   3.819905847999999e+00 -2.34768504e+00  -1.83159992e+00  -1.99987630e+00
C     7.353022578300000e+00   9.138158689339680e-02   7.519911920000000e+00  4.10038611e+00  -1.57305519e+00  -4.33759995e+00
C     1.299228918075000e+00   7.938953079519462e-01   6.974075512000001e+00 -1.49607583e+00  -3.28474372e+00   2.01820230e-01
C     1.203766530300000e+00   5.808362159752152e-01   1.018455298400000e+01 -5.29959730e-01   3.07631683e+00  -4.21568000e-01
C     2.460218405325000e+00   1.324737581539172e+00   1.029069921600000e+01 -2.99105419e+00   4.03624610e-01  -2.06483632e+00
C     2.489767346324999e+00   7.175990144903580e-02   6.616222519999999e+00 -2.00869609e+00  -2.72948377e+00   9.27329660e-01
C     3.650068100250000e+00   8.059854580677901e-01   6.395692400000000e+00  1.40088941e+00  -3.38493230e-01   1.76890121e+00
C     3.624479551499999e+00   6.163356577189812e-01   1.051253656800000e+01  3.14908490e-01   3.77853348e+00   1.04772270e-01
C     4.817493899700000e+00   1.392803635139717e+00   1.054584623200000e+01  4.01212414e+00  -3.19199500e-02  -4.58842510e+00
C     4.806586126799999e+00   1.099304951036292e-01   6.887689128000000e+00  3.64015341e+00  -1.18062743e+00  -2.24837920e-01
C     6.141297216224999e+00   7.574073049649106e-01   7.178626720000000e+00 -2.83959603e+00  -1.32606491e+00  -2.92725950e-01
C     6.091835130149999e+00   5.893809048971845e-01   1.037202558400000e+01 -1.70090740e-01   1.08599395e+00   4.75542120e-01
C     7.286002432799999e+00   1.357953713228112e+00   1.003753752800000e+01  5.95761020e-01  -2.10354824e+00   2.46370492e+00
C     1.289677351200000e+00   2.134587817097736e+00   6.711523160000000e+00  2.49751310e-01   2.78071056e+00   2.05532565e+00
C     2.507927987325000e+00   2.963286423964067e+00   6.623344568000000e+00 -1.54719755e+00  -7.83955500e-02  -8.45175310e-01
C     2.409638047350000e+00   2.748516370457458e+00   9.967263471999999e+00  1.70909570e-01  -1.11820436e+00   7.65557820e-01
C     3.557784822975000e+00   3.542628270410229e+00   9.868200527999999e+00  4.88951535e+00  -3.36741015e+00   8.47003620e-01
C     3.624069979425000e+00   2.208617771787827e+00   6.290624376000000e+00  4.68882959e+00   2.36462451e+00   3.19782716e+00
C     5.042101236375000e+00   2.946975291535275e+00   6.588225015999999e+00 -3.69038904e+00  -3.24024904e+00   1.06824696e+00
C     4.950754203074999e+00   2.801702387090607e+00   9.921736656000000e+00 -5.52114259e+00  -2.07309680e+00   2.90392778e+00
C     6.129456970800000e+00   3.505054809758502e+00   1.011736816800000e+01 -1.07312404e+00   6.52776540e-01   1.03274005e+00
C     6.132625210650001e+00   2.133498709006064e+00   7.051091631999999e+00  2.44953162e+00   2.80346550e+00  -2.02378209e+00
C     7.491302533724999e+00   2.798002134984257e+00   7.010120408000000e+00 -3.08807149e+00   1.26841396e+00  -9.20080440e-01
C     7.267515228600000e+00   2.789881087719726e+00   1.019628624800000e+01  4.49332203e+00  -3.30975874e+00  -1.70888288e+00
C     8.577744283125000e+00   3.394074592749040e+00   1.007024648000000e+01 -2.29970763e+00   3.92516477e+00   2.62059013e+00
C     9.901216451549999e+00   4.411036350052332e+00   6.921151384000000e+00  1.37432090e+00  -1.62271948e+00   1.05915334e+00
C     3.831643525200000e+00   5.015672837597823e+00   7.273856367999999e+00 -4.19530115e+00   1.93930256e+00  -2.31414714e+00
C     3.658444860450000e+00   4.882553421379233e+00   1.012415660800000e+01  7.37192680e-01   7.21933810e-01  -7.20595180e-01
C     4.932892652850000e+00   5.602922277394041e+00   1.015374871200000e+01 -1.12169750e+00  -1.40447103e+00   1.33869327e+00
C     5.010107360475000e+00   4.347276647522008e+00   6.819611608000000e+00 -1.36856031e+00  -8.74505610e-01   4.47394600e-01
C     6.215270584424999e+00   4.960464484417642e+00   6.655106552000000e+00  2.13375341e+00   2.96327519e+00   1.92549976e+00
C     6.129499713900000e+00   4.862929622529779e+00   1.044269975200000e+01 -2.70907910e-01   3.78872489e+00  -1.17714482e+00
C     7.273567148700000e+00   5.708335849429013e+00   1.076688349600000e+01  2.63580854e+00  -7.96234080e+00  -2.91234739e+00
C     7.439636183025000e+00   4.202598442462221e+00   6.847136647999999e+00  2.28071190e-01   2.53603967e+00  -5.83086200e-01
C     8.620032590624998e+00   5.061731939914050e+00   6.951095455999999e+00 -4.39332550e-01  -3.48701310e-01  -5.77787640e-01
C     8.604788870400000e+00   4.843879132843951e+00   1.051940592800000e+01 -1.20592910e+00  -3.73152750e-01  -1.41061950e+00
C     9.863933338874999e+00   5.495956505381542e+00   1.043571411200000e+01 -2.63433131e+00   4.20630906e+00  -6.19950480e-01
