72
Lattice="7.395 0 0 3.6975 6.40425786098592 0 0 0 13.6 " PBC="1 1 1" Properties=species:S:1:pos:R:3:force:R:3 Energy="-569.21968638"
C     3.616484669100000e+00   6.180623993402259e+00   4.562997200000000e-01  5.77110000e-02  -1.59511170e+00  -2.26867767e+00
C     1.092528573900000e+00   5.124323377725553e-01   4.212965840000000e-01  3.83122590e+00  -3.98804281e+00  -1.39191690e-01
C     1.501374164100000e+00   1.111133102963083e+00   3.427982544000000e+00 -1.28066642e+00   5.66746520e-01  -3.13008640e-01
C     2.793256371525000e+00   1.749228955911037e+00   3.627357456000000e+00 -2.33263496e+00   2.09874440e+00  -1.60776845e+00
C     6.043080412799999e+00   6.114077862319627e+00   2.770057520000000e-01  2.48526207e+00   4.05565100e-02  -2.96617660e-01
C     3.678016615350000e+00   4.434568155133116e-01   3.786113520000000e-01 -1.63561824e+00  -1.00788758e+00  -1.53657173e+00
C     3.991550712750000e+00   1.107194484379183e+00   3.402330088000000e+00  7.39234910e-01   4.96411790e-01   2.73856640e-01
C     5.157057509700000e+00   1.933704564207016e+00   3.301036744000000e+00  3.51107611e+00  -3.51944326e+00  -1.54391263e+00
C     8.587980183299999e+00   6.144385628386607e+00   2.427833920000000e-01  1.39059471e+00  -2.36054420e-01  -1.03091235e+00
C     6.189365270850000e+00   5.461918707409165e-01   1.372986640000000e-01 -4.27999905e+00  -2.00195359e+00   1.57647140e+00
C     6.432842502974999e+00   1.226699280940934e+00   3.060561272000000e+00 -9.83108900e-02  -2.17887400e+00   1.80456909e+00
C     7.703889334874999e+00   1.984793186391015e+00   3.350501712000000e+00 -2.39816100e+00  -8.72650462e+00  -1.25576563e+00
C     1.175952049575000e+00   1.882839194452016e+00   5.167139119999999e-01 -2.51366900e-02  -1.54678330e-01  -1.90038465e+00
C     2.468360707050000e+00   2.499435953763949e+00   6.200846560000001e-01 -1.59475392e+00   3.13793537e+00  -1.01703319e+00
C     2.785992004200000e+00   3.248300427041670e+00   3.525815096000000e+00 -3.38814286e+00  -2.32033362e+00   4.50243220e-01
C     3.944998707075000e+00   3.951545386262674e+00   3.259395040000000e+00  1.80418354e+00  -1.89767911e+00  -6.63259500e-02
C     3.703494017250000e+00   1.888162221457512e+00   3.947210960000000e-01 -7.90507030e-01  -1.61292732e+00   9.41011140e-01
C     4.880041992900000e+00   2.651951049167020e+00   2.198227840000000e-01  7.83659800e-02  -3.57288801e+00  -8.39216700e-01
C     5.245097240174999e+00   3.296773294145332e+00   3.160422536000000e+00 -1.13740819e+00   2.34730661e+00   1.72864854e+00
C     6.503293225949999e+00   4.074941409900161e+00   3.271251656000000e+00 -4.61056115e+00  -1.48370425e+00   4.15839900e-02
C     6.116234969624999e+00   2.008327297004629e+00   5.482472800000000e-02  2.28264420e-01  -5.33460599e+00   1.45202080e-01
C     7.374530085375000e+00   2.536044036585860e+00   6.953693600000001e-02  1.84104663e+00   3.23079326e+00   2.22160227e+00
C     7.591601436374999e+00   3.277875097711414e+00   3.540519960000000e+00  3.41817999e+00   4.19384209e+00  -3.60890440e-01
C     8.861667136649999e+00   3.910517725091577e+00   3.564016816000000e+00  2.84544932e+00   2.68867341e+00  -1.22384432e+00
C     2.426222739900000e+00   3.969761977532551e+00   6.306091520000000e-01  2.32556880e-01  -1.25465918e+00  -2.70144048e+00
C     3.679550856000000e+00   4.619365833556875e+00   5.190227840000000e-01 -1.18445272e+00   4.63976935e+00  -1.39622789e+00
C     3.880334164875000e+00   5.277211136893496e+00   3.015212616000000e+00  4.68776610e-01   4.20475647e+00   1.12019341e+00
C     5.052678748575000e+00   6.078692736578663e+00   3.174202872000000e+00  4.09194971e+00   1.69248538e+00   1.11051351e+00
C     4.882428137550000e+00   3.983039284927903e+00   1.555902560000000e-01  7.21052300e-02   2.61576828e+00   6.38442170e-01
C     6.147763995825000e+00   4.623633438867043e+00   1.354498582400000e+01 -9.11382710e-01   4.55829399e+00   2.52831745e+00
C     6.406048199475000e+00   5.490085978371595e+00   3.331515568000000e+00 -2.82190900e-01  -1.90489850e+00  -6.95804160e-01
C     7.704610236450000e+00   6.099937645220219e+00   3.357222832000000e+00 -2.46257109e+00   1.84242503e+00   2.34278700e-02
C     7.413855844950000e+00   3.956506828869395e+00   1.000780480000000e-01 -1.66042019e+00   4.69305220e-01  -1.50000874e+00
C     8.608636230075000e+00   4.652195916582014e+00   1.683731680000000e-01  1.56078260e+00   2.64033316e+00   2.72632044e+00
C     8.889657618374999e+00   5.388719128793201e+00   3.271708208000000e+00 -1.19083530e+00  -3.87502647e+00   9.13809750e-01
C     1.005947436922500e+01   5.994382090788492e+00   2.996657456000000e+00  2.40764184e+00   5.22947589e+00   1.13441419e+00
C     7.278596525175000e+00   2.860407336977190e-01   6.324508639999999e+00  8.20410130e-01   4.96630150e-01   3.54724200e-02
C     1.149563805525000e+00   9.933660377290651e-01   6.398267288000000e+00  6.91660630e-01  -1.68958837e+00  -7.57600200e-02
C     1.092291896925000e+00   3.268072932758634e-01   1.029619361600000e+01 -1.13681681e+00  -1.41664511e+00   1.32866883e+00
C     2.371386892200000e+00   1.064439786990981e+00   1.059866332800000e+01 -3.32278853e+00  -4.99042956e+00  -8.33482920e-01
C     2.390790078075000e+00   1.505680088858946e-01   6.341780640000000e+00 -1.26783710e-01   7.17775564e+00   9.65171860e-01
C     3.584938597425000e+00   1.008408230505476e+00   6.424304760000000e+00 -1.21243598e+00   6.36037320e-01  -4.55459890e-01
C     3.552064050975000e+00   3.530270934656466e-01   1.057516320800000e+01  1.55464207e+00  -2.79243909e+00  -1.66784559e+00
C     4.770020735849999e+00   9.605104657576430e-01   1.039329584800000e+01  6.91166680e-01   2.33943769e+00   8.66881640e-01
C     4.751841570374999e+00   2.646990567198978e-01   6.200107536000000e+00  8.53892370e-01  -4.20530840e-01   1.57696191e+00
C     5.979093141675000e+00   8.985855831042091e-01   6.289781312000000e+00  2.63586415e+00   3.05640764e+00   2.53217340e-01
C     5.997029973000000e+00   2.340757528681572e-01   1.023115964000000e+01 -6.94426170e-01   2.54332615e+00   6.81999060e-01
C     7.183136651699999e+00   9.582569355018662e-01   1.026056270400000e+01  3.41405440e+00   6.51984680e-01  -1.16386850e-01
C     8.598335808525000e+00   2.439231382856869e+00   6.488056255999999e+00  4.84125800e-01  -2.79841919e+00  -2.90484490e-01
C     2.356526306925000e+00   3.246104599149212e+00   6.434366720000000e+00  2.48988709e+00  -2.27729003e+00   1.63043242e+00
C     2.341144411125000e+00   2.361494195419359e+00   1.074019485600000e+01 -1.87529403e+00   7.51958552e+00  -1.70875168e+00
C     3.571861797075000e+00   3.204688135483435e+00   1.060414249600000e+01 -1.17505070e+00  -4.19496434e+00   3.80692860e-01
C     3.608974935675000e+00   2.561682330161955e+00   6.539614264000000e+00 -3.30859470e-01  -5.08260914e+00  -1.23110084e+00
C     4.898790795225000e+00   3.103560677063847e+00   6.432421512000000e+00 -1.93748151e+00   3.07666880e+00  -4.99714400e-02
C     4.766056165425000e+00   2.394815036724310e+00   1.050557948800000e+01  1.44794908e+00   2.24318979e+00  -1.11150407e+00
C     6.043221546374999e+00   3.120845769027987e+00   1.032868292800000e+01 -2.74860637e+00   2.00881383e+00  -2.33900980e-01
C     6.045738582525000e+00   2.329656580234784e+00   6.389105512000000e+00  2.25927025e+00  -2.00971760e-01   5.84374700e-01
C     7.371010952774999e+00   3.018998856280407e+00   6.503167488000000e+00 -3.35232872e+00   8.17551950e-01  -6.40321820e-01
C     7.209031797149999e+00   2.380460084858856e+00   1.028053716000000e+01 -6.54511330e-01  -4.51034830e-01   5.93484090e-01
C     8.360110616324999e+00   3.070620376760937e+00   1.048754371200000e+01  6.29764344e+00   2.04736234e+00  -2.84718650e-01
C     9.820176643200000e+00   4.626158061358034e+00   6.458459120000000e+00 -1.40875606e+00  -4.58126340e-01  -1.26768716e+00
C     3.638533268325000e+00   5.284029878322196e+00   6.329366968000000e+00  1.77081105e+00   2.98529490e-01   4.87421710e-01
C     3.544444982475000e+00   4.591004769751601e+00   1.042880000800000e+01 -3.89165150e-01  -1.51425209e+00   4.10728980e-01
C     4.715339961300000e+00   5.239043745367833e+00   1.034159449600000e+01  5.99381031e+00   3.95084291e+00  -5.85458960e-01
C     4.885506158400000e+00   4.594385641518473e+00   6.331141768000000e+00  5.01390500e-02  -2.74151422e+00   4.36996040e-01
C     6.143785892550000e+00   5.215992771967177e+00   6.302249248000000e+00  3.37392300e-01  -3.22528499e+00   4.40209900e-01
C     6.051466527675000e+00   4.612425987612043e+00   1.028784892800000e+01 -7.69251830e-01  -2.05084797e+00   7.91739970e-01
C     7.317760962824999e+00   5.352848240093555e+00   1.033452793600000e+01 -2.16889398e+00  -2.56591256e+00   8.62634800e-02
C     7.397137154999999e+00   4.403050624756384e+00   6.407409752000000e+00 -1.32593457e+00   4.24496214e+00  -5.57158670e-01
C     8.581767495899999e+00   5.249117258726141e+00   6.286465088000000e+00 -2.54046947e+00  -8.91726140e-01   1.02296114e+00
C     8.526658181100000e+00   4.535499387091873e+00   1.030143315200000e+01 -2.08909551e+00   3.40261790e-01   1.52668567e+00
C     9.753414213450000e+00   5.300358878630416e+00   1.037813334400000e+01 -2.40335630e+00  -3.63531017e+00  -6.21824900e-01
