72
Lattice="7.395 0 0 3.6975 6.40425786098592 0 0 0 13.6 " PBC="1 1 1" Properties=species:S:1:pos:R:3:force:R:3 Energy="-564.09250441"
C     1.097366442060000e+01   6.392206583729367e+00   1.316634251200000e+01  2.83703300e+00  -2.39285208e+00   4.15097730e-01
C     1.258228301925000e+00   5.229060532045350e-01   1.307473536000000e+01 -2.99742496e+00   3.86359822e+00   7.24453400e-01
C     1.245975082725000e+00   7.979261478490303e-01   3.438372264000000e+00 -3.76827370e-01   1.65446264e+00   5.23368680e-01
C     2.520952320150000e+00   1.387538822838168e+00   3.378678328000000e+00  2.04976850e+00   3.85243890e+00   1.51798650e+00
C     6.278738245874999e+00   6.288994347248613e+00   1.319107982400000e+01 -1.04096106e+01  -1.27674697e+00   5.35431720e-01
C     3.664735971825000e+00   5.354993858604390e-01   1.320433873600000e+01  3.16027548e+00   7.22487028e+00  -5.75952910e-01
C     3.843097566750000e+00   8.979248558207928e-01   3.692445016000000e+00 -2.33030863e+00  -4.23621861e+00  -1.05417256e+00
C     5.108266667775000e+00   1.585720183380333e+00   3.784895640000000e+00 -4.68600967e+00   7.17128650e-01  -6.01656660e-01
C     8.523327177299999e+00   6.317982515983538e+00   1.310190775200000e+01  5.91477008e+00   1.85911803e+00   1.72456330e+00
C     6.020989957875000e+00   6.956890877126191e-01   1.328532088800000e+01  3.11954234e+00  -2.38564279e+00  -8.09643850e-01
C     6.226065953325000e+00   8.250205134921750e-01   3.793694840000000e+00  1.29249510e+00  -7.84985380e-01  -9.33547530e-01
C     7.397380672350000e+00   1.547277280681532e+00   3.528952751999999e+00  2.24013726e+00   1.01605719e+00   6.67337400e-02
C     1.195022312550000e+00   2.007000783074087e+00   1.302093280800000e+01  7.94030530e-01   1.45364375e+00   1.68003551e+00
C     2.508707974950000e+00   2.693813889605639e+00   1.274595359200000e+01 -2.43688490e+00   1.30543392e+00   2.52010552e+00
C     2.502454689000000e+00   2.828466997496541e+00   3.529347016000000e+00  2.61507858e+00   2.68197450e-01  -3.75697770e-01
C     3.617352065625000e+00   3.624565754407798e+00   3.747325232000000e+00  6.44137403e+00   8.64417280e-01   4.18901560e-01
C     3.698134380075000e+00   1.993254235705333e+00   1.303113824800000e+01  1.27765380e-01   1.21262037e+00   1.11258439e+00
C     4.853098975949999e+00   2.776700356532903e+00   1.341628562400000e+01  1.29728684e+00   2.08505100e-02  -2.71892980e-01
C     5.013192295650000e+00   2.979832528613741e+00   3.751765088000000e+00 -4.88032440e-01   1.98162351e+00  -6.19819090e-01
C     6.255391972049999e+00   3.761879126971166e+00   3.639426776000000e+00 -1.05545967e+00  -3.00784557e+00   2.86907780e-01
C     6.105752446200000e+00   1.997864981151640e+00   7.078528000000001e-03  5.95886790e-01   6.17342096e+00  -4.19360770e-01
C     7.438415490375000e+00   2.856712784660334e+00   5.384104000000000e-03 -4.28945080e-01  -2.95556358e+00  -2.49049821e+00
C     7.485282486075000e+00   3.003264875569959e+00   3.482138016000000e+00  1.58694580e-01  -2.03659620e-01   6.65612010e-01
C     8.863008478725000e+00   3.664825096763431e+00   3.525674472000000e+00 -9.27662167e+00  -1.51155540e-01  -4.97283490e-01
C     2.497511871000000e+00   4.155591381897556e+00   1.282621589600000e+01 -1.23338123e+00   3.52788820e-01   2.16113199e+00
C     3.629308301625000e+00   4.922253864151424e+00   1.311942808800000e+01  2.23104720e+00   1.85486480e-01   1.14857700e-01
C     3.658796049000000e+00   5.108002638909971e+00   3.920173344000000e+00  1.09117586e+00  -1.33024830e+00  -1.94764536e+00
C     4.919657858324999e+00   5.906117328110399e+00   3.757979744000000e+00  1.80609820e-01  -6.39190379e+00   3.66359030e-01
C     4.898020679925000e+00   4.242452651465629e+00   1.339754468800000e+01 -6.51800700e-02  -6.96905890e-01  -7.90873000e-03
C     6.201426774674999e+00   4.978676912919910e+00   1.355196602400000e+01 -2.18097615e+00  -2.39527745e+00  -6.28376700e-01
C     6.200564924400000e+00   5.138310533062107e+00   3.730087368000000e+00 -2.11751810e-01   2.37334660e+00  -5.02857190e-01
C     7.464323355224999e+00   5.792377580431642e+00   3.689644368000000e+00 -8.94227500e-02   1.80928285e+00  -3.04537100e-01
C     7.431496950224999e+00   4.374952647863998e+00   1.358203616800000e+01  2.65033065e+00  -5.88508172e+00  -1.21930876e+00
C     8.704910884649999e+00   4.993117169500060e+00   1.313156908000000e+01 -2.78544854e+00  -5.50226353e+00   6.31735070e-01
C     8.687267597849999e+00   5.073991546692869e+00   3.634677248000000e+00 -4.85953240e-01  -1.14430232e+00   2.48619100e-01
C     9.835162536750000e+00   5.779596026637233e+00   3.769370968000000e+00  3.10388091e+00   2.66053414e+00   6.82153390e-01
C     7.441308044624999e+00   1.379386843008174e-01   7.436167471999999e+00 -9.39224470e-01  -2.94265151e+00  -2.48010782e+00
C     1.225128910500000e+00   7.465030953195816e-01   6.992232056000000e+00  2.54842313e+00   2.06642700e-01  -1.44187501e+00
C     1.091079042975000e+00   5.913980539953486e-01   1.014580685600000e+01  7.24745087e+00  -1.42087008e+00   1.06500915e+00
C     2.408187666000000e+00   1.343726142051493e+00   1.024794843200000e+01 -9.22649910e-01  -1.51747956e+00  -5.08432630e-01
C     2.454486097125000e+00   3.509155456066260e-02   6.641169816000000e+00 -2.60379190e-01   1.23226822e+00   1.05830105e+00
C     3.608127431700000e+00   8.707211054533993e-01   6.500776336000000e+00  1.88138124e+00  -1.46230082e+00   9.16496930e-01
C     3.635325058500000e+00   7.084705134218713e-01   1.060314371200000e+01 -4.30680610e-01  -2.84570174e+00  -2.46246174e+00
C     4.867579864950001e+00   1.404790100320807e+00   1.036254679200000e+01 -2.80264470e-01  -2.55658422e+00   1.44208000e-01
C     4.793436337799999e+00   1.368546355728552e-01   6.825740584000000e+00  3.01874562e+00  -2.02430281e+00   1.54263652e+00
C     6.109222771800000e+00   7.681945728617161e-01   7.220719264000000e+00 -8.69338350e-01  -7.86515810e-01  -1.39590148e+00
C     6.081301618199999e+00   5.242711207673940e-01   1.043138115200000e+01  3.87912250e-01   2.41232021e+00  -1.65648653e+00
C     7.344642009674999e+00   1.209753742728531e+00   1.008633215200000e+01 -5.73225843e+00   4.66024014e+00   1.54727803e+00
C     1.354489053900000e+00   2.134766111636559e+00   6.740485312000000e+00 -3.08843498e+00   2.46314801e+00   1.81685448e+00
C     2.486903928375000e+00   3.027437362607058e+00   6.548077136000000e+00  2.65620410e-01  -4.16023600e-01   1.72395538e+00
C     2.408736411975000e+00   2.699502855905255e+00   9.982110047999999e+00 -1.12761568e+00   2.48039677e+00   2.29234590e-01
C     3.616517318025000e+00   3.457345842532382e+00   9.856881928000000e+00 -9.90797400e-02   9.86000650e-01   1.96666660e+00
C     3.695608137150000e+00   2.290264566521131e+00   6.420511584000000e+00  6.08791480e-01  -6.14534360e-01   1.51053897e+00
C     4.980744107925000e+00   2.845085342174876e+00   6.622025912000000e+00 -6.39693210e-01   3.87271340e+00   1.26676986e+00
C     4.810410266174999e+00   2.796944792011570e+00   1.001081230400000e+01  3.09506814e+00  -1.43534627e+00   1.08005240e+00
C     6.070410225225000e+00   3.526595082772562e+00   1.018870778400000e+01  9.69574690e-01  -3.32246956e+00  -8.69445800e-02
C     6.132047587200000e+00   2.147058316087886e+00   7.015648400000001e+00  2.21629898e+00   2.65384510e-01  -4.71941820e-01
C     7.482535983075000e+00   2.799455261092690e+00   7.037761320000000e+00 -9.60599430e-01  -7.26230190e-01  -1.54087869e+00
C     7.311277248675000e+00   2.772720430485806e+00   1.017702579200000e+01 -2.01010944e+00  -3.28161067e+00  -7.63880570e-01
C     8.516921295524998e+00   3.422558041922019e+00   1.013298858400000e+01  1.61333728e+00  -5.20695740e-01   8.83669600e-02
C     9.897354856500000e+00   4.444321071342953e+00   6.989446504000000e+00  1.28585253e+00  -2.18351390e+00  -7.20710090e-01
C     3.881197789950000e+00   5.046157489266895e+00   7.260736583999999e+00 -4.85190978e+00   1.91864965e+00  -1.79061908e+00
C     3.764873515575000e+00   4.895209451719587e+00   1.012647173600000e+01 -5.78530754e+00  -1.70490271e+00  -1.26515740e-01
C     4.947673778850000e+00   5.580251076484485e+00   1.020098763200000e+01 -1.94883817e+00   1.57578679e+00   4.39235280e-01
C     5.029185647024999e+00   4.401799168727961e+00   6.811781271999999e+00 -1.74843970e-01  -3.35039628e+00   3.47633050e-01
C     6.272780796899999e+00   5.051701271040825e+00   6.711312632000000e+00 -2.24909960e-01  -2.67532504e+00   1.21777901e+00
C     6.137036586975000e+00   4.886489286132254e+00   1.042076934400000e+01 -2.29931441e+00  -4.44542980e-01  -1.35803712e+00
C     7.270391255024999e+00   5.528994150403925e+00   1.067467563200000e+01  5.35659601e+00   3.41824254e+00  -1.34620927e+00
C     7.492823093625000e+00   4.151288553169158e+00   6.868769352000000e+00 -2.14658645e+00   5.59679436e+00  -7.71526810e-01
C     8.583806815050000e+00   5.031333937853824e+00   6.938354840000000e+00  1.99734105e+00   1.71471891e+00  -1.03422950e-01
C     8.507708456625000e+00   4.765546925808669e+00   1.046414722400000e+01  1.41155133e+00   3.41241552e+00  -1.99857460e-01
C     9.800557079624999e+00   5.520177664778377e+00   1.045164039200000e+01  5.24356340e-01  -6.85441200e-02  -1.80956280e+00
