72
Lattice="7.395 0 0 3.6975 6.40425786098592 0 0 0 13.6 " PBC="1 1 1" Properties=species:S:1:pos:R:3:force:R:3 Energy="-565.75083513"
C     1.096899414532500e+01   6.379717192178530e+00   1.316687060000000e+01  3.36903218e+00  -2.49557825e+00   1.85643630e-01
C     1.244936898675000e+00   5.428330296210823e-01   1.307109423200000e+01 -2.83353796e+00   2.95671811e+00   5.67770930e-01
C     1.251477850125000e+00   7.894426836322026e-01   3.455923744000000e+00  1.30715240e-01   1.79128971e+00   4.96894990e-01
C     2.508332752650000e+00   1.440645490716432e+00   3.389769264000000e+00  2.98826906e+00   5.65254060e-01   1.52847888e+00
C     6.260684277749999e+00   6.286847063630733e+00   1.317246890400000e+01 -9.10257309e+00  -9.50403460e-01   7.02133210e-01
C     3.656494096425000e+00   5.459428091527411e-01   1.322499958400000e+01  2.74773243e+00   6.17730308e+00  -1.06206256e+00
C     3.864114489524999e+00   9.123215634474943e-01   3.699347423999999e+00 -4.11242042e+00  -4.90622733e+00  -1.20538505e+00
C     5.105751184574999e+00   1.589476408700380e+00   3.806475712000000e+00 -5.11697408e+00   1.09059738e+00  -8.87751540e-01
C     8.526961376099999e+00   6.338469224537049e+00   1.310263263200000e+01  5.92369195e+00  -5.23116690e-01   1.70947600e+00
C     6.049331517224999e+00   6.915614154366918e-01   1.327395468800000e+01  1.81444176e+00  -1.16719050e+00  -4.82924820e-01
C     6.196300264875000e+00   8.458864821961555e-01   3.808024072000000e+00  4.46925831e+00  -2.13389146e+00  -1.29225751e+00
C     7.423029305475000e+00   1.553746541758812e+00   3.531715728000000e+00  1.98951100e-02   2.59831820e-01   5.95501880e-01
C     1.168272526950000e+00   2.021962154116305e+00   1.300904504800000e+01  1.96146982e+00   5.82138360e-01   1.61795253e+00
C     2.501706869625000e+00   2.700678933818666e+00   1.277613675200000e+01 -2.62355599e+00   1.31347515e+00   1.80705816e+00
C     2.514404713200000e+00   2.825090288497277e+00   3.529421680000000e+00  1.07304989e+00   2.37820776e+00  -1.23518680e-01
C     3.609242597700000e+00   3.628587820471614e+00   3.772471496000000e+00  7.32189984e+00   8.04241410e-01  -6.09973200e-02
C     3.688776858000000e+00   1.993894085108125e+00   1.299064941600000e+01  8.62016400e-01   1.17344434e+00   2.33123272e+00
C     4.860562342725000e+00   2.772779221572961e+00   1.342806064000000e+01  9.21703610e-01   5.53221670e-01  -1.24564139e+00
C     5.026925180399999e+00   2.961748313353830e+00   3.724912295999999e+00 -7.47739490e-01   4.07827162e+00   1.09924120e-01
C     6.276245576250000e+00   3.795246078932708e+00   3.648353000000000e+00 -2.76303288e+00  -4.90299452e+00   3.08187840e-01
C     6.134271226725000e+00   2.036112810156025e+00   1.356779424800000e+01 -5.77142500e-02   3.63956879e+00  -3.59266760e-01
C     7.443171658575000e+00   2.812584117790847e+00   1.357050323200000e+01 -9.91692880e-01  -1.02756873e+00  -1.98458464e+00
C     7.459563600449999e+00   3.006998750030075e+00   3.506986439999999e+00  2.14847452e+00   1.76522430e-01   2.33982790e-01
C     8.861318832149999e+00   3.673337956523836e+00   3.525726424000000e+00 -8.71102774e+00  -8.42166180e-01  -1.76826990e-01
C     2.510480371575000e+00   4.162123788957334e+00   1.283676922400000e+01 -2.13701911e+00  -1.08925914e+00   1.69665934e+00
C     3.634804080750000e+00   4.885002025329427e+00   1.310909467200000e+01  2.29626734e+00   2.61961629e+00   2.16353340e-01
C     3.672498392400000e+00   5.114013162996739e+00   3.923173640000000e+00  6.08707260e-01  -1.50442936e+00  -1.94949950e+00
C     4.960894374974999e+00   5.873320867439025e+00   3.767262152000000e+00 -2.17649629e+00  -3.69494515e+00   2.00106480e-01
C     4.886125082925000e+00   4.260856695363068e+00   1.336436204800000e+01  8.54419670e-01  -2.39007237e+00   5.70370870e-01
C     6.187704649650000e+00   4.963693062932604e+00   1.352155316000000e+01 -1.18817914e+00  -1.95592854e+00  -6.13494650e-01
C     6.176010344549999e+00   5.157091275406871e+00   3.750913592000000e+00  1.94906442e+00   1.13758906e+00  -8.28382460e-01
C     7.458351522975000e+00   5.753978546899183e+00   3.675305616000000e+00  1.38448510e-01   4.32985022e+00   2.81873390e-01
C     7.437637721249999e+00   4.342724949333171e+00   1.358761420800000e+01  2.08496768e+00  -4.99609116e+00  -1.91252661e+00
C     8.713445823899999e+00   4.956712293780047e+00   1.309852012800000e+01 -3.66379871e+00  -2.31422492e+00   1.39101891e+00
C     8.691525121199998e+00   5.076219972257834e+00   3.667162616000000e+00 -6.93548000e-01  -1.83832317e+00  -3.55291220e-01
C     9.833572020149999e+00   5.788805093269599e+00   3.759161312000000e+00  3.62908246e+00   3.13763560e+00   1.12553946e+00
C     7.467769203375000e+00   1.267029262260762e-01   7.395949416000000e+00 -3.51158139e+00  -2.69805766e+00  -1.58920338e+00
C     1.220676381000000e+00   7.241258498457984e-01   6.989624120000000e+00  3.51612269e+00   2.34273890e+00  -1.87429126e+00
C     1.118441985000000e+00   5.890587707268264e-01   1.014432255200000e+01  3.65633123e+00  -5.46450550e-01   9.90043320e-01
C     2.384259368700000e+00   1.339320524984442e+00   1.023224655200000e+01  3.11791480e-01  -1.40109680e+00  -1.29821510e-01
C     2.438379861075000e+00   2.650754349543300e-02   6.654781240000000e+00  1.04327111e+00   2.30534800e+00   8.84568260e-01
C     3.613418702100000e+00   8.746729168084909e-01   6.529967240000000e+00  1.83243367e+00  -1.58415891e+00   8.14391160e-01
C     3.631255479075000e+00   7.122565185409675e-01   1.060887189600000e+01  3.79742790e-01  -2.99195868e+00  -3.14019781e+00
C     4.888518992324999e+00   1.393899083446670e+00   1.031699060000000e+01 -2.06559483e+00  -2.90310210e+00   1.19592333e+00
C     4.818570796574999e+00   1.256948960389122e-01   6.822971760000000e+00  1.66598634e+00  -1.44706255e+00   1.45601298e+00
C     6.087628484400000e+00   7.573479374945484e-01   7.220566127999999e+00  9.04081050e-01   5.68584390e-01  -1.54240008e+00
C     6.081829066575000e+00   5.265271486837363e-01   1.043451323200000e+01  1.39969880e-01   2.43006053e+00  -1.83042535e+00
C     7.315487850749999e+00   1.207840854948328e+00   1.011006891200000e+01 -2.13010697e+00   3.59839582e+00   1.12992612e+00
C     1.348330867650000e+00   2.163462950681433e+00   6.760453512000000e+00 -2.91675488e+00   5.65534810e-01   1.51922093e+00
C     2.478247452300000e+00   3.038083224490314e+00   6.541215800000000e+00  1.21468989e+00  -5.90453960e-01   2.18264824e+00
C     2.400109072200000e+00   2.700824886855295e+00   9.987802191999998e+00 -8.33010230e-01   2.72343146e+00   2.39814660e-01
C     3.645645483525000e+00   3.440359060899361e+00   9.867760024000001e+00 -3.35291764e+00   2.04676542e+00   1.85982413e+00
C     3.729271730100000e+00   2.311379148515237e+00   6.461642608000000e+00 -2.93980122e+00  -2.41186438e+00   8.31374090e-01
C     4.951087680600000e+00   2.842147516966758e+00   6.637053912000000e+00  2.91843928e+00   5.03278408e+00   1.70288320e+00
C     4.783426317899999e+00   2.783856474265667e+00   1.004038958400000e+01  6.04500161e+00  -1.72214244e+00   7.57636710e-01
C     6.063140866275001e+00   3.506691930195254e+00   1.020387001600000e+01  9.18525510e-01  -2.19010952e+00  -1.66217750e-01
C     6.153156318899999e+00   2.163092016066182e+00   7.002094912000000e+00  5.52920780e-01  -1.33306271e+00  -2.04795190e-01
C     7.469973800775000e+00   2.787983313988072e+00   7.033331800000001e+00 -3.65690950e-01   1.52440795e+00  -1.64841751e+00
C     7.318877238074999e+00   2.739782435715726e+00   1.016443015200000e+01 -2.78772277e+00  -2.00314972e+00  -2.19448910e-01
C     8.508423479174999e+00   3.435751325454248e+00   1.015198588000000e+01  1.94696472e+00  -2.14132870e+00  -5.73229870e-01
C     9.911003068499999e+00   4.432873972758832e+00   7.000916064000000e+00  1.01446620e-01  -1.41157714e+00  -1.01020062e+00
C     3.844823855550000e+00   5.073651096345031e+00   7.246648615999999e+00 -2.21169870e+00  -4.92439900e-02  -2.23763614e+00
C     3.748283868375000e+00   4.887186837898366e+00   1.012500198400000e+01 -5.10422599e+00  -1.27695810e+00   6.04270600e-02
C     4.937259326400000e+00   5.581632474904887e+00   1.021566366400000e+01 -2.05675536e+00   1.59550380e+00   1.54609300e-01
C     5.035199593800000e+00   4.384072118928903e+00   6.810291120000000e+00 -1.19750042e+00  -1.92377437e+00   8.57248580e-01
C     6.291053952824999e+00   5.062239797562348e+00   6.733156816000000e+00 -1.49661275e+00  -3.61545174e+00   9.55665550e-01
C     6.121314262349999e+00   4.903017074604449e+00   1.040642025600000e+01 -4.71256720e-01  -2.14346602e+00  -9.82410550e-01
C     7.311961544999999e+00   5.501175014898764e+00   1.064253760800000e+01  1.84061219e+00   4.55185504e+00  -1.10356872e+00
C     7.489676890875000e+00   4.186808488538075e+00   6.866503048000000e+00 -1.95361275e+00   3.47321501e+00  -4.64650690e-01
C     8.585662294500001e+00   5.037189863155851e+00   6.933808632000001e+00  2.56247610e+00   1.37275784e+00   7.27583800e-02
C     8.493471232875001e+00   4.767966582513335e+00   1.044914819200000e+01  2.66642912e+00   3.42682999e+00  -1.94263830e-01
C     9.787943982750001e+00   5.533390353211922e+00   1.044277060800000e+01  8.15143090e-01  -1.18146938e+00  -1.83096815e+00
