72
Lattice="7.395 0 0 3.6975 6.40425786098592 0 0 0 13.6 " PBC="1 1 1" Properties=species:S:1:pos:R:3:force:R:3 Energy="-560.72524638"
C     3.713079305325000e+00   6.380392072871818e+00   1.323081344800000e+01 -1.10616520e+00  -1.09371851e+00   9.46429360e-01
C     1.172249151225000e+00   7.046341708359954e-01   1.320017441600000e+01  2.43491694e+00  -1.69328971e+00   1.43665190e+00
C     1.212729787950000e+00   8.155067963134093e-01   3.383424048000000e+00  3.38478814e+00  -2.79876049e+00   1.47540742e+00
C     2.508600377700000e+00   1.492441335095911e+00   3.382399152000000e+00  7.30760490e-01  -1.33714934e+00   8.33856020e-01
C     5.997021949424999e+00   6.333168484348906e+00   1.337051890400000e+01  6.42253197e+00  -2.34484930e-01  -5.83784240e-01
C     3.754134570525000e+00   7.453941980711226e-01   1.308602308800000e+01 -1.68970205e+00  -4.36734289e+00   4.01494619e+00
C     3.758653359225000e+00   7.719454826477394e-01   3.568325296000000e+00 -2.47159084e+00  -3.76435850e-01  -1.30295550e-01
C     4.889032685999999e+00   1.518857361746525e+00   3.598301872000000e+00  5.22908098e+00   7.55132100e-02   1.15554579e+00
C     8.704992451499999e+00   6.377512270239912e+00   1.323986506400000e+01 -2.98087480e+00  -1.42386450e+00   1.09668556e+00
C     6.217152057299999e+00   6.583652650322749e-01   1.336409725600000e+01 -3.40721900e+00   2.40759098e+00   1.38636156e+00
C     6.232916200649999e+00   7.924984752701016e-01   3.627896423999999e+00 -8.76768100e-01   1.81072370e-01   5.47055160e-01
C     7.510964729475000e+00   1.568779384318747e+00   3.461663216000000e+00 -5.74461050e+00  -4.98714195e+00   3.32311250e-01
C     1.324482362400000e+00   2.082473168761986e+00   1.324611072800000e+01 -5.44107663e+00   1.84381460e+00   8.51027400e-02
C     2.445554009400000e+00   2.763596604525557e+00   1.281643110400000e+01  1.42518218e+00   2.12627946e+00   4.26410207e+00
C     2.608600744199999e+00   2.875643194511287e+00   3.480170096000000e+00 -4.34388017e+00   2.41633320e+00  -6.30547110e-01
C     3.817576793175000e+00   3.666659916640321e+00   3.596964448000000e+00 -3.29087405e+00  -4.32264961e+00   1.18580047e+00
C     3.685388321100000e+00   2.110445173902265e+00   1.328966432000000e+01  1.20550340e-01   1.53482570e-01  -3.81629339e+00
C     4.923084923175000e+00   2.792074866249669e+00   1.342423482400000e+01 -2.38942602e+00   2.01360424e+00   2.35145904e+00
C     4.971016133325000e+00   2.953077268424283e+00   3.836045240000000e+00  1.39040865e+00  -1.61559955e+00  -3.74471859e+00
C     6.228266150700000e+00   3.593035095302453e+00   3.575845824000000e+00 -3.23447305e+00   3.30296996e+00   7.78272450e-01
C     6.033579131924999e+00   2.146271296839470e+00   2.194501440000000e-01  6.76479524e+00  -4.13378018e+00  -3.52964801e+00
C     7.404778223624999e+00   2.824452616542157e+00   6.647911199999999e-02  1.74822780e-01  -3.22065148e+00  -1.30742722e+00
C     7.364867630474999e+00   2.885520929706816e+00   3.367137912000000e+00  2.88043434e+00   3.78675019e+00   7.40027950e-01
C     8.535317430299999e+00   3.632316123227392e+00   3.460109008000000e+00  6.30642917e+00   8.25794650e-01  -9.65220270e-01
C     9.776214440475000e+00   4.223384229857793e+00   1.298044288800000e+01  4.71695718e+00  -1.92903034e+00   1.39756058e+00
C     3.725621484150000e+00   4.959502500844492e+00   1.321153177600000e+01 -1.48465797e+00  -1.29047746e+00   2.91814940e-01
C     3.708732635250000e+00   4.990621174041703e+00   3.743672951999999e+00 -8.56073450e-01   3.58895757e+00  -6.93725400e-02
C     4.833948957900000e+00   5.730110198067856e+00   3.652801016000000e+00  6.66177873e+00   3.20248713e+00  -1.40475025e+00
C     4.922929110524999e+00   4.223764258519205e+00   1.240116000000000e-02 -2.42278592e+00  -9.36179000e-02  -2.26178205e+00
C     6.113912939625000e+00   4.907734514986704e+00   1.328982480000000e-01  1.76759498e+00   2.58108811e+00  -2.26512845e+00
C     6.224510969700000e+00   5.088532670334313e+00   3.557198592000000e+00 -2.15572327e+00  -2.33869289e+00   1.15505978e+00
C     7.483415100675000e+00   5.741707604583952e+00   3.700584752000000e+00 -3.16298951e+00   2.50393302e+00  -2.73415626e+00
C     7.425041300100000e+00   4.167523282801679e+00   1.354067829600000e+01 -2.88769627e+00   2.25785310e+00   1.59355903e+00
C     8.621569419525001e+00   4.807882272392200e+00   1.335071172800000e+01  1.16497630e-01   6.04332545e+00  -1.59946838e+00
C     8.658103640549999e+00   5.093719094519656e+00   3.488491800000000e+00  1.29668956e+00  -3.32098768e+00   2.64785522e+00
C     9.916364813250000e+00   5.753244298735534e+00   3.814271368000000e+00 -1.54387316e+00   1.15861779e+00  -2.88859434e+00
C     7.383962038125000e+00   6.661773068550600e-03   7.468096872000000e+00  7.17820590e-01   2.90921557e+00  -3.92969558e+00
C     1.329084123000000e+00   7.428684228137172e-01   6.960791983999999e+00 -3.65922304e+00   8.63362630e-01   2.60659430e-01
C     1.329600035175000e+00   6.231544631902590e-01   1.021259414400000e+01 -8.98794260e+00  -1.59520670e+00  -1.19609869e+00
C     2.429509558575000e+00   1.315472285522796e+00   1.027292102400000e+01  2.40104701e+00   3.22792167e+00  -1.69343050e+00
C     2.466598404600000e+00   3.772722688294560e-02   6.623794048000000e+00  1.46476881e+00  -1.05673519e+00  -1.38483810e-01
C     3.724810733325000e+00   7.399802946465930e-01   6.358552840000000e+00 -4.72429600e-01   1.02389722e+00   2.68785242e+00
C     3.614764481175000e+00   6.019467632868690e-01   1.043508946400000e+01  3.07160390e+00   3.22354849e+00   1.87225942e+00
C     4.876499603025001e+00   1.373088447530600e+00   1.058034140800000e+01 -2.15535080e-01   7.37858980e-01  -5.67860990e+00
C     4.920344225249999e+00   4.731158302590720e-02   6.939737687999999e+00 -1.79108373e+00   1.40567031e+00  -2.47582986e+00
C     6.095469624750000e+00   7.060465018218612e-01   7.133008375999999e+00  4.05582076e+00   3.32865576e+00   1.28861628e+00
C     6.098812571474999e+00   6.755111924731171e-01   1.032753971200000e+01 -8.04863690e-01  -1.49676164e+00   1.42148381e+00
C     7.207451818425000e+00   1.451570322072070e+00   1.006365891200000e+01  5.45535299e+00  -8.48082442e+00   1.00414644e+00
C     8.623107135824998e+00   2.224689897313283e+00   6.746065528000000e+00  3.11215814e+00  -3.96233229e+00   1.67231697e+00
C     2.486113772625000e+00   2.908118737821297e+00   6.671213168000000e+00  6.87307600e-01   9.97015600e-02  -1.93184191e+00
C     2.404142120325000e+00   2.774480320545734e+00   9.975162080000000e+00  1.11275040e+00  -2.64926940e-01   9.85346520e-01
C     3.640463585175000e+00   3.535422839891943e+00   9.908636319999999e+00  1.35381570e-01  -4.19413536e+00   5.68553480e-01
C     3.693260742300000e+00   2.200780689316810e+00   6.273035768000000e+00  1.19838259e+00  -1.61619340e-01   3.92375024e+00
C     4.986960123075000e+00   2.968000726259970e+00   6.589671376000000e+00 -1.17162675e+00  -6.54192101e+00   7.34257340e-01
C     4.939578546300000e+00   2.753248604675369e+00   9.926459528000001e+00 -2.28757792e+00   4.71031470e-01   3.42585833e+00
C     6.158064972000000e+00   3.471004267312983e+00   1.008316348800000e+01 -1.85782352e+00   2.33285616e+00   1.48660401e+00
C     6.204073814925000e+00   2.197485890775576e+00   7.028130208000000e+00 -3.04818824e+00  -2.49526663e+00  -2.30144926e+00
C     7.423123850550000e+00   2.805533990525666e+00   6.959788711999999e+00 -7.09614630e-01   5.40846425e+00  -5.24371850e-01
C     7.326459849224999e+00   2.717647143103893e+00   1.016619203200000e+01  1.30644105e+00   7.08125696e+00  -6.24405700e-01
C     8.582461442700000e+00   3.465548223871734e+00   1.008444406400000e+01  6.65831000e-02   1.53620201e+00   2.19366696e+00
C     2.549264669250000e+00   4.330668037315620e+00   6.887497232000000e+00 -4.33353985e+00   2.83338450e-01   1.26608074e+00
C     3.653659555950000e+00   5.056310799678139e+00   7.226941808000000e+00  4.61206877e+00  -2.63819065e+00  -2.56075959e+00
C     3.554004831749999e+00   4.875943714927085e+00   1.010410028000000e+01  6.12166162e+00   1.49229206e+00  -7.99129340e-01
C     4.885627769175000e+00   5.600342065944827e+00   1.015082566400000e+01  2.48805990e-01   8.38365050e-01   1.50445571e+00
C     4.976275198500000e+00   4.258831989240629e+00   6.832555543999999e+00 -1.51795984e+00   5.78916552e+00   9.68792720e-01
C     6.217621639800000e+00   4.949481886656107e+00   6.662188616000000e+00 -3.10727199e+00   3.62631487e+00   1.85270734e+00
C     6.099082451999999e+00   4.939769957696575e+00   1.042445820800000e+01  1.70636139e+00  -1.88759094e+00  -1.43367314e+00
C     7.378864516725001e+00   5.695275198077066e+00   1.076237999200000e+01 -1.35053012e+00  -5.07361037e+00  -3.50882558e+00
C     7.393051935150000e+00   4.347450907378380e+00   6.810251000000000e+00  3.86201291e+00  -3.48443874e+00   2.60276250e-01
C     8.646767955975001e+00   5.086287529656333e+00   6.946259567999999e+00 -1.87836080e-01  -4.33271001e+00  -5.86203500e-01
C     8.656046092724999e+00   4.913128693297025e+00   1.052897080800000e+01 -3.28941807e+00  -1.60541123e+00  -1.48614612e+00
C     9.858112919249999e+00   5.579445933186325e+00   1.039765274400000e+01 -2.88885977e+00   3.65528815e+00  -2.83055070e-01
