72
Lattice="7.395 0 0 3.6975 6.40425786098592 0 0 0 13.6 " PBC="1 1 1" Properties=species:S:1:pos:R:3:force:R:3 Energy="-560.72192945"
C     3.741438649650000e+00   6.352105170372562e+00   1.329617504800000e+01  7.27542960e-01   2.24743400e-02   6.24267950e-01
C     1.160839146900000e+00   8.103705815096893e-01   1.330703709600000e+01  3.71036042e+00  -5.56338024e+00   1.04961906e+00
C     1.275253403700000e+00   7.276027214379925e-01   3.413175952000000e+00  1.15215875e+00   1.94170193e+00   5.37983120e-01
C     2.446073545125000e+00   1.633088508130880e+00   3.411505191999999e+00  3.00888727e+00  -8.54140110e+00   2.59753970e-01
C     6.006163944224999e+00   6.368812790405466e+00   1.343955495200000e+01  5.73825992e+00   5.89760160e-01  -9.22759300e-01
C     3.727327066950000e+00   7.461444568794217e-01   1.314326372000000e+01 -1.05250673e+00  -2.66171742e+00   3.86691302e+00
C     3.731659168874999e+00   7.865717829187219e-01   3.500323800000000e+00 -4.92767822e+00  -2.66067794e+00   3.88932140e-01
C     4.877402680425000e+00   1.467053127789249e+00   3.543536440000000e+00  4.46683324e+00   6.16656910e-01   6.43534840e-01
C     8.701186873574999e+00   6.396996007969968e+00   1.334741862400000e+01 -1.51241826e+00  -7.82516620e-01   1.55260400e-01
C     6.342049318200000e+00   7.123873575290472e-01   1.343832632800000e+01 -8.87902706e+00  -3.82986090e-01   9.08860500e-01
C     6.136868017949999e+00   8.395976931053714e-01   3.559746144000000e+00  4.02697843e+00  -4.92216284e+00   6.92377720e-01
C     7.513769024399999e+00   1.487372236914564e+00   3.424201608000000e+00 -6.96210249e+00  -1.61152002e+00   4.00424740e-01
C     8.632385050725000e+00   2.194222280970120e+00   1.336530153600000e+01  1.01060564e+00  -3.12982377e+00  -1.65322874e+00
C     2.437930503900000e+00   2.860859861837578e+00   1.300690876000000e+01  9.39257400e-02  -4.22223100e-01   2.89357819e+00
C     2.590449125100000e+00   2.951977337136828e+00   3.434343399999999e+00 -6.09730770e+00   2.59335510e+00  -3.90509950e-01
C     3.780742889775000e+00   3.627166651609902e+00   3.565278352000000e+00  1.56112524e+00  -2.01936095e+00   1.25254412e+00
C     3.652792455225000e+00   2.188710008144860e+00   1.328862623200000e+01  2.67892927e+00  -2.55943410e+00  -1.62224459e+00
C     4.936490874975000e+00   2.831674057705093e+00   1.351461036000000e+01 -1.48499368e+00   1.89641380e-01   1.50268946e+00
C     5.022125973300000e+00   2.823267380540007e+00   3.763832368000000e+00 -3.22942977e+00   5.18701411e+00  -2.85581677e+00
C     6.214164588225000e+00   3.653452671825957e+00   3.561753503999999e+00 -5.64348620e+00  -3.87683801e+00   8.24315210e-01
C     6.173645090775000e+00   2.185853452968986e+00   2.061910960000000e-01 -2.33502513e+00  -7.25567109e+00  -2.85269417e+00
C     7.400116711424999e+00   2.665477546235704e+00   2.684028000000000e-02  2.77109340e-01   7.19393683e+00   2.52680700e-01
C     7.246216334474999e+00   2.866252567168591e+00   3.350416440000000e+00  1.05688072e+01   1.69371452e+00   1.60075230e-01
C     8.556519302024999e+00   3.657709838195813e+00   3.399121304000000e+00  3.31727318e+00  -1.71506461e+00  -4.54761400e-01
C     9.827253990974999e+00   4.247922528103855e+00   1.312930155200000e+01  3.36526166e+00  -1.56196915e+00   4.76073710e-01
C     3.751406185275000e+00   4.863618400462622e+00   1.325897728000000e+01 -4.55209865e+00   5.18557914e+00  -1.41613870e-01
C     3.756643878900000e+00   5.001274272736342e+00   3.639194760000000e+00 -7.19748690e-01   2.30628695e+00   1.97804790e-01
C     5.000293234124999e+00   5.666694916525243e+00   3.561659936000000e+00 -3.84923529e+00   5.09995824e+00  -3.08174550e-01
C     4.869936910274999e+00   4.264111979633306e+00   4.491332000000000e-02  1.47822558e+00  -4.00451398e+00  -7.54744450e-01
C     6.077662094999999e+00   4.898145355650347e+00   1.501744640000000e-01  3.07339225e+00   2.81313614e+00  -1.99683831e+00
C     6.145168239899999e+00   5.019606845116064e+00   3.510077720000000e+00  5.11688546e+00  -1.43531284e+00   6.50334090e-01
C     7.424904529574999e+00   5.601043716435968e+00   3.619663936000000e+00 -1.63407061e+00   8.01782028e+00  -1.95683212e+00
C     7.327678619175000e+00   4.045887277309277e+00   1.357493071200000e+01  1.87483311e+00   6.64173422e+00   3.59044450e-01
C     8.632084998600000e+00   4.792687466150985e+00   1.338447468000000e+01 -4.11595700e+00   5.74153912e+00   7.83316100e-02
C     8.673943915424999e+00   5.064826221141687e+00   3.515217568000000e+00 -4.58967020e-01  -3.03140405e+00   1.26603595e+00
C     9.901655899424998e+00   5.743142926855534e+00   3.752853904000000e+00  4.93733820e-01   2.31231701e+00  -2.54934213e+00
C     3.736562053874999e+00   6.374752867655773e+00   7.336694624000000e+00 -1.60450473e+00   4.53276882e+00  -2.56200448e+00
C     1.294238809050000e+00   6.999693734533501e-01   6.951219624000000e+00 -2.16713558e+00   1.88199973e+00  -1.35096600e-01
C     1.299751226925000e+00   6.464021753923734e-01   1.022054973600000e+01 -7.84381818e+00  -1.30735819e+00  -7.96637690e-01
C     2.433418037925000e+00   1.360570685117444e+00   1.022101920800000e+01  1.97391182e+00   9.27313190e-01  -7.16523690e-01
C     6.161633207400000e+00   6.389264211498168e+00   6.631173680000000e+00  1.47260860e+00   2.96786595e+00  -1.13473770e-01
C     3.795951594675000e+00   6.890094467646390e-01   6.372038735999999e+00 -1.45686571e+00   1.23079849e+00   2.96421125e+00
C     3.660071834400000e+00   6.469085600613637e-01   1.038868272800000e+01  2.24788057e+00  -9.50748470e-01   2.39009016e+00
C     4.932194749724999e+00   1.368228256240646e+00   1.050853463200000e+01 -5.15213600e+00   1.72985627e+00  -3.79930809e+00
C     5.008848398700001e+00   3.770442772496400e-03   6.948317112000000e+00 -4.20431848e+00   1.52766031e+00  -2.87262750e+00
C     6.120209190524999e+00   7.120091861024143e-01   7.107494232000001e+00  6.22830329e+00   3.89950465e+00   1.05171664e+00
C     6.094331053574999e+00   7.363179557467735e-01   1.030680746400000e+01  9.79432410e-01  -3.41302862e+00   1.02219933e+00
C     7.232166647924999e+00   1.409927147678049e+00   1.011327647200000e+01  8.37711713e+00  -1.63875289e+00   2.14093800e-01
C     8.609752024650000e+00   2.252167429704192e+00   6.815074512000000e+00  6.67808980e-01  -4.49693056e+00   6.89835920e-01
C     2.474633885550000e+00   2.852388437625527e+00   6.685452368000000e+00  1.73228068e+00   2.58038180e-01  -1.55519946e+00
C     2.419026850275000e+00   2.795863112859017e+00   1.000291859200000e+01  1.02068327e+00   4.76631210e-01   1.08960413e+00
C     3.728704533600000e+00   3.455927363458971e+00   9.962711960000000e+00 -5.28447756e+00   1.37405157e+00   4.31066990e-01
C     3.786554250525000e+00   2.187560700029305e+00   6.329060424000000e+00 -4.51576402e+00  -3.80196498e+00   2.55208543e+00
C     4.910103185550000e+00   2.881631175610387e+00   6.609288424000000e+00  3.87005734e+00   9.41638240e-01   1.88266593e+00
C     4.885693140975000e+00   2.708861526001231e+00   9.996794376000000e+00  3.23573730e+00   2.00395714e+00   2.21576279e+00
C     6.153742557525000e+00   3.478656779072475e+00   1.007587905600000e+01 -9.07509320e-01   1.61717825e+00   1.31195660e+00
C     6.221266968075000e+00   2.221076102688043e+00   6.960101512000000e+00 -5.67668361e+00  -3.91324346e+00  -1.50566937e+00
C     7.345912248825000e+00   2.912470431037167e+00   6.895747808000000e+00  4.73424521e+00   3.42983696e+00  -2.71811950e-01
C     7.413319559549999e+00   2.752845008345032e+00   1.012043279200000e+01 -2.99938468e+00   4.22955768e+00  -3.20439000e-03
C     8.588372377124999e+00   3.568974874905640e+00   1.014125303200000e+01  2.48190599e+00  -2.40054678e+00   5.81578550e-01
C     2.516761869450000e+00   4.249152465825867e+00   6.876202431999999e+00 -4.99221724e+00   9.66758150e-01   7.69902920e-01
C     3.549694101375000e+00   5.053116035644678e+00   7.128581848000000e+00  8.54064839e+00  -3.77486708e+00  -1.49920176e+00
C     3.552082538475000e+00   4.898144010756196e+00   1.006966548800000e+01  3.91409752e+00   1.40385334e+00   4.39657150e-01
C     4.840639510200000e+00   5.610984853784310e+00   1.017646411200000e+01  1.55321196e+00   1.65810388e+00   9.07568980e-01
C     4.911097628175000e+00   4.260633058678597e+00   6.862154447999999e+00 -7.72951260e-01   2.66326625e+00  -1.94640150e-01
C     6.170272453125000e+00   5.002572736017457e+00   6.705969327999999e+00 -2.42915911e+00  -6.59501000e-03   1.25135265e+00
C     6.098804584874999e+00   4.988488107876274e+00   1.037783210400000e+01  2.13758892e+00  -4.74456015e+00  -1.10100628e+00
C     7.459555170149999e+00   5.588187104739440e+00   1.068984153600000e+01 -6.50709804e+00   3.69829662e+00  -3.08797414e+00
C     7.408422664500000e+00   4.437615557193219e+00   6.774835512000000e+00  7.30359100e-01  -5.41919435e+00   2.99727610e-01
C     8.670012733425001e+00   5.035567984852806e+00   6.929696127999999e+00 -3.35906250e-01  -2.82847749e+00  -4.34482460e-01
C     8.653092086025000e+00   4.955522959052867e+00   1.050927284000000e+01 -7.63898840e-01  -1.62258071e+00  -1.48584644e+00
C     9.803363814899999e+00   5.728314700334226e+00   1.035003316000000e+01  1.47833160e+00  -3.13066945e+00  -8.93032610e-01
