72
Lattice="7.395 0 0 3.6975 6.40425786098592 0 0 0 13.6 " PBC="1 1 1" Properties=species:S:1:pos:R:3:force:R:3 Energy="-574.38852285"
C     3.723274496025000e+00   6.232842710928233e+00   1.358415314400000e+01 -2.22526376e+00  -1.13949475e+00  -8.42639870e-01
C     1.247611522275000e+00   4.797777314127799e-01   1.538268800000000e-02 -4.02632970e-01   6.30220040e-01   5.90200800e-02
C     1.382622074250000e+00   1.071243926711759e+00   3.636086480000000e+00  1.38049781e+00  -2.31159291e+00  -4.74895490e-01
C     2.656281448725000e+00   1.679863670518434e+00   3.722100768000000e+00 -2.16715746e+00   4.64388473e+00  -1.24278475e+00
C     6.168481975724999e+00   6.210049060608394e+00   1.357474072000000e+01 -2.25913310e-01   7.04245280e-01  -6.99399500e-02
C     3.682409245350000e+00   5.276959897857648e-01   1.355712858400000e+01  8.42857000e-01  -3.86302950e-01  -3.49821710e-01
C     3.840841426200000e+00   9.962268837577056e-01   3.617732056000000e+00  2.13865754e+00   4.43690257e+00   7.49013270e-01
C     5.088848100299999e+00   1.701814840716791e+00   3.684027840000000e+00  7.25679150e-01   9.69619650e-01  -1.67645966e+00
C     8.599473455325001e+00   6.135944880569705e+00   1.355927588800000e+01 -9.72460120e-01   4.42915256e+00  -7.23077110e-01
C     6.113794323824999e+00   4.055370125965159e-01   1.358782650400000e+01  2.11916033e+00   4.08521113e+00   5.18745880e-01
C     6.388672611674999e+00   9.801944005884031e-01   3.542056080000000e+00 -3.82071734e+00   1.39042439e+00   8.27349770e-01
C     7.543393542299999e+00   1.738164127478579e+00   3.566566408000000e+00  2.42065998e+00  -2.30242120e-01   2.31220430e-01
C     1.244528990475000e+00   1.840752461158611e+00   7.587576000000000e-02 -1.05796913e+00   6.11806307e+00  -8.06754600e-01
C     2.464277927550000e+00   2.643352692564184e+00   3.693882400000000e-02 -7.32391440e-01   4.33890920e-01  -1.12027984e+00
C     2.659406982450000e+00   3.170019518111847e+00   3.619423352000000e+00 -6.95066370e-01   4.50438060e-01   6.90957580e-01
C     3.881370537150000e+00   3.954556860436182e+00   3.703647880000000e+00 -1.30957868e+00  -4.31202877e+00  -1.59987260e+00
C     3.716525634150000e+00   1.970332180015399e+00   1.349701250400000e+01 -3.74745440e+00  -2.60685029e+00   1.83281259e+00
C     4.858791831825000e+00   2.621504502832215e+00   1.275221680000000e-01  4.44308012e+00   1.56080657e+00  -1.02402696e+00
C     5.063237995124999e+00   3.189998561144796e+00   3.600544375999999e+00  8.22014570e-01  -3.74213622e+00   1.61761740e+00
C     6.317202340050000e+00   3.725781015202647e+00   3.672600032000000e+00  2.42534605e+00   6.46192381e+00  -9.06177510e-01
C     6.103765631550000e+00   1.857201477259128e+00   9.379294399999999e-02  1.32818497e+00   2.32486226e+00  -4.82099950e-01
C     7.371389650725000e+00   2.699118088093027e+00   1.359602458400000e+01 -3.76497910e-01  -3.07491941e+00   1.74371317e+00
C     7.612538160375000e+00   3.126528267027165e+00   3.615955624000000e+00 -3.40637936e+00   6.38225050e-01  -3.39093040e-01
C     8.767286526449999e+00   3.922333452758120e+00   3.540060416000000e+00  2.40271515e+00  -2.65087787e+00   1.35455734e+00
C     2.427847384425000e+00   4.091791204457556e+00   1.353455612000000e+01  3.53067900e-02  -1.03233430e-01  -9.00346140e-01
C     3.676544344800000e+00   4.857523532299838e+00   1.346162326400000e+01  5.06984710e-01  -4.56910407e+00   1.76012748e+00
C     3.880285394850000e+00   5.294266380043041e+00   3.524406544000000e+00  1.40487380e+00   2.01464162e+00   7.38924050e-01
C     5.115906220425000e+00   6.047563432313403e+00   3.560395000000000e+00  3.76072520e-01  -1.19114736e+00   2.29273120e-01
C     4.905451434750000e+00   4.047922998755236e+00   7.873352800000000e-02 -4.42909090e-01   2.08305065e+00  -1.02132654e+00
C     6.134665417200000e+00   4.824907287444645e+00   8.486264000000000e-03 -7.53379200e-01  -1.86268418e+00   9.57721820e-01
C     6.373877472149999e+00   5.323612354664605e+00   3.623978400000000e+00 -2.43244053e+00  -1.88121958e+00  -2.70152020e-01
C     7.544092665600000e+00   6.098296490101016e+00   3.584520312000000e+00  1.61338142e+00  -7.78450031e+00   7.67563370e-01
C     7.368965162999999e+00   4.184350214158514e+00   7.261760800000000e-02 -1.03412192e+00  -5.23157186e+00  -1.78775354e+00
C     8.553450746774999e+00   4.815518197123835e+00   1.340460295200000e+01  2.70199291e+00  -3.34774780e+00   2.09387148e+00
C     8.787418785374999e+00   5.299680219424991e+00   3.674188239999999e+00  4.42051170e-01   2.09778264e+00  -1.69372459e+00
C     1.007476453005000e+01   5.966726776199390e+00   3.560309864000000e+00 -2.33797470e+00   9.23243550e-01   2.61010940e-01
C     7.413214402650000e+00   1.864069403388192e-01   7.089546584000000e+00 -2.24184500e-02   4.38111140e-01  -9.81227470e-01
C     1.277500448400000e+00   8.892464459947068e-01   6.991822151999999e+00 -3.03395126e+00   2.28490519e+00  -4.75210400e-02
C     1.056798041475000e+00   3.791544161719314e-01   9.788371247999999e+00  1.20768668e+00   1.36713382e+00   1.44648469e+00
C     2.332214911650000e+00   1.091350606603858e+00   9.913136968000000e+00 -2.04640047e+00   5.13278290e-01  -3.84031100e-02
C     2.456870614875000e+00   2.434709912765130e-01   6.798167400000000e+00  2.11181510e+00  -2.90429516e+00   4.54591140e-01
C     3.749142279975000e+00   8.740303776173971e-01   6.750725160000000e+00 -2.09460860e+00   1.79990340e-01   5.02745000e-01
C     3.539025889500000e+00   4.164035652056280e-01   1.007448845600000e+01 -1.99635068e+00  -1.61745669e+00  -8.63849740e-01
C     4.692603368249999e+00   1.100741682244604e+00   9.930855319999999e+00  5.67542056e+00   1.90611440e+00   2.99374100e-02
C     4.961784400200000e+00   2.382044498253420e-01   6.913941343999999e+00  9.19269050e-01  -2.75953291e+00   2.94283270e-01
C     6.165221594175000e+00   9.788628272941520e-01   7.068505751999999e+00  8.61390670e-01  -3.90945356e+00  -1.05408901e+00
C     6.047828224649999e+00   3.573131430384516e-01   9.858966263999999e+00 -1.93449850e+00   3.63040115e+00   6.75920340e-01
C     7.248288228599999e+00   1.175468099976971e+00   9.802739647999999e+00 -4.68044420e-01  -3.30920325e+00  -3.10090040e-01
C     8.619796948950000e+00   2.354407691969533e+00   7.036704056000000e+00  8.22009240e-01  -1.77892365e+00  -1.72411417e+00
C     2.468916071550000e+00   3.011275513428983e+00   6.839337320000000e+00 -2.86484410e-01  -1.51940947e+00   1.12240006e+00
C     2.316665703975000e+00   2.511080111362423e+00   9.850639935999999e+00 -2.14670920e-01   2.23916660e-01   2.88963970e-01
C     3.510940751774999e+00   3.265197356936915e+00   9.760130576000000e+00  1.98564201e+00  -3.88629820e-01   1.19422439e+00
C     3.686675309925000e+00   2.237580643704206e+00   6.784147568000000e+00  1.46370372e+00   5.16178366e+00  -2.25352000e-02
C     4.918304943074999e+00   3.088482492358263e+00   6.831182488000000e+00  3.49041000e-02  -4.26764537e+00   1.84475050e-01
C     4.778844486825000e+00   2.589628846355952e+00   9.836331511999999e+00 -6.93372030e-01  -2.46407264e+00  -1.19436670e-01
C     6.085635605849999e+00   3.272485210253860e+00   9.827697144000000e+00 -4.22825935e+00  -3.81282044e+00  -4.35923370e-01
C     6.171929081025000e+00   2.329743165801051e+00   6.929349736000000e+00 -5.89495250e-01   2.91743650e+00  -1.49268580e-01
C     7.407430403399999e+00   3.032662532552453e+00   6.955080527999999e+00 -1.34825236e+00   2.18827606e+00  -1.28249990e-01
C     7.256301413625000e+00   2.581071092747948e+00   9.733393520000000e+00  1.09563883e+00  -2.30304308e+00   1.84720724e+00
C     8.470715190975000e+00   3.204340000026165e+00   9.913098344000000e+00  4.95715280e-01   3.41780004e+00  -6.59555220e-01
C     9.846489199424999e+00   4.378317829199114e+00   7.014079368000000e+00  1.31484587e+00   3.92574792e+00  -1.27939548e+00
C     3.741226265250000e+00   5.163424574089783e+00   6.980494304000000e+00 -3.72312071e+00   3.16208300e-01   2.72146980e-01
C     3.534941815875000e+00   4.700026884920367e+00   9.776770312000000e+00  5.63786980e-01  -2.78678920e+00   4.80840380e-01
C     4.731877806525000e+00   5.362642912064638e+00   9.835921743999998e+00  2.58045910e+00  -8.72854700e-02  -2.34841180e-01
C     4.924787252174999e+00   4.462387931064063e+00   6.906522136000000e+00  1.07268840e+00   1.17107501e+00  -4.77490910e-01
C     6.154557375600000e+00   5.208989972167582e+00   6.868015640000000e+00 -1.59942392e+00   6.40667520e-01  -4.22390800e-01
C     6.003272536200000e+00   4.574537437473604e+00   9.848274896000000e+00 -6.80049360e-01   7.84147598e+00   1.34414280e+00
C     7.185448994249999e+00   5.386228961209497e+00   1.005817049600000e+01  1.09048946e+00  -1.05645242e+00  -8.23218830e-01
C     7.330435327275000e+00   4.523368505896040e+00   6.876703048000000e+00  4.01178531e+00  -2.65491257e+00   4.11613820e-01
C     8.631806872649999e+00   5.170138413774735e+00   6.963268136000000e+00 -2.33195100e-01   4.22539160e-01  -3.23776600e-01
C     8.404769538975000e+00   4.696599454198852e+00   9.984185000000000e+00  3.38726766e+00  -1.57303337e+00  -6.26855000e-02
C     9.775943154899998e+00   5.380760621593157e+00   9.894342040000000e+00 -5.47613948e+00   6.76592240e-01   4.81987510e-01
