72
Lattice="7.395 0 0 3.6975 6.40425786098592 0 0 0 13.6 " PBC="1 1 1" Properties=species:S:1:pos:R:3:force:R:3 Energy="-568.43930899"
C     3.622036428375000e+00   6.167225325320460e+00   1.352494976000000e+01  1.49576557e+00   1.33396473e+00   1.21191461e+00
C     1.150265147325000e+00   5.282753829943591e-01   1.355843364000000e+01  1.68204769e+00  -1.23576699e+00   1.91111140e-01
C     1.444250931975000e+00   9.893562037977619e-01   3.466667064000000e+00 -1.63018992e+00   2.76292660e+00   1.62690170e-01
C     2.644962735675000e+00   1.791196441923088e+00   3.366806208000000e+00  2.40771506e+00  -5.83803893e+00   1.26200681e+00
C     6.079132073100000e+00   6.180064901691081e+00   1.044888000000000e-01  2.21503126e+00   2.75575040e-01  -8.53438090e-01
C     3.682701126000000e+00   5.102993356497036e-01   1.814240000000000e-04 -7.88272750e-01  -1.14452690e+00   1.13099106e+00
C     3.955428467175000e+00   1.093296924610090e+00   3.566373696000000e+00 -2.86762561e+00  -2.47446222e+00  -6.53661010e-01
C     5.157389471250000e+00   1.838781422717039e+00   3.646891816000000e+00 -1.58685688e+00  -3.18015668e+00   7.79850300e-02
C     8.648385316424999e+00   6.245045383854677e+00   7.906672799999999e-02 -9.88847500e-02  -1.95187699e+00   2.87320900e-02
C     6.205197411225000e+00   6.215882378880174e-01   1.608257120000000e-01 -3.57897063e+00  -4.39714155e+00  -1.57741402e+00
C     6.292998246224998e+00   1.100054313248491e+00   3.704878816000000e+00  4.91271095e+00  -2.89617878e+00  -7.20656560e-01
C     7.615880959200000e+00   1.780431332758478e+00   3.493609616000000e+00 -3.07894474e+00  -9.49608630e-01   6.57538060e-01
C     1.196664557175000e+00   2.022082746291808e+00   1.352701845600000e+01  4.99012900e-02  -6.10061964e+00   6.14219150e-01
C     2.437841172300000e+00   2.605462285190965e+00   1.336435429600000e+01  5.97534170e-01   2.21383020e-01   9.49572420e-01
C     2.665525975200000e+00   3.139591095826786e+00   3.449528072000000e+00  3.47436800e-02   2.10794530e-01  -2.63017330e-01
C     3.876294683099999e+00   3.777827394149609e+00   3.610713912000000e+00  2.30163695e+00   4.63101471e+00   1.24342207e+00
C     3.654177279900000e+00   1.928007976840546e+00   1.357495968000000e+01  2.54963696e+00   4.90619500e-02  -3.76753230e-01
C     4.947997531950000e+00   2.705207320508893e+00   1.669847440000000e-01 -3.14231131e+00  -1.37135785e+00  -1.28418330e-01
C     5.175384168450000e+00   3.173305286649498e+00   3.716082903999999e+00 -1.30896078e+00   5.45516816e+00  -1.28946161e+00
C     6.397016501100000e+00   4.096124261283054e+00   3.608110191999999e+00 -2.64890149e+00  -1.39297560e+01   1.05509700e-02
C     6.163585968075000e+00   2.024409028916875e+00   2.581084160000000e-01 -2.03108897e+00  -3.71135604e+00   1.28370520e-01
C     7.388188428525000e+00   2.569584159679938e+00   2.993255280000000e-01  1.44817733e+00   3.48416895e+00  -1.60238031e+00
C     7.514663893349999e+00   3.233222754676715e+00   3.401908760000000e+00  4.81104415e+00  -5.22412600e-01   9.59999890e-01
C     8.874386351775000e+00   3.806421829111302e+00   3.437588904000000e+00 -4.15190892e+00   3.54375201e+00   4.04672500e-02
C     2.478704389349999e+00   3.990947390618588e+00   1.335361233600000e+01 -1.40774136e+00   6.44235050e-01   1.24402024e+00
C     3.666534916499999e+00   4.672034834452987e+00   1.349182369600000e+01 -4.86379050e-01   5.62453968e+00   2.12308100e-01
C     3.850933752450000e+00   5.295808269165414e+00   3.783997224000000e+00 -1.42606361e+00  -1.08333942e+00  -1.39640625e+00
C     5.068321207199999e+00   5.991306317866069e+00   3.674190416000000e+00 -8.17385280e-01   2.05215913e+00  -3.22328310e-01
C     4.870290280350000e+00   4.131389435274301e+00   2.096403280000000e-01  1.48557800e+00  -3.85855573e+00  -7.81363810e-01
C     6.125119581450000e+00   4.717145658307883e+00   2.794431440000000e-01  1.07705178e+00   3.05953623e+00  -6.60597650e-01
C     6.276013964850000e+00   5.339979972647720e+00   3.599286784000000e+00  3.17360513e+00   5.87193660e+00  -8.53301000e-03
C     7.606448821574999e+00   5.873372229587063e+00   3.578523800000000e+00 -2.17908625e+00   8.08061371e+00  -3.33959690e-01
C     7.352467657500000e+00   3.928295816825781e+00   2.299908240000000e-01  2.13456162e+00   5.95550928e+00  -1.31919280e-01
C     8.679783783900000e+00   4.670644213901266e+00   2.305825600000000e-02 -3.27192929e+00   3.20843589e+00  -4.73355700e-02
C     8.811164758950000e+00   5.271458768441065e+00   3.573127048000000e+00  9.00175700e-01  -2.77559584e+00   1.23560950e-01
C     9.964072139774999e+00   6.035944571533477e+00   3.730609471999999e+00  3.20433457e+00   8.83659100e-01  -2.27043530e-01
C     7.341060130500000e+00   2.221717745283036e-01   7.080438935999999e+00  1.27730923e+00  -1.58916420e-01  -9.56115410e-01
C     1.152657910500000e+00   9.230930768699640e-01   6.859450903999999e+00  3.54399240e+00  -1.71732745e+00  -3.80733670e-01
C     1.085579307525000e+00   4.081685221511898e-01   9.924268295999999e+00 -1.81683730e+00  -1.50281004e+00  -4.00641400e-02
C     2.262791132325000e+00   1.133877888795452e+00   9.832173176000000e+00  2.37725933e+00  -1.39115997e+00   2.29273770e-01
C     2.467489465125000e+00   1.270066161337974e-01   6.783785536000000e+00 -1.04645190e+00   4.22984562e+00   6.85429600e-02
C     3.624470455650000e+00   9.779967795037441e-01   6.740738952000000e+00  1.50444036e+00  -1.11833536e+00   2.10469530e-01
C     3.519910443075000e+00   3.958111223548482e-01   9.942613199999998e+00  2.52933117e+00   8.82578860e-01   4.64448460e-01
C     4.876716609299999e+00   1.145016494278457e+00   9.995550655999999e+00 -9.61021383e+00  -1.15428670e+00  -1.16841121e+00
C     4.860498671775000e+00   1.382062541942082e-01   6.905236663999999e+00 -8.88008230e-01   3.75002266e+00  -4.47741340e-01
C     6.107661132674999e+00   7.846116957580903e-01   6.960373376000001e+00 -1.02535501e+00   5.98917706e+00  -2.72508960e-01
C     5.933831267700000e+00   4.331290531179612e-01   1.007038384000000e+01  4.60687686e+00  -6.04072047e+00   9.04803000e-02
C     7.187375687550000e+00   9.716026403711628e-01   9.960523992000001e+00  2.66107768e+00   4.69937905e+00   6.73754790e-01
C     8.654884671000000e+00   2.309692907420699e+00   6.711282712000000e+00 -1.04565255e+00   1.22678330e+00   1.05695709e+00
C     2.447297417625000e+00   3.144869164942105e+00   6.682055087999999e+00  8.22822360e-01   1.98812910e-01   8.53005400e-02
C     2.311200946875000e+00   2.527099721973427e+00   9.693726399999999e+00 -6.14077420e-01   1.13955040e+00   8.68421950e-01
C     3.566573040975000e+00   3.211286186186279e+00   9.707037128000000e+00 -1.79428418e+00   7.47272460e-01   4.13713030e-01
C     3.696291213300000e+00   2.519281339935360e+00   6.650604272000000e+00 -2.28541991e+00  -6.62508483e+00   5.87655950e-01
C     4.946683255575000e+00   3.029722914152134e+00   6.729937287999999e+00  9.21204920e-01   4.47143168e+00   2.83715240e-01
C     4.764541040850000e+00   2.455047530195661e+00   9.743196943999999e+00  1.36321026e+00   4.72736218e+00   1.63621507e+00
C     5.931236177325000e+00   3.184539059404303e+00   9.999735648000000e+00  3.96115393e+00   2.14529748e+00  -7.80179100e-02
C     6.144060579824999e+00   2.326326109977269e+00   6.857339368000000e+00  2.44261180e-01  -2.72390921e+00  -1.13876500e-01
C     7.396616288175000e+00   3.015605880466179e+00   6.857309040000000e+00  6.30010070e-01  -3.20537184e+00  -6.52223930e-01
C     7.240130508300000e+00   2.401893214638918e+00   1.004763063200000e+01 -1.53362209e+00   3.74392638e+00  -1.42158192e+00
C     8.477475921824999e+00   3.251609827290825e+00   9.830962096000000e+00 -2.47157370e-01  -4.41325530e+00   1.16009264e+00
C     9.897144209924999e+00   4.609069516067617e+00   6.861236448000000e+00 -3.02277167e+00  -5.34840703e+00  -1.86045090e-01
C     3.656637818250000e+00   5.238333257000845e+00   7.028275048000000e+00  5.54307386e+00  -5.09742300e-01  -1.41559036e+00
C     3.535410067275000e+00   4.622029684613741e+00   9.889101823999999e+00  6.29361000e-03   2.03177972e+00   7.65098600e-02
C     4.805482940700000e+00   5.403129157276251e+00   9.947207552000000e+00 -2.03461781e+00   2.83009500e-02   3.68971210e-01
C     4.947982668000000e+00   4.528459314511533e+00   6.771447480000000e+00 -1.13023000e-03  -1.98257548e+00   1.09450129e+00
C     6.237065978850000e+00   5.133894413012166e+00   6.793619423999999e+00 -7.35944380e-01  -6.79892100e-01   4.75609460e-01
C     6.021520068450000e+00   4.821673137225345e+00   1.006230394400000e+01  1.19608417e+00  -7.26457445e+00  -6.68326480e-01
C     7.315500828975000e+00   5.389732538556967e+00   1.005389982400000e+01 -2.43543455e+00   7.64527970e-01   6.84973500e-02
C     7.501978436400000e+00   4.347488564414595e+00   6.856879008000000e+00 -3.46641262e+00   5.06209870e+00  -2.98947000e-01
C     8.640577675425000e+00   5.175311324975993e+00   6.927271656000000e+00 -1.12103026e+00  -9.13627140e-01  -4.47693540e-01
C     8.547784549874999e+00   4.605349154591586e+00   1.001501076000000e+01 -5.74654711e+00   1.35854355e+00  -1.21116280e-01
C     9.593171736600000e+00   5.391700631039924e+00   1.001223200800000e+01  7.32021283e+00  -4.16887160e-01  -1.26672970e-01
