72
Lattice="7.395 0 0 3.6975 6.40425786098592 0 0 0 13.6 " PBC="1 1 1" Properties=species:S:1:pos:R:3:force:R:3 Energy="-572.82943618"
C     3.688735224150000e+00   6.260850003529321e+00   1.316532264800000e+01 -1.89921464e+00   3.30516214e+00  -3.48190590e-01
C     1.108774945200000e+00   6.726096153644868e-01   1.307588850400000e+01  3.61150615e+00  -3.17275684e+00   2.93149840e-01
C     1.304704878600000e+00   8.184870817511388e-01   3.562218624000000e+00 -4.35835920e-01   2.82488320e-01   4.26326150e-01
C     2.570318345175000e+00   1.552166867515064e+00   3.505988200000000e+00 -1.77711734e+00   1.37780860e-01   4.41627800e-01
C     5.995889183325000e+00   6.306817909213622e+00   1.314558238400000e+01  5.48802592e+00   3.60145360e-01   1.30033148e+00
C     3.666592930275000e+00   6.952625641391430e-01   1.323126034400000e+01 -1.14980010e-01  -3.23983484e+00  -1.59467149e+00
C     3.757604970075000e+00   7.969104325524343e-01   3.676576263999999e+00  1.49406540e+00   4.22726242e+00   1.82274200e-02
C     4.950150401325000e+00   1.610308819093174e+00   3.838149024000000e+00  2.60065050e+00  -1.51621387e+00  -2.10926686e+00
C     8.692420877549999e+00   6.355670164552910e+00   1.318246585600000e+01 -3.75749416e+00  -1.11628049e+00   3.91331820e-01
C     6.202342053825000e+00   6.721447302864295e-01   1.321555764800000e+01 -1.98865215e+00  -4.30598870e-01   2.85928300e-01
C     6.260567917425000e+00   8.748917502995671e-01   3.805274152000000e+00 -2.13006931e+00   1.17081454e+00  -6.08780350e-01
C     7.479430822574999e+00   1.569421475211790e+00   3.590177231999999e+00  1.81394130e-01   5.87080800e-02   6.29521420e-01
C     1.197922853400000e+00   2.059610608627572e+00   1.301786192800000e+01 -5.27538590e-01  -7.46237030e-01   1.15985114e+00
C     2.392759144725000e+00   2.763168607972773e+00   1.296434524800000e+01  3.19914137e+00  -1.58884586e+00  -2.95886850e-01
C     2.557005089700000e+00   3.013481396006281e+00   3.546989072000000e+00 -2.13690790e-01  -2.32064623e+00   8.99558300e-01
C     3.837989655375000e+00   3.679962584896799e+00   3.836783447999999e+00 -5.27263514e+00   1.35960446e+00  -2.11522788e+00
C     3.693234194250000e+00   2.067107432878488e+00   1.297297064000000e+01 -3.53376680e-01   3.28284910e-01   3.30822161e+00
C     4.916153552699999e+00   2.796457620116160e+00   1.337435845600000e+01 -8.13594550e-01  -1.64254887e+00  -2.22599388e+00
C     5.030161971900000e+00   3.065383935321708e+00   3.654244247999999e+00 -6.61639470e-01  -4.40605059e+00   1.85428047e+00
C     6.222816072675000e+00   3.728156162315185e+00   3.702917560000000e+00  2.58396729e+00   1.01208831e+00  -1.13749400e-02
C     6.176579759549999e+00   2.172234350331646e+00   1.337299274400000e+01 -1.70944707e+00  -5.72855773e+00  -1.76144900e-02
C     7.420669006350000e+00   2.719055759620200e+00   1.336167985600000e+01  4.70800880e-01   1.49953403e+00  -2.09681200e-01
C     7.464824699250000e+00   3.016900885448050e+00   3.610246888000000e+00 -3.71134336e+00  -3.28639467e+00  -4.45541490e-01
C     8.610476180025000e+00   3.655802137864477e+00   3.544287704000000e+00  7.05051616e+00   2.96562413e+00   1.15152465e+00
C     2.461430334900000e+00   4.128942880686624e+00   1.295690740800000e+01 -3.96198120e-01   2.73328353e+00   9.99535800e-01
C     3.707293309425000e+00   4.889547959686190e+00   1.306860080800000e+01 -1.16460731e+00  -1.95424644e+00   4.05450380e-01
C     3.752579697824999e+00   5.083805879735583e+00   3.854107400000000e+00 -6.55554130e-01   1.30085924e+00  -2.61971060e-01
C     4.938204259499999e+00   5.762841975734845e+00   3.798283752000000e+00  3.72262580e+00   3.59571665e+00  -9.15759640e-01
C     4.916586862725000e+00   4.172115583985349e+00   1.326554295200000e+01 -1.28890790e-01   1.10499062e+00   3.93066510e-01
C     6.130012002525000e+00   4.852157596766681e+00   1.336001086400000e+01  1.41083967e+00   1.64820811e+00   1.71172820e-01
C     6.257621860350000e+00   5.153400885857625e+00   3.789385680000000e+00 -2.42250395e+00  -1.77017144e+00  -1.10509508e+00
C     7.469515902374999e+00   5.831521172982906e+00   3.653140608000000e+00  9.90667550e-01  -1.90722724e+00   1.39751124e+00
C     7.487424521775000e+00   4.070337581052343e+00   1.348550568000000e+01 -3.33648673e+00   5.51440318e+00  -2.12717503e+00
C     8.601278131125000e+00   4.812410723125005e+00   1.305758304000000e+01  2.11814009e+00   3.13194876e+00   2.26783431e+00
C     8.690039354774999e+00   5.060935762576895e+00   3.768291128000000e+00  1.16113220e-01   3.16781929e+00  -1.56507438e+00
C     9.946532419950000e+00   5.887325122144066e+00   3.776568632000000e+00 -1.41529323e+00  -4.08589850e+00   6.55888150e-01
C     7.393006418924998e+00   5.220514049931180e-02   7.159696879999999e+00  1.31397481e+00   2.27579550e+00  -8.38095210e-01
C     1.294808261025000e+00   7.863508360225518e-01   6.914699816000000e+00 -2.51317243e+00   5.29999210e-01   5.49981280e-01
C     1.197261666450000e+00   5.822971552782384e-01   1.018240173600000e+01 -2.60520877e+00   6.75204910e-01   6.59266790e-01
C     2.387465581875000e+00   1.304334512593312e+00   1.017150324000000e+01  1.01473146e+00   2.83809410e-01   3.82514770e-01
C     2.489743904175000e+00   7.499174613550620e-02   6.752326424000000e+00  5.13256110e-01  -7.01599480e-01   7.32282020e-01
C     3.708097922400000e+00   8.194883234249712e-01   6.695683784000000e+00  7.14589400e-02  -5.36050370e-01   3.95553380e-01
C     3.639049993950000e+00   5.885204288111149e-01   1.045345980000000e+01 -1.93204843e+00   1.19966182e+00  -2.81987832e+00
C     4.844904872250000e+00   1.244493575447522e+00   1.020442979200000e+01  1.05411144e+00   2.19987652e+00   1.63618185e+00
C     4.938038204775000e+00   5.754411410687940e-02   6.871278960000000e+00 -2.17226580e-01   2.14259708e+00   8.76573070e-01
C     6.129590820300000e+00   7.721274276135420e-01   7.139048000000000e+00  1.65478465e+00  -4.66146220e-01  -1.56156945e+00
C     6.064221682499999e+00   5.858802094657513e-01   1.036407679200000e+01  3.25933220e-01  -1.89270776e+00  -1.11269389e+00
C     7.267985957324999e+00   1.285280564608240e+00   1.023449422400000e+01  2.12038047e+00  -2.49306046e+00  -7.44338650e-01
C     8.646003978525000e+00   2.243086384186448e+00   6.886455744000000e+00  1.70726095e+00  -1.09649139e+00  -1.13863531e+00
C     2.500977833550000e+00   3.012444290488433e+00   6.639260512000000e+00 -1.26311054e+00  -2.72689693e+00   2.45251045e+00
C     2.348022648525000e+00   2.775826751718220e+00   1.003258672000000e+01  1.71227408e+00  -3.46386598e+00   4.81933250e-01
C     3.596256090300000e+00   3.442089683500869e+00   1.000742019200000e+01  1.25956832e+00  -7.70510470e-01   1.25431295e+00
C     3.687445166400000e+00   2.256225295569446e+00   6.668247688000000e+00  2.51762102e+00   2.70955040e-01   3.30714680e-01
C     5.012335252124999e+00   2.997622852480456e+00   6.785020008000000e+00 -2.43953484e+00  -6.26685022e+00   1.35606550e-01
C     4.905898314600000e+00   2.677564109967146e+00   1.017816003200000e+01 -4.48478246e+00   6.72196020e-01  -1.13349065e+00
C     6.073286843249999e+00   3.381084003978081e+00   1.025646312000000e+01  9.55154070e-01   1.99408616e+00  -5.91130250e-01
C     6.190119708749999e+00   2.156705305872718e+00   6.941484471999999e+00 -2.25075980e-01   2.85050563e+00   2.28754040e-01
C     7.416816507149999e+00   2.897230923076090e+00   6.943417712000000e+00 -3.07879200e-02   1.27346165e+00  -2.43796470e-01
C     7.254897103125000e+00   2.624439318039139e+00   1.013362533600000e+01  2.34387803e+00   4.24429836e+00   1.33265911e+00
C     8.529410858924999e+00   3.386485419099783e+00   1.019150176800000e+01 -1.59306956e+00   2.03041699e+00  -7.43989400e-01
C     9.912218732549999e+00   4.367937359761576e+00   6.991196416000000e+00 -7.66742170e-01   3.86204810e-01  -1.26103968e+00
C     3.701958704325000e+00   5.078376734177347e+00   7.068428232000000e+00  2.67349876e+00  -1.48351625e+00  -8.31218880e-01
C     3.536171567400000e+00   4.839599423486428e+00   1.013610706400000e+01  4.69947114e+00   4.13943510e-01   4.66815870e-01
C     4.824474299025000e+00   5.593288800593294e+00   1.027187831200000e+01  1.29473574e+00  -2.57770955e+00  -8.99566850e-01
C     4.989157917075000e+00   4.318523194837652e+00   6.860675584000000e+00 -1.01310153e+00   4.14745576e+00   8.99440670e-01
C     6.223044356325000e+00   5.005559297627889e+00   6.856479168000000e+00 -7.66161830e-01   3.34832004e+00  -3.94312800e-01
C     6.095803287150000e+00   4.851585888667518e+00   1.031601153600000e+01 -3.89699630e-01   6.26697200e-01   2.20346800e-01
C     7.364915217299999e+00   5.615711708425619e+00   1.045301956800000e+01 -1.84799457e+00  -3.61424954e+00  -7.85452700e-01
C     7.445033941425001e+00   4.379280004900001e+00   6.852602080000000e+00  6.42219340e-01  -2.88664136e+00   4.26123800e-01
C     8.696448305474998e+00   5.081384429838717e+00   6.920949151999999e+00 -1.95202909e+00  -1.06333552e+00  -1.72364000e-03
C     8.600087721000000e+00   4.850634344034679e+00   1.035483627200000e+01 -3.73891130e+00  -1.48911479e+00  -4.51932030e-01
C     9.775896788250000e+00   5.534619586465571e+00   1.032300683200000e+01 -2.23597330e-01   1.99328632e+00  -4.06028110e-01
