72
Lattice="7.395 0 0 3.6975 6.40425786098592 0 0 0 13.6 " PBC="1 1 1" Properties=species:S:1:pos:R:3:force:R:3 Energy="-568.94027415"
C     1.099115085945000e+01   6.335922251186128e+00   1.316887904800000e+01  2.85732393e+00  -1.11264302e+00  -1.97103820e-01
C     1.196819297550000e+00   6.016423689107833e-01   1.306927822400000e+01 -1.37542209e+00   8.77754600e-02   3.37036650e-01
C     1.264440471675000e+00   7.892823210153883e-01   3.492416488000000e+00  9.84873010e-01   1.15103026e+00   5.44612500e-01
C     2.512268149800000e+00   1.531265995605746e+00   3.423295304000000e+00  2.41889880e+00  -5.05985644e+00   1.20315440e+00
C     6.157771575375000e+00   6.279191221657154e+00   1.314615290400000e+01 -1.35837697e+00   1.59333273e+00   1.32693889e+00
C     3.660892753350000e+00   6.113576280844032e-01   1.325089221600000e+01 -1.35096330e-01   1.84486300e-01  -2.09615143e+00
C     3.862737947250000e+00   8.946903213460212e-01   3.700878648000000e+00 -4.60629620e+00  -3.70895792e+00  -1.10216284e+00
C     5.058005847750000e+00   1.604557731492316e+00   3.836745232000000e+00 -2.21699766e+00  -2.69586570e-01  -1.38224320e+00
C     8.582165235975001e+00   6.367407568145825e+00   1.311930772800000e+01  2.03803187e+00  -2.15725065e+00   1.48897658e+00
C     6.114067125375000e+00   6.773273119170559e-01   1.324993151200000e+01 -7.30582900e-02   8.01511670e-01   3.62548700e-02
C     6.185400182775000e+00   8.641683328536258e-01   3.821748512000000e+00  4.49695443e+00  -1.34987434e+00  -1.43679668e+00
C     7.465333438275000e+00   1.566189374355005e+00   3.543170464000000e+00 -2.12642936e+00  -6.37552080e-01   1.11192892e+00
C     8.536426495424999e+00   2.051161919530924e+00   1.300130243200000e+01  3.95354353e+00  -1.29705397e+00   9.72742280e-01
C     2.466258234600000e+00   2.724265751474467e+00   1.284546465600000e+01 -1.49263252e+00   5.62443010e-01   6.80351510e-01
C     2.541735708825000e+00   2.848800836414934e+00   3.529590999999999e+00 -1.05720799e+00   6.14720266e+00   5.57180930e-01
C     3.659326455375000e+00   3.642670207122547e+00   3.815516040000000e+00  5.28137852e+00   4.68179180e-01  -1.31079464e+00
C     3.680522522025000e+00   2.006230542981265e+00   1.294123463200000e+01  1.13509757e+00   1.51937895e+00   3.74718086e+00
C     4.881495775950000e+00   2.772050096815600e+00   1.343564209600000e+01  2.80194210e-01   1.21841507e+00  -2.54914261e+00
C     5.043969583125000e+00   2.968564941377436e+00   3.679304016000000e+00 -1.37624365e+00   4.54361273e+00   1.36758878e+00
C     6.286248903674999e+00   3.810297814053331e+00   3.667349888000000e+00 -3.74256065e+00  -4.63853492e+00   2.94455640e-01
C     6.181980956624999e+00   2.128335788447068e+00   1.349327604000000e+01 -2.40025872e+00  -2.58539645e+00  -3.43041250e-01
C     7.441782359925000e+00   2.731185231879305e+00   1.349157699200000e+01 -1.18214512e+00   3.77169055e+00  -4.80535460e-01
C     7.435931325000000e+00   3.015768740743559e+00   3.553035360000000e+00  3.48248484e+00   1.69120040e-01  -3.95316830e-01
C     8.785428088349999e+00   3.678692556520582e+00   3.525389144000000e+00 -4.02690658e+00  -1.86222030e+00   5.46442650e-01
C     2.513254236075000e+00   4.161487077640893e+00   1.287044459200000e+01 -2.37605540e+00  -1.97540837e+00   1.23573283e+00
C     3.663506664000000e+00   4.846071310309430e+00   1.309217232800000e+01  4.67966690e-01   4.62953916e+00   4.63748000e-02
C     3.702272991825000e+00   5.111200861242676e+00   3.911229576000000e+00  2.95716590e-01  -1.24280614e+00  -1.58911172e+00
C     5.006704292399999e+00   5.792513670911167e+00   3.784955208000000e+00 -6.74613225e+00   3.26722290e+00  -3.73122360e-01
C     4.875327865275000e+00   4.268375166005550e+00   1.331095892800000e+01  2.41236022e+00  -4.41650912e+00   1.35499307e+00
C     6.155192717025000e+00   4.920545336239534e+00   1.346105315200000e+01  6.69425880e-01  -5.80538930e-01  -4.36620270e-01
C     6.157681504275001e+00   5.193355961922329e+00   3.780276400000000e+00  6.22600784e+00  -3.59043902e+00  -1.24866790e+00
C     7.449983858625000e+00   5.727743120320222e+00   3.653245872000000e+00  9.64534100e-01   6.03242719e+00   1.08103629e+00
C     7.464510966375000e+00   4.243259331785675e+00   1.357849581600000e+01 -3.95460300e-02  -1.90128063e+00  -2.85607211e+00
C     8.695274866875000e+00   4.876880209553953e+00   1.305343748800000e+01 -3.24479177e+00   1.75329673e+00   2.54392370e+00
C     8.693536339350000e+00   5.065160331274243e+00   3.721440488000000e+00 -2.63476350e-01  -3.01681150e-01  -1.12061885e+00
C     9.861944416649999e+00   5.831426710179470e+00   3.751530488000000e+00  2.08604739e+00   8.13189000e-01   1.38246865e+00
C     8.479247505000000e-02   8.548108795666440e-02   7.310412624000000e+00 -4.74098241e+00   2.56012320e-01  -6.99129490e-01
C     1.243328708025000e+00   7.087961699340523e-01   6.968452728000001e+00  1.67240911e+00   4.05564616e+00  -1.12755154e+00
C     1.189055471925000e+00   5.819339698149979e-01   1.015038679200000e+01 -3.34759172e+00   3.93134090e-01   8.17856600e-01
C     2.348644494075000e+00   1.320884908095753e+00   1.020347520800000e+01  3.30657401e+00   2.26755490e-01   3.90268540e-01
C     2.422753856325000e+00   3.195116267643301e-02   6.686989712000000e+00  3.39105249e+00   1.75367148e+00   5.66609010e-01
C     3.639054726750000e+00   8.674212475484556e-01   6.589909784000000e+00  1.29120660e+00  -1.43512801e+00   5.77141530e-01
C     3.628807771050000e+00   6.917390055071496e-01   1.058918752800000e+01  9.57872280e-01  -2.91046015e+00  -3.82436481e+00
C     4.904253814500000e+00   1.348651656771619e+00   1.024739817600000e+01 -3.59814465e+00  -1.94043721e+00   2.24919502e+00
C     4.875041382975000e+00   9.430455422327941e-02   6.830597688000000e+00 -7.82290070e-01  -7.13101700e-02   1.04411086e+00
C     6.062048698725000e+00   7.456668913708014e-01   7.206072608000000e+00  3.87836917e+00   1.92655052e+00  -1.57268548e+00
C     6.082544680724999e+00   5.504628062651719e-01   1.042371388000000e+01 -7.82166500e-01   5.71226040e-01  -1.59481560e+00
C     7.254366992550000e+00   1.233456989792227e+00   1.016147650400000e+01  3.91033431e+00   1.22502048e+00  -3.78116500e-02
C     1.313236046400000e+00   2.216176781382564e+00   6.808875631999999e+00 -9.31966780e-01  -1.87339483e+00   4.51115660e-01
C     2.474879695350000e+00   3.050559999653166e+00   6.549709408000000e+00  1.58541265e+00  -1.63834231e+00   2.70997953e+00
C     2.377769516700000e+00   2.726301536963004e+00   1.000062019200000e+01 -1.99794650e-01   1.23460692e+00   4.32040140e-01
C     3.663465252000000e+00   3.428976325106732e+00   9.904066719999999e+00 -4.50876859e+00   1.68286564e+00   1.71036220e+00
C     3.755653059825000e+00   2.323561776114579e+00   6.542104696000000e+00 -5.60202243e+00  -3.93580340e+00   7.71810500e-02
C     4.932008802450000e+00   2.883382099709311e+00   6.680412480000000e+00  5.68765894e+00   4.02608821e+00   1.71222359e+00
C     4.791868967550000e+00   2.745000176722003e+00   1.009970720800000e+01  5.54845499e+00  -7.49069510e-01  -1.37537400e-01
C     6.057851333700000e+00   3.454249191729336e+00   1.022953593600000e+01  6.98438950e-01  -9.77215000e-02  -3.62353490e-01
C     6.191127166574999e+00   2.177457470914526e+00   6.976236280000000e+00 -2.33797598e+00  -2.32780271e+00   1.24838250e-01
C     7.445510771024999e+00   2.786533518093726e+00   7.010577096000000e+00  4.54726090e-01   4.34976442e+00  -1.32922526e+00
C     7.307908012724999e+00   2.667196577130486e+00   1.014139107200000e+01 -1.98857085e+00   1.54510425e+00   8.39672020e-01
C     8.509811557650000e+00   3.437817274997305e+00   1.017998828000000e+01  1.10363190e+00  -2.80792913e+00  -1.15311035e+00
C     9.933096666299999e+00   4.401984956248479e+00   7.011860392000001e+00 -1.94238568e+00   2.80434300e-01  -1.31639397e+00
C     3.765653503199999e+00   5.116768018557796e+00   7.200165992000000e+00  1.69895951e+00  -3.68021639e+00  -2.38060546e+00
C     3.675774266475000e+00   4.863513882974347e+00   1.012361764000000e+01 -2.18557146e+00   2.91588190e-01   4.94086990e-01
C     4.900406454824999e+00   5.596173790674067e+00   1.024282735200000e+01 -1.21637476e+00  -2.86701520e-01  -3.27338310e-01
C     5.033835253274999e+00   4.338755654354121e+00   6.816241392000000e+00 -1.69423084e+00   8.58510500e-01   1.27271649e+00
C     6.306497966624999e+00   5.049784668791062e+00   6.780412055999999e+00 -3.89165666e+00  -1.95169660e+00   2.85459110e-01
C     6.093863541675000e+00   4.910845959625406e+00   1.037272557600000e+01  2.01553573e+00  -3.15314261e+00  -2.76053930e-01
C     7.390303953149999e+00   5.495189723587965e+00   1.057497240000000e+01 -5.72687984e+00   5.82669154e+00  -6.50762440e-01
C     7.468442000474999e+00   4.276220381884051e+00   6.859094992000000e+00 -1.41047950e-01  -5.54662580e-01   9.83309500e-02
C     8.612501078925000e+00   5.058358433043717e+00   6.926549359999999e+00  2.19333813e+00   4.40593000e-03   2.27644860e-01
C     8.496820132574999e+00   4.799402906900402e+00   1.041927606400000e+01  4.92749140e+00   4.95664190e-01  -7.45038760e-01
C     9.773171656799999e+00   5.545017539527066e+00   1.041033950400000e+01  1.08091663e+00  -1.61243037e+00  -1.53357290e+00
