72
Lattice="7.395 0 0 3.6975 6.40425786098592 0 0 0 13.6 " PBC="1 1 1" Properties=species:S:1:pos:R:3:force:R:3 Energy="-569.13330705"
C     3.779371930725000e+00   6.343541332719592e+00   1.340537856000000e+01 -1.66329911e+00   2.86018708e+00   7.10040160e-01
C     1.257642950700000e+00   7.705204712313108e-01   1.347563548000000e+01  4.20235020e-01  -2.13142856e+00  -3.08738620e-01
C     1.360538089950000e+00   6.970385288862996e-01   3.463223952000000e+00 -4.83955050e+00   3.56297133e+00  -7.81385230e-01
C     2.455172796825000e+00   1.565790261005170e+00   3.452229032000000e+00 -1.65842300e-02  -7.41693980e-01  -8.40807610e-01
C     2.493993071175000e+00   2.158446239329380e-02   1.350172871200000e+01 -2.06328119e+00  -2.01595911e+00   2.16500590e-01
C     3.670200765900000e+00   6.792956605703269e-01   1.333979120000000e+01  3.28882863e+00   2.86102116e+00   7.84726510e-01
C     3.589050587175000e+00   7.374734119498747e-01   3.427890200000000e+00  4.47174666e+00   3.12832190e-01   5.79914920e-01
C     4.949336063924999e+00   1.412964174840418e+00   3.491086816000000e+00 -3.34883302e+00  -5.96295600e-02  -1.20446650e-01
C     8.640242755875001e+00   6.390398597692911e+00   1.348790716800000e+01 -1.01024612e+00  -7.44569570e-01  -5.50817160e-01
C     6.241914251774999e+00   7.247665958446914e-01   1.355456430400000e+01 -1.61524371e+00  -6.88814470e+00  -1.04554508e+00
C     6.147672704549999e+00   7.399661412367224e-01   3.492483128000000e+00 -3.43607180e-01  -9.40664630e-01   1.53383460e-01
C     7.342119501225000e+00   1.358266048883944e+00   3.388891792000000e+00  5.52746172e+00   4.75995691e+00   1.86784810e-01
C     8.612730693674999e+00   2.209182243075608e+00   1.346317475200000e+01  2.40913462e+00  -3.42275234e+00  -4.18656960e-01
C     2.437897263375000e+00   2.933058070694552e+00   1.334094420800000e+01  1.73056284e+00  -4.29555010e+00  -3.03891180e-01
C     2.418037621125000e+00   3.068720873879661e+00   3.367893800000000e+00  7.55300541e+00  -7.93504297e+00   1.04031800e+00
C     3.761731010325000e+00   3.549474678232884e+00   3.555794936000000e+00 -2.38630101e+00   4.40547725e+00  -9.09221680e-01
C     3.689891173575000e+00   2.198840007057494e+00   1.325209880800000e+01 -6.62348000e-03  -2.25087318e+00   2.57850714e+00
C     4.911157120950000e+00   2.859893715496818e+00   6.636596000000000e-02  3.47047670e-01  -4.12523712e+00  -1.53980659e+00
C     4.972295209500000e+00   2.810050657424010e+00   3.582132832000000e+00 -3.71303499e+00  -7.30222550e-01  -3.83710600e-01
C     6.080574689700000e+00   3.562973636992770e+00   3.558440000000000e+00  6.56297485e+00  -1.87515804e+00  -1.26077413e+00
C     6.229691019300000e+00   2.024163681798258e+00   1.075942240000000e-01 -4.02242330e+00   4.36484306e+00  -1.29562490e-01
C     7.383921328650001e+00   2.725361776164628e+00   1.358637647200000e+01 -9.40385120e-01   3.63263002e+00   6.21644920e-01
C     7.387808140649999e+00   2.888465031087636e+00   3.342778952000000e+00 -1.00478559e+00  -2.48410177e+00   8.59440840e-01
C     8.658833674949999e+00   3.635889186772643e+00   3.312228728000000e+00 -5.91180507e+00   1.03051288e+00   9.55320500e-01
C     2.529803543550000e+00   4.263258740358618e+00   1.334053865600000e+01 -6.86892415e+00   2.07239283e+00   2.72081120e-01
C     3.683990961900000e+00   4.915953163141021e+00   1.332732190400000e+01  3.42083533e+00   2.90639988e+00   1.46659945e+00
C     3.792790010325000e+00   5.069246055661187e+00   3.512237536000000e+00 -9.69993330e-01  -1.72748534e+00   4.16160290e-01
C     5.071416310500000e+00   5.738090799957517e+00   3.435824848000000e+00 -3.02925183e+00  -1.80140772e+00   6.23829620e-01
C     4.863797211525000e+00   4.218930324686478e+00   6.101327199999999e-02  1.94224053e+00   2.44675813e+00  -6.74921910e-01
C     6.116979054525000e+00   4.961931827978526e+00   1.071144160000000e-01  2.57188800e-02  -4.00782160e-01  -7.53571170e-01
C     6.193670898675000e+00   4.916326467331680e+00   3.468969136000000e+00 -1.17111884e+00   2.58240590e+00   4.69952800e-02
C     7.336166748075000e+00   5.665480925405301e+00   3.458981432000000e+00  3.75267291e+00   1.49613839e+00   6.10529100e-01
C     7.270742221725000e+00   4.121560500523667e+00   2.679186400000000e-02  3.05461245e+00   5.23411660e+00  -7.44861410e-01
C     8.550698771474998e+00   4.942991875783362e+00   1.343244718400000e+01  1.55706723e+00  -8.17225200e-02   8.85368970e-01
C     8.664885225299999e+00   4.977444541579911e+00   3.582483032000000e+00 -1.30873039e+00   4.59414321e+00  -1.36807455e+00
C     9.896403748574999e+00   5.773055678297708e+00   3.592370776000000e+00  1.82926500e-01  -4.47173103e+00  -4.81669350e-01
C     4.461577282500000e-02   3.396824773201860e-02   7.087156383999999e+00 -8.14907140e-01  -2.50166000e+00  -3.26824360e-01
C     1.210763642325000e+00   7.159061770102242e-01   6.926468032000000e+00  3.19256885e+00   1.72329973e+00  -1.02438771e+00
C     1.089215355075000e+00   6.481215905426262e-01   1.020760008800000e+01  1.17581258e+01  -2.33028479e+00   1.13295660e-01
C     2.479417193400000e+00   1.421829781123752e+00   1.014003651200000e+01 -1.36759926e+00  -2.77090179e+00   1.20602589e+00
C     2.494509057300000e+00   1.937108683429920e-02   6.643313856000000e+00 -1.31107035e+00   7.28103000e-01   1.04015448e+00
C     3.833662360200000e+00   6.560351398524924e-01   6.490015880000001e+00 -2.30499131e+00  -1.82759390e-01   1.78336851e+00
C     3.743230827900000e+00   6.735797323451196e-01   1.039137784000000e+01 -5.56342384e+00  -1.35815799e+00  -9.83138810e-01
C     4.878760994025000e+00   1.397047544695803e+00   1.030390128000000e+01  3.13763818e+00  -8.62545110e-01   2.22031040e-01
C     8.719603381574998e+00   6.403438947547442e+00   6.874750767999999e+00  1.38871579e+00   1.77795450e-01  -8.25046900e-02
C     6.292499749275000e+00   8.117247618341863e-01   7.091106367999999e+00 -4.81445224e+00  -2.31843151e+00  -1.85327262e+00
C     6.135463633500000e+00   7.354301334796417e-01   1.030837894400000e+01  1.28517160e+00   4.36131160e-01  -4.00685950e-01
C     7.461541245299999e+00   1.338099233010540e+00   1.018226723200000e+01 -1.00415310e+01   8.37230521e+00  -5.76625890e-01
C     8.610766729574999e+00   2.161650737834788e+00   6.913932640000000e+00 -1.55621930e-01   1.34402107e+00  -1.80685219e+00
C     2.498502246375000e+00   2.781168671284404e+00   6.662457760000000e+00 -1.82713262e+00  -5.44828380e-01   9.46096320e-01
C     2.466689363100000e+00   2.827570017140669e+00   1.007466512000000e+01 -1.04844858e+00  -1.61234092e+00   5.17256060e-01
C     3.687675150900000e+00   3.423676033216640e+00   1.004596830400000e+01  1.19303751e+00   4.90351603e+00   2.93365260e-01
C     3.757335792075000e+00   2.060757931423191e+00   6.484906768000000e+00 -7.38450550e-01   1.76220277e+00   1.35761893e+00
C     4.924801598475000e+00   2.812981822203954e+00   6.693140855999999e+00 -1.89942749e+00   2.28834038e+00   2.41365690e-01
C     4.912272028125000e+00   2.741581007493128e+00   1.014781163200000e+01 -3.15425770e-01   3.61280853e+00  -7.35956130e-01
C     6.131604959474999e+00   3.532942983163394e+00   1.011015581600000e+01  1.45071912e+00  -1.52862237e+00   5.19223280e-01
C     6.121559221725000e+00   2.168442581380476e+00   6.830070960000000e+00  4.26188097e+00   2.79150447e+00   6.02785010e-01
C     7.370487756524999e+00   3.084579481448065e+00   6.812472423999999e+00  3.70614910e-01  -9.65799341e+00   9.98787910e-01
C     7.435658153699999e+00   2.906595997429925e+00   1.006969105600000e+01 -4.85926160e-01  -2.67180927e+00   1.40945268e+00
C     8.663460578550000e+00   3.611433119197504e+00   1.022605460800000e+01 -1.06658799e+00  -2.45802913e+00  -9.90935310e-01
C     9.774187581899998e+00   4.176479381248575e+00   6.884282055999999e+00  6.03411108e+00   2.14720040e-01  -4.50544400e-01
C     3.655671957300000e+00   4.947652830611291e+00   6.956772096000000e+00 -3.39265855e+00   2.67330224e+00   4.17056220e-01
C     3.661976194800000e+00   4.963608654814009e+00   1.004642268000000e+01 -1.35925102e+00  -1.05893380e+00   1.51670341e+00
C     4.840437109050000e+00   5.658306811707951e+00   1.023394832000000e+01  2.06794386e+00  -1.76212086e+00  -5.43086330e-01
C     4.816023108150000e+00   4.327854774922880e+00   6.888353624000001e+00  4.85644699e+00  -3.72600087e+00  -1.26533535e+00
C     6.060072754725000e+00   5.058762157459211e+00   6.797255111999999e+00  2.75718315e+00  -7.21506770e-01  -6.11268910e-01
C     6.148528380000000e+00   4.915812653723572e+00   1.028356574400000e+01 -2.16079939e+00   1.39422764e+00   1.63371300e-02
C     7.365061860149999e+00   5.576492801801923e+00   1.049678722400000e+01  4.80726200e-01   3.34832797e+00  -1.05391663e+00
C     7.414802257049999e+00   4.394102211418921e+00   6.740046440000000e+00 -3.52082454e+00   1.17722003e+00   4.81206690e-01
C     8.676967619999999e+00   4.927928356828278e+00   6.895035303999999e+00 -2.20967679e+00   4.79979721e+00  -2.65296030e-01
C     8.631256832550001e+00   4.974649339194335e+00   1.043556451200000e+01 -6.17545030e-01   9.28350480e-01  -9.57309170e-01
C     9.785248468275000e+00   5.787492028280563e+00   1.026153741600000e+01  2.64316233e+00  -4.61437927e+00  -1.44861130e-01
