72
Lattice="7.395 0 0 3.6975 6.40425786098592 0 0 0 13.6 " PBC="1 1 1" Properties=species:S:1:pos:R:3:force:R:3 Energy="-567.17987256"
C     1.097500746352500e+01   6.360398236003212e+00   1.316794160000000e+01  3.40044808e+00  -2.06288218e+00  -2.40571400e-02
C     1.223786126400000e+00   5.705404748691648e-01   1.306945284800000e+01 -2.30018395e+00   1.64731686e+00   4.38603260e-01
C     1.257046322100000e+00   7.869951684058464e-01   3.473874248000000e+00  7.11108930e-01   1.46919826e+00   5.38019280e-01
C     2.505653285325000e+00   1.491903697648564e+00   3.404842008000000e+00  2.96049122e+00  -2.89591121e+00   1.37791929e+00
C     6.216072350325000e+00   6.282131416440681e+00   1.315729606400000e+01 -5.26437228e+00   4.99590250e-01   9.94229460e-01
C     3.657053602125000e+00   5.744886357972763e-01   1.324096544000000e+01  1.02657987e+00   3.23405638e+00  -1.63223236e+00
C     3.871136781525000e+00   9.106825857759631e-01   3.702073680000000e+00 -4.87365530e+00  -4.68460213e+00  -1.21281251e+00
C     5.087769835350000e+00   1.596208756690548e+00   3.823875960000000e+00 -4.20198185e+00   6.88503930e-01  -1.11254854e+00
C     8.548453279724999e+00   6.356182825394603e+00   1.310860833600000e+01  4.39039138e+00  -1.79323565e+00   1.63371782e+00
C     6.081476842724999e+00   6.841005831149490e-01   1.326184144000000e+01  7.54080520e-01   1.11273590e-01  -1.61802790e-01
C     6.181991790300000e+00   8.589613510005528e-01   3.817421536000000e+00  5.54470267e+00  -2.35396612e+00  -1.45444338e+00
C     7.447157896349999e+00   1.560631183000890e+00   3.536112744000000e+00 -1.50087997e+00  -3.06769530e-01   9.50068820e-01
C     8.544410950874999e+00   2.037699913338890e+00   1.300292192000000e+01  3.14181791e+00  -4.30144150e-01   1.33179472e+00
C     2.487108252225000e+00   2.711120307748453e+00   1.280995396800000e+01 -2.31709358e+00   1.08925300e+00   1.18796396e+00
C     2.528914035975000e+00   2.829470864916096e+00   3.529129416000000e+00 -2.98189840e-01   4.95944755e+00   2.36965900e-01
C     3.624166373250000e+00   3.634820316135809e+00   3.795730895999999e+00  6.84814505e+00   6.40003360e-01  -6.60290680e-01
C     3.682635532350000e+00   1.998173794465649e+00   1.296003037600000e+01  1.19969212e+00   1.28538500e+00   3.22190914e+00
C     4.870403682675000e+00   2.770824513988932e+00   1.343520662400000e+01  5.89690470e-01   9.93103370e-01  -2.02726334e+00
C     5.037416319000000e+00   2.957328350749172e+00   3.700167504000000e+00 -1.06231632e+00   5.02535216e+00   7.69744840e-01
C     6.287265938025000e+00   3.811446097487629e+00   3.657641800000000e+00 -3.70244452e+00  -5.31844809e+00   3.16260170e-01
C     6.160640095874999e+00   2.082973277258274e+00   1.352997468800000e+01 -1.07904468e+00   4.19221340e-01  -3.70467340e-01
C     7.444560402599999e+00   2.768323331081708e+00   1.353181123200000e+01 -1.34340952e+00   1.43127464e+00  -1.24416757e+00
C     7.442095464225000e+00   3.010996736084337e+00   3.530928424000000e+00  3.35220622e+00   3.45650490e-01  -1.33904890e-01
C     8.832949504575000e+00   3.678642026926066e+00   3.525240632000000e+00 -6.74182012e+00  -1.61252881e+00   1.96669420e-01
C     2.516022887100000e+00   4.164928149431650e+00   1.285191826400000e+01 -2.60676478e+00  -2.00932310e+00   1.36284208e+00
C     3.646941900975000e+00   4.858231651091419e+00   1.310008848000000e+01  1.69825711e+00   4.24389795e+00   1.84631060e-01
C     3.687229306350000e+00   5.114976107208568e+00   3.919940920000000e+00  3.76533160e-01  -1.52056309e+00  -1.82819450e+00
C     4.992482783025000e+00   5.831487358501406e+00   3.776536808000000e+00 -5.01861280e+00   1.44307660e-01  -9.78872400e-02
C     4.877681250075000e+00   4.270656490740440e+00   1.333513469600000e+01  1.81123251e+00  -3.72112613e+00   1.07028453e+00
C     6.171217127400000e+00   4.943644149446403e+00   1.349124256800000e+01 -1.61096960e-01  -1.37774572e+00  -5.46795830e-01
C     6.159266807400000e+00   5.177898453023697e+00   3.767790783999999e+00  4.58737331e+00  -1.31662732e+00  -1.08703048e+00
C     7.453236771224999e+00   5.731377792826086e+00   3.662763968000000e+00  4.88209500e-01   5.70908925e+00   7.32549830e-01
C     7.449757793475000e+00   4.297203548506870e+00   1.358689232000000e+01  1.08665934e+00  -3.60340882e+00  -2.48231246e+00
C     8.710159818675001e+00   4.915398746538080e+00   1.307197184000000e+01 -3.83050596e+00   1.48690670e-01   2.06960867e+00
C     8.693415431100000e+00   5.072793310047262e+00   3.696414584000000e+00 -5.39525100e-01  -1.46891638e+00  -7.94051470e-01
C     9.843169436024999e+00   5.806928438545034e+00   3.753079664000000e+00  3.16892064e+00   2.46053934e+00   1.34761640e+00
C     8.676069127500000e-02   1.079899409294706e-01   7.353409839999999e+00 -4.95202948e+00  -1.64009907e+00  -9.46012600e-01
C     1.227206609700000e+00   7.103792384344656e-01   6.981470512000000e+00  3.30157539e+00   3.69690082e+00  -1.75346398e+00
C     1.155260358900000e+00   5.851492274736109e-01   1.014600732000000e+01 -3.09827310e-01   1.76975020e-01   8.95771010e-01
C     2.362963654425000e+00   1.330964697626764e+00   1.021715762400000e+01  1.81771651e+00  -7.35084800e-01   1.64230790e-01
C     2.426594856300000e+00   2.547357606393600e-02   6.670240088000000e+00  2.32737732e+00   2.44389149e+00   7.09846820e-01
C     3.624023058150000e+00   8.734593099440209e-01   6.559753416000000e+00  1.63500886e+00  -1.58203387e+00   6.93151080e-01
C     3.628586327775000e+00   7.065093375374034e-01   1.060449188000000e+01  9.04059750e-01  -3.01120787e+00  -3.60127758e+00
C     4.901758297800000e+00   1.374821888005566e+00   1.027809854400000e+01 -3.24261728e+00  -2.67372053e+00   1.89974056e+00
C     4.847194697025000e+00   1.107907790619630e-01   6.824885144000000e+00  2.84012750e-01  -8.02417950e-01   1.25668854e+00
C     6.070282550550000e+00   7.489245452164477e-01   7.215643471999999e+00  2.60797259e+00   1.52588908e+00  -1.58986232e+00
C     6.082709034600000e+00   5.360511126750780e-01   1.043179064800000e+01 -3.15577860e-01   1.79131428e+00  -1.77640835e+00
C     7.281664562774999e+00   1.217203687811912e+00   1.013570464000000e+01  1.51019320e+00   2.38854733e+00   5.39149940e-01
C     1.333642105200000e+00   2.192074997352240e+00   6.783771256000000e+00 -2.14832611e+00  -9.27023850e-01   1.02775251e+00
C     2.473849719750000e+00   3.046133888960963e+00   6.541567632000000e+00  1.69212624e+00  -9.89340810e-01   2.51107859e+00
C     2.389462601625000e+00   2.710384714690653e+00   9.993879351999999e+00 -5.45105310e-01   2.26042536e+00   3.26071980e-01
C     3.662704491375000e+00   3.430735126442825e+00   9.883694328000001e+00 -5.04052780e+00   2.41268059e+00   1.72304825e+00
C     3.751677285975000e+00   2.323653613172291e+00   6.502650008000000e+00 -5.65762717e+00  -3.80916300e+00   2.69776550e-01
C     4.932362431350000e+00   2.854912996073939e+00   6.656345648000000e+00  5.71275691e+00   5.39457162e+00   1.93413064e+00
C     4.776662924849999e+00   2.766353893704601e+00   1.007035405600000e+01  7.08325955e+00  -1.62968565e+00   3.96497840e-01
C     6.059182248825000e+00   3.481317876298463e+00   1.021751163200000e+01  7.60122720e-01  -1.01991234e+00  -2.54132320e-01
C     6.174555637125000e+00   2.174040799346216e+00   6.988791528000000e+00 -1.16578139e+00  -2.25592533e+00  -1.63555900e-02
C     7.457105095724999e+00   2.781940128186219e+00   7.024104879999999e+00  1.73228550e-01   3.33927838e+00  -1.56818162e+00
C     7.317478288949999e+00   2.702883471501814e+00   1.015199784800000e+01 -2.68692188e+00  -3.39547510e-01   3.50090220e-01
C     8.506428936750000e+00   3.441549420307799e+00   1.016798628000000e+01  1.71102713e+00  -3.01326128e+00  -9.88205930e-01
C     9.924057314100001e+00   4.417823966787832e+00   7.008498879999999e+00 -1.04999707e+00  -5.41502390e-01  -1.21311073e+00
C     3.803949878775000e+00   5.099137288796951e+00   7.226580320000000e+00  6.79890200e-02  -2.04384218e+00  -2.43713829e+00
C     3.717047573250000e+00   4.875801284232279e+00   1.012382830400000e+01 -3.85354810e+00  -5.17199610e-01   2.85339660e-01
C     4.921196388075000e+00   5.587731441792700e+00   1.022984615200000e+01 -1.85512987e+00   9.06321080e-01  -1.15411080e-01
C     5.037194653875000e+00   4.361546999141132e+00   6.811523552000000e+00 -1.71510697e+00  -5.21517270e-01   1.15240949e+00
C     6.303447344249999e+00   5.061079666251008e+00   6.756511143999999e+00 -2.76157562e+00  -3.34702521e+00   6.23097950e-01
C     6.105179444625000e+00   4.911914830262241e+00   1.038997364000000e+01  1.29954091e+00  -3.07713361e+00  -5.65155840e-01
C     7.356288543074999e+00   5.489332965732416e+00   1.060909344000000e+01 -2.50975666e+00   5.47824457e+00  -8.61431210e-01
C     7.480758779699999e+00   4.230745347884656e+00   6.862945015999999e+00 -1.30063239e+00   1.32708936e+00  -1.61953310e-01
C     8.595271394474999e+00   5.046869450613190e+00   6.929772288000000e+00  2.66806011e+00   7.82719840e-01   1.89150170e-01
C     8.488546717500000e+00   4.780633243921735e+00   1.043447991200000e+01  4.17626849e+00   2.24316819e+00  -4.49133800e-01
C     9.778692135225000e+00   5.542141707535033e+00   1.042882163200000e+01  1.02540558e+00  -1.76153737e+00  -1.72766981e+00
