72
Lattice="7.395 0 0 3.6975 6.40425786098592 0 0 0 13.6 " PBC="1 1 1" Properties=species:S:1:pos:R:3:force:R:3 Energy="-567.80952735"
C     3.751307942700000e+00   6.030870029732949e+00   2.273541920000000e-01 -2.07246070e+00   6.53549252e+00  -6.48288930e-01
C     1.218281103525000e+00   4.990699177902438e-01   7.227896800000000e-02  1.71494810e-01  -1.33848878e+00   1.13405186e+00
C     1.552010613150000e+00   1.075783648938399e+00   3.284725040000000e+00 -3.36054536e+00   8.89526710e-01   7.58822420e-01
C     2.693151735525000e+00   1.977615806522156e+00   3.076379296000000e+00 -1.50111418e+00  -5.06676319e+00   6.71491940e-01
C     6.146863654575000e+00   6.159525229925068e+00   2.890595680000000e-01 -1.35753576e+00  -1.79171800e-01  -4.04225370e-01
C     3.618431772600000e+00   5.275109067336109e-01   2.928863360000000e-01  3.61367507e+00  -9.82237470e-01  -9.74295330e-01
C     3.835472434350000e+00   1.116192979013112e+00   3.238797160000000e+00  2.60136247e+00   1.35961340e-01   1.64465090e+00
C     5.066177211825000e+00   1.774281387978099e+00   3.536588064000000e+00  1.55203863e+00   9.53827780e-01  -1.82477062e+00
C     8.648367457499999e+00   6.229482588956827e+00   4.225118800000000e-01 -3.32630821e+00  -2.88733898e+00  -1.01858715e+00
C     6.167762220374999e+00   4.882588900967779e-01   3.749862720000000e-01  1.19093134e+00  -2.40076674e+00  -6.59758660e-01
C     6.352224209625000e+00   1.107005110474263e+00   3.664912904000000e+00 -3.43935740e-01   1.50813005e+00  -7.86942050e-01
C     7.597307862074999e+00   1.730874096713962e+00   3.411932232000000e+00  3.12410987e+00   3.51816972e+00  -6.41557400e-01
C     1.160069771100000e+00   2.004726118767372e+00   2.585985600000000e-02  3.51610403e+00  -5.39075619e+00  -9.01099860e-01
C     2.409422113350000e+00   2.681346848914734e+00   1.350089788800000e+01  1.17650703e+00  -3.77251550e+00   5.26434740e-01
C     2.641798637025000e+00   3.366891079836484e+00   3.105314248000000e+00  3.56746940e+00  -1.59362394e+00   1.77351311e+00
C     3.969974764949999e+00   3.901165971594091e+00   3.540209608000000e+00 -3.97509561e+00   4.66906678e+00  -1.66826332e+00
C     3.716055866774999e+00   1.912642561169941e+00   1.354812225600000e+01 -2.95172427e+00  -2.24732000e-01   2.54516754e+00
C     4.894569655275000e+00   2.581728938115327e+00   3.676622640000000e-01  7.58766450e-01  -3.11835120e-01  -1.68465647e+00
C     5.160820973100000e+00   3.239200617048396e+00   3.409399640000000e+00 -2.15572719e+00  -4.30487915e+00   1.51754702e+00
C     6.332168378024999e+00   3.881228940492704e+00   3.495842736000000e+00  5.55826673e+00   2.14321960e+00  -2.97729750e-01
C     6.145659637650001e+00   1.888147363579277e+00   4.166811520000000e-01 -8.72673790e-01  -1.50666672e+00  -7.88282990e-01
C     7.352497126574999e+00   2.571045995579061e+00   2.235796480000000e-01 -1.64626488e+00  -1.09240446e+00   1.42072425e+00
C     7.643232180149999e+00   3.285954901555326e+00   3.305127352000000e+00 -3.80438664e+00  -4.81445728e+00   3.90747480e-01
C     8.799398315625000e+00   4.020583157908317e+00   3.165519000000000e+00  2.02841115e+00  -1.96002625e+00   1.52406464e+00
C     2.457836438849999e+00   4.011630837973559e+00   8.951479200000000e-02 -2.24788321e+00   3.25193095e+00  -3.93340120e-01
C     3.705158151075000e+00   4.678509731277182e+00   8.930127200000000e-02 -2.68910680e-01  -2.02858500e-02   1.06832574e+00
C     4.007995602825000e+00   5.396350570544334e+00   3.733326344000000e+00 -1.32560061e+00  -8.96691950e-01  -1.01721618e+00
C     5.276153356125000e+00   6.016870770349040e+00   3.585314144000000e+00 -3.00020726e+00   3.84879261e+00  -7.86668100e-01
C     4.907686758375000e+00   3.992451558662167e+00   3.301820240000000e-01 -8.46306330e-01  -4.28995400e-01  -6.20307850e-01
C     6.069818144550000e+00   4.691645824786721e+00   4.919062880000000e-01  3.37580795e+00   6.20234310e-01   2.77914980e-01
C     6.426554756325000e+00   5.306386374000512e+00   3.523008192000000e+00 -5.52430900e-02  -1.21691911e+00  -7.56571530e-01
C     7.583016063224999e+00   6.047268708366686e+00   3.380832160000000e+00  2.43515024e+00   7.66313600e-01   1.05627923e+00
C     7.316303778074999e+00   3.821280988198074e+00   6.385070800000000e-01  1.33246165e+00   1.04470207e+01  -3.45719567e+00
C     8.573946322050000e+00   4.721211593538040e+00   2.512968560000000e-01  3.13313380e-01  -4.45592800e-02   2.40361886e+00
C     8.874404691374998e+00   5.293068975950956e+00   3.577198616000000e+00 -6.40076600e-01   7.70539699e+00  -6.83522830e-01
C     1.013377319137500e+01   6.168367588752369e+00   3.760982896000000e+00 -7.74362080e-01  -6.72629464e+00  -1.25988874e+00
C     7.355938278899999e+00   2.040456754219884e-01   6.435419768000000e+00  1.01473634e+00  -5.37331930e-01   1.18347377e+00
C     1.164175807875000e+00   9.586313924589402e-01   6.408365152000000e+00  2.96763030e-01   1.08979625e+00   1.58832970e-01
C     1.066264344000000e+00   3.394679346818760e-01   1.033826453600000e+01  2.56736635e+00   6.45465350e-01  -7.31608390e-01
C     2.242288716675000e+00   1.002729575061014e+00   9.874000384000000e+00  2.60829887e+00   1.50600751e+00   1.44347910e+00
C     2.393122054350000e+00   3.164715255581880e-01   6.602512496000000e+00  1.56274500e+00  -3.83968278e+00   8.03426480e-01
C     3.738689891175000e+00   9.059440753853490e-01   6.631763103999999e+00 -1.63681715e+00  -4.30007830e-01  -3.30538260e-01
C     3.559776481350000e+00   2.997115827385680e-01   9.879218295999999e+00 -1.47660889e+00   9.74789310e-01   5.62503280e-01
C     4.816837889250000e+00   1.020117583448964e+00   1.003234396000000e+01 -9.25276890e-01  -1.18691955e+00   1.19164241e+00
C     5.014978779750000e+00   1.740025332897852e-01   6.709136496000000e+00 -1.06700315e+00   3.19589154e+00  -4.54500590e-01
C     6.240080698500000e+00   9.775878035968044e-01   6.610302984000000e+00 -3.61813667e+00  -3.74726230e-01  -6.64981770e-01
C     6.019469065199999e+00   3.822454312280604e-01   1.038591118400000e+01  7.61653180e-01  -6.77354790e-01  -1.15459190e-01
C     7.315879157174999e+00   1.023800736186829e+00   1.059210908000000e+01 -4.25519295e+00   2.64162204e+00  -1.98419653e+00
C     8.509521303900000e+00   2.408394945303547e+00   6.316272072000000e+00  1.22966572e+00   1.50721750e-01  -2.17043330e-01
C     2.407409120400000e+00   3.052186040723820e+00   6.305509712000000e+00 -6.64212390e-01  -2.51256332e+00   1.61969446e+00
C     2.322955669125000e+00   2.525496992401383e+00   9.878123088000001e+00 -1.99594660e-01  -4.86907971e+00   2.85121000e-01
C     3.567903068700000e+00   3.110357323802929e+00   9.949454544000000e+00  4.32155610e-01   3.52314025e+00   1.96771082e+00
C     3.648653991374999e+00   2.295442985384148e+00   6.499503104000000e+00  1.38394739e+00   2.84186437e+00  -9.90968000e-02
C     4.886513135550000e+00   3.128829765174313e+00   6.591335608000000e+00 -1.16757183e+00  -5.51458832e+00  -4.69314820e-01
C     4.772938322174999e+00   2.365979609539346e+00   1.023191104000000e+01 -8.91917980e-01   3.96702072e+00  -1.34653219e+00
C     5.949030654900000e+00   3.135683858106400e+00   1.040866099200000e+01  2.69324860e+00   5.98061670e-01  -7.71387620e-01
C     6.171349350000000e+00   2.407461844933346e+00   6.462462823999999e+00 -1.99553973e+00   1.61272945e+00   1.17798148e+00
C     7.301918580374999e+00   3.233559938853044e+00   6.324351560000000e+00  1.94849642e+00  -2.18575333e+00   1.14681911e+00
C     7.243395141974999e+00   2.416834156098562e+00   1.038071394400000e+01  1.65794576e+00   2.85479193e+00   1.41826400e-02
C     8.577256287074999e+00   3.216333253720587e+00   1.013252836000000e+01 -5.19189344e+00   4.01667440e-01   3.04221290e-01
C     9.742258412249999e+00   4.425570300924973e+00   6.496909992000000e+00  4.50393204e+00   4.82026800e-02  -9.09917140e-01
C     3.561615691800000e+00   5.166666025163043e+00   6.500940896000000e+00  6.48901960e-01   1.05959547e+00   8.87824960e-01
C     3.457410676199999e+00   4.585586063133676e+00   1.024513228000000e+01  3.31151193e+00   6.71715030e-01   3.74123330e-01
C     4.719996260025000e+00   5.384063489499295e+00   1.043039392800000e+01  1.31111604e+00  -5.95709457e+00  -1.72120972e+00
C     4.745162258475000e+00   4.462616691154823e+00   6.667816160000000e+00  4.55436474e+00   2.68514024e+00  -1.50813870e-01
C     6.066105706649999e+00   5.188022047678470e+00   6.777043064000000e+00 -1.04377601e+00   4.43086684e+00  -1.76988186e+00
C     5.988991386149999e+00   4.591434175241114e+00   1.028680975200000e+01 -4.92216820e-01   7.30647170e-01   1.96105250e-01
C     7.282856267025000e+00   5.313498302354042e+00   1.007360595200000e+01 -3.48979909e+00  -7.13226940e-01   4.76196350e-01
C     7.349953505400000e+00   4.679924367795877e+00   6.543778040000000e+00 -1.73378029e+00  -5.02818623e+00   5.74869600e-02
C     8.658605908949999e+00   5.182988301000510e+00   6.575966112000001e+00 -4.03367907e+00   3.34453703e+00   5.90063570e-01
C     8.501098879575000e+00   4.667636710367631e+00   1.010828853600000e+01 -1.00874690e-01  -2.20251786e+00   4.20446040e-01
C     9.671426329125000e+00   5.403525388710049e+00   1.026514277600000e+01  1.66729603e+00  -2.85761477e+00  -5.98861330e-01
