72
Lattice="7.395 0 0 3.6975 6.40425786098592 0 0 0 13.6 " PBC="1 1 1" Properties=species:S:1:pos:R:3:force:R:3 Energy="-573.57953966"
C     3.705469924275000e+00   6.188244099616980e+00   2.381373600000000e-01  6.96176410e-01  -3.15379805e+00   1.19684852e+00
C     1.211485985925000e+00   5.267302917430554e-01   2.549373040000000e-01  8.32931620e-01  -3.37382716e+00  -5.52551940e-01
C     1.480494492525000e+00   1.163295591105048e+00   3.369112632000000e+00  1.41179077e+00  -2.02178706e+00  -4.15164290e-01
C     2.694775677525000e+00   1.862597000463600e+00   3.224166552000000e+00 -1.47887270e-01   1.22564501e+00   6.36992270e-01
C     6.109149561300001e+00   6.175522233505825e+00   3.088717760000000e-01  2.91976642e+00  -1.02830212e+00  -3.11640990e-01
C     3.747845160000000e+00   4.707463829360292e-01   2.059204560000000e-01 -4.77210158e+00   1.81083450e-01   7.91676150e-01
C     3.857175132450000e+00   1.083830983194960e+00   3.305931520000000e+00  1.21467854e+00   1.69764873e+00  -1.54793920e-01
C     5.088313182975000e+00   1.779129026922648e+00   3.332543456000000e+00  2.35890556e+00   3.52675160e-01   1.00580203e+00
C     8.578838151525000e+00   6.116786158926043e+00   3.660828960000000e-01  2.35855307e+00   1.10534538e+00   5.44532730e-01
C     6.201550825800000e+00   3.977706331322724e-01   4.411365360000000e-01 -3.71241758e+00   1.42377826e+00  -2.35036751e+00
C     6.386528394449999e+00   1.158224507603764e+00   3.489711040000000e+00  1.44929917e+00  -3.08726761e+00  -5.16918070e-01
C     7.696248155325000e+00   1.864466019077462e+00   3.391215216000000e+00 -4.48144543e+00  -5.83942218e+00   3.29992990e-01
C     1.217475677100000e+00   1.878961992700993e+00   1.512132320000000e-01 -1.27770387e+00   2.14561337e+00   5.30984620e-01
C     2.442827029200000e+00   2.603781039417558e+00   1.814751360000000e-01 -1.16748808e+00   1.69283596e+00  -1.98695230e-01
C     2.712709255050000e+00   3.365461457354396e+00   3.231661648000000e+00 -2.65681844e+00  -2.64070295e+00   5.38313430e-01
C     3.931089007875000e+00   4.046850733861736e+00   3.352753192000000e+00  1.59704353e+00  -6.03298466e+00   3.48731900e-02
C     3.664800308325000e+00   1.912968153639543e+00   1.940284800000000e-01  1.23021049e+00  -1.21686459e+00  -2.52489260e-01
C     4.924856654250000e+00   2.563145510955229e+00   2.567013600000000e-01 -1.82538041e+00   8.95605700e-02   3.51483300e-02
C     5.137075073475000e+00   3.167631690568745e+00   3.424980752000000e+00  5.38279390e-01   3.65913105e+00  -3.90160590e-01
C     6.458217188324999e+00   3.863564588378095e+00   3.489895183999999e+00 -5.73636311e+00   1.96831634e+00  -6.73911500e-01
C     6.111503574675000e+00   1.843028918657527e+00   2.424327840000000e-01  1.35302655e+00  -1.69793772e+00   9.47181840e-01
C     7.313789108325000e+00   2.525427314075867e+00   2.019496640000000e-01  2.55249983e+00   2.96895998e+00   7.75313000e-03
C     7.585476749474999e+00   3.153436524936899e+00   3.356294632000000e+00  4.19652711e+00   6.45652831e+00  -1.50947820e-01
C     8.781648799650000e+00   3.990614497295026e+00   3.309259712000000e+00  3.20194704e+00   5.59900770e-01   7.29628430e-01
C     2.357536426949999e+00   4.074483761633485e+00   2.299033760000000e-01  3.16609352e+00  -2.37970967e+00   5.58645850e-01
C     3.706111995150000e+00   4.683775760387724e+00   2.421922000000000e-01 -2.26567796e+00   2.16647044e+00   2.47938580e-01
C     3.960092123925000e+00   5.364305457405095e+00   3.480020904000000e+00  2.24920759e+00   3.72314607e+00  -2.87463400e-02
C     5.188532404500000e+00   6.122945838178369e+00   3.424140272000000e+00  1.36774472e+00  -1.61944907e+00   1.59003780e-01
C     4.909658967900000e+00   3.946438823172846e+00   3.466868480000000e-01  8.34847420e-01   2.12037964e+00  -7.19353360e-01
C     6.170822308349999e+00   4.689836493856114e+00   4.184128400000000e-01 -3.82342642e+00   2.77728086e+00  -1.07251754e+00
C     6.452094609000000e+00   5.319244650804084e+00   3.421062048000000e+00 -1.14769723e+00   1.51132836e+00   1.16872720e-01
C     7.666009741500000e+00   6.121134842140719e+00   3.390848424000000e+00 -2.53468898e+00  -1.57515139e+00   4.61516680e-01
C     7.351106607749999e+00   4.028124876006832e+00   3.122060880000000e-01 -1.40231347e+00  -4.07465228e+00   7.72692800e-02
C     8.497207075950000e+00   4.721694346495527e+00   4.367327200000000e-01  4.20213537e+00   7.23339770e-01  -1.83140008e+00
C     8.882762409449999e+00   5.468879751447512e+00   3.511676536000000e+00  1.50811120e-01  -4.25675966e+00  -1.02266021e+00
C     1.016943032842500e+01   6.027178551459865e+00   3.565992080000000e+00 -3.19369686e+00   5.40320740e+00  -7.81169910e-01
C     7.382741641275000e+00   1.990058446990614e-01   6.317081000000000e+00 -1.90011461e+00   2.52061009e+00   1.34571676e+00
C     1.186585394025000e+00   9.779344660747663e-01   6.367958192000000e+00 -5.31661130e-01  -5.03870670e-01   2.35070440e-01
C     1.112491265475000e+00   3.166131236994726e-01   1.041702322400000e+01 -2.01201278e+00  -4.92345240e-01  -1.20603235e+00
C     2.363624656500000e+00   1.021824702424126e+00   1.008721778400000e+01 -4.23219079e+00  -1.45109017e+00   9.62976750e-01
C     2.428767729150000e+00   2.329509090176268e-01   6.545706655999999e+00 -6.89583280e-01   3.68589208e+00  -3.20652390e-01
C     3.729839555175000e+00   8.781492120174775e-01   6.538634384000000e+00 -1.52668487e+00   2.32074871e+00   2.59826460e-01
C     3.509498911650000e+00   3.125827321004388e-01   9.984540367999999e+00  2.41069009e+00  -2.19528462e+00   8.04712970e-01
C     4.715705015475000e+00   9.814410534234307e-01   1.015712545600000e+01  3.28993370e+00   2.18798095e+00   8.27061270e-01
C     5.001502908225000e+00   2.845227964997418e-01   6.615018648000000e+00 -3.21004227e+00  -2.37209768e+00  -7.05504230e-01
C     6.136834962300000e+00   1.023909032187241e+00   6.463142415999999e+00  3.36151662e+00  -1.01973811e+00  -4.67317120e-01
C     6.058980513224999e+00   3.501155897573334e-01   1.037780939200000e+01 -2.79730990e+00   5.15515110e-01  -1.13997035e+00
C     7.228938471599999e+00   1.114174741191112e+00   1.048673532800000e+01  3.34936358e+00  -2.45279799e+00  -4.15834800e-01
C     8.500117489125000e+00   2.448099742971082e+00   6.309373472000000e+00  1.83564330e+00  -3.66654844e+00   5.34368520e-01
C     2.373688327125000e+00   2.978357051645375e+00   6.422906952000000e+00  2.28475964e+00   3.09063721e+00  -6.58737440e-01
C     2.354924697825000e+00   2.372225041804418e+00   1.008250851200000e+01 -1.52049694e+00   5.41413398e+00   1.20762709e+00
C     3.573922191975000e+00   3.174477329880457e+00   1.023314292800000e+01 -2.14266614e+00  -1.78549092e+00  -4.91456270e-01
C     3.683842359375000e+00   2.323981383089567e+00   6.470817168000000e+00 -2.47857114e+00  -1.56748839e+00   6.28733090e-01
C     4.852773152250000e+00   3.046913671397997e+00   6.580864288000000e+00  1.56156678e+00   3.29562027e+00  -4.90931680e-01
C     4.763989115025000e+00   2.443930827274537e+00   1.029482627200000e+01  1.54872684e+00  -8.61724430e-01  -1.62170910e-01
C     6.067927095149999e+00   3.159685991884422e+00   1.038704052800000e+01 -3.75478302e+00  -1.21128210e-01   2.70350600e-02
C     6.130157388225000e+00   2.439538274893520e+00   6.448727504000000e+00 -5.52067020e-01  -8.39131840e-01   1.39240620e-01
C     7.334231217749999e+00   3.185291751830588e+00   6.290635936000000e+00 -1.85869809e+00   1.07025531e+00   1.43032180e+00
C     7.286431194899999e+00   2.535760904345869e+00   1.042767841600000e+01 -2.36112296e+00  -3.46999683e+00  -2.81330360e-01
C     8.428099063125000e+00   3.166434094348926e+00   1.022004259200000e+01  6.33144295e+00   1.97659742e+00  -2.00793830e-01
C     9.806733642450000e+00   4.406533900606438e+00   6.342589976000000e+00 -2.40907260e+00   1.95231566e+00   1.51525313e+00
C     3.574390702200000e+00   5.186367699788075e+00   6.421077208000000e+00  2.49297591e+00  -6.53615200e-02   3.11762810e-01
C     3.514338236625000e+00   4.588943111061310e+00   1.035971309600000e+01 -5.75052010e-01  -1.81848806e+00  -5.38340430e-01
C     4.708624746675000e+00   5.186665177565672e+00   1.038400990400000e+01  4.00621529e+00   5.72756720e+00   1.01937540e-01
C     4.837671046275000e+00   4.539194707919672e+00   6.603072271999999e+00 -2.28899997e+00  -2.28124554e+00  -4.52304560e-01
C     5.979264372899999e+00   5.297915654256826e+00   6.650394832000000e+00  3.94374442e+00  -2.79038681e+00  -8.06361530e-01
C     5.973293280149999e+00   4.536762306741865e+00   1.031397153600000e+01  1.00381059e+00   1.25973071e+00  -6.61807930e-01
C     7.196215929374999e+00   5.292669862601121e+00   1.008915170400000e+01  7.62475210e-01  -5.36255070e-01   1.14005426e+00
C     7.272877010324999e+00   4.629245874285233e+00   6.460193800000000e+00  1.25118740e+00  -1.58851466e+00   5.89205280e-01
C     8.572725148725000e+00   5.250730683408811e+00   6.497831256000000e+00  9.08383460e-01  -1.25741060e+00  -4.87543500e-01
C     8.475149972475000e+00   4.632588384547524e+00   1.021019836800000e+01 -7.63721600e-02  -5.45667030e-01  -8.81677600e-01
C     9.769893860025000e+00   5.363229029743986e+00   1.024095177600000e+01 -3.22916946e+00  -1.35600298e+00   7.55524230e-01
