72
Lattice="7.395 0 0 3.6975 6.40425786098592 0 0 0 13.6 " PBC="1 1 1" Properties=species:S:1:pos:R:3:force:R:3 Energy="-568.09996443"
C     3.751710452550000e+00   6.031177690280543e+00   2.278949280000000e-01 -1.96397455e+00   6.54697865e+00  -4.25309960e-01
C     1.216850171025000e+00   5.106892909107991e-01   8.927053600000000e-02  1.22583700e-01  -1.68574088e+00   1.00468851e+00
C     1.551621044550000e+00   1.086164182418515e+00   3.292285144000000e+00 -3.20708922e+00   5.52979390e-01   6.62906100e-01
C     2.701402595850000e+00   1.974230964115410e+00   3.089525736000000e+00 -1.99587370e+00  -4.32992785e+00   6.19103160e-01
C     6.139404318075000e+00   6.161433442597033e+00   2.926035920000000e-01 -7.24012720e-01  -3.35035900e-02  -4.17939080e-01
C     3.629719093875000e+00   5.251290991928982e-01   2.852118560000000e-01  3.01896885e+00  -1.04184884e+00  -8.27533570e-01
C     3.826879629225000e+00   1.104459802230385e+00   3.242392592000000e+00  2.99088181e+00   8.32056840e-01   1.48376141e+00
C     5.058471141149999e+00   1.768212649187384e+00   3.518324080000000e+00  2.01508630e+00   1.34942856e+00  -1.58191519e+00
C     8.648467585799999e+00   6.223269177981055e+00   4.182550800000000e-01 -3.33354810e+00  -2.62196434e+00  -8.59773260e-01
C     6.172054056524999e+00   4.824340894879506e-01   3.876103360000000e-01  1.01698002e+00  -1.96009719e+00  -9.26022040e-01
C     6.353137787925000e+00   1.118554164843516e+00   3.649117728000000e+00 -1.89629150e-01   4.73113730e-01  -7.26902430e-01
C     7.607268335474998e+00   1.736171698815754e+00   3.410827096000000e+00  2.64058803e+00   3.59804855e+00  -5.96694100e-01
C     8.546592808649999e+00   2.008521281975208e+00   4.081944799999999e-02  4.46027502e+00  -5.76987671e+00  -9.54054730e-01
C     2.412104094975000e+00   2.684399950764332e+00   1.352907178400000e+01  8.83882870e-01  -4.20766380e+00   3.96460080e-01
C     2.642141543175000e+00   3.377485899784597e+00   3.113250392000000e+00  3.44432621e+00  -2.17653903e+00   1.68946353e+00
C     3.975985679775000e+00   3.914787251679104e+00   3.526069008000000e+00 -4.07405402e+00   4.04858408e+00  -1.65052368e+00
C     3.720578870624999e+00   1.915505776773990e+00   1.356759215200000e+01 -3.23701943e+00  -4.09635890e-01   2.31803260e+00
C     4.896436264200000e+00   2.584588375207239e+00   3.603553920000000e-01  8.75580200e-01  -7.08701680e-01  -1.53270790e+00
C     5.168713693575000e+00   3.243315288680868e+00   3.407588528000000e+00 -3.00932320e+00  -4.79195892e+00   1.35852652e+00
C     6.337727939025000e+00   3.865198442643338e+00   3.496516071999999e+00  5.68918664e+00   3.21533692e+00  -2.97591460e-01
C     6.145569270750000e+00   1.897405102571379e+00   3.984054720000000e-01 -1.07724124e+00  -2.53498936e+00  -5.27813320e-01
C     7.350471340274999e+00   2.561800552762051e+00   2.175434240000000e-01 -1.85477110e+00  -7.97850420e-01   1.25014989e+00
C     7.640218458824999e+00   3.286103288209943e+00   3.310098016000000e+00 -3.69416223e+00  -5.14690081e+00   3.54787820e-01
C     8.784007582799999e+00   4.025344403414334e+00   3.176519224000000e+00  2.82941595e+00  -2.58542357e+00   1.21442576e+00
C     2.448070971600000e+00   4.006513835943419e+00   1.040958960000000e-01 -1.71638028e+00   4.04505114e+00  -2.51534050e-01
C     3.712727118450000e+00   4.677788291629253e+00   1.020099280000000e-01 -9.17576550e-01  -2.91567220e-01   1.01222225e+00
C     3.998550339075000e+00   5.385347030859596e+00   3.709003832000000e+00 -5.49110390e-01  -1.35939660e-01  -8.72164920e-01
C     5.269987959749999e+00   6.022903901466051e+00   3.570306000000000e+00 -2.38265316e+00   3.22852480e+00  -7.16132130e-01
C     4.905926415600000e+00   3.977757053044976e+00   3.339481360000000e-01 -3.94972700e-01   7.31615460e-01  -6.12494580e-01
C     6.077595872774999e+00   4.690093624809193e+00   4.850652160000000e-01  2.75163096e+00   2.83770950e-01   1.89442120e-01
C     6.434234389875000e+00   5.306811872892730e+00   3.514330168000000e+00 -6.12190960e-01  -9.22946760e-01  -7.00935840e-01
C     7.588568044350000e+00   6.065160603763061e+00   3.377429984000000e+00  2.06034549e+00  -4.32275260e-01   1.15478393e+00
C     7.318597928925000e+00   3.810978842834163e+00   6.126018000000000e-01  1.10184420e+00   1.13737148e+01  -2.97401613e+00
C     8.558580806175000e+00   4.725303594097687e+00   2.677773360000000e-01  8.58946420e-01  -6.03902360e-01   2.00366820e+00
C     8.876446192050000e+00   5.286310754759034e+00   3.572966704000000e+00 -5.75270960e-01   8.78919700e+00  -4.90892810e-01
C     1.014944079300000e+01   6.162557197723727e+00   3.745314880000000e+00 -1.48185106e+00  -5.95784760e+00  -1.28547676e+00
C     7.363428526499999e+00   1.977043073741736e-01   6.417805184000000e+00  7.06615900e-02   1.96194890e-01   1.33860463e+00
C     1.168449415350000e+00   9.553706645695212e-01   6.404084960000000e+00 -6.99691100e-02   1.47944202e+00   7.15763300e-02
C     1.065826042350000e+00   3.392458350192912e-01   1.034955090400000e+01  2.62507944e+00   1.73830070e-01  -7.90858180e-01
C     2.253499425750000e+00   9.990851040406237e-01   9.891118024000001e+00  2.20827196e+00   1.68086431e+00   1.43122848e+00
C     2.392803921450000e+00   3.191737381196364e-01   6.594083216000000e+00  1.63283557e+00  -4.05733728e+00   8.69051680e-01
C     3.744119263200000e+00   9.012527643751633e-01   6.622534824000000e+00 -1.74553202e+00  -3.02560070e-01  -2.69766100e-01
C     3.568756895400000e+00   3.092783912149932e-01   9.888863279999999e+00 -2.46349821e+00   4.09016700e-02   5.02432560e-01
C     4.787522630250000e+00   1.006573346586007e+00   1.003773228000000e+01  1.14982284e+00  -7.79192100e-02   1.59752708e+00
C     5.022646692225000e+00   1.806885144530466e-01   6.701449232000000e+00 -1.41374291e+00   2.81190606e+00  -4.94022140e-01
C     6.228013907250000e+00   9.950267258347416e-01   6.597848784000000e+00 -2.29807668e+00  -1.81837080e+00  -7.20262130e-01
C     6.029686514850000e+00   3.768278133339720e-01   1.038756494400000e+01 -1.16138600e-01  -8.35423100e-02  -3.13095450e-01
C     7.313069870624999e+00   1.030840680682012e+00   1.058693305600000e+01 -3.97645745e+00   2.26328213e+00  -1.87841519e+00
C     8.499158283674999e+00   2.420742162329891e+00   6.315459607999999e+00  1.69669449e+00  -5.55243430e-01  -1.81406380e-01
C     2.403276165825000e+00   3.052807702034290e+00   6.314918736000000e+00 -5.62594930e-01  -3.00183238e+00   1.36622054e+00
C     2.332446338175000e+00   2.519228632893173e+00   9.896940863999999e+00 -8.13855190e-01  -4.75137508e+00   3.47288970e-01
C     3.572717879250000e+00   3.105992053560396e+00   9.974408095999999e+00  1.12353710e-01   3.72712804e+00   1.82731498e+00
C     3.650270575350000e+00   2.289397558092045e+00   6.495695920000000e+00  1.32309543e+00   3.19509675e+00  -1.98676300e-02
C     4.883830081650000e+00   3.137640615052944e+00   6.592791760000000e+00 -9.57588530e-01  -6.30383168e+00  -5.90867250e-01
C     4.770796064624999e+00   2.367690186813752e+00   1.024227573600000e+01 -6.03967720e-01   3.41244674e+00  -1.31612851e+00
C     5.961221977949999e+00   3.142440734404171e+00   1.040798656800000e+01  2.02717550e+00  -1.14511680e-01  -6.87820960e-01
C     6.178060904100000e+00   2.398787918087761e+00   6.457535815999999e+00 -2.57369917e+00   2.54445996e+00   1.15865880e+00
C     7.302161801925000e+00   3.228229675036166e+00   6.316088472000001e+00  1.91578338e+00  -1.47916083e+00   1.20393207e+00
C     7.241782366424999e+00   2.423072799850303e+00   1.038683367200000e+01  1.93081639e+00   2.76908940e+00  -1.24565750e-01
C     8.567697547049999e+00   3.207628266224382e+00   1.014079920000000e+01 -4.55841584e+00   6.99284830e-01   3.04906010e-01
C     9.742571479575000e+00   4.414368037118840e+00   6.480982352000000e+00  4.05559981e+00   9.94781170e-01  -6.68396660e-01
C     3.556082235150000e+00   5.167545970193007e+00   6.489978888000000e+00  9.33912190e-01   8.64290030e-01   8.60259290e-01
C     3.443402993249999e+00   4.592025544411906e+00   1.025663747200000e+01  4.36512068e+00   5.14648200e-02   3.12174300e-01
C     4.711717372650000e+00   5.369735307431696e+00   1.042985781600000e+01  1.37960489e+00  -5.09398016e+00  -1.62632480e+00
C     4.748346915225000e+00   4.465345161173497e+00   6.662306119999999e+00  3.97799749e+00   2.88183099e+00  -1.80814940e-01
C     6.049825022549999e+00   5.184103026123622e+00   6.769963039999999e+00 -1.66591140e-01   4.76719929e+00  -1.79357216e+00
C     5.987445165600000e+00   4.575878873324959e+00   1.029066045600000e+01 -3.96183110e-01   1.52873342e+00   4.96424400e-02
C     7.282373891175000e+00   5.315069907232886e+00   1.007209227200000e+01 -3.39314984e+00  -8.40646250e-01   5.97639930e-01
C     7.351532189999999e+00   4.696242929163787e+00   6.534400296000000e+00 -2.44849413e+00  -5.78814117e+00   6.35871000e-02
C     8.653152318300000e+00   5.180554554928554e+00   6.566874512000000e+00 -3.19003280e+00   3.55440775e+00   5.66048180e-01
C     8.496810999750000e+00   4.671504177646707e+00   1.011929732800000e+01  3.17382020e-01  -2.32345594e+00   2.85092330e-01
C     9.691735772249999e+00   5.408016886875003e+00   1.026364908800000e+01  1.84016900e-01  -3.04480649e+00  -5.53959410e-01
