64
Lattice="7.10842262195238 0 0 0 7.10842262195238 0 0 0 7.10842262195238 " PBC="1 1 1" Properties=species:S:1:pos:R:3:force:R:3 Energy="-501.50985104"
C     6.989025146452455e+00   7.102047857678611e+00   7.091724011170679e+00  2.01796793e+00  -6.83777060e-01   4.31116640e-01
C     1.689004149384625e+00   1.831971446318660e+00   7.055567019514049e+00  3.04810097e+00  -1.44562641e+00   1.04822943e+00
C     9.479380117520041e-02   1.739665806313138e+00   1.714526301043699e+00 -3.30246977e+00   8.03844670e-01   2.62398891e+00
C     1.771079489723895e+00   1.217059337933894e-01   1.632294575406789e+00  2.59310855e+00  -3.60506095e+00   4.62076100e+00
C     8.563877838183096e-01   8.655289309707248e-01   8.144905276433511e-01 -3.48084730e-01   2.32223076e+00  -1.74732317e+00
C     2.664693087623978e+00   2.675801348568026e+00   9.357786994393630e-01 -1.78139300e-02   3.81974130e-01  -2.11262225e+00
C     8.959037894997943e-01   2.587869947505947e+00   2.698020571656717e+00  5.65617300e-01   2.00201259e+00  -9.79410920e-01
C     2.662503266951660e+00   9.500032217757926e-01   2.710592030312865e+00  8.95910200e-01  -1.64213492e+00  -4.84953870e-01
C     3.585065773803241e+00   1.555257471767896e-01   3.610986281465940e-02 -6.02895920e-01  -3.75736663e+00   2.50908100e-02
C     5.316691669796255e+00   1.939925852216755e+00   9.403682525039660e-02  2.35018727e+00  -5.55202460e+00  -6.47223700e-01
C     3.613679023038622e+00   1.841885705515227e+00   1.849560242912684e+00 -3.14638866e+00  -4.55884360e-01  -1.98925537e+00
C     5.293850246475635e+00   3.728801277969820e-02   1.843199484183855e+00 -7.12315060e-01   4.99318610e-01  -2.79817873e+00
C     4.459495658326051e+00   1.013101135162223e+00   9.553991543024084e-01 -3.82056670e-01  -1.56804053e+00  -5.43811520e-01
C     6.269880033579617e+00   2.733953150411233e+00   9.844973401289259e-01  2.36968901e+00  -2.22267659e+00  -4.40686966e+00
C     4.495285002364775e+00   2.747701621684802e+00   2.552445549884534e+00  3.95090810e-01  -2.00538911e+00   5.32854584e+00
C     6.280831411636441e+00   7.819899664139967e-01   2.587639492444607e+00 -1.14845596e+00   4.33322807e+00   1.92006238e+00
C     4.199279337497139e-02   3.528938521806435e+00   7.050950454443490e+00 -3.95727710e-01   6.72337600e-01   1.28297633e+00
C     1.805820839015752e+00   5.316583479603977e+00   7.159532178637800e-03  1.87271211e+00  -3.40509390e-01  -1.64546818e+00
C     6.249327095837279e-02   5.405419000939095e+00   1.646777417821229e+00 -1.15636922e+00  -2.69521440e-01   2.61376718e+00
C     1.775335515599168e+00   3.638711404379178e+00   1.779415750183047e+00  5.12751310e-01  -3.77489641e+00   5.17798000e-01
C     9.783597147861394e-01   4.479851053003778e+00   8.149466751228764e-01 -3.28091534e+00  -1.38060282e+00   1.98940050e+00
C     2.700166320108790e+00   6.301985935185109e+00   8.242872846140088e-01 -2.06211040e-01  -1.13359990e+00   1.86515543e+00
C     9.673077525492421e-01   6.279724701318733e+00   2.571775199178195e+00 -1.41474853e+00  -1.24787234e+00   2.83372930e-01
C     2.601118199079746e+00   4.381162547075080e+00   2.752608139314030e+00  2.38233757e+00   3.71672443e+00  -2.06991978e+00
C     3.654425496675629e+00   3.472815179442071e+00   7.035829631098904e+00 -3.36006091e+00   2.08205946e+00   3.15033290e+00
C     5.247332799934581e+00   5.309957647795650e+00   4.278061985394600e-02  1.63925229e+00  -2.97287200e-02  -9.45525240e-01
C     3.574116101767845e+00   5.315581192014558e+00   1.772759707578584e+00 -1.16264707e+00   7.86664840e-01   9.49422770e-01
C     5.463229882833447e+00   3.602467689966585e+00   1.769983655292796e+00 -2.12849465e+00   1.30301678e+00   2.00185735e+00
C     4.488578063454352e+00   4.336547883100947e+00   9.065818487068797e-01 -1.07306826e+00   3.99577937e+00  -1.14337646e+00
C     6.062113280136602e+00   6.319983394995556e+00   8.974310340997013e-01  3.80787901e+00  -3.99900102e+00  -1.40838582e+00
C     4.423060371923848e+00   6.292225217917134e+00   2.686061432525055e+00 -1.65500290e+00  -1.47408873e+00   1.03053865e+00
C     6.346285340616044e+00   4.572968830293635e+00   2.650539862766427e+00 -2.62963630e+00  -2.11601691e+00  -1.19630637e+00
C     7.063724147723177e+00   7.004444807883986e+00   3.403536563671777e+00  1.79900706e+00   5.14081720e-01   5.69628252e+00
C     1.778823689663028e+00   1.657362072355088e+00   3.634963275300105e+00 -2.69221345e+00   2.45281130e+00  -8.91973730e-01
C     7.023858763069920e+00   1.730657373411039e+00   5.335855835011322e+00  3.07727930e-01  -5.05820780e-01  -2.51523070e+00
C     1.765523830941008e+00   7.045905677994303e+00   5.488657847892807e+00  1.74476040e-01   3.90816380e-01  -3.35365649e+00
C     7.640037379112892e-01   7.525723991591623e-01   4.505764594412310e+00  2.81010225e+00   9.08567320e-01  -1.52559069e+00
C     2.540836855988038e+00   2.644420150648643e+00   4.450730973235592e+00  4.98351852e+00  -3.72722540e-01   4.24246820e-01
C     8.133777040821900e-01   2.616262622387429e+00   6.100528688743831e+00  6.50464670e-01   2.75690300e-01   3.71800480e+00
C     2.714832346574148e+00   9.687573020899124e-01   6.277044399485637e+00 -1.58426745e+00  -1.31914530e-01  -1.00547670e+00
C     3.517807300657325e+00   8.656054175981159e-02   3.694770060097701e+00  1.43679061e+00  -2.01206065e+00  -3.00970036e+00
C     5.417803365911885e+00   1.751784245195715e+00   3.510490032580750e+00  3.91635950e-01   2.65323515e+00  -1.15848870e+00
C     3.633956580488660e+00   1.910702771404804e+00   5.424551533673504e+00 -2.83533285e+00  -4.66211886e+00  -4.07021699e+00
C     5.260020054795209e+00   7.035817475696225e+00   5.452275519239122e+00  3.33478740e-01   7.22980460e-01  -4.54446448e+00
C     4.533218175581464e+00   1.013579674173001e+00   4.431690778911016e+00 -3.29500219e+00  -3.32418450e+00   2.39408598e+00
C     6.295847243578930e+00   2.800539735451107e+00   4.320158846076728e+00 -3.15275176e+00  -7.06128275e+00   3.17304817e+00
C     4.572069472663753e+00   2.651204073776039e+00   6.198446854913201e+00 -2.32152966e+00   2.88941786e+00   4.55611070e-01
C     6.119231517330861e+00   8.332213634155035e-01   6.219814346803564e+00  1.91116639e+00   2.44050493e+00   1.59242293e+00
C     3.560644432471100e-02   3.606694286972210e+00   3.554605472034279e+00  1.72413688e+00   5.67152430e-01  -2.95260941e+00
C     1.758666264555268e+00   5.376050908305696e+00   3.580680801141642e+00  1.65057658e+00  -9.60678300e-01   2.45680530e-01
C     7.006673938133392e+00   5.262145615327042e+00   5.267036778763411e+00  3.84891053e+00  -7.81376890e-01   3.49177247e+00
C     1.653744453915317e+00   3.505825485657506e+00   5.262189047789250e+00  3.13852516e+00   1.10435779e+00   1.93881873e+00
C     8.816126612434154e-01   4.453594174782701e+00   4.473620591661574e+00 -1.29012265e+00   8.72374980e-01  -2.97031665e+00
C     2.697684556519469e+00   6.156900825899897e+00   4.586254116749284e+00 -1.33480686e+00   2.49311596e+00  -2.59459874e+00
C     9.109995201125313e-01   6.079687575548481e+00   6.251942213434951e+00 -3.64660550e+00   3.92834660e+00  -6.47148770e-01
C     2.630921327177489e+00   4.342175052615392e+00   6.198506778915887e+00  1.56848187e+00   4.31878460e-01   9.28883120e-01
C     3.532710179764381e+00   3.489759099936008e+00   3.548930036330245e+00  2.84699250e-01   1.47534960e+00   1.21679860e-01
C     5.266186042744250e+00   5.376727701223346e+00   3.520040909212981e+00  1.39632475e+00  -2.80848221e+00   4.28447240e-01
C     3.556478257057744e+00   5.229144478976787e+00   5.416464565595634e+00 -7.92654180e-01   6.06320460e-01  -3.13799483e+00
C     5.396159782886961e+00   3.507116588457976e+00   5.259992118694313e+00 -2.18376730e-01   1.19221861e+00   6.47804520e-01
C     4.513740102423498e+00   4.373080839229949e+00   4.405773896543853e+00 -3.93328337e+00   7.97256280e-01   5.60174690e-01
C     6.091588141277754e+00   6.041021808296573e+00   4.496376358489623e+00  1.69597087e+00   6.31854539e+00  -1.77524038e+00
C     4.344279074626685e+00   6.150506373247850e+00   6.252681702640110e+00  2.09378601e+00   2.11826199e+00   1.60840101e+00
C     6.247633158726934e+00   4.334411375598281e+00   6.179378511235051e+00 -1.44502442e+00   3.28231520e+00   1.19032944e+00
