64
Lattice="7.10842262195238 0 0 0 7.10842262195238 0 0 0 7.10842262195238 " PBC="1 1 1" Properties=species:S:1:pos:R:3:force:R:3 Energy="-508.12186268"
C     3.980233294461839e-02   7.004829942221537e+00   7.100806727089158e+00 -2.86053878e+00   2.36025720e+00  -1.23304866e+00
C     1.707621392563310e+00   1.750941897115245e+00   3.120377169078780e-02  1.58149563e+00   1.54321180e-01  -7.43186320e-01
C     1.175555390782500e-02   1.692590561849093e+00   1.783094287804671e+00 -6.97688190e-01   1.59259701e+00  -1.38333443e+00
C     1.802038873845007e+00   7.053917012455495e+00   1.716836467310973e+00  8.95320130e-01   8.48248530e-01   3.53776830e-01
C     8.357182679450046e-01   7.919912327034319e-01   8.321860927451266e-01  2.43125024e+00   1.18542033e+00   2.25660823e+00
C     2.568762862924518e+00   2.623964242875068e+00   9.691316316250814e-01  1.54228723e+00   1.12629967e+00  -2.43206427e+00
C     8.524998320663005e-01   2.621527475600932e+00   2.668457494990851e+00  1.13284340e+00  -6.41565350e-01   1.23698520e+00
C     2.712363591398222e+00   8.737931831087368e-01   2.601914840002769e+00 -2.63421289e+00  -2.65545340e-01   8.20519340e-01
C     3.603574187031614e+00   5.160139039887780e-02   7.052704386640749e+00 -1.71298800e+00   3.72118930e-01   1.65258263e+00
C     5.347173865506886e+00   1.889289430188542e+00   7.013409523986972e+00  4.03819500e-01  -2.62678764e+00   3.69467149e+00
C     3.501309149345888e+00   1.807504397829073e+00   1.785217360388587e+00  1.80433946e+00  -1.18155004e+00  -2.98526180e-01
C     5.330272950969801e+00   7.060592887559068e+00   1.698951675999053e+00 -9.26430030e-01   1.26498248e+00   1.82959158e+00
C     4.395465475313007e+00   8.917283731370326e-01   9.080476054511237e-01  2.32049995e+00   1.78301741e+00  -1.90897768e+00
C     6.271091735299422e+00   2.746186177066444e+00   9.038114120749610e-01 -2.88092060e+00  -4.04456856e+00   1.44644401e+00
C     4.414841969111735e+00   2.646951886448982e+00   2.710745003567648e+00  1.41818388e+00   1.49151530e-01  -9.40459220e-01
C     6.268303030021370e+00   7.988765219373900e-01   2.636048063739485e+00 -2.24856391e+00   1.56901688e+00  -1.74286580e-01
C     2.436518479344300e-02   3.561438230025076e+00   1.052637257679722e-01 -1.59493670e-01   2.61201319e+00  -2.77612398e+00
C     1.806982142019181e+00   5.361356590318310e+00   7.102365035495914e+00  7.79054140e-01  -1.34214293e+00   8.35577160e-01
C     1.168191064948180e-02   5.358556511564066e+00   1.825941442494340e+00 -5.98764360e-01  -1.40049791e+00  -1.51291828e+00
C     1.750249181330926e+00   3.528292508358730e+00   1.853290387682528e+00 -9.49662890e-01   1.52239147e+00  -7.10882100e-01
C     9.080188874237390e-01   4.473847137090474e+00   9.559441570646838e-01 -2.98468000e-02  -3.39155960e-01  -9.90455670e-01
C     2.792978221973308e+00   6.167818652201954e+00   8.069548177396628e-01 -4.52368464e+00   2.28690003e+00   2.23020265e+00
C     9.134244874051179e-01   6.233099064585403e+00   2.666054705976839e+00  7.34623510e-01  -8.05225460e-01  -3.24987310e-01
C     2.573107815166767e+00   4.494282501522676e+00   2.732068352153540e+00  2.66220584e+00  -3.09954644e+00  -2.15498593e+00
C     3.506741405912093e+00   3.509167368383846e+00   2.760221828613860e-02  4.55323410e-01   1.35469142e+00  -1.87884400e-01
C     5.224212442110352e+00   5.289767808280743e+00   9.164576513370720e-02  1.34463014e+00  -1.24406658e+00  -2.75158575e+00
C     3.518653274033331e+00   5.268907004754733e+00   1.796366921268057e+00  3.70477030e-01   9.01485300e-02  -6.01874440e-01
C     5.347916055912640e+00   3.526657997661487e+00   1.874711761416351e+00 -6.09606620e-01   4.63948430e-01  -2.32786710e+00
C     4.363623225102492e+00   4.313419279506480e+00   9.711616549569011e-01  1.84570674e+00   2.10725705e+00  -4.15362350e-01
C     6.122234470466680e+00   6.164498734501509e+00   8.525753235145249e-01  3.85491568e+00   5.08949260e-01   1.06351963e+00
C     4.423526542279268e+00   6.147632864487941e+00   2.604282939914396e+00  2.05926855e+00   2.84075964e+00   5.64016660e-01
C     6.246399989570816e+00   4.462200839638318e+00   2.674336373750270e+00 -5.07409430e-01  -9.14197320e-01   1.98765405e+00
C     3.008319994897100e-02   7.055055213085409e+00   3.516949314047091e+00 -5.48457940e-01   1.32946768e+00   1.71362470e+00
C     1.756192817820412e+00   1.682003063946187e+00   3.548211588056041e+00  8.59278730e-01   2.49299396e+00  -1.39909054e+00
C     7.089504619460262e+00   1.774136609040078e+00   5.342541093232753e+00  1.88768973e+00  -6.22154600e-02   4.96637770e-01
C     1.912412560297593e+00   8.645690095801200e-03   5.282634790518477e+00 -3.08950653e+00   1.52659097e+00   8.89150340e-01
C     8.999132241943791e-01   8.461952298761701e-01   4.424006218637666e+00  1.45322870e-01   1.91998250e-01   9.64714350e-01
C     2.629498647474322e+00   2.658643535637453e+00   4.350971938860321e+00 -9.56069850e-01   2.83884440e-01   3.72970674e+00
C     8.683282277984807e-01   2.688695032021539e+00   6.321612432207381e+00  1.34385120e-01  -9.42477440e-01  -2.02700202e+00
C     2.724300196830178e+00   1.019515633566058e+00   6.157348372188052e+00 -1.93176154e+00  -3.28923626e+00   1.64059029e+00
C     3.628542521484364e+00   5.755121121604399e-02   3.428564466706083e+00 -8.57890180e-01  -2.18537545e+00   2.75971336e+00
C     5.376931926205219e+00   1.749235022675730e+00   3.515702781056448e+00 -5.90053230e-01  -3.25607830e-01   1.94717845e+00
C     3.536795034822964e+00   1.888863422420926e+00   5.275523098024072e+00  1.24752116e+00  -2.15150009e+00   3.80975390e-01
C     5.331654615074449e+00   9.170220600931001e-03   5.362134749342522e+00  2.00379920e-01  -3.25998350e-01  -6.56822100e-01
C     4.437037307900423e+00   8.943312642477980e-01   4.449381439201185e+00  1.56596194e+00   7.20688120e-01  -1.37908556e+00
C     6.287200487219734e+00   2.677992804177546e+00   4.467447637458366e+00 -3.40081414e+00  -9.84130490e-01  -1.29947230e+00
C     4.457264111212954e+00   2.731966630625848e+00   6.188408482657690e+00 -1.67248939e+00  -4.00004600e-01  -9.77402310e-01
C     6.230444068736833e+00   9.153305398464447e-01   6.210645761139835e+00 -3.39035130e-01  -1.14776910e+00   1.73621700e-02
C     3.126063907174780e-02   3.515642288379951e+00   3.625194241177665e+00 -2.26175990e-01   1.96751877e+00  -2.04137595e+00
C     1.831275744996841e+00   5.394771650117728e+00   3.582139165126361e+00 -2.78614585e+00  -1.00548440e+00   7.50709280e-01
C     7.091550707827204e+00   5.354954318401381e+00   5.313423785749388e+00  3.22597790e-01  -1.40464920e-01   2.44800597e+00
C     1.725989983118747e+00   3.554054498197003e+00   5.406387239184165e+00  1.64120741e+00   1.19971629e+00  -1.32682220e+00
C     8.449272294492146e-01   4.461362401190289e+00   4.540026125177317e+00  2.32273068e+00  -8.59752630e-01  -2.30138051e+00
C     2.769932644755042e+00   6.282225657649128e+00   4.361769206314744e+00 -1.80349057e+00   4.62955900e-01   1.09922248e+00
C     9.794345793705096e-01   6.225656190681132e+00   6.228727811179460e+00 -1.47940781e+00  -3.51450700e-02  -1.81805302e+00
C     2.702440517757607e+00   4.535401385420744e+00   6.248271921583567e+00 -1.61376992e+00  -3.41687538e+00  -1.50921445e+00
C     3.503908344076891e+00   3.541140129233665e+00   3.559301722522409e+00 -2.64805560e-01   1.95268515e+00  -7.90016320e-01
C     5.351552867093485e+00   5.378724030631947e+00   3.539283977919131e+00 -1.72848930e+00  -2.42726762e+00  -4.69797430e-01
C     3.573837380516915e+00   5.445333931298014e+00   5.285080301152436e+00 -2.62279880e-01  -3.07607180e+00   1.63921115e+00
C     5.277857077507123e+00   3.570435573787888e+00   5.233680008029478e+00  1.66408792e+00   1.53133046e+00   3.05466239e+00
C     4.340641481519353e+00   4.488333604800451e+00   4.397118681161742e+00  3.91153223e+00  -7.67835250e-01   9.13346210e-01
C     6.225710712282628e+00   6.198664870234957e+00   4.424796461980330e+00 -3.66453590e-01   1.72244596e+00   7.08845580e-01
C     4.406643114461827e+00   6.219622703729728e+00   6.289205915409290e+00  2.66588539e+00   6.73559770e-01  -3.21284980e+00
C     6.202901916621834e+00   4.478639919957783e+00   6.239901043106255e+00 -9.38195300e-01  -7.65571100e-01  -1.47382600e-02
