64
Lattice="7.10842262195238 0 0 0 7.10842262195238 0 0 0 7.10842262195238 " PBC="1 1 1" Properties=species:S:1:pos:R:3:force:R:3 Energy="-500.49611045"
C     3.117199704167639e-02   8.898451387323160e-02   1.017712866505400e-02 -9.91698000e-03  -2.29766464e+00  -7.07269080e-01
C     1.877218191232163e+00   1.716643473636840e+00   5.509553553773880e-02 -2.81603462e+00   1.44927553e+00  -9.70643280e-01
C     2.676719188096720e-02   1.942283929252488e+00   1.755059024412522e+00 -8.67621100e-02  -3.13242593e+00  -1.35790800e-02
C     1.657934300375998e+00   7.075072673351782e+00   1.854359992034160e+00  4.66098143e+00   2.22776717e+00  -1.70809712e+00
C     9.397843666699591e-01   9.120600967674352e-01   9.349595248166342e-01 -2.68958088e+00   1.57810468e+00  -3.85738810e-01
C     2.736977570983365e+00   2.694952221032794e+00   9.114737940697376e-01  1.61536425e+00  -1.51647958e+00  -1.89318148e+00
C     1.010788196610127e+00   2.744120895958429e+00   2.681562725101536e+00 -2.45731530e+00  -2.04564973e+00  -2.76280930e+00
C     2.681065562023493e+00   9.597077825050689e-01   2.664726923715649e+00 -1.55947192e+00  -2.79886556e+00   2.45161135e+00
C     3.529824444517566e+00   7.013222003798257e+00   2.616532173773180e-02 -2.06600361e+00   5.46905850e-01   1.99755493e+00
C     5.342438660862800e+00   1.678085185734948e+00   7.081859510932452e+00 -1.56586106e+00   1.91033628e+00   2.15526781e+00
C     3.568158746022702e+00   1.787431634034717e+00   1.803721082058030e+00  2.85516100e-02  -6.76865930e-01  -4.52923370e-01
C     5.359225414132608e+00   7.092183855029966e+00   1.929175216014719e+00 -5.54700720e-01   2.98356496e+00  -3.53465072e+00
C     4.354018466626800e+00   7.865439773654995e-01   1.053987004966808e+00  2.72464581e+00   8.79856550e-01  -5.12623435e+00
C     6.149004292464017e+00   2.678246717033532e+00   8.321142976766646e-01  5.04252324e+00  -3.29512860e-01  -2.34976704e+00
C     4.484140559549591e+00   2.625546009076471e+00   2.623778144370877e+00 -1.75300066e+00   3.17098500e+00   2.16819270e-01
C     6.197445135997591e+00   1.054173387807904e+00   2.672121602514556e+00  1.33308642e+00  -3.82641794e+00   5.18603630e-01
C     9.667952352783400e-02   3.605157161664861e+00   6.956798614915102e+00 -1.61614387e+00  -2.26803953e+00   3.56569231e+00
C     1.658844320639810e+00   5.350378555676661e+00   1.176924472979112e-01  4.83846183e+00  -8.69990940e-01  -3.44074997e+00
C     7.074280013145425e+00   5.468833807805924e+00   1.763354909031194e+00 -8.08639440e-01  -5.91345730e+00   2.06759610e-01
C     1.968980889917969e+00   3.572411359855117e+00   1.744860925900739e+00 -5.71549935e+00  -8.20898200e-02   1.41735639e+00
C     9.494640479200656e-01   4.393070292311199e+00   9.175422544604315e-01 -3.30799247e+00   1.35092896e+00  -1.18526764e+00
C     2.542627538730243e+00   6.156847654898699e+00   1.016118234059055e+00  3.34711844e+00   1.64092381e+00  -2.22947549e+00
C     8.320906977135663e-01   6.164270554135408e+00   2.631008192101905e+00  6.10909420e-01   3.10882118e+00   2.15358548e+00
C     2.751246876382300e+00   4.415976757698792e+00   2.650190199457749e+00 -8.45686470e-01   2.88042003e+00  -1.03874800e+00
C     3.590319751130135e+00   3.655489911878748e+00   2.386937231569800e-02  1.17188418e+00  -2.88563128e+00  -4.59009070e-01
C     5.321149148368578e+00   5.352477033118311e+00   6.223786533363619e-02  4.62781542e+00   4.72427793e+00  -6.37598208e+00
C     3.570759717859360e+00   5.389817221720040e+00   1.846107753130376e+00  6.68862820e-01  -8.14025980e-01  -1.61671426e+00
C     5.367756516455775e+00   3.589791097739886e+00   1.607880271413042e+00 -8.74734830e-01   3.67786760e-01   5.45427727e+00
C     4.577500734050790e+00   4.566288334715359e+00   8.548176754300040e-01 -7.24201450e+00  -4.37954037e+00   2.78863240e+00
C     6.268555592277059e+00   6.364414519497640e+00   9.196103789374944e-01 -1.71087668e+00  -2.75912290e+00  -8.10450510e-01
C     4.496836202348911e+00   6.211991883131384e+00   2.719473435702746e+00 -3.90822603e+00   3.44120700e-01   1.89512098e+00
C     6.135998864606917e+00   4.515816401586574e+00   2.657638831184342e+00  2.56067021e+00  -2.89826255e+00  -1.85731053e+00
C     1.360274860985820e-02   8.319640967067039e-02   3.466855264664784e+00 -9.16026720e-01  -2.55503961e+00   2.96014493e+00
C     1.842183264086100e+00   1.819916272397402e+00   3.553380051058817e+00 -1.57871719e+00  -5.26851370e-01  -7.64074420e-01
C     1.526164119668760e-02   1.729044330150108e+00   5.320577631189930e+00  6.38863940e-01   3.97709210e-01  -1.64667388e+00
C     1.736149198558798e+00   7.108390418845532e+00   5.205982252543326e+00 -1.16520140e-01  -3.52008367e+00   6.75334901e+00
C     9.674862450412302e-01   8.179919944575106e-01   4.397250684569795e+00 -4.36734216e+00   5.00361670e+00  -1.40868294e+00
C     2.704278329341781e+00   2.712005540150852e+00   4.349491609849705e+00  1.01954763e+00  -2.07977833e+00   3.03623962e+00
C     9.957735730994843e-01   2.635814409887966e+00   6.154467399584392e+00 -1.92749854e+00  -8.95541090e-01   1.62304848e+00
C     2.519434319574159e+00   6.884013982940171e-01   6.302593420982213e+00  5.68383703e+00   5.08399181e+00  -2.48901228e+00
C     3.458617882364276e+00   1.293732916840000e-04   3.719130766584893e+00  2.97037680e+00   2.98897020e-01  -6.24904142e+00
C     5.221921255331474e+00   1.770211266985088e+00   3.588403604728688e+00  2.39376248e+00  -1.39631840e-01  -8.86536920e-01
C     3.517727188734398e+00   1.687724135723441e+00   5.343233951185525e+00  3.91122000e-01   2.72564279e+00   9.63950850e-01
C     5.294809741360883e+00   6.719087204679980e-02   5.310363041137669e+00  3.26921246e+00  -5.94006604e+00   2.57875180e+00
C     4.417892548679108e+00   8.052463794471719e-01   4.524074682649584e+00 -2.42712875e+00   4.13243529e+00  -2.61364526e+00
C     6.140100708795562e+00   2.626509769015291e+00   4.367842358264367e+00  2.31475577e+00   1.54979210e-01   2.89205588e+00
C     4.424198714722214e+00   2.641204371339581e+00   6.238762487055210e+00  3.07658200e-02  -1.24288870e+00   7.37624910e-01
C     6.240337429170896e+00   8.175891601476352e-01   6.188236956419869e+00 -2.11326540e-01   3.46201459e+00   7.08018050e-01
C     7.086658051622083e+00   3.464511973148101e+00   3.435587801507321e+00 -5.89306310e-01   3.94635141e+00   3.68003398e+00
C     1.745003734111175e+00   5.270773960871651e+00   3.432373230630104e+00 -3.81694080e-01  -4.82992500e-02   4.12053470e+00
C     7.089781563605539e+00   5.248591843749035e+00   5.278877918079581e+00  1.13804449e+00   3.38469204e+00  -5.69257600e-01
C     1.863960485456279e+00   3.507758479020562e+00   5.313918816300645e+00 -1.11936856e+00   1.16288681e+00  -7.65613960e-01
C     8.497038051129497e-01   4.325129268425311e+00   4.414048242641986e+00  1.14729908e+00   2.15302829e+00  -8.79784420e-01
C     2.545805003641382e+00   6.219647654293125e+00   4.429703335030691e+00  2.49353956e+00  -1.86809963e+00  -9.42530810e-01
C     9.345795085433690e-01   6.217869979964315e+00   6.221185135021605e+00 -3.87870238e+00  -7.68519160e-01  -3.23491810e-01
C     2.691335597772190e+00   4.417975361802631e+00   6.269311004348886e+00 -1.32024060e+00   2.89948646e+00  -1.54347572e+00
C     3.582844676071396e+00   3.609822561598820e+00   3.475994421458866e+00  1.32363085e+00  -2.78002890e+00   3.38052764e+00
C     5.200879968955143e+00   5.261658475124893e+00   3.589353929748756e+00  5.36816530e+00   2.70303927e+00  -3.65250940e-01
C     3.515099418144462e+00   5.450652453102298e+00   5.327906841416508e+00 -7.71381830e-01  -4.86948737e+00   3.85196170e-01
C     5.350043464634354e+00   3.488977102363581e+00   5.432909972411230e+00 -1.47709911e+00   1.71460579e+00  -5.18847502e+00
C     4.404858971468433e+00   4.489519502946146e+00   4.469160411888655e+00 -1.39171670e+00  -2.64600878e+00   7.99760540e-01
C     6.180538250385504e+00   6.168476039125853e+00   4.470286599284342e+00  3.09172290e-01   2.11968447e+00  -2.29761652e+00
C     4.423792184032577e+00   6.235746738758674e+00   6.184612940399741e+00  3.32255100e-01   5.07860250e-01   2.72434072e+00
C     6.237388215710085e+00   4.459555369076059e+00   6.097263861318692e+00  6.34515100e-02  -1.63978431e+00   5.70107359e+00
