64
Lattice="9.86 0 0 4.93 8.53901048131456 0 0 0 30 " PBC="1 1 1" Properties=species:S:1:pos:R:3:force:R:3 Energy="-512.95857838"
C     9.862687983900001e+00   1.875008729714120e-01   7.817460000000000e-02 -1.39338230e+00   7.45803700e-02   9.92185600e-02
C     1.216267284800000e+00   8.665850649472017e-01   3.191070000000000e-02  6.69363320e-01   1.49950150e+00  -1.08218840e-01
C     1.216122096300000e+00   4.941601361969272e-01   3.457847400000000e+00  9.27149410e-01   1.40068255e+00   4.48432240e-01
C     2.489403401400000e+00   1.209272121189933e+00   3.430507800000000e+00 -1.30625018e+00  -6.77122230e-01  -9.49237390e-01
C     2.448518073300000e+00   1.524774383668536e-01   1.302774000000000e-01  1.23483858e+00   1.79124900e+00   1.49279200e-02
C     3.716803414999999e+00   9.076327714454000e-01   1.345449000000000e-01 -1.54548483e+00   9.17346310e-01  -1.58328819e+00
C     3.686341684499999e+00   4.642017010486856e-01   3.355374300000000e+00  1.28526387e+00   2.00022580e-01   4.88252260e-01
C     4.918816985199999e+00   1.224456872746307e+00   3.429238500000000e+00 -4.34176870e-01  -7.03970700e-01  -1.08083379e+00
C     4.950504264399999e+00   2.159228839639872e-01   1.238094000000000e-01 -1.08014209e+00  -2.50262310e-01   4.77513480e-01
C     6.182332354700000e+00   9.725400956367096e-01   1.728030000000000e-01 -2.09894162e+00  -2.62355284e+00  -2.44302030e-01
C     6.170917777800000e+00   5.563983364923983e-01   3.348498600000000e+00 -1.26058353e+00  -1.48364687e+00   7.03837120e-01
C     7.387560975100000e+00   1.214953381032591e+00   3.427378500000000e+00  2.94732591e+00  -2.92197892e+00  -1.53090670e-01
C     7.363985567199999e+00   2.150302158084080e-01   1.868091000000000e-01  2.08361706e+00  -1.97542830e-01  -1.76564627e+00
C     8.637027471500000e+00   9.220969159073672e-01   4.961820000000000e-02 -1.53106884e+00  -3.61379790e-01   5.44741270e-01
C     8.653367414200000e+00   5.022593022471024e-01   3.461325000000000e+00 -1.67397770e-01   1.52417278e+00  -2.44963350e-01
C     9.870281662899998e+00   1.288365645052086e+00   3.440098200000000e+00  5.37699300e-02  -2.95043872e+00   6.12377410e-01
C     1.103916316810000e+01   2.322275523618450e+00  -1.017900000000012e-01  1.80149481e+00  -9.99890540e-01   5.61351420e-01
C     2.434339196100000e+00   3.041944009993689e+00  -1.999320000000004e-01 -4.93593560e-01  -2.11619440e+00   1.08236150e-01
C     2.522689282400000e+00   2.636591461371067e+00   3.240630600000000e+00 -2.41268237e+00   2.50945040e-01   2.41573970e-01
C     3.684638123000000e+00   3.363526987225204e+00   3.123396900000000e+00  3.24108380e+00  -7.82328720e-01   1.65355170e+00
C     3.672337033500000e+00   2.350581318678393e+00  -1.406942999999998e-01  9.04756930e-01  -7.42813380e-01   1.27630983e+00
C     4.917981892499999e+00   3.123500440648588e+00  -5.643210000000209e-02 -2.22805376e+00  -2.86667555e+00   5.45651900e-01
C     4.934737927200000e+00   2.640926204651135e+00   3.356970600000000e+00 -1.31164630e-01  -6.82448970e-01  -3.49122050e-01
C     6.214824752199999e+00   3.215839677567317e+00   3.429858300000000e+00 -1.13043780e-01   4.96089009e+00   1.99792550e-01
C     6.075616539400000e+00   2.348404468736727e+00   1.381935000000000e-01  2.71469308e+00   1.89907467e+00  -7.02451930e-01
C     7.344922539000000e+00   3.024249216306719e+00   9.917819999999999e-02  3.96463890e-01   1.72636035e+00   5.71575180e-01
C     7.492447267399999e+00   2.547848257935781e+00   3.433226700000000e+00 -2.56136939e+00   5.15604764e+00   5.27200000e-05
C     8.654564122400000e+00   3.391414370771627e+00   3.372511500000000e+00  5.39177790e-01  -5.90147800e-01   1.11612766e+00
C     8.569674600299999e+00   2.352331132705955e+00   1.035120000000000e-02  1.67965064e+00  -1.15027992e+00   9.38935250e-01
C     9.856181320599999e+00   3.050611020240784e+00   3.753990000000000e-02 -1.89333844e+00  -4.21340160e-01  -1.61743552e+00
C     9.876682774899999e+00   2.678590157466423e+00   3.449453100000000e+00  1.98525348e+00   2.01752921e+00  -1.49910068e+00
C     1.116909464920000e+01   3.420195959495515e+00   3.253204500000000e+00 -2.24279769e+00  -2.41111895e+00   8.07876400e-01
C     1.230913126670000e+01   4.416907773658380e+00  -2.211195000000004e-01 -7.14947090e-01   2.73389363e+00   1.56366340e-01
C     3.659959134599999e+00   5.155619192695171e+00  -1.049600999999996e-01  4.73856000e-02   1.14068983e+00  -9.47438300e-02
C     3.720065250900000e+00   4.757605752799901e+00   3.195160200000000e+00 -6.89094600e-02   1.09599033e+00  -6.75265300e-02
C     4.944718712199999e+00   5.482410027028335e+00   3.338886900000000e+00  8.52623030e-01  -7.15462820e-01   6.17766130e-01
C     4.873204132200000e+00   4.506496424521291e+00   2.624460000000000e-02  3.32226341e+00  -8.66483100e-02  -6.10399710e-01
C     6.186105431600000e+00   5.201324075509161e+00   1.257843000000000e-01 -2.16521452e+00  -1.14571417e+00   1.06613940e+00
C     6.188135359100000e+00   4.779055064004822e+00   3.499418400000000e+00 -1.93824820e-01  -2.47601598e+00  -1.67404034e+00
C     7.391416875999999e+00   5.519537303034955e+00   3.369013800000000e+00  5.75033110e-01  -7.73511920e-01   1.36929860e+00
C     7.434365211899999e+00   4.473964587784693e+00   2.269767000000000e-01 -3.50237360e+00  -9.17639180e-01  -1.23672162e+00
C     8.589920039699999e+00   5.210160328943971e+00   1.624989000000000e-01  3.06943440e+00  -3.22195580e+00  -7.21196890e-01
C     8.664154697899999e+00   4.834559656806079e+00   3.399260400000000e+00 -1.39891003e+00  -1.31319432e+00  -1.23222922e+00
C     9.884931798800000e+00   5.518887825897846e+00   3.226127100000000e+00  1.76073100e-01  -1.77285140e-01   1.09416673e+00
C     9.852673773499999e+00   4.447584168807780e+00  -8.583239999999748e-02 -2.66172360e-01   2.21237347e+00   1.32227657e+00
C     1.108978184450000e+01   5.171731878520407e+00  -1.672575000000016e-01 -8.32455180e-01   4.31119380e-01   5.16691410e-01
C     1.111006514630000e+01   4.831775256268761e+00   3.197928000000000e+00  1.23047267e+00  -1.60469019e+00  -9.86559400e-02
C     1.236748979660000e+01   5.469252094999493e+00   3.199556700000000e+00 -5.84676000e-01   3.28349894e+00  -5.91427180e-01
C     1.355166273210000e+01   6.573655006072554e+00  -5.066310000000129e-02 -2.16898902e+00   1.25089349e+00   4.47269240e-01
C     4.883864024699999e+00   7.312344309072202e+00   1.593027000000000e-01  1.22774710e-01  -8.39302380e-01  -7.13835500e-01
C     4.981346048600000e+00   6.905134354889971e+00   3.427428900000000e+00 -2.63540229e+00  -1.09928134e+00   1.65749010e-01
C     6.153057225900000e+00   7.586169710760441e+00   3.527935800000000e+00  1.43290205e+00   3.16045729e+00  -7.25653740e-01
C     6.096416801000000e+00   6.590366447312648e+00   2.433228000000000e-01  2.32392095e+00   7.93478010e-01  -6.82922670e-01
C     7.378309928700000e+00   7.295724662194769e+00   2.245113000000000e-01 -1.72098599e+00  -3.37622700e-01   3.63049840e-01
C     7.381508808500000e+00   6.939494393770338e+00   3.409734000000000e+00  1.09344755e+00  -2.03368184e+00  -2.78050710e-01
C     8.644337774099998e+00   7.550730426345506e+00   3.296892000000000e+00 -3.73622000e-01   3.30554480e+00   1.09190711e+00
C     8.581354854899999e+00   6.567372343721789e+00   2.170512000000000e-01  8.18270130e-01   3.02772727e+00  -6.52586200e-01
C     9.790432868600000e+00   7.328968652405401e+00   9.964020000000000e-02  2.33985098e+00  -3.97990240e-01   3.05058920e-01
C     9.904534415499999e+00   6.915604804150442e+00   3.313123500000000e+00 -5.89855980e-01   4.60286790e-01  -9.44999190e-01
C     1.111107441590000e+01   7.671204251164053e+00   3.275523000000000e+00  8.02624580e-01  -7.88398150e-01  -6.97079700e-02
C     1.107421236220000e+01   6.642827395218415e+00   2.307000000000000e-03 -2.07460656e+00  -2.52869752e+00  -9.76640370e-01
C     1.227144526210000e+01   7.307921443203982e+00  -4.712879999999942e-02  2.25301007e+00   1.55934211e+00   1.24866679e+00
C     1.236166904420000e+01   6.958093639447350e+00   3.193300200000000e+00  3.90792760e-01  -1.14658640e+00   1.47835125e+00
C     1.361782106430000e+01   7.652473419335545e+00   3.416149800000000e+00 -1.10879250e+00  -1.36069794e+00  -9.87332280e-01
