64
Lattice="9.86 0 0 4.93 8.53901048131456 0 0 0 30 " PBC="1 1 1" Properties=species:S:1:pos:R:3:force:R:3 Energy="-508.48805592"
C     5.010881777200000e+00   8.499503381772604e+00  -4.283996999999999e-01 -4.04258978e+00   8.06313630e-01  -6.20486220e-01
C     1.235590222600000e+00   7.271455855119456e-01  -5.158784999999995e-01  5.27515570e-01  -8.96389640e-01   1.19860869e+00
C     4.850030470000000e-02   2.227289876571760e-02   3.754110600000000e+00 -2.35708768e+00   8.78456960e-01  -6.24370390e-01
C     1.247196625800000e+00   7.056194232127040e-01   3.756237600000000e+00 -1.51425972e+00   1.42372562e+00   4.84442890e-01
C     2.451383290700000e+00   7.036989997557520e-02  -4.744604999999993e-01  2.59984608e+00  -5.66826588e+00  -9.47331990e-01
C     3.755081709800000e+00   6.049082842490687e-01  -4.009320000000010e-01 -9.72801130e-01   4.78965206e+00   1.95503198e+00
C     2.397257363000000e+00   6.077640709140000e-02   3.586766100000000e+00  5.95948132e+00  -9.22287320e-01  -7.69355560e-01
C     3.665169109300000e+00   8.406446611803240e-01   3.551607300000000e+00 -5.95464610e-01  -2.09907924e+00   9.15905430e-01
C     9.938547816600000e+00   8.513138132146647e+00  -2.339046000000025e-01 -1.91638252e+00  -4.97713750e-01  -6.15947650e-01
C     6.247929554300001e+00   7.463606646247752e-01  -2.458340999999997e-01 -1.70796063e+00  -5.03800940e+00  -4.02297460e-01
C     9.788577709599998e+00   8.526150730217120e+00   3.563533500000000e+00 -8.34253600e-01   4.46743452e+00  -9.39892880e-01
C     6.036060487199999e+00   7.094394349410368e-01   3.501948300000000e+00  5.83895044e+00   5.55215900e-02   1.33037602e+00
C     1.236306329750000e+01   8.510789818874542e+00  -2.941340999999973e-01  8.34564590e-01  -1.28892377e+00   1.31886479e+00
C     8.648010870599999e+00   6.698799071892928e-01  -4.451435999999980e-01  8.26467670e-01   6.14687270e-01   8.24911630e-01
C     1.231702089360000e+01   8.522016824463542e+00   3.612832500000000e+00 -5.12658200e-02   3.80058614e+00  -4.28642570e-01
C     8.717169748700000e+00   7.768852361678409e-01   3.723417300000000e+00 -5.17480529e+00  -1.77719926e+00  -5.27574100e-01
C     1.103613669040000e+01   2.082408656537809e+00  -2.087826000000028e-01  1.58665053e+00   7.25841870e-01  -7.72772820e-01
C     2.413331726600000e+00   2.774413310660992e+00  -2.160900000000154e-02  2.64128268e+00  -1.72689833e+00   1.33846240e-01
C     1.229451288000000e+00   2.096182080442050e+00   3.910086300000000e+00  3.64818410e-01   3.39336148e+00   1.26444210e-01
C     2.390054140000000e+00   2.966503133254461e+00   3.877567200000000e+00  3.48467887e+00  -2.88827190e+00  -8.16952850e-01
C     3.722561802900000e+00   2.081344952002316e+00  -1.059114000000001e-01  1.42163770e-01  -1.11548897e+00  -1.79634309e+00
C     4.983201207600000e+00   2.791014171715370e+00  -2.384868000000004e-01 -3.20143934e+00   1.00238219e+00   3.78155330e-01
C     3.748828941500000e+00   2.278740574147638e+00   3.710476500000000e+00 -4.25099377e+00  -3.39721952e+00   3.66569680e-01
C     4.983326626800000e+00   2.854983656385661e+00   3.725880600000000e+00 -1.14057525e+00   2.48315919e+00  -1.38831961e+00
C     6.175541131799999e+00   2.082158805091165e+00  -4.029522000000014e-01 -3.44448300e-01   1.78235589e+00   2.93568560e-01
C     7.360795659999999e+00   2.780760357150776e+00  -4.829286000000010e-01  1.91630600e+00   6.63319310e-01   4.61616530e-01
C     6.173969743599999e+00   2.123946502237560e+00   3.586392300000000e+00 -7.04776620e-01   1.63827065e+00   3.42585200e-01
C     7.366905951300000e+00   2.959502083952014e+00   3.657088800000000e+00  8.00647390e-01  -3.38475363e+00  -1.43341153e+00
C     8.583321777000000e+00   2.131164698576514e+00  -4.050735000000003e-01  2.07838105e+00  -2.80473322e+00  -9.59604800e-01
C     9.860326957600000e+00   2.782220527942856e+00  -3.059235000000022e-01 -1.80778025e+00   2.07614410e+00   1.23254962e+00
C     8.576943589499999e+00   2.187582709328816e+00   3.703635000000000e+00  2.15335593e+00  -8.89036700e-02   1.45761592e+00
C     9.860479393200000e+00   2.810217893944261e+00   3.955007700000000e+00 -1.79906389e+00   1.89057518e+00  -1.58707868e+00
C     2.520874500100000e+00   4.112788182929826e+00   2.018097000000000e-01 -1.56153663e+00   5.94489255e+00  -9.33167760e-01
C     3.815279918500000e+00   4.942737135753217e+00   3.772920000000000e-02 -4.05006003e+00  -1.86498946e+00   6.70365310e-01
C     1.234112652300000e+01   4.361609227180005e+00   3.801647100000000e+00 -1.54133523e+00  -3.45044750e-01   2.54116550e-01
C     3.732467158900000e+00   5.038794855565671e+00   3.664521600000000e+00 -3.09095105e+00   8.92707530e-01   1.62600850e-01
C     4.966037560500000e+00   4.257164405883989e+00  -2.283924000000006e-01  2.27222838e+00  -2.90560419e+00   6.06323210e-01
C     6.231645912199999e+00   4.890658820907059e+00  -3.122420999999989e-01 -1.99459766e+00   2.54828444e+00  -1.67572734e+00
C     4.858500160700000e+00   4.297983437681533e+00   3.569028600000000e+00  4.44296329e+00  -9.52876100e-01   9.43846660e-01
C     6.084484327600000e+00   4.995743128697922e+00   3.501367500000000e+00  1.82467594e+00   2.78681005e+00  -1.45490573e+00
C     7.436420676800001e+00   4.168010390654510e+00  -4.291157999999982e-01 -2.05310846e+00   1.10081451e+00   1.59296470e-01
C     8.608710981200000e+00   4.885050228043585e+00  -3.174899999999994e-01  2.07646174e+00  -1.61104330e-01   7.42433240e-01
C     7.391288498800000e+00   4.357673597249772e+00   3.431556600000000e+00 -2.93570681e+00  -9.51778710e-01   1.91964323e+00
C     8.581206264700000e+00   5.038949240875150e+00   3.590521800000000e+00  3.17201156e+00  -2.35163990e-01  -3.44805170e-01
C     9.863131733199999e+00   4.216008680903220e+00  -9.298859999999820e-02  3.21679740e-01   1.54190840e-01  -5.94357500e-01
C     1.106141639930000e+01   4.958624647872095e+00   1.449267000000000e-01  2.10407310e+00  -4.92301680e-01  -3.45664310e-01
C     9.799094188400000e+00   4.247609338546974e+00   3.838974600000000e+00  2.50235575e+00   1.93907752e+00  -3.73050230e-01
C     1.111134300230000e+01   5.027392544091517e+00   3.788045100000001e+00 -3.28661902e+00   1.34004034e+00   2.89912830e-01
C     3.722630773600000e+00   6.334197840714745e+00   2.081490000000000e-02  4.02997670e-01   1.71605616e+00  -1.05142178e+00
C     4.898439224600000e+00   7.106076911208476e+00  -3.538062000000011e-01  1.34572913e+00  -2.22294369e+00   3.75411270e-01
C     1.354054351150000e+01   6.464026407684446e+00   3.645137400000000e+00 -5.65296600e-02  -8.84052050e-01  -3.95177390e-01
C     4.884255269500000e+00   7.177308055781063e+00   3.569601600000000e+00  1.80249737e+00  -6.08639310e-01   2.30743570e-01
C     6.113273703499999e+00   6.352464577323665e+00  -5.169443999999999e-01  2.44381260e+00  -4.04097850e-01   1.20238978e+00
C     7.393947642200001e+00   7.056719039711141e+00  -5.584032000000008e-01 -1.52297469e+00   1.16553921e+00   1.06323913e+00
C     6.124222050299999e+00   6.473675831087264e+00   3.425860800000000e+00  1.44078657e+00  -1.62549077e+00   8.46043620e-01
C     7.456547648299999e+00   7.176292255094363e+00   3.453927300000000e+00 -2.74747683e+00  -4.22579350e-01  -2.92652080e-01
C     8.578649369499999e+00   6.269335431718559e+00  -2.889653999999986e-01  8.78768390e-01   4.55871452e+00  -8.72961260e-01
C     9.810785634100000e+00   7.102276795374562e+00  -1.623188999999989e-01  2.13124073e+00  -1.18161409e+00   3.50025590e-01
C     8.710695031800000e+00   6.466780323954350e+00   3.439455900000000e+00 -4.40392643e+00  -1.84080845e+00   6.37039800e-01
C     9.870308136999999e+00   7.159953627051825e+00   3.537747600000000e+00 -6.34569810e-01   9.56329400e-02   3.57460110e-01
C     1.110003151170000e+01   6.479432319612252e+00   5.491290000000000e-02 -2.25764649e+00  -5.32042471e+00   4.44489150e-01
C     1.235286761380000e+01   7.030954624950256e+00   4.950720000000000e-02  2.83591080e-01   3.91309470e+00  -1.37314697e+00
C     1.104979451590000e+01   6.514038879725177e+00   3.699355200000000e+00  2.11975449e+00  -4.51952057e+00  -4.02985770e-01
C     1.228736290100000e+01   7.152622374214118e+00   3.627985200000000e+00  1.26880557e+00  -1.55260550e-01   6.39295100e-01
