52
Lattice="8.88768389401873 1.33226762955019e-15 0 4.44384194700937 7.69696003302603 0 0 0 30 " PBC="1 1 1" Properties=species:S:1:pos:R:3:force:R:3 Energy="-418.34206769"
C     1.223567485996833e+01   6.497974855861184e+00  -1.477581000000008e-01  3.73298430e-01  -1.23952427e+00  -2.66758920e-01
C     8.545860016629234e+00   6.330270104065131e+00  -2.511201000000014e-01 -2.57999883e+00   7.62480130e-01   3.75335810e-01
C     9.853394295429602e+00   5.913248193882928e+00  -1.804868999999982e-01  1.95346536e+00   2.98712950e-01  -2.54158980e-01
C     1.018646478102699e+01   4.529106026836836e+00  -1.946183999999995e-01  1.00679010e+00   3.33610190e-01   2.30646850e-01
C     6.133135446357488e+00   5.713282788665135e+00  -1.301589000000014e-01 -1.26348344e+00   6.39869900e-01   1.35922760e-01
C     7.491057382491199e+00   5.359459231836457e+00  -1.792758000000028e-01  1.25599256e+00  -7.49967110e-01  -6.55335880e-01
C     7.888854470198469e+00   3.996352548673955e+00  -2.681937000000012e-01 -3.93296713e+00  -2.31858045e+00   1.14663970e+00
C     9.190990325339019e+00   3.538361798431270e+00  -2.023724999999992e-01  4.27569480e-01   1.87169800e-01  -2.25160100e-01
C     9.533489043766261e+00   2.162944135579183e+00  -1.633865999999990e-01 -1.11095023e+00  -1.55306817e+00  -7.43141010e-01
C     3.685009764689451e+00   5.104638593089657e+00  -1.869423000000019e-01  1.20120892e+00   5.29492310e-01   4.80619830e-01
C     5.098019476409488e+00   4.726291059182993e+00  -1.488326999999998e-01 -1.07772468e+00   1.50054510e-01   4.31441670e-01
C     5.423746513203632e+00   3.358883622634128e+00  -7.199370000000016e-02 -3.25538130e-01  -1.23905170e+00  -1.83600421e+00
C     6.789972167909886e+00   2.931992901210261e+00  -1.903758000000018e-01  3.45569830e-01   3.41164760e+00   2.54419330e-01
C     7.080783405298694e+00   1.591621960401974e+00  -1.863062999999983e-01  3.19163447e+00  -1.94305736e+00   2.74831880e-01
C     8.487892628068341e+00   1.129782653174689e+00  -1.727498999999995e-01 -6.53050760e-01   3.02705849e+00  -5.29817900e-02
C     2.657692692925344e+00   4.131250547734139e+00  -1.825028999999994e-01  8.35760480e-01  -4.94663290e-01  -1.66476380e-01
C     3.024588236931850e+00   2.734212509005784e+00  -2.309930999999992e-01 -1.11132853e+00   8.26776040e-01  -4.63735220e-01
C     4.359441611804448e+00   2.341650383254916e+00  -2.587152000000010e-01  2.22128233e+00   1.54515234e+00   1.27531170e+00
C     4.725718750794663e+00   9.889077337424089e-01  -2.512439999999998e-01  1.07488778e+00  -6.09560740e-01  -4.70204100e-02
C     6.129887127869520e+00   5.695110035125504e-01  -1.476278999999998e-01 -2.54537731e+00   1.22655546e+00  -5.81356810e-01
C     1.091082239584711e+01   6.914766011181687e+00  -1.466472000000003e-01 -1.56638998e+00  -1.28868346e+00  -5.91227700e-02
C     1.995438702500477e+00   1.756475681233314e+00  -2.822651999999977e-01 -3.56550000e-02  -1.09473560e-01   1.10325672e+00
C     2.333068569932020e+00   3.701588151003468e-01  -2.143742999999994e-01 -3.00562800e-02   4.76100880e-01  -3.51898500e-01
C     3.714918506337231e+00   2.155295050640570e-02  -3.073295999999992e-01 -7.83341900e-02  -1.44212557e+00   7.89114110e-01
C     4.343290960411379e+00   7.473089329351431e+00  -1.723781999999972e-01  2.57400683e+00  -1.30673980e-01   7.46062310e-01
C     5.749493328407833e+00   7.092099736944871e+00  -8.926199999999795e-02 -1.22049630e-01  -3.09587480e-01  -1.08036199e+00
C     1.102584555974575e+00   1.194859603562736e+00   3.609726300000000e+00 -5.92115740e-01   3.94302420e-01   9.92533470e-01
C     3.466929107092166e+00   6.176201594536627e-01   3.632535300000000e+00  1.82855890e-01  -2.60773980e-01   4.90868390e-01
C     4.823916014942948e+00   1.034597504237291e+00   3.573938100000000e+00  5.28618920e-01  -1.63592712e+00  -3.94210110e-01
C     5.837666658085275e+00   4.362636945004000e-03   3.474896700000000e+00  1.52009910e-01   5.79522170e-01   9.87626270e-01
C     7.224703313959308e+00   3.729212540551138e-01   3.527532300000000e+00 -5.82712880e-01   9.46085960e-01  -9.68438700e-02
C     1.269021963283783e+01   7.102614015254652e+00   3.589991100000000e+00  1.03554284e+00   2.19102510e-01  -2.42868740e-01
C     5.168027853115080e+00   7.539103230683931e+00   3.658804800000000e+00  7.84497730e-01  -1.89114242e+00  -7.26704920e-01
C     6.218350604437175e+00   6.489054694943216e+00   3.615124500000000e+00 -1.97728017e+00   2.34578113e+00   2.45963500e-01
C     7.543051934049513e+00   6.927658496201537e+00   3.630928200000000e+00  2.00499721e+00  -7.36879540e-01   6.42245030e-01
C     8.592852311776511e+00   5.916923646236453e+00   3.733794600000000e+00 -5.84093790e-01   6.49956910e-01  -1.50395848e+00
C     9.943591622228350e+00   6.320864034060468e+00   3.587868300000000e+00  7.12665760e-01   2.03829300e-01  -4.66232730e-01
C     1.100448631802968e+01   5.353426277595342e+00   3.478575000000000e+00 -5.54355400e-01  -3.80427030e-01   1.48488920e+00
C     3.495202077133487e+00   5.715294927956177e+00   3.535315800000000e+00 -1.58169924e+00   1.07875400e+00  -3.76254140e-01
C     4.467821807972665e+00   4.724480272366335e+00   3.529724400000000e+00  1.82891756e+00   6.19662730e-01   4.55591690e-01
C     5.848948020780844e+00   5.148847776353168e+00   3.567663300000000e+00  7.10132840e-01  -2.03170137e+00   1.61108700e-02
C     6.914208702389109e+00   4.139551950035295e+00   3.571894800000000e+00 -1.83028265e+00   5.64099340e-01  -5.36496900e-02
C     8.257380283320291e+00   4.537984008413839e+00   3.639347700000000e+00  1.00299012e+00  -5.20992940e-01   9.92639500e-02
C     9.306517773142337e+00   3.524143665985453e+00   3.594996900000000e+00 -6.63701940e-01   2.47009171e+00   4.83075700e-01
C     1.067492877657302e+01   3.976447671249173e+00   3.640438500000000e+00 -1.50452639e+00  -4.78784750e-01  -1.29065018e+00
C     2.762514791424851e+00   2.973192496132442e+00   3.601069800000000e+00  1.65321532e+00   4.08453250e-01   1.09420950e+00
C     4.130269528239349e+00   3.367395382852904e+00   3.602037300000000e+00  1.98954880e-01  -1.78238880e-01  -6.98292980e-01
C     5.166850942678253e+00   2.403517855249654e+00   3.559158000000000e+00 -3.76922800e-02  -4.54027000e-01   8.95240400e-02
C     6.533240531227694e+00   2.767621625833600e+00   3.525959100000000e+00  1.08646070e+00  -7.15210500e-02   2.66244860e-01
C     7.573719772728341e+00   1.767608641190307e+00   3.556299600000000e+00 -6.14165860e-01   9.61904900e-02  -3.78985210e-01
C     8.938697952669829e+00   2.181276139221835e+00   3.573606300000000e+00  5.15271890e-01  -1.10969451e+00   9.15877400e-02
C     2.476601688187087e+00   1.610401003483168e+00   3.746684400000000e+00 -1.89823180e+00  -8.09597590e-01  -1.75268698e+00
