64
Lattice="9.86 0 0 4.93 8.53901048131456 0 0 0 30 " PBC="1 1 1" Properties=species:S:1:pos:R:3:force:R:3 Energy="-514.48799141"
C     9.902814930100000e+00   2.879937548271784e-01  -1.349349000000011e-01 -1.10876499e+00   1.75509613e+00   5.47023800e-02
C     1.233201686900000e+00   1.010507781054772e+00  -9.918749999999932e-02  2.23826890e+00   1.33691378e+00  -9.12251970e-01
C     1.153324052100000e+00   3.685466809704680e-01   3.716476200000000e+00  6.38404140e-01   4.60322340e-01  -7.14698680e-01
C     2.414275032800000e+00   1.069535142629553e+00   3.662730300000000e+00  1.12578250e-01   9.71848360e-01   5.86886250e-01
C     2.512806308600000e+00   3.503040243711008e-01  -1.333346999999989e-01  1.63862870e-01  -8.21407840e-01  -2.09563070e-01
C     3.780233978200000e+00   1.025727969504638e+00  -2.900070000000028e-01 -9.64161520e-01   1.33848946e+00   1.00956611e+00
C     3.632177746500000e+00   3.553277804067992e-01   3.710470800000000e+00  1.24777344e+00  -2.87279000e-02  -9.94646970e-01
C     4.891007545400000e+00   1.103583080676877e+00   3.549135600000000e+00 -1.20666907e+00  -9.98620330e-01   1.08102312e+00
C     5.030263283400000e+00   3.177369215212192e-01  -1.341491999999995e-01 -1.77367533e+00   1.43182302e+00  -7.84219360e-01
C     6.239587353400000e+00   1.087368695236824e+00  -1.593968999999973e-01 -3.75714150e-01  -1.51147915e+00   7.65198600e-02
C     6.130299212000000e+00   4.315641513623441e-01   3.618053100000000e+00 -4.73296970e-01  -2.67288532e+00  -8.58384360e-01
C     7.379600306899999e+00   1.085866427123078e+00   3.675804600000000e+00 -1.67837669e+00   2.81121520e-01  -4.45391730e-01
C     7.459731688800000e+00   3.959303482886752e-01  -1.806522000000008e-01 -1.32832510e-01  -2.43769106e+00   4.74197360e-01
C     8.687211667000000e+00   1.062302600752994e+00  -1.525298999999976e-01 -3.04718600e-01  -6.00197930e-01  -2.24026440e-01
C     8.558565042499998e+00   3.749336900292984e-01   3.607070400000000e+00  3.03517401e+00  -3.38592780e-01   7.30099530e-01
C     9.800553813499999e+00   1.104673426925068e+00   3.702966000000000e+00 -1.65146710e-01   7.51901970e-01  -1.13703793e+00
C     1.108408306030000e+01   2.451362989868593e+00  -2.479398000000010e-01  1.01744354e+00  -2.04491670e-01   1.13057500e-02
C     2.467400712800000e+00   3.194875040597240e+00  -3.444813000000018e-01  1.19405851e+00  -2.10979185e+00   2.79784810e-01
C     2.474595505500000e+00   2.547992311042578e+00   3.612918900000000e+00 -2.21318374e+00  -3.15254821e+00  -4.29076410e-01
C     3.646913565800000e+00   3.249077092739879e+00   3.556066200000000e+00  1.81242464e+00  -3.68512200e-01  -4.05858140e-01
C     3.752889141600000e+00   2.508307003666464e+00  -3.678039000000020e-01 -1.68963107e+00  -3.06964352e+00   8.25827300e-01
C     4.960129448500000e+00   3.146762242217994e+00  -2.064236999999984e-01  1.11594123e+00   2.62931117e+00  -4.00959480e-01
C     4.892144649900000e+00   2.503802419467950e+00   3.536059800000000e+00 -1.04699117e+00   3.17847370e-01   5.06462500e-02
C     6.117308809900000e+00   3.156155495306414e+00   3.559297800000000e+00  7.02821330e-01   2.98675087e+00   6.27466830e-01
C     6.223799817200000e+00   2.478920511440173e+00  -1.493238000000012e-01 -1.83104697e+00   1.09108040e-01   1.67644080e-01
C     7.417324765500000e+00   3.181174454452394e+00  -1.023953999999989e-01  5.88508910e-01   9.77303330e-01  -6.12555840e-01
C     7.360982556300000e+00   2.485775714443621e+00   3.675697200000000e+00  5.83537070e-01   1.46625301e+00  -5.95079160e-01
C     8.585988660500000e+00   3.252353254890740e+00   3.606502200000000e+00  9.37041100e-02   3.54041870e-01  -4.03065210e-01
C     8.616146900199999e+00   2.465898349677963e+00  -1.811351999999999e-01  2.41168789e+00   5.33606650e-01   2.35463830e-01
C     9.876788030399998e+00   3.172401560475347e+00  -2.634110999999990e-01 -4.94229170e-01   1.41254200e-02   8.34399000e-01
C     9.822837955799999e+00   2.569931846839157e+00   3.556853400000000e+00  3.82618590e-01  -2.44171378e+00   8.47863960e-01
C     1.110087232320000e+01   3.212008906685779e+00   3.510429600000000e+00 -1.34298065e+00   1.73721341e+00   4.55629960e-01
C     1.239376842210000e+01   4.578109775202964e+00  -3.048636000000009e-01 -1.50925002e+00   1.33064841e+00  -3.14067930e-01
C     3.749247399900000e+00   5.314177772765461e+00  -2.587532999999986e-01 -4.48066660e-01  -9.25827320e-01  -1.15795230e-01
C     3.624457021400000e+00   4.647420837879020e+00   3.490456800000000e+00  1.89227746e+00   9.48285260e-01   9.88096930e-01
C     4.894607480700000e+00   5.338004515268225e+00   3.602060400000000e+00 -9.55924430e-01  -1.32042129e+00  -5.13838570e-01
C     4.967070001100000e+00   4.601994582976991e+00  -1.951418999999994e-01  5.12331160e-01  -6.15746420e-01   2.60320000e-01
C     6.195728890200000e+00   5.314376304759122e+00  -1.029753000000007e-01  2.85596570e-01   1.22527460e-01  -5.55270960e-01
C     6.087175466699999e+00   4.640895923800937e+00   3.616997100000000e+00  2.82206514e+00  -1.41895497e+00  -7.76459100e-02
C     7.358694987000000e+00   5.402721931866459e+00   3.666496200000000e+00 -8.30816320e-01  -2.94974392e+00  -9.42688210e-01
C     7.449230788800000e+00   4.614901211927406e+00  -1.505238000000020e-01 -1.30439288e+00  -7.95548190e-01   3.95221640e-01
C     8.656414795100000e+00   5.302509556504961e+00  -2.171208000000000e-01  1.09667324e+00   6.77682030e-01   2.07933290e-01
C     8.613175342700000e+00   4.691990117689275e+00   3.526374900000000e+00 -2.23545269e+00  -1.28632289e+00   1.01920320e+00
C     9.823530670099998e+00   5.370172163207852e+00   3.505818000000000e+00  1.45736380e+00  -1.08167686e+00  -2.84256940e-01
C     9.927251017400000e+00   4.589825382971629e+00  -2.025275999999998e-01 -1.28602853e+00   3.72716660e-01  -1.17766541e+00
C     1.114879754340000e+01   5.286755679900094e+00  -3.146403000000007e-01  1.38022750e-01   1.62075606e+00   6.36625870e-01
C     1.107317730870000e+01   4.644177977869030e+00   3.511919100000000e+00  1.25341470e-01   7.00267090e-01  -2.84144560e-01
C     1.230822153380000e+01   5.399491453421666e+00   3.546405000000000e+00 -1.67825055e+00  -1.73038335e+00  -1.23462970e-01
C     1.355637167090000e+01   6.712291647742481e+00  -2.499569999999984e-01  1.41529621e+00   1.64892777e+00   5.34507800e-01
C     4.947951066699999e+00   7.442436304515212e+00  -1.878050999999985e-01 -3.18835760e-01  -1.49182576e+00   3.55513470e-01
C     4.955118202100000e+00   6.712296600368559e+00   3.627814200000000e+00 -3.30578427e+00   3.19707993e+00  -5.05249610e-01
C     6.099979021799999e+00   7.475575777237568e+00   3.617474400000000e+00  1.83463895e+00   6.70912380e-01   1.07857724e+00
C     6.183060121300000e+00   6.741968295544883e+00  -1.173470999999999e-01 -1.01160670e-01  -4.75472640e-01   1.12205000e-01
C     7.423642560499999e+00   7.439226148915361e+00  -8.718299999999957e-02 -9.33463550e-01   1.30893998e+00  -6.56256440e-01
C     7.348543821200000e+00   6.781471380437353e+00   3.671851200000000e+00 -3.36648350e-01   7.24868020e-01   1.80118250e-01
C     8.580250189799999e+00   7.448278268535104e+00   3.716411100000000e+00  7.20155290e-01   1.81811325e+00  -1.05643886e+00
C     8.605127758600000e+00   6.733872203538480e+00  -2.281005000000000e-01  2.99091884e+00  -1.31379820e-01   1.09904579e+00
C     9.889245351600000e+00   7.455589710868499e+00  -1.384506000000023e-01 -1.03742740e-01  -1.17163717e+00  -1.03678619e+00
C     9.817342780599999e+00   6.760489494666107e+00   3.508949700000000e+00  2.80882990e-01   1.79023839e+00   7.70789490e-01
C     1.104741219200000e+01   7.503028695930769e+00   3.491496000000000e+00  4.33869660e-01   7.90080600e-01   1.40893959e+00
C     1.112696237620000e+01   6.757397689751509e+00  -2.779088999999999e-01 -1.98325200e-02  -1.18030182e+00   1.03182432e+00
C     1.236197677480000e+01   7.470243335973017e+00  -1.800038999999991e-01 -6.00836640e-01   2.37424390e-01  -9.66567180e-01
C     1.229388578400000e+01   6.795517369556115e+00   3.625464600000000e+00  5.68620520e-01   1.34180856e+00  -1.39860464e+00
C     1.356672191010000e+01   7.501730680947704e+00   3.577888500000000e+00 -1.19696020e+00  -1.45299108e+00   6.72174630e-01
