76
Lattice="10.7446858958278 0 0 5.37234294791388 9.3051709414712 0 0 0 30 " PBC="1 1 1" Properties=species:S:1:pos:R:3:force:R:3 Energy="-601.8910593"
C     6.868690887177600e-02   5.038973388112560e-02  -3.785078999999989e-01  1.99677200e-01   1.14555450e-01   2.63729410e-01
C     1.248109112604454e+01   8.431077145770331e+00  -7.716384000000005e-01  1.39000292e+00   5.98706976e+00  -9.15640000e-02
C     1.390474873810745e+01   8.439561693685132e+00  -7.565702999999999e-01 -8.45052620e-01  -6.77723951e+00   1.49827516e+00
C     1.447399354761730e+01   6.998500856426562e+00  -4.034574000000006e-01 -1.25151676e+00   1.42346981e+00  -1.17395671e+00
C     8.356508349602043e+00   9.023699475597907e+00  -2.471442000000010e-01 -1.01156111e+00   4.81175910e-01   8.85948060e-01
C     9.757153906702637e+00   8.854572410660841e+00  -4.599267000000005e-01 -7.02553980e-01  -7.01531910e-01   6.75575480e-01
C     1.028352312159713e+01   7.491918060363225e+00  -3.642023999999999e-01 -1.22066746e+00   6.12848230e-01  -8.68141080e-01
C     1.168237334913069e+01   7.352546326644418e+00  -4.772633999999982e-01 -1.70307257e+00  -5.90235720e-01   1.55326251e+00
C     1.215071427611935e+01   6.096214162231171e+00  -6.420899999998397e-03  2.19936778e+00   1.52350785e+00  -1.91556078e+00
C     1.353082088261123e+01   5.845673644343894e+00  -1.262526000000008e-01  3.05829098e+00   3.28629912e+00  -7.64699050e-01
C     6.013037986701389e+00   8.052485658181560e+00  -4.181694000000000e-01  1.34495328e+00  -1.75623292e+00   2.15108680e-01
C     7.523742812008280e+00   7.832929684593712e+00  -3.029771999999973e-01 -2.37480746e+00   7.56095190e-01  -9.83673770e-01
C     8.047939075349785e+00   6.470317486720454e+00  -4.040652000000016e-01 -3.03580657e+00   8.12297190e-01   7.11424900e-01
C     9.404040817902185e+00   6.267448941437856e+00  -2.156036999999991e-01  6.39751320e-01   4.62002096e+00   3.97884560e-01
C     9.903980308143286e+00   5.084475674009160e+00   2.288967000000000e-01  1.14983497e+00  -2.11417029e+00  -2.39077506e+00
C     1.132712615081678e+01   5.052573174596499e+00   1.570647000000000e-01 -5.20070600e-01  -6.04083933e+00   1.57196087e+00
C     1.195694831751538e+01   3.658296317479804e+00   2.115048000000000e-01 -4.61720368e+00   5.87222990e-01   1.56088530e-01
C     5.138038419687355e+00   6.840823152969203e+00  -4.917090000000002e-01  5.41838190e-01  -6.18613850e-01   5.81527040e-01
C     5.687408998581693e+00   5.425747563870839e+00  -4.060842000000022e-01  6.21978730e-01   4.21906489e+00   2.71041680e-01
C     7.142899945283967e+00   5.315020310063472e+00  -3.597636000000008e-01 -5.92618560e-01   1.94182880e-01   7.21425930e-01
C     7.691728615944939e+00   4.007141499866131e+00  -1.332549000000007e-01  3.55917810e-01   3.69611372e+00  -2.19380090e-01
C     9.084980324890306e+00   3.897447492239940e+00  -5.946600000001467e-03  8.41808480e-01  -3.00527960e-01   6.69638050e-01
C     9.649771300924318e+00   2.603282642973971e+00  -1.352180999999995e-01  1.70323991e+00   6.12875410e-01  -6.50976380e-01
C     1.108842425035270e+01   2.483903441226592e+00   7.492530000000000e-02 -5.37451780e-01   1.11952947e+00   1.27262170e-01
C     3.382770091693928e+00   4.602982023063304e+00  -2.845110000000162e-02  2.94278370e-01  -1.19463592e+00   7.73081880e-01
C     4.779128250503275e+00   4.401721318267429e+00  -1.504997999999986e-01  2.73259387e+00  -1.56575992e+00   1.03352727e+00
C     5.496712850462789e+00   3.059089741746794e+00   5.162970000000000e-02 -3.88016372e+00   2.17770629e+00  -1.17890958e+00
C     6.846357144236149e+00   2.917422980667346e+00  -1.302351000000002e-01  1.48035847e+00  -6.52600080e-01  -1.94980199e+00
C     7.476972053860452e+00   1.773262418694775e+00  -7.230990000000013e-01 -1.85801095e+00  -2.70328681e+00   2.12930785e+00
C     8.870820200320130e+00   1.543359374176776e+00  -6.916089000000021e-01  2.21621110e-01   2.28849260e-01   1.32054074e+00
C     9.366401108725896e+00   1.886642018426880e-01  -7.164266999999995e-01  3.29212840e+00   3.15651780e+00   7.64707320e-01
C     2.542660077776650e+00   3.453481130436558e+00   1.991574000000000e-01  2.88792661e+00   2.41575742e+00  -7.18677100e-01
C     3.192195573419411e+00   2.247933146100585e+00   6.825539999999999e-02  2.55617210e-01  -3.52441737e+00   7.22859690e-01
C     4.590685531634748e+00   1.992910048216381e+00  -4.280819999999963e-02  1.13359958e+00   1.83494200e-02  -1.16391526e+00
C     5.172894556810962e+00   7.614952705462674e-01  -5.000642999999982e-01  9.25533700e-01  -1.33672562e+00   1.01203876e+00
C     6.612801196190156e+00   6.272771127008698e-01  -7.234563000000023e-01 -1.64927816e+00  -2.93930090e+00  -5.48160960e-01
C     9.194613458853811e-01   1.217896876690447e+00   2.458350000000000e-02  1.08251367e+00  -2.15938588e+00  -1.24634292e+00
C     2.417668597234547e+00   1.085162614454851e+00   8.960910000000000e-02 -2.63590719e+00  -3.07098332e+00  -1.95431167e+00
C     1.607174402818871e+01   9.253484716651803e+00   3.484749300000000e+00 -1.60980829e+00   1.35919668e+00  -4.40730260e-01
C     1.180722804982129e+01   8.789331251752639e+00   3.487111500000000e+00 -1.42540445e+00   1.24448462e+00   2.65149144e+00
C     1.318766167082854e+01   8.946673131590774e+00   3.510414900000000e+00  2.64807478e+00  -6.18942700e-02   4.81505520e-01
C     1.408533000009038e+01   7.770636310787592e+00   3.583954800000000e+00 -1.07366684e+00   1.18520258e+00   3.45062550e-01
C     7.579790639409027e+00   8.308642218937965e+00   3.826785300000000e+00  2.37104310e+00   2.39833270e-01  -2.43132696e+00
C     9.048192830476175e+00   8.502585058151496e+00   3.679671000000000e+00 -1.71342973e+00  -3.59971613e+00  -3.14273400e-01
C     9.879606095625995e+00   7.201077684600191e+00   3.644184300000000e+00 -2.07836924e+00   5.69270777e+00   1.52269589e+00
C     1.125637293139958e+01   7.490862947030339e+00   3.784741799999999e+00 -9.54878460e-01   1.22513863e+00  -1.99336459e+00
C     1.209865514474183e+01   6.439139767072309e+00   3.919617300000001e+00 -1.71932860e-01  -4.48974566e+00  -1.06140901e+00
C     1.348407354787866e+01   6.492110569268772e+00   3.787881600000000e+00  1.39311219e+00   1.38073720e+00  -8.29341400e-02
C     4.746275567512583e+00   7.942280145308797e+00   3.570043500000000e+00  1.23691994e+00   1.15432997e+00  -2.55721050e-01
C     5.679765175309004e+00   6.851022178629699e+00   3.645315600000000e+00 -2.76271918e+00   1.03170910e-01   1.45011642e+00
C     7.061095171737458e+00   6.984071327849904e+00   3.694023000000000e+00  3.54300130e-01   5.74214600e-02   1.20961417e+00
C     7.843860206048712e+00   5.778089443392999e+00   3.790690200000000e+00 -7.92988270e-01   2.04091143e+00   6.48115180e-01
C     9.236430540737732e+00   5.981676813130712e+00   3.767756700000001e+00  1.08258645e+00  -1.40905075e+00  -8.69490500e-01
C     1.011030685828778e+01   4.866918171984097e+00   3.594012000000000e+00 -6.92348580e-01  -7.37319170e-01   1.30292947e+00
C     1.150809771351503e+01   5.113997724591950e+00   3.777763500000000e+00  2.06099347e+00  -3.13920615e+00  -1.10409616e+00
C     1.248166489227160e+01   3.863438581281591e+00   3.553926300000000e+00 -3.69503522e+00   2.25733421e+00  -3.82658930e-01
C     3.618209314561042e+00   5.397449794628623e+00   3.800921100000000e+00  4.27628700e-01  -1.17636140e+00  -1.58214360e-01
C     5.036727044953403e+00   5.631545563068768e+00   3.951825599999999e+00 -1.19458720e+00  -2.53293904e+00  -2.15137408e+00
C     5.742813004403313e+00   4.405303809079329e+00   3.942829800000000e+00  3.51729960e+00   1.66719330e-01   1.86036997e+00
C     7.213758247729274e+00   4.517776154644785e+00   3.988899300000000e+00 -8.83277910e-01   8.59749050e-01  -2.35705487e+00
C     8.006393350508267e+00   3.420364027061098e+00   3.624468900000000e+00  2.59339822e+00  -1.11277446e+00   1.33772958e+00
C     9.433134365083903e+00   3.566507040621234e+00   3.448178100000000e+00  2.47334942e+00   6.55810570e-01  -7.76761180e-01
C     1.036297169297262e+01   2.467255466846128e+00   3.161573100000000e+00 -1.14595212e+00  -4.03465200e-01   2.55497456e+00
C     1.177748992893243e+01   2.608889473723869e+00   3.317916000000000e+00  2.38118695e+00  -2.22948940e-01  -9.21907700e-02
C     3.144141416264258e+00   4.038956995930503e+00   3.542974500000000e+00 -1.10398220e+00   4.72122270e-01   1.36078932e+00
C     3.947645682129402e+00   2.835591074179960e+00   3.548973900000000e+00 -1.93131180e-01   4.04761137e+00   1.42573550e+00
C     5.277795140146379e+00   3.063784572692862e+00   4.013043300000000e+00 -7.28957300e-01   9.15589170e-01  -2.06565975e+00
C     6.163871403854723e+00   1.992686351906983e+00   3.959673000000000e+00 -1.48490139e+00  -3.58846292e+00  -1.02053607e+00
C     7.522616285415094e+00   2.086205273939881e+00   3.755055300000000e+00  1.90340187e+00   8.10565650e-01  -6.24231650e-01
C     8.409567381449417e+00   9.758414650282272e-01   3.555275100000000e+00 -4.28421650e-01  -9.33709280e-01  -8.64102680e-01
C     9.827348724793620e+00   1.137464747067566e+00   3.328458300000000e+00  5.75148700e-02  -8.82610220e-01   3.21523990e-01
C     1.928171168815073e+00   1.411222969174075e+00   3.354112500000000e+00 -1.33867353e+00   2.04025204e+00   6.29242830e-01
C     3.329738082731593e+00   1.636886950018648e+00   3.443309400000000e+00 -9.76564200e-02  -3.66112541e+00  -3.01227400e-02
C     4.215494208523547e+00   4.745300332211972e-01   3.513061500000000e+00 -1.30399319e+00   7.73056520e-01   1.41785698e+00
C     5.578917326324778e+00   6.673697444197914e-01   3.713690400000000e+00  2.05944259e+00  -2.38963870e-01  -1.07223459e+00
C     1.354588514713675e+00   1.343978406962490e-01   3.598317600000000e+00  3.62427310e-01  -4.96206360e-01  -6.52929860e-01
