64
Lattice="9.86 0 0 4.93 8.53901048131456 0 0 0 30 " PBC="1 1 1" Properties=species:S:1:pos:R:3:force:R:3 Energy="-516.10981101"
C     5.005309053100000e+00   6.898221086615258e+00   8.778299999999999e-03 -1.99416000e-02  -1.53202720e-01  -1.30151770e-01
C     6.246732106599999e+00   7.584843004702162e+00   8.261189999999999e-02 -2.08515830e-01   4.69139070e-01  -1.27843660e-01
C     9.799689535199999e+00   1.667313523908032e+00   3.196974900000000e+00 -5.07617500e-02  -9.11176570e-01   1.22045007e+00
C     1.102183431670000e+01   2.385428678886854e+00   3.241618800000000e+00 -6.32069000e-02   5.41529950e-01  -1.23832890e-01
C     7.479612604000000e+00   6.863509752843744e+00   1.043208000000000e-01 -1.70581724e+00  -4.01555010e-01  -2.53211380e-01
C     8.665218838399998e+00   7.567864207043940e+00   6.411960000000000e-02  1.34724264e+00   1.69757464e+00  -4.63027300e-02
C     2.395386674500000e+00   1.671705051607791e+00   3.192569700000000e+00  2.01491050e-01   3.99412340e-01   9.47338380e-01
C     3.652937286300000e+00   2.371305497113353e+00   3.296671800000000e+00 -6.91827240e-01  -6.26637220e-01  -5.82603240e-01
C     9.883240463700000e+00   6.883985189903422e+00   8.790000000000000e-04  1.84377870e+00  -1.02944590e-01  -5.87490800e-02
C     1.113430156860000e+01   7.588383449227381e+00  -3.690780000000160e-02  2.01650940e-01  -3.13915500e-02   1.71748600e-01
C     4.882717158799999e+00   1.681312036128525e+00   3.311324100000000e+00  5.74517900e-02  -1.61655101e+00   5.22777140e-01
C     6.111796774100000e+00   2.360203929588305e+00   3.373813500000000e+00 -1.04157330e-01   1.32595030e+00   4.08512000e-03
C     1.237919125020000e+01   6.856186355895677e+00  -7.449120000000065e-02 -2.68984870e-01   8.98886330e-01  -2.10960940e-01
C     1.360404003810000e+01   7.600365474123022e+00  -9.024359999999731e-02  7.30498920e-01  -1.56705755e+00   5.69491670e-01
C     7.347917908400000e+00   1.671551947149885e+00   3.421477200000000e+00 -8.16528740e-01  -4.60893070e-01  -9.15127700e-02
C     8.577580397599998e+00   2.354584833741941e+00   3.362981400000000e+00  1.30382700e-01   1.18085434e+00   1.58817840e-01
C     1.331628989000000e+00   4.818604601114304e-01   1.104060000000000e-01 -1.01783863e+00  -1.12384849e+00  -6.60205200e-02
C     2.541502458200000e+00   1.176604941137226e+00   1.514256000000000e-01  1.33512800e-01   6.36691250e-01  -6.36047460e-01
C     1.099279144020000e+01   3.823625096007517e+00   3.367334400000000e+00  6.18896950e-01  -1.08802019e+00  -2.22152440e-01
C     1.225693277180000e+01   4.472700558063337e+00   3.343372800000000e+00  3.67436410e-01   9.99727900e-01   1.18205580e-01
C     3.773950002999999e+00   4.747419994148832e-01   6.977040000000001e-02 -1.09276999e+00  -3.63953540e-01   2.84360740e-01
C     4.959936932000000e+00   1.215344040762051e+00   5.020530000000000e-02  1.89876891e+00  -1.05674308e+00   4.68935360e-01
C     3.658904755500000e+00   3.766976019631625e+00   3.295732500000000e+00 -1.30473812e+00   7.38043170e-01   5.02750030e-01
C     4.872942546400000e+00   4.478263040270219e+00   3.360728700000000e+00 -3.51781100e-01   1.78217092e+00  -4.10175490e-01
C     6.220628200299999e+00   4.782150711474136e-01   4.811730000000000e-02 -5.49597230e-01  -3.83225300e-02  -6.58847220e-01
C     7.456464528500000e+00   1.165116129486910e+00   3.574230000000000e-02  2.68710040e-01   1.29772251e+00   1.98747390e-01
C     6.087719147100000e+00   3.792472821804066e+00   3.355619700000000e+00  1.62087427e+00  -5.87494870e-01   4.72161860e-01
C     7.352745068599999e+00   4.488327801142786e+00   3.427935600000000e+00 -1.59137486e+00   7.84451200e-01  -1.04591410e-01
C     8.697450438899999e+00   4.490094351630888e-01  -3.296010000000038e-02  2.70848900e-02   1.69669793e+00   5.39800790e-01
C     9.953064595999999e+00   1.176338865570669e+00   8.487390000000000e-02 -8.67596450e-01  -5.31656600e-01  -6.70626440e-01
C     8.574994661900000e+00   3.800162200741307e+00   3.471742200000000e+00 -1.00678568e+00  -1.21323070e+00  -5.82239780e-01
C     9.749938883899999e+00   4.534047456444906e+00   3.461381400000000e+00  2.16449326e+00   3.46858650e-01  -1.19646160e-01
C     2.499661844000000e+00   2.598108873621061e+00   1.081476000000000e-01  1.19174917e+00   6.67124780e-01  -1.60886720e-01
C     3.744784813200000e+00   3.313956835927338e+00   8.595990000000001e-02  3.77633500e-02   7.57131210e-01   1.46732540e-01
C     1.227707093440000e+01   5.899982497378569e+00   3.390104400000000e+00  7.99173200e-02   6.74460650e-01   1.92949660e-01
C     1.352064987690000e+01   6.660002333947363e+00   3.362542500000000e+00 -1.86823120e+00  -9.52607890e-01   3.21288620e-01
C     4.983511206000000e+00   2.628445416153357e+00   1.165413000000000e-01 -3.79052400e-01  -6.28986670e-01  -6.94948200e-01
C     6.224515061600000e+00   3.310358667691276e+00   6.398400000000000e-02 -3.91914390e-01   7.30690900e-01   6.29960660e-01
C     4.864596795900000e+00   5.938394125951487e+00   3.350243700000000e+00  6.01389520e-01  -6.88197690e-01  -3.70685890e-01
C     6.097246865100000e+00   6.649721365329443e+00   3.270130500000000e+00  1.13150580e-01  -1.59138052e+00   9.06196950e-01
C     7.445864929900000e+00   2.630411010975748e+00   1.232328000000000e-01  1.21932895e+00  -1.67979311e+00  -6.94100650e-01
C     8.702436246500000e+00   3.322791723120470e+00   1.056132000000000e-01 -3.63705810e-01  -1.17909290e-01  -1.09778870e-01
C     7.326018355400000e+00   5.921963618156186e+00   3.367767000000000e+00 -2.51149260e-01  -1.96805840e-01  -1.48747420e-01
C     8.525339849800000e+00   6.655484428892499e+00   3.369402600000000e+00  1.56619476e+00   2.90297030e-01   3.50561320e-01
C     9.929628756400000e+00   2.586185682507627e+00   5.975430000000000e-02 -3.53950030e-01   9.70696530e-01   3.91546520e-01
C     1.114566551440000e+01   3.331321767639466e+00   5.906760000000000e-02 -1.28531100e-01  -8.41524800e-01   2.96050800e-02
C     9.783999070699998e+00   5.965863097984390e+00   3.459228600000000e+00 -5.22459420e-01  -8.66652530e-01  -2.06494020e-01
C     1.104145201920000e+01   6.627063698751495e+00   3.445630800000000e+00 -1.24619760e-01   1.67117400e-02  -4.39295080e-01
C     3.766471045099999e+00   4.747342374543568e+00   4.726170000000000e-02  7.97298190e-01  -9.41871600e-02  -4.46742390e-01
C     5.037320824900000e+00   5.481465185518723e+00   5.093550000000000e-02 -1.81318330e+00  -1.06201032e+00  -2.53285360e-01
C     1.345809946660000e+01   8.080411992238185e+00   3.393000000000000e+00  1.12736099e+00   1.33682260e-01  -2.63462610e-01
C     9.785601961599999e+00   2.278790356578736e-01   3.266013600000000e+00 -8.18496900e-02   2.15457640e-01   6.51898700e-02
C     6.234338086599999e+00   4.728212685535540e+00   6.182970000000000e-02  7.84658760e-01   8.69585610e-01   1.61056040e-01
C     7.487015196200000e+00   5.437608229962708e+00   8.447940000000000e-02 -8.16289930e-01   2.43077810e-01   1.56973150e-01
C     6.102508801999999e+00   8.040282741707216e+00   3.263250300000000e+00 -8.00529520e-01   1.85745278e+00  -2.00766930e-01
C     2.381382615100000e+00   2.611976568201000e-01   3.259965600000000e+00  8.51277930e-01  -9.55221640e-01  -2.87032410e-01
C     8.717113497400000e+00   4.758135086059555e+00   1.106835000000000e-01  6.98594900e-02  -1.05170454e+00  -5.24332340e-01
C     9.944334897099999e+00   5.472189258434298e+00   1.480170000000000e-02 -1.05592489e+00  -2.88774240e-01   2.73336690e-01
C     8.558547639600000e+00   8.077593777219366e+00   3.308027400000000e+00 -3.01229870e-01   5.84432560e-01   2.03986920e-01
C     4.885535393300000e+00   2.434167045173864e-01   3.354921300000000e+00 -1.20379199e+00  -3.12474430e-01  -4.04849990e-01
C     1.114560191740000e+01   4.746096618304642e+00   5.408700000000000e-03  1.03312386e+00  -3.85740400e-02  -2.12685080e-01
C     1.239938891790000e+01   5.431786418007549e+00  -5.950890000000086e-02 -4.71339280e-01   6.83658990e-01   5.55646490e-01
C     1.102763732110000e+01   8.049593764124714e+00   3.379975800000000e+00 -2.63961500e-01   6.10473250e-01   8.18013710e-01
C     7.287559031000000e+00   2.591512829585680e-01   3.463677900000000e+00  1.77562940e+00  -8.52854850e-01  -8.52322010e-01
