64
Lattice="9.86 0 0 4.93 8.53901048131456 0 0 0 30 " PBC="1 1 1" Properties=species:S:1:pos:R:3:force:R:3 Energy="-514.12661778"
C     9.888013985499999e+00   3.214723116556952e-01  -1.340709000000011e-01  1.55540784e+00  -5.06357410e-01   3.26856690e-01
C     1.300291444000000e+00   1.033514180820722e+00  -1.261058999999989e-01 -1.49193809e+00   2.99164110e-01  -1.08054602e+00
C     1.156769382600000e+00   4.147962672629776e-01   3.746042400000000e+00  1.83113843e+00  -1.10551761e+00   8.35246400e-02
C     2.438331411500000e+00   1.084643811602551e+00   3.699076500000000e+00 -4.38785450e-01  -8.12265390e-01  -4.01304650e-01
C     2.535015860000000e+00   3.240909699995968e-01  -1.329212999999996e-01 -1.98108716e+00   3.31583520e-01   5.11487000e-01
C     3.734502460099999e+00   1.071721385482748e+00  -1.820972999999988e-01  5.33096060e-01  -1.59100683e+00  -3.97297500e-01
C     3.705577558499999e+00   3.375435832801033e-01   3.648379200000000e+00 -2.11513764e+00   2.50998669e+00   4.23534210e-01
C     4.885761926800000e+00   1.087445033990515e+00   3.580993500000000e+00  6.16455580e-01   4.20384900e-01   7.61271600e-02
C     4.934863346399999e+00   3.267626555985792e-01  -1.117340999999996e-01  2.00902290e+00  -1.28372971e+00  -4.57584280e-01
C     6.194518032900000e+00   1.006936766872036e+00  -1.549920000000000e-01 -3.29900380e-01   1.24724013e+00   8.95637130e-01
C     6.136322538100000e+00   4.078867561528760e-01   3.621350700000000e+00 -5.81014250e-01   3.01555150e-01  -9.45172200e-02
C     7.348978252799999e+00   1.098862715683533e+00   3.737883300000000e+00  1.27824966e+00   1.53992980e-01  -1.40642783e+00
C     7.464533656700000e+00   3.262519373817704e-01  -1.183931999999999e-01 -1.39645275e+00   4.91473840e-01  -3.80655390e-01
C     8.685287044300001e+00   1.072299476492244e+00  -1.110962999999998e-01 -2.23823320e-01  -1.46788936e+00  -3.38750570e-01
C     8.606969902399999e+00   3.579472926517488e-01   3.624742500000000e+00 -2.49689708e+00   1.19071261e+00   1.37591045e+00
C     9.764816095599999e+00   1.105577110404167e+00   3.742412100000000e+00  2.99915418e+00  -4.45118340e-01  -9.40568350e-01
C     1.112660228900000e+01   2.457827276972267e+00  -3.504308999999992e-01 -3.94866700e-01  -6.51853660e-01   8.10016330e-01
C     2.502256552300000e+00   3.137777153830519e+00  -4.648173000000000e-01 -8.95436440e-01   1.74765644e+00   2.95954480e-01
C     2.424607228200000e+00   2.471202953768349e+00   3.549486600000000e+00  5.94878140e-01   2.84229534e+00  -1.82280270e-01
C     3.673617403800000e+00   3.231583563529921e+00   3.530315400000000e+00 -1.95629889e+00  -3.12377800e-02  -8.03591220e-01
C     3.726031586200000e+00   2.455680740517805e+00  -3.891260999999986e-01  1.02606842e+00   1.50510287e+00   7.94864240e-01
C     4.967504038300000e+00   3.237297100832194e+00  -2.525204999999993e-01 -2.28030030e-01  -4.89730082e+00   1.55531790e-01
C     4.862009137499999e+00   2.509776140419548e+00   3.523665600000000e+00  1.80741587e+00   7.12771640e-01   4.79504070e-01
C     6.127156830000000e+00   3.247724001139217e+00   3.567227100000000e+00  9.36924700e-02  -1.26667188e+00   7.59572980e-01
C     6.166621381400000e+00   2.459117350675586e+00  -8.874359999999726e-02  1.05408365e+00   9.13462600e-02  -7.11897550e-01
C     7.418476216300000e+00   3.177172561800838e+00  -7.588200000000001e-02  1.66073310e-01   5.03042970e-01  -1.31329730e-01
C     7.349194778400000e+00   2.530113757850078e+00   3.674105100000000e+00  1.32848330e+00  -2.18622690e-01  -2.58551400e-02
C     8.632391102300000e+00   3.243556878634873e+00   3.631504500000000e+00 -2.06292341e+00  -1.00000529e+00   2.01421950e-01
C     8.681435777599999e+00   2.484503828832626e+00  -1.517361000000008e-01 -2.02436034e+00  -4.92807000e-01   4.39965630e-01
C     9.865764698299998e+00   3.176985045130697e+00  -2.676647999999986e-01  1.99506335e+00   3.22173120e-01  -3.03950500e-01
C     9.860524354799999e+00   2.506309558334982e+00   3.606454200000000e+00 -1.72255481e+00   1.72451443e+00  -8.06334600e-02
C     1.105291205070000e+01   3.254437456568698e+00   3.440757600000000e+00  1.11967086e+00  -2.43965205e+00   1.05512512e+00
C     1.234503990770000e+01   4.603695212304188e+00  -4.436105999999995e-01  1.37799390e+00  -1.89780544e+00  -4.16804300e-02
C     3.745613201099999e+00   5.249523801015093e+00  -3.611982000000005e-01 -3.85292530e-01   2.57903840e+00   3.70046100e-01
C     3.638966257900000e+00   4.682095966246098e+00   3.437485200000000e+00  9.61984800e-02  -1.43627857e+00   1.22365643e+00
C     4.881711093700000e+00   5.339683797069221e+00   3.578119200000000e+00  1.17896594e+00   2.12091103e+00  -2.01747000e-03
C     5.002698716700000e+00   4.585307136356347e+00  -2.029667999999987e-01 -1.89839245e+00   1.34402774e+00  -5.32543290e-01
C     6.203595247500000e+00   5.282419997328875e+00  -5.970000000000297e-02 -3.43813310e-01   5.65844960e-01   3.98016620e-01
C     6.180131799900000e+00   4.648013701376645e+00   3.677346000000000e+00 -3.33654696e+00   6.57418740e-01  -1.24026016e+00
C     7.363324848600000e+00   5.385557837680821e+00   3.632035500000000e+00  5.22264830e-01   1.27738390e-01   5.02611810e-01
C     7.419735338299999e+00   4.629480633030854e+00  -6.691529999999801e-02  1.83880313e+00  -1.62844700e+00  -1.95007710e-01
C     8.678994342999999e+00   5.362632302344116e+00  -1.548483000000012e-01 -1.34763099e+00  -2.26199673e+00   1.47980560e-01
C     8.567357450999999e+00   4.649218128804850e+00   3.612928200000000e+00  2.09739022e+00   4.43269720e-01  -1.03773885e+00
C     9.830719645400000e+00   5.331688977727112e+00   3.429737700000000e+00 -1.78654987e+00   2.49490206e+00   6.86311070e-01
C     9.867712048300000e+00   4.588894033098575e+00  -2.863025999999991e-01  1.03098075e+00   1.38879427e+00   1.89310300e-02
C     1.113641836270000e+01   5.313893765276896e+00  -3.596606999999992e-01 -1.18779604e+00  -2.00923471e+00   8.18442800e-02
C     1.105047002450000e+01   4.671251935277128e+00   3.412185000000000e+00 -4.90202240e-01  -1.32015287e+00  -2.21595300e-02
C     1.223573012360000e+01   5.369789017807615e+00   3.493234200000000e+00  2.77578414e+00   2.03421369e+00  -8.81648210e-01
C     1.359692516070000e+01   6.715377304569533e+00  -3.009608999999998e-01 -8.20637950e-01  -8.32880910e-01   4.63906530e-01
C     4.968210556600000e+00   7.390114627870374e+00  -1.567587000000010e-01 -1.03682968e+00   1.81331883e+00   5.96548990e-01
C     4.890221752700000e+00   6.817471934011138e+00   3.620955000000000e+00  2.12827957e+00  -2.61347371e+00   3.83161950e-01
C     6.175262685399999e+00   7.516037195276209e+00   3.736604100000000e+00 -3.00503627e+00   5.82472400e-01  -5.25525870e-01
C     6.152299484899999e+00   6.666203534138148e+00   4.578840000000000e-02  1.93143328e+00   2.87499627e+00  -1.39395682e+00
C     7.385277497700000e+00   7.456982850428311e+00  -2.551619999999843e-02  1.44447786e+00  -1.28660886e+00   6.16455200e-02
C     7.381151975100000e+00   6.817511555019765e+00   3.667257000000000e+00 -2.78221380e-01  -1.10718209e+00   4.87484010e-01
C     8.608805735800001e+00   7.498571332460208e+00   3.693409500000000e+00  5.74233680e-01  -1.13859830e+00  -1.22808501e+00
C     8.665267941200000e+00   6.763869064233882e+00  -1.183199999999971e-01 -1.84846135e+00  -9.38476650e-01   3.98218970e-01
C     9.893082370600000e+00   7.380872515267451e+00  -1.349346000000011e-01  2.07606440e-01   3.54041475e+00  -2.86480800e-02
C     9.810972185299999e+00   6.791029692598351e+00   3.464818200000000e+00  1.88470227e+00  -3.88218350e-01   7.23769600e-01
C     1.107803986630000e+01   7.559528681183679e+00   3.502369500000000e+00 -1.11323734e+00  -2.31708420e+00   6.07243700e-02
C     1.111721463230000e+01   6.680566491325926e+00  -2.358510000000003e-01  8.82265780e-01   2.88020051e+00   1.24575200e-02
C     1.235364689890000e+01   7.459735827407063e+00  -2.288244000000006e-01  7.14694570e-01  -1.80307445e+00  -1.35144880e-01
C     1.230620595260000e+01   6.835230599496500e+00   3.512760600000000e+00 -1.83849801e+00  -2.29121512e+00   6.21970500e-02
C     1.353153866930000e+01   7.476573731392365e+00   3.607271400000000e+00  3.82022570e-01   1.71434299e+00  -3.17595000e-01
