64
Lattice="9.86 0 0 4.93 8.53901048131456 0 0 0 30 " PBC="1 1 1" Properties=species:S:1:pos:R:3:force:R:3 Energy="-512.12587775"
C     4.895847622199999e+00   8.380263614748625e+00  -4.596528000000006e-01  3.67997200e+00   1.16538180e+00  -2.64153030e-01
C     1.241825834500000e+00   5.736513217771335e-01  -4.435479000000022e-01  1.62912990e-01  -6.71773300e-02  -7.64390230e-01
C     1.159682273100000e+00   8.938444042728200e-01   3.769498500000000e+00  3.30045404e+00  -2.85318275e+00   3.45478310e-01
C     2.470896526500000e+00   1.574041827044887e+00   3.832609500000000e+00 -1.57998938e+00   2.08173311e+00  -3.91397580e-01
C     7.444438040000000e+00   8.404839399250694e+00  -5.099909999999994e-01 -2.66548086e+00   4.18730590e-01  -2.11336500e-02
C     3.693761630300000e+00   6.130269192431383e-01  -5.604041999999971e-01  2.29740333e+00  -2.47527984e+00   1.67991276e+00
C     3.717371844000000e+00   8.925644919919729e-01   3.762306600000000e+00 -2.67077049e+00  -1.90823263e+00   1.94832540e-01
C     4.937711505999999e+00   1.546451515673064e+00   3.713164200000000e+00 -8.64123630e-01   2.64923366e+00   1.21692020e-01
C     9.874808290299999e+00   8.396742453343244e+00  -3.555416999999998e-01  6.34493850e-01  -2.89824430e-01  -2.20469320e-01
C     6.201695767800000e+00   5.337612489297089e-01  -3.067029000000012e-01 -3.43546860e-01   1.53879060e-01  -1.30729312e+00
C     6.151232780799999e+00   9.157586645983776e-01   3.671831700000000e+00  1.09976309e+00  -3.49091625e+00   7.72505260e-01
C     7.380589807200000e+00   1.615856080513875e+00   3.731382000000000e+00 -1.97377865e+00  -2.65946200e-02   5.45778940e-01
C     1.238090230530000e+01   8.386164327160619e+00  -4.071852000000007e-01 -1.60330984e+00   1.27676865e+00   1.10276637e+00
C     8.651455658800000e+00   5.874431045539056e-01  -4.989254999999986e-01 -2.10229990e-01  -1.57820875e+00   4.22280560e-01
C     8.561694359999999e+00   8.367306349466064e-01   3.733846200000000e+00  3.68683550e-01   1.79020899e+00   5.48608060e-01
C     9.787444894199998e+00   1.536575466932106e+00   3.831274800000000e+00  1.10894593e+00  -3.05954800e-01  -7.42079490e-01
C     1.251000318000000e+00   2.010622561674126e+00  -4.144506000000021e-01  1.86640331e+00  -8.20157630e-01   1.44521885e+00
C     2.540191571200000e+00   2.713023973397338e+00  -1.269974999999981e-01 -1.92487158e+00  -4.35189310e-01  -2.51099092e+00
C     2.474097575500000e+00   3.061929051681500e+00   3.843301200000000e+00 -2.61527906e+00  -2.95791120e+00  -3.85108170e-01
C     3.684231052900000e+00   3.717510556602242e+00   3.780303300000000e+00  3.28288800e-02  -7.54995540e-01  -2.49581920e-01
C     3.748781712100000e+00   1.992500817463156e+00  -3.802401000000017e-01 -5.73309340e-01   1.03526859e+00   8.46568030e-01
C     5.007719823100000e+00   2.657771366795345e+00  -3.401217000000010e-01  1.77327630e-01  -7.22497140e-01  -1.44604620e-01
C     4.898065579900000e+00   2.974499831178876e+00   3.756912600000000e+00  2.26465300e-02   1.65002259e+00   8.71561400e-02
C     6.065453689500000e+00   3.780684205495798e+00   3.804810900000000e+00  2.02589012e+00  -9.31867840e-01   1.20646440e-01
C     6.233978048699999e+00   1.932932168014047e+00  -4.137863999999993e-01  9.60002100e-02   9.26918140e-01   2.27876640e-01
C     7.480822623199999e+00   2.653342267449474e+00  -4.772852999999984e-01 -2.71614874e+00   1.98946083e+00  -1.89874860e-01
C     7.296593354599999e+00   3.060218602492251e+00   3.885162600000000e+00  1.54668208e+00  -2.09241081e+00  -1.75918341e+00
C     8.577187772399999e+00   3.632119512511089e+00   3.739145400000000e+00  2.02236520e-01   3.05646013e+00   6.69036000e-01
C     8.693769750200000e+00   1.988075816842315e+00  -5.022509999999976e-01 -1.98679965e+00  -1.61303420e+00  -1.91411510e-01
C     9.859027015199999e+00   2.662970172545883e+00  -4.369632000000010e-01  2.31933723e+00   2.07296627e+00   5.43137120e-01
C     9.828775697099999e+00   2.908944823042658e+00   3.794814900000000e+00 -6.42389760e-01   3.98942853e+00  -1.01224120e-01
C     1.104525393660000e+01   3.746455667376822e+00   3.794312100000000e+00  8.94653380e-01  -3.42436493e+00   5.08805090e-01
C     2.511963574400000e+00   4.161499395163510e+00  -1.143356999999980e-01  4.20231920e-01  -3.30678435e+00   4.40342100e-01
C     3.750887068600000e+00   4.778503187757500e+00  -1.693967999999977e-01  1.04290787e+00   3.33297173e+00   1.77784920e-01
C     3.627462201500000e+00   5.100367098433807e+00   3.699393600000000e+00  2.90851087e+00   2.57796591e+00   7.04958520e-01
C     4.878923326600000e+00   5.881758711992362e+00   3.764208300000000e+00  2.53474680e-01  -1.30989654e+00  -2.61187990e-01
C     5.020170390199999e+00   4.047523074199405e+00  -2.897043000000004e-01 -3.75565310e+00   1.36005633e+00   1.36367420e-01
C     6.153710943900000e+00   4.785787561427673e+00  -4.454652000000010e-01  2.21998876e+00   2.21213078e+00  -4.80556090e-01
C     6.156816301599999e+00   5.215892993629718e+00   3.788296800000000e+00 -2.26818799e+00  -1.08438393e+00  -3.10971660e-01
C     7.389406372700000e+00   5.902767324866412e+00   3.726245100000000e+00  6.95907690e-01  -2.74010455e+00   4.12545240e-01
C     7.374129830999999e+00   4.114853171834205e+00  -5.227322999999977e-01  2.27258744e+00  -1.12660522e+00   6.80953580e-01
C     8.614214734599999e+00   4.850700009025270e+00  -4.069008000000025e-01  4.67757020e-01  -5.68653630e-01   1.76554760e-01
C     8.595547092399999e+00   5.106301283766883e+00   3.670781100000000e+00  5.95181590e-01  -6.83933230e-01   4.71161590e-01
C     9.855509706699999e+00   5.789842668433024e+00   3.691338600000000e+00 -2.70204996e+00   2.33861266e+00   3.51100260e-01
C     9.809664354899999e+00   4.062612274228508e+00  -2.844794999999998e-01  2.21290020e+00   2.20287708e+00  -1.27911320e-01
C     1.112644719120000e+01   4.780129356913310e+00  -1.292793000000003e-01 -2.44720488e+00   5.31806880e-01  -5.85399530e-01
C     1.106374607080000e+01   5.128626526666843e+00   3.819904800000000e+00  2.75067410e-01   3.92798180e-01  -1.25923137e+00
C     1.230037322030000e+01   5.836884589507972e+00   3.722277000000000e+00 -7.26366840e-01  -8.22198500e-01   7.42256060e-01
C     3.743459875699999e+00   6.296942735721237e+00  -1.664865000000013e-01  6.83624500e-01  -2.07979625e+00  -1.15380213e+00
C     5.003291154799999e+00   6.976720124567794e+00  -4.277238000000025e-01 -2.40658336e+00  -8.56761940e-01   5.93725440e-01
C     4.921318960200000e+00   7.281962253614048e+00   3.768146700000000e+00 -1.43270372e+00   8.47429300e-02  -4.42924290e-01
C     6.152916622300000e+00   7.938993767904400e+00   3.706224300000000e+00 -4.74224360e-01   3.32026331e+00   1.20121055e+00
C     6.211638197400000e+00   6.245009071712611e+00  -5.438556000000005e-01 -8.31582650e-01  -3.80542760e-01   1.07193153e+00
C     7.418036016599999e+00   6.979753522650709e+00  -4.989813000000005e-01  1.43315490e+00  -1.69250250e-01   1.95483200e-02
C     7.407689573499999e+00   7.289912840881871e+00   3.814634700000000e+00 -3.99235898e+00  -7.15775980e-01  -1.09275699e+00
C     8.531148227899999e+00   7.990502957702065e+00   3.771876000000000e+00  5.47588273e+00   1.60002004e+00  -4.16006960e-01
C     8.671437934800000e+00   6.297000715602397e+00  -3.549108000000025e-01 -7.08114850e-01  -1.64797863e+00  -4.20993050e-01
C     9.928121951199998e+00   6.950639083298310e+00  -2.453138999999993e-01 -1.85389519e+00   6.82735820e-01  -8.06141850e-01
C     9.762556430099998e+00   7.245408201380950e+00   3.705194100000000e+00  2.43709686e+00   4.97001620e-01   4.49129660e-01
C     1.104536165710000e+01   7.976867353426973e+00   3.764785200000000e+00 -1.06060530e-01  -1.09804310e-01  -8.23536880e-01
C     1.111376767490000e+01   6.177100626898000e+00  -2.035458000000006e-01  1.26163769e+00   3.24843804e+00   9.40142360e-01
C     1.235522686530000e+01   7.031247598399824e+00  -1.712745000000027e-01  6.77115230e-01  -4.54354020e+00  -6.14573840e-01
C     1.230159211350000e+01   7.231246594060289e+00   3.780507600000000e+00 -6.62573200e-01   2.27383091e+00  -4.19357530e-01
C     1.352715530770000e+01   7.999008666041193e+00   3.769941300000000e+00 -4.87870060e-01  -2.10033041e+00  -3.16957710e-01
