64
Lattice="9.86 0 0 4.93 8.53901048131456 0 0 0 30 " PBC="1 1 1" Properties=species:S:1:pos:R:3:force:R:3 Energy="-514.60159802"
C     5.002117716200000e+00   7.401391415890472e+00  -2.816238000000020e-01 -4.42128950e-01   3.41664220e-01   8.21384420e-01
C     6.226974047000000e+00   8.157007599364624e+00  -2.420909999999985e-01 -1.80578300e-01  -1.53804910e+00   2.83345280e-01
C     9.817081786399999e+00   1.103799800762859e+00   3.814484700000000e+00 -1.55307390e+00  -6.99686960e-01  -6.22419850e-01
C     1.149175654300000e+00   1.798818640195377e+00   3.697273500000000e+00  2.02736338e+00   5.07060490e-01  -5.21453990e-01
C     7.458936430500000e+00   7.447481493467215e+00  -6.360809999999972e-02 -6.13383530e-01  -2.20150260e-01  -1.17585310e-01
C     8.692062589799999e+00   8.142466859978651e+00  -3.453810000000246e-02 -2.15022630e-01  -9.54956200e-02  -1.27121861e+00
C     2.409397044300000e+00   1.103538592432276e+00   3.675621600000000e+00 -6.49552690e-01  -3.57764460e-01   6.68293840e-01
C     3.619320996700000e+00   1.838398661572273e+00   3.712375500000000e+00  7.85409700e-02   1.06337660e-01  -8.74170530e-01
C     9.904466282900000e+00   7.427218592378384e+00  -1.820214000000000e-01  4.96523760e-01   4.44140930e-01   4.81516450e-01
C     1.114044148920000e+01   8.123078353562972e+00  -1.617758999999985e-01  8.40478170e-01   9.95209540e-01  -5.78883940e-01
C     4.833817080399999e+00   1.122254310212235e+00   3.701307300000000e+00  1.61105515e+00  -2.15956280e-01  -1.04669033e+00
C     6.100537886600000e+00   1.783900903496712e+00   3.583200600000000e+00 -1.37054020e-01   2.30677914e+00   9.82757000e-01
C     1.239418554940000e+01   7.388270372386904e+00  -2.267064000000012e-01 -7.76264830e-01   1.66030852e+00   2.52385060e-01
C     1.362421295720000e+01   8.119981596022296e+00  -2.545700999999987e-01  2.91194690e-01   5.15570420e-01  -3.59803070e-01
C     7.341593950899998e+00   1.130380288755318e+00   3.634144200000000e+00  5.08379480e-01  -1.32302142e+00  -4.66469170e-01
C     8.581805802000000e+00   1.808716975753688e+00   3.747182700000000e+00 -6.67057640e-01   1.70920483e+00   9.41424700e-02
C     1.296693184900000e+00   1.018370331124546e+00  -3.685670999999999e-01 -1.49313738e+00   3.72535290e-01   3.36956960e-01
C     2.504630643100000e+00   1.678556412056524e+00  -3.789584999999995e-01  1.48354551e+00   2.83968249e+00   9.88928000e-02
C     1.101306892460000e+01   3.196157087630707e+00   3.487729500000000e+00  1.55602890e+00   8.56629530e-01   1.23990790e-01
C     2.439981236000000e+00   3.937331584240455e+00   3.354052500000000e+00 -2.05710747e+00   8.29464180e-01   7.96345670e-01
C     3.748290339000000e+00   1.003856831182005e+00  -2.144691000000023e-01 -4.17795880e-01   7.84132080e-01  -2.69975600e-01
C     4.945189625799999e+00   1.756178835193182e+00  -2.744396999999985e-01  2.51824675e+00  -5.34460250e-01   9.32223490e-01
C     3.653413622900000e+00   3.258573753245210e+00   3.529221000000000e+00  6.18611240e-01  -8.80378160e-01   1.78537910e-01
C     4.937048273100000e+00   3.927780957188889e+00   3.580687200000000e+00 -2.29832405e+00   4.74139860e-01  -1.67619730e-01
C     6.226436726299999e+00   1.058547058553785e+00  -1.807262999999999e-01 -1.60102966e+00  -1.99610045e+00   2.13094000e-03
C     7.444447653499999e+00   1.748072667154414e+00  -1.636827000000025e-01  1.02120206e+00   8.24966700e-02   2.13180230e-01
C     6.142624852899999e+00   3.235992681591270e+00   3.649480500000000e+00  2.57846050e-01  -7.71459230e-01   4.18740250e-01
C     7.354039637300000e+00   3.988466509208782e+00   3.801513300000000e+00 -6.05314000e-01  -4.09259680e-01  -4.15158340e-01
C     8.711723774899999e+00   1.031592988852826e+00  -2.621912999999978e-01 -1.02913449e+00   1.67083200e-02   1.61430340e-01
C     9.925211525699998e+00   1.779006428079681e+00  -3.489836999999980e-01 -2.04158550e-01  -1.04101914e+00  -5.73406230e-01
C     8.563916409599999e+00   3.284635240180695e+00   3.757209300000000e+00  2.64336030e-01  -2.93407241e+00  -2.21697400e-01
C     9.789808779900000e+00   3.901910829478262e+00   3.566882400000000e+00  1.20338611e+00   2.41503458e+00   6.05358310e-01
C     2.534982138800000e+00   3.162434485882672e+00  -4.562987999999990e-01 -4.60277110e-01  -1.28996080e+00   7.99589930e-01
C     3.756837825100000e+00   3.849828842857598e+00  -2.956692000000025e-01  1.28294170e-01   4.43868820e-01  -1.30678450e-01
C     1.227677114110000e+01   5.398357216659607e+00   3.334295400000000e+00 -9.24426300e-01  -4.38466890e-01  -2.80306790e-01
C     3.638119136000000e+00   6.101534055924507e+00   3.410315700000000e+00  8.30101220e-01  -1.22032877e+00   7.81498540e-01
C     5.017605064700000e+00   3.177686610231733e+00  -2.133687000000002e-01 -2.10529546e+00  -7.77184420e-01   3.44388580e-01
C     6.206288457199999e+00   3.865853064534261e+00   5.222160000000000e-02  8.17313280e-01   1.08294808e+00  -8.75233100e-01
C     4.887489694600000e+00   5.332922010840424e+00   3.578078700000000e+00 -3.81845110e-01   1.88073381e+00  -4.02558060e-01
C     6.097520628000000e+00   6.072499541710202e+00   3.703014900000000e+00  3.19188180e-01   1.45356250e-01   6.38512680e-01
C     7.427866584499999e+00   3.171507782248405e+00  -2.480609999999928e-02  1.78196995e+00  -5.24403610e-01  -7.54679730e-01
C     8.690177900100000e+00   3.871903380409865e+00  -2.075616000000018e-01 -1.40933716e+00   1.37928270e+00   8.90490900e-02
C     7.345467550499999e+00   5.411624277242383e+00   3.848356500000000e+00  6.58153300e-02  -7.71121370e-01  -9.35844250e-01
C     8.597368037199999e+00   6.100581956255986e+00   3.758499900000000e+00  1.42948100e-01  -1.04274417e+00  -3.80512400e-02
C     9.901890456499999e+00   3.208586898235919e+00  -4.456623000000022e-01  9.80129110e-01  -1.41875900e+00   1.21613241e+00
C     1.116874599960000e+01   3.907377418597453e+00  -4.153289999999998e-01 -1.44302288e+00  -1.45638797e+00  -5.88533490e-01
C     9.817256456299999e+00   5.347247481772196e+00   3.607114800000000e+00  4.61194300e-02   1.46625677e+00  -7.71519160e-01
C     1.101694129170000e+01   6.149567612286498e+00   3.381282900000000e+00  5.61374800e-01  -2.60422816e+00   1.09553660e-01
C     3.721942890700000e+00   5.266082650137910e+00  -2.288217000000010e-01  8.69155580e-01   2.31032630e-01   1.76682140e-01
C     4.968887840000000e+00   5.973466489086096e+00  -1.370384999999992e-01  7.91038650e-01   7.81555360e-01   5.24946000e-03
C     1.347114705670000e+01   7.510351324367892e+00   3.564948300000000e+00  2.11663968e+00   6.86785590e-01  -1.35864780e-01
C     4.880718142399999e+00   8.221709389573679e+00   3.767874000000000e+00 -6.93990680e-01  -8.83286200e-01  -3.72462780e-01
C     6.235017982900001e+00   5.309043948884677e+00   4.063020000000001e-02 -1.73419322e+00  -9.83853870e-01  -4.66635200e-01
C     7.447431782499999e+00   6.012402583682695e+00  -8.623200000002385e-03  1.94015420e-01   7.87829130e-01  -2.59351640e-01
C     6.111099524199999e+00   7.487081923079159e+00   3.770113500000000e+00 -2.71871960e-01   1.01952164e+00  -3.99237150e-01
C     7.354766417900000e+00   8.209499373098224e+00   3.733273800000000e+00  3.87460200e-02   8.78354700e-02   3.20679150e-01
C     8.672182364799999e+00   5.327844715209016e+00  -1.906940999999982e-01 -8.59460640e-01  -1.79609495e+00   3.37240860e-01
C     9.870475609100000e+00   6.021183760499908e+00  -3.190022999999975e-01  4.20622090e-01   1.43067200e-01   8.51375730e-01
C     8.610806970699999e+00   7.506807464238483e+00   3.712923000000000e+00 -7.77962220e-01   6.70603130e-01  -1.60399360e-01
C     9.814916333199999e+00   8.249046519284772e+00   3.589287000000000e+00 -7.31178770e-01  -1.08069640e-01  -1.89784800e-02
C     1.106247344060000e+01   5.290394493826042e+00  -3.233408999999980e-01  3.75121143e+00   1.16768369e+00  -3.25547590e-01
C     1.237032227880000e+01   5.987719293038683e+00  -2.542118999999978e-01 -1.47941856e+00  -5.42061700e-01  -1.99118540e-01
C     1.103039693790000e+01   7.563654901827825e+00   3.354468000000000e+00  3.10786960e-01  -2.58398340e-01   1.12420060e+00
C     1.228343349380000e+01   8.251493799688339e+00   3.460317900000000e+00 -7.39615800e-01  -1.38221190e-01   3.49099580e-01
