52
Lattice="8.88768389401873 1.33226762955019e-15 0 4.44384194700937 7.69696003302603 0 0 0 30 " PBC="1 1 1" Properties=species:S:1:pos:R:3:force:R:3 Energy="-415.1769353"
C     1.280151574316813e+01   7.011687671271453e+00  -3.449586000000018e-01 -1.32805043e+00  -1.02794074e+00  -4.08320310e-01
C     9.070777337152414e+00   6.823941959797287e+00  -4.848324000000019e-01 -1.65130607e+00   2.61140084e+00   2.34754954e+00
C     1.042206359517107e+01   6.458533631457856e+00  -5.855034000000003e-01 -1.34933879e+00  -2.45468647e+00  -1.00540268e+00
C     1.077265526077260e+01   5.048834786206553e+00  -6.187595999999971e-01 -1.57839672e+00   7.42701820e-01   5.64201520e-01
C     6.700875360980701e+00   6.237210547609617e+00  -2.932050000000075e-02 -2.71717542e+00   7.72938010e-01  -1.50216200e-02
C     8.028020136580263e+00   5.896520159740929e+00  -2.829566999999997e-01  1.45432418e+00  -1.86465334e+00  -1.06955067e+00
C     8.407982264578807e+00   4.520726038573774e+00  -4.814639999999990e-01 -1.92735072e+00  -1.93962223e+00   9.51074090e-01
C     9.733874943192564e+00   4.057836250241595e+00  -4.211810999999983e-01  9.98902830e-01   2.07852593e+00  -1.12050596e+00
C     1.007113663835131e+01   2.721314790053113e+00  -2.552868000000004e-01 -2.89207530e-01  -3.14303256e+00   1.46505511e+00
C     4.257864674683518e+00   5.593006473665140e+00  -3.529571999999987e-01  2.84350020e-01   2.04917863e+00  -5.93956720e-01
C     5.650143819311358e+00   5.244905298740367e+00  -1.914677999999981e-01  1.87226370e-01  -1.66984894e+00  -9.44547500e-01
C     6.006181102153702e+00   3.844677485836379e+00  -4.530387000000005e-01 -4.83031650e-01  -1.32292640e-01   3.30430180e-01
C     7.407413343996136e+00   3.452185787269786e+00  -5.131161000000013e-01 -1.47527849e+00   1.85053499e+00   5.40936320e-01
C     7.737291506863619e+00   2.080555259661261e+00  -4.524858000000016e-01 -1.43197638e+00  -1.17078442e+00   2.51258090e-01
C     9.046779120841205e+00   1.681807933799886e+00  -1.291970999999990e-01 -5.84625300e-02   1.11979956e+00  -1.45891187e+00
C     3.203460253244526e+00   4.656601705496970e+00  -6.461193000000023e-01  2.46208796e+00  -2.02347932e+00   2.49030524e+00
C     3.542195792975136e+00   3.246780401611590e+00  -3.291965999999995e-01  5.72559550e-01  -1.57923980e-01  -1.31053683e+00
C     4.927028969287369e+00   2.794273119633478e+00  -4.514735999999999e-01  2.64059000e-02   5.81913663e+00   1.13316848e+00
C     5.267149787947718e+00   1.507948230946243e+00  -3.139706999999987e-01  1.62174564e+00  -3.28464959e+00  -1.35409669e+00
C     6.672296387929634e+00   1.057309616924215e+00  -5.364002999999968e-01 -1.33555036e+00   3.63492741e+00   8.14548850e-01
C     1.138850158762949e+01   7.425972773375788e+00  -6.486795000000001e-01  4.12936783e+00  -7.35600730e-01   1.70632665e+00
C     2.526889226138336e+00   2.253839383843860e+00  -1.011233999999988e-01  7.03754110e-01   2.06532347e+00  -9.60876230e-01
C     2.891546940231282e+00   8.769718446309229e-01   6.623400000000001e-03 -1.43315350e+00   1.02799832e+00   4.16751910e-01
C     4.229659162194165e+00   5.434280071804882e-01  -1.991898000000027e-01  2.04402462e+00  -2.66127387e+00  -9.51697760e-01
C     4.241712462878201e-01   2.923473982818657e-01  -2.602770000000021e-02  2.66519955e+00   7.44183100e-02   2.02622860e-01
C     6.286269885515098e+00   7.622536814986725e+00   1.618305000000000e-01 -2.30835900e-02  -1.57434274e+00  -1.54898964e+00
C     5.717867438496808e-01   7.099384986582865e-01   3.873474000000000e+00 -3.72908250e-01  -1.29916334e+00  -1.66316830e-01
C     2.940548340530425e+00   1.097341736949046e-01   3.551273400000000e+00 -2.30904212e+00  -2.96155130e-01   7.39331650e-01
C     4.272750697558730e+00   4.967447900545336e-01   3.493035600000000e+00  1.14522115e+00   6.94820260e-01   9.48555080e-01
C     9.727652944381298e+00   7.212981648760024e+00   3.486715800000000e+00  9.71887450e-01  -1.99037799e+00  -4.63557930e-01
C     1.111230605674225e+01   7.567625316679899e+00   3.690999300000000e+00 -5.23572900e-02   6.60749520e-01   3.62663900e-01
C     1.217830223867431e+01   6.625255404488477e+00   3.820235400000000e+00 -6.24988150e-01  -1.44679582e+00  -1.55740280e-01
C     4.651104737612415e+00   7.033081294705237e+00   4.007489400000000e+00 -8.77157170e-01  -2.27231480e-01  -8.73721130e-01
C     5.636512023591550e+00   6.038331568300059e+00   3.989246700000000e+00  8.54819600e-01  -1.18233884e+00  -1.29421009e+00
C     6.986425801525693e+00   6.442932124385847e+00   3.730500600000000e+00  1.79806602e+00  -1.89141357e+00  -4.38383880e-01
C     8.021119116330674e+00   5.373863630714999e+00   3.571538700000000e+00 -9.16834470e-01   1.01217428e+00   3.17816510e-01
C     9.393474562704149e+00   5.757782917017781e+00   3.358230300000000e+00  3.07711040e-01   1.83124372e+00   1.43343628e+00
C     1.046047096458199e+01   4.816649290546378e+00   3.495479700000000e+00  1.52193100e-01  -5.55406500e-02   5.50120330e-01
C     1.186252434003591e+01   5.189061005847505e+00   3.710810700000000e+00 -3.14926001e+00   2.90885265e+00  -5.57389010e-01
C     3.920409404006838e+00   4.215874466905571e+00   3.823044300000000e+00  2.68356764e+00  -3.56533250e-01   6.77024450e-01
C     5.295988280025666e+00   4.620894276404195e+00   3.878923200000000e+00  1.04884125e+00   8.56653600e-02   2.14250670e+00
C     6.359647223243181e+00   3.611453439359355e+00   4.083058200000000e+00 -2.58896905e+00   9.24605110e-01  -2.78888936e+00
C     7.666318286259104e+00   3.984709434206173e+00   3.772932600000000e+00  2.53973315e+00   1.23068445e+00  -3.17703430e-01
C     8.742560990065199e+00   3.033248026766517e+00   3.628241700000000e+00 -1.55031126e+00  -1.17776251e+00   1.47798596e+00
C     1.010373315267816e+01   3.419378803625117e+00   3.609579900000000e+00 -1.63075982e+00   2.86230834e+00  -9.93381280e-01
C     2.207047524014608e+00   2.505644045772505e+00   3.629378700000000e+00  2.58586761e+00  -3.10456073e+00   1.05850997e+00
C     3.580717992070213e+00   2.849176767041073e+00   3.863371800000000e+00 -7.46583640e-01   1.34699650e-01  -1.67015932e+00
C     4.588589432358945e+00   1.879963552805826e+00   3.787243800000000e+00  1.20921071e+00  -9.20691850e-01  -6.42784290e-01
C     5.973318623310664e+00   2.260265498803307e+00   3.859536900000000e+00  5.71327910e-01  -9.00949560e-01   1.20845612e+00
C     7.021134558985153e+00   1.259460189094526e+00   3.862302900000000e+00 -7.22781900e-01  -3.88885750e-01  -6.90282970e-01
C     8.405473536160748e+00   1.616771546391198e+00   3.848805899999999e+00 -4.00672000e-01   2.89804616e+00  -6.56311700e-01
C     1.909851994875889e+00   1.104039169749550e+00   3.654802500000000e+00  1.59961930e-01  -3.87069000e-03   2.88329180e-01
