64
Lattice="9.86 0 0 4.93 8.53901048131456 0 0 0 30 " PBC="1 1 1" Properties=species:S:1:pos:R:3:force:R:3 Energy="-516.17599773"
C     9.798910397999999e+00   5.884976723481856e-01  -8.761349999999979e-02  1.24311000e+00  -4.46995650e-01   2.64886930e-01
C     1.191595691400000e+00   1.266949550597931e+00  -9.554970000000296e-02 -7.58726510e-01   1.49140820e+00  -4.62959380e-01
C     1.283767168600000e+00   1.443603403946704e-01   3.555971100000000e+00 -1.12377830e-01  -4.91621330e-01  -5.98045090e-01
C     2.509326172300000e+00   8.623595356111736e-01   3.483898800000000e+00 -1.85181530e-01  -7.81014940e-01   2.32664300e-01
C     2.400570865300000e+00   5.554237792263160e-01  -8.926380000000123e-02  7.92141220e-01   1.74864053e+00   2.70576110e-01
C     3.641314466199999e+00   1.302936014804424e+00  -6.500580000000156e-02 -3.27402120e-01  -1.23958703e+00  -2.34967270e-01
C     3.750910535400000e+00   1.622499089106896e-01   3.476630400000000e+00 -4.07938960e-01  -9.33429630e-01   1.18842130e-01
C     4.978880407700000e+00   8.486725264929912e-01   3.475905000000000e+00  3.95164820e-01   6.62373780e-01  -1.75518030e-01
C     4.866267129200000e+00   6.036559529720721e-01  -4.071150000000046e-02  8.29984900e-01  -1.86411650e+00  -8.56438400e-02
C     6.119697197699999e+00   1.251053072518049e+00  -3.656549999999825e-02 -1.25770580e-01   9.62680800e-01   1.58565550e-01
C     6.210998776399999e+00   1.235698992383856e-01   3.461524200000000e+00  1.84107840e-01   1.16459223e+00   1.84713420e-01
C     7.432165544499999e+00   8.941639340449815e-01   3.496219800000000e+00  2.78214490e-01  -2.11334254e+00  -2.49173620e-01
C     7.346752012700000e+00   5.425742762560121e-01  -5.047979999999797e-02  4.44250530e-01   2.24202729e+00   4.71900900e-02
C     8.591961996400000e+00   1.280655345539170e+00  -2.226270000000241e-02 -1.22643772e+00   2.04335060e-01  -5.57534020e-01
C     8.677857287800000e+00   1.225366789703056e-01   3.477530100000000e+00 -1.04211547e+00   7.92557190e-01   3.57730810e-01
C     9.903155050799999e+00   8.570253011544224e-01   3.517854900000000e+00  1.18158350e-01  -2.74957363e+00   3.61610600e-02
C     1.104954407190000e+01   2.712595912801975e+00  -1.761324000000002e-01  6.66182160e-01  -5.04448440e-01   7.80266630e-01
C     2.439023090500000e+00   3.442316180753850e+00  -1.592504999999989e-01 -7.34333580e-01  -1.00042018e+00  -4.19431750e-01
C     2.481508795200000e+00   2.259450693303003e+00   3.442000800000000e+00  1.58358818e+00   1.56348130e+00   2.51058320e-01
C     3.757012445700000e+00   2.981625806204645e+00   3.477480900000000e+00 -1.58315612e+00   1.72805470e-01  -6.77379150e-01
C     3.669766531500000e+00   2.692844669221107e+00  -1.160052000000000e-01 -1.32471710e-01   1.84085617e+00   9.07568900e-02
C     4.929821780499999e+00   3.405208886031752e+00  -7.354319999999959e-02 -1.53173676e+00  -1.69937770e-01  -3.87728300e-02
C     4.975356493000000e+00   2.301913655398157e+00   3.467242200000000e+00  2.63757400e-02  -1.36758511e+00   4.56459300e-02
C     6.176767863700000e+00   3.037930675068089e+00   3.444096600000000e+00  1.14571933e+00  -1.65962336e+00   7.54430490e-01
C     6.130656735599999e+00   2.666921172694980e+00  -9.249000000000507e-03  7.10132810e-01   1.17563067e+00  -1.62212140e-01
C     7.364846000100000e+00   3.408382836227169e+00   5.847000000000001e-04 -3.32697780e-01  -2.18132720e-01  -8.30590800e-02
C     7.414526941200000e+00   2.310147140083183e+00   3.506772000000000e+00  3.23913810e-01  -6.09502720e-01  -5.26765310e-01
C     8.680042263799999e+00   2.950463626749039e+00   3.470987700000000e+00 -8.09951960e-01   9.81203020e-01   5.98022850e-01
C     8.587616940900000e+00   2.709862063206698e+00  -4.366860000000017e-02 -3.44496830e-01  -9.71682480e-01   2.47999540e-01
C     9.804553818299999e+00   3.401346691591649e+00  -9.637800000000141e-02  8.81452840e-01   7.38317290e-01  -2.28190570e-01
C     9.894303383700001e+00   2.217912932993358e+00   3.494987400000000e+00  6.83304170e-01   3.45934005e+00  -4.16897940e-01
C     1.113476725640000e+01   2.991543269146432e+00   3.429847800000000e+00 -7.83348170e-01  -1.10795790e+00   4.38112690e-01
C     1.225758806740000e+01   4.861965183991115e+00  -2.043389999999974e-01  1.75289695e+00  -4.30487180e-01   7.76506610e-01
C     3.654997040300000e+00   5.563903012835367e+00  -1.348284000000000e-01  3.26325640e-01   6.71737020e-01  -7.89766400e-02
C     3.764954232000000e+00   4.407420164504157e+00   3.413559300000000e+00 -1.73643242e+00  -5.45540570e-01   3.76126600e-01
C     4.960302885899999e+00   5.118269987806175e+00   3.489142200000000e+00  6.87725070e-01   4.35398640e-01  -1.56929550e-01
C     4.890681130100000e+00   4.837407246020950e+00  -8.943810000000241e-02  4.41574210e-01   7.05491500e-02   4.06047550e-01
C     6.138707080500000e+00   5.548787427263881e+00   2.117940000000000e-02 -9.68686790e-01  -1.88002100e-02  -4.09244170e-01
C     6.204017107600000e+00   4.424019659316857e+00   3.513210600000000e+00 -7.72669640e-01   3.40941130e-01  -5.30934570e-01
C     7.429639165999999e+00   5.092493362260304e+00   3.477958200000000e+00  7.64063510e-01   1.68495348e+00   5.12098080e-01
C     7.374506187200000e+00   4.829684308772523e+00   7.352700000000000e-03 -1.38322740e+00   3.05104100e-01   1.75628640e-01
C     8.561353351899999e+00   5.568674782671801e+00  -9.441300000002428e-03  1.83571081e+00  -3.26438330e-01  -2.08927800e-01
C     8.662719673500000e+00   4.383984423291273e+00   3.506952900000000e+00  6.96232130e-01   1.21985880e-01  -9.60934880e-01
C     9.899952917200000e+00   5.108129315130442e+00   3.402112200000000e+00 -4.72212870e-01   5.14402790e-01   5.98439130e-01
C     9.800128798199999e+00   4.821932424278569e+00  -7.715609999999984e-02  3.17062940e-01   1.39259100e+00   1.49393340e-01
C     1.104854244380000e+01   5.552401051108912e+00  -1.048715999999992e-01 -8.27385170e-01   4.20840950e-01  -3.96954230e-01
C     1.113842127380000e+01   4.411861986975643e+00   3.431171400000000e+00 -4.49216990e-01  -5.03497500e-01  -6.02131710e-01
C     1.236212008990000e+01   5.111802370488413e+00   3.381660300000000e+00  8.34762020e-01  -3.23417430e-01   3.69013910e-01
C     1.355363384470000e+01   7.023822758007255e+00  -9.603210000000217e-02 -2.40915956e+00  -2.30165493e+00  -4.02235680e-01
C     4.884756354699999e+00   7.703822246516396e+00  -8.649899999999988e-02  8.86232140e-01   2.22602220e-01   5.48792410e-01
C     4.933750546800000e+00   6.527952770351813e+00   3.501430500000000e+00  2.25481081e+00   3.92001460e-01   3.47406800e-02
C     6.210570852400000e+00   7.253568506746162e+00   3.526628100000000e+00 -1.31940275e+00   1.38271420e-01   9.19936200e-02
C     6.100553563999999e+00   6.972490752677050e+00   1.686060000000000e-02  1.05920987e+00   3.64547210e-01  -5.75928440e-01
C     7.328346301400000e+00   7.718339503623549e+00  -2.760660000000215e-02  1.11427834e+00  -2.31817133e+00   1.70146580e-01
C     7.430342923500000e+00   6.554896678630301e+00   3.496780800000000e+00  4.25696230e-01  -1.29606206e+00  -2.74379800e-02
C     8.666984271400000e+00   7.256656042155520e+00   3.478767300000000e+00  1.89846000e-02   6.27153250e-01  -3.05344450e-01
C     8.600302718300000e+00   6.997780142284932e+00  -2.988360000000156e-02 -7.63788610e-01  -1.34840100e-01   1.65355600e-01
C     9.850295442899998e+00   7.692052928371812e+00  -4.679249999999868e-02 -9.14654880e-01   5.98767670e-01  -4.21833900e-02
C     9.892338828000000e+00   6.546278340742941e+00   3.397483800000000e+00  5.96181320e-01  -4.48687810e-01   4.52085110e-01
C     1.115313249240000e+01   7.247345446688547e+00   3.436965900000000e+00 -1.12791838e+00  -1.35056680e-01  -3.05687020e-01
C     1.110143789280000e+01   6.993028097562707e+00  -8.660670000000081e-02 -2.63446698e+00  -1.03517959e+00  -2.46207500e-02
C     1.227773298410000e+01   7.713747650737929e+00  -1.194176999999996e-01  2.28099584e+00  -1.52717866e+00   3.69862620e-01
C     1.236387181750000e+01   6.519926698231346e+00   3.424740600000000e+00 -1.26509450e-01   1.76640290e-01  -8.11543800e-02
C     1.358907300180000e+01   7.216045703774107e+00   3.471101400000000e+00 -3.10894950e-01   1.85407001e+00  -7.54914300e-02
