64
Lattice="9.86 0 0 4.93 8.53901048131456 0 0 0 30 " PBC="1 1 1" Properties=species:S:1:pos:R:3:force:R:3 Energy="-504.42974579"
C     4.988440712999999e+00   8.477197095475908e+00  -1.749201000000014e-01 -1.21206357e+00  -2.69501318e+00   2.12631330e-01
C     1.278602796400000e+00   6.339967650096080e-01  -6.891540000000163e-02 -1.18683580e-01   1.47319247e+00  -2.02881552e+00
C     9.789796947899999e+00   1.418772815371912e-01   3.558924600000000e+00  2.78255691e+00  -2.82310343e+00   1.85273853e+00
C     1.231047572700000e+00   8.120990907061032e-01   3.622140300000000e+00 -5.62211400e-01  -5.81210341e+00   7.84126420e-01
C     7.429815068399999e+00   8.481569751962507e+00  -2.712533999999991e-01  5.52904900e-01   2.22182112e+00   2.03315514e+00
C     3.779584943700000e+00   7.240869973481143e-01  -2.579700000000003e-01 -3.01461144e+00  -4.10768221e+00  -2.03687228e+00
C     2.484872977900000e+00   7.227341619177680e-02   3.918603600000000e+00 -2.05162104e+00   8.05192660e-01  -5.75277510e-01
C     3.658131435700000e+00   8.287781690964776e-01   3.844019100000001e+00  1.71842719e+00  -1.97984778e+00   1.73299700e-02
C     9.857718889000001e+00   8.453870226646645e+00  -4.474352999999986e-01  1.27677147e+00  -8.02654320e-01   3.23434160e-01
C     6.161476975699999e+00   4.892923878826984e-01  -4.179455999999995e-01  3.22573705e+00   5.29283671e+00   1.29878988e+00
C     4.879662087100000e+00   9.928930832861040e-02   3.793341900000000e+00  1.46793399e+00   1.45041955e+00   1.61350047e+00
C     6.162812611300000e+00   8.726179612414264e-01   3.914662499999999e+00 -2.03181179e+00  -2.15339223e+00  -7.76562470e-01
C     1.238744451390000e+01   8.368575844154126e+00  -4.727543999999995e-01 -1.26281340e+00   6.17284718e+00   6.22601410e-01
C     8.701190534099998e+00   6.416254315823352e-01  -2.710392000000006e-01 -1.08204597e+00  -1.14717532e+00  -6.49752280e-01
C     7.399148200599999e+00   6.504949871580160e-02   3.956511000000000e+00 -4.16158868e+00  -1.46213718e+00  -4.17181200e-02
C     8.522716202400000e+00   7.515210448281536e-01   3.658627500000000e+00  3.60680011e+00   2.50787330e-01   7.45041770e-01
C     1.265896017200000e+00   2.067204777597960e+00  -3.381495000000001e-01 -9.62999370e-01  -8.38471400e-02  -8.44987900e-02
C     2.477820908700000e+00   2.689469710718991e+00  -6.738248999999996e-01 -7.38836000e-01   4.26497224e+00  -3.99579250e-01
C     1.107481510400000e+01   2.114226888168595e+00   3.641797200000000e+00  1.84549024e+00   6.75493597e+00  -1.79327310e-01
C     2.486314115500000e+00   2.902670187361745e+00   3.700680000000000e+00 -3.81006048e+00   2.39661909e+00   3.45874660e-01
C     3.719733412600000e+00   2.065387505387606e+00  -6.117068999999979e-01  4.91593530e-01  -6.65284270e-01   1.95704956e+00
C     4.959922536400000e+00   2.707895102142630e+00  -4.430037000000020e-01  1.69672016e+00   6.46978360e-01  -8.59564200e-02
C     3.662874095700000e+00   2.200362704753813e+00   3.815714700000000e+00  1.44112413e+00   5.11523072e+00  -5.61557850e-01
C     4.879305796000001e+00   3.138124606166951e+00   3.821181600000000e+00  1.08187878e+00  -1.02811920e+01   2.13874750e-01
C     6.186472618000000e+00   2.008358869995878e+00  -1.596305999999998e-01 -3.19181560e-01  -1.42760564e+00  -1.76662383e+00
C     7.390923333699999e+00   2.799821734074966e+00  -9.598320000000271e-02  1.05026553e+00  -4.53835916e+00  -1.52087055e+00
C     6.111639408500000e+00   2.338929668098223e+00   3.831404100000000e+00 -9.71886560e-01  -3.71517005e+00  -6.06703300e-02
C     7.368291675700000e+00   2.860794709187615e+00   3.790752300000000e+00  1.15364726e+00   2.49440870e+00   1.46956332e+00
C     8.687518263699999e+00   2.057711874257239e+00  -3.434318999999988e-01 -2.84416586e+00   8.10385690e-01   2.71924916e+00
C     9.845459458000001e+00   2.838103398908378e+00  -3.416294999999998e-01  2.61467225e+00  -4.31245376e+00  -1.17814906e+00
C     8.638168470700000e+00   2.121426725635017e+00   3.806351100000000e+00 -2.42795607e+00   3.31063851e+00  -1.55053330e+00
C     9.850927074499999e+00   2.833732706394189e+00   3.679804800000000e+00  5.12432330e-01   1.78382655e+00  -2.48597560e-01
C     2.471384004900000e+00   4.244950205293398e+00  -9.103665000000021e-01  2.67099789e+00  -4.52907919e+00   1.22386623e+00
C     3.749814990800000e+00   4.894836617174504e+00  -7.041563999999987e-01 -8.11816090e-01  -6.78077510e-01  -9.90063710e-01
C     1.224848871710000e+01   4.489385528370943e+00   3.745639800000000e+00  1.47573245e+00  -4.74027245e+00   2.38160000e-04
C     3.693629950000000e+00   5.049903339689208e+00   3.816141000000000e+00 -1.53843539e+00   3.28256107e+00   1.01374748e+00
C     5.049257439500000e+00   4.091253310839895e+00  -5.502564000000021e-01 -2.08055293e+00   4.29686996e+00  -4.63118160e-01
C     6.271870965400000e+00   4.896768141345079e+00  -4.860959999999999e-01 -2.97595999e+00  -9.53004100e-01   2.82797344e+00
C     4.962220557300000e+00   4.425181733253082e+00   3.929027400000000e+00 -3.38672070e+00   2.45034690e+00  -1.57367033e+00
C     6.169331501000000e+00   5.077690475252595e+00   3.855250200000000e+00  3.68739000e-03   1.56038706e+00   2.11660298e+00
C     7.408357539199999e+00   4.158993537148049e+00  -1.596432000000014e-01  2.20177160e+00   2.43359814e+00  -1.00705903e+00
C     8.677528555399999e+00   4.877667228802368e+00  -2.843115000000012e-01 -1.08384411e+00   2.65272065e+00  -1.12796182e+00
C     7.288852071399999e+00   4.272091023153554e+00   3.968235000000000e+00  5.70376769e+00   1.64199687e+00  -2.17996887e+00
C     8.624558269000000e+00   4.978889171372916e+00   3.807264300000000e+00 -1.59331178e+00   1.12482617e+00   1.80515869e+00
C     9.833539802599999e+00   4.158680838584272e+00  -6.633348000000012e-01  1.27903561e+00   3.09367884e+00   1.29730470e+00
C     1.111329528230000e+01   4.877235752602814e+00  -9.242691000000001e-01 -2.65780772e+00  -1.26513774e+00   8.46863940e-01
C     9.882086843700000e+00   4.327737619699094e+00   3.657095100000000e+00 -3.90332246e+00  -2.04249427e+00   6.92458240e-01
C     1.095230701970000e+01   5.173705414622545e+00   3.753621000000000e+00  4.85750383e+00  -3.06579491e+00  -6.84989070e-01
C     1.349785681070000e+01   6.337591158089391e+00  -6.570399000000009e-01  3.77580835e+00  -1.39494801e+00   6.62994890e-01
C     4.903241438999999e+00   6.941009811960224e+00  -2.676783000000000e-01 -2.59243800e-02   3.65487418e+00  -4.70634380e-01
C     1.353136439380000e+01   6.480656728324980e+00   3.938140500000000e+00  2.09776096e+00  -2.62110280e-01  -2.00263600e-01
C     4.962518871599999e+00   7.292095838911083e+00   3.871910100000000e+00 -2.38461759e+00  -2.38602516e+00  -4.39158320e-01
C     6.155820293700000e+00   6.301475413264231e+00  -1.821111000000002e-01  4.01159540e-01   3.30893900e-02  -1.69277034e+00
C     7.365380214900000e+00   7.105801698900705e+00  -1.901961000000014e-01  2.04238073e+00  -2.43362776e+00  -1.36236040e-01
C     6.161257294900000e+00   6.500829713633456e+00   4.014225300000000e+00  1.33993907e+00   1.79644028e+00  -4.10133770e-01
C     7.435324589900000e+00   7.222799463333054e+00   4.161138900000000e+00 -1.13760110e+00  -2.16279593e+00  -1.80622761e+00
C     8.645622186999999e+00   6.419860510729266e+00  -3.177854999999994e-01 -4.67654820e-01  -4.04136886e+00  -2.34687770e-01
C     9.918340239599999e+00   7.023974837783904e+00  -5.428751999999974e-01 -3.86913402e+00  -2.48314860e-01   2.47491260e-01
C     8.664071528800001e+00   6.431125514914901e+00   4.051125900000000e+00 -2.34406032e+00   1.71103710e-01  -1.16986454e+00
C     9.796911726699999e+00   7.221713301199998e+00   3.852445200000000e+00  1.29272751e+00   9.21563900e-01   2.16710690e-01
C     1.102838027210000e+01   6.225277040905323e+00  -8.249322000000028e-01  3.03692162e+00   5.76140714e+00  -1.73482600e-02
C     1.232566392310000e+01   7.107171526961906e+00  -8.086269000000001e-01 -8.16955440e-01  -7.42730262e+00   1.88929690e-01
C     1.102856771070000e+01   6.545694699376632e+00   3.817525500000000e+00 -7.56077340e-01  -1.10493348e+00   9.12722950e-01
C     1.228461013690000e+01   7.052998849015320e+00   4.069971600000000e+00  6.89561570e-01   6.68683259e+00  -1.91171200e+00
