52
Lattice="8.88768389401873 1.33226762955019e-15 0 4.44384194700937 7.69696003302603 0 0 0 30 " PBC="1 1 1" Properties=species:S:1:pos:R:3:force:R:3 Energy="-419.3439599"
C     1.326577586547281e+01   7.590043174584876e+00  -2.011803000000008e-01 -8.40119020e-01   1.26365540e-01   1.26323300e-01
C     9.488221406800523e+00   7.383328612995177e+00  -1.678647000000026e-01 -1.74760630e-01   2.65721160e-01  -4.55739270e-01
C     1.085225766946849e+01   6.973637056636745e+00  -2.898980999999985e-01  3.53841370e-01   1.65809450e+00   4.98349380e-01
C     1.119592569602829e+01   5.600642319832502e+00  -2.614428000000011e-01 -9.41216330e-01   4.76370170e-01   1.60277400e-01
C     7.098066798729711e+00   6.814390263308858e+00  -3.171510000000310e-02 -5.56940000e-03  -2.22777587e+00  -8.96039050e-01
C     8.445213706810513e+00   6.382907073713491e+00  -1.745657999999999e-01  9.83529660e-01   1.53220201e+00   7.97037580e-01
C     8.808683137576203e+00   5.019642218022372e+00  -1.833114000000009e-01 -1.08730791e+00  -2.42825820e-01   9.20023000e-03
C     1.014994288831319e+01   4.628961922029239e+00  -1.769618999999985e-01  1.54833770e+00  -1.11607383e+00  -7.36941400e-02
C     1.053263242429026e+01   3.229727247877923e+00  -9.296339999999859e-02 -9.83384290e-01   1.20198178e+00  -3.81893020e-01
C     4.700525325487772e+00   6.212799638874473e+00  -2.168235000000003e-01  3.52538240e-01  -5.38006570e-01   3.79502640e-01
C     6.080081306198855e+00   5.796921804831130e+00  -1.228875000000009e-01 -9.29909840e-01   1.49148333e+00  -1.37179710e-01
C     6.407126342082947e+00   4.441030944727152e+00  -1.911527999999976e-01 -3.25827020e-01  -8.65322950e-01   1.81825970e-01
C     7.763192352041544e+00   4.048406858448043e+00  -1.766280000000009e-01  4.87234990e-01  -8.86934990e-01  -5.80273500e-02
C     8.096489740201605e+00   2.653434145004538e+00  -1.857789000000025e-01  1.03052919e+00   5.79369520e-01   1.78059900e-02
C     9.480202801749858e+00   2.257382063636868e+00  -1.208747999999993e-01  1.30865800e-01  -6.53170000e-02   2.82065060e-01
C     3.655689828891256e+00   5.249158869761746e+00  -2.398871999999983e-01  1.59077425e+00  -1.92128236e+00  -3.41659900e-02
C     4.025500444314639e+00   3.817940170932167e+00  -1.972563000000029e-01 -3.20037160e-01   2.51025953e+00   1.63698140e-01
C     5.365258220919772e+00   3.438237972060223e+00  -2.015750999999995e-01  1.52752711e+00   2.89499730e-01  -1.53533800e-02
C     5.715875794141633e+00   2.062086865886878e+00  -1.951491000000019e-01  6.84249700e-01   2.97241330e-01  -5.63390000e-03
C     7.100083010907988e+00   1.656521649800530e+00  -2.388840000000023e-01 -8.12246690e-01   8.56656780e-01   2.44845040e-01
C     7.460842320235397e+00   3.091082214735934e-01  -2.664083999999995e-01 -1.13171052e+00  -2.12979997e+00  -3.14045000e-03
C     3.023391066003398e+00   2.875114598706969e+00  -1.012254000000006e-01 -1.87158605e+00  -2.40798957e+00   9.09131400e-02
C     3.317070981064513e+00   1.447201051483872e+00  -5.276819999999915e-02  1.41193679e+00   1.82717404e+00  -1.59053960e-01
C     4.701298461792207e+00   1.106397749211543e+00  -1.196510999999987e-01 -4.72117850e-01  -2.35645958e+00  -1.15541960e-01
C     9.198396880077653e-01   8.724421836532679e-01  -6.875910000000118e-02  1.78405222e+00   2.61707270e-01  -3.56724900e-01
C     2.327780842461741e+00   4.626399450096052e-01  -2.705010000000030e-02 -1.97370885e+00   1.36983972e+00   1.32644430e-01
C     8.616369570219490e-02   9.743612489817119e-02   3.625065600000000e+00 -1.95350220e-01   1.38663312e+00  -4.16192710e-01
C     6.942467406375703e+00   7.202021100707705e+00   3.486604200000000e+00 -6.93100140e-01   7.12024980e-01  -2.00125990e-01
C     8.309170152489296e+00   7.600435533047782e+00   3.452274000000000e+00 -1.18445550e+00   1.79782479e+00   5.63290910e-01
C     9.292876202480880e+00   6.643021373690523e+00   3.472830600000000e+00  1.54816898e+00  -2.05490416e+00   3.96017050e-01
C     1.066378020118002e+01   6.998828591058133e+00   3.617475000000000e+00  8.56779920e-01   5.26605390e-01   3.38036900e-02
C     1.172638093234229e+01   6.031133987036805e+00   3.691792500000000e+00 -1.55557516e+00  -1.74562680e-01  -8.79759730e-01
C     4.182971362660857e+00   6.443010402469352e+00   3.685541700000000e+00  4.67228440e-01  -1.12045496e+00  -1.05649400e-01
C     5.201889571861517e+00   5.434588258084483e+00   3.631676100000000e+00  5.29751310e-01   8.94458590e-01  -6.52813200e-02
C     6.582352674561538e+00   5.838754012898177e+00   3.528603900000000e+00 -4.95281290e-01  -6.94093710e-01   2.45996370e-01
C     7.597341327653346e+00   4.842422484237233e+00   3.525579600000000e+00  6.67034160e-01  -2.50067100e-02  -2.38294140e-01
C     8.967162228780262e+00   5.236765224721440e+00   3.473442000000000e+00 -5.83703900e-02   8.32833410e-01   9.65352100e-02
C     1.001027049164048e+01   4.277526654928271e+00   3.496082100000000e+00 -6.59510570e-01  -8.06947640e-01  -2.75396250e-01
C     1.137529653173164e+01   4.647975183604147e+00   3.546570000000000e+00  2.84938320e-01   3.71019300e-01   7.67970090e-01
C     3.498972942314801e+00   3.653225457198967e+00   3.605350200000000e+00  2.96565000e-03  -1.24917740e-01  -2.92503000e-01
C     4.866620049289494e+00   4.066061914456056e+00   3.645637500000000e+00  9.56054400e-02  -5.46984890e-01  -3.12246610e-01
C     5.906253272173174e+00   3.085322887423886e+00   3.601458600000000e+00  1.36718530e-01  -3.09818600e-01   4.15043790e-01
C     7.281988304778401e+00   3.460249430475616e+00   3.572751600000000e+00 -8.35080510e-01   2.87838510e-01  -1.20605790e-01
C     8.298301400527045e+00   2.469379510712759e+00   3.552356100000000e+00 -4.57605040e-01   8.93546100e-01  -2.47966090e-01
C     9.645332769269800e+00   2.888447811658137e+00   3.467049600000000e+00  8.14871780e-01  -5.14662440e-01   6.35167200e-01
C     1.763148152258954e+00   1.871638982654980e+00   3.514258800000000e+00  1.09943262e+00   6.70172500e-01  -5.03086140e-01
C     3.154918744095680e+00   2.264096198840638e+00   3.540812100000000e+00 -3.60163140e-01   5.81307180e-01   2.49577150e-01
C     4.195385231800253e+00   1.310736413179182e+00   3.571882200000000e+00  7.40882500e-02  -9.51335680e-01  -4.14185320e-01
C     5.571207763665201e+00   1.703866189732261e+00   3.634880700000000e+00 -6.31172810e-01  -4.64936350e-01  -2.91880280e-01
C     6.577097072659558e+00   6.835040591312546e-01   3.656786100000000e+00 -3.44932300e-02   8.49314960e-01  -3.26932820e-01
C     7.938708909023620e+00   1.114370029501816e+00   3.605118900000000e+00  5.88614790e-01  -1.81313721e+00   3.51698740e-01
C     1.450488142042542e+00   4.916915048860377e-01   3.500782200000000e+00  3.20693900e-02  -2.29489420e-01   5.29993560e-01
