52
Lattice="8.88768389401873 1.33226762955019e-15 0 4.44384194700937 7.69696003302603 0 0 0 30 " PBC="1 1 1" Properties=species:S:1:pos:R:3:force:R:3 Energy="-417.04219642"
C     1.330444031227049e+01   7.688039946051632e+00  -5.794829999999962e-02  6.58124170e-01  -1.59265999e+00   5.58010410e-01
C     9.581070818301022e+00   7.527669011711364e+00  -1.473659999999910e-02 -1.35848749e+00   2.36275220e-01  -2.98576730e-01
C     1.089944207227762e+01   7.136897044924274e+00   5.484990000000000e-02  5.89224000e-01  -1.23598590e+00  -2.43588140e-01
C     1.122128070293261e+01   5.771249518286268e+00   4.812480000000000e-02  9.51617700e-02  -2.15411123e+00   2.52259880e-01
C     7.199403726114461e+00   6.899310053623845e+00  -4.580009999999746e-02 -8.61771030e-01   2.74966420e-01  -2.92217370e-01
C     8.598228605486337e+00   6.547315679346297e+00  -4.941390000000112e-02 -2.54741387e+00  -1.34949505e+00   3.67698520e-01
C     8.896776793857914e+00   5.152181252772561e+00  -5.818800000000124e-03 -5.52578480e-01  -9.47642080e-01  -4.00312370e-01
C     1.021058493314261e+01   4.716614979820480e+00   3.598410000000000e-02  1.69151308e+00   1.56019017e+00  -3.30566950e-01
C     1.056060503181781e+01   3.344848600867425e+00  -1.981709999999737e-02  1.43549156e+00   1.15819127e+00   2.06914830e-01
C     4.773926618151170e+00   6.246053200140084e+00   9.208800000000000e-03 -3.37719200e-02   2.97023519e+00   1.52688080e-01
C     6.157233868068889e+00   5.874457439571736e+00   3.170310000000000e-02  8.78984130e-01   6.48015540e-01  -8.01643800e-01
C     6.559180526508902e+00   4.513414773210878e+00  -7.414199999999482e-03 -2.05192738e+00  -1.56501358e+00   5.54830670e-01
C     7.914656749756139e+00   4.107828852302049e+00  -6.508529999999979e-02 -1.02536182e+00   6.02139890e-01   8.04007610e-01
C     8.249485263655485e+00   2.708446165609355e+00  -1.057679999999905e-02 -2.06475712e+00   1.22829761e+00   1.56034930e-01
C     9.588803544313954e+00   2.362144309030795e+00  -3.279420000000144e-02 -1.00497270e+00  -5.94472660e-01  -7.53877200e-02
C     3.683296486034513e+00   5.364082179969675e+00   6.739740000000001e-02  2.05550205e+00  -2.58924183e+00  -1.74249550e+00
C     4.091743329791004e+00   3.925839158447118e+00  -1.698017999999983e-01 -4.51289720e-01   1.32649210e+00   3.23121493e+00
C     5.473105865553366e+00   3.487453181157646e+00   6.585960000000000e-02  6.43609500e-02   2.11604625e+00  -1.93614060e+00
C     5.779200941835689e+00   2.111394438504661e+00   2.455140000000000e-02  2.32310027e+00   1.27227771e+00   2.18564850e-01
C     7.218728436017812e+00   1.710368042778403e+00   7.677059999999999e-02 -2.21224572e+00   2.22065409e+00  -8.53766420e-01
C     7.492290900889037e+00   3.575819054417265e-01   1.870320000000000e-02  1.70636005e+00   4.18679610e-01   1.21269220e-01
C     3.039686367858700e+00   2.988266684472796e+00  -2.892780000000172e-02  1.01921429e+00  -1.71965893e+00  -8.65563900e-01
C     3.392504176073819e+00   1.565084997367342e+00  -3.074130000000252e-02 -7.30826280e-01   1.46091749e+00  -8.64799300e-01
C     4.743611213937857e+00   1.185862242135667e+00  -7.898789999999778e-02  6.34968670e-01  -5.34467600e-01   8.96944460e-01
C     9.625794045205165e-01   1.002747098785150e+00  -7.950840000000170e-02  2.69881464e+00  -2.21005226e+00  -1.13634100e-01
C     2.376524811582629e+00   5.969004818401048e-01  -1.190145000000022e-01 -9.47004350e-01  -1.02476531e+00   9.42877570e-01
C     4.690559609415090e-02   5.342667774743810e-02   3.423978600000000e+00 -9.34953360e-01  -2.45980620e-01  -6.94552520e-01
C     6.856261894155127e+00   7.157419603391464e+00   3.388902300000000e+00 -3.84520500e-01  -6.18120400e-01   7.58527730e-01
C     8.221779378740536e+00   7.548728971927848e+00   3.433886700000000e+00 -5.40944930e-01  -3.57241530e-01  -2.08999790e-01
C     9.209791955914200e+00   6.519243557633682e+00   3.438914400000000e+00  2.77862860e-01  -7.50278880e-01   2.06552350e-01
C     1.059074054830771e+01   6.863373716939778e+00   3.427687200000000e+00 -3.99196900e-02   6.62673230e-01  -6.17511770e-01
C     1.167883355657367e+01   5.945739217318367e+00   3.378756900000000e+00 -1.06329164e+00  -5.56687020e-01   4.87266580e-01
C     4.119060516605884e+00   6.405145130632167e+00   3.417808800000000e+00  4.16661610e-01  -2.12705344e+00  -6.96334570e-01
C     5.094951492788843e+00   5.372471558523975e+00   3.342669300000000e+00  1.61411232e+00  -3.68932970e-01   1.12120819e+00
C     6.480573229409432e+00   5.774657116430750e+00   3.517790400000000e+00  7.29101290e-01  -1.91916897e+00  -1.89266241e+00
C     7.515433632655349e+00   4.680659246797138e+00   3.459381300000000e+00 -5.19169410e-01   2.16167830e+00   8.98017210e-01
C     8.897812209003256e+00   5.109318883575099e+00   3.463910100000000e+00 -4.33245430e-01   6.52572720e-01  -1.10660050e-01
C     9.990431847983746e+00   4.182593889310256e+00   3.452622900000000e+00 -1.01424719e+00  -6.67734430e-01  -2.44565810e-01
C     1.137416548501229e+01   4.544053908063098e+00   3.397223100000000e+00 -1.98200280e+00   1.07429072e+00   1.55675100e-02
C     3.426411002450532e+00   3.516151296629501e+00   3.351734400000000e+00  8.30955350e-01   2.23241343e+00   4.11600000e-01
C     4.768584274319486e+00   3.961866627137940e+00   3.311263800000000e+00  1.04305077e+00  -4.17577500e-01  -3.32327700e-02
C     5.789083780224082e+00   2.932244437864041e+00   3.316189500000000e+00  9.90426700e-02   1.30906706e+00   1.66535995e+00
C     7.138933122428993e+00   3.304472041881251e+00   3.503050800000000e+00  1.98882698e+00   5.76850860e-01  -1.91044503e+00
C     8.227355641545952e+00   2.341849041793291e+00   3.374867400000000e+00 -4.70131070e-01   9.23015060e-01   8.45709940e-01
C     9.642205904264015e+00   2.796691119626903e+00   3.421455600000000e+00 -2.48563727e+00  -2.27479190e-01   7.09596370e-01
C     1.736734177887486e+00   1.806238913884874e+00   3.545616600000000e+00 -8.67382440e-01   1.84382510e-01  -1.68370180e+00
C     3.061165321872646e+00   2.188002820470453e+00   3.481948800000000e+00  9.41682910e-01   2.25423450e-01  -2.86676460e-01
C     4.079069401954888e+00   1.259400383715093e+00   3.422567700000000e+00  8.78988430e-01  -3.21101025e+00   5.98348370e-01
C     5.440355282439528e+00   1.578265810509916e+00   3.462307500000000e+00  9.91553200e-01  -6.37274040e-01  -1.84470678e+00
C     6.460919090726447e+00   5.322927381354868e-01   3.327623700000000e+00  6.98443660e-01   2.03523319e+00   1.45807686e+00
C     7.855206185836824e+00   9.534068910568394e-01   3.361801800000000e+00  1.62666800e-02   1.56859485e+00   3.96076300e-02
C     1.392357934474923e+00   4.668494894196125e-01   3.359274300000000e+00  2.04517590e-01  -1.51632324e+00   1.35252986e+00
