76
Lattice="10.7446858958278 0 0 5.37234294791388 9.3051709414712 0 0 0 30 " PBC="1 1 1" Properties=species:S:1:pos:R:3:force:R:3 Energy="-610.77889897"
C     5.670228621891600e-02   5.347998115029960e-02  -3.777720000000073e-02 -4.39834700e-01  -2.06273511e+00  -2.18311870e-01
C     1.247878633719555e+01   8.572407897127137e+00  -4.108440000000257e-02  6.73514970e-01  -2.95715489e+00   1.69425490e-01
C     1.390225194172143e+01   8.290890279077180e+00  -3.633299999999906e-02  2.15241080e-01   2.96674360e+00   5.75143690e-01
C     1.447730242736363e+01   7.002443736508969e+00  -3.305040000000048e-02  3.73254020e-01   1.04541285e+00   7.82711300e-02
C     8.256031353451654e+00   8.976278835660315e+00  -1.234584000000005e-01 -6.74703900e-02   1.15142855e+00  -6.36959970e-01
C     9.654448785037168e+00   8.787174871439003e+00  -1.488753000000003e-01  1.42812693e+00   1.79136582e+00   4.23932670e-01
C     1.025480590703906e+01   7.504879977379225e+00  -1.653279000000012e-01 -1.47932226e+00   2.65533500e-02   6.27344670e-01
C     1.164823839532469e+01   7.383589028262223e+00  -2.071830000000219e-02  1.34223358e+00  -5.35613560e-01  -8.93030480e-01
C     1.226358704032856e+01   6.059036189205787e+00  -1.078517999999988e-01 -2.18557924e+00   5.86947500e-02  -1.22207200e-01
C     1.365395331759891e+01   5.898600246978392e+00  -1.003836000000007e-01 -6.25690800e-02  -2.60194916e+00  -1.26067045e+00
C     5.962333384151853e+00   8.017943747031767e+00  -4.499639999999872e-02  1.75597519e+00   4.06612800e-02  -4.02528470e-01
C     7.414566918153252e+00   7.855579773385604e+00  -1.705400999999966e-01 -2.41683459e+00   2.13695600e-02   6.11057430e-01
C     7.923960335177186e+00   6.546195200426753e+00  -2.246901000000001e-01  2.83055753e+00   5.96492020e-01   4.39731380e-01
C     9.369087226477465e+00   6.391990558971038e+00  -1.955448000000004e-01  6.46137130e-01  -1.75115686e+00  -5.58646020e-01
C     9.973954376662451e+00   5.047629895586333e+00  -2.837399999999981e-01 -3.91631160e-01   1.94128534e+00   5.98725860e-01
C     1.139073603443052e+01   4.889089044472579e+00  -2.823780000000014e-01  4.46285050e-01   2.29644806e+00  -4.81407900e-01
C     1.196348146260659e+01   3.634109479707171e+00  -5.175356999999998e-01 -1.43642009e+00  -1.36435062e+00   8.60268080e-01
C     5.144925226114960e+00   6.839451012462391e+00  -5.406479999999902e-02 -3.95704340e-01   1.90967719e+00  -7.19983100e-02
C     5.692916241063168e+00   5.572728787229250e+00  -1.390049999999974e-01  1.57535324e+00  -2.36912564e+00  -1.96081370e-01
C     7.128755479594918e+00   5.419003827335493e+00  -1.700616000000004e-01 -1.08286677e+00  -1.68852189e+00   1.40019430e-01
C     7.727600663120390e+00   4.092153448522262e+00  -1.330464000000013e-01 -1.41951013e+00   4.69490920e-01  -1.63432700e-01
C     9.135770616309896e+00   3.922759139075800e+00  -2.465697000000020e-01 -9.53403130e-01   2.69605940e-01  -2.03240880e-01
C     9.680986063996418e+00   2.623691209138127e+00  -2.948270999999991e-01  5.05672460e-01   9.14152160e-01   4.54672490e-01
C     1.109266856245349e+01   2.494896104916561e+00  -4.107212999999987e-01  2.47733810e-01  -1.52910666e+00   4.65678290e-01
C     3.480115656585620e+00   4.567938190993008e+00  -3.674982000000000e-01 -9.98713370e-01   9.01920300e-02   7.64200650e-01
C     4.885859405975476e+00   4.364483326889481e+00  -2.542091999999982e-01 -1.74978365e+00   3.50342031e+00   2.30277710e-01
C     5.380916564667046e+00   3.103605958678882e+00  -1.482890999999995e-01  3.61487203e+00  -1.34052974e+00  -5.73355700e-02
C     6.842571469053002e+00   2.956704201480299e+00  -4.759199999999808e-02 -2.84496270e-01   5.74865440e-01  -2.25452380e-01
C     7.404596655489494e+00   1.661699839692123e+00   1.581270000000000e-02  2.44175260e-01   1.31898237e+00  -8.59698570e-01
C     8.824939800569407e+00   1.551036977667660e+00  -8.417580000000058e-02 -1.24179300e-02  -4.07612373e+00   3.32130910e-01
C     9.404314914839496e+00   1.617707689987376e-01  -1.085129999999879e-02 -1.75216321e+00   1.48017189e+00  -4.74867870e-01
C     2.595448719603350e+00   3.422456387798666e+00  -5.099777999999979e-01  1.91841848e+00   7.84607070e-01   1.12859535e+00
C     3.131466931053188e+00   2.110979640205665e+00  -2.945108999999988e-01  2.36649460e+00   1.08191322e+00  -6.72924300e-01
C     4.606768338660157e+00   1.947650720333024e+00  -1.854468000000011e-01 -2.82055934e+00  -4.53743900e-02   2.18018660e-01
C     5.178513221685219e+00   6.577421493067204e-01  -7.318709999999840e-02 -3.69602485e+00  -2.05407070e-01  -7.14087050e-01
C     6.527897762676947e+00   5.534632859090635e-01  -6.544260000000079e-02  3.06891452e+00  -1.27768436e+00   8.31393990e-01
C     8.926882210706266e-01   1.162686040693598e+00  -2.090999999999994e-01  3.60673260e-01   1.77115190e+00  -5.48200130e-01
C     2.300105670183126e+00   1.014298806006153e+00  -2.139177000000032e-01  5.85907200e-02  -2.22119407e+00   3.51470360e-01
C     1.603300255892024e+01   9.265227656274664e+00   3.690138000000000e+00  8.83225380e-01   1.95209431e+00  -2.76770700e-01
C     1.179624794785322e+01   8.833441670180033e+00   3.542437800000000e+00 -2.23353950e-01  -6.87764190e-01  -8.19703450e-01
C     1.319595689068391e+01   8.969483641529671e+00   3.475715100000000e+00  1.95937296e+00  -2.75944117e+00   6.98812760e-01
C     1.410175561631943e+01   7.775457133748187e+00   3.508175100000000e+00 -3.01154265e+00   1.58588892e+00  -1.62497400e-02
C     7.618546399109750e+00   8.327510127949584e+00   3.619483800000000e+00 -2.96992611e+00  -3.23389390e-01  -3.47273800e-01
C     8.982353854325625e+00   8.496175563356315e+00   3.480822300000000e+00 -1.77542830e-01  -5.93753250e-01   6.98248770e-01
C     9.770949868504520e+00   7.363109649747216e+00   3.542240400000000e+00  2.87595478e+00  -1.94398787e+00  -5.07202300e-01
C     1.121744488066045e+01   7.533986179872708e+00   3.605925300000000e+00  2.32862720e-01  -1.46914183e+00   6.56750300e-02
C     1.209726440632236e+01   6.347098506184683e+00   3.684472500000000e+00 -7.84483190e-01   1.72385027e+00  -1.09829044e+00
C     1.350601833319053e+01   6.485525578949662e+00   3.536746800000000e+00  6.88085030e-01  -3.38071800e-02   1.84307700e-01
C     4.724758420699532e+00   7.998984275138097e+00   3.574391700000000e+00  1.29532514e+00  -1.67679729e+00  -3.74947400e-02
C     5.603790575778694e+00   6.858535731956911e+00   3.532618200000000e+00 -1.47022270e-01  -3.13336110e-01  -7.59222700e-01
C     7.028862027335759e+00   7.009227578331067e+00   3.502621200000000e+00 -5.32640310e-01   4.68639440e-01   5.05196910e-01
C     7.843925318845265e+00   5.846525439691741e+00   3.449868000000000e+00  6.37064540e-01   1.81972180e-01  -4.19768740e-01
C     9.258133355723135e+00   6.022891927620126e+00   3.470643300000000e+00  7.54457230e-01   3.59467000e-03   9.78081250e-01
C     1.017035084926846e+01   4.878587972963369e+00   3.615409800000000e+00 -3.39098432e+00   9.92389050e-01  -5.45821830e-01
C     1.153443540993369e+01   5.051381182199084e+00   3.653210100000000e+00  1.71953491e+00   5.31497290e-01   1.79147580e-01
C     1.241928156827677e+01   3.950259920427004e+00   3.652253400000000e+00 -4.14826800e-01  -1.63707593e+00   5.66353000e-02
C     3.641599475020182e+00   5.339864465111305e+00   3.474404700000000e+00 -1.29632954e+00   9.89771790e-01   3.14481410e-01
C     5.020650845909823e+00   5.542160277122547e+00   3.390539400000000e+00  1.16317318e+00   6.28695200e-01   1.06232766e+00
C     5.863655263314843e+00   4.411021278311702e+00   3.478967700000000e+00  2.14900890e-01  -1.45492250e+00  -7.19179290e-01
C     7.273437778964221e+00   4.543017547440047e+00   3.417430500000000e+00 -7.63517100e-02   6.24805660e-01   1.21998542e+00
C     8.128074984282305e+00   3.435947582937735e+00   3.618741600000000e+00  5.95564920e-01  -1.32161487e+00  -1.06035214e+00
C     9.544565246168764e+00   3.608822677677721e+00   3.641024100000000e+00  9.17612700e-01  -1.13925198e+00   4.19187840e-01
C     1.041517571643951e+01   2.446476461826852e+00   3.730674300000000e+00 -1.15908799e+00   8.04584410e-01  -9.43201300e-01
C     1.183148686441201e+01   2.647679846769737e+00   3.689177400000000e+00 -7.20666300e-01  -9.29950850e-01   5.92634950e-01
C     3.088074517046038e+00   4.049363619954671e+00   3.597279300000000e+00 -1.91606420e-01   2.43834950e-01  -1.21163600e-01
C     3.929839803549640e+00   2.901373049623196e+00   3.620256300000000e+00 -9.41955910e-01  -7.53559060e-01  -5.62278830e-01
C     5.327718765201274e+00   3.065921505199233e+00   3.543924000000000e+00  4.42408640e-01   1.31516923e+00   2.03406480e-01
C     6.204842986405174e+00   1.946200788597153e+00   3.565362300000000e+00 -9.62772020e-01  -2.27389000e-02  -1.00991539e+00
C     7.608209151699079e+00   2.088406784332575e+00   3.563987100000000e+00  2.59663320e-01   9.94160500e-02   2.96066260e-01
C     8.454592719096219e+00   8.900971994191186e-01   3.535076700000000e+00 -1.45062149e+00   3.83273570e+00   1.66680600e-02
C     9.829994496249636e+00   1.141379618585443e+00   3.615515100000000e+00  1.67622662e+00  -1.32668806e+00   7.57632140e-01
C     1.863688440642249e+00   1.462790551592786e+00   3.732647700000000e+00  2.62676916e+00  -1.80187800e-02  -6.38285530e-01
C     3.327549229043474e+00   1.591471667470336e+00   3.595935300000000e+00 -7.15411630e-01   4.02957870e-01   5.78117290e-01
C     4.177054235141425e+00   4.461351179943684e-01   3.503376900000000e+00  6.13078880e-01   2.93078520e+00  -2.45191420e-01
C     5.595838057680098e+00   6.708746301060518e-01   3.426126000000000e+00 -2.90979550e-01  -8.58330940e-01   1.38093760e+00
C     1.341572617108133e+00   1.398389463517046e-01   3.753348300000000e+00 -1.90036120e-01  -1.33150960e-01  -6.32835640e-01
