64
Lattice="9.86 0 0 4.93 8.53901048131456 0 0 0 30 " PBC="1 1 1" Properties=species:S:1:pos:R:3:force:R:3 Energy="-510.97501004"
C     4.972326367099999e+00   8.388752842797526e+00  -3.448083000000004e-01 -6.66070640e-01   1.07895170e+00   8.77425400e-02
C     1.284958059400000e+00   5.836403416267424e-01  -2.900856000000012e-01 -1.45858512e+00  -1.66088213e+00  -8.57182580e-01
C     9.826286342900000e+00   1.698121419818824e-01   3.971151900000000e+00 -2.25549268e+00  -5.89436580e-01  -6.27578170e-01
C     1.161170196400000e+00   8.474774919763152e-01   3.821454300000001e+00  2.21685265e+00   4.24903970e-01   4.03468600e-02
C     7.420809683900000e+00   8.432679732849373e+00  -2.648969999999977e-01  2.08357830e+00  -8.29703590e-01  -1.09646500e-01
C     3.748360788700000e+00   6.241255835046232e-01  -3.957990000000002e-01 -1.36407125e+00  -2.20997058e+00  -2.18283030e-01
C     2.381440887700000e+00   1.185475094443640e-01   4.010041500000001e+00  2.05592442e+00  -3.07998320e-01   4.15655120e-01
C     3.675509587100000e+00   7.915737004351177e-01   4.051396200000000e+00 -7.87824840e-01   1.73000135e+00  -8.14122050e-01
C     9.884526651400000e+00   8.371005961146629e+00  -5.093177999999980e-01  4.45195700e-01   3.66078018e+00   2.04587830e-01
C     6.197885469400000e+00   6.061983579523872e-01  -4.737507000000001e-01 -7.20068680e-01  -1.95540751e+00  -5.60687960e-01
C     4.958903505399999e+00   1.519110458017152e-01   4.169562600000000e+00 -3.17219372e+00  -6.21279010e-01  -3.08977390e-01
C     6.143628354400000e+00   8.658916972962256e-01   4.033549200000000e+00  1.04145876e+00  -1.58071396e+00   1.71996160e-01
C     1.236640914060000e+01   8.518381938482417e+00  -5.616008999999984e-01  3.75291350e-01  -4.16371717e+00   6.17426800e-02
C     8.684921879199999e+00   6.141623514666640e-01  -3.327834000000003e-01 -8.80820160e-01   7.59501500e-02  -5.43830720e-01
C     7.351793036299999e+00   7.052906713092240e-02   3.920849400000000e+00  2.12601905e+00   2.18249805e+00   5.17914550e-01
C     8.584576166200000e+00   8.633342636574656e-01   3.887640300000000e+00 -5.96349450e-01   5.94044800e-02  -6.67330090e-01
C     1.206841962900000e+00   1.918810864822852e+00  -6.506580000000000e-01  2.98767981e+00   3.26904199e+00   1.10186657e+00
C     2.454449109800000e+00   2.739378433782390e+00  -7.856973000000025e-01  8.14218560e-01  -3.06401489e+00  -2.56607500e-02
C     1.107430208820000e+01   2.264110772882358e+00   3.564077100000000e+00 -3.64438390e-01  -4.95951240e-01   4.61357530e-01
C     2.434590626100000e+00   2.968253032672127e+00   3.612816600000000e+00  9.67224330e-01  -1.25870240e+00   3.47346900e-01
C     3.682551648400000e+00   2.010239843224413e+00  -5.954684999999991e-01  2.03957483e+00   1.16726338e+00  -8.66407100e-02
C     4.975849690200000e+00   2.711303362785618e+00  -5.760176999999977e-01 -1.68122028e+00   3.01796320e-01  -1.91851190e-01
C     3.687351989400000e+00   2.227031315334425e+00   3.827299200000000e+00 -1.60497423e+00  -2.74596560e-01   2.21353270e-01
C     4.879756151500000e+00   2.947331773875288e+00   3.955641900000000e+00  1.09565202e+00   3.69366040e-01   9.29114340e-01
C     6.195527302500000e+00   1.973248935215158e+00  -4.418961000000010e-01 -8.11450290e-01   3.23741361e+00   4.71252950e-01
C     7.411307059599999e+00   2.720512514808088e+00  -3.430803000000004e-01  6.82608570e-01   7.15616380e-01   1.28232200e-01
C     6.122422600299999e+00   2.264109150470367e+00   4.089212700000000e+00  1.14879991e+00   7.65228430e-01  -1.19811129e+00
C     7.382800567100000e+00   3.010414055356708e+00   3.971437800000000e+00 -1.11405855e+00  -3.36136025e+00   3.11299720e-01
C     8.643674787700000e+00   2.057937816474540e+00  -2.672825999999979e-01  1.48021443e+00  -1.95616580e+00  -8.15351660e-01
C     9.925454328199999e+00   2.667022103798853e+00  -5.004969000000017e-01 -3.21156575e+00   2.58891099e+00  -5.39670860e-01
C     8.585350718499999e+00   2.314416389152868e+00   3.744912900000000e+00  1.14631482e+00  -1.65225638e+00   2.74025860e-01
C     9.864074644999999e+00   3.001576094119803e+00   3.560887500000000e+00 -2.00527882e+00  -2.18859090e-01   1.41025871e+00
C     2.550634543699999e+00   4.096141381999066e+00  -1.066673400000003e+00 -2.05923876e+00   2.25497273e+00   9.17147510e-01
C     3.808292383000000e+00   4.887984915165353e+00  -1.001764500000000e+00 -2.41225398e+00  -9.73796960e-01   1.41828570e+00
C     1.229381020710000e+01   4.370821709416562e+00   3.660204600000000e+00 -3.32671140e-01   1.91704980e+00   3.51504560e-01
C     3.667172266900000e+00   5.040621179127133e+00   3.901048500000000e+00  3.47705430e-01   1.09840680e+00  -4.35680400e-02
C     4.967148486699999e+00   4.161524072903798e+00  -6.402180000000008e-01  1.27557220e-01  -1.49462079e+00  -7.70532200e-02
C     6.164823607599999e+00   4.817303768257781e+00  -3.147201000000024e-01  1.87048739e+00   1.34108869e+00  -9.50049030e-01
C     4.876016302800000e+00   4.379544564792197e+00   4.070987100000000e+00  1.47078184e+00  -1.12420735e+00  -3.19660790e-01
C     6.118408742200000e+00   5.080392218168467e+00   4.250480400000000e+00 -3.35367440e-01   1.11595205e+00  -9.74602400e-02
C     7.456748940199999e+00   4.161281821176479e+00  -3.471740999999966e-01 -2.74317564e+00  -1.39410541e+00   2.52890330e-01
C     8.636148994799999e+00   4.867182007053766e+00  -5.149374000000009e-01  2.17034345e+00  -1.38111156e+00   4.33404700e-02
C     7.393541558099999e+00   4.336664984375724e+00   4.198574400000000e+00 -2.53694156e+00   4.21865880e+00  -7.11165000e-01
C     8.548645488100000e+00   5.098599864824867e+00   4.044327900000000e+00  3.14415236e+00   1.08741630e-01   1.45627570e-01
C     9.872344079099999e+00   4.124224992006319e+00  -7.208940000000013e-01  9.70360250e-01  -9.47312340e-01   4.53511420e-01
C     1.109492422890000e+01   4.790967325184840e+00  -9.636287999999986e-01  1.77830953e+00   2.73148473e+00  -6.43639930e-01
C     9.820122166699999e+00   4.401494859741979e+00   3.793015800000000e+00  7.65611890e-01   1.83153591e+00  -7.72856780e-01
C     1.108012072070000e+01   5.182064251981418e+00   3.720422400000000e+00 -1.76348530e+00  -1.95707738e+00   3.68807660e-01
C     3.691862840800000e+00   6.313671254982292e+00  -7.967864999999996e-01  1.07834510e+00  -1.16139623e+00  -5.39003030e-01
C     4.900725857199999e+00   6.994549066109405e+00  -5.231187000000013e-01  2.58378028e+00  -9.29819940e-01   1.25800880e+00
C     3.736303093300000e+00   6.451169390384919e+00   3.969503700000000e+00 -2.85415674e+00   1.87291508e+00  -3.17552700e-01
C     4.853311878000000e+00   7.287704225821219e+00   4.080101700000000e+00  2.56323271e+00  -1.54479951e+00   5.09296350e-01
C     6.188630971999999e+00   6.224053656873853e+00  -2.954903999999985e-01 -5.50494520e-01   2.54652963e+00  -4.90309450e-01
C     7.462373577199999e+00   6.997622939101996e+00  -2.202528000000008e-01 -8.33373900e-01  -1.40869275e+00  -7.81745790e-01
C     6.092131595700000e+00   6.574731433733663e+00   4.255309200000000e+00  6.62636880e-01  -2.55673228e+00  -6.50677180e-01
C     7.357258089200000e+00   7.217693391236327e+00   4.196857500000000e+00 -1.22084842e+00   1.82865903e+00  -7.60655100e-02
C     8.715883166599999e+00   6.246852131734615e+00  -4.554123000000025e-01 -2.10821087e+00   2.64514717e+00   9.75289300e-02
C     9.897217358799999e+00   7.011247955004093e+00  -6.888309000000028e-01  4.04334830e-01  -1.97117843e+00   2.20627470e-01
C     8.585956467599999e+00   6.528238997983102e+00   4.161151800000000e+00  5.42047870e-01  -3.40291300e-02   2.59041030e-01
C     9.835264070099999e+00   7.275549883694092e+00   4.177865400000000e+00 -1.41119170e-01  -6.18764030e-01  -1.15895607e+00
C     1.114708313590000e+01   6.343990804883732e+00  -9.640295999999999e-01 -3.44414305e+00  -4.03001291e+00   7.31975690e-01
C     1.231188417870000e+01   6.991154724053501e+00  -8.304776999999994e-01  2.97506709e+00   3.90258064e+00   5.60572450e-01
C     1.104227261770000e+01   6.612262946496407e+00   3.900047100000000e+00  1.95759310e+00  -3.17892387e+00   3.29999720e-01
C     1.236312659870000e+01   7.181960791811405e+00   3.906219600000000e+00 -2.11490627e+00   1.86940115e+00   1.25618540e-01
