52
Lattice="8.88768389401873 1.33226762955019e-15 0 4.44384194700937 7.69696003302603 0 0 0 30 " PBC="1 1 1" Properties=species:S:1:pos:R:3:force:R:3 Energy="-418.4429656"
C     1.263769146565252e+01   6.941043278784906e+00  -2.056910999999992e-01  1.06465645e+00  -3.66985563e+00  -7.78904900e-02
C     8.842494998882078e+00   6.711363374523295e+00  -9.241859999999846e-02  2.08906227e+00   2.17603008e+00  -7.67055080e-01
C     1.025519319726831e+01   6.312298395121483e+00  -1.717338000000019e-01 -9.55861650e-01   1.05344971e+00   9.99439030e-01
C     1.057649887796264e+01   4.952497094474264e+00  -1.161926999999991e-01  2.03555311e+00  -2.54277480e-01   3.27330000e-04
C     6.500982018153968e+00   6.125528427270321e+00  -2.173233000000003e-01 -1.14615799e+00   5.59181200e-01  -1.01570450e-01
C     7.834829796051229e+00   5.761285495649032e+00  -1.056485999999985e-01  8.29650430e-01  -1.33666878e+00  -1.63626100e-02
C     8.186412971681582e+00   4.373224036555665e+00  -7.890659999999983e-02  2.23225349e+00   7.33633580e-01  -1.29103960e-01
C     9.583001132058683e+00   3.977203589693719e+00  -6.170700000000195e-02 -1.36622930e+00   8.92373100e-02  -1.92305990e-01
C     9.922659302289107e+00   2.621558570493099e+00  -1.186851000000004e-01 -7.86475620e-01  -3.10964313e+00  -1.04769315e+00
C     4.112754259897153e+00   5.474459665583887e+00  -2.135174999999983e-01  6.56231290e-01   2.79264837e+00   1.52565950e-01
C     5.513345077619336e+00   5.122130088697032e+00  -2.383050000000004e-01 -1.59415259e+00  -1.03321426e+00   4.30429790e-01
C     5.859789038912650e+00   3.727161993429545e+00  -1.727078999999989e-01 -1.23187348e+00   5.90190870e-01  -5.30153480e-01
C     7.243473215529145e+00   3.394050725132797e+00  -1.702980000000025e-01 -2.52053366e+00  -2.99577503e+00   5.32728410e-01
C     7.532630366000562e+00   1.948040701243966e+00  -1.553334000000000e-01  6.07753380e-01   1.82068524e+00  -3.17646520e-01
C     8.877227530913832e+00   1.555427082830499e+00  -2.137917000000016e-01  1.55293943e+00   1.72720789e+00   6.76037250e-01
C     3.096017753626794e+00   4.523853621312365e+00  -1.438866000000019e-01 -1.41133850e+00   6.57713110e-01  -5.11869160e-01
C     3.414921271120974e+00   3.166581849609404e+00  -2.353740000000002e-01  3.88693900e-01  -1.63233843e+00   3.32037170e-01
C     4.774759347406945e+00   2.726544104697495e+00  -2.110671000000011e-01  1.58564891e+00   3.04807515e+00  -4.41224900e-02
C     5.156019566109517e+00   1.402278129116779e+00  -2.000747999999994e-01 -1.26472398e+00  -1.71619467e+00   1.93642000e-01
C     6.511185031486859e+00   9.925651752094644e-01  -1.652057999999990e-01 -3.12401280e-01  -4.00516800e-01   5.48295200e-02
C     1.130547848832787e+01   7.302030396313506e+00  -1.476702000000003e-01 -1.86795532e+00   3.59247740e-01  -4.34842670e-01
C     2.390679293520398e+00   2.156264482756348e+00  -2.671349999999997e-01 -7.59892280e-01   3.34099530e+00   9.00101140e-01
C     2.732967684943274e+00   8.345581312336094e-01  -2.348973000000001e-01 -1.22274015e+00  -2.88410850e+00  -4.06101730e-01
C     4.078964126813728e+00   4.504773627093998e-01  -1.826459999999983e-01  1.36680056e+00  -2.20259096e+00   1.57292610e-01
C     3.435575980933376e-01   1.754280354293558e-01  -2.634311999999994e-01 -6.16529940e-01   1.31205090e+00   7.07217700e-02
C     6.115107980575249e+00   7.485584728203334e+00  -2.873312999999982e-01  2.63147246e+00   9.76118430e-01   5.61168010e-01
C     6.900075154756581e-01   8.444776654418722e-01   3.512611800000000e+00  8.72220100e-01  -3.42186424e+00   3.82388200e-02
C     3.069507656201279e+00   2.208513371679996e-01   3.521176500000000e+00 -7.33677540e-01  -1.06235362e+00  -6.68531000e-02
C     4.408674091233122e+00   5.713310266812441e-01   3.576426900000000e+00  1.46747072e+00   3.93378310e-01   2.69905310e-01
C     9.877133166668575e+00   7.274131456201565e+00   3.649910400000000e+00  1.11312394e+00   1.01794443e+00   1.57173900e-01
C     1.127053798139956e+01   7.695821649611562e+00   3.663755100000000e+00 -2.65836830e-01  -7.45104930e-01   6.94251400e-02
C     1.231627322141941e+01   6.727103888693446e+00   3.661606200000000e+00  3.94685600e-01  -7.58252900e-01  -7.63906500e-01
C     4.826615786175531e+00   7.093240734299718e+00   3.544087500000000e+00 -2.15385862e+00   2.31944086e+00   2.11471500e-01
C     5.825799471033868e+00   6.140188750069862e+00   3.509976300000000e+00 -2.20962020e-01  -1.87970972e+00   3.10645400e-01
C     7.163449267277375e+00   6.535424953674352e+00   3.526612200000000e+00  1.49466991e+00  -1.13327086e+00   4.44980230e-01
C     8.175194848928829e+00   5.497046394791923e+00   3.661571400000000e+00  4.55975030e-01   4.84257840e-01  -9.17119370e-01
C     9.571022979542157e+00   5.907791203160859e+00   3.698580000000000e+00 -9.39227560e-01  -1.28548934e+00  -2.57043590e-01
C     1.060726968378102e+01   4.905827885815564e+00   3.664456800000000e+00 -1.71711500e-01   1.28559877e+00  -1.63014350e-01
C     3.093012294967669e+00   5.332216534536674e+00   3.597252300000000e+00 -5.79280810e-01   1.11573130e-01   6.13631830e-01
C     4.120684295119883e+00   4.353592939999150e+00   3.567471300000000e+00 -1.12435350e-01  -2.63111610e-01  -5.26333020e-01
C     5.484749309949923e+00   4.720820136963270e+00   3.565452600000000e+00  2.54653100e-01   8.72550360e-01  -5.97840210e-01
C     6.482057160210705e+00   3.712764444845429e+00   3.510728100000000e+00 -3.76703300e-01  -2.53765450e-01   7.37491760e-01
C     7.847136348648581e+00   4.078680541638039e+00   3.563387700000000e+00 -2.51346910e-01   2.57916148e+00   5.91302850e-01
C     8.879244680687259e+00   3.152934523719412e+00   3.618512100000000e+00  5.48383200e-02  -1.30113796e+00  -6.17237410e-01
C     1.023523403487888e+01   3.540124017430138e+00   3.617113800000000e+00  5.67145900e-01   6.98764900e-01  -1.81790090e-01
C     2.382232083530225e+00   2.596898819040184e+00   3.506693400000000e+00  1.01310810e+00  -1.04459480e+00  -3.85714900e-02
C     3.765506182878959e+00   2.982565700117775e+00   3.462855300000000e+00 -1.68075460e-01  -9.23136980e-01   1.17500759e+00
C     4.779150351565109e+00   1.947443263206438e+00   3.589392300000000e+00 -1.36101579e+00   5.43463130e-01  -7.51359990e-01
C     6.118119391153999e+00   2.322929760100350e+00   3.606971100000000e+00  1.58317830e+00   9.02491330e-01  -3.12665980e-01
C     7.175828030038031e+00   1.361010262159132e+00   3.640000500000000e+00 -2.58385490e-01   3.02413950e-01  -4.98504830e-01
C     8.551229685634430e+00   1.757318036538998e+00   3.537248700000000e+00 -1.15367302e+00   1.43115987e+00   7.39913490e-01
C     2.061519209561005e+00   1.200639789636465e+00   3.497128800000000e+00 -4.95896410e-01   1.11228921e+00  -1.16356210e-01
