64
Lattice="9.86 0 0 4.93 8.53901048131456 0 0 0 30 " PBC="1 1 1" Properties=species:S:1:pos:R:3:force:R:3 Energy="-515.76945483"
C     4.962712719200000e+00   7.372679334711892e+00  -2.183247000000001e-01  1.34009758e+00  -1.62754940e-01  -8.05286700e-02
C     6.225897877300000e+00   8.077741587490776e+00  -2.295237000000014e-01 -5.16093950e-01  -2.42866110e-01   2.71390900e-01
C     9.790971569699998e+00   1.172204191306148e+00   3.704510700000000e+00  1.98763700e-01  -4.79565320e-01   6.21964000e-03
C     1.164842849200000e+00   1.858748745958104e+00   3.652801800000000e+00  5.06680980e-01   1.30319563e+00   1.49299800e-02
C     7.472007684599999e+00   7.390148100791456e+00  -1.288529999999994e-01 -1.61270154e+00  -9.19877510e-01  -2.80667370e-01
C     8.671106836000000e+00   8.114476154405422e+00  -1.612824000000010e-01  1.37805824e+00  -1.03908413e+00  -2.60997700e-02
C     2.411986378900000e+00   1.145496386667433e+00   3.632923500000000e+00 -1.02150579e+00   1.30370763e+00  -2.30931030e-01
C     3.628214766000000e+00   1.862306610064701e+00   3.570201900000000e+00  7.10400270e-01   3.37263330e-01   2.36124500e-02
C     9.922065741999999e+00   7.383678263330970e+00  -1.670873999999998e-01 -2.60361910e-01  -9.84616400e-02  -1.82305140e-01
C     1.114089711980000e+01   8.082334977398283e+00  -2.057298000000003e-01  1.03853311e+00   1.04560595e+00   1.91624950e-01
C     4.869739673300000e+00   1.174174141023884e+00   3.534415800000000e+00  1.17416640e+00  -4.53763790e-01   4.10499830e-01
C     6.150201178300000e+00   1.858987240520810e+00   3.621577500000000e+00 -2.56137690e+00   1.97110078e+00  -5.52275680e-01
C     1.240759924130000e+01   7.392100887098127e+00  -2.165247000000008e-01 -2.10626797e+00  -3.23752990e-01  -4.98610780e-01
C     1.360458559190000e+01   8.088998565006559e+00  -3.065340000000027e-01  7.93326860e-01  -1.51287700e-01   5.91789420e-01
C     7.352127093099999e+00   1.162242069339551e+00   3.616947900000000e+00  1.85360250e-01  -1.12147467e+00   3.17930330e-01
C     8.566174941200000e+00   1.871767492116122e+00   3.725474700000000e+00  8.60411060e-01   1.29454844e+00  -1.73040750e-01
C     1.286431242000000e+00   9.452419892035120e-01  -2.986749000000017e-01 -6.02918540e-01   1.03092963e+00  -2.04772270e-01
C     2.515536986300000e+00   1.679350710811374e+00  -2.752454999999969e-01 -2.32997990e-01   5.84328440e-01   1.39519200e-01
C     1.102978566720000e+01   3.305793541908457e+00   3.593489100000000e+00  1.05430045e+00  -8.88054930e-01   2.24791580e-01
C     2.436330423100000e+00   3.991272769612929e+00   3.483026700000000e+00 -2.25406247e+00   1.00204454e+00   2.57431070e-01
C     3.768623384500000e+00   9.889186008581879e-01  -2.191487999999993e-01 -1.58904172e+00  -4.14119920e-01   1.91799120e-01
C     4.976280769400000e+00   1.670155989716614e+00  -1.777770000000025e-01  1.63095089e+00   1.73609923e+00   2.60454480e-01
C     3.627544384600000e+00   3.282149192669547e+00   3.551791800000000e+00  1.19634753e+00   4.27715220e-01  -3.03353650e-01
C     4.860217082500000e+00   4.043886395026077e+00   3.577159200000000e+00  7.80653700e-01  -3.35806516e+00  -1.15711640e-01
C     6.229015855800000e+00   9.889072439742496e-01  -1.768844999999999e-01 -9.46975640e-01  -1.27933169e+00  -1.28482600e-02
C     7.455510474900000e+00   1.688341264165556e+00  -1.747022999999999e-01 -3.54189340e-01  -9.39219570e-01  -2.67754240e-01
C     6.110805942699999e+00   3.338016949586519e+00   3.629630700000000e+00  5.52719190e-01  -2.21810994e+00   2.01744930e-01
C     7.364589788000000e+00   4.002995037809768e+00   3.695706300000000e+00 -4.07350690e-01   8.83078050e-01   1.19850280e-01
C     8.671129168899999e+00   9.535162049685272e-01  -3.139256999999986e-01 -3.58750730e-01   7.65653810e-01   3.45579840e-01
C     9.869367246500000e+00   1.657762042955419e+00  -3.477804000000013e-01  2.46579080e+00   4.40475580e-01   2.79046700e-01
C     8.630954450999999e+00   3.327218602323616e+00   3.766857300000000e+00 -2.71421223e+00  -1.65487311e+00  -3.70870090e-01
C     9.821229148899999e+00   4.032514653209442e+00   3.715117500000000e+00  1.03883637e+00   4.30954370e-01  -7.17297480e-01
C     2.486335758200000e+00   3.121214291372778e+00  -2.743334999999973e-01  1.58326405e+00  -8.72981550e-01  -3.22084990e-01
C     3.747790732800000e+00   3.834185631828552e+00  -1.838106000000010e-01 -4.91689520e-01  -6.17418430e-01  -1.14958510e-01
C     1.226801698940000e+01   5.439731711088875e+00   3.429773400000000e+00  4.88547800e-01  -9.92829980e-01   5.94343610e-01
C     3.657773665600000e+00   6.101274128445496e+00   3.485706000000000e+00 -6.19887160e-01   1.36854438e+00  -5.27096900e-02
C     5.010594801899999e+00   3.121424265640481e+00  -1.157408999999987e-01 -2.42881245e+00  -1.06515027e+00  -3.69542680e-01
C     6.211234972700000e+00   3.806379454271795e+00  -8.037360000000149e-02  1.26278433e+00   4.98898320e-01   3.67848290e-01
C     4.886187977400000e+00   5.401421782130774e+00   3.552498900000000e+00 -1.12749360e-01   2.46138818e+00   1.57682270e-01
C     6.113997230299999e+00   6.144329954038276e+00   3.650563800000000e+00 -6.82768260e-01  -2.06015360e-01  -3.75330160e-01
C     7.445381099699999e+00   3.075867449268213e+00  -9.391919999999843e-02  1.09579468e+00   1.54795927e+00  -5.36918290e-01
C     8.718779541600000e+00   3.781987343885151e+00  -1.964502000000010e-01 -2.89294080e+00   2.13658043e+00   2.94561730e-01
C     7.322147270099999e+00   5.430384141706524e+00   3.684552600000000e+00  1.84378741e+00   3.62535360e-01   1.96587830e-01
C     8.582596968399999e+00   6.157642356766701e+00   3.691143300000000e+00 -5.02359840e-01  -6.68895000e-03  -4.41717320e-01
C     9.909062817699999e+00   3.099311131760844e+00  -3.202325999999971e-01  6.67964200e-02  -1.35343412e+00  -2.13067900e-01
C     1.112033029370000e+01   3.811137049350831e+00  -3.813317999999981e-01  1.00933596e+00   1.67797140e-01   7.58131040e-01
C     9.829564299899999e+00   5.459076070820372e+00   3.616607100000000e+00 -1.16202568e+00  -2.27202830e-01   4.79354740e-01
C     1.103976719170000e+01   6.173933678691179e+00   3.522188100000000e+00  5.30442900e-01  -2.17013797e+00  -2.76920120e-01
C     3.721664690800000e+00   5.254465070209555e+00  -2.002728000000005e-01  1.76089063e+00  -2.99005540e-01   2.96101870e-01
C     4.974818531400000e+00   5.950136546213059e+00  -1.145861999999980e-01 -3.74354860e-01   1.54175530e-01  -3.39079540e-01
C     1.349439210530000e+01   7.532006767285800e+00   3.548799300000000e+00  7.86582030e-01   8.60212420e-01   4.00047090e-01
C     4.864494202600000e+00   8.299854997882449e+00   3.674432700000000e+00 -3.30791110e-01  -1.79391615e+00  -6.06313860e-01
C     6.209156336800000e+00   5.236117639951599e+00  -5.528280000000052e-02 -8.94315030e-01  -2.20559210e-01  -2.54579380e-01
C     7.410426955999999e+00   5.938750458858817e+00  -9.783810000000059e-02  2.29506366e+00   1.13779424e+00   6.22436800e-02
C     6.098038278000001e+00   7.567839614693758e+00   3.647520300000000e+00 -2.77321730e-01   5.09139600e-01   3.14920610e-01
C     7.318136074200000e+00   8.298361866509914e+00   3.656646600000000e+00  8.45686800e-01  -1.60664158e+00  -1.09580930e-01
C     8.662112001699999e+00   5.253182425445354e+00  -1.679066999999996e-01  1.38125066e+00  -1.27705106e+00   2.10918600e-02
C     9.949832980999998e+00   5.953835474772785e+00  -2.159751000000014e-01 -2.30803568e+00  -9.67153200e-02  -1.18064600e-02
C     8.567273838199998e+00   7.588982204642238e+00   3.632827800000000e+00  7.81933500e-02  -4.77603380e-01  -1.67729720e-01
C     9.809326748500000e+00   8.286114790728975e+00   3.530879700000000e+00 -3.55806010e-01  -2.44222800e-02   4.52512760e-01
C     1.115064787100000e+01   5.218997777840246e+00  -3.122498999999976e-01  4.30898890e-01   1.65368552e+00   2.11800230e-01
C     1.239661298280000e+01   5.986896132428411e+00  -2.592044999999992e-01 -1.45777555e+00  -1.50649142e+00   6.83795600e-02
C     1.104242618720000e+01   7.546298765296491e+00   3.533784000000000e+00 -5.33974360e-01   2.16439248e+00  -2.06395940e-01
C     1.226659517740000e+01   8.243762921160167e+00   3.557949900000000e+00  6.19998900e-01   1.01612660e+00  -1.25221730e-01
