64
Lattice="9.86 0 0 4.93 8.53901048131456 0 0 0 30 " PBC="1 1 1" Properties=species:S:1:pos:R:3:force:R:3 Energy="-515.54429533"
C     9.875696528399999e+00   4.717280702758624e-01   9.572130000000000e-02 -3.95192730e-01   3.26304640e-01   9.17430600e-02
C     1.261258316900000e+00   1.160119100554014e+00   1.331529000000000e-01 -1.06610521e+00   7.84325430e-01  -6.73719420e-01
C     1.251466449500000e+00   2.644747582621144e-01   3.319747500000000e+00 -1.43049123e+00  -6.35135980e-01   7.62210590e-01
C     2.450546028800000e+00   9.594408266098655e-01   3.378269700000000e+00  1.52549121e+00  -8.04136900e-01  -4.79317190e-01
C     2.469903673800000e+00   4.678527257596192e-01   7.053540000000000e-02  9.48811140e-01  -7.27714100e-02   3.54129000e-02
C     3.714020775100000e+00   1.173008053752735e+00   7.784970000000001e-02 -7.97609250e-01   9.66348990e-01  -5.67384290e-01
C     3.697409830300000e+00   2.490796054875128e-01   3.367771500000000e+00 -3.59792800e-01  -1.25507398e+00   4.82496720e-01
C     4.925449067699999e+00   9.103801980673399e-01   3.374769600000000e+00  4.87776370e-01   2.51113821e+00  -5.86581960e-01
C     4.943481972400000e+00   4.960341928269728e-01   9.926700000000000e-03 -6.49071240e-01  -2.16621299e+00   4.28998600e-02
C     6.155094203299999e+00   1.152248865374807e+00   2.957010000000000e-02  1.09846319e+00   1.73124125e+00   2.33443950e-01
C     6.173459340700000e+00   2.073412638216920e-01   3.310649400000000e+00 -3.21584080e-01   2.80898223e+00   7.35192050e-01
C     7.394808568100000e+00   9.770389586982023e-01   3.344719800000000e+00  8.17483900e-01  -1.52952912e+00  -1.27512700e-01
C     7.379305492899999e+00   4.391921348142328e-01   1.086831000000000e-01  1.65087886e+00   2.94582621e+00  -7.81109220e-01
C     8.666326412200000e+00   1.189780975868285e+00   7.115880000000001e-02 -2.23804570e+00   4.13370650e-01   1.17006030e-01
C     8.652573684200000e+00   2.276616324510528e-01   3.387348000000000e+00 -4.83721990e-01   5.53489490e-01  -3.36434820e-01
C     9.877641659900000e+00   9.751759173916760e-01   3.342324900000000e+00 -6.07959320e-01  -8.92482980e-01   1.77327300e-01
C     1.110386655870000e+01   2.580232199010866e+00   9.775530000000000e-02 -1.51816535e+00   4.03937070e-01   4.65039160e-01
C     2.429403921000000e+00   3.307432348799779e+00   1.272747000000000e-01  1.86331085e+00  -4.03794270e-01  -6.31270460e-01
C     2.459876990500000e+00   2.344228465661482e+00   3.329916900000000e+00 -9.04172400e-02   1.86767897e+00  -3.60415000e-02
C     3.684367367400000e+00   3.067596136766762e+00   3.298327500000000e+00  3.66296050e-01   1.01258406e+00   4.20990020e-01
C     3.686829951700000e+00   2.600962525533372e+00   4.452990000000000e-02  1.74010450e-01  -4.88672900e-02   7.85584600e-01
C     4.941374348100000e+00   3.305293412064644e+00   4.669890000000000e-02 -1.67263367e+00   5.44089030e-01   5.57502400e-02
C     4.904008004700000e+00   2.404555891581844e+00   3.338297700000000e+00  1.61770870e+00  -2.90388262e+00   1.40736930e-01
C     6.167686064199999e+00   3.088162514288051e+00   3.348324300000000e+00 -8.72573050e-01  -6.71156960e-01  -4.96886200e-02
C     6.145920262100000e+00   2.586253909201362e+00   4.137360000000000e-02  9.82427590e-01   5.79929500e-01  -2.09459500e-01
C     7.364228764100000e+00   3.347366653721491e+00   3.186930000000000e-02  1.25719243e+00  -1.08258646e+00  -1.47259230e-01
C     7.406219348900000e+00   2.410584774541143e+00   3.312995100000000e+00 -1.09747283e+00  -2.54810644e+00   8.94770400e-02
C     8.624787957699999e+00   3.056306625621048e+00   3.269464800000000e+00  6.87874600e-01   2.00575723e+00   9.65302400e-01
C     8.621335429400000e+00   2.647438224823392e+00   1.526550000000000e-02 -4.49244420e-01  -1.99903757e+00   7.62268510e-01
C     9.851562847299999e+00   3.317219848002060e+00   9.475140000000000e-02  2.88677660e-01   9.32842300e-02  -8.59595850e-01
C     9.849355784899998e+00   2.384043309826578e+00   3.342987600000000e+00  1.55725952e+00  -2.01312360e-01  -6.14795700e-01
C     1.111562140420000e+01   3.087508938425912e+00   3.304043400000000e+00 -1.42271058e+00   7.82485080e-01   4.14369420e-01
C     1.230207540140000e+01   4.715702010501081e+00   1.094352000000000e-01 -1.79089580e-01   8.87816830e-01  -9.88096800e-02
C     3.650865059400000e+00   5.452698881623594e+00   1.091823000000000e-01  1.70979683e+00  -6.68276700e-02  -2.01706500e-01
C     3.740485508100000e+00   4.502389245870516e+00   3.309918000000000e+00 -3.07082662e+00   1.06824320e-01   1.90135260e-01
C     4.926777653399999e+00   5.214264433550973e+00   3.310971900000000e+00  1.86004952e+00  -1.38467332e+00   4.34536520e-01
C     4.905836245900000e+00   4.744299071208497e+00   7.559639999999999e-02  1.17114999e+00  -6.77117100e-02  -5.29496990e-01
C     6.185329203099999e+00   5.453079465320687e+00  -2.276009999999928e-02 -2.28681330e+00   6.87381120e-01   6.01567550e-01
C     6.177174588700000e+00   4.468647687519215e+00   3.377446500000000e+00 -1.10745458e+00   1.79454249e+00  -8.13648520e-01
C     7.385449160300000e+00   5.174884139629204e+00   3.329043000000000e+00  7.56974760e-01   1.92882347e+00   8.59017370e-01
C     7.425676579899999e+00   4.760147133098958e+00   2.094750000000000e-02 -1.71938802e+00   4.01418490e-01  -1.31510510e-01
C     8.626156328499999e+00   5.503231635572871e+00   4.229280000000000e-02  4.74408570e-01  -1.63995467e+00  -4.62246570e-01
C     8.629405346399999e+00   4.481415130598807e+00   3.354013800000000e+00 -2.03926010e-01   6.81124370e-01  -6.00017590e-01
C     9.846865395400000e+00   5.225383591437610e+00   3.358370700000000e+00  6.46286790e-01  -1.85411390e-01   2.64751830e-01
C     9.820534511900000e+00   4.733119115567242e+00   1.384470000000000e-02  2.14249318e+00   1.33054370e+00   6.95725890e-01
C     1.109843177600000e+01   5.451497955189686e+00   4.538399999999999e-02 -1.34521985e+00  -4.23512490e-01  -1.97482030e-01
C     1.109237872200000e+01   4.547047672950183e+00   3.330174300000000e+00  4.64996310e-01  -1.82825361e+00   6.39712700e-02
C     1.232909130840000e+01   5.245779359529509e+00   3.360640800000000e+00  6.19549880e-01  -7.15227080e-01  -6.22503120e-01
C     1.354804036530000e+01   6.887075116235714e+00   1.052517000000000e-01 -1.51059526e+00  -6.27546680e-01  -1.18280210e-01
C     4.883678656699999e+00   7.594273914826799e+00   8.539500000000000e-02  1.28653517e+00  -8.57571800e-02  -3.40635010e-01
C     4.935755725700000e+00   6.603348219555287e+00   3.330328200000000e+00  8.48327260e-01   1.89382045e+00   3.89449800e-01
C     6.151836114199999e+00   7.389690068269308e+00   3.369589800000000e+00  6.84565360e-01  -1.77532366e+00  -2.97356520e-01
C     6.097480497799999e+00   6.891396282489119e+00  -2.242559999999827e-02  3.01126042e+00  -5.55430230e-01   4.10166400e-01
C     7.391816008799999e+00   7.609170987120103e+00  -6.872700000002396e-03 -8.58717600e-01  -1.06901744e+00   2.85361130e-01
C     7.383312449000000e+00   6.651452991264682e+00   3.392871300000000e+00  4.28648320e-01  -9.13114080e-01  -2.73060840e-01
C     8.641208012900000e+00   7.344543209790187e+00   3.408956700000000e+00 -6.24882390e-01   4.20792360e-01  -1.25727070e-01
C     8.646906106900000e+00   6.907690166116740e+00   2.545410000000000e-02 -9.06228910e-01   4.66419200e-02  -4.82251630e-01
C     9.884870568200000e+00   7.586878192459966e+00  -2.117849999999777e-02 -3.32402900e-01   8.84503190e-01   3.08018510e-01
C     9.890331874299999e+00   6.645012954950769e+00   3.413813100000000e+00 -1.75271103e+00  -6.49635000e-03  -4.30177530e-01
C     1.109372239350000e+01   7.372972308161460e+00   3.347940600000000e+00  7.86431840e-01  -1.59005783e+00   3.56745100e-02
C     1.111236237840000e+01   6.877170291029438e+00  -4.121999999998849e-03 -7.92126660e-01  -2.90010150e-01   3.64774350e-01
C     1.231356954850000e+01   7.615263656487687e+00   7.648740000000000e-02  7.19182940e-01  -2.32207724e+00   3.48853100e-02
C     1.231978948300000e+01   6.659043488460563e+00   3.323920800000000e+00  1.19935452e+00  -4.34237610e-01   6.75525520e-01
C     1.359789996960000e+01   7.313329454711281e+00   3.384012900000000e+00 -1.92716455e+00   1.84400219e+00  -5.58815400e-01
