52
Lattice="8.88768389401873 1.33226762955019e-15 0 4.44384194700937 7.69696003302603 0 0 0 30 " PBC="1 1 1" Properties=species:S:1:pos:R:3:force:R:3 Energy="-418.81284892"
C     1.277474168433961e+01   7.032122330455100e+00  -2.735418000000003e-01  7.87291920e-01  -3.60294100e-01   4.72332300e-02
C     8.993371431942240e+00   6.883637657549960e+00  -3.977400000000131e-02  1.65121230e+00  -2.13715490e-01  -1.77325670e-01
C     1.040411029596248e+01   6.462986630713612e+00  -1.795530000000056e-02 -7.06931350e-01   1.15469390e+00  -7.35388820e-01
C     1.072504562685586e+01   5.082785153263680e+00  -6.433110000000042e-02  1.47012247e+00   2.98412150e-01  -5.06366700e-02
C     6.625281254553578e+00   6.271742958784213e+00  -2.277570000000004e-01  9.55827400e-02  -1.77923235e+00   8.82098300e-02
C     7.983609268951154e+00   5.897800010254716e+00  -5.310240000000022e-02  3.32582210e-01  -5.06200370e-01   1.24419780e-01
C     8.336219638641566e+00   4.501230254574587e+00   4.108230000000000e-02  8.13883270e-01   7.91827610e-01  -7.10159880e-01
C     9.729257880320668e+00   4.107279828143109e+00  -2.189969999999875e-02 -1.43841307e+00  -7.85573590e-01  -5.25737800e-02
C     1.005828033697451e+01   2.722233807080695e+00  -1.765220999999997e-01 -5.77659830e-01  -2.50952260e-01   4.95918920e-01
C     4.251314229507819e+00   5.659705481409909e+00  -3.029226000000023e-01 -1.92200820e-01  -1.05835895e+00   2.98989570e-01
C     5.629317087459014e+00   5.243657852428305e+00  -2.898341999999978e-01 -7.35708990e-01   9.42408060e-01  -2.93497350e-01
C     5.969065823171979e+00   3.862925053827502e+00  -3.177492000000015e-01 -1.60098560e-01   1.52927129e+00   1.24516872e+00
C     7.336544641374216e+00   3.539932055246990e+00  -8.520899999999898e-02 -7.83805830e-01  -2.47724394e+00  -7.47463500e-01
C     7.652376353075127e+00   2.107556349385701e+00  -1.502295000000018e-01  5.75034860e-01   2.10933007e+00   2.77457900e-02
C     9.001991993145628e+00   1.730835029194177e+00  -1.926036000000018e-01  1.66590144e+00  -1.23761536e+00  -1.88289790e-01
C     3.219670588779038e+00   4.673076124805981e+00  -2.241356999999979e-01 -4.00444270e-01   5.85110570e-01  -1.16281920e-01
C     3.550481069680478e+00   3.292048224757628e+00  -2.989367999999999e-01  5.67752410e-01   1.12554665e+00   5.28629330e-01
C     4.911230000296715e+00   2.924054410574519e+00  -3.021878999999998e-01  1.14365603e+00  -1.51290168e+00  -3.85960150e-01
C     5.273708143218014e+00   1.527354653239483e+00  -2.576592000000026e-01 -6.65973050e-01   7.70125430e-01   3.73186630e-01
C     6.642212289037934e+00   1.151579982162047e+00  -2.140304999999998e-01 -4.03291810e-01  -1.36983878e+00   1.43764440e-01
C     1.145494062423523e+01   7.450621441206260e+00  -1.853049000000020e-01 -2.60467400e+00  -1.55218920e-01   4.24187510e-01
C     2.547464747652775e+00   2.327815944266594e+00  -2.283131999999988e-01 -1.71861560e+00  -9.67729360e-01  -5.26254520e-01
C     2.845491317862793e+00   9.418345886213347e-01  -2.726553000000003e-01  1.28193790e-01  -6.04453510e-01   3.28014410e-01
C     4.225219719671613e+00   5.725553821132162e-01  -1.847001000000006e-01 -1.38596540e-01  -9.51979570e-01  -1.75303600e-01
C     4.584156700682744e-01   2.902022555215047e-01  -2.965280999999997e-01 -3.90004500e-02   2.67186899e+00   1.55144490e-01
C     6.249135053604827e+00   7.603854060875506e+00  -3.039290999999977e-01  1.38115156e+00   2.29883385e+00   3.18514940e-01
C     5.596412794095131e-01   6.787071597013580e-01   3.479182800000000e+00 -4.70816400e-01  -1.41582745e+00   7.52750000e-03
C     2.950546762668612e+00   3.897671286551729e-02   3.427367400000000e+00  1.05845590e-01   3.12804700e-01   3.44239700e-01
C     4.318959188085446e+00   4.246761520840359e-01   3.589465800000000e+00 -8.33864770e-01   8.00665720e-01  -7.36770000e-01
C     9.747644278335454e+00   7.135798688727993e+00   3.766560000000000e+00  1.04584138e+00   1.37802050e-01  -1.23868080e-01
C     1.113473914855270e+01   7.525500701101313e+00   3.776274900000000e+00 -3.88019000e-03   2.90932710e-01  -7.16991860e-01
C     1.218639243064940e+01   6.564513920776530e+00   3.669849300000000e+00 -4.12827870e-01   5.34165870e-01   5.47847880e-01
C     4.654014698582391e+00   6.954775271235229e+00   3.521300100000000e+00  2.62204070e-01   1.38081931e+00  -6.07201700e-02
C     5.673089153285966e+00   5.977338932782331e+00   3.485073900000000e+00  4.42405560e-01  -3.52031720e-01   4.63712190e-01
C     7.046352743194644e+00   6.354059252369052e+00   3.526976700000000e+00 -6.66447190e-01   8.24637490e-01  -6.15503750e-01
C     8.048455276742867e+00   5.378150298664508e+00   3.606672000000000e+00  8.08438100e-01  -1.19501158e+00   1.04449203e+00
C     9.404770186795403e+00   5.765385050500210e+00   3.772350000000000e+00  9.33406970e-01  -1.65921000e-03  -3.40744770e-01
C     1.048594955461394e+01   4.807365371297392e+00   3.772278900000000e+00 -1.41654917e+00  -2.22404350e-01  -6.21604780e-01
C     1.184878064787024e+01   5.204040444609890e+00   3.725574600000000e+00  1.53178880e-01  -9.23440190e-01  -7.27415820e-01
C     3.986322689658809e+00   4.220120725814922e+00   3.543673800000000e+00 -8.87637110e-01  -1.08875478e+00   4.43916330e-01
C     5.350260255102540e+00   4.588385165112686e+00   3.559300800000000e+00 -5.87889420e-01   6.04783170e-01  -4.21212230e-01
C     6.338517376923335e+00   3.597223607534292e+00   3.598322400000000e+00  1.74415336e+00  -5.96982310e-01   4.20748830e-01
C     7.741057130880760e+00   3.973678151091178e+00   3.691137600000000e+00 -2.00808676e+00   1.17560533e+00  -1.01054456e+00
C     8.745908802817688e+00   3.009853886451335e+00   3.621033000000000e+00  3.55485160e-01   3.59529810e-01   3.83093630e-01
C     1.010527241067075e+01   3.449677117087209e+00   3.579895500000000e+00  1.06692018e+00  -1.43741258e+00   2.43662380e-01
C     2.244948918605362e+00   2.439615135367948e+00   3.431226900000000e+00  4.63352050e-01   3.93481120e-01  -5.09853100e-02
C     3.623382518674538e+00   2.821360877127856e+00   3.459664200000000e+00  3.64085150e-01   3.04307950e-01  -6.33605000e-03
C     4.663980544067662e+00   1.817171291063484e+00   3.478337400000000e+00 -1.25657040e+00  -8.07367600e-02   7.68231190e-01
C     6.003241366327570e+00   2.206370384068443e+00   3.620581800000000e+00  4.39593200e-01   2.92538850e-01  -4.29318330e-01
C     7.019977515821971e+00   1.204098803473947e+00   3.667362900000000e+00  6.99172570e-01   7.85827140e-01   5.42310000e-01
C     8.397385788273601e+00   1.638836652618000e+00   3.644921700000000e+00  3.85660270e-01  -9.32189210e-01  -8.56396460e-01
C     1.935426482987617e+00   1.049506669754602e+00   3.326346300000000e+00 -7.38719690e-01   1.24171000e-02   1.05347308e+00
