64
Lattice="9.86 0 0 4.93 8.53901048131456 0 0 0 30 " PBC="1 1 1" Properties=species:S:1:pos:R:3:force:R:3 Energy="-515.15804412"
C     4.993293213399999e+00   7.248195590571935e+00  -2.116289999999985e-01 -1.69769000e-01  -1.06867029e+00   2.92843150e-01
C     6.240308119400000e+00   7.945086095711565e+00  -1.091811000000007e-01 -6.37730830e-01  -7.30075010e-01  -9.38572060e-01
C     9.803743277000001e+00   1.285458709714379e+00   3.375813900000000e+00  9.89852600e-02   8.40552980e-01   5.39524740e-01
C     1.102580178350000e+01   2.023553782974724e+00   3.424182900000000e+00 -4.36516480e-01  -2.82380000e-01   5.76855900e-02
C     7.452299122199999e+00   7.223130349989153e+00  -2.552343000000015e-01 -8.75645900e-02  -5.00463570e-01   2.54050270e-01
C     8.664091347399999e+00   7.948034786810518e+00  -2.123241000000000e-01  7.19081170e-01  -3.35739880e-01   4.28595990e-01
C     2.396569135000000e+00   1.312206647702350e+00   3.392618100000000e+00 -9.15503200e-02   7.15011950e-01   5.59230670e-01
C     3.627794384900000e+00   2.006703412034121e+00   3.556810200000000e+00  8.27107620e-01  -8.73454990e-01  -7.86019020e-01
C     9.897358899099999e+00   7.227189880961451e+00  -1.422984000000014e-01  2.92718070e-01   1.36048237e+00  -7.01682210e-01
C     1.111450505500000e+01   7.940647347283851e+00  -1.453613999999988e-01  1.69272060e+00   6.28732120e-01   1.43904110e-01
C     4.862978967100000e+00   1.295494352561209e+00   3.475135800000000e+00  1.18474231e+00   6.85536950e-01   7.42093070e-01
C     6.129961014000000e+00   2.009436834678874e+00   3.440631000000000e+00 -1.60576699e+00   1.34544102e+00   3.86227250e-01
C     1.237798399180000e+01   7.193638657153749e+00  -9.920699999999982e-02 -7.46591510e-01   1.37313185e+00  -2.14162130e-01
C     1.359651754830000e+01   7.930236500316530e+00  -1.534592999999980e-01  7.68743270e-01   7.88461100e-02   2.85040070e-01
C     7.342172042699999e+00   1.327060854163044e+00   3.483829500000000e+00  2.00913690e-01  -1.33728424e+00   4.97055980e-01
C     8.595378634299999e+00   2.011851581452513e+00   3.443766900000000e+00 -6.99791160e-01   3.41094660e-01  -3.43490670e-01
C     1.319037670400000e+00   8.017454551089984e-01   1.821570000000000e-02 -5.05433920e-01   1.28960815e+00   6.67438600e-01
C     2.553314491700000e+00   1.529204678475874e+00   1.196739000000000e-01 -9.46973490e-01   2.40019030e-01  -1.26079944e+00
C     1.099094880340000e+01   3.432314864729150e+00   3.604049400000000e+00  1.62027910e+00   8.09652330e-01   1.63087260e-01
C     2.418792046700000e+00   4.105095559168604e+00   3.754018800000000e+00 -6.90303780e-01   8.91679200e-01  -2.69385950e-01
C     3.781742804700000e+00   8.364031638946984e-01  -1.207919999999980e-01 -1.71213632e+00  -4.34972130e-01   3.68268180e-01
C     4.961981550900000e+00   1.553559302606511e+00  -2.344419000000002e-01  1.97585127e+00   1.00888522e+00   6.03273140e-01
C     3.664014700500000e+00   3.390359034466404e+00   3.680696400000000e+00 -6.00413430e-01   2.35345158e+00  -1.18402310e-01
C     4.881443789100000e+00   4.182772034241601e+00   3.592656600000000e+00  4.44295140e-01  -3.50743123e+00  -1.57529000e-02
C     6.214936466000000e+00   8.611211229212592e-01  -2.068542000000022e-01 -2.75329400e-02  -1.22415808e+00  -1.26861020e-01
C     7.467228345399999e+00   1.571244874162163e+00  -1.740257999999990e-01 -3.29921840e-01  -2.15288397e+00   2.16844340e-01
C     6.136266631900000e+00   3.460132826120371e+00   3.452131500000000e+00 -1.36314347e+00  -6.59209660e-01  -4.67869180e-01
C     7.348307181199999e+00   4.161454138407967e+00   3.326306100000000e+00  4.89344820e-01  -6.92398660e-01   8.61460150e-01
C     8.703085428900000e+00   8.177485000396713e-01  -9.772110000000112e-02 -1.09711088e+00   2.79312090e-01  -3.13425900e-02
C     9.917342802000000e+00   1.520929267249392e+00   3.161670000000000e-02  9.35216610e-01   2.94922850e-01  -1.85951610e-01
C     8.590059706600000e+00   3.437381230427144e+00   3.421384500000000e+00 -6.43108960e-01   7.93509080e-01  -1.12227120e-01
C     9.778548955700000e+00   4.196750394397361e+00   3.576975600000000e+00  6.59100520e-01  -1.10879210e+00   1.44861260e-01
C     2.490089706700000e+00   2.956395591939390e+00   1.280406000000000e-01  1.35464546e+00   5.49790300e-01  -3.16184740e-01
C     3.754887319900000e+00   3.685389531659836e+00  -4.794389999999993e-02 -1.13102996e+00  -9.98540230e-01   6.68643320e-01
C     1.229091417720000e+01   5.560895658734416e+00   3.823650600000000e+00 -1.37630800e-02  -2.83323930e-01  -1.31864490e-01
C     3.682065747600000e+00   6.278819283708172e+00   3.738658500000000e+00 -1.79398362e+00   9.43229930e-01  -8.30815300e-02
C     4.984505291200000e+00   3.010784733801644e+00  -2.041295999999981e-01 -1.11423727e+00  -2.42128045e+00  -1.09157120e-01
C     6.201435315900000e+00   3.661268534855932e+00  -3.152109000000003e-01  1.70279423e+00   6.92738620e-01   4.90378120e-01
C     4.889518241699999e+00   5.551790426469487e+00   3.586435800000000e+00 -3.08844430e-01   1.78823714e+00  -5.67402740e-01
C     6.101027534200000e+00   6.246294363570061e+00   3.313801500000000e+00 -4.57172940e-01   1.88996494e+00   9.58746420e-01
C     7.454256332199999e+00   2.952152130681354e+00  -1.993851000000006e-01  6.57885900e-02   1.30866418e+00  -4.91134270e-01
C     8.705754876000000e+00   3.659307038758571e+00  -1.436811000000020e-01 -1.53651539e+00   1.19333065e+00  -1.01329690e-01
C     7.319385139000000e+00   5.571323839893011e+00   3.322658700000000e+00  2.06760000e+00   7.28505510e-01  -2.10308010e-01
C     8.569572697200000e+00   6.329558254760541e+00   3.419220300000000e+00 -2.08300060e-01  -3.57060940e-01   5.61219240e-01
C     9.900630496400000e+00   2.971963488896002e+00   4.968270000000000e-02  4.45126700e-01  -1.42626229e+00  -1.06324900e-01
C     1.111062272930000e+01   3.688701984605238e+00   1.206927000000000e-01  1.08831732e+00  -6.17619530e-01  -3.37482190e-01
C     9.790239957699999e+00   5.618639436253844e+00   3.699251100000000e+00 -3.45222790e-01  -2.98465310e-01  -1.20549119e+00
C     1.104183581970000e+01   6.298663858673586e+00   3.798699600000000e+00  2.08378720e-01  -7.87970420e-01  -1.62346120e-01
C     3.761027536299999e+00   5.075125441894508e+00  -1.487399999998473e-03  1.16925772e+00   1.48524479e+00  -1.55060633e+00
C     5.006994176400000e+00   5.803058580343024e+00  -2.698889999999992e-01 -6.27760170e-01   1.28431670e-01   9.83440810e-01
C     1.347056871840000e+01   7.743706171276275e+00   3.659422800000000e+00  3.38135240e-01  -1.79273273e+00  -1.40500310e-01
C     1.469346044420000e+01   8.420027395631051e+00   3.423004200000000e+00  1.18399398e+00  -6.87388640e-01   1.40311220e-01
C     6.245671318499999e+00   5.081734806786238e+00  -3.529869000000012e-01 -1.78411456e+00  -1.65960500e-01   1.75485960e-01
C     7.452781473400000e+00   5.766447743690233e+00  -3.547502999999992e-01  9.96348240e-01   2.09956808e+00   3.83228460e-01
C     6.084132917200000e+00   7.692819987683230e+00   3.327792600000000e+00  4.13817660e-01   3.19523520e-01  -2.11271960e-01
C     7.338818558100000e+00   8.452886447249243e+00   3.308336400000000e+00 -8.89748160e-01  -1.29905255e+00   5.62665500e-02
C     8.685956094599998e+00   5.099214246628902e+00  -2.502831000000008e-01  1.42878404e+00  -5.64561560e-01   3.13829130e-01
C     9.952303650499999e+00   5.839992789322692e+00  -1.493292000000004e-01 -2.42761681e+00  -1.86745554e+00   8.34719100e-02
C     8.591468996400000e+00   7.769026386711991e+00   3.396479400000000e+00 -1.54528731e+00  -2.00281080e+00   3.23898100e-01
C     9.803931405800000e+00   8.426014266658790e+00   3.581184900000000e+00  3.31924370e-01   4.64128210e-01  -8.22773420e-01
C     1.113269680430000e+01   5.099987624808076e+00  -9.080399999998434e-03  1.29750730e+00   1.00333600e-01   2.74756190e-01
C     1.240244497560000e+01   5.783311947827814e+00  -1.414350000000297e-02 -1.16031881e+00   2.93476320e-01   1.94187760e-01
C     1.102573024920000e+01   7.704830959824399e+00   3.702947400000000e+00 -3.51211660e-01   4.03625330e-01   3.47479920e-01
C     1.221746333970000e+01   8.432755217702015e+00   3.704356500000000e+00  2.04340965e+00   6.94241170e-01  -1.03679473e+00
