52
Lattice="8.88768389401873 1.33226762955019e-15 0 4.44384194700937 7.69696003302603 0 0 0 30 " PBC="1 1 1" Properties=species:S:1:pos:R:3:force:R:3 Energy="-416.88697007"
C     1.221822620338371e+01   6.398812302828284e+00  -1.654316999999992e-01  3.96914409e+00  -1.36095540e-01   3.23411770e-01
C     8.578039520297192e+00   6.211267943828503e+00  -2.600388000000002e-01  5.27789610e-01   1.47891686e+00  -6.52291870e-01
C     9.924178076229991e+00   5.822481253941951e+00  -4.502987999999988e-01  2.57486460e-01  -1.11764425e+00   8.69358180e-01
C     1.025188982168305e+01   4.408028612236921e+00  -3.608598000000001e-01  2.49586537e+00   2.78365670e+00  -1.28329635e+00
C     6.158289369251436e+00   5.633959150109559e+00   1.976430000000000e-02  1.59206225e+00  -2.15306013e+00  -1.24871565e+00
C     7.574415058523590e+00   5.284400786711906e+00  -2.514704999999999e-01 -2.49493395e+00  -2.99436092e+00   1.78064401e+00
C     7.929554196462229e+00   3.871550652085121e+00  -2.099664000000026e-01 -1.74854061e+00   7.48190620e-01  -1.44008912e+00
C     9.286121160715419e+00   3.466817015560414e+00  -3.501218999999978e-01 -3.11512748e+00  -1.59228239e+00   1.39812501e+00
C     9.544157641715184e+00   2.102977735742256e+00  -1.727622000000011e-01  1.01849439e+00  -3.04414180e+00   2.85742920e-01
C     3.736278235855833e+00   5.046411321371507e+00  -2.072840999999990e-01  3.64653910e-01  -2.44876720e+00   8.14096900e-02
C     5.148463126044570e+00   4.625132376535913e+00  -6.196500000000071e-02 -1.49346836e+00   6.11750000e-02  -1.66982551e+00
C     5.460894187730100e+00   3.243604097116010e+00  -3.693975000000016e-01  5.76157050e-01   4.12496830e-01   2.59284180e+00
C     6.887321058135437e+00   2.889916930419064e+00  -2.739551999999996e-01 -1.19406243e+00  -1.34808991e+00   2.35592520e-01
C     7.202373942096603e+00   1.456825407274985e+00  -1.890639000000007e-01 -2.79493984e+00   1.08671559e+00  -1.18072372e+00
C     8.509288571586243e+00   1.055324416993277e+00  -7.862970000000047e-02  2.49555870e+00   2.12870410e-01   1.78514660e-01
C     2.728552107880883e+00   3.986984655591042e+00  -3.910416000000012e-01  2.35181840e-01   2.37619043e+00   1.18774294e+00
C     3.019078717181318e+00   2.628454200014375e+00  -2.459625000000010e-01  2.25349403e+00  -1.34177510e-01   1.28519540e-01
C     4.398508981619021e+00   2.236044012254500e+00  -2.097818999999994e-01  1.31443196e+00   2.04120917e+00  -1.08261394e+00
C     4.784395017588464e+00   9.028833526935166e-01  -2.131395000000005e-01 -9.20974290e-01  -1.87793960e+00  -5.25035340e-01
C     6.117090329474808e+00   4.756786722700255e-01  -3.640511999999987e-01  2.06728722e+00   1.61823663e+00   1.21732018e+00
C     1.094052045818545e+01   6.814963148043891e+00  -4.063215000000007e-01 -2.58144620e+00  -1.59375380e-01   2.56180980e-01
C     2.038153888849204e+00   1.645883912251867e+00  -1.129064999999976e-01 -1.86434544e+00   3.54738160e-01  -3.78849280e-01
C     2.379310611452827e+00   2.787042287502895e-01  -4.369919999999894e-02  4.42156570e-01  -1.15042031e+00   1.49881230e-01
C     8.219726545971906e+00   7.576229055571034e+00  -1.513767000000001e-01 -9.86246610e-01   1.23370828e+00   2.10699600e-02
C     4.403902475906008e+00   7.344269619626939e+00   5.158320000000000e-02 -1.71563130e-01   1.24467532e+00  -1.01282893e+00
C     5.787164754131212e+00   6.954149585354390e+00   4.558980000000000e-02 -2.59523260e-01   2.44514540e+00   2.60975980e-01
C     1.041959175692530e+00   1.322834494954336e+00   3.798081000000000e+00  7.01317680e-01  -1.98088780e+00  -1.00703409e+00
C     3.407684872880598e+00   7.363160576506969e-01   3.636008100000000e+00  1.85421630e-01  -9.51466410e-01  -5.25923020e-01
C     4.763765814650541e+00   1.117099294558854e+00   3.478129800000000e+00  8.06196250e-01  -2.01557348e+00   4.28709720e-01
C     5.798139528377204e+00   1.009358556542119e-01   3.385476600000000e+00  6.33772940e-01   1.18348320e+00  -5.19524230e-01
C     7.194698271061008e+00   5.367722149337463e-01   3.457613400000000e+00 -2.45150090e-01  -1.91252849e+00   4.75028430e-01
C     1.267550838301303e+01   7.190794545716748e+00   3.556518600000000e+00 -8.56787800e-02   2.84084764e+00   1.48949790e-01
C     5.168860406944618e+00   7.602437435381985e+00   3.801183900000000e+00 -1.74231509e+00   6.12362080e-01  -5.51475620e-01
C     6.160377309024962e+00   6.612499771417961e+00   3.842218200000000e+00  7.43917460e-01   2.44154570e-01  -5.13751350e-01
C     7.527107029279345e+00   7.041985368976742e+00   3.699272700000000e+00 -8.53811200e-02  -1.02139490e+00  -4.58676420e-01
C     8.523344402451247e+00   6.029698119143208e+00   3.464617200000000e+00  3.55736630e-01  -5.50151240e-01   3.46919040e-01
C     9.892560630015019e+00   6.439916224537292e+00   3.241974600000000e+00  7.67982700e-01  -2.03467277e+00   1.68965702e+00
C     1.097077959914693e+01   5.389989300765053e+00   3.380626800000000e+00 -1.47412578e+00   2.83336399e+00  -1.03140036e+00
C     3.432680065115331e+00   5.852530955595075e+00   3.468870000000000e+00 -4.84237510e-01  -1.33021612e+00   7.59019250e-01
C     4.428213933690152e+00   4.872929847133738e+00   3.698086200000000e+00  4.12038580e-01  -9.81643710e-01  -3.69747830e-01
C     5.792183983614375e+00   5.234841138653141e+00   3.795988500000000e+00  5.47234870e-01   1.83556480e-01   4.10267800e-01
C     6.800681161264304e+00   4.230101296916223e+00   3.830146500000000e+00  1.34422186e+00   7.12804020e-01  -1.28184851e+00
C     8.195383755559316e+00   4.593914815137438e+00   3.603531000000000e+00 -6.40159280e-01   2.15866860e+00   4.97487550e-01
C     9.225362909584398e+00   3.633552258271088e+00   3.612016800000000e+00  1.21530575e+00   8.68033550e-01  -9.45231150e-01
C     1.062989737089582e+01   4.041014236217630e+00   3.451696200000000e+00 -1.94109907e+00   4.22067500e-02   1.26107373e+00
C     2.739656068473974e+00   3.078529165653407e+00   3.653355000000000e+00  5.48228630e-01   2.75790490e-01  -1.03320129e+00
C     4.083961317933165e+00   3.491460064610064e+00   3.684028800000000e+00  1.70872297e+00  -1.41497931e+00  -1.76039770e-01
C     5.142396569347632e+00   2.427955703344904e+00   3.623775000000000e+00 -1.01740762e+00   3.67724267e+00   3.50948260e-01
C     6.496956606250589e+00   2.868299325448406e+00   3.701275500000000e+00 -3.98011090e-01  -9.53878130e-01  -5.41374800e-02
C     7.533226951747886e+00   1.896021489607614e+00   3.626941500000000e+00  2.02310730e-01  -3.84505130e-01  -3.10589000e-02
C     8.919585032956096e+00   2.263317805272804e+00   3.686866500000000e+00 -1.47297495e+00   6.43412870e-01   2.99020710e-01
C     2.404965000813851e+00   1.719113020886088e+00   3.644289600000000e+00 -6.46117200e-01  -7.33757550e-01   1.33997942e+00
