52
Lattice="8.88768389401873 1.33226762955019e-15 0 4.44384194700937 7.69696003302603 0 0 0 30 " PBC="1 1 1" Properties=species:S:1:pos:R:3:force:R:3 Energy="-418.61684763"
C     4.435604133517107e+00   7.637031191328018e+00  -5.883779999999916e-02  3.80528140e-01   1.94679265e+00   3.79111480e-01
C     9.511064132077619e+00   7.520014846779130e+00  -3.325559999999683e-02  1.82159032e+00  -1.38074486e+00   2.85594330e-01
C     1.092913266899510e+01   7.088824680452106e+00   6.284700000000000e-02 -9.90516840e-01   9.71560000e-01  -2.79042500e-01
C     1.123059130721673e+01   5.703851472631575e+00   8.043570000000000e-02  2.55234120e+00   1.22267574e+00  -4.88967600e-01
C     7.164661236524460e+00   6.894757147826899e+00  -8.416139999999928e-02 -2.13173990e-01  -8.13067470e-01   1.35886490e-01
C     8.503021247074175e+00   6.499602839877129e+00  -5.612969999999962e-02  1.37243425e+00   2.65208110e-01  -1.52193100e-02
C     8.873311042009352e+00   5.122055120306340e+00  -3.079680000000096e-02  1.08213100e-02   2.26188950e-01   6.99681400e-02
C     1.025201367178496e+01   4.757327511111963e+00   3.061740000000000e-02 -1.85906680e+00  -1.77794983e+00  -2.42819060e-01
C     1.060102688474814e+01   3.379205752262136e+00  -2.260169999999917e-02 -1.41813396e+00  -1.76599951e+00  -3.29385230e-01
C     4.799888076104896e+00   6.323027264676901e+00   2.112720000000000e-02 -5.14003120e-01  -4.12503384e+00  -3.52269050e-01
C     6.181172889074222e+00   5.888617921786929e+00   1.289400000000000e-03 -1.61513543e+00  -4.53478940e-01  -2.57260380e-01
C     6.496395972182853e+00   4.457022533733481e+00   1.358940000000000e-02  7.93330910e-01   3.60018550e+00  -3.26663210e-01
C     7.877937950344706e+00   4.113694782510512e+00  -5.179889999999787e-02 -7.91359550e-01   1.83625900e-02   6.12131090e-01
C     8.180272380945516e+00   2.742042087657100e+00  -1.126289999999841e-02  1.51285155e+00  -3.02802100e-01  -2.14513000e-02
C     9.552631426322888e+00   2.343831009001016e+00  -5.655630000000045e-02  1.09689597e+00  -2.41743970e-01  -7.65056300e-02
C     3.728414768802408e+00   5.269763400853255e+00   1.327860000000000e-02  5.05479420e-01   3.67411445e+00   2.38599470e-01
C     4.080883691059383e+00   3.958894292083155e+00  -8.465040000000101e-02  1.00095862e+00  -2.40947968e+00   6.27940670e-01
C     5.466928614221596e+00   3.550129757590737e+00  -7.311300000001353e-03 -7.28029840e-01  -1.59376713e+00  -1.23802210e-01
C     5.841055266720439e+00   2.157085825361150e+00   3.810120000000000e-02 -3.51643170e+00   3.00741240e-01  -5.86931990e-01
C     7.154956326772448e+00   1.771157170672938e+00   6.522090000000000e-02  1.99211372e+00  -1.62794948e+00  -4.87898190e-01
C     7.540726689488948e+00   3.654696731108701e-01   3.473760000000000e-02 -1.94202314e+00   2.91312870e-01  -1.03086700e-02
C     3.063738928986630e+00   2.942238093797393e+00  -9.072659999999999e-02 -6.59474900e-01   1.98476283e+00   2.10766540e-01
C     3.360841402295673e+00   1.604729190606661e+00  -9.820020000000085e-02  1.43447706e+00  -2.61549273e+00  -2.88782470e-01
C     4.753571330205850e+00   1.188026704265704e+00  -6.827730000000187e-02  1.79432100e-02   7.20996810e-01   4.79138510e-01
C     1.036789254143250e+00   9.089128433026175e-01  -1.215645000000016e-01 -2.66789800e+00   2.92651119e+00   4.06200280e-01
C     2.348171589040162e+00   5.551738760646694e-01  -1.287444000000022e-01  2.40753277e+00   9.61608420e-01   1.57765880e-01
C     8.908463872672137e+00   5.828776982398490e-02   3.400141800000000e+00 -4.41763200e-02  -1.43819860e+00  -2.29332650e-01
C     6.849534050754461e+00   7.140187572306700e+00   3.429957600000000e+00 -2.20512240e-01  -1.25690272e+00   3.74855800e-01
C     8.201013838576969e+00   7.524695829990975e+00   3.443836500000000e+00  4.84461770e-01  -1.86585604e+00   3.16894070e-01
C     9.217621916529129e+00   6.495659148466558e+00   3.467765700000000e+00  3.31158400e-01   1.02236116e+00  -2.83134880e-01
C     1.058854764563644e+01   6.883895428741364e+00   3.410258700000000e+00  5.73185410e-01   1.39622105e+00   6.05745600e-02
C     1.165404860582148e+01   5.940483656040283e+00   3.394899000000000e+00 -6.81125000e-02   7.68568600e-01  -5.88799300e-02
C     4.142093704819360e+00   6.342663595166235e+00   3.391672500000000e+00 -5.17225390e-01   9.17893450e-01  -1.84572520e-01
C     5.161800162723519e+00   5.363945097111540e+00   3.372279300000000e+00 -6.65147730e-01  -9.67353590e-01  -1.04480870e-01
C     6.508464736709421e+00   5.717257498824627e+00   3.476716800000000e+00  5.05373000e-02   2.06636890e+00  -3.80005740e-01
C     7.504368332940395e+00   4.747399510247667e+00   3.533032200000000e+00  1.39153079e+00  -1.46819289e+00  -5.74169570e-01
C     8.880224860190639e+00   5.131932629112839e+00   3.493528800000000e+00  5.52275870e-01  -2.08082380e-01   1.73274070e-01
C     9.954902842800641e+00   4.166866613911357e+00   3.468765600000000e+00 -1.45938503e+00   3.81200340e-01   5.32261000e-03
C     1.131999398520746e+01   4.585292680511833e+00   3.397486500000000e+00 -3.61617120e-01  -1.24542446e+00   1.28691890e-01
C     3.461930408984698e+00   3.608327549951971e+00   3.359028000000000e+00 -1.02461843e+00  -1.68615271e+00   3.69693380e-01
C     4.814314607500945e+00   3.963727290255593e+00   3.275750700000000e+00  1.55768570e-01   8.97569670e-01   1.06610894e+00
C     5.798965551580098e+00   2.967526225067157e+00   3.368999700000000e+00  1.64422531e+00  -9.03919120e-01   2.10674500e-02
C     7.207084904601226e+00   3.335360173390442e+00   3.451993200000000e+00 -2.20668441e+00   1.47363546e+00  -1.92144760e-01
C     8.217376416781713e+00   2.376810404550358e+00   3.409140300000000e+00 -3.64197730e-01   2.56829610e-01   2.18341750e-01
C     9.556263511957104e+00   2.801504952368865e+00   3.473931000000000e+00  1.96876415e+00  -4.91296600e-01   6.83419700e-02
C     1.719004403939001e+00   1.826495465413426e+00   3.518738400000000e+00  3.57948150e-01  -3.70121500e-01  -6.74893790e-01
C     3.093884352480560e+00   2.206641624939901e+00   3.500940000000000e+00  5.20690390e-01  -2.69468600e-02  -6.09907140e-01
C     4.120058200152906e+00   1.158821974884674e+00   3.467362800000000e+00 -9.45201490e-01   2.56763136e+00  -2.17944040e-01
C     5.470104671202839e+00   1.556205707307134e+00   3.398481600000000e+00 -7.49093500e-02   1.49252628e+00  -4.22086200e-02
C     6.489543343208360e+00   6.036057655398396e-01   3.370285800000000e+00  4.07768320e-01  -1.32957784e+00   1.38215970e-01
C     7.856195696160728e+00   1.011920027870503e+00   3.350298000000000e+00  5.40759230e-01  -6.03036550e-01   4.27055800e-01
C     1.402906237636512e+00   4.286129162305800e-01   3.418340700000000e+00 -1.04152866e+00   6.77104400e-01   4.86243330e-01
