52
Lattice="8.88768389401873 1.33226762955019e-15 0 4.44384194700937 7.69696003302603 0 0 0 30 " PBC="1 1 1" Properties=species:S:1:pos:R:3:force:R:3 Energy="-419.33247124"
C     1.331628132907974e+01   7.689603583481727e+00  -3.410099999999971e-02  3.26084520e-01  -7.78377250e-01   3.21250150e-01
C     9.580101571926569e+00   7.515618574118796e+00  -8.135400000000459e-03 -1.04378409e+00   1.47365320e-01  -1.76975350e-01
C     1.091342777607745e+01   7.124750241392130e+00   3.068310000000000e-02  6.22464110e-01  -8.57820700e-01  -1.46907670e-01
C     1.124570383605620e+01   5.749653002986093e+00   2.745330000000000e-02  1.01503930e-01  -1.15540461e+00   1.45054930e-01
C     7.190038418094941e+00   6.903511208347419e+00  -2.676659999999842e-02 -4.69893810e-01   1.16345580e-01  -1.76118660e-01
C     8.576853103583842e+00   6.533195606171262e+00  -2.889660000000305e-02 -1.48412726e+00  -7.75397330e-01   2.14194850e-01
C     8.893323528714657e+00   5.142609544188054e+00  -3.741900000001408e-03 -3.32220890e-01  -4.81039540e-01  -2.36015960e-01
C     1.022990857990126e+01   4.726762882832833e+00   2.018730000000000e-02  9.68255670e-01   7.87684250e-01  -2.09892510e-01
C     1.057562997250498e+01   3.348207939072518e+00  -1.157939999999869e-02  8.29603120e-01   6.78746880e-01   1.09832870e-01
C     4.775444590141685e+00   6.277646681066424e+00   5.599199999999999e-03  2.52195530e-01   1.67750498e+00   8.93761100e-02
C     6.155464641288225e+00   5.894312902513126e+00   1.779960000000000e-02  4.30630210e-01   4.09844050e-01  -4.65406190e-01
C     6.529829128221632e+00   4.522306147498333e+00  -4.487100000002187e-03 -1.12856674e+00  -8.24339410e-01   3.11553330e-01
C     7.892998930594443e+00   4.123827522511606e+00  -3.790019999999927e-02 -6.13782720e-01   2.67711290e-01   4.58460690e-01
C     8.229953867307076e+00   2.730885267124015e+00  -6.667800000002444e-03 -1.15827253e+00   7.15705010e-01   7.13932800e-02
C     9.581754233398525e+00   2.362676245938467e+00  -1.956719999999734e-02 -6.60127870e-01  -1.88268520e-01  -4.56236300e-02
C     3.718736614357895e+00   5.347754541688436e+00   3.849060000000000e-02  9.62777420e-01  -1.50862076e+00  -9.93591230e-01
C     4.095191306763823e+00   3.937681855088477e+00  -9.872250000000093e-02 -1.78134090e-01   7.00508910e-01   1.84763776e+00
C     5.473544517210519e+00   3.516334869126217e+00   3.742710000000000e-02 -2.85781800e-02   1.19080929e+00  -1.13570260e+00
C     5.794613474430578e+00   2.135200904968650e+00   1.335000000000000e-02  1.28851964e+00   8.08889410e-01   1.05086200e-01
C     7.198789450489656e+00   1.738117584896161e+00   4.405470000000000e-02 -1.18717369e+00   1.25063006e+00  -5.00557710e-01
C     7.503459297790545e+00   3.730924344461810e-01   1.074360000000000e-02  9.66792020e-01   2.47633630e-01   6.43240600e-02
C     3.055418279350259e+00   2.975254973542081e+00  -1.726740000000149e-02  5.52823040e-01  -9.37546410e-01  -5.14393860e-01
C     3.403240720408977e+00   1.571151664293388e+00  -1.863090000000156e-02 -3.60178840e-01   8.46691190e-01  -5.11707620e-01
C     4.762009386166053e+00   1.185251950174889e+00  -4.567289999999957e-02  3.57697910e-01  -3.06076190e-01   5.17810240e-01
C     9.905490790340241e-01   9.972349208596654e-01  -4.597890000000149e-02  1.50101197e+00  -1.43068371e+00  -6.42668600e-02
C     2.382702151831264e+00   5.958376086295620e-01  -6.876240000000067e-02 -5.27280200e-01  -6.02314730e-01   5.37684610e-01
C     2.656919774750720e-02   2.984203767151360e-02   3.414447600000000e+00 -5.13575230e-01  -6.65467300e-02  -3.89873000e-01
C     6.847865165908772e+00   7.135191860399228e+00   3.394330500000000e+00 -1.86528050e-01  -3.67173270e-01   4.49883650e-01
C     8.214526895358258e+00   7.529058389966379e+00   3.419830800000000e+00 -3.45807440e-01  -2.56701820e-01  -1.14498630e-01
C     9.218118604756661e+00   6.516192405708189e+00   3.422741400000000e+00  1.68210450e-01  -3.99278780e-01   1.23475610e-01
C     1.059320910252090e+01   6.882988495941030e+00   3.416117700000000e+00 -4.20725200e-02   3.12423580e-01  -3.49729330e-01
C     1.165504202668466e+01   5.934904514562537e+00   3.388111200000000e+00 -5.92273770e-01  -2.95141140e-01   2.86001370e-01
C     4.112215000257860e+00   6.368435018556283e+00   3.410886900000000e+00  2.12505820e-01  -1.32616951e+00  -3.93593270e-01
C     5.108633326671853e+00   5.353207529991290e+00   3.366918600000000e+00  9.50022320e-01  -2.15420860e-01   6.55960950e-01
C     6.489115848956891e+00   5.750779683995284e+00   3.468433200000000e+00  3.60776670e-01  -1.08023223e+00  -1.07895318e+00
C     7.515176378661915e+00   4.706461534996905e+00   3.434633400000000e+00 -2.22159050e-01   1.18430224e+00   5.20761580e-01
C     8.893473375049744e+00   5.119059155584264e+00   3.437359200000000e+00 -2.88131510e-01   3.78512100e-01  -6.45569500e-02
C     9.957668067888896e+00   4.166188203854312e+00   3.430786500000000e+00 -6.31560970e-01  -3.98192690e-01  -1.30182430e-01
C     1.133469874705206e+01   4.541808704822348e+00   3.398481900000000e+00 -1.11301121e+00   5.71478800e-01   1.05174700e-02
C     3.423186772936182e+00   3.529767141952971e+00   3.373278300000000e+00  5.20062960e-01   1.43257379e+00   2.60295360e-01
C     4.776556704518274e+00   3.955371316507824e+00   3.349221600000000e+00  5.32381990e-01  -1.99010310e-01  -5.77564000e-03
C     5.797774379731985e+00   2.944811649353023e+00   3.353012100000000e+00  6.09114600e-02   7.11972250e-01   9.78134060e-01
C     7.155856294652708e+00   3.325266380007100e+00   3.459111900000000e+00  1.18113765e+00   4.21659410e-01  -1.09653639e+00
C     8.217898168249112e+00   2.353160186374977e+00   3.385777500000000e+00 -2.45089130e-01   5.11858220e-01   4.88256440e-01
C     9.611314892480937e+00   2.781657571235507e+00   3.413218200000000e+00 -1.48109521e+00  -9.97843300e-02   4.20351940e-01
C     1.724982526733017e+00   1.794300159182341e+00   3.483416400000000e+00 -3.79316930e-01   1.06841880e-01  -1.00590594e+00
C     3.069659103608018e+00   2.180886826983518e+00   3.446907000000000e+00  3.18067420e-01   8.54160900e-02  -1.65071690e-01
C     4.086704855603157e+00   1.228537344295600e+00   3.413713800000000e+00  6.96247440e-01  -1.89381710e+00   3.53755610e-01
C     5.453486302126149e+00   1.578542285314194e+00   3.436335300000000e+00  4.68810870e-01  -4.00500960e-01  -1.04796067e+00
C     6.474618611129289e+00   5.575017446561426e-01   3.358557000000000e+00  4.57626580e-01   1.24752184e+00   8.43609910e-01
C     7.858133300096977e+00   9.678775607612410e-01   3.378375300000000e+00 -6.92548000e-03   8.85433420e-01   3.17910600e-02
C     1.382062574752184e+00   4.363355841070802e-01   3.377086500000000e+00  9.32001200e-02  -9.14425760e-01   8.04342140e-01
