64
Lattice="9.86 0 0 4.93 8.53901048131456 0 0 0 30 " PBC="1 1 1" Properties=species:S:1:pos:R:3:force:R:3 Energy="-513.42577155"
C     9.908641105499999e+00   3.682129764409096e-01  -2.122166999999990e-01 -1.19947845e+00  -7.09296350e-01  -1.47194090e-01
C     1.222619146100000e+00   1.112833305339756e+00  -2.623910999999985e-01  2.07697968e+00  -1.02705923e+00   7.20925270e-01
C     1.224069354900000e+00   3.361440394624312e-01   3.585456000000000e+00 -9.25488350e-01   9.11560410e-01  -1.47485638e+00
C     2.464839725700000e+00   1.066582096635255e+00   3.473534700000000e+00 -1.80525869e+00  -9.80218500e-02   1.48333703e+00
C     2.474792705500000e+00   4.036167385722472e-01  -2.781471000000018e-01  1.87348718e+00  -4.19069550e-01  -1.41191000e-03
C     3.791631891700000e+00   1.076992345871842e+00  -1.919585999999995e-01 -2.64780773e+00  -4.61279490e-01   4.71280110e-01
C     3.655778494600000e+00   3.985678778457376e-01   3.543272700000000e+00  2.80759459e+00  -2.19628541e+00   7.80918600e-02
C     4.893192422800000e+00   1.159120292498168e+00   3.633951600000000e+00 -3.21811400e-01  -2.85013730e+00   1.41743730e-01
C     5.006801561300000e+00   3.214492563273992e-01  -2.382677999999991e-01 -8.46676470e-01   4.10514439e+00  -5.71647440e-01
C     6.248339138700000e+00   1.062178358150510e+00  -3.358634999999985e-01 -1.28972499e+00  -5.87262620e-01   9.24325060e-01
C     6.096121789800000e+00   3.953515741583408e-01   3.670352400000000e+00  5.04750930e-01  -1.72036594e+00  -1.32205478e+00
C     7.340949846399999e+00   1.050561802903413e+00   3.474341400000000e+00  4.30418200e-02  -1.93372700e-01   3.20352500e-01
C     7.458757915200000e+00   3.707696415687264e-01  -2.264973000000019e-01 -4.68279490e-01  -2.23966139e+00   4.19778880e-01
C     8.672101808599999e+00   1.028678368405688e+00  -1.624394999999978e-01  1.61629580e-01   2.14613194e+00  -4.28572180e-01
C     8.555018006099999e+00   3.112664863299992e-01   3.429905700000000e+00  1.88369271e+00   1.29597681e+00   8.18488600e-01
C     9.837988190899999e+00   1.068711384288548e+00   3.557131800000000e+00 -1.74310669e+00  -1.77055445e+00  -7.92262250e-01
C     1.106157090550000e+01   2.507112652270626e+00  -9.990599999999716e-02  3.24217969e+00   3.83647440e-01   2.75941060e-01
C     2.494075020100000e+00   3.205211085832756e+00   7.631160000000001e-02 -3.74448840e-01  -9.94997980e-01  -4.96169870e-01
C     2.448377913400000e+00   2.478061999326513e+00   3.653185200000000e+00  4.39037370e-01  -9.82665400e-02  -5.68044560e-01
C     3.640252100500000e+00   3.254301686302066e+00   3.732864900000000e+00  1.33403870e+00  -1.55872547e+00  -1.02778722e+00
C     3.738158597400000e+00   2.483303073178928e+00   3.654660000000000e-02  4.28817100e-02  -3.27172520e-01  -1.04906584e+00
C     4.961412530300000e+00   3.167268505105505e+00  -9.936719999999966e-02  1.02498491e+00   1.59555581e+00  -1.01679434e+00
C     4.937222647200000e+00   2.551616010919976e+00   3.655250400000000e+00 -3.34392884e+00  -4.56167000e-03  -2.50146570e-01
C     6.113683435800000e+00   3.210250724427947e+00   3.474576300000000e+00  1.93206732e+00   1.44072081e+00   5.67190560e-01
C     6.196414702500000e+00   2.464627147187806e+00  -3.373790999999997e-01  1.36892370e-01   7.51170830e-01   1.12721473e+00
C     7.453811596900000e+00   3.172581477426161e+00  -2.792984999999994e-01 -1.77806939e+00  -3.71469060e-01  -3.18058450e-01
C     7.364636129999999e+00   2.459016590351922e+00   3.432104700000000e+00 -1.41057345e+00   2.03557260e+00   3.48567130e-01
C     8.542138874100001e+00   3.232819926857321e+00   3.537950700000000e+00  1.46818236e+00  -1.63065126e+00  -4.35687030e-01
C     8.639764360999999e+00   2.458320148657172e+00  -1.791737999999974e-01  1.83201157e+00   5.34679230e-01  -4.03974970e-01
C     9.892519118099999e+00   3.211759311409449e+00  -1.434654000000002e-01 -1.69841190e+00   8.07649820e-01   1.07737496e+00
C     9.768377774099999e+00   2.468416076917991e+00   3.551071200000000e+00  1.82151634e+00   8.06309010e-01   3.64962980e-01
C     1.107898420780000e+01   3.128357515199717e+00   3.623538900000000e+00 -2.45185656e+00   8.92352940e-01   5.77455350e-01
C     1.241202233870000e+01   4.605925431061354e+00   6.662070000000000e-02 -1.12362622e+00   1.87150842e+00  -7.41554550e-01
C     3.793025997100000e+00   5.359476881801442e+00  -8.830379999999849e-02 -1.75082873e+00  -1.41329242e+00   4.66305470e-01
C     3.630561495300000e+00   4.646859568720169e+00   3.631042800000000e+00  8.02465240e-01   1.68243020e-01   6.86861680e-01
C     4.884887295500000e+00   5.346941955977221e+00   3.635638800000000e+00 -1.07630417e+00   1.94441150e-01  -4.21305590e-01
C     4.991026645900000e+00   4.629106112031201e+00  -2.106698999999992e-01 -1.00253210e-01  -6.82987390e-01   9.93270100e-01
C     6.202155983299999e+00   5.347115127109755e+00  -2.747193000000010e-01  1.54555912e+00  -3.95974370e-01  -6.41978090e-01
C     6.075872751500000e+00   4.673740202930999e+00   3.517941900000000e+00  2.40712530e+00  -2.36128082e+00   2.57430760e-01
C     7.330634905999998e+00   5.354461152435595e+00   3.554697000000000e+00  3.03102430e-01   3.55426290e-01  -6.23644820e-01
C     7.453899942500000e+00   4.577194734839928e+00  -3.334812000000014e-01 -1.87807542e+00   1.01541650e+00   6.31771750e-01
C     8.633676106799999e+00   5.284443315862110e+00  -2.653125000000003e-01  2.71744878e+00   2.46954080e+00   2.78760120e-01
C     8.568692889399999e+00   4.650227610623795e+00   3.608269500000000e+00 -9.33057960e-01  -8.97401750e-01   2.65565410e-01
C     9.801371946999998e+00   5.293757668493694e+00   3.773586600000000e+00  1.39921263e+00  -3.97605800e-02  -1.07141244e+00
C     9.930887336100000e+00   4.658942951670207e+00  -1.797660000000079e-02 -1.93716986e+00  -1.52862839e+00  -1.76367191e+00
C     1.114525504260000e+01   5.345289572059237e+00  -4.604910000000118e-02  8.54221550e-01   1.48643266e+00   1.91285360e-01
C     1.103179799460000e+01   4.520775187065738e+00   3.752085900000000e+00  9.89855300e-01   3.26035584e+00  -4.67951300e-01
C     1.228277731080000e+01   5.343359243350128e+00   3.665605200000000e+00 -1.95335449e+00  -1.85083202e+00   7.65564410e-01
C     1.357478896770000e+01   6.764876411300207e+00  -1.181111999999978e-01  1.22600664e+00   3.09678800e-02  -1.13380000e-02
C     4.929471602600000e+00   7.500670562796611e+00  -2.319314999999982e-01  2.30723535e+00  -1.17395406e+00   3.14245450e-01
C     4.919818810500000e+00   6.748014427305352e+00   3.629868600000000e+00 -2.12549971e+00   7.76687590e-01  -1.25000975e+00
C     6.111735839300000e+00   7.452595165283268e+00   3.488443200000000e+00  1.97505285e+00   1.14253797e+00   7.90305770e-01
C     6.233753339300000e+00   6.789027294640792e+00  -2.784282000000005e-01 -3.06624804e+00  -9.79838750e-01  -1.85204430e-01
C     7.430862496200000e+00   7.491376703790179e+00  -3.428541000000003e-01  4.12734940e-01   6.94917810e-01  -2.06955910e-01
C     7.380021624699999e+00   6.770568857246595e+00   3.473919300000000e+00 -1.99849830e-01  -3.65546170e-01   6.85054050e-01
C     8.644160491299999e+00   7.436652661936898e+00   3.549334200000000e+00 -1.22692962e+00   2.32147363e+00  -2.02847120e-01
C     8.639711462099999e+00   6.730873046887589e+00  -3.910049999999998e-01  6.48503620e-01   1.05977698e+00   1.32026494e+00
C     9.871599008200000e+00   7.522633410091800e+00  -2.675261999999989e-01  2.20666870e-01  -4.50223557e+00  -4.91153290e-01
C     9.867807394500000e+00   6.724189904945313e+00   3.658577100000000e+00 -1.41991405e+00  -3.65312740e-01   3.92380790e-01
C     1.106157775820000e+01   7.439092171840930e+00   3.653901000000000e+00  4.76796000e-03   2.42185279e+00   6.36065000e-01
C     1.112295270860000e+01   6.840557575794342e+00  -1.939649999999986e-01 -7.15447850e-01  -3.95264065e+00   9.25098520e-01
C     1.234882333760000e+01   7.448851406918522e+00  -8.911020000000036e-02  4.61793440e-01   2.78323247e+00  -1.07948329e+00
C     1.228293309880000e+01   6.743115853163290e+00   3.701296800000000e+00  2.46656800e-01   5.85258050e-01  -1.42105765e+00
C     1.350839300950000e+01   7.452867901277999e+00   3.493640700000000e+00  7.00569770e-01  -5.85567550e-01   1.54328354e+00
