64
Lattice="9.86 0 0 4.93 8.53901048131456 0 0 0 30 " PBC="1 1 1" Properties=species:S:1:pos:R:3:force:R:3 Energy="-513.46520786"
C     4.928010498499999e+00   8.484112583893346e+00  -1.979864999999990e-01  9.97406310e-01  -1.20199512e+00  -8.39062790e-01
C     1.227190636500000e+00   6.412242688699848e-01  -1.982037000000005e-01  1.58019962e+00   8.79102490e-01   2.49197100e-02
C     9.815161847199999e+00   4.545810541111839e-02   3.752664900000001e+00  2.58322892e+00   8.69707600e-01  -3.81301000e-01
C     1.252469162200000e+00   7.702581955244175e-01   3.703342200000000e+00 -2.75534879e+00  -2.46014040e-01   2.02036120e-01
C     7.440433499600000e+00   8.491866090799292e+00  -1.725153000000006e-01 -2.32830179e+00  -1.97666734e+00  -1.28929163e+00
C     3.708987294400000e+00   6.160537422879839e-01  -4.228521000000001e-01  9.35865370e-01   1.61517554e+00   1.90303509e+00
C     2.462346674000000e+00   5.147742467868000e-02   3.758598600000000e+00 -6.91002280e-01   2.14703875e+00  -2.12883450e-01
C     3.655027162600000e+00   8.391651068344544e-01   3.757962300000000e+00  4.68029750e-01  -3.74529917e+00   2.49796960e-01
C     9.878247901999998e+00   8.487187054616671e+00  -3.801701999999985e-01  8.64373940e-01  -1.51407949e+00  -4.87833550e-01
C     6.189559537500000e+00   6.398501713035432e-01  -2.937140999999990e-01  4.54139800e-02   9.21618920e-01  -1.34023392e+00
C     4.850963521800000e+00   7.097523042850240e-02   3.839235900000000e+00  2.40559297e+00   3.04520660e-01  -7.99237930e-01
C     6.127160527500000e+00   7.504033737464263e-01   3.744183600000000e+00  4.41979280e-01   7.46278910e-01   9.27246020e-01
C     1.237697122190000e+01   8.441089291930496e+00  -4.522262999999995e-01 -1.75544517e+00   2.10274272e+00   1.43240947e+00
C     8.635705048300000e+00   6.391400671920263e-01  -2.814947999999973e-01  7.18688190e-01  -7.41500460e-01   6.00923150e-01
C     7.401690059300000e+00   1.076918654211400e-01   3.791949900000000e+00 -2.13149954e+00  -1.32010128e+00  -1.14219300e-01
C     8.617932546200000e+00   8.118223413764465e-01   3.770202900000000e+00  8.01190900e-02  -1.38265787e+00  -6.89423420e-01
C     1.245432622500000e+00   2.073871268469801e+00  -3.616095000000001e-01 -2.92401260e-01  -1.33964060e+00   2.87880780e-01
C     2.498091195300000e+00   2.718688155219036e+00  -4.792728000000004e-01 -9.72831800e-01   2.78836024e+00  -1.43417530e-01
C     1.107171620460000e+01   2.195203861572322e+00   3.692094900000000e+00  1.86166890e-01   7.47202060e-01   3.17812670e-01
C     2.449094341000000e+00   2.930855667764024e+00   3.772215900000000e+00 -5.14341260e-01  -1.64654510e-01  -5.78209780e-01
C     3.746051921799999e+00   2.055289954714797e+00  -3.797166000000018e-01 -1.64717218e+00  -2.73713170e-01  -9.96400760e-01
C     4.918644385900000e+00   2.818968244933640e+00  -3.960371999999985e-01  2.30488539e+00  -1.65771123e+00   3.03760600e-01
C     3.669232070200000e+00   2.201822960935998e+00   3.734057100000000e+00  6.25505650e-01   2.16306193e+00   4.75200930e-01
C     4.936869363400000e+00   2.889263343177411e+00   3.788462700000000e+00 -7.82178030e-01   2.37770720e-01  -4.60839700e-01
C     6.174675818200000e+00   2.116496557154179e+00  -2.995380000000019e-01  4.28609210e-01  -2.15291630e+00   1.48431630e-01
C     7.439071587100000e+00   2.782415302771905e+00  -2.735343000000015e-01 -1.07164626e+00  -1.13094396e+00   8.03858110e-01
C     6.177494200599999e+00   2.172426563457550e+00   3.784563300000000e+00 -1.61056873e+00   8.49576170e-01  -2.69855660e-01
C     7.363308678200000e+00   2.932174261762345e+00   3.769856100000000e+00  1.05239216e+00   5.73466060e-01  -1.03619116e+00
C     8.680793792999999e+00   2.028921319572347e+00  -1.343321999999993e-01 -2.87710984e+00   1.52962728e+00  -1.84251473e+00
C     9.831946870299999e+00   2.766824435877101e+00  -3.537780000000019e-01  3.36642992e+00  -5.68007340e-01   7.54489420e-01
C     8.611695011600000e+00   2.204769261112018e+00   3.646881900000000e+00 -7.35735740e-01   1.69494592e+00   1.25021213e+00
C     9.817530169899999e+00   2.929907239870011e+00   3.701476500000000e+00  1.38039632e+00  -1.12444428e+00  -1.26188860e-01
C     2.470741724500000e+00   4.203495871116141e+00  -6.551687999999984e-01  1.74722778e+00  -1.30944567e+00   3.22256250e-01
C     3.744925712600000e+00   4.881331488979545e+00  -6.521636999999991e-01 -1.16229327e+00   1.29729899e+00   1.05018461e+00
C     1.229948798950000e+01   4.363781978396641e+00   3.806463300000000e+00  1.08738926e+00  -1.61771578e+00  -5.48857000e-03
C     3.693042639100000e+00   5.057771781676213e+00   3.864061200000000e+00 -1.49921916e+00   6.40341880e-01  -6.48917230e-01
C     4.972824247800000e+00   4.212525276968008e+00  -4.430388000000001e-01 -1.13614534e+00   8.15510700e-02   3.03515810e-01
C     6.177750116900000e+00   4.903559814110558e+00  -2.051631000000000e-01 -3.64980750e-01   5.83801090e-01  -2.05503228e+00
C     4.901029298700000e+00   4.309760270155341e+00   3.764172300000000e+00  3.33860760e-01   9.51243500e-01   1.21708993e+00
C     6.114397842099999e+00   5.071443932916161e+00   3.858401100000000e+00  6.40081540e-01  -1.69749294e+00  -1.26829576e+00
C     7.380370126399999e+00   4.181996606699912e+00  -2.816820000000000e-01  2.35277982e+00   5.78371640e-01   4.10309650e-01
C     8.651081225300000e+00   4.870661056093633e+00  -3.720666000000001e-01 -6.22285970e-01   9.87844120e-01   6.65299840e-01
C     7.348997479800000e+00   4.409146069302374e+00   3.722232600000000e+00  1.82825810e+00  -2.52465593e+00   1.40761250e+00
C     8.652596362200001e+00   5.073080434274653e+00   3.810845700000000e+00 -2.67736894e+00   1.28807000e-01  -7.20460660e-01
C     9.885183031600000e+00   4.153778251107285e+00  -4.174860000000002e-01 -8.13192600e-02   2.79728446e+00  -1.04442419e+00
C     1.114141442470000e+01   4.961220848618434e+00  -6.429702000000006e-01 -2.12174361e+00  -3.88472781e+00   5.81737150e-01
C     9.850620773599999e+00   4.338805116572326e+00   3.803837100000000e+00 -8.21227680e-01  -5.53662020e-01  -6.23540870e-01
C     1.106446062500000e+01   5.004254643564176e+00   3.777399000000000e+00  1.20252074e+00   3.27798585e+00   9.31934850e-01
C     3.714805384600000e+00   6.308162056200804e+00  -5.027916000000019e-01  1.49288801e+00   1.05578934e+00  -4.08361060e-01
C     4.990617308000000e+00   7.063745449874713e+00  -3.534992999999993e-01 -2.98141276e+00  -7.26100380e-01   1.27744800e-01
C     1.349936647530000e+01   6.522731250833398e+00   3.858825900000000e+00  2.24216143e+00  -2.74623779e+00  -5.17628220e-01
C     4.922346470799999e+00   7.150548077788315e+00   3.752553300000000e+00 -1.90077764e+00   1.89928037e+00   8.75207690e-01
C     6.178276788800000e+00   6.335524973723545e+00  -3.312989999999978e-01  4.03502050e-01  -6.31398980e-01   1.42920357e+00
C     7.396945082199999e+00   7.011892991855753e+00  -2.140199999999979e-01  1.06434629e+00   2.10810821e+00  -1.66735500e-01
C     6.133831803500000e+00   6.444994319566202e+00   3.814470300000000e+00  4.88137440e-01   2.50128884e+00  -1.23591130e-01
C     7.366745874199999e+00   7.215073452040854e+00   3.796334100000000e+00  7.44763520e-01  -2.79828241e+00  -1.57848050e-01
C     8.616919973500000e+00   6.315784233125568e+00  -3.152556000000004e-01  1.86581130e+00  -3.19678660e-01  -8.94421940e-01
C     9.882424943100000e+00   7.045230057280615e+00  -5.007195000000024e-01 -1.82980340e+00   1.79132910e-01   8.00852590e-01
C     8.627263458600000e+00   6.494824825293604e+00   3.781218300000000e+00 -7.95640520e-01  -5.82591810e-01   6.96392350e-01
C     9.845052732999999e+00   7.177868641819075e+00   3.847464600000000e+00  3.80623690e-01   8.61201270e-01  -7.63082300e-02
C     1.107520999700000e+01   6.334369987166021e+00  -6.715236000000004e-01  2.18794323e+00   1.91197060e+00   1.03077602e+00
C     1.236845479480000e+01   7.058754398249154e+00  -5.333505000000009e-01 -1.11112438e+00  -2.00441821e+00  -8.77708500e-01
C     1.111245550610000e+01   6.472242643568302e+00   3.870910200000000e+00 -2.92757573e+00  -7.82218770e-01  -6.57273710e-01
C     1.228085456150000e+01   7.208954311740782e+00   3.832242300000000e+00  1.65919355e+00   7.28215020e-01   3.05526190e-01
