76
Lattice="10.7446858958278 0 0 5.37234294791388 9.3051709414712 0 0 0 30 " PBC="1 1 1" Properties=species:S:1:pos:R:3:force:R:3 Energy="-612.66879228"
C     4.492750728168300e-02   5.299480953748800e-03  -1.419579000000013e-01 -1.66076406e+00   3.70083220e-01   5.20408010e-01
C     1.245608937014725e+01   8.500500141550679e+00  -2.138093999999988e-01 -4.14950200e-01   7.26795960e-01   5.82614920e-01
C     1.384358568809029e+01   8.318010106730101e+00  -1.993659000000001e-01  1.65129079e+00  -2.00006200e-01   1.89554230e-01
C     1.443795372217152e+01   6.995711538385588e+00  -1.776039000000011e-01 -7.31147280e-01   1.23319117e+00  -2.09451770e-01
C     8.229723957047236e+00   8.998978800168445e+00  -1.462020000000024e-01  9.43224460e-01  -6.40714050e-01   6.58176810e-01
C     9.674174470370112e+00   8.817573283020923e+00  -1.271276999999991e-01 -1.21778925e+00   1.08444550e-01  -1.32431620e-01
C     1.024424097973417e+01   7.513308229009841e+00  -1.129740000000012e-01 -1.72229797e+00  -4.92741060e-01  -6.30723970e-01
C     1.162847918657174e+01   7.358861932264815e+00  -1.937715000000004e-01  5.37867470e-01  -7.81224770e-01   5.89191710e-01
C     1.219659746948841e+01   6.031925573672097e+00  -1.144172999999995e-01 -2.00642418e+00   6.72333190e-01  -6.70031580e-01
C     1.356910264049347e+01   5.879733268483867e+00  -1.580775000000010e-01  1.74956766e+00  -2.87561500e-01   6.01952460e-01
C     5.940222915783403e+00   7.993291836815553e+00  -1.576310999999997e-01  2.13177541e+00   2.47871700e-02   2.48942780e-01
C     7.413603818232605e+00   7.815632767591894e+00  -1.233609000000015e-01 -2.24759252e+00   1.54955696e+00  -3.24196690e-01
C     7.940160689066340e+00   6.521925918839591e+00  -1.210802999999991e-01  1.27103066e+00  -7.72252520e-01   2.25111700e-02
C     9.377565052269713e+00   6.347900332764582e+00  -1.429440000000000e-01 -6.24509310e-01   1.59352714e+00   6.57374080e-01
C     9.924264179908736e+00   5.065278268894556e+00  -7.464660000000123e-02  1.53375180e-01  -2.40463600e-02  -8.68423170e-01
C     1.131919662634601e+01   4.897409542223707e+00  -1.039539000000005e-01  1.43007301e+00   4.48246900e-01   5.64897070e-01
C     1.190709807866519e+01   3.603289636933379e+00  -5.120579999999819e-02 -1.02983979e+00   6.85972370e-01   4.03230900e-02
C     5.101733469116993e+00   6.844400712040504e+00  -1.484622000000009e-01 -9.76525200e-02   2.59899950e-01   6.96522000e-02
C     5.656879477852870e+00   5.539711156131140e+00  -1.051083000000013e-01  1.09208870e+00  -3.01573950e-01  -1.58568750e-01
C     7.099286137023847e+00   5.364852198946743e+00  -9.571439999999853e-02 -8.76696540e-01   2.86434040e-01  -3.96096130e-01
C     7.666957548453931e+00   4.054492816280218e+00  -1.460796000000002e-01 -4.00380600e-02   1.06424664e+00   2.57796880e-01
C     9.095074258888774e+00   3.933816845910640e+00  -1.384736999999987e-01 -1.26048233e+00  -7.47027020e-01   7.64355980e-01
C     9.649333831037902e+00   2.639083264596818e+00  -3.947399999999845e-02 -5.86225980e-01  -1.62977840e-01  -6.11092680e-01
C     1.105052725967254e+01   2.489837627890158e+00  -5.669520000000006e-02  3.01398300e-02  -1.08457565e+00   3.68233120e-01
C     3.412080251743391e+00   4.594090094764749e+00  -5.654009999999943e-02 -1.11858645e+00  -9.60159830e-01  -3.58205930e-01
C     4.797739013503806e+00   4.402533287483653e+00  -1.150431000000012e-01  1.20792499e+00   2.57040220e-01   1.38366810e-01
C     5.398843697027190e+00   3.102155003374209e+00  -1.577936999999991e-01 -4.00146260e-01   3.53108410e-01   5.29207580e-01
C     6.794541326270835e+00   2.933016586128598e+00  -1.424409000000004e-01  9.59081950e-01   4.84674100e-01  -3.62446680e-01
C     7.377472501786388e+00   1.641385441857881e+00  -1.604126999999984e-01 -1.38990090e-01   7.85573050e-01   8.72317490e-01
C     8.778133531234678e+00   1.511667264679068e+00  -5.437019999999748e-02  1.00002938e+00  -2.11708081e+00  -6.50697900e-01
C     9.331457294965345e+00   1.407564362063886e-01  -1.173804000000018e-01  8.74145430e-01   1.87090538e+00  -7.85606000e-02
C     2.542843328394675e+00   3.451464234635313e+00  -3.502499999999742e-03  1.95451390e+00  -1.10652130e-01  -5.97073340e-01
C     3.146008788950248e+00   2.157446686225324e+00  -6.590639999999937e-02  3.83232500e-01  -5.31780970e-01   4.27419390e-01
C     4.579851987182355e+00   1.963783002139993e+00  -1.071668999999993e-01 -1.62450880e+00   2.51391870e-01  -2.50547790e-01
C     5.132411159064378e+00   6.588864061772122e-01  -1.422360000000005e-01 -5.09122390e-01   3.81754860e-01   4.13953890e-01
C     6.523818972462448e+00   5.347226716359034e-01  -1.150014000000006e-01  8.79973420e-01  -2.29549709e+00  -1.00115914e+00
C     8.571084830750845e-01   1.194226475904985e+00  -5.132970000000014e-02  1.37701565e+00  -1.59252569e+00  -2.94275440e-01
C     2.311009914668741e+00   1.014197193539488e+00  -5.070419999999842e-02 -1.34756367e+00  -3.62516910e-01  -5.32754340e-01
C     1.607691592902325e+01   9.267726559930603e+00   3.487080900000000e+00  5.61338900e-01   2.01535648e+00  -2.84516870e-01
C     1.186301784359015e+01   8.831614227659127e+00   3.605268300000000e+00 -2.13305536e+00  -6.82209930e-01   1.13643330e-01
C     1.324001139223622e+01   8.998039908420600e+00   3.580644900000000e+00  1.94050962e+00  -1.60227536e+00   3.69231440e-01
C     1.412228548766856e+01   7.838064370970114e+00   3.592803000000000e+00 -1.20463577e+00  -5.30269400e-01  -6.92476030e-01
C     7.638484077095502e+00   8.300563562579566e+00   3.542349600000000e+00 -8.24576370e-01   1.31480018e+00  -1.14483882e+00
C     9.037562306863865e+00   8.508410002108226e+00   3.516540600000000e+00 -9.84879730e-01  -2.24552860e+00   3.32463590e-01
C     9.845795577610748e+00   7.331721354080698e+00   3.541469700000000e+00  1.35091556e+00   1.31778564e+00   1.59843480e-01
C     1.126999182077783e+01   7.522048855228911e+00   3.602842500000000e+00  9.45425470e-01  -1.05921440e+00  -8.70445190e-01
C     1.214801924027848e+01   6.362365779301069e+00   3.481720800000000e+00 -1.06002393e+00   5.11516850e-01   9.61076600e-02
C     1.356374109595280e+01   6.504022676899321e+00   3.480768300000000e+00 -3.78244350e-01   1.39711432e+00   9.02205530e-01
C     4.781420521793182e+00   7.988943809590419e+00   3.553531200000000e+00 -1.80118100e-02  -4.55168530e-01   3.16173000e-01
C     5.650160986929888e+00   6.864410272474752e+00   3.588292200000000e+00 -3.11905260e-01  -1.11720271e+00  -6.77643070e-01
C     7.074922131958161e+00   7.012407155241265e+00   3.517568400000000e+00 -1.02985467e+00  -5.44353440e-01   7.32275800e-01
C     7.885138334487889e+00   5.846548423463965e+00   3.544826100000000e+00  1.45909380e-01   6.35503840e-01  -1.74415990e-01
C     9.293366255257824e+00   6.046611738863279e+00   3.517205100000000e+00  2.99417290e-01  -1.48085718e+00   3.06338300e-02
C     1.016952098345297e+01   4.898709753759154e+00   3.476639700000000e+00 -1.39248406e+00  -3.89824070e-01   2.90707510e-01
C     1.156264171467722e+01   5.055515469647727e+00   3.408639000000000e+00  8.83505900e-01   6.49449370e-01   7.29960530e-01
C     1.242996119510365e+01   3.927226365540676e+00   3.464286600000000e+00 -1.44142621e+00  -4.40625140e-01  -6.13923710e-01
C     3.645158168713692e+00   5.361762975246374e+00   3.529393200000000e+00  6.92965380e-01   6.05506820e-01  -6.10424720e-01
C     5.069782963677893e+00   5.534587729011575e+00   3.545064600000000e+00 -7.73173570e-01   1.43051308e+00  -1.61814760e-01
C     5.886141097285209e+00   4.418299410814133e+00   3.445706100000000e+00  1.32022076e+00  -1.33380411e+00   8.48818690e-01
C     7.292816733283172e+00   4.555088866545381e+00   3.539878200000000e+00  6.06201880e-01   1.05157669e+00  -6.05510090e-01
C     8.148488705576856e+00   3.449634000563125e+00   3.522947700000000e+00  6.88296360e-01  -2.01704869e+00   7.65681600e-02
C     9.578475743486313e+00   3.580112782414574e+00   3.550567200000000e+00  4.23934960e-01   6.61391830e-01  -7.64175300e-01
C     1.045494674151092e+01   2.433821243245033e+00   3.480188400000000e+00 -1.68159527e+00   6.10052140e-01   1.12678300e-01
C     1.184522781342209e+01   2.633063098153766e+00   3.439776000000000e+00  1.24279580e+00  -1.58947561e+00   2.25221070e-01
C     3.067723652164002e+00   4.074952840039671e+00   3.464155800000000e+00  1.64287661e+00  -3.90861380e-01   6.96287310e-01
C     3.944180359756364e+00   2.938043518625514e+00   3.541300800000000e+00  4.95693880e-01  -1.66269420e-01  -7.82365820e-01
C     5.386342308705969e+00   3.090796646466298e+00   3.477188400000000e+00 -2.34789248e+00   5.14136500e-01   2.15598260e-01
C     6.195887774218389e+00   1.940920011036994e+00   3.521829000000000e+00 -1.84721300e-01   5.11987600e-02  -5.26811300e-02
C     7.595862809195395e+00   2.108369818912123e+00   3.491848200000000e+00  7.21565020e-01   5.30252640e-01   8.01810580e-01
C     8.453310502004342e+00   9.670521727651408e-01   3.592069800000000e+00 -3.82300970e-01   1.31350362e+00  -9.41226320e-01
C     9.848387249573255e+00   1.140817586260667e+00   3.493916400000000e+00  1.59639015e+00  -1.00588023e+00   3.15084360e-01
C     1.964362816672620e+00   1.455471662441638e+00   3.452645400000000e+00 -3.00001220e-01   4.92660730e-01  -2.48007240e-01
C     3.398824855089138e+00   1.631119325914907e+00   3.508536300000000e+00 -1.59712035e+00  -2.05740390e-01  -3.46586600e-02
C     4.208745363862897e+00   4.658040161205028e-01   3.523897200000000e+00  7.77281720e-01   1.73229519e+00   2.95878950e-01
C     5.601454788510893e+00   6.452788033496845e-01   3.598705800000000e+00  1.39465159e+00   3.74699100e-02  -5.09657120e-01
C     1.385577639381871e+00   1.336693388633564e-01   3.407874900000000e+00  3.11985700e-01   3.99321360e-01   1.16862089e+00
