64
Lattice="9.86 0 0 4.93 8.53901048131456 0 0 0 30 " PBC="1 1 1" Properties=species:S:1:pos:R:3:force:R:3 Energy="-511.74173051"
C     5.048753051199999e+00   7.792683715246831e+00   2.417760000000000e-01 -1.25801852e+00   1.11495749e+00  -4.63065690e-01
C     6.264749333899999e+00   8.507280627127683e+00   2.400645000000000e-01  3.19060590e-01   1.68736285e+00  -3.81135590e-01
C     9.694060784899998e+00   7.607135457801879e-01   3.218640300000000e+00  2.16666933e+00  -4.22376596e+00   1.04602116e+00
C     1.106414116100000e+00   1.383545383806986e+00   3.297871500000000e+00  5.91273510e-01   1.33784677e+00  -1.08922130e-01
C     7.534780733700000e+00   7.846374878392450e+00   2.347293000000000e-01 -1.55876677e+00   1.11462786e+00  -6.60787440e-01
C     3.808845874100000e+00   2.668688406303920e-02   1.059276000000000e-01  4.82070650e-01   6.15614230e-01   1.02275774e+00
C     2.364482230000000e+00   7.209836647693679e-01   3.510088800000000e+00 -1.95971993e+00  -3.45189953e+00  -7.63120820e-01
C     3.579957263799999e+00   1.387274113513288e+00   3.416517000000000e+00  1.29489589e+00   9.15531510e-01   7.37369300e-02
C     9.941332773599999e+00   7.814680889364149e+00   1.741434000000000e-01  1.39024171e+00   1.99300717e+00  -1.01614944e+00
C     6.284263112000000e+00   3.515561848678880e-02   1.876059000000000e-01 -2.21041290e+00  -1.65881960e+00  -7.11799450e-01
C     4.875842224500000e+00   7.755562245767336e-01   3.434034300000000e+00 -2.95605601e+00  -4.17246463e+00  -4.80497910e-01
C     6.091035755300000e+00   1.401235310257983e+00   3.352656600000000e+00  9.76944890e-01   8.43247070e-01   5.73563400e-01
C     1.242070337850000e+01   7.844672712043367e+00   4.300980000000000e-02  7.46095610e-01   3.61322444e+00   1.73009165e+00
C     8.729822347199999e+00   1.887462876499200e-02   2.682009000000000e-01  5.35769890e-01  -2.41355518e+00  -1.08508632e+00
C     7.299846119300000e+00   6.566884168492647e-01   3.376006800000000e+00  4.83212290e-01  -2.63476640e-01  -8.01332070e-01
C     8.474582492500000e+00   1.433681159159049e+00   3.257115900000000e+00  1.18442672e+00   2.43849680e-01  -3.94636830e-01
C     1.288089201000000e+00   1.418652756884563e+00   7.422810000000001e-02  2.48079119e+00  -6.45282970e-01  -1.43265799e+00
C     2.559343980300000e+00   2.178793164281334e+00  -1.638848999999993e-01 -1.44350530e+00  -1.80114716e+00   1.32243171e+00
C     1.103556471180000e+01   2.809102016054735e+00   3.157725000000000e+00 -1.22808575e+00   7.53684000e-02   4.44258300e-02
C     2.365539961500000e+00   3.545340537656517e+00   3.187325400000000e+00  4.01935710e-01  -1.17269395e+00  -2.49842080e-01
C     3.795473051900000e+00   1.487234246505207e+00   3.943770000000000e-02 -8.93685820e-01  -1.04296525e+00  -7.55023100e-01
C     4.974934238499999e+00   2.218016255020166e+00   4.330020000000000e-02  3.50997764e+00  -1.84012024e+00   7.26436660e-01
C     3.584560552700000e+00   2.776766064218546e+00   3.272715900000000e+00  4.26136160e-01   2.10178181e+00   1.12156660e-01
C     4.828453191099999e+00   3.471890189650282e+00   3.296536800000000e+00  1.59796125e+00   7.78976810e-01   6.06611070e-01
C     6.263582402899999e+00   1.430585084739211e+00   2.165604000000000e-01 -1.18877287e+00   1.65517168e+00  -7.21386470e-01
C     7.504019752199999e+00   2.090765615314376e+00   1.786023000000000e-01 -8.28370140e-01   4.37596452e+00   3.11416570e-01
C     6.115410365500000e+00   2.821432091017540e+00   3.376147200000000e+00 -2.77844510e-01   6.12288980e-01  -6.44734300e-02
C     7.381458177399999e+00   3.579869478164179e+00   3.408007200000000e+00 -2.84197937e+00  -5.47709110e-01  -1.44542190e+00
C     8.725645552600000e+00   1.413550868902973e+00   2.428557000000000e-01 -2.60845250e-01  -1.25240000e-04  -1.24199362e+00
C     9.933706162199998e+00   2.069733690941717e+00  -7.611990000000191e-02  1.54162180e-01   3.25490274e+00   2.02600094e+00
C     8.544533375100000e+00   2.865425756131338e+00   3.149455800000000e+00  1.67667312e+00  -2.32561220e-01   1.29202837e+00
C     9.845802191600001e+00   3.559633901908885e+00   3.086894700000000e+00 -2.70347829e+00   3.51665700e-02   2.60471180e-01
C     2.581309891100000e+00   3.576097711845059e+00  -2.841579000000003e-01 -4.83904590e-01   5.46666790e-01   3.78084040e-01
C     3.832014606300000e+00   4.256857855407757e+00  -1.481555999999991e-01 -2.05057161e+00   2.73138627e+00   1.03145100e-01
C     1.217226224030000e+01   4.937880829713031e+00   3.124671600000000e+00  2.33388623e+00   1.98259610e+00   1.48693647e+00
C     3.641575509700000e+00   5.595043417814250e+00   3.354864600000000e+00 -3.21002484e+00  -8.24349600e-02  -1.11430626e+00
C     5.058505084200000e+00   3.623694753991312e+00  -8.031599999998917e-03 -5.17217460e-01  -1.53002238e+00   4.18147670e-01
C     6.266417498000000e+00   4.325284618158505e+00   1.905300000000000e-01 -3.65229350e-01   6.95951100e-02  -1.28197047e+00
C     4.850590665900000e+00   4.918635949453626e+00   3.389930700000000e+00 -9.00586660e-01  -1.66615882e+00   2.13364090e-01
C     5.998817048699999e+00   5.669855054871207e+00   3.572698200000000e+00  3.86773967e+00  -1.66725902e+00  -1.17648712e+00
C     7.494974977000000e+00   3.698398287175592e+00   1.596780000000000e-01  5.05616450e-01  -5.49489494e+00   4.92633190e-01
C     8.729621400399999e+00   4.334870169762933e+00   1.553682000000000e-01  1.13200291e+00  -1.25706140e+00  -9.57809040e-01
C     7.329245977099999e+00   4.987014296014951e+00   3.385429500000000e+00 -1.94027775e+00  -1.00538670e-01   1.76274243e+00
C     8.555873114600001e+00   5.664471123373462e+00   3.403283700000000e+00 -8.41399630e-01   4.89599700e-01  -6.18218700e-01
C     9.955260319400001e+00   3.545748616967357e+00  -4.790520000000242e-02  4.39331360e-01   1.21152720e+00  -7.82026370e-01
C     1.120596330910000e+01   4.331045120018416e+00  -2.502236999999994e-01 -1.26294636e+00  -1.39159886e+00   7.88410390e-01
C     9.775857471500000e+00   5.014029334250737e+00   3.148047300000000e+00 -1.87605350e-01  -1.92633633e+00   6.10156720e-01
C     1.095054030490000e+01   5.752578597478513e+00   3.182586600000000e+00  2.18931107e+00  -3.70142631e+00  -5.40621960e-01
C     3.744994880500000e+00   5.698152994041508e+00   5.810400000000000e-03  7.84709590e-01   5.47156890e-01  -1.32273843e+00
C     5.024943123200000e+00   6.373067074859285e+00   7.151820000000000e-02 -3.05865539e+00   1.78116991e+00   7.60883340e-01
C     1.350749747500000e+01   6.989645966291789e+00   3.353279700000000e+00 -8.87349190e-01   2.49864566e+00  -4.16095100e-01
C     4.843540963100000e+00   7.751076447391878e+00   3.321747300000000e+00 -2.03230182e+00   2.96536020e+00   7.76827460e-01
C     6.205875175300000e+00   5.715510240644204e+00   1.129260000000000e-01  4.02975996e+00   6.38049350e-01   9.45672620e-01
C     7.491973888799999e+00   6.469355347954699e+00   2.134614000000000e-01 -5.39161100e-02  -2.69932871e+00  -1.59973430e-01
C     6.017253375299999e+00   7.064260779157181e+00   3.560051400000000e+00  1.02184948e+00   1.11972419e+00  -5.03245370e-01
C     7.242373214600001e+00   7.780507940203399e+00   3.563125500000000e+00  1.92889203e+00   9.58995010e-01   3.40078520e-01
C     8.748878325500000e+00   5.741844548964524e+00   1.724607000000000e-01 -2.36157680e+00  -6.60514960e-01  -4.05134660e-01
C     9.942995021700000e+00   6.393605017475676e+00   1.911120000000000e-02  4.77374100e-02   2.86135131e+00   7.80678020e-01
C     8.501446604799998e+00   7.060005363284473e+00   3.528999000000000e+00  8.84600050e-01   2.87282828e+00  -7.76215340e-01
C     9.746295761799999e+00   7.840334638549212e+00   3.362504400000000e+00  2.69646230e-01   1.35891200e-01   1.11851943e+00
C     1.115501032940000e+01   5.775785322430323e+00  -1.534013999999999e-01  1.67219570e+00  -2.24314119e+00  -1.82855400e-01
C     1.237812913100000e+01   6.512590748937874e+00  -1.006865999999995e-01  1.32246439e+00  -5.11327281e+00   1.88251910e-01
C     1.098958861640000e+01   7.105126007001423e+00   3.285327600000000e+00  3.10210780e-01   2.67391298e+00   1.94591770e-01
C     1.228478663090000e+01   7.756744642548501e+00   3.306973500000000e+00 -1.41369012e+00   5.62399090e-01   4.89850330e-01
