64
Lattice="9.86 0 0 4.93 8.53901048131456 0 0 0 30 " PBC="1 1 1" Properties=species:S:1:pos:R:3:force:R:3 Energy="-508.35544652"
C     5.024005190700001e+00   8.088760497394377e+00   1.870770000000000e-02 -1.99516632e+00  -2.10091360e-01  -1.43396976e+00
C     1.261163020000000e+00   3.118446627296000e-01  -1.048878000000002e-01  3.27836577e+00  -1.02719242e+00   8.47847160e-01
C     9.845011616800001e+00   3.474328674873056e-01   3.586024200000000e+00 -9.50097280e-01   3.77439238e+00   1.36764570e-01
C     1.171726164500000e+00   1.211374681740423e+00   3.542203800000000e+00 -5.86055370e-01  -2.87082370e+00  -7.37711100e-02
C     7.476496351000000e+00   8.153130205485866e+00   1.565700000000000e-03 -2.51951940e-01  -2.21199591e+00  -1.55212381e+00
C     3.761711080800000e+00   2.789351455594704e-01  -2.362008000000024e-01  1.32192710e+00  -7.38249530e-01  -1.14172030e-01
C     2.340594309400000e+00   4.582118413672800e-01   3.880067700000000e+00  1.91618513e+00   5.90616290e-01   1.05068957e+00
C     3.599869336599999e+00   1.158899473687155e+00   3.855319500000000e+00  7.97078100e-02  -2.64257800e-01  -1.14063445e+00
C     9.986425363700000e+00   8.062145767969893e+00  -3.301547999999990e-01 -2.54530024e+00   2.07195755e+00   1.28666904e+00
C     6.230248750200000e+00   2.677960063883104e-01  -1.752752999999991e-01  2.07465941e+00  -3.00842388e+00  -8.37245780e-01
C     4.848439756199999e+00   3.597474868411424e-01   3.903964500000000e+00 -1.43630378e+00   4.69617531e+00   4.90810000e-01
C     6.036084200499999e+00   1.147754271818554e+00   3.869102700000000e+00  1.58040972e+00   1.19621534e+00  -8.14075360e-01
C     1.239200175660000e+01   7.997065101865839e+00  -2.442884999999997e-01  1.28881036e+00   3.90978868e+00  -2.27697970e-01
C     8.717658459599999e+00   2.480732831024448e-01  -1.436132999999984e-01 -3.30235590e-01  -4.85061000e-02   1.40763117e+00
C     7.307008275399999e+00   5.232044702732848e-01   3.756935700000000e+00  4.51610740e-01  -2.20297035e+00  -4.56426690e-01
C     8.611296026700000e+00   1.107801266463892e+00   3.468192600000000e+00 -2.47326048e+00   1.46258664e+00   1.55155696e+00
C     1.317087362400000e+00   1.725918631414578e+00  -3.335621999999994e-01  4.41757510e-01  -1.15714839e+00   4.05444740e-01
C     2.523793750300000e+00   2.405958167882869e+00  -6.206931000000004e-01  1.98088859e+00  -7.98679470e-01   2.34452580e-01
C     1.101742931240000e+01   2.586399499330046e+00   3.153501600000000e+00 -2.72944350e-01  -3.80113800e-01   6.29065020e-01
C     2.411694917300000e+00   3.282480420886067e+00   3.190318800000000e+00 -5.55146440e-01   7.82371220e-01   8.82055710e-01
C     3.785837071100000e+00   1.671480646412377e+00  -4.739597999999994e-01  6.11300140e-01   8.80699870e-01   6.13376660e-01
C     5.072975570900000e+00   2.354707710102748e+00  -3.577875000000006e-01 -1.77788825e+00   1.20547565e+00  -5.94281710e-01
C     3.588254700299999e+00   2.598444029782401e+00   3.539389200000000e+00  1.73509244e+00  -7.16284040e-01   1.44893956e+00
C     4.808786484400000e+00   3.378817964071950e+00   3.874925700000000e+00 -5.51510320e-01  -2.47177605e+00  -1.76556099e+00
C     6.312920708999999e+00   1.655181127037838e+00  -1.124790000000004e-01 -1.94436647e+00   1.18926164e+00  -3.92056910e-01
C     7.510678308799999e+00   2.379808899919651e+00  -2.278499999999894e-02  1.06496526e+00   1.76358890e+00  -2.68576040e-01
C     6.065476022400000e+00   2.616167856105003e+00   3.847027500000000e+00 -3.21239226e+00  -1.16950472e+00   1.03224261e+00
C     7.231854270800000e+00   3.306108802175379e+00   3.848571900000000e+00  5.12033202e+00  -7.06064560e-01  -1.45575929e+00
C     8.778088328999999e+00   1.708229388084419e+00  -2.693580000000040e-02 -2.30541990e+00  -2.00833156e+00  -4.49804300e-02
C     9.988592443799998e+00   2.411525175765306e+00  -1.472786999999975e-01 -1.62569725e+00   1.18288865e+00  -1.70244070e+00
C     8.537493630899998e+00   2.570747407730102e+00   3.478557300000000e+00 -6.37152120e-01  -5.47475190e-01  -3.13608900e-02
C     9.740167870399999e+00   3.279031599943299e+00   3.164733000000000e+00 -3.63618400e-01   2.17922630e-01   8.64038600e-01
C     2.556706972600000e+00   3.799012764540593e+00  -8.868243000000007e-01 -4.37492250e-01   1.36050763e+00   2.68650370e-01
C     3.790175766900000e+00   4.570682885447879e+00  -8.160845999999999e-01  1.24666320e+00  -2.69071827e+00   1.07996444e+00
C     1.226843963830000e+01   4.732761843368760e+00   3.281462100000000e+00 -3.34413880e-01   2.99316320e-01  -2.10972060e-01
C     3.575625667200000e+00   5.507077520502958e+00   3.569389800000000e+00  1.33202516e+00  -6.97895630e-01   1.08064180e+00
C     5.028649793000000e+00   3.820488888238422e+00  -4.883283000000027e-01 -3.01123978e+00  -2.77935243e+00  -8.19045170e-01
C     6.199394345200000e+00   4.444989590473432e+00  -3.059373000000001e-01  2.53314841e+00   4.94766259e+00   1.43650760e+00
C     4.803499798900000e+00   4.765027177588277e+00   3.881452500000000e+00  1.94969001e+00   1.24048170e+00   4.97014940e-01
C     6.177188195499999e+00   5.399234343816113e+00   4.223323500000000e+00 -5.54977363e+00   3.13529671e+00  -7.19454200e-01
C     7.455944512099999e+00   3.858438044003743e+00  -8.454000000000050e-02  8.20354000e-02  -3.38604766e+00  -5.95243230e-01
C     8.668440642700000e+00   4.548037429654920e+00  -2.398197000000017e-01  1.52672669e+00  -5.14871980e-01   2.73473900e-02
C     7.348334739899999e+00   4.727311563759585e+00   4.044317700000001e+00 -3.70327490e-01  -2.11991920e+00  -2.83283270e-01
C     8.553314148800000e+00   5.400278579407712e+00   3.874379400000000e+00  1.72067524e+00   1.16277064e+00  -6.62270680e-01
C     9.866388195399999e+00   3.784656980121617e+00  -4.777974000000000e-01  2.87030110e+00   1.77837950e+00   2.69339000e-02
C     1.117107621340000e+01   4.508420946703274e+00  -8.950403999999992e-01 -2.85430335e+00   4.59176370e-01   2.30089397e+00
C     9.702120003799999e+00   4.693800302520930e+00   3.277089900000000e+00  1.51695892e+00   2.19587372e+00   1.83691512e+00
C     1.101945884550000e+01   5.429343065548803e+00   3.309308100000000e+00 -1.53040132e+00   2.08245390e-01   2.48873250e-01
C     3.820556990500000e+00   5.955633704989769e+00  -6.295310999999977e-01 -5.26440900e-01   8.22599220e-01   9.60457940e-01
C     4.969784311200000e+00   6.647761747814387e+00  -1.145487000000003e-01  2.63554488e+00  -5.15416960e-01  -1.37414451e+00
C     1.343138133160000e+01   6.950973983289336e+00   3.735003600000000e+00  1.48292399e+00  -3.73738683e+00   1.42312410e-01
C     4.848665205100000e+00   7.537063740072266e+00   3.942977400000000e+00  8.98080510e-01   9.40511570e-01  -2.57237610e-01
C     6.216709787000000e+00   5.911130346340419e+00  -1.549703999999998e-01  1.62750703e+00   8.83922530e-01   3.82974740e-01
C     7.587684514399999e+00   6.652261635557138e+00  -4.868369999999800e-02 -6.00760192e+00   1.87152511e+00   5.22119470e-01
C     6.085321737399999e+00   6.896078221935302e+00   4.292082600000001e+00 -2.68879560e-01  -3.31183935e+00  -6.49827770e-01
C     7.296701420200000e+00   7.581765545325172e+00   4.345099200000000e+00  6.58017510e-01   1.48922640e+00  -2.35380439e+00
C     8.751408993100000e+00   5.963842255764193e+00  -1.664102999999990e-01  6.32405480e-01  -7.25042910e-01  -1.01102334e+00
C     9.975932795400000e+00   6.657180617934246e+00  -3.783329999999978e-01 -1.21612549e+00   3.47419070e-01  -6.92913300e-02
C     8.563088169600000e+00   6.857514172025317e+00   4.149740400000000e+00 -2.35148095e+00  -2.27863135e+00  -4.92444030e-01
C     9.714764369199999e+00   7.537563186795242e+00   3.912492600000000e+00  4.10571994e+00  -1.41927127e+00  -8.88907620e-01
C     1.110305833450000e+01   5.967552626597962e+00  -7.191116999999991e-01  4.98944526e+00  -1.92976604e+00  -5.32996330e-01
C     1.246214234560000e+01   6.668308827171992e+00  -6.349440000000008e-01 -3.43788224e+00  -9.58892720e-01   3.51683840e-01
C     1.102153398110000e+01   6.836893742567689e+00   3.605142600000000e+00 -1.74012141e+00   7.32970800e-02   7.24948470e-01
C     1.222563777270000e+01   7.598717615880591e+00   3.748435500000000e+00 -1.34260596e+00   1.47265552e+00  -9.10993910e-01
