64
Lattice="9.86 0 0 4.93 8.53901048131456 0 0 0 30 " PBC="1 1 1" Properties=species:S:1:pos:R:3:force:R:3 Energy="-516.35683114"
C     9.857469085900000e+00   2.606832668287848e-01  -1.575986999999976e-01  2.61690400e-02   4.40106660e-01   5.94662200e-02
C     1.217116033600000e+00   9.754043359220160e-01  -1.575573000000006e-01  1.07378650e+00   3.29634710e-01   4.49324120e-01
C     1.224455028800000e+00   4.557906903357808e-01   3.490759800000000e+00 -1.84412670e-01  -2.31146312e+00  -9.06149000e-03
C     2.433316566200000e+00   1.154480706543965e+00   3.484417800000000e+00  8.02035170e-01   2.95576550e-01  -6.55982200e-02
C     2.481093442700000e+00   2.811133617428136e-01  -1.090470000000003e-01 -1.10188444e+00   2.48981140e-01  -9.30318300e-02
C     3.703759867500000e+00   9.949753209916520e-01  -7.212960000000024e-02  2.93299970e-01  -7.51868010e-01  -3.61189030e-01
C     3.663068633500000e+00   4.588600376528168e-01   3.502518900000000e+00  5.22279400e-01  -1.05564120e+00  -4.15796430e-01
C     4.917114212500000e+00   1.129545173530373e+00   3.507039000000000e+00 -1.59066610e-01   8.59824290e-01   1.69833350e-01
C     4.934387601400000e+00   3.022785800690656e-01  -1.220862000000018e-01  1.16594025e+00  -1.21540646e+00   6.85209640e-01
C     6.202020704100000e+00   9.994827230636247e-01  -7.549769999999967e-02 -1.44867943e+00  -1.01263560e-01  -8.28461820e-01
C     6.153391578500000e+00   4.184484874353784e-01   3.538418700000000e+00  1.61958890e-01   6.66106020e-01  -2.22198210e-01
C     7.369023386299999e+00   1.162843215677343e+00   3.547674600000000e+00  8.91645480e-01   6.76633600e-02   3.73945710e-01
C     7.407169803600000e+00   2.839236354818864e-01  -1.500780000000006e-01 -5.91051400e-02  -2.24106430e-01   3.93163430e-01
C     8.624439160199998e+00   9.888174135840000e-01  -1.487906999999993e-01  8.40465660e-01  -3.27726290e-01  -4.92098100e-02
C     8.643252976899999e+00   4.320436168007960e-01   3.600601800000000e+00 -1.53157129e+00   3.17114070e-01  -1.06479673e+00
C     9.865093577400000e+00   1.140356670869416e+00   3.503842500000000e+00 -6.43339560e-01   6.27188980e-01   4.86886820e-01
C     1.109886403840000e+01   2.406880807965234e+00  -1.212102000000002e-01  4.56977710e-01  -6.53845430e-01  -5.89064970e-01
C     2.485346257900000e+00   3.102385175533644e+00  -1.604285999999995e-01 -5.72301950e-01   1.18903069e+00   6.82108170e-01
C     2.447502739800000e+00   2.558719101397660e+00   3.476767500000000e+00  7.01923700e-02   1.36486006e+00   2.32113880e-01
C     3.699513757100000e+00   3.282548732969906e+00   3.482190900000000e+00 -1.04711801e+00  -2.76352820e-01   5.95066550e-01
C     3.704933108900000e+00   2.387775028186548e+00  -9.274110000000135e-02  7.72018670e-01   1.78070598e+00  -3.50044320e-01
C     4.955588770599999e+00   3.130575437781792e+00  -1.252598999999996e-01  3.26970900e-02  -1.80121846e+00   1.22860880e-01
C     4.922284845800000e+00   2.570525308067517e+00   3.522430800000000e+00 -2.56354320e-01  -5.91297440e-01  -3.04785900e-02
C     6.135015792300000e+00   3.301583895131922e+00   3.583211400000000e+00 -3.09351530e-01  -6.30997020e-01  -5.92450280e-01
C     6.225563031699999e+00   2.417224367529972e+00  -1.313169000000016e-01 -2.14443105e+00  -1.78669600e-01   3.10692570e-01
C     7.424498359200000e+00   3.110596544181527e+00  -1.499516999999990e-01  2.82963490e-01   1.78695031e+00   2.05200200e-01
C     7.342959265100000e+00   2.616910152286030e+00   3.553464900000000e+00  2.40040590e+00  -1.94886234e+00   4.08711760e-01
C     8.637925717500000e+00   3.290707415923127e+00   3.586204200000000e+00 -1.56678292e+00  -4.73653390e-01  -6.57352120e-01
C     8.646346206799999e+00   2.403190418415987e+00  -1.369244999999992e-01 -1.50757210e-01  -1.71888610e-01  -1.96085870e-01
C     9.872437502599999e+00   3.096769324511262e+00  -1.511861999999979e-01  5.54181800e-02   9.55042100e-01   2.04609660e-01
C     9.854620827699998e+00   2.571888219530230e+00   3.520606200000000e+00 -3.59801630e-01  -3.20785320e-01   3.33828510e-01
C     1.106473133130000e+01   3.286511858513884e+00   3.537837000000000e+00  1.32972865e+00   1.72880180e-01  -5.87542910e-01
C     1.233019735390000e+01   4.571278396038755e+00  -1.348818000000023e-01  3.91104360e-01  -1.93286658e+00   5.84886100e-02
C     3.696393609399999e+00   5.255704592970832e+00  -1.138286999999991e-01  9.35810370e-01   7.99052750e-01  -4.54197270e-01
C     3.689966269800000e+00   4.707435394455394e+00   3.572170200000000e+00  8.21907100e-02  -1.07089860e-01  -9.26433820e-01
C     4.925911501700000e+00   5.415881827867712e+00   3.533349000000000e+00 -8.20777700e-01  -7.59056990e-01   2.20486400e-02
C     4.944958852499999e+00   4.517792254534759e+00  -1.390989000000005e-01 -1.02229136e+00   1.43459944e+00   3.00640180e-01
C     6.161968841799999e+00   5.243081886118877e+00  -1.123706999999996e-01  2.30119500e-02   7.23110590e-01  -5.27326730e-01
C     6.141052182899999e+00   4.695622954307886e+00   3.534926700000000e+00  2.18496600e-02   1.03899974e+00   5.27022660e-01
C     7.361925073699999e+00   5.402569339749181e+00   3.575517300000000e+00  1.46669694e+00  -5.94441170e-01  -6.43346310e-01
C     7.386268969999999e+00   4.572871006883378e+00  -1.271051999999990e-01  6.94919810e-01  -2.08310524e+00   9.52435900e-02
C     8.617963999599999e+00   5.245960215771476e+00  -9.760110000000211e-02  1.15121423e+00   5.38183410e-01  -1.83394150e-01
C     8.627575675499999e+00   4.693977486988389e+00   3.539545500000000e+00 -3.33489140e-01   9.23610140e-01   5.73253880e-01
C     9.858191626699998e+00   5.430071443142746e+00   3.540915600000000e+00 -4.61380160e-01  -3.39207280e-01  -2.73764500e-01
C     9.856455280699999e+00   4.516977803715177e+00  -1.426175999999977e-01  4.96708530e-01   1.04120242e+00   3.91506280e-01
C     1.110774602500000e+01   5.262586181516664e+00  -1.037387999999986e-01 -1.03310465e+00  -4.30984960e-01  -1.98338240e-01
C     1.109447155630000e+01   4.717605270546970e+00   3.515875500000000e+00 -2.85268240e-01  -5.88722300e-02   2.43330320e-01
C     1.232809485680000e+01   5.435034572204037e+00   3.510035700000000e+00 -3.45879840e-01  -8.86057790e-01   2.23697200e-01
C     1.357938545320000e+01   6.713993728701459e+00  -1.587081000000019e-01 -1.09512707e+00  -2.18979931e+00   4.21679740e-01
C     4.935527861100000e+00   7.379410038942542e+00  -1.387022999999985e-01  8.80210240e-01   6.65487340e-01  -4.92708530e-01
C     4.889290771500000e+00   6.810662756274177e+00   3.498456300000000e+00  1.93163696e+00   1.48932555e+00   3.18698690e-01
C     6.157033172300000e+00   7.531699192128311e+00   3.511188900000000e+00 -9.26265740e-01   5.72251650e-01  -1.66951380e-01
C     6.167906878900000e+00   6.663780504524343e+00  -1.717481999999997e-01  3.58942260e-01   8.86146110e-01   7.65361250e-01
C     7.401139427600000e+00   7.419671558745847e+00  -1.149021000000019e-01  8.10754720e-01  -2.09612515e+00  -4.36266300e-02
C     7.385246734499999e+00   6.807442183081540e+00   3.521197500000000e+00 -6.56623980e-01   1.36408481e+00  -8.87146900e-02
C     8.591496703000001e+00   7.568872834961838e+00   3.470422500000000e+00  8.18878180e-01  -6.97605400e-01   6.69869820e-01
C     8.671368618999999e+00   6.673642293117799e+00  -7.419660000000050e-02 -1.62084003e+00   4.90429480e-01  -3.29595640e-01
C     9.893564278099999e+00   7.380586373026266e+00  -1.060611000000016e-01 -3.64326080e-01   1.34314702e+00   2.49294950e-01
C     9.832500903700000e+00   6.845813251354677e+00   3.522797700000000e+00  8.04804220e-01   6.35710310e-01  -2.77697090e-01
C     1.111078334870000e+01   7.543190650871876e+00   3.516867300000000e+00 -2.31573536e+00   2.64459120e-01   3.97427400e-02
C     1.112683113960000e+01   6.683195567262615e+00  -8.568570000000264e-02 -4.82276740e-01  -6.09220400e-02  -3.63302840e-01
C     1.233961976710000e+01   7.406946981498865e+00  -1.451039999999999e-01  4.11126020e-01  -2.40527830e-01   1.51747750e-01
C     1.231118653440000e+01   6.851103253737143e+00   3.499887300000000e+00  7.80477620e-01  -6.79210740e-01   2.34723230e-01
C     1.354367351920000e+01   7.539339813315710e+00   3.527016000000000e+00  5.25632800e-02   9.02340450e-01   1.40368400e-01
