76
Lattice="10.7446858958278 0 0 5.37234294791388 9.3051709414712 0 0 0 30 " PBC="1 1 1" Properties=species:S:1:pos:R:3:force:R:3 Energy="-610.92238091"
C     1.511678992254015e-01   3.912731328560600e-03  -9.960179999999852e-02 -2.76674651e+00   2.00955412e+00   6.22470130e-01
C     1.250966672564244e+01   8.533308406302641e+00  -2.816672999999987e-01  1.28923518e+00  -4.76604940e-01   4.76351450e-01
C     1.394318016946428e+01   8.330100780590989e+00  -2.694989999999997e-01 -8.30396400e-02   4.82289900e-02  -6.61069600e-02
C     1.450373682595539e+01   7.011519441933589e+00  -1.484595000000013e-01 -9.37057290e-01   1.65384840e+00   7.38810400e-02
C     8.339685287441554e+00   9.027886430314068e+00   3.220500000000000e-02  2.94646030e-01  -1.91342807e+00  -4.69195260e-01
C     9.767872160675324e+00   8.821396126398204e+00  -8.696880000000107e-02 -1.62523601e+00   1.45410857e+00   4.45986940e-01
C     1.028431215760619e+01   7.525811866357047e+00  -5.036310000000199e-02 -8.36387140e-01  -8.84571770e-01  -1.94311980e-01
C     1.167823379771743e+01   7.409537986255764e+00  -3.423809999999960e-02  4.92115780e-01  -1.43956348e+00  -6.10826960e-01
C     1.221862966282007e+01   6.070434279193612e+00   8.624340000000000e-02 -5.53100880e-01   8.29747030e-01   7.43181100e-02
C     1.361290179458537e+01   5.939294830205422e+00   3.623310000000000e-02  1.55167903e+00  -2.01761046e+00  -1.32206190e-01
C     6.012305360293297e+00   8.037638792688242e+00  -7.989930000000101e-02  2.87501090e+00  -2.15626668e+00  -3.65123550e-01
C     7.501252196652688e+00   7.848409487814368e+00  -5.664030000000153e-02 -2.62493578e+00   2.13892792e+00  -7.02219500e-02
C     7.980797628374435e+00   6.562614267602092e+00  -1.736439000000018e-01  1.79819761e+00  -1.04732179e+00   9.26281190e-01
C     9.408801412160468e+00   6.358511670549430e+00  -5.959530000000157e-02 -4.33341380e-01   1.38098422e+00  -1.91095560e-01
C     9.935845339606050e+00   5.068456543080821e+00   2.072130000000000e-02  1.80906672e+00  -1.41697700e-01   1.14660233e+00
C     1.135539171250305e+01   4.925923005328312e+00   1.979562000000000e-01  3.17772090e-01   2.99054220e-01  -1.89569203e+00
C     1.193956400668691e+01   3.625800706471427e+00   5.035830000000000e-02 -1.41702776e+00   1.43502820e-01   1.58213942e+00
C     5.162606358891423e+00   6.878535894168510e+00  -1.539788999999985e-01  5.53258750e-01   4.24609770e-01  -9.87348100e-02
C     5.728914377127657e+00   5.581454618226527e+00  -1.525073999999975e-01 -3.16587630e-01   6.28409200e-02   9.08052480e-01
C     7.129656528954492e+00   5.423087866861060e+00  -1.167863999999987e-01  8.03076240e-01  -7.83827540e-01   1.88173120e-01
C     7.724622880870064e+00   4.119056558743989e+00   4.669950000000000e-02 -6.51987990e-01  -1.02259067e+00  -4.84633270e-01
C     9.146040763157123e+00   3.897597305492075e+00   8.574630000000000e-02 -2.06146814e+00   2.19253547e+00  -7.30286260e-01
C     9.687093128568259e+00   2.633341601920000e+00   2.477970000000000e-02  9.10962050e-01  -1.78668468e+00  -4.61699420e-01
C     1.110493335279120e+01   2.450935034482753e+00   6.290730000000000e-02  1.37448000e-02   1.28686467e+00   1.85669140e-01
C     3.484442434150691e+00   4.623345645251820e+00   1.151352000000000e-01 -2.96101623e+00   1.01979010e-01  -3.77018390e-01
C     4.854314404982244e+00   4.476332970415631e+00   2.848350000000000e-02  1.75293101e+00  -1.44347047e+00   2.07317200e-01
C     5.450894823613713e+00   3.146835270469969e+00   1.014705000000000e-01  1.43121710e-01  -2.14320470e-01  -1.55320605e+00
C     6.861716242942762e+00   2.948190900587293e+00   2.854950000000000e-02  9.00095090e-01   1.23143462e+00  -3.19188270e-01
C     7.466141356749822e+00   1.658034718962276e+00  -2.029578000000001e-01 -7.58275940e-01   9.92945630e-01   1.59855160e-01
C     8.865391232875437e+00   1.499031028645966e+00  -2.009766000000006e-01  6.04708450e-01  -1.54256227e+00   3.47407610e-01
C     9.446963527965217e+00   1.337407095244662e-01  -2.733813000000005e-01  1.28253550e-01   2.29674332e+00   5.77001240e-01
C     2.563092924612103e+00   3.482305200147140e+00   1.255719000000000e-01  3.34522004e+00  -5.98174460e-01  -5.07059300e-01
C     3.163270449189175e+00   2.164431891946563e+00   4.451760000000000e-02  2.32483140e+00   3.65205990e-01   1.96573740e-01
C     4.647302988558484e+00   1.997960057537228e+00  -7.686720000000236e-02 -2.11297611e+00  -2.03601870e-01   1.44237035e+00
C     5.237628549463557e+00   6.702970581458060e-01  -1.176005999999994e-01 -1.77711157e+00   1.18162581e+00  -7.39448300e-01
C     6.607012765278679e+00   5.498738162189584e-01  -3.317601000000003e-01  6.60167570e-01  -1.24535190e+00   1.11887054e+00
C     9.345303380726949e-01   1.189783349832844e+00   1.587834000000000e-01  1.32227517e+00  -2.14449902e+00  -1.59337716e+00
C     2.397520914362880e+00   9.991926984504478e-01   1.323117000000000e-01 -2.09368888e+00   9.03056020e-01  -3.52553450e-01
C     1.602621868658355e+01   9.281589124441886e+00   3.342413400000000e+00  1.28791229e+00   3.84034750e-01   3.07992630e-01
C     1.181094828986731e+01   8.833572500883450e+00   3.456562200000000e+00 -1.97992786e+00  -2.21113044e+00   3.85578200e-02
C     1.319555262187692e+01   8.964259067201990e+00   3.388256100000000e+00  1.20851426e+00  -7.27691560e-01   7.78343100e-01
C     1.406640162417465e+01   7.844383326452049e+00   3.466630200000000e+00 -1.30877880e-01  -2.38015474e+00  -3.64543570e-01
C     7.604681778764967e+00   8.290621080481886e+00   3.414837600000000e+00 -1.43662492e+00   3.85951290e-01  -8.96279460e-01
C     9.002385440866142e+00   8.464935219907742e+00   3.380085300000000e+00 -8.57986850e-01  -1.37821013e+00   1.02603942e+00
C     9.793727850484506e+00   7.275422929704381e+00   3.487363500000000e+00  1.62856201e+00   1.59214295e+00  -7.35630900e-01
C     1.121625743169821e+01   7.479092091894657e+00   3.463023300000000e+00  5.40533900e-01   5.43012850e-01   1.85465620e-01
C     1.206952952467270e+01   6.337753788268189e+00   3.465204000000000e+00 -5.49541900e-02   4.88559900e-02  -2.33328850e-01
C     1.349537480850828e+01   6.468169108853826e+00   3.431790600000000e+00 -1.24224068e+00   3.87967639e+00   5.07832550e-01
C     4.761265962322538e+00   7.983066849728133e+00   3.485142000000000e+00 -2.51034901e+00   9.03841760e-01  -6.28944420e-01
C     5.582027966616257e+00   6.874823317066869e+00   3.506408100000000e+00  1.25465475e+00  -2.47277345e+00   1.52718740e-01
C     7.030266142889172e+00   6.995275032816792e+00   3.435795600000000e+00 -8.56885310e-01  -9.10668030e-01   1.01486700e+00
C     7.839156934689704e+00   5.799424339324231e+00   3.563002500000000e+00 -2.22387980e-01   1.54022688e+00  -8.28105300e-01
C     9.263202644807325e+00   5.977622177945316e+00   3.469644600000000e+00 -1.15519986e+00  -7.55017000e-01   1.21283765e+00
C     1.009843430270886e+01   4.826219215326725e+00   3.536133600000000e+00 -7.24997000e-02   6.05281900e-01  -1.35784894e+00
C     1.150381488171529e+01   5.024743455452565e+00   3.457396200000000e+00  1.77273600e-02   3.49083440e-01   1.16189830e-01
C     1.235888842872778e+01   3.911306892993105e+00   3.358683000000000e+00 -1.74107370e-01  -8.22130220e-01   1.93043620e-01
C     3.557094884247580e+00   5.373285475369666e+00   3.471230100000000e+00  2.69153492e+00  -1.00365845e+00  -4.57675700e-02
C     4.992772522703394e+00   5.540541084327278e+00   3.570321600000000e+00 -5.00117110e-01   1.17913866e+00  -4.22754690e-01
C     5.800972968434852e+00   4.399126571350810e+00   3.598870500000000e+00  1.02561483e+00  -4.53665480e-01  -3.95102960e-01
C     7.224224270200457e+00   4.517385430517014e+00   3.603140400000000e+00  1.46949410e-01   1.44525156e+00  -2.85954570e-01
C     8.066250706294859e+00   3.427181181395161e+00   3.456394800000000e+00  1.51286399e+00  -2.71392693e+00  -7.82035820e-01
C     9.503304416673886e+00   3.544578009525483e+00   3.350643000000000e+00 -6.64447960e-01   1.30893078e+00   9.36935000e-01
C     1.035848594777966e+01   2.437505439575308e+00   3.253503600000000e+00 -4.94421700e-02  -7.37473650e-01   7.68468430e-01
C     1.175644452755382e+01   2.606693267278610e+00   3.332690400000000e+00  1.62251572e+00  -4.98142540e-01  -3.89099660e-01
C     3.031186938718777e+00   4.077100566544333e+00   3.363447300000000e+00 -7.86587050e-01  -1.65615853e+00   7.81756360e-01
C     3.843461447002937e+00   2.892339217467807e+00   3.448773300000000e+00  1.38904145e+00   1.09512632e+00  -4.04426160e-01
C     5.284435678373157e+00   3.085704205565964e+00   3.496848900000000e+00 -1.71892390e+00   1.28501370e-01   9.30354230e-01
C     6.132286701247089e+00   1.971950988139415e+00   3.586044600000000e+00  2.82908640e-01  -1.83277923e+00  -1.68410525e+00
C     7.538357894939749e+00   2.076299919474251e+00   3.346575000000000e+00 -6.38558000e-02   1.33896644e+00   2.03060234e+00
C     8.393504344646065e+00   9.318820695251886e-01   3.400259100000000e+00  7.00707970e-01   1.87150718e+00  -9.99634650e-01
C     9.822829885968087e+00   1.127509796040826e+00   3.320000100000000e+00 -9.51951740e-01  -7.74435550e-01  -1.48022930e-01
C     1.873844425201788e+00   1.440770981183789e+00   3.345938700000000e+00  1.86336320e-01   2.66010900e-02  -1.28667870e-01
C     3.308749090953956e+00   1.586837599290507e+00   3.406589400000000e+00 -1.24238313e+00   3.87672140e-01   2.20103430e-01
C     4.150667596678494e+00   4.486742199887662e-01   3.466339200000000e+00  1.43042976e+00   7.81552980e-01  -1.68755120e-01
C     5.576415856000398e+00   6.386569645536522e-01   3.540628500000000e+00 -4.54475680e-01   7.71726240e-01  -2.46370600e-01
C     1.333893336371973e+00   1.145473986850752e-01   3.322108800000000e+00  2.72358570e-01   7.03124980e-01   4.63551920e-01
