64
Lattice="9.86 0 0 4.93 8.53901048131456 0 0 0 30 " PBC="1 1 1" Properties=species:S:1:pos:R:3:force:R:3 Energy="-511.0992125"
C     4.987663498499999e+00   8.415091762183506e+00  -4.342548000000015e-01  2.74405976e+00  -9.39940660e-01  -3.51328210e-01
C     1.311474508100000e+00   5.984035222357192e-01  -5.462930999999998e-01  7.30260800e-01  -4.93579750e-01   1.34372905e+00
C     1.095975284800000e+00   7.697847927834064e-01   3.613849500000000e+00  1.54453030e-01   2.94491665e+00   7.85040520e-01
C     2.344410770300000e+00   1.482190423794881e+00   3.853872300000000e+00  4.20737480e-01   1.95095581e+00  -4.45901540e-01
C     7.470284896099999e+00   8.384999606131148e+00  -5.718125999999977e-01  1.10016979e+00   1.65404204e+00   1.12277500e-02
C     3.817002361899999e+00   5.923712236722279e-01  -3.884334000000003e-01 -6.26215900e-01  -3.91449710e-01  -8.03042450e-01
C     3.620809412999999e+00   8.158780297940272e-01   3.638607600000000e+00 -2.77641847e+00  -1.26686750e-01  -1.80018210e-01
C     4.823293354500000e+00   1.544296867158646e+00   3.690685200000000e+00  4.92216700e-02   1.26435968e+00  -2.33357620e-01
C     1.001809489490000e+01   8.413761725911142e+00  -5.245022999999982e-01 -2.88967185e+00   7.81027700e-02   1.52691267e+00
C     6.254669455900000e+00   6.035252207216232e-01  -4.524660000000011e-01  2.26620859e+00  -4.38149670e-01  -2.79950610e-01
C     6.048738425900000e+00   8.591449397258728e-01   3.531287400000000e+00  8.52504920e-01   2.90940210e-01  -5.38778720e-01
C     7.311616839399999e+00   1.585033155944638e+00   3.433500300000000e+00 -3.01011044e+00  -5.33674400e-02   7.00526400e-01
C     1.245248615180000e+01   8.443835693871177e+00  -3.312875999999996e-01 -1.37644413e+00  -9.30931460e-01  -1.31981380e-01
C     8.740175297900000e+00   5.739247408927032e-01  -4.507146000000013e-01 -7.91820330e-01   8.21406420e-01   5.62021560e-01
C     8.446672135600000e+00   8.161195130104015e-01   3.531672600000000e+00  3.72274119e+00   2.81073610e-01  -4.22445410e-01
C     9.708762192799998e+00   1.520995700750926e+00   3.617589600000000e+00  1.21379921e+00   1.08739218e+00   9.95610290e-01
C     1.359149629400000e+00   2.005382170942550e+00  -2.207624999999993e-01  1.65728700e-01  -3.30453740e-01   9.95989480e-01
C     2.584528343000000e+00   2.704011218615908e+00   8.679900000000000e-02 -1.44675900e-01   7.71109730e-01  -2.30225700e-01
C     2.353264606600000e+00   3.001550647868573e+00   4.131063600000000e+00 -3.57996700e-01  -3.60670843e+00  -9.95787590e-01
C     3.558987015800000e+00   3.670795935798992e+00   4.039806600000000e+00  2.47853708e+00   2.52418100e-01   4.45463030e-01
C     3.814399568400000e+00   2.011800432779737e+00  -9.626099999999838e-02  1.26441178e+00  -3.20411740e-01  -9.77416410e-01
C     5.092443105599999e+00   2.750187967149023e+00  -2.259465000000027e-01 -1.77311268e+00  -3.58866200e-02   9.18469270e-01
C     4.807975055700000e+00   3.011938781068017e+00   3.797031600000000e+00 -1.07919117e+00  -2.67498079e+00  -3.61262510e-01
C     5.986490569699999e+00   3.704269454611326e+00   3.522814800000000e+00  2.40116744e+00  -1.03733574e+00   4.61118420e-01
C     6.268054504500000e+00   2.008733988726265e+00  -5.170707000000014e-01  1.21189672e+00   1.55452972e+00   6.94001230e-01
C     7.558171168000000e+00   2.714235488204240e+00  -5.383662000000022e-01 -1.07740067e+00   3.54173570e-01   1.19192164e+00
C     7.298436484399999e+00   3.020789721600851e+00   3.442743900000000e+00 -1.51960802e+00  -2.00706249e+00   2.01273450e-01
C     8.517972901499999e+00   3.670933157697406e+00   3.592354200000000e+00  1.19590933e+00   5.13018810e-01   7.44214830e-01
C     8.778758562499998e+00   1.979313852798682e+00  -4.199112000000014e-01 -5.44348820e-01   1.89949702e+00   2.12643870e-01
C     9.983131088399999e+00   2.690563472571375e+00  -8.689439999999848e-02 -2.51862600e-02   1.15265658e+00  -1.61651098e+00
C     9.772565956999999e+00   2.975133169586178e+00   3.844104300000000e+00 -6.72846050e-01  -6.95474190e-01  -1.01797609e+00
C     1.102511636560000e+01   3.744134251987730e+00   4.095586500000000e+00 -2.79207607e+00  -3.16587635e+00  -7.46599330e-01
C     2.593743301800000e+00   4.155171646837411e+00   3.507402000000000e-01 -8.14730770e-01  -6.91168330e-01  -1.17017186e+00
C     3.817390895200000e+00   4.880699772984236e+00   1.874682000000000e-01  1.00487600e+00  -1.89874667e+00  -6.75096300e-02
C     3.633994155700000e+00   5.080050913919582e+00   4.103888100000000e+00 -1.62922902e+00   1.96648519e+00  -1.69511195e+00
C     4.753823442700000e+00   5.805708491465283e+00   3.646970100000000e+00  3.03794351e+00  -1.46515734e+00   2.14106980e-01
C     5.094742802700000e+00   4.198516261764625e+00  -2.748149999999683e-02 -1.93162935e+00  -2.78166983e+00  -7.48633010e-01
C     6.278241610000000e+00   4.830515154492227e+00  -3.745872000000006e-01  1.95384950e-01   8.90620750e-01   5.75674400e-02
C     6.007969544400000e+00   5.075564432423285e+00   3.494927700000000e+00  7.30652730e-01   2.61723246e+00  -5.05765620e-01
C     7.317224418600000e+00   5.788572149063704e+00   3.340488000000000e+00 -3.12401500e+00   5.12504790e-01   8.30139460e-01
C     7.527164425999999e+00   4.163836009991257e+00  -4.148363999999987e-01  9.09436540e-01  -1.56229984e+00  -9.36984230e-01
C     8.751008184099998e+00   4.899287917947624e+00  -3.883431000000002e-01  1.24321992e+00  -1.31391075e+00   1.23211444e+00
C     8.489590842199998e+00   5.088710409837454e+00   3.596576400000000e+00  2.08520426e+00   4.46598260e-01  -5.75404090e-01
C     9.742567843700000e+00   5.804275645506738e+00   3.728385300000000e+00 -3.25104410e-01   8.99156210e-01   2.13353780e-01
C     1.001241795060000e+01   4.150087861558038e+00  -4.244400000000326e-02 -2.04956720e+00   5.18731880e-01  -1.33639960e-01
C     1.119424292430000e+01   4.895923035477874e+00   2.614041000000000e-01  6.71685410e-01  -2.26698460e-01  -7.56950690e-01
C     1.097323945460000e+01   5.110744472480047e+00   3.999515700000000e+00  1.19195020e+00   2.66542388e+00   3.78459900e-01
C     1.227814902680000e+01   5.851024080791490e+00   4.066344900000000e+00 -2.77733181e+00  -1.78109497e+00  -1.05108192e+00
C     3.794857048400000e+00   6.240764158822794e+00  -1.569149999999908e-02  5.48389080e-01   3.83572405e+00  -7.64165800e-02
C     5.021625824800000e+00   6.998141598598551e+00  -2.878356000000011e-01  1.85600920e-01  -2.17711110e+00  -1.15917168e+00
C     4.826866026899999e+00   7.193394014503497e+00   3.450810300000000e+00 -1.28538886e+00   1.49894111e+00   1.31871040e+00
C     6.026756246100000e+00   7.946730111399279e+00   3.453671100000000e+00  1.39790024e+00  -2.57885370e+00  -1.15695157e+00
C     6.224504067700000e+00   6.202282681144150e+00  -5.842418999999985e-01  1.37374255e+00   3.89175099e+00   1.11542363e+00
C     7.512280065800000e+00   6.973817373345222e+00  -7.105092000000006e-01 -1.89698811e+00  -2.70435440e-01   9.42639140e-01
C     7.284762389899999e+00   7.235319360498830e+00   3.317641500000000e+00 -1.77460135e+00  -1.26836400e+00   2.33345270e-01
C     8.474917042300000e+00   7.909647750587783e+00   3.340143300000000e+00  2.08840465e+00   2.63591142e+00   2.10743506e+00
C     8.748436548200001e+00   6.324953507969096e+00  -4.883132999999980e-01 -1.40588100e-01  -1.69695400e+00  -1.13662900e-02
C     9.968359132200000e+00   6.994183425680651e+00  -3.240491999999975e-01  1.44827595e+00   9.70252690e-01   2.78600080e-01
C     9.693553241400000e+00   7.261259935045917e+00   3.621377700000000e+00  2.19247009e+00  -1.57913033e+00  -1.37142096e+00
C     1.096720636710000e+01   7.985939539721343e+00   3.543908700000000e+00  4.70038400e-02  -2.16816737e+00   9.99147250e-01
C     1.119071353730000e+01   6.352690861101385e+00   9.877350000000000e-02 -2.90869390e-01  -1.27099856e+00  -1.21205846e+00
C     1.244712645300000e+01   7.038471515875799e+00  -4.586100000000215e-02 -6.05192710e-01  -6.37129980e-01   2.05640040e-01
C     1.221446673780000e+01   7.183603782817863e+00   3.664144200000000e+00  7.18370140e-01   2.94578472e+00   5.78688490e-01
C     1.348648384300000e+01   7.930664219351474e+00   3.578622600000000e+00 -2.85662129e+00  -5.51950320e-01  -5.87131920e-01
