64
Lattice="9.86 0 0 4.93 8.53901048131456 0 0 0 30 " PBC="1 1 1" Properties=species:S:1:pos:R:3:force:R:3 Energy="-510.11307224"
C     5.006449855100000e+00   8.376490823748247e+00  -8.934021000000030e-01 -1.46565132e+00  -9.97347190e-01   5.61420380e-01
C     1.289482764100000e+00   5.763199333323432e-01  -9.493269000000026e-01  2.73261590e-01  -2.31405847e+00   8.20296670e-01
C     9.810212373700001e+00   1.883269368452472e-01   4.090027200000000e+00  5.77315880e-01  -2.45867421e+00  -4.53125600e-01
C     1.187080353700000e+00   8.411539277653511e-01   4.095884100000000e+00  2.16319540e-01   1.31190327e+00   6.85723600e-01
C     7.461972127299999e+00   8.337792711373725e+00  -9.345026999999995e-01 -1.45109411e+00   1.95053312e+00   7.91292310e-01
C     3.726917605800000e+00   4.881830850312416e-01  -6.395916000000028e-01  1.04787048e+00   9.69971420e-01  -1.15368842e+00
C     2.444151128600000e+00   1.973556595762752e-01   4.062469500000000e+00 -3.07755700e+00  -3.88094769e+00  -7.04980540e-01
C     3.597856565500000e+00   8.907413278643880e-01   4.053613800000000e+00  2.30420309e+00   1.80965694e+00   3.75564000e-03
C     9.907713180900000e+00   8.337907646454786e+00  -6.671903999999991e-01 -9.14261620e-01   1.39260830e+00   4.21399000e-03
C     6.168760459100000e+00   5.186819541527624e-01  -7.745388000000020e-01  1.66913473e+00   1.02894763e+00   1.39886062e+00
C     4.801697292300000e+00   1.795257787435112e-01   3.973206600000000e+00  4.53320360e+00  -5.03203940e-01  -7.07286470e-01
C     6.147576150499999e+00   8.056125167850759e-01   3.989351100000000e+00 -9.09636620e-01   3.12832357e+00  -8.68231200e-02
C     1.236319902040000e+01   8.251472793722559e+00  -5.933726999999998e-01  7.30637720e-01   8.81901016e+00  -2.40387156e+00
C     8.703527354099998e+00   5.376556354393224e-01  -8.193842999999994e-01 -1.52727665e+00  -6.71402530e-01   2.88392180e-01
C     7.408598073899999e+00   1.977982364894536e-01   4.095442500000000e+00 -1.51480437e+00  -2.36599936e+00  -8.86660950e-01
C     8.623503199700000e+00   9.405241005232071e-01   4.119715800000000e+00 -1.05940978e+00  -1.63276552e+00   2.55017670e-01
C     1.251967830500000e+00   1.948779034443041e+00  -6.428031000000018e-01  8.80602360e-01   2.66816710e-01  -9.19262910e-01
C     2.476759824800000e+00   2.607259618811848e+00  -5.351487000000006e-01  9.73171220e-01   2.98955604e+00   2.58274131e+00
C     1.102861454570000e+01   2.246335200156247e+00   4.240501200000001e+00  6.69130580e-01   2.18852167e+00  -8.91879800e-02
C     2.410636594200000e+00   3.012515420445731e+00   4.271858400000000e+00 -2.93797880e-01   9.39021540e-01  -4.97076680e-01
C     3.742918118000000e+00   1.918747249194776e+00  -5.088980999999997e-01 -2.06658623e+00   1.02547414e+00  -7.33258880e-01
C     4.886708191000000e+00   2.759567728600883e+00  -5.819024999999982e-01  3.10635564e+00  -3.27813127e+00  -6.62495690e-01
C     3.624889333100000e+00   2.329552980690135e+00   4.101695700000000e+00  2.12805537e+00  -9.40960570e-01  -2.53119080e-01
C     4.971200305799999e+00   2.964751952985222e+00   3.930918000000000e+00 -2.55018742e+00  -1.46661281e+00   2.13739770e-01
C     6.146580684900000e+00   2.040268042088276e+00  -8.059601999999977e-01  2.83160020e-01  -2.25836766e+00   1.84117700e-01
C     7.409779301900000e+00   2.720033732490474e+00  -9.164330999999990e-01  3.73004160e-01  -2.13960278e+00   7.95771400e-01
C     6.232138764300000e+00   2.275610172905670e+00   3.899687699999999e+00 -3.32342951e+00  -1.49771971e+00   1.40128424e+00
C     7.355236444099999e+00   3.036623181783391e+00   4.140694500000000e+00  1.37601885e+00   1.45932751e+00  -1.24890924e+00
C     8.666308121900000e+00   1.976268500101095e+00  -8.707982999999970e-01  3.33197230e-01   5.62030540e-01   4.74000750e-01
C     9.937193989299999e+00   2.718570487654622e+00  -6.508934999999987e-01 -2.13793986e+00  -1.04498044e+00  -3.58902400e-01
C     8.598408464400000e+00   2.334315784565565e+00   4.176330300000000e+00 -6.07407480e-01   4.17835160e-01   2.00069440e-01
C     9.806675936800001e+00   3.012149096896139e+00   4.224657900000000e+00  1.27865946e+00   4.43303300e-01  -4.83034540e-01
C     2.485047943600000e+00   4.116662929715336e+00  -1.317354000000002e-01  7.52726910e-01  -2.29408234e+00  -1.62710750e+00
C     3.714902850700000e+00   4.774292687079916e+00  -2.496393000000019e-01  1.48806248e+00   2.16647775e+00  -7.87976200e-01
C     1.228524812820000e+01   4.482815015976898e+00   4.260939900000000e+00 -5.00746650e-01  -9.34177260e-01  -1.14339277e+00
C     3.669799118800000e+00   5.152100608036783e+00   4.026550500000000e+00 -5.04026920e-01  -2.57125001e+00   2.25822090e-01
C     4.960136251900000e+00   4.147519924936388e+00  -5.602610999999982e-01 -1.57783610e-01  -5.12546980e-01   5.32227100e-01
C     6.233925494899999e+00   4.801763879255543e+00  -7.618226999999997e-01 -1.67602026e+00   1.59230427e+00   2.61145570e-01
C     4.925285835400000e+00   4.322760999001244e+00   3.883262400000000e+00 -2.34859651e+00   4.21405515e+00   8.45555520e-01
C     6.072076158500000e+00   5.117835010612324e+00   3.914577900000000e+00  1.79379297e+00   7.11113910e-01  -6.26391670e-01
C     7.462113569000000e+00   4.105664001096258e+00  -8.445849000000010e-01  2.46179010e-01   5.01495070e-01  -2.33358400e-02
C     8.731097787500000e+00   4.779288862111764e+00  -7.290329999999976e-01 -1.54698525e+00   2.50903712e+00   6.17117400e-02
C     7.308224654300000e+00   4.519970897668626e+00   4.047065700000000e+00  2.76593571e+00  -3.06350768e+00   1.17966800e-02
C     8.622553928200000e+00   5.182584192329545e+00   4.004924700000000e+00 -2.44353812e+00  -5.17304810e-01  -1.80692520e-01
C     9.945173588699999e+00   4.132427053132778e+00  -4.915532999999996e-01  1.06298131e+00   2.03418810e-01   5.59558350e-01
C     1.119348138720000e+01   4.930540440134108e+00  -1.311998999999986e-01 -3.78704807e+00  -4.10581357e+00  -1.25756939e+00
C     9.794025753999998e+00   4.436932692525133e+00   4.060402499999999e+00  1.56277673e+00   1.11211600e-01   1.25179319e+00
C     1.101530630650000e+01   5.207967681832916e+00   4.141583700000000e+00  1.29476600e+00  -3.75808863e+00  -3.87725710e-01
C     3.733990726100000e+00   6.204153407560107e+00  -3.940397999999981e-01  7.79209000e-03   4.67750190e-01   2.44274880e-01
C     4.936699574199999e+00   6.899977646461099e+00  -7.173560999999999e-01  1.54080850e-01   2.05311966e+00  -1.61686270e-01
C     1.348494144320000e+01   6.561362673536070e+00   4.003413600000000e+00  2.24174893e+00   3.47431600e-02   4.95093400e-02
C     4.885388183500000e+00   7.252483796244888e+00   4.001849699999999e+00  1.24715470e-01   1.55542569e+00  -6.94006470e-01
C     6.159567685299999e+00   6.253528357078403e+00  -8.176593000000025e-01  1.77701802e+00  -2.13611684e+00  -4.25774680e-01
C     7.406286742000000e+00   6.937905198529905e+00  -9.674642999999996e-01  8.51205340e-01  -5.12328970e-01   7.11714710e-01
C     6.135572832999999e+00   6.529361877861223e+00   3.836670600000000e+00 -1.44111513e+00   1.95044561e+00   1.35647500e+00
C     7.367041476999999e+00   7.259485870228592e+00   3.920827800000000e+00  9.47298260e-01   1.00634678e+00   1.12002170e-01
C     8.664474654899999e+00   6.249714151877195e+00  -7.769139000000003e-01 -6.01821020e-01  -1.85457176e+00   2.11275770e-01
C     9.871916500199999e+00   6.943414055750972e+00  -5.706150000000001e-01 -3.14278650e-01  -1.45116430e-01   3.63680880e-01
C     8.666578187300001e+00   6.592646448500913e+00   3.911990100000000e+00 -3.06612078e+00  -4.94790530e-01  -2.48726180e-01
C     9.849130434599999e+00   7.304266319768018e+00   3.844047600000001e+00 -6.37496640e-01   4.25462490e-01   8.76335910e-01
C     1.104006087180000e+01   6.296256455448960e+00  -1.838450999999992e-01  4.22116727e+00   3.55817480e-01  -1.01852642e+00
C     1.239944043640000e+01   6.975366520626504e+00  -3.409656000000005e-01 -2.56130790e+00  -4.61191074e+00   1.17795624e+00
C     1.105901381310000e+01   6.545102092049320e+00   3.924160200000000e+00  1.52830900e-01   3.81181679e+00   3.54732140e-01
C     1.228678362600000e+01   7.279945168558462e+00   4.004514300000000e+00  3.41951790e-01   5.64266920e-01   3.09797850e-01
