64
Lattice="9.86 0 0 4.93 8.53901048131456 0 0 0 30 " PBC="1 1 1" Properties=species:S:1:pos:R:3:force:R:3 Energy="-515.86622646"
C     4.992218769200000e+00   6.835803396319498e+00  -8.240009999999742e-02  7.09870940e-01  -1.47325430e-01   2.44987000e-02
C     6.248609499900000e+00   7.544105520454703e+00  -1.125572999999989e-01 -9.00240400e-01  -3.36968280e-01  -6.67483000e-03
C     9.789177000399999e+00   1.703585532624976e+00   3.335929500000000e+00 -1.16950190e-01   1.23915056e+00   2.71642760e-01
C     1.101819139180000e+01   2.435695698829994e+00   3.427615800000000e+00  7.23409070e-01  -4.65470740e-01  -3.05237070e-01
C     7.461755650999999e+00   6.811964869982272e+00  -1.568250000000013e-01  2.36810900e-01   2.83343980e-01  -1.87211270e-01
C     8.693224640100000e+00   7.524048580298651e+00  -1.331741999999991e-01  5.72562890e-01   2.31518110e-01   5.76494370e-01
C     2.432673743500000e+00   1.693061629158900e+00   3.448130700000000e+00 -2.24647893e+00   1.00063372e+00   5.97722270e-01
C     3.612100715900000e+00   2.426055412168388e+00   3.610634100000000e+00  6.71462190e-01   1.04343138e+00  -9.88056340e-01
C     9.944323163700000e+00   6.851520213618882e+00   4.854000000000000e-03 -1.20467409e+00  -2.32648854e+00  -6.53464350e-01
C     1.116451788370000e+01   7.515259718372006e+00   1.770000000000000e-04  3.26848730e-01   6.13923140e-01   4.47854410e-01
C     4.855858321600000e+00   1.745486627830546e+00   3.518338200000000e+00 -9.19823700e-02  -5.31359190e-01   3.08512490e-01
C     6.094516976200000e+00   2.429905395823506e+00   3.419147700000000e+00 -5.15661890e-01  -4.31067500e-02  -3.66174400e-02
C     1.239300545530000e+01   6.793492855561412e+00   1.200822000000000e-01  6.40014310e-01   1.74230084e+00  -4.27654320e-01
C     1.363670232340000e+01   7.538585647910117e+00   6.831960000000001e-02 -4.33099110e-01  -6.29817510e-01  -1.30487540e-01
C     7.315049302599999e+00   1.738936352891338e+00   3.346990800000000e+00 -2.53172090e-01  -1.06312510e+00   4.80432400e-01
C     8.528544990699999e+00   2.423592078425117e+00   3.305953500000000e+00  1.78413119e+00   5.97138330e-01  -3.52025670e-01
C     1.325451353900000e+00   4.204063117582328e-01  -2.002500000000040e-02 -1.43625992e+00  -1.06725910e-01   8.80622520e-01
C     2.543759658700000e+00   1.100844876186255e+00   3.619560000000000e-02  1.63129120e-01   1.17805965e+00  -6.26880670e-01
C     1.102149133660000e+01   3.870565061297334e+00   3.461740500000000e+00 -6.36823650e-01  -8.72583320e-01   6.55752500e-02
C     1.225627560280000e+01   4.562599601957197e+00   3.616119300000000e+00 -1.06053809e+00   6.10450620e-01  -2.43128400e-01
C     3.767762655800000e+00   4.008570157752160e-01  -8.950109999999967e-02  2.45786330e-01   5.52640020e-01  -9.80066200e-02
C     5.006535193400000e+00   1.135828945952501e+00  -1.494198000000004e-01 -6.75251490e-01  -8.55258790e-01   2.51871560e-01
C     3.577921568200000e+00   3.873553031844496e+00   3.605354100000000e+00  3.32736118e+00  -1.50220658e+00  -8.75936000e-02
C     4.877902372900000e+00   4.564326616826777e+00   3.478769700000000e+00 -1.54032024e+00  -1.91705530e-01   3.20808730e-01
C     6.213773133899999e+00   3.962101716621048e-01  -1.015823999999981e-01  1.22300378e+00   5.94099290e-01   2.60705490e-01
C     7.455370216400000e+00   1.108132323900202e+00  -3.155969999999897e-02  5.28164380e-01   7.26943760e-01   1.31828680e-01
C     6.100427503900000e+00   3.831590028812946e+00   3.380122800000000e+00 -8.60730710e-01   7.35691530e-01  -1.84331680e-01
C     7.303019708200000e+00   4.542521826615573e+00   3.248386200000000e+00  8.12711120e-01   1.14849449e+00   3.45799930e-01
C     8.719166497300000e+00   4.180312713833256e-01   9.357780000000000e-02 -1.49109359e+00   2.63096300e-02  -4.13040720e-01
C     9.921077523500001e+00   1.139626500083271e+00   1.201743000000000e-01  1.31897991e+00  -3.67681630e-01  -4.75307620e-01
C     8.555432865600000e+00   3.857277848649826e+00   3.227483400000000e+00 -3.19320050e-01  -4.88731240e-01   4.68138060e-01
C     9.779023961200000e+00   4.573846161880195e+00   3.323325900000000e+00  6.08216820e-01  -4.10025150e-01   5.46599280e-01
C     2.533400545500000e+00   2.539158533920809e+00   8.172330000000000e-02 -1.96610900e-02  -4.36651990e-01  -1.28160260e-01
C     3.739639963800000e+00   3.230040222775767e+00  -8.752799999999894e-02  1.31908852e+00   1.36199071e+00   6.64161160e-01
C     1.228450281080000e+01   5.975801566891956e+00   3.642637500000000e+00 -1.68751862e+00   6.62474530e-01  -3.11656630e-01
C     1.346855298930000e+01   6.720798380762867e+00   3.607833900000000e+00  1.65680488e+00  -2.46603180e-01  -7.65141160e-01
C     4.988396836000000e+00   2.551681761300672e+00  -1.706189999999985e-01  8.49479270e-01  -8.61230800e-02  -3.23936240e-01
C     6.248826469200000e+00   3.266868121074958e+00  -2.406143999999983e-01 -1.09709049e+00  -2.19539790e-01   4.83599920e-01
C     4.872230900900000e+00   5.982829941027940e+00   3.449409000000000e+00 -7.76800790e-01   9.27383750e-01   4.14827600e-01
C     6.096408173500000e+00   6.718346830854059e+00   3.337620300000000e+00 -4.35377290e-01  -8.28225060e-01   3.04869890e-01
C     7.476004189099999e+00   2.548031590490786e+00  -1.022496000000004e-01  2.69313600e-01   1.50130220e-01  -2.78261800e-01
C     8.730646939000000e+00   3.288453031766303e+00  -3.547680000000142e-02 -1.52415300e+00  -9.57891300e-01   1.68000460e-01
C     7.301597699000000e+00   5.983185249254013e+00   3.297958500000000e+00  1.21256131e+00  -2.27373950e-01  -2.84992620e-01
C     8.572442598100000e+00   6.680717631811423e+00   3.343204200000000e+00 -9.79754460e-01   3.54008100e-01  -9.54935000e-03
C     9.924233660199999e+00   2.557490337789587e+00   1.513020000000000e-01  9.91710940e-01   5.62191070e-01  -5.49526280e-01
C     1.118848966360000e+01   3.275717439195802e+00   1.715163000000000e-01 -1.46404641e+00  -1.14887549e+00  -1.94162560e-01
C     9.794917788199999e+00   5.994206037739920e+00   3.421359300000000e+00 -2.26291230e-01  -1.16301168e+00  -2.37318790e-01
C     1.102132785780000e+01   6.659436282942643e+00   3.553373100000000e+00  8.73912450e-01   2.16132737e+00  -1.08840810e-01
C     3.782531900500000e+00   4.666091128123225e+00  -5.407500000000454e-03 -9.27339270e-01   6.33219920e-01  -3.85667760e-01
C     4.998216262100000e+00   5.410492004452735e+00  -1.884350999999995e-01 -8.60444290e-01  -3.71244820e-01   7.43587790e-01
C     1.346230973590000e+01   8.160283932295696e+00   3.497231700000000e+00  1.65543762e+00  -1.36901936e+00  -7.98243500e-02
C     9.807716709099999e+00   2.983855598011288e-01   3.376054800000000e+00 -1.28382541e+00  -1.85292680e-01   3.82826970e-01
C     6.207326616600000e+00   4.695978433314169e+00  -2.610303000000016e-01  1.62383737e+00  -3.43052300e-01   8.85645900e-02
C     7.461536660400000e+00   5.396834625700919e+00  -2.068046999999993e-01 -4.89159870e-01   7.71879500e-02  -1.07061110e-01
C     6.096738631399999e+00   8.132802920258015e+00   3.368284500000000e+00  2.78883040e-01  -1.56143730e-01  -2.51376630e-01
C     2.407720104800000e+00   2.847910281664448e-01   3.371309100000000e+00  2.91701440e-01  -4.02736800e-01   9.39378600e-02
C     8.700917116299999e+00   4.710044659887767e+00  -1.192667999999983e-01 -3.11142290e-01  -8.97842450e-01   4.52756610e-01
C     9.914878738699999e+00   5.386515146145734e+00   3.927480000000000e-02  8.01295190e-01   1.73057105e+00  -2.04205200e-02
C     8.574641575299999e+00   8.096352702392354e+00   3.380674800000000e+00 -5.00035000e-01   1.10976885e+00   5.98232780e-01
C     4.844681913000000e+00   3.275077696530640e-01   3.519660900000000e+00  9.81121930e-01  -1.72779697e+00  -8.53307360e-01
C     1.114007213360000e+01   4.678178524408189e+00   1.624968000000000e-01  1.22677299e+00   8.05425890e-01  -2.18515690e-01
C     1.240354944350000e+01   5.403608878885017e+00   1.529217000000000e-01 -1.65583390e-01  -1.62750421e+00  -3.93550100e-01
C     1.102577412620000e+01   8.120875630419553e+00   3.500717700000000e+00 -5.02479550e-01  -8.65465100e-02   4.67422370e-01
C     7.324907774300000e+00   3.141646264869112e-01   3.470490000000000e+00 -9.08351090e-01  -4.27405800e-02  -1.22333900e-01
