76
Lattice="10.7446858958278 0 0 5.37234294791388 9.3051709414712 0 0 0 30 " PBC="1 1 1" Properties=species:S:1:pos:R:3:force:R:3 Energy="-610.03933994"
C     1.073707388099757e+01   3.755036596640419e-02  -1.387928999999986e-01  2.80956654e+00  -1.51629608e+00  -3.33719200e-01
C     1.241838761040989e+01   8.543115125956307e+00  -2.831894999999989e-01  3.75907061e+00  -3.91374659e+00   4.64875000e-02
C     1.389324988270413e+01   8.245985292103219e+00  -2.585021999999988e-01 -1.75881051e+00   6.64806876e+00  -3.90383680e-01
C     1.444813640727552e+01   7.015808567426672e+00  -1.937718000000004e-01  2.22168563e+00   6.97620610e-01  -1.87573150e-01
C     8.245361396842089e+00   8.971607360693307e+00  -7.947210000000027e-02 -2.38162301e+00   9.59240240e-01  -6.43501410e-01
C     9.609275278171804e+00   8.794551173494851e+00  -2.235750000000003e-01  2.53422921e+00   1.09913378e+00   2.30193540e-01
C     1.020135738032781e+01   7.490756868081622e+00  -2.357432999999993e-01  5.99170570e-01   1.34495852e+00   3.01130320e-01
C     1.164520758804945e+01   7.359138854151989e+00  -2.138501999999995e-01 -2.06628764e+00  -5.18941450e-01   1.71740300e-02
C     1.218379689538830e+01   6.040232113666816e+00  -1.005624000000012e-01  1.78225294e+00   4.62684460e-01   1.48603120e-01
C     1.364982891619277e+01   5.942203812744686e+00  -9.970230000000058e-02 -3.20761055e+00  -5.58692475e+00  -3.01663420e-01
C     5.989791482692732e+00   7.991750156094214e+00  -1.698854999999995e-01 -3.24700003e+00   1.79119294e+00  -1.70386210e-01
C     7.346829033663594e+00   7.854424908620240e+00  -1.640481000000023e-01  2.85228034e+00  -2.94156720e-01   8.07277400e-02
C     7.945964431155224e+00   6.555592399507349e+00  -2.186421000000003e-01 -6.81204970e-01   6.93936580e-01   5.47397630e-01
C     9.339585918465843e+00   6.408563161466887e+00  -1.427805000000006e-01  1.11710636e+00  -3.03136655e+00   1.02282500e-02
C     9.915031593655442e+00   5.048608613465802e+00  -1.515900000000059e-02  8.39684730e-01   1.50506565e+00   2.13574400e-02
C     1.135971827517440e+01   4.855882611456094e+00   1.662240000000000e-02 -2.13654160e+00   4.37920688e+00  -3.42075710e-01
C     1.189049173681930e+01   3.625512990585962e+00   8.722860000000000e-02  1.58838606e+00  -3.78076705e+00  -4.93652630e-01
C     5.123213600487118e+00   6.873855300133981e+00  -2.420189999999991e-01  7.34582420e-01  -1.67894250e-01   3.51024580e-01
C     5.717230981744002e+00   5.595793421386519e+00  -2.182929000000016e-01 -1.83013744e+00  -1.67128261e+00   2.37043030e-01
C     7.089480697841796e+00   5.450121156424238e+00  -1.882653000000012e-01  2.19473739e+00  -2.72163267e+00   3.93194380e-01
C     7.708746210643648e+00   4.082839158514740e+00  -7.725480000000218e-02 -2.75105299e+00   1.12218854e+00  -2.49847020e-01
C     9.086698991123441e+00   3.912247831878558e+00   2.137830000000000e-02 -4.55207000e-02   1.06302856e+00  -9.28947120e-01
C     9.640985048923314e+00   2.636630142381906e+00  -1.119792000000004e-01  3.53494090e-01  -1.59904213e+00   2.18815390e-01
C     1.104628568746665e+01   2.457049369255718e+00   1.296690000000000e-02  2.93472420e-01   1.49168080e-01  -2.91134790e-01
C     3.453265008862097e+00   4.551709042356554e+00  -1.229319000000011e-01 -5.83915840e-01   1.34899369e+00   7.62727630e-01
C     4.877272521621345e+00   4.383696736898102e+00  -1.295460000000013e-01 -1.47958826e+00   2.49978308e+00   6.86542300e-02
C     5.374826852762933e+00   3.111044047069772e+00  -3.097409999999812e-02  3.14539602e+00  -9.60795910e-01  -7.04870330e-01
C     6.836921375972487e+00   2.943391851726698e+00  -1.122666000000017e-01 -9.40169110e-01   4.93011690e-01  -4.94977700e-02
C     7.354673621392325e+00   1.642416361746324e+00  -2.768861999999999e-01  1.46218159e+00   3.46602620e-01   6.60608900e-02
C     8.793477855998180e+00   1.502035389187364e+00  -3.341868000000012e-01 -3.80479640e-01  -3.75056200e-01   1.07005602e+00
C     9.386602461303633e+00   2.015245994437338e-01  -2.925731999999996e-01 -2.67390958e+00  -2.04187448e+00   1.36003810e-01
C     2.568012432774847e+00   3.416393417569290e+00  -2.568300000000079e-03  8.16384170e-01   4.95125100e-01   2.29654460e-01
C     3.131017534565420e+00   2.086728224546709e+00   1.245600000000000e-02  8.52175340e-01   1.71301775e+00  -4.41964070e-01
C     4.590622997562810e+00   1.951686838228249e+00  -5.859960000000086e-02 -2.21298449e+00  -4.94266230e-01  -1.55720160e-01
C     5.154953026571712e+00   6.592201826588301e-01  -2.369829000000010e-01 -3.49181487e+00  -5.16348510e-01   6.36292520e-01
C     6.507581764300657e+00   4.977713725746165e-01  -3.081668999999998e-01  1.43163220e+00   1.24197699e+00   1.62180000e-02
C     8.809829602511665e-01   1.142604179081147e+00  -5.916630000000112e-02 -1.69136961e+00   1.09653519e+00   2.08826610e-01
C     2.258853167819820e+00   9.960009317663184e-01  -3.667739999999853e-02  2.14195008e+00  -1.90830223e+00   2.43378430e-01
C     1.066578632835056e+01   1.433638381554860e-02   3.600481800000000e+00  2.69107904e+00  -1.91822624e+00  -1.27582874e+00
C     1.183489497133263e+01   8.848697125729325e+00   3.529878000000000e+00  1.75248530e+00  -2.72697938e+00   5.05541800e-02
C     1.328288784642645e+01   8.972218617372356e+00   3.527240400000000e+00 -1.95240850e+00  -3.97770970e-01   2.50874520e-01
C     1.410670574683699e+01   7.819878437936687e+00   3.534494700000000e+00 -9.93334100e-02  -3.19563860e-01   3.58308600e-02
C     7.655203936547922e+00   8.344867435510803e+00   3.591804300000000e+00 -4.68773006e+00  -1.63353125e+00  -3.90424000e-01
C     9.002538015405921e+00   8.471326011309335e+00   3.556344000000000e+00  1.52413881e+00   2.06220616e+00   1.56206700e-01
C     9.818687433489629e+00   7.389442725197158e+00   3.580564500000000e+00  2.88001562e+00  -4.37741380e+00  -2.45200100e-01
C     1.128776535785303e+01   7.504200606848897e+00   3.560415900000000e+00 -1.46509579e+00   5.86921940e-01   6.02416630e-01
C     1.209697225831274e+01   6.331727480412316e+00   3.695602800000000e+00  1.90463886e+00   1.07882244e+00  -1.14098135e+00
C     1.356142986029228e+01   6.511299599729530e+00   3.636632400000000e+00 -1.68933281e+00  -7.19739690e-01  -3.96160390e-01
C     4.760073194740780e+00   8.010089624448151e+00   3.471089400000000e+00  4.15054500e-01  -6.36745810e-01   9.88869940e-01
C     5.625409044979783e+00   6.860432404949612e+00   3.498309600000000e+00 -6.48279740e-01   2.65828650e-01   2.70965870e-01
C     7.028190162126432e+00   7.013568254471158e+00   3.533833200000000e+00  1.03985496e+00   8.04507070e-01   5.50789130e-01
C     7.867763264089287e+00   5.860904534241905e+00   3.585703500000000e+00  8.87363280e-01   1.21131595e+00  -5.58317860e-01
C     9.282480008121093e+00   6.021909952930828e+00   3.564063000000000e+00  1.16861439e+00   7.16799950e-01   4.88461600e-02
C     1.018287431791920e+01   4.862043192928631e+00   3.494363400000000e+00 -1.98405768e+00   1.91428292e+00  -1.98492000e-03
C     1.156954813015659e+01   5.009280959849858e+00   3.579104400000000e+00 -7.64476010e-01   2.58923526e+00   3.80341000e-02
C     1.239429958260155e+01   3.932466479503828e+00   3.462447600000000e+00  2.31893326e+00  -1.70057392e+00  -5.79662040e-01
C     3.650224825349837e+00   5.329352878758935e+00   3.559376400000000e+00 -1.87660360e-01   2.87762582e+00   8.53632000e-03
C     5.047651328278222e+00   5.554282960771470e+00   3.577532700000000e+00  1.24776517e+00  -1.12186112e+00   3.73439830e-01
C     5.918891222248986e+00   4.401345203258034e+00   3.740848200000000e+00 -9.66225690e-01   6.89758520e-01  -1.55453155e+00
C     7.324338472031432e+00   4.586846763601635e+00   3.589112100000000e+00 -7.02927950e-01  -2.20809756e+00   1.11537678e+00
C     8.164925012768375e+00   3.427614895412674e+00   3.580479900000000e+00  1.16640798e+00   1.61582270e-01  -1.00649503e+00
C     9.598066314394064e+00   3.606271292857683e+00   3.353541600000000e+00 -1.26541252e+00  -1.77550712e+00   1.25931564e+00
C     1.042625252058068e+01   2.442312397831202e+00   3.345294000000000e+00  5.53623180e-01   6.23953700e-02   4.45079990e-01
C     1.187149056565659e+01   2.630833672248252e+00   3.370961700000000e+00 -2.76471838e+00  -4.42129750e-01   7.40916100e-02
C     3.074421943077492e+00   4.081058614055371e+00   3.417516300000000e+00  2.52448800e-01  -1.37348442e+00   8.61465750e-01
C     3.957955369420741e+00   2.939028936228060e+00   3.441324900000000e+00 -1.99074871e+00  -9.52254530e-01   1.12832740e-01
C     5.327055442017238e+00   3.093275450953004e+00   3.673798200000000e+00  2.06419614e+00  -8.92112800e-02  -7.92900000e-02
C     6.221648427280787e+00   1.944089259207449e+00   3.694071300000000e+00 -1.31490769e+00   4.70229690e-01  -9.62717290e-01
C     7.637413261698708e+00   2.099384559749040e+00   3.628752900000000e+00 -1.06845213e+00   8.42927110e-01  -7.54573800e-02
C     8.452426106907913e+00   9.492887875440996e-01   3.532438800000000e+00  7.75508690e-01   8.61005270e-01  -2.34322900e-01
C     9.859767752261387e+00   1.120209331128139e+00   3.455333100000000e+00 -2.71018600e-01   2.08367718e+00   2.52094740e-01
C     1.900605139904328e+00   1.485770601746210e+00   3.423086100000000e+00  2.71760936e+00  -2.04954880e+00   2.66585460e-01
C     3.359208714664972e+00   1.612437241166960e+00   3.390726600000000e+00  3.16869640e-01   6.67220000e-04   9.99037650e-01
C     4.227059949596595e+00   4.479575357229674e-01   3.540478500000000e+00 -1.31644487e+00   2.33199125e+00  -8.74463790e-01
C     5.628596563498877e+00   6.496407883312282e-01   3.522071700000000e+00 -4.19694300e-02   7.39872020e-01   9.19924860e-01
C     1.374795776868657e+00   1.338664223838656e-01   3.587245200000000e+00 -4.36900900e-01   2.06144927e+00  -6.58429810e-01
