76
Lattice="10.7446858958278 0 0 5.37234294791388 9.3051709414712 0 0 0 30 " PBC="1 1 1" Properties=species:S:1:pos:R:3:force:R:3 Energy="-612.60198578"
C     1.074759642051659e+01   3.190538401565320e-02  -3.092319000000003e-01  2.20380121e+00  -1.38723788e+00   4.66720200e-02
C     1.246899320067886e+01   8.516746225598244e+00  -4.331786999999991e-01  6.08462160e-01  -1.77322092e+00   6.05355990e-01
C     1.388784901261306e+01   8.290836681292564e+00  -4.662573000000023e-01 -2.13723600e-01   3.18589855e+00   5.53958200e-01
C     1.444188853359496e+01   7.032730858246446e+00  -3.144186000000033e-01  1.46052061e+00  -9.49469820e-01  -1.29242800e-02
C     8.221449689329363e+00   8.989647016439557e+00  -1.994925000000016e-01  5.17601400e-01  -4.61383790e-01   2.48714470e-01
C     9.626625367175688e+00   8.780763515609634e+00  -2.210315999999999e-01  1.43018627e+00   2.21176541e+00  -2.73517230e-01
C     1.024427799517709e+01   7.508090540508655e+00  -1.699959000000000e-01 -3.46020030e-01   6.99594070e-01  -6.20387660e-01
C     1.165610447242522e+01   7.335153938588754e+00  -2.764541999999999e-01 -3.84599620e-01   1.01306502e+00   5.42148150e-01
C     1.221751393463622e+01   6.048865823471786e+00  -6.938789999999884e-02 -1.96615420e-01   2.35581500e-02  -9.16976770e-01
C     1.362251947038131e+01   5.909116485916234e+00  -1.213689000000002e-01  2.08373500e-02  -1.84150141e+00   4.49813840e-01
C     5.977994139915110e+00   8.007633338475118e+00  -3.213471000000006e-01 -3.24534660e-01   3.24056210e-01   2.32254450e-01
C     7.391870971850111e+00   7.826364421236995e+00  -2.359568999999979e-01 -8.17254060e-01   8.88436660e-01   3.70276700e-02
C     7.953171966456944e+00   6.526688119223264e+00  -1.640139000000005e-01  1.10537029e+00   9.19027820e-01   4.53749900e-02
C     9.384403024099903e+00   6.420540312242308e+00  -1.236843000000007e-01 -3.36363420e-01  -2.79386792e+00   4.48166670e-01
C     9.947103514045212e+00   5.085011558803594e+00  -2.483099999999894e-02  6.50557200e-02   3.06540370e-01  -7.32488820e-01
C     1.137164358716109e+01   4.889580357498210e+00  -1.721339999999927e-02 -6.09863160e-01   1.58339315e+00   8.96971810e-01
C     1.193540258983784e+01   3.620810157192885e+00   1.102164000000000e-01 -3.87239790e-01  -1.86480698e+00  -9.31824560e-01
C     5.138540518859463e+00   6.865627388833705e+00  -2.870607000000014e-01 -5.19294670e-01   2.46917350e-01   4.20193900e-01
C     5.711125690045334e+00   5.584832767484584e+00  -1.172292000000006e-01 -2.31757940e-01  -1.66317287e+00  -4.98788570e-01
C     7.130177001539488e+00   5.392275654327437e+00  -1.253750999999994e-01 -8.42199990e-01  -8.63239500e-02  -2.74848440e-01
C     7.697769493251636e+00   4.083146322207470e+00  -1.849044000000006e-01 -1.01049920e+00   5.06963130e-01   3.44825000e-01
C     9.091576380117459e+00   3.950716246009902e+00  -1.151144999999971e-01  4.96431240e-01  -4.58068530e-01   2.80472430e-01
C     9.640303889560682e+00   2.634162876307165e+00  -1.231721999999991e-01  1.18451548e+00   2.50298230e-01  -2.27754650e-01
C     1.106342453594574e+01   2.476125527992974e+00  -4.695720000000136e-02  3.26793840e-01  -7.49214530e-01   2.09415760e-01
C     3.440468464019204e+00   4.570021153507927e+00   2.111730000000000e-02  3.27688070e-01   7.96647800e-01  -3.46711260e-01
C     4.858939293857610e+00   4.388185737462977e+00  -7.163999999999859e-02 -8.14908420e-01   2.84411045e+00   3.14609000e-02
C     5.379348646377088e+00   3.126118610095991e+00  -1.819887000000016e-01  2.95947258e+00  -1.74531112e+00   4.07572600e-01
C     6.840414097294571e+00   2.951145013205615e+00  -2.499623999999976e-01 -8.52791260e-01   2.14782350e-01  -5.47442700e-02
C     7.403101424999650e+00   1.655580387075142e+00  -3.446780999999994e-01 -5.28199930e-01  -2.73303520e-01   5.63691060e-01
C     8.818282446909194e+00   1.495619008565687e+00  -2.788785000000011e-01 -6.04748340e-01  -5.80007240e-01  -3.55557730e-01
C     9.375301899078597e+00   1.824758909607504e-01  -3.778170000000003e-01 -1.51492945e+00  -6.11167540e-01  -1.18449530e-01
C     2.606045021391071e+00   3.421039210264504e+00   9.699510000000000e-02 -1.82315890e-01   7.68116310e-01  -2.03216170e-01
C     3.166770423174241e+00   2.122204281807168e+00  -9.206400000000059e-03  2.62154780e-01  -3.03588800e-02   1.47114000e-01
C     4.595574954676972e+00   1.954341882652559e+00  -1.188018000000000e-01 -1.56560306e+00   1.86707600e-02  -6.34521410e-01
C     5.136614909975894e+00   6.535616151585065e-01  -3.082640999999988e-01 -1.09343371e+00  -5.52739090e-01   1.17010941e+00
C     6.532584863283674e+00   5.042325110685149e-01  -3.377772000000014e-01  8.61734280e-01   2.19537330e-01  -9.23125640e-01
C     8.792948089259880e-01   1.132754934796285e+00  -1.550666999999990e-01 -1.08434430e-01   2.10706833e+00   4.33599370e-01
C     2.302215604153309e+00   1.005860318687505e+00  -8.612460000000155e-02 -3.33283690e-01  -1.27040151e+00  -4.83628260e-01
C     1.604040446558989e+01   9.289739709771650e+00   3.437395500000000e+00  1.46707466e+00  -4.26758800e-02  -9.36854200e-01
C     1.181591910390522e+01   8.794790223336300e+00   3.588483300000000e+00  1.28783686e+00   6.39667220e-01  -1.44981640e-01
C     1.324413375215204e+01   8.991930040129686e+00   3.520185300000000e+00 -1.19992540e-01  -1.48312892e+00   1.24863580e-01
C     1.408669624062600e+01   7.809344984432607e+00   3.564111900000000e+00  4.04627000e-03   9.73169120e-01  -5.16840370e-01
C     7.580330667322362e+00   8.334161836344334e+00   3.528154200000000e+00 -2.74340180e-01  -1.15037381e+00  -2.06337120e-01
C     8.987441677992992e+00   8.477317331722473e+00   3.553489800000000e+00  2.59475810e-01   1.08225234e+00   1.82986770e-01
C     9.839248034640434e+00   7.360132181149834e+00   3.608489100000000e+00  6.61299660e-01  -1.50304898e+00   2.49082780e-01
C     1.128159597410297e+01   7.498604477045580e+00   3.607817700000000e+00 -1.02548564e+00  -2.47447320e-01  -3.97017230e-01
C     1.213435538438974e+01   6.357233698372531e+00   3.544249500000000e+00 -8.02130450e-01   1.85441460e-01   2.87920070e-01
C     1.353771091244460e+01   6.505954988696722e+00   3.577738500000000e+00 -8.95218000e-02  -2.13994780e-01   4.05629140e-01
C     4.752734627994509e+00   7.975408973199642e+00   3.513134100000000e+00  1.53795590e-01   3.71991810e-01   8.26042980e-01
C     5.615524524909507e+00   6.855214344241588e+00   3.704103000000000e+00 -3.57302560e-01  -2.52320590e-01  -7.56179950e-01
C     7.028269941419240e+00   7.000291729625675e+00   3.666929700000000e+00 -4.64723630e-01   1.28986242e+00  -9.93541200e-02
C     7.861252253051035e+00   5.868266320231086e+00   3.718719300000000e+00  8.24421940e-01  -1.55380760e-01  -1.12116270e-01
C     9.273034838257269e+00   6.029711873505470e+00   3.677478300000000e+00  4.56406730e-01   6.87274860e-01  -5.48925140e-01
C     1.013183770457535e+01   4.894098948506674e+00   3.583758000000000e+00 -3.50688170e-01   2.39038250e-01   4.71662660e-01
C     1.153677603231015e+01   5.073402241435431e+00   3.525825600000000e+00  2.83713050e-01  -7.07095770e-01   3.99519830e-01
C     1.235505929129016e+01   3.918182204645543e+00   3.570469800000000e+00  2.13662416e+00  -9.65826200e-01  -4.25032430e-01
C     3.630696895960882e+00   5.350229588073081e+00   3.691455300000000e+00 -2.60445400e-02   6.06031490e-01  -5.01254760e-01
C     5.039593458534375e+00   5.550864240968114e+00   3.746522400000000e+00  4.76695420e-01  -7.49954230e-01  -2.59719130e-01
C     5.906384085520808e+00   4.406635379040843e+00   3.692548800000000e+00 -3.23373360e-01  -6.48926700e-01   3.72141330e-01
C     7.323754444629337e+00   4.558194746501735e+00   3.697679400000000e+00 -8.52926940e-01   1.55537590e-01   2.72896900e-02
C     8.157687070005558e+00   3.418314563161563e+00   3.637538100000000e+00  6.96722950e-01   2.44295200e-02  -2.11671400e-01
C     9.584354107418772e+00   3.582043140126077e+00   3.616349700000000e+00 -1.59607290e-01  -3.84701810e-01  -7.32278720e-01
C     1.043185388651063e+01   2.432273141955745e+00   3.458489100000000e+00 -2.42955540e-01   2.45087890e-01   6.42293500e-02
C     1.185103633689620e+01   2.578152260868023e+00   3.470466600000000e+00 -1.41713608e+00   1.68549396e+00   9.78118300e-02
C     3.067316589738680e+00   4.041980804279166e+00   3.630721200000000e+00 -9.34119260e-01   1.50175108e+00   4.80572240e-01
C     3.942117917297859e+00   2.943775876131391e+00   3.689449800000000e+00 -1.12592813e+00  -1.15526207e+00  -7.04526180e-01
C     5.338906454500931e+00   3.073745106822166e+00   3.667215000000000e+00  8.34977450e-01   1.08519173e+00  -1.39906960e-01
C     6.188263774891185e+00   1.930722474203848e+00   3.557013900000000e+00 -2.41346330e-01   4.37047650e-01   5.95907400e-01
C     7.597226793346971e+00   2.122891003422540e+00   3.535162800000000e+00 -4.82464600e-02  -5.28108460e-01   1.04247050e-01
C     8.447319480040221e+00   9.758489091649791e-01   3.469777200000000e+00 -3.86129840e-01   3.31603410e-01  -1.56812860e-01
C     9.854457782213037e+00   1.136995208141933e+00   3.375468600000000e+00 -2.87516110e-01  -9.50541300e-02   7.79017590e-01
C     1.936558094564607e+00   1.461385563832555e+00   3.430918800000000e+00  9.47230070e-01  -2.96288210e-01   5.81651700e-02
C     3.356655723571702e+00   1.648478308406896e+00   3.569001300000000e+00 -2.39426330e-01  -8.94471720e-01  -7.50752600e-02
C     4.181032079031893e+00   4.920772593213022e-01   3.580244700000000e+00  6.32918150e-01  -2.05396280e-01  -1.75750090e-01
C     5.613698841604809e+00   6.288374037640889e-01   3.598453200000000e+00 -7.95358080e-01   4.07162470e-01  -3.00388960e-01
C     1.363917588246349e+00   1.570287608360042e-01   3.354545400000000e+00 -5.32803570e-01  -2.64200030e-01   1.26774850e+00
