64
Lattice="9.86 0 0 4.93 8.53901048131456 0 0 0 30 " PBC="1 1 1" Properties=species:S:1:pos:R:3:force:R:3 Energy="-512.13277109"
C     5.022202141799999e+00   8.170147428691248e+00  -3.608225999999988e-01 -2.57059874e+00  -3.10081267e+00   2.67547400e-01
C     1.262495401800000e+00   2.594072824927584e-01  -2.501802000000026e-01  4.30286843e+00   1.45241960e+00  -1.44983334e+00
C     9.782452825500000e+00   3.977693949757528e-01   3.810938400000000e+00 -1.31760119e+00   3.15029492e+00  -3.68370140e-01
C     1.124273336900000e+00   1.128482920626662e+00   3.747242400000000e+00  1.61775636e+00   1.49424224e+00  -4.23303040e-01
C     7.500936185100000e+00   8.074890070331085e+00  -3.462974999999986e-01 -8.23974360e-01   9.04551390e-01   1.24035133e+00
C     3.825050044600000e+00   2.621230293858176e-01  -3.343799999999995e-01 -8.64028210e-01   7.96411140e-01  -1.41142999e+00
C     2.379735600700000e+00   4.013154752478872e-01   3.872501100000000e+00 -8.23051470e-01   2.98902490e+00  -3.00415180e-01
C     3.597182338700000e+00   1.171933333893722e+00   3.841933200000000e+00 -8.50084600e-01   2.52698020e-01  -3.60050900e-02
C     9.982632271000000e+00   8.135117675218934e+00  -4.113344999999988e-01 -5.58669610e-01  -2.27286228e+00   5.10536850e-01
C     6.293080614200000e+00   2.875510071337904e-01  -3.571068000000004e-01 -2.32853465e+00   2.40450720e-01  -2.33499870e-01
C     4.787024379800000e+00   4.427716026173440e-01   3.928480500000000e+00  3.42082828e+00  -3.22656280e-01   5.27705150e-01
C     6.109959560299999e+00   1.063076491272796e+00   3.920253000000000e+00 -1.08510334e+00   3.12030034e+00  -6.81553940e-01
C     1.241219730440000e+01   8.084096233699887e+00  -3.890214000000007e-01  1.20325520e+00   2.79876062e+00   2.55986290e-01
C     8.687190467999999e+00   3.340438698348752e-01  -2.805293999999989e-01  6.06553810e-01  -4.33404899e+00  -1.13633324e+00
C     7.347754577499999e+00   4.081280685890408e-01   3.743813100000000e+00 -1.29854695e+00  -8.98455690e-01   1.05432201e+00
C     8.532092175000001e+00   1.152027278052851e+00   3.716225700000000e+00  8.71658220e-01   1.48854144e+00  -3.81269510e-01
C     1.259671399200000e+00   1.686241606878629e+00  -4.223502000000003e-01  2.55496282e+00  -1.19065689e+00   1.04901965e+00
C     2.523382588300000e+00   2.351507118194634e+00  -4.665612000000010e-01  5.96214010e-01   2.13376398e+00  -1.04312453e+00
C     1.102901210090000e+01   2.635162457967239e+00   3.529743600000000e+00 -2.14293087e+00  -4.07902732e+00   1.01456066e+00
C     2.367761320900000e+00   3.295088952980625e+00   3.595974000000000e+00  1.80655612e+00  -7.21426560e-01  -1.30047260e-01
C     3.807333152900000e+00   1.688999451093355e+00  -5.294445000000003e-01 -2.24844408e+00   3.58196090e-01   1.56207666e+00
C     4.955525173600000e+00   2.496082214702877e+00  -4.604123999999992e-01  2.52791083e+00  -2.27791071e+00   4.15250380e-01
C     3.591321456099999e+00   2.615268954471774e+00   3.740886300000000e+00  1.61849129e+00  -2.59128076e+00   4.56526410e-01
C     4.892257497600000e+00   3.245351010126825e+00   3.893655000000000e+00 -1.96953567e+00  -1.50756870e+00   3.19824150e-01
C     6.203780418299999e+00   1.720487906139402e+00  -3.244380000000007e-01  4.82329680e-01   2.32440380e-01  -6.22918580e-01
C     7.456450971000000e+00   2.370653543663205e+00  -3.469778999999988e-01 -7.64579520e-01   2.72498675e+00   2.75368710e-01
C     6.123288160400000e+00   2.534227511538923e+00   3.958230000000000e+00 -5.10919350e-01  -9.15681740e-01  -1.19599318e+00
C     7.287516534399999e+00   3.336493333946573e+00   3.755142000000000e+00  3.88331960e-01  -5.74988750e-01   1.51412070e+00
C     8.665615752699999e+00   1.672795141685668e+00  -3.660204000000000e-01  1.12526600e+00   2.41828410e+00   5.95841170e-01
C     9.932743678300000e+00   2.370435030385022e+00  -4.131854999999973e-01 -1.48129270e+00   1.36535587e+00  -6.52053570e-01
C     8.513889727599999e+00   2.660662590353768e+00   3.634064100000000e+00  1.44038261e+00  -3.15154843e+00   1.53750190e-01
C     9.794424541700000e+00   3.339998341578299e+00   3.568621800000000e+00 -1.58322981e+00  -2.33005308e+00   2.03238690e-01
C     2.558781861700000e+00   3.830854990790828e+00  -5.712009000000009e-01  7.87315800e-02  -9.81112950e-01   7.49973850e-01
C     3.786838649900000e+00   4.579065119695467e+00  -5.339597999999981e-01  1.92538640e-01  -5.99103680e-01  -2.82183400e-02
C     1.225319785310000e+01   4.665923251177188e+00   3.588192900000000e+00  2.70392170e-01   2.76258323e+00   8.70056530e-01
C     3.620280424000000e+00   5.407536225975083e+00   3.791185800000000e+00  9.57904300e-02  -2.58897229e+00  -3.07747270e-01
C     5.028908913800000e+00   3.912910185047864e+00  -4.435764000000013e-01 -9.88553180e-01  -2.18825674e+00  -3.78483920e-01
C     6.267398370800000e+00   4.558190910846373e+00  -3.742250999999968e-01 -9.16980830e-01  -3.49562120e-01   4.32057550e-01
C     4.841781347500000e+00   4.599948294505564e+00   3.999916799999999e+00  1.37854330e-01   5.58495172e+00  -1.28852446e+00
C     6.050439374500000e+00   5.439356763138698e+00   3.995958600000000e+00 -5.46632670e-01  -2.00692739e+00   6.86643470e-01
C     7.488082639800000e+00   3.832295607248909e+00  -3.271725000000032e-01 -6.29469890e-01  -8.90510950e-01  -4.88563220e-01
C     8.699454434600000e+00   4.533473207990126e+00  -4.079592000000005e-01  2.09851798e+00  -2.13455751e+00  -2.07357360e-01
C     7.277239604300000e+00   4.761236198495577e+00   3.965350800000000e+00  8.34108280e-01  -8.32971220e-01  -1.58280839e+00
C     8.521340190100000e+00   5.446092676165741e+00   3.849700500000000e+00  7.12604600e-01  -9.68798750e-01   6.62358070e-01
C     9.957154671900000e+00   3.775776323832313e+00  -5.401790999999996e-01 -5.60353200e-02   2.46425745e+00   1.13080971e+00
C     1.121745932960000e+01   4.560006816815050e+00  -5.208650999999982e-01 -1.77786641e+00  -3.14934150e-01  -6.51482520e-01
C     9.754812287499998e+00   4.691782961295030e+00   3.729890100000000e+00  6.58472170e-01   2.66407866e+00  -5.55036600e-01
C     1.102872670320000e+01   5.360162649733091e+00   3.679935000000000e+00 -1.06595888e+00   1.85749735e+00   1.70874200e-02
C     3.815322563000000e+00   5.968132510799659e+00  -5.336396999999984e-01 -1.23938841e+00   2.23089988e+00  -4.17299340e-01
C     5.052991421500000e+00   6.708655566299887e+00  -4.987347000000000e-01 -3.65802477e+00   7.74284570e-01   1.02376968e+00
C     1.344421663590000e+01   6.812754472281357e+00   3.740064000000000e+00  2.59543008e+00  -1.20844520e-01   1.38472615e+00
C     4.811184288499999e+00   7.571672691108125e+00   3.938136899999999e+00  8.60583940e-01  -2.94389433e+00  -8.85732200e-01
C     6.151904986300000e+00   5.950132191317715e+00  -3.280130999999997e-01  6.47068162e+00   1.47753484e+00  -1.80131130e-01
C     7.488346296200000e+00   6.675969515034019e+00  -2.668071000000012e-01 -4.06210500e-01  -1.50107643e+00  -6.83811840e-01
C     6.058779307600000e+00   6.823743751818593e+00   3.991927200000000e+00 -2.05516670e-01   2.41320893e+00   1.14209760e-01
C     7.324811047699999e+00   7.569889916500111e+00   3.993193200000000e+00 -6.71674460e-01  -2.48018984e+00  -1.14091530e-01
C     8.757470280200000e+00   5.909501786261674e+00  -3.629300999999998e-01 -2.26698722e+00   2.84891154e+00   1.83645220e-01
C     9.948038214499999e+00   6.663467976740775e+00  -4.415240999999988e-01  7.59152950e-01   1.73982667e+00   1.67634590e-01
C     8.570897930499999e+00   6.842816229456407e+00   3.971385900000000e+00 -3.27270430e-01   9.43344150e-01   2.49656590e-01
C     9.805133980699999e+00   7.573262313299082e+00   4.018659299999999e+00 -5.45878200e-01  -1.96501474e+00  -1.74502540e+00
C     1.119811637600000e+01   6.037685654422822e+00  -5.172671999999991e-01 -9.15001000e-03  -3.09323541e+00  -1.41225430e-01
C     1.242885321080000e+01   6.718363652704704e+00  -5.458776000000007e-01  5.93150860e-01  -1.72064860e+00   5.37769630e-01
C     1.105222273810000e+01   6.799818554524996e+00   3.778388400000000e+00 -2.33732575e+00   3.58858070e-01   1.06867326e+00
C     1.224958016980000e+01   7.490172532532290e+00   3.783404700000000e+00  1.33209500e-02   1.94322172e+00  -9.73538240e-01
