64
Lattice="9.86 0 0 4.93 8.53901048131456 0 0 0 30 " PBC="1 1 1" Properties=species:S:1:pos:R:3:force:R:3 Energy="-511.94954495"
C     4.894761296700000e+00   8.374309789691445e+00  -7.277946000000028e-01  3.76919160e+00   1.41858927e+00  -3.22373990e-01
C     1.244693369000000e+00   5.668552087262064e-01  -7.207205999999999e-01  8.72438700e-02   1.04185710e-01  -7.08957860e-01
C     9.782913977699998e+00   1.799397499715816e-01   4.045328100000000e+00  3.20811276e+00  -2.75210428e+00   2.04515060e-01
C     1.233984176500000e+00   8.561342554108344e-01   4.107248400000000e+00 -1.50682619e+00   2.12106049e+00  -3.61097920e-01
C     7.447515888299999e+00   8.400765351960581e+00  -7.869753000000017e-01 -2.60914528e+00   4.82801840e-01   3.71736000e-02
C     3.698452525300000e+00   6.148170374001656e-01  -8.181110999999994e-01  2.10705121e+00  -2.72369543e+00   1.57859426e+00
C     2.479919166000000e+00   1.744410541729856e-01   4.025686200000000e+00 -2.43605272e+00  -1.76062946e+00   2.77140060e-01
C     3.702349936800000e+00   8.362179527573872e-01   3.978928800000000e+00 -1.03241513e+00   2.42005609e+00   1.07599310e-01
C     9.878161084700000e+00   8.400042439333344e+00  -6.149483999999994e-01  6.48408680e-01  -2.91394550e-01  -2.03392200e-01
C     6.207396523999999e+00   5.402831743541232e-01  -5.720649000000009e-01 -5.56976270e-01  -3.74967000e-02  -1.29437531e+00
C     4.915906066700000e+00   2.052377639800488e-01   3.926976900000000e+00  1.08167427e+00  -3.41977282e+00   8.08362720e-01
C     6.144316434500000e+00   9.086741037734359e-01   3.978891900000000e+00 -1.93125490e+00  -8.57816800e-02   5.10699120e-01
C     1.238193947870000e+01   8.394152913025080e+00  -6.720936000000002e-01 -1.66189580e+00   5.83480840e-01   1.19247841e+00
C     8.651249190400000e+00   5.843618880123024e-01  -7.661133000000007e-01 -7.11208500e-02  -1.30302961e+00   4.13237910e-01
C     7.326569825200000e+00   1.328924493200304e-01   3.968149500000000e+00  3.31806030e-01   1.57308935e+00   5.63358450e-01
C     8.549204796599998e+00   8.281212630202512e-01   4.087469700000000e+00  1.25394061e+00  -3.18027350e-01  -6.36419370e-01
C     1.251457329000000e+00   2.007431875018169e+00  -6.793011000000000e-01  1.91118934e+00  -8.36878530e-01   1.49302113e+00
C     2.541463708400000e+00   2.713332914796504e+00  -3.767538000000030e-01 -2.03141159e+00  -7.94429380e-01  -2.51373346e+00
C     1.110051011610000e+01   2.345719547671500e+00   4.121222700000001e+00 -2.60556145e+00  -2.91821092e+00  -3.30626690e-01
C     2.447461574300000e+00   3.004082720646207e+00   4.034467500000000e+00  5.66029400e-02  -7.80821480e-01  -1.75154960e-01
C     3.747835891600000e+00   1.988115096290523e+00  -6.287406000000004e-01 -4.29635520e-01   1.37590422e+00   8.08310870e-01
C     5.008242156600000e+00   2.657514257189792e+00  -5.951465999999996e-01  7.45571700e-02  -6.17148410e-01  -1.29709880e-01
C     3.661088499000000e+00   2.262380086238272e+00   4.019971200000001e+00 -2.88275300e-02   1.58497990e+00  -1.20223800e-02
C     4.826198357000000e+00   3.066087293614946e+00   4.056671700000000e+00  2.18205818e+00  -8.16768220e-01   1.47114000e-01
C     6.231291741000000e+00   1.934310278915414e+00  -6.837885000000021e-01  3.29999760e-01   1.16206134e+00   2.20575620e-01
C     7.481525838400000e+00   2.658005933413230e+00  -7.528563000000013e-01 -2.66312669e+00   1.83954014e+00  -1.14690850e-01
C     6.060679230999999e+00   2.349904260537433e+00   4.135533900000000e+00  1.52211504e+00  -2.01181358e+00  -1.74487790e+00
C     7.342378215300000e+00   2.925489668188287e+00   3.997372800000000e+00  2.23518110e-01   2.96190793e+00   7.93116300e-01
C     8.695279119000000e+00   1.989283574484606e+00  -7.676045999999985e-01 -2.07351825e+00  -1.66789592e+00  -2.64225650e-01
C     9.860431374999999e+00   2.662552102592783e+00  -6.949389000000004e-01  2.40130872e+00   2.13834799e+00   5.47190470e-01
C     8.593011839900001e+00   2.200543048655151e+00   4.073346900000000e+00 -5.86112450e-01   3.96926573e+00  -1.15321720e-01
C     9.814846277899999e+00   3.033343006297604e+00   4.091826600000000e+00  7.80444310e-01  -3.39195249e+00   3.54001210e-01
C     2.510220572900000e+00   4.152816160796503e+00  -3.470154000000001e-01  5.13854320e-01  -2.88690048e+00   3.84688110e-01
C     3.749443564600000e+00   4.777211235471875e+00  -4.014501000000017e-01  1.11548031e+00   3.32467388e+00   1.11833670e-01
C     1.225435872020000e+01   4.385600089464194e+00   3.933357000000000e+00  2.82686213e+00   2.65339713e+00   6.87875680e-01
C     3.642415335200000e+00   5.169726491909179e+00   3.984116100000000e+00  3.73742330e-01  -1.35347410e+00  -1.79638370e-01
C     5.022768007200000e+00   4.050229257400726e+00  -5.350593000000003e-01 -3.81556682e+00   1.22922826e+00   1.39381320e-01
C     6.155337942499999e+00   4.789516547304289e+00  -7.027223999999990e-01  2.31655436e+00   1.99653275e+00  -5.48177680e-01
C     4.920351151899999e+00   4.500890991091695e+00   4.031333100000000e+00 -2.35851660e+00  -1.05710513e+00  -3.47314170e-01
C     6.151653950699999e+00   5.186194742130803e+00   3.982192200000000e+00  8.61880780e-01  -2.49072672e+00   4.30408600e-01
C     7.380957141500000e+00   4.118325560445896e+00  -7.916640000000008e-01  2.04130555e+00  -1.12196593e+00   7.05350380e-01
C     8.620848098900000e+00   4.852303208242891e+00  -6.656772000000011e-01  3.94973620e-01  -6.56368380e-01   1.52774540e-01
C     7.365034868400000e+00   4.398108885916346e+00   3.941396100000000e+00  5.23132910e-01  -7.48981350e-01   4.82753410e-01
C     8.627748077600000e+00   5.078281716338230e+00   3.981004800000000e+00 -2.77856254e+00   2.31273175e+00   2.86812230e-01
C     9.817445127399999e+00   4.066235120204857e+00  -5.347094999999982e-01  2.01394571e+00   1.98664181e+00  -1.34538370e-01
C     1.112532630640000e+01   4.778011169973641e+00  -3.658691999999988e-01 -2.23424392e+00   7.65974210e-01  -6.14089710e-01
C     9.834908074800000e+00   4.415877883604387e+00   4.110350400000000e+00  3.72010350e-01   4.87777580e-01  -1.32138399e+00
C     1.107174681990000e+01   5.127766733701613e+00   3.972135900000000e+00 -8.63391130e-01  -8.50292910e-01   8.17703090e-01
C     3.743909097300000e+00   6.299378744630972e+00  -4.109450999999993e-01  6.30643230e-01  -2.20452261e+00  -1.15534396e+00
C     5.004401489399999e+00   6.978078851915371e+00  -6.874214999999992e-01 -2.45832292e+00  -1.15402439e+00   6.17834430e-01
C     1.354455239030000e+01   6.570020461651847e+00   3.987401400000000e+00 -1.34015846e+00   1.31052900e-01  -3.96479210e-01
C     4.917000674600000e+00   7.229848331094189e+00   3.962253599999999e+00 -3.62314960e-01   3.13481659e+00   1.15945919e+00
C     6.212883170300000e+00   6.242350963140292e+00  -8.089364999999979e-01 -9.57743770e-01  -2.31518340e-01   1.09122141e+00
C     7.417704917800000e+00   6.976131274405093e+00  -7.715700000000005e-01  1.56660793e+00  -1.41020530e-01   3.89647200e-02
C     6.173148159100000e+00   6.575495162830994e+00   4.074650400000000e+00 -4.01607366e+00  -7.13388070e-01  -1.09611090e+00
C     7.301971885999999e+00   7.271472250019578e+00   4.039968000000000e+00  5.26652911e+00   1.67017194e+00  -3.58335180e-01
C     8.670672798800000e+00   6.292859807860226e+00  -6.150558000000004e-01 -5.11800880e-01  -1.33616059e+00  -4.20134170e-01
C     9.927657348000000e+00   6.956073821908412e+00  -4.985919000000010e-01 -1.74576944e+00   4.80089060e-01  -8.01681810e-01
C     8.536283907500000e+00   6.532636502990197e+00   3.985051200000000e+00  2.35086526e+00   4.79730080e-01   3.92175120e-01
C     9.815145233099999e+00   7.268065611788582e+00   4.026211500000000e+00 -7.87826100e-02  -1.32649380e-01  -8.66673220e-01
C     1.112096853150000e+01   6.183787526004889e+00  -4.427241000000031e-01  8.48343720e-01   2.89113723e+00   8.47000460e-01
C     1.235120339370000e+01   7.027327509468667e+00  -4.226481000000000e-01  9.62982130e-01  -3.84755561e+00  -6.20075690e-01
C     1.107511632700000e+01   6.525778567503395e+00   4.015871700000000e+00 -8.91754340e-01   2.04587980e+00  -3.96359420e-01
C     1.229378185960000e+01   7.291244670346437e+00   3.983625900000000e+00 -4.07311180e-01  -1.95023016e+00  -2.11094060e-01
