52
Lattice="8.88768389401873 1.33226762955019e-15 0 4.44384194700937 7.69696003302603 0 0 0 30 " PBC="1 1 1" Properties=species:S:1:pos:R:3:force:R:3 Energy="-417.87347053"
C     1.293673660990040e+01   7.133942643786360e+00  -4.515500999999986e-01 -1.44963877e+00   2.11589364e+00   4.30960960e-01
C     9.145688780683763e+00   6.949224300631193e+00  -3.810879000000007e-01 -1.17406060e-01   6.40047900e-02  -1.01764316e+00
C     1.050205217256510e+01   6.587049234291564e+00  -4.173761999999996e-01  1.36427058e+00  -2.32978037e+00   1.19212462e+00
C     1.092059582516823e+01   5.151614602575153e+00  -3.266091000000024e-01 -4.42413490e+00   1.42988090e+00  -3.93444040e-01
C     6.766692704155444e+00   6.349776048051558e+00  -4.198515000000000e-01  2.55839100e-02   1.10097174e+00  -9.95497510e-01
C     8.128933121430165e+00   5.960975118788951e+00  -4.953032999999998e-01 -3.90453800e-02   3.45614940e-01   1.46242324e+00
C     8.474950962744689e+00   4.604979426089365e+00  -3.788844000000005e-01 -6.04606960e-01  -5.74558020e-01  -2.97256370e-01
C     9.819264032831931e+00   4.196228592185799e+00  -3.017012999999977e-01  1.62926658e+00  -5.97588450e-01  -3.93514200e-01
C     1.015766330704019e+01   2.782753926222180e+00  -3.656723999999976e-01  2.03713588e+00   2.66069990e+00  -8.39346330e-01
C     4.354412829169165e+00   5.766699614303735e+00  -4.456091999999998e-01  5.08601630e-01  -3.62328940e-01   5.70418630e-01
C     5.730530920464846e+00   5.394708076050645e+00  -4.048802999999985e-01 -4.20737510e-01  -6.34084160e-01  -2.36654680e-01
C     6.070097103150001e+00   4.012882924882383e+00  -3.960705000000004e-01 -2.36983020e-01  -2.98473900e-02   3.12034460e-01
C     7.411155325658200e+00   3.627455727140126e+00  -3.990504000000001e-01  1.89774512e+00  -4.50251700e-02   1.92992110e-01
C     7.786789995942099e+00   2.266770045785460e+00  -4.076036999999992e-01 -1.19985307e+00  -1.75195303e+00  -2.24457000e-02
C     9.162330876579428e+00   1.851496269165271e+00  -4.939068000000013e-01 -1.73712777e+00  -1.06543115e+00   1.01217944e+00
C     3.327533075859237e+00   4.744623755552048e+00  -3.708518999999981e-01  2.66397119e+00   5.88136400e-01  -7.53698120e-01
C     3.710244786626603e+00   3.374634835578721e+00  -4.912458000000015e-01 -7.78416170e-01   4.36299120e-01   1.21762351e+00
C     5.082381151097987e+00   2.997782590097085e+00  -3.655439999999999e-01 -1.72056623e+00   1.32198673e+00  -8.59765960e-01
C     5.367132454534416e+00   1.646264219046950e+00  -3.514083000000028e-01  8.02116890e-01  -1.79441423e+00  -1.65131180e-01
C     6.719512564226495e+00   1.248010268323498e+00  -3.593429999999991e-01  2.04830431e+00   3.14545180e-01  -1.62228700e-02
C     1.150976243596409e+01   7.553786105576359e+00  -3.672054000000031e-01  1.87775643e+00   5.59026920e-01  -6.69016030e-01
C     2.662769870112407e+00   2.419541771488110e+00  -5.086842000000011e-01 -1.72889370e-01  -8.88076400e-01   3.42125270e-01
C     3.011474102729675e+00   1.017600153463842e+00  -5.582616000000016e-01  6.44761180e-01   1.30815617e+00   5.80063430e-01
C     4.363597624988756e+00   6.207422773506316e-01  -4.283144999999990e-01  7.40107900e-02   1.09414171e+00  -3.68145200e-02
C     6.284866562865576e-01   4.848999382643667e-01  -4.687614000000018e-01 -7.77683000e-02  -2.39722823e+00  -6.09537230e-01
C     2.021868895749003e+00   5.767085847758040e-02  -5.254010999999998e-01 -2.55618288e+00  -8.80362950e-01   5.54605820e-01
C     4.121852715023459e-01   5.186367146806605e-01   3.845427900000000e+00 -4.68771860e-01   8.10571500e-01  -1.24662048e+00
C     7.240720124901735e+00   7.662439395174251e+00   3.825299700000000e+00 -1.52898030e-01  -1.00016341e+00  -7.98849090e-01
C     4.164386945044352e+00   3.285493570565680e-01   3.808632000000000e+00  5.36378650e-01   1.16884843e+00   6.35010630e-01
C     9.683396100241453e+00   7.102576608028905e+00   3.851133300000000e+00 -1.55198945e+00  -2.64648553e+00   4.28259740e-01
C     1.103655103870615e+01   7.460306987829610e+00   3.880680900000000e+00 -3.02985890e-01   9.55871610e-01  -2.93028000e-03
C     1.202800310513745e+01   6.477961220391178e+00   3.899363399999999e+00  6.46273560e-01  -1.73470422e+00  -1.27825823e+00
C     4.525051250146208e+00   6.855481023216215e+00   3.835160700000000e+00 -5.58249350e-01  -9.14834330e-01   3.36383410e-01
C     5.560192104332584e+00   5.877413611010458e+00   3.796183500000000e+00 -3.14522390e-01  -5.53588390e-01  -1.44410490e-01
C     6.932305450203234e+00   6.271090641421670e+00   3.793781099999999e+00 -7.36196530e-01   6.25242190e-01   5.61566100e-01
C     7.956485568245673e+00   5.313660472387550e+00   3.892449600000000e+00 -9.98052190e-01  -1.63045998e+00  -6.59469560e-01
C     9.309764401014956e+00   5.657774929895185e+00   3.922850400000000e+00  2.52369400e-01   2.65494003e+00  -2.57046270e-01
C     1.029644373676769e+01   4.688955261226272e+00   3.906628500000000e+00  1.20397060e+00  -1.89815349e+00  -1.22873739e+00
C     1.164979891476108e+01   5.063071853174045e+00   3.736002000000000e+00  1.19151133e+00   1.79208190e+00   1.89114121e+00
C     3.816890816849325e+00   4.118200967760075e+00   3.768378900000000e+00  2.51782400e-01  -1.37504684e+00  -6.10677240e-01
C     5.195338326139136e+00   4.492783071850463e+00   3.763739100000000e+00  2.67960080e-01   6.85332300e-02  -3.50325240e-01
C     6.243978105674591e+00   3.496260581611174e+00   3.701183400000000e+00 -1.23147187e+00   1.78052230e-01   1.28763972e+00
C     7.579891470692486e+00   3.913658257382041e+00   3.802944000000000e+00  1.77670121e+00   5.02492900e-02   2.48163000e-02
C     8.635378899598827e+00   2.921100086406204e+00   3.818528400000000e+00 -1.02298422e+00  -1.22816752e+00  -8.58442570e-01
C     9.995380287583494e+00   3.261870060841604e+00   3.807087300000000e+00 -2.20340100e-02   2.05087983e+00   1.16876023e+00
C     2.145428944840599e+00   2.299177865082974e+00   3.869934300000000e+00 -1.22492218e+00  -1.91855880e-01  -1.81950981e+00
C     3.498035291043354e+00   2.697182357331853e+00   3.748401000000000e+00 -1.07455240e-01   9.87973590e-01   1.21649262e+00
C     4.492643374023311e+00   1.713790573025343e+00   3.859340100000000e+00  2.20470817e+00   2.21812430e-01  -8.26072880e-01
C     5.916920714125815e+00   2.105758185583493e+00   3.846192300000000e+00 -1.74070045e+00   8.02554980e-01  -8.44051520e-01
C     6.943215301047816e+00   1.156477096011534e+00   3.832672800000000e+00 -5.97235730e-01  -1.23880127e+00  -1.83283690e-01
C     8.289213165424496e+00   1.506383362002544e+00   3.717743700000000e+00  3.71770610e-01   1.67673881e+00   1.53048313e+00
C     1.743256759644371e+00   9.239403880651894e-01   3.750441000000000e+00  2.29844913e+00   4.02439580e-01   1.46114727e+00
