64
Lattice="9.86 0 0 4.93 8.53901048131456 0 0 0 30 " PBC="1 1 1" Properties=species:S:1:pos:R:3:force:R:3 Energy="-516.27924696"
C     4.904186224200000e+00   8.440441778765797e+00  -1.023405000000004e-01 -4.17528220e-01   5.16042850e-01  -3.71083230e-01
C     1.204013227500000e+00   6.171027597254520e-01  -1.774518000000000e-01 -4.60667640e-01   4.43005540e-01   1.28515716e+00
C     1.257858638200000e+00   7.942620371045360e-01   3.501931800000000e+00  8.97910000e-04  -8.30417050e-01  -1.44151640e-01
C     2.478008791000000e+00   1.514768029627653e+00   3.541639800000000e+00 -5.18783900e-02  -7.09903240e-01  -3.31389700e-01
C     7.343069894300000e+00   8.446041234888057e+00  -1.213361999999982e-01  1.76612111e+00   1.25774352e+00  -5.00670210e-01
C     3.676749630000000e+00   6.549752351766625e-01  -8.919750000000093e-02 -1.72725841e+00  -9.72225390e-01  -6.33906160e-01
C     3.705436659100000e+00   8.104700182867288e-01   3.524676300000000e+00  2.48063920e-01  -1.77014221e+00   2.63627660e-01
C     4.952091477900000e+00   1.457338658474098e+00   3.580185600000000e+00  1.08899787e+00   4.07624990e-01  -5.50697680e-01
C     9.803855631699999e+00   8.457539524840007e+00  -1.969773000000004e-01  1.67870127e+00   1.66519765e+00   5.48839320e-01
C     6.134222801799999e+00   6.424707082297504e-01  -1.857390000000017e-01 -6.16039170e-01   5.03492480e-01   3.82859170e-01
C     6.219343097199999e+00   7.670405255953440e-01   3.549903900000000e+00 -1.31900277e+00   1.08289850e-01  -1.05289510e-01
C     7.421690576300000e+00   1.530293743872494e+00   3.498433800000000e+00  2.23244090e-01  -1.68318183e+00  -2.08094670e-01
C     1.227587935340000e+01   8.484581119398383e+00  -1.028811000000012e-01  9.13213880e-01  -1.14276415e+00  -6.42567060e-01
C     8.598932720599999e+00   6.246668713789504e-01  -1.075949999999999e-01 -9.57947100e-02   9.43466230e-01   1.59320490e-01
C     8.660268231000000e+00   7.799098390699616e-01   3.498957000000000e+00 -2.81321560e-01   8.07636790e-01  -5.27179070e-01
C     9.896777060500000e+00   1.497284149499538e+00   3.457591200000000e+00 -5.34313580e-01  -6.54216970e-01   5.48676800e-01
C     1.212640135900000e+00   2.041697301662418e+00  -6.796020000000169e-02  6.55774640e-01   8.92107190e-01  -6.39953460e-01
C     2.454451525500000e+00   2.789757997883656e+00  -1.032753000000000e-01 -9.25937760e-01  -4.11133650e-01   6.54747970e-01
C     2.468889572800000e+00   2.921193948186114e+00   3.550488000000000e+00  8.60693640e-01   4.07047250e-01   1.49865860e-01
C     3.725710593900000e+00   3.598319803498420e+00   3.562472400000000e+00 -1.41192590e-01   7.81674850e-01   2.30421930e-01
C     3.663185622399999e+00   2.076928148831536e+00  -8.474999999999966e-02  9.36169900e-01  -7.73013310e-01  -1.21545190e-01
C     4.913780349300000e+00   2.758279448089766e+00  -1.094894999999987e-01 -2.66983030e-01   4.21113380e-01  -7.01599000e-02
C     4.974459035800000e+00   2.865251987268070e+00   3.539278500000000e+00 -1.37422400e+00   1.64697129e+00   2.53300000e-02
C     6.155243237199999e+00   3.629475151745643e+00   3.472878300000000e+00  1.43348660e+00   4.83834950e-01  -6.90707800e-02
C     6.159867725100000e+00   2.073386594234956e+00  -1.648002000000020e-01 -2.51609300e-01  -2.10553020e-01   2.54526570e-01
C     7.394188472699999e+00   2.811328904597814e+00  -1.318628999999980e-01 -7.62522250e-01  -1.29576428e+00  -7.79243100e-02
C     7.400606593199999e+00   2.936385360170662e+00   3.414888000000000e+00  6.01664910e-01   3.41662720e-01   9.53487710e-01
C     8.670757594800000e+00   3.626865117802326e+00   3.508842000000000e+00 -1.04684342e+00  -6.57230610e-01  -5.25288570e-01
C     8.608781233700000e+00   2.071442090768450e+00  -1.090929000000003e-01  6.67790840e-01  -2.06329620e-01   1.54893880e-01
C     9.865247393399999e+00   2.783112854538016e+00  -6.144390000000044e-02 -1.24812451e+00  -8.28696450e-01  -2.55693710e-01
C     9.876911576199998e+00   2.898782632060515e+00   3.516891900000000e+00  9.32310040e-01   1.24555833e+00  -1.05053450e-01
C     1.111632106980000e+01   3.641942448606863e+00   3.557742000000000e+00 -5.37461260e-01   8.46026800e-02  -1.07876890e-01
C     2.444712014699999e+00   4.216624258168722e+00  -6.911819999999835e-02 -4.43357530e-01  -6.53762260e-01  -2.51950240e-01
C     3.670405705999999e+00   4.935650696345969e+00  -8.665590000000023e-02 -2.19856110e-01  -1.33735563e+00  -3.30559200e-01
C     3.716404824500000e+00   5.042739707627221e+00   3.616113600000000e+00  7.30926460e-01  -2.79908470e-01  -5.65190270e-01
C     4.962666722300000e+00   5.753697207851393e+00   3.528443400000000e+00 -7.16152720e-01   3.94166190e-01   1.10503040e-01
C     4.880416722200000e+00   4.167151878540851e+00  -1.023695999999994e-01  9.38113950e-01   1.89629173e+00  -2.10955920e-01
C     6.120332181699999e+00   4.917159725321843e+00  -1.708457999999986e-01  1.58355000e-03  -7.43952260e-01   3.98086510e-01
C     6.195684569500000e+00   5.090788207257553e+00   3.482637900000000e+00 -7.85804850e-01  -2.87492169e+00   1.88470910e-01
C     7.426407797500000e+00   5.731439593914434e+00   3.513993900000000e+00  8.46575390e-01   1.83205642e+00  -4.42953300e-01
C     7.354797427599999e+00   4.223692765653961e+00  -1.448672999999978e-01  4.79015120e-01  -2.07718260e-01  -2.13635380e-01
C     8.591539889800000e+00   4.917516741350012e+00  -1.642368000000012e-01  5.81579920e-01   4.21059590e-01   1.30932370e-01
C     8.680173056699999e+00   5.025940058408870e+00   3.530446800000000e+00 -8.33174300e-01   1.20433738e+00   2.13361270e-01
C     9.875963931599999e+00   5.785649928897239e+00   3.602503200000000e+00  8.22178070e-01  -8.81103840e-01  -4.33441200e-01
C     9.831382828999999e+00   4.202131422631543e+00  -9.669269999999841e-02 -4.77333730e-01  -3.96299790e-01  -6.15638900e-02
C     1.104855072620000e+01   4.886875014583161e+00  -1.006695000000022e-01  1.21503578e+00   1.31032698e+00   1.84405080e-01
C     1.113486694100000e+01   5.076157210530806e+00   3.574010100000000e+00 -1.04604273e+00  -2.83332050e-01   5.98961930e-01
C     1.235754643030000e+01   5.793111401644767e+00   3.635279700000000e+00  5.37178600e-02  -1.58003830e+00  -5.29032630e-01
C     3.664848955100000e+00   6.344175076729891e+00  -1.702110000000019e-01  5.49690180e-01  -2.56864130e-01   1.00101763e+00
C     4.901118433100001e+00   7.024305382879585e+00  -9.898229999999941e-02  9.16206170e-01   4.85740390e-01  -6.06381100e-01
C     4.967586369299999e+00   7.163986857871844e+00   3.496055700000000e+00 -1.37971449e+00   1.19868919e+00   3.83994000e-02
C     6.178160736600000e+00   7.890267527012271e+00   3.503066700000000e+00  6.60904620e-01   4.82740390e-01  -3.65698110e-01
C     6.169594762999999e+00   6.329106711886358e+00  -1.548662999999983e-01 -2.11217942e+00  -1.40959460e-01  -9.29416300e-02
C     7.374009884099999e+00   7.044143041246511e+00  -2.026082999999979e-01  7.12163330e-01  -2.80402290e-01   3.82564230e-01
C     7.417304799000000e+00   7.188908899248878e+00   3.475499400000000e+00  3.43149220e-01  -9.24649480e-01   4.47897320e-01
C     8.653449005700001e+00   7.896214350080856e+00   3.500563800000000e+00 -1.11691749e+00   1.23338450e+00   3.38590140e-01
C     8.622589177700000e+00   6.344714912972436e+00  -2.142933000000014e-01 -2.30401020e-01  -2.22948810e-01   3.10811790e-01
C     9.855979091999998e+00   7.067746317845013e+00  -1.836300000000008e-01 -3.27373840e-01  -1.93173926e+00   7.81843400e-02
C     9.866827902099999e+00   7.202915865089745e+00   3.592631400000000e+00  3.56684500e-01  -6.29929900e-01  -3.80419930e-01
C     1.111183092440000e+01   7.872429192559132e+00   3.558765600000000e+00 -4.38730100e-02   1.63054074e+00   2.33205890e-01
C     1.109561847150000e+01   6.314524216739138e+00  -1.136201999999997e-01 -1.55804956e+00   6.83839470e-01  -4.84497330e-01
C     1.229645594090000e+01   7.040400051392709e+00  -1.378266000000004e-01  1.48590120e-01   6.22030580e-01   1.84445870e-01
C     1.232468521950000e+01   7.190716693157598e+00   3.562966200000000e+00  1.73261593e+00   2.80346600e-01  -9.83951500e-02
C     1.357466290760000e+01   7.909465955054664e+00   3.477909600000000e+00  2.14862840e-01  -8.63591720e-01   6.54121120e-01
