52
Lattice="8.88768389401873 1.33226762955019e-15 0 4.44384194700937 7.69696003302603 0 0 0 30 " PBC="1 1 1" Properties=species:S:1:pos:R:3:force:R:3 Energy="-417.4314295"
C     1.250128440413982e+01   6.741743968488109e+00  -2.146259999999955e-02  3.13798180e-01  -2.52818010e-01  -3.85492570e-01
C     8.646069096967564e+00   6.475566388247444e+00   1.458849000000000e-01  1.84398570e+00   5.95564280e-01  -6.72528680e-01
C     1.006039609675162e+01   6.091463606417548e+00   7.934430000000001e-02 -2.09548200e-01   5.39456900e-02   7.59594000e-03
C     1.033822696065277e+01   4.684673442361583e+00   3.525570000000000e-02  3.50227472e+00   2.03055371e+00   1.06743150e-01
C     6.274302529161748e+00   5.900532738943769e+00   4.163910000000001e-02  1.92114014e+00   2.48099027e+00   7.12218520e-01
C     7.626440893838543e+00   5.481535634878667e+00   1.540557000000000e-01  4.23591300e-01   3.60248500e-02  -8.64623750e-01
C     7.949966629073894e+00   4.094242948153096e+00   2.921160000000000e-02  1.84038659e+00   1.13283783e+00   9.27975110e-01
C     9.361751040247309e+00   3.704927015294881e+00   1.322622000000000e-01 -1.05465011e+00   9.08707880e-01  -8.91387070e-01
C     9.777023847495931e+00   2.378307232367391e+00   9.919050000000000e-02 -1.12594351e+00  -1.49517995e+00  -8.92753240e-01
C     3.950766222285867e+00   5.364146141707525e+00  -1.794323999999996e-01 -1.51104440e+00  -2.15159910e-01   1.40773927e+00
C     5.296436352835112e+00   4.969000762231389e+00  -7.148249999999834e-02 -1.79723462e+00  -2.52881314e+00  -5.31486900e-01
C     5.588226124171264e+00   3.553283509993430e+00  -8.038409999999985e-02  9.98752470e-01   8.20146630e-01  -5.16463230e-01
C     6.941027954458221e+00   3.146251176355763e+00  -8.637750000000111e-02  3.22100480e-01  -2.86605350e-01   6.97318500e-01
C     7.327374727940483e+00   1.782245873109757e+00  -3.416100000000100e-02  1.89489200e-01   7.66036500e-02   1.10795140e-01
C     8.705384562752940e+00   1.411469069088602e+00   2.938320000000000e-02  1.07634640e+00   1.88341160e-01   2.95090420e-01
C     2.920989128460735e+00   4.333628642042935e+00  -1.002489000000004e-01 -2.19329160e+00   3.11307779e+00  -3.78406670e-01
C     3.268814946907626e+00   3.034657648026411e+00  -2.099897999999989e-01 -1.34620463e+00  -4.28263339e+00   9.98150260e-01
C     4.589313601297457e+00   2.580624751600753e+00  -1.598217000000020e-01  5.37063670e-01   1.41218650e-01  -3.84263660e-01
C     4.942601168080091e+00   1.212107259476361e+00  -1.298630999999979e-01 -7.74812460e-01  -2.16004744e+00   8.09939000e-01
C     6.300087341051134e+00   8.251216582368294e-01   1.098030000000000e-02  5.82457150e-01  -2.16478960e+00  -6.00606190e-01
C     1.114409876817385e+01   7.089217610261636e+00   4.065390000000000e-02 -2.62062034e+00   9.69333740e-01  -1.14505800e-01
C     2.256787579865028e+00   1.958815136802762e+00  -6.313859999999849e-02 -9.91546730e-01   3.75213774e+00   1.48566760e-01
C     2.561988999567651e+00   6.373139862344221e-01   9.373800000000000e-03  2.29860010e-01  -3.42747147e+00   2.50324100e-02
C     3.897970976922972e+00   1.584697852128586e-01  -2.870730000000066e-02  1.08369946e+00   1.66272926e+00   2.40153200e-01
C     2.209192920785216e-01   5.912573786245100e-02   2.607600000000000e-02 -3.07791933e+00  -1.24692729e+00   8.53646200e-02
C     5.962695933496008e+00   7.318598256717281e+00   1.040001000000000e-01  1.85486241e+00   8.72033900e-02  -7.94640590e-01
C     8.381986681450181e-01   9.879707827979571e-01   3.316944300000000e+00  9.49700130e-01  -9.72714410e-01   7.53538580e-01
C     3.294126135675393e+00   3.497350086303421e-01   3.192443400000000e+00 -7.39924880e-01   1.14834783e+00   1.02150762e+00
C     4.654823296072971e+00   8.130135704136363e-01   3.237899100000000e+00  4.53265990e-01  -3.03938586e+00   5.10834830e-01
C     1.013160128803094e+01   7.458943856208298e+00   3.334838400000000e+00 -9.47528640e-01   3.67014831e+00   5.65685630e-01
C     7.022740162839258e+00   2.141456686202633e-01   3.479408700000000e+00 -1.28095800e-01  -1.02450388e+00  -2.21176860e-01
C     1.247332859452042e+01   6.912341622711438e+00   3.535491600000000e+00  9.88739770e-01   5.97562880e-01  -6.75108150e-01
C     4.949325460359588e+00   7.313611781161845e+00   3.451460400000000e+00  5.78097270e-01  -4.05450860e-01  -7.17323450e-01
C     6.005523815110571e+00   6.336882100609301e+00   3.359813400000000e+00 -1.04407238e+00  -6.85903410e-01   1.16014339e+00
C     7.382667590026633e+00   6.674637791557752e+00   3.362123400000000e+00 -5.04528460e-01   1.62178336e+00  -2.54156910e-01
C     8.385926589024475e+00   5.732366400454715e+00   3.548790000000000e+00  1.45039095e+00   1.90915790e-01  -1.10672958e+00
C     9.754597557190149e+00   6.155751079615317e+00   3.461462400000000e+00  3.14220080e-01  -3.03622485e+00  -1.30822550e-01
C     1.078762629770839e+01   5.131350200147369e+00   3.410077200000000e+00 -3.74556270e-01   6.36981900e-01   1.01255281e+00
C     3.269946883964082e+00   5.553450256678964e+00   3.443594100000000e+00 -2.56367900e-01  -2.31403380e+00  -2.42691300e-02
C     4.291208153241950e+00   4.503907565151422e+00   3.416865000000000e+00 -5.78847440e-01   1.09338554e+00  -1.97959580e-01
C     5.669778223738357e+00   4.948921625631528e+00   3.471998100000000e+00 -4.60988670e-01  -5.39125560e-01  -7.28405130e-01
C     6.724944940590714e+00   3.985902155132422e+00   3.466394400000000e+00 -1.25102469e+00  -5.93695970e-01   8.11454170e-01
C     8.075194672964443e+00   4.372866974579873e+00   3.524804700000000e+00 -5.75350370e-01  -8.16210570e-01   2.65783290e-01
C     9.049531593193029e+00   3.358992688557753e+00   3.497856900000000e+00  1.09707666e+00  -1.50830510e-01  -3.23987970e-01
C     1.041797952491566e+01   3.758016104375403e+00   3.472171500000000e+00  5.18702910e-01  -1.03038533e+00  -1.15733820e+00
C     2.531343333662019e+00   2.721490742559398e+00   3.274150800000000e+00  4.14809400e-01   3.04881400e-01   7.98063630e-01
C     3.890222073894918e+00   3.121983969864378e+00   3.279183300000000e+00  2.64894746e+00   2.53287160e-01   9.22537640e-01
C     5.017362010325244e+00   2.133746564370982e+00   3.367406700000000e+00 -1.36366799e+00   3.04234670e+00  -2.58917110e-01
C     6.388439807755114e+00   2.600796328690575e+00   3.546022200000000e+00 -1.63036366e+00  -7.42872010e-01  -1.28773234e+00
C     7.365739526282333e+00   1.582400232590031e+00   3.500795100000000e+00  3.44843140e-01   3.55550440e-01  -1.98234220e-01
C     8.722007642678221e+00   1.968142312967115e+00   3.386769900000000e+00 -4.52560000e-04   9.50366250e-01   8.78850920e-01
C     2.226859014959480e+00   1.311216780454655e+00   3.288992700000000e+00  9.00866300e-02   1.44974223e+00  -9.54794700e-01
