64
Lattice="9.86 0 0 4.93 8.53901048131456 0 0 0 30 " PBC="1 1 1" Properties=species:S:1:pos:R:3:force:R:3 Energy="-510.15954691"
C     5.046697241200000e+00   8.366050431804666e+00  -3.648237000000023e-01  2.04920066e+00   3.85414941e+00   4.80887890e-01
C     1.420779115700000e+00   6.578032700575336e-01  -3.076475999999992e-01 -3.29889722e+00  -4.43678055e+00  -1.21701918e+00
C     1.155614973800000e+00   8.680730729134464e-01   3.755433600000000e+00 -1.97315656e+00  -8.88167690e-01  -9.20662250e-01
C     2.368419722400000e+00   1.542086031955269e+00   3.800692800000000e+00  1.06383521e+00   1.01770370e-01   2.30888600e-02
C     7.498636783799999e+00   8.425011103707599e+00  -4.977353999999998e-01  2.24439251e+00   1.23091022e+00   1.44685621e+00
C     3.835412904600000e+00   5.981450463884896e-01  -3.783893999999997e-01 -1.31341981e+00  -1.38810691e+00   8.43804450e-01
C     3.576734029799999e+00   8.780131642330048e-01   3.598568100000000e+00  1.05744744e+00  -3.38410203e+00   2.74176640e-01
C     4.770783678000000e+00   1.563043496156542e+00   3.524656500000000e+00  1.72250434e+00   1.83231738e+00   4.22080230e-01
C     1.002292698510000e+01   8.366191410867691e+00  -2.427822000000006e-01 -2.94173111e+00   2.36295786e+00  -1.81185586e+00
C     6.258765842200000e+00   5.456682159232303e-01  -4.521273000000008e-01  3.22424124e+00  -5.72487360e-01   1.57672768e+00
C     6.011349158000000e+00   8.240146821002097e-01   3.458211600000000e+00  3.52845280e-01   1.86398615e+00   9.93094380e-01
C     7.268229930700000e+00   1.517281999703070e+00   3.574129500000000e+00 -5.55003570e-01   1.20726381e+00  -3.49273830e-01
C     1.248161599350000e+01   8.387791350217478e+00  -3.996752999999984e-01 -1.32080887e+00  -8.18087470e-01   1.53961837e+00
C     8.801227776999999e+00   5.378442621808256e-01  -2.950751999999994e-01 -2.76750410e+00   3.16875020e+00  -1.23147776e+00
C     8.499490035699999e+00   8.641764662611080e-01   3.584593200000000e+00  2.13364968e+00  -1.00492021e+00   9.90531720e-01
C     9.789487294600001e+00   1.559172591925749e+00   3.822146700000000e+00 -3.06699546e+00   8.22014100e-02  -1.42612503e+00
C     1.359786191000000e+00   2.017591077346645e+00  -2.296733999999994e-01 -2.41690454e+00   1.91023074e+00  -6.51324380e-01
C     2.536955962900000e+00   2.717258895644894e+00  -1.187394000000026e-01  2.27046606e+00   4.61666740e-01   2.45417500e-02
C     2.402871745600000e+00   2.924153056877853e+00   3.949043400000000e+00 -8.01069760e-01   2.12967650e+00  -8.30650000e-04
C     3.629669510399999e+00   3.735066335198598e+00   4.005891300000000e+00 -1.03582894e+00  -2.76519170e-01  -2.30664055e+00
C     3.735597758200000e+00   1.979258946961296e+00  -1.421637000000011e-01  4.32313319e+00  -3.03784150e-01  -6.62690260e-01
C     5.132580256900000e+00   2.586171934700754e+00  -1.281288000000025e-01 -8.03234829e+00   6.15426481e+00  -4.33820000e-03
C     4.820473690299999e+00   3.032458706372295e+00   3.683469300000000e+00  5.00056000e-01  -1.74883049e+00   5.67254000e-02
C     6.104631660000000e+00   3.678125480834605e+00   3.548841300000000e+00 -2.64772920e+00   1.02654224e+00   2.88898760e-01
C     6.252984184699999e+00   1.966061991654561e+00  -3.328253999999973e-01  4.14790328e+00  -1.98115711e+00  -5.75417260e-01
C     7.478016615100000e+00   2.739586529467788e+00  -3.493613999999994e-01  7.24253230e-01  -3.08238412e+00  -4.76301840e-01
C     7.301204728699999e+00   2.945220076583585e+00   3.614140800000000e+00 -1.11638060e+00   2.26767010e-01  -2.61881190e-01
C     8.455040465500000e+00   3.711628373842990e+00   3.715510800000000e+00  2.94911851e+00  -1.18024721e+00  -7.99239290e-01
C     8.722962202900000e+00   2.066111015745577e+00  -3.394478999999997e-01  1.49012767e+00  -2.06631671e+00  -5.22657910e-01
C     9.967777786599999e+00   2.797500745636397e+00  -3.874305000000007e-01  6.94621100e-02  -1.98906733e+00   2.31199269e+00
C     9.716076981699999e+00   2.974192939142225e+00   3.784061700000000e+00 -9.25723000e-03  -1.13872397e+00   5.85134450e-01
C     1.097351730940000e+01   3.561189026497503e+00   3.849138900000000e+00  8.65002210e-01   4.11081208e+00   5.85283000e-01
C     2.594009620400000e+00   4.128721378754773e+00  -4.745789999999772e-02 -1.01596827e+00  -4.44180480e-01   6.93410650e-01
C     3.796981237500000e+00   4.828863282914871e+00  -5.612190000000084e-02  2.13151187e+00  -3.96730810e-01  -1.18334780e-01
C     3.581804879900000e+00   5.188578663076608e+00   3.819242100000000e+00 -2.18674355e+00  -9.54992160e-01   8.77332860e-01
C     4.757909081599999e+00   5.889473537180834e+00   3.649722300000000e+00  3.42646362e+00  -2.58132873e+00  -8.99253900e-01
C     5.049976036299999e+00   4.107862027783915e+00  -1.757495999999996e-01  9.65521130e-01  -7.30160590e-01   8.22527990e-01
C     6.294573861899999e+00   4.852714617767816e+00  -2.495405999999996e-01 -8.11823580e-01  -2.24272740e-01  -5.60447030e-01
C     6.025871754800000e+00   5.099826322900109e+00   3.479344500000000e+00  1.20251829e+00   2.14209414e+00   1.11639513e+00
C     7.305072658800000e+00   5.873225508039490e+00   3.482539500000000e+00 -1.63743354e+00  -1.47050938e+00  -5.71849250e-01
C     7.513289335400000e+00   4.097365961492003e+00  -4.218222000000011e-01 -1.01063481e+00   2.54411089e+00   1.42396099e+00
C     8.707089377700001e+00   4.828858501069003e+00  -3.032210999999982e-01  1.88824054e+00   1.59147462e+00  -2.13953200e-02
C     8.520538818599999e+00   5.106763927354690e+00   3.540532800000000e+00 -1.28396801e+00   1.40130705e+00   5.66819870e-01
C     9.762838771199998e+00   5.810451314056189e+00   3.603481500000000e+00 -3.96870000e-02  -2.71346519e+00   9.29311300e-02
C     1.000824243780000e+01   4.201008201193003e+00  -1.292291999999975e-01 -3.51944988e+00  -2.88792064e+00  -1.59179227e+00
C     1.121395587440000e+01   4.799143000768916e+00   3.841650000000001e-02  9.59243660e-01   3.33294738e+00  -5.17243160e-01
C     1.091839083820000e+01   5.021793087969257e+00   3.828681000000000e+00  2.84768825e+00   1.91421519e+00  -6.81196290e-01
C     1.215589020330000e+01   5.888042484414490e+00   3.812217600000000e+00  4.97261000e-03  -3.35786554e+00   6.90254120e-01
C     3.809461926900000e+00   6.258034222128489e+00  -7.927590000000251e-02 -3.64957490e-01   1.36752900e-02  -1.02026011e+00
C     4.973274997700000e+00   7.014649982169430e+00  -3.780746999999991e-01  3.80159663e+00  -3.91253290e+00   2.07672804e+00
C     4.834506491599999e+00   7.270307870550524e+00   3.560120700000000e+00 -1.54958520e+00   1.77095754e+00  -5.61846950e-01
C     6.017999826600000e+00   8.023924046990052e+00   3.443097900000000e+00  3.08380990e+00  -1.11282270e+00   1.49970595e+00
C     6.327244873300000e+00   6.287936299807562e+00  -2.514402000000011e-01 -3.43261579e+00   2.68574400e-02  -1.62379217e+00
C     7.512174613099999e+00   7.015808042770727e+00  -4.265349000000001e-01 -1.44327460e+00  -7.14777240e-01  -5.18188600e-02
C     7.320307837800000e+00   7.306319268667620e+00   3.463701000000000e+00 -1.32497304e+00  -1.20147340e+00   3.87430100e-02
C     8.584646911699998e+00   7.913982152307431e+00   3.563542800000000e+00 -9.93139270e-01   2.44654037e+00  -1.27674063e+00
C     8.684682281200001e+00   6.268177456507367e+00  -3.822080999999997e-01  1.34124269e+00  -2.08914590e-01   9.52656630e-01
C     9.894338633200000e+00   6.998637885887648e+00  -2.255828999999991e-01  3.02755550e+00  -3.47165123e+00   4.70149910e-01
C     9.828073960899999e+00   7.186536505967219e+00   3.473088000000000e+00 -2.72211184e+00   2.26189790e+00   1.49807354e+00
C     1.096815618090000e+01   7.986197417837839e+00   3.640144800000000e+00 -5.08164220e-01  -7.48747650e-01  -1.11199758e+00
C     1.116577232220000e+01   6.227849076252003e+00  -2.478690000000228e-02  3.78381540e-01   1.69325336e+00  -4.50237860e-01
C     1.243769822240000e+01   6.943533943458112e+00  -9.662189999999882e-02 -1.33577525e+00   1.24453469e+00  -8.39529640e-01
C     1.214235079640000e+01   7.287259684935630e+00   3.777991500000000e+00  3.89572580e+00   9.77125600e-02  -1.39864501e+00
C     1.345655672170000e+01   7.989895321716308e+00   3.569301300000000e+00 -1.63470124e+00  -8.64680080e-01   1.25199282e+00
