64
Lattice="9.86 0 0 4.93 8.53901048131456 0 0 0 30 " PBC="1 1 1" Properties=species:S:1:pos:R:3:force:R:3 Energy="-515.54699706"
C     4.898498532500000e+00   8.433054083068816e+00  -1.079628000000028e-01  4.68710440e-01   1.39096300e+00  -2.93616900e-01
C     1.208609811600000e+00   6.327528019628816e-01  -1.729962000000000e-01  1.25064800e-01  -3.15573780e-01   9.53088130e-01
C     1.251455504900000e+00   7.681011560870648e-01   3.470555100000000e+00  3.28734300e-01   1.10973295e+00  -1.00383670e-01
C     2.483155563100000e+00   1.503885146160998e+00   3.544395900000000e+00  5.71185850e-01  -2.52499530e-01  -7.67136600e-02
C     7.380170461399999e+00   8.456671705204922e+00  -1.382423999999993e-01 -2.01404770e+00  -1.23515007e+00  -7.28054800e-01
C     3.623759475700000e+00   6.134084422313848e-01  -1.338258000000003e-01  3.40818770e+00   1.80064216e+00   3.14279000e-01
C     3.732338239400000e+00   7.599244558217312e-01   3.516846900000000e+00 -1.09282620e-01   2.06381857e+00  -6.66508900e-02
C     4.995277439800000e+00   1.481723596091939e+00   3.550226700000000e+00 -2.47920976e+00   1.21579693e+00  -1.14692500e-01
C     9.845650248999998e+00   8.472286822889490e+00  -1.856919000000019e-01 -2.22142306e+00  -1.11700571e+00   2.06581280e-01
C     6.104861743099999e+00   6.380870364196328e-01  -1.909718999999974e-01  2.11739440e+00  -6.92749220e-01   9.02100600e-02
C     6.211549556000000e+00   8.045081665596976e-01   3.520775700000000e+00 -4.03181110e-01  -2.81403380e-01  -4.78116940e-01
C     7.429222926100000e+00   1.516524418693284e+00   3.427133100000000e+00 -9.31730800e-01   5.58710180e-01   2.73782360e-01
C     1.229058756470000e+01   8.445701723831371e+00  -1.403981999999999e-01  1.21489200e-02   7.32752520e-01   8.26121400e-02
C     8.602490257900000e+00   6.187068982342249e-01  -1.095927000000003e-01 -4.34135300e-02   5.32219100e-01   6.06156800e-02
C     8.619436984999998e+00   8.217605541136992e-01   3.454100400000000e+00  1.85623050e+00  -1.84040787e+00  -5.05020930e-01
C     9.871524762399998e+00   1.478977279541362e+00   3.471196200000000e+00  7.04600650e-01   1.14914156e+00   7.85238000e-02
C     1.250202644000000e+00   2.058374928421011e+00  -8.997869999999963e-02 -2.14713122e+00  -2.79061320e-01  -9.63258000e-03
C     2.435777474300000e+00   2.789892060348193e+00  -3.366929999999968e-02  1.24203289e+00  -1.12277863e+00   3.42869710e-01
C     2.494648970700000e+00   2.936276146226623e+00   3.636647700000000e+00 -1.17382952e+00  -8.60036920e-01  -3.17647100e-01
C     3.712999328400000e+00   3.626511944328874e+00   3.640751700000000e+00  3.88614900e-01   4.56703800e-02   1.95469800e-01
C     3.674346698700000e+00   2.060030898723398e+00  -1.781880000000058e-02 -1.39595130e-01  -4.08978700e-01  -8.19194360e-01
C     4.929735357600000e+00   2.749731471648762e+00  -7.495499999999922e-02 -1.02392051e+00   1.00561997e+00  -2.12712890e-01
C     4.916648574000000e+00   2.926380713931875e+00   3.558118800000000e+00  2.53882126e+00  -8.26629960e-01  -5.97960120e-01
C     6.187312887200000e+00   3.651033420724290e+00   3.396899100000000e+00 -1.20140239e+00  -9.87983810e-01   5.70340940e-01
C     6.148442104999999e+00   2.041024342246490e+00  -2.109734999999979e-01 -1.52761270e-01   1.16730174e+00   9.84777450e-01
C     7.368653537699999e+00   2.779909273976235e+00  -1.388027999999970e-01  1.42537965e+00   9.54605200e-02  -3.10404760e-01
C     7.424092127200000e+00   2.943107610780938e+00   3.386940600000000e+00 -9.76567060e-01  -1.20153324e+00   3.34283630e-01
C     8.634899584899999e+00   3.595125701238271e+00   3.491331600000000e+00  2.02941104e+00   1.90904606e+00  -4.85232730e-01
C     8.640660437799999e+00   2.072600749100482e+00  -8.102879999999857e-02 -1.86781741e+00  -1.18808463e+00  -4.81199800e-01
C     9.847720208099998e+00   2.764393379593446e+00  -6.528300000000087e-02  6.00318540e-01   1.16839385e+00   2.39117920e-01
C     9.910679808399999e+00   2.919959890391544e+00   3.521715000000000e+00 -1.52526670e+00  -9.23323920e-01  -1.63269000e-03
C     1.110934408450000e+01   3.650711073078670e+00   3.601711200000000e+00  4.59309880e-01  -3.74530050e-01   2.42021530e-01
C     2.424142378500000e+00   4.187837204478127e+00   8.174700000000000e-03  2.40961900e-02   4.91517930e-01  -1.55744220e-01
C     3.637541882300000e+00   4.883552570995498e+00  -5.159460000000138e-02  1.61320798e+00   7.82419080e-01   1.17242000e-03
C     3.733502902600000e+00   5.035891848172786e+00   3.689878200000000e+00 -8.83914190e-01   1.19003000e+00  -7.02267950e-01
C     4.922240032099999e+00   5.781678008172466e+00   3.542937000000000e+00  1.93109440e+00  -5.58986080e-01  -3.65100600e-01
C     4.902878985399999e+00   4.211148959258842e+00  -7.177320000000265e-02 -6.64104610e-01  -2.01550185e+00  -5.34764900e-02
C     6.116256402799999e+00   4.895700081914241e+00  -1.509123000000017e-01  1.33600374e+00   1.01159610e+00  -4.93037370e-01
C     6.177657827299999e+00   5.037834729227300e+00   3.392001900000000e+00  8.82640220e-01   2.67653725e+00   1.01377155e+00
C     7.486169306799999e+00   5.794988190758167e+00   3.467211900000000e+00 -2.91534977e+00  -2.20172466e+00  -8.65184850e-01
C     7.390324585200000e+00   4.217002450942881e+00  -1.869867000000021e-01 -7.46186950e-01  -3.47536770e-01   2.85150650e-01
C     8.633948686499998e+00   4.966239395857740e+00  -1.875098999999985e-01 -1.53008502e+00  -2.64192733e+00   3.98390330e-01
C     8.675023326600000e+00   5.036992868184076e+00   3.485831700000000e+00 -3.64137270e-01   9.45697900e-02   5.89366130e-01
C     9.890878019700001e+00   5.759208968336023e+00   3.617392800000000e+00 -9.99114470e-01   8.19455710e-01  -6.47025470e-01
C     9.816727713800001e+00   4.219598993249640e+00  -2.860259999999926e-02  1.42539124e+00  -7.89078570e-01  -6.03901670e-01
C     1.107548795040000e+01   4.912656336584798e+00  -4.413899999999416e-03 -1.40232820e+00  -3.63269770e-01  -2.04437780e-01
C     1.108589227170000e+01   5.073516350759657e+00   3.648731700000000e+00  2.26684116e+00  -8.23826270e-01   2.77834250e-01
C     1.235418934680000e+01   5.748694628561685e+00   3.685276200000000e+00 -4.63597620e-01   1.19786465e+00  -2.12867130e-01
C     3.670885838700000e+00   6.306587206497978e+00  -1.181045999999988e-01 -1.03939020e-01   3.62257390e-01   8.07920940e-01
C     4.920993284400000e+00   7.026236138539217e+00  -1.022657999999979e-01 -1.31714972e+00  -2.33628250e-01  -6.08761250e-01
C     4.956304261500000e+00   7.218793130396047e+00   3.479572200000000e+00  2.32337190e-01  -1.06046959e+00  -3.51928940e-01
C     6.206445181899999e+00   7.909660900663923e+00   3.411550800000000e+00 -6.87467890e-01  -9.37332390e-01   3.68565980e-01
C     6.124122316399999e+00   6.331747315487194e+00  -2.106417000000000e-01  1.48209986e+00  -8.53171450e-01   5.34940900e-01
C     7.388754183000000e+00   7.017237387734975e+00  -2.284064999999984e-01 -1.72036981e+00   1.38145294e+00   1.05500860e-01
C     7.432997087600000e+00   7.192418432556157e+00   3.437135100000000e+00 -5.29601500e-01   2.78913160e-01  -1.83269370e-01
C     8.629100277999999e+00   7.910574489395178e+00   3.428332200000000e+00  1.45269123e+00  -8.62342000e-01   9.59892700e-01
C     8.607596061699999e+00   6.353840382692202e+00  -2.450541000000008e-01  1.14568400e-01  -4.45831740e-01   4.74163380e-01
C     9.827315825499999e+00   7.020250719143261e+00  -1.663488000000015e-01  6.05428390e-01   2.19700390e+00  -1.71135460e-01
C     9.861010452799999e+00   7.184132006006155e+00   3.565094400000000e+00  4.71640200e-01   9.28251640e-01  -4.22440330e-01
C     1.108240326140000e+01   7.938319783807213e+00   3.545044800000000e+00  1.75281363e+00  -2.14523728e+00   3.90250210e-01
C     1.103347651170000e+01   6.319394868316930e+00  -8.482349999999883e-02  2.05285072e+00   2.63280260e-01   1.41573230e-01
C     1.230570452230000e+01   7.032457576184841e+00  -8.250569999999868e-02 -8.91334640e-01  -2.52216230e-01  -4.00398850e-01
C     1.236123342940000e+01   7.193937522520549e+00   3.588031200000000e+00 -8.97481100e-01  -1.50407870e-01  -4.61877730e-01
C     1.359404273760000e+01   7.904415130355744e+00   3.430593000000000e+00 -1.31451545e+00   9.43306130e-01   1.18777385e+00
