76
Lattice="10.7446858958278 0 0 5.37234294791388 9.3051709414712 0 0 0 30 " PBC="1 1 1" Properties=species:S:1:pos:R:3:force:R:3 Energy="-612.39379192"
C     6.206549618590101e-02   1.526494682365120e-02  -1.044279000000010e-01 -3.54939700e-01   9.92004750e-01  -3.41326960e-01
C     1.250907066419214e+01   8.495967778889224e+00  -5.174399999999935e-02 -5.00642480e-01   5.94093380e-01   3.13983470e-01
C     1.390944502542062e+01   8.360834364430168e+00  -2.886120000000147e-02  1.02583800e-01  -1.45568212e+00   5.90331400e-02
C     1.445824721043085e+01   7.017023729699727e+00  -6.109650000000144e-02 -2.86168240e-01   1.26642630e-01   1.07049060e-01
C     8.287421738414787e+00   8.972193121203981e+00  -1.437804000000007e-01 -1.19197370e+00   1.04527253e+00  -7.03261770e-01
C     9.714374477026084e+00   8.853031846560015e+00  -1.762712999999998e-01 -1.70182348e+00  -1.67927483e+00   8.49433980e-01
C     1.023177531749356e+01   7.513652706438039e+00  -1.183350000000019e-01  7.97074120e-01   7.80023000e-02  -4.27775350e-01
C     1.165268110805063e+01   7.361124484578875e+00  -8.864819999999796e-02 -7.21672690e-01   3.63551090e-01  -1.72201750e-01
C     1.219005610471249e+01   6.071709645922648e+00  -1.915313999999988e-01  1.83772416e+00  -2.26121360e-01   6.44043660e-01
C     1.361166717645203e+01   5.848207163235728e+00  -1.165037999999967e-01 -4.77267050e-01   2.52591772e+00  -1.07455899e+00
C     5.991127906724974e+00   7.994827562227490e+00  -9.373740000000197e-02 -8.99245820e-01   1.73242230e-01   1.09399370e-01
C     7.397766795897160e+00   7.839044391573514e+00  -1.249953000000019e-01  1.67255882e+00  -5.71368140e-01  -4.69328530e-01
C     8.005260753167549e+00   6.522590028889579e+00  -2.249382000000004e-01 -2.10179018e+00  -3.22236900e-01   1.19622062e+00
C     9.400714048253827e+00   6.324181452038522e+00  -1.916067000000012e-01 -1.42102890e-01   2.83890684e+00  -1.44975100e-01
C     9.970773090061179e+00   5.064308670082608e+00  -2.703030000000020e-01 -2.40965800e-02  -5.46619420e-01   4.04704680e-01
C     1.138677753097467e+01   4.953973536178651e+00  -2.814675000000015e-01 -1.14212088e+00  -2.04732775e+00  -7.84460880e-01
C     1.193166961733903e+01   3.634129113617854e+00  -4.373049000000009e-01  5.82609090e-01   2.61900050e-01   1.06939973e+00
C     5.102897118599962e+00   6.832801816463794e+00  -8.900699999999873e-02  1.75114013e+00   4.71975190e-01   3.97165800e-02
C     5.693599280745831e+00   5.508324721498810e+00  -1.259949000000020e-01  1.84210160e-01   1.96959782e+00  -3.06854610e-01
C     7.119354094326136e+00   5.367635003368060e+00  -1.389015000000029e-01  3.79324870e-01   9.16470010e-01  -4.50933540e-01
C     7.679480909657817e+00   4.076039125695207e+00  -1.585886999999992e-01  1.07894539e+00   6.06582480e-01  -1.14740000e-01
C     9.116160382626948e+00   3.931236149802141e+00  -2.312994000000010e-01 -5.03316180e-01  -1.98991850e-01  -2.73181960e-01
C     9.687067824832964e+00   2.642339609167271e+00  -2.719565999999993e-01 -1.15034471e+00  -8.34121260e-01   2.58418920e-01
C     1.108980945525893e+01   2.497122553167375e+00  -3.547682999999999e-01  3.83793800e-02  -2.29302410e-01  -7.94112700e-02
C     3.422380429987708e+00   4.596450444425390e+00  -3.342140999999970e-01  1.42277655e+00  -9.87487250e-01   9.36047720e-01
C     4.849024903560533e+00   4.410606639894616e+00  -2.525096999999974e-01  1.68357240e-01  -1.34083164e+00   9.51401200e-01
C     5.450810746446546e+00   3.086161368614246e+00  -1.045383000000015e-01 -2.42068676e+00   1.49496158e+00  -1.55298298e+00
C     6.835349052361311e+00   2.952528692124393e+00  -1.275581999999993e-01  2.61938770e-01  -1.18658020e-01   5.61215270e-01
C     7.399241450313506e+00   1.675278038179481e+00  -6.356849999999881e-02  4.80030740e-01  -1.77511210e+00  -3.32525440e-01
C     8.797677792546201e+00   1.490385594325613e+00  -1.553538000000003e-01  1.17604169e+00   1.11877128e+00   4.44531500e-01
C     9.357896582389186e+00   2.010929325638272e-01  -4.269569999999945e-02  1.69801770e+00  -6.09029520e-01  -5.94656710e-01
C     2.605368589690237e+00   3.453372166884851e+00  -3.754847999999988e-01 -8.82725650e-01  -2.84487080e-01  -3.04874200e-01
C     3.171063354978727e+00   2.155542289940743e+00  -2.915588999999983e-01 -7.87995130e-01  -7.81582280e-01  -3.74832920e-01
C     4.557579757567681e+00   1.974873649279960e+00  -2.137382999999993e-01  1.52786387e+00   3.90367750e-01   9.29211740e-01
C     5.138354044835668e+00   6.972462289636870e-01  -1.036791000000008e-01  1.55911897e+00  -1.05515146e+00  -3.30394480e-01
C     6.584607892516569e+00   4.968733305271970e-01  -2.932739999999967e-02 -1.42027110e+00   1.18274560e+00  -2.85402850e-01
C     9.167081812937947e-01   1.205099940355212e+00  -2.787810000000022e-01 -4.40715870e-01  -2.39498888e+00   5.14750310e-01
C     2.325048652648534e+00   9.881515548198814e-01  -2.663784000000007e-01  4.20748110e-01   3.60655190e-01   3.16681380e-01
C     1.608130642257571e+01   9.303454880375245e+00   3.644301900000000e+00 -5.88934430e-01  -1.23099838e+00   9.97149400e-02
C     1.180173063872741e+01   8.819096260348672e+00   3.473172300000000e+00  8.36129200e-01  -8.31486330e-01   3.58226840e-01
C     1.323824416002282e+01   8.932880355861540e+00   3.495641700000000e+00 -1.46353947e+00   2.13768038e+00   1.51975800e-02
C     1.407423186774770e+01   7.826630456074169e+00   3.480735000000000e+00  1.32892567e+00  -6.27334010e-01   7.91033660e-01
C     7.568224790889120e+00   8.305751753688874e+00   3.623547900000000e+00  9.10293580e-01  -2.43836900e-02  -5.84530300e-01
C     8.993469285612605e+00   8.474480092051158e+00   3.520643400000000e+00 -1.01263000e-03   1.40543990e-01   4.51822450e-01
C     9.843900322464844e+00   7.335668793696865e+00   3.537325200000000e+00 -8.40935540e-01   1.35954430e-01  -8.20310700e-02
C     1.124034481482540e+01   7.506100257496297e+00   3.581496000000000e+00  1.77167390e-01   4.12389030e-01  -4.68198070e-01
C     1.207564760254759e+01   6.372083076262002e+00   3.654532200000000e+00  1.84618488e+00  -9.28181610e-01  -7.39662320e-01
C     1.352783149610013e+01   6.528557621116819e+00   3.570249300000000e+00 -1.06048684e+00  -4.69456460e-01  -2.09338270e-01
C     4.758853887784847e+00   7.986038176912694e+00   3.555368700000000e+00 -2.37937870e-01   2.04256600e-01  -5.30134740e-01
C     5.595938090705826e+00   6.833396230783442e+00   3.468692100000000e+00  3.13100400e-02   3.21609150e-01   9.16249110e-01
C     6.997007364494888e+00   7.007510215982380e+00   3.507647100000000e+00  5.05836850e-01  -4.94273700e-02   2.77067570e-01
C     7.848536615692968e+00   5.869262810987051e+00   3.513380400000000e+00  9.58829800e-02  -1.87611870e-01  -4.31877820e-01
C     9.262032817129963e+00   6.038847876437782e+00   3.534017100000000e+00  2.54307520e-01  -2.63065650e-01   4.40992300e-01
C     1.010102216030787e+01   4.898919399260432e+00   3.625080300000000e+00  1.35946974e+00  -6.04468790e-01  -2.92460900e-02
C     1.156160168280553e+01   5.034202813075041e+00   3.650662200000000e+00 -1.58283959e+00   1.15814518e+00   5.55424100e-01
C     1.242880216583561e+01   3.910347529869191e+00   3.737217600000000e+00 -1.20784555e+00   2.77998580e-01  -8.85764450e-01
C     3.637888797744617e+00   5.387236159849752e+00   3.535745700000000e+00 -9.73425000e-03  -4.51010760e-01   3.15738470e-01
C     5.062400182549144e+00   5.518758144415284e+00   3.538957500000000e+00 -1.04910440e+00   4.68206710e-01  -1.10279332e+00
C     5.886740973099005e+00   4.366579037488587e+00   3.477109800000000e+00  1.10127590e-01   1.24711263e+00   5.83368530e-01
C     7.296340291853789e+00   4.555580830932978e+00   3.474548100000000e+00  1.03468210e-01  -6.71006740e-01   6.95108640e-01
C     8.131342496987925e+00   3.395688109503859e+00   3.613346400000000e+00  1.97169140e-01   8.93139650e-01  -9.68289130e-01
C     9.541486248977261e+00   3.584328304005522e+00   3.653528400000000e+00 -2.53361120e-01   1.46406600e-01  -2.08531400e-01
C     1.037888032863960e+01   2.452564556017766e+00   3.649989000000000e+00  1.64112458e+00  -7.92064740e-01   9.62883820e-01
C     1.183282968153237e+01   2.625226562343226e+00   3.766950000000000e+00 -8.21618420e-01  -1.06392681e+00  -1.03279057e+00
C     3.073222030279609e+00   4.074567792066174e+00   3.571083900000000e+00  1.88205290e-01  -1.87917140e-01   9.56488040e-01
C     3.890057442834602e+00   2.907563314591032e+00   3.612447000000000e+00  8.28824450e-01   6.98411340e-01  -2.74666380e-01
C     5.309793942948599e+00   3.095802456225180e+00   3.578604900000000e+00 -1.80964600e-01  -1.02582936e+00  -4.32688600e-01
C     6.161896369416015e+00   1.962231178782329e+00   3.550040400000000e+00 -1.34580730e-01  -4.84255760e-01  -5.95149680e-01
C     7.575499373030856e+00   2.091063689791073e+00   3.525429600000000e+00 -4.42615610e-01   7.83690310e-01   7.26048060e-01
C     8.401097238107589e+00   9.612718005772128e-01   3.559254000000000e+00  1.56943753e+00  -1.27399051e+00  -2.92200750e-01
C     9.841237144617670e+00   1.110544050072761e+00   3.635503200000000e+00 -6.49497560e-01   1.49416381e+00  -2.43277640e-01
C     1.925055908308657e+00   1.466574685458956e+00   3.661331400000000e+00 -7.02114000e-03  -6.11726060e-01   9.85367180e-01
C     3.342046711387768e+00   1.597320711819802e+00   3.626963700000000e+00 -2.29407100e-01   8.09877420e-01  -2.52003370e-01
C     4.207556732985210e+00   4.791989027403422e-01   3.524272800000000e+00 -1.39830836e+00  -5.24765030e-01   1.56697000e-01
C     5.595093827011234e+00   6.617037327827161e-01   3.465494100000000e+00  6.32454820e-01  -2.70851770e-01   4.76192880e-01
C     1.375186668541699e+00   1.365133713094580e-01   3.721145100000000e+00 -5.36667480e-01   1.20826944e+00  -9.44724110e-01
