64
Lattice="9.86 0 0 4.93 8.53901048131456 0 0 0 30 " PBC="1 1 1" Properties=species:S:1:pos:R:3:force:R:3 Energy="-508.73004215"
C     4.985131450499999e+00   8.382542420475422e+00  -9.794807999999975e-01 -6.22592310e-01  -1.50639372e+00   3.81933360e-01
C     1.289385002200000e+00   5.461887540020912e-01  -8.873783999999993e-01  1.14990590e-01  -1.01793516e+00  -8.24779210e-01
C     9.875460332100001e+00   1.872190856255720e-01   4.133001900000000e+00 -3.81072296e+00   1.37189231e+00   7.75640770e-01
C     1.184223172200000e+00   9.036481275950128e-01   4.259303400000000e+00  2.00010540e+00   1.66071394e+00   3.15303870e-01
C     7.419586600199999e+00   8.324548449948932e+00  -9.806039999999996e-01  1.50439394e+00  -5.16941630e-01   3.49183340e-01
C     3.758932434200000e+00   4.446091976726400e-01  -9.064133999999981e-01 -1.21000499e+00   2.31880147e+00   2.03434963e+00
C     2.423482498000000e+00   1.852949903941136e-01   3.958540200000000e+00  6.46244970e-01   2.59740672e+00   4.16645240e-01
C     3.678412765500000e+00   9.505654645070584e-01   4.025710800000001e+00 -1.18729611e+00  -1.77368080e+00   4.77945400e-02
C     9.891304021000000e+00   8.265681024040440e+00  -6.824739000000015e-01 -4.16197050e-01   2.46557540e+00  -1.31385611e+00
C     6.179242427899999e+00   4.691394692488504e-01  -7.678884000000004e-01  3.28535800e-01   9.00019000e-01   1.61287920e-01
C     4.898151559100000e+00   2.000866912980936e-01   3.869641800000000e+00 -7.40943450e-01  -7.48981430e-01   2.17022430e-01
C     6.108086751900000e+00   8.860028601688263e-01   3.935511600000000e+00 -3.63987010e-01   2.34940430e+00   6.97751870e-01
C     1.233078318580000e+01   8.313182514659422e+00  -7.214697000000001e-01  1.46031977e+00  -2.10882909e+00   4.83932200e-01
C     8.627917669599999e+00   4.682786516023616e-01  -1.024736700000002e+00  9.82466000e-02  -6.70354780e-01   1.61720867e+00
C     7.334392453400000e+00   3.061988397804336e-01   4.085011500000000e+00  1.31389381e+00  -4.34463642e+00   5.42211810e-01
C     8.559729212700001e+00   8.938353529217112e-01   4.340731200000000e+00  1.91715923e+00   3.51653436e+00  -1.70201502e+00
C     1.327988923500000e+00   1.939828272877695e+00  -6.620051999999994e-01 -2.31971708e+00  -2.37853060e-01   2.66981700e-02
C     2.515053304000000e+00   2.611722276468905e+00  -3.511580999999993e-01  9.61975330e-01  -1.45741370e-01  -6.23169710e-01
C     1.102195455940000e+01   2.369130525753992e+00   4.640827200000000e+00  9.62671700e-01  -2.25524477e+00  -1.56862896e+00
C     2.441661380000000e+00   3.069066212810998e+00   4.555615200000000e+00 -3.71782000e-03  -2.34809419e+00  -7.67045490e-01
C     3.753299909200000e+00   1.922674681674947e+00  -5.909195999999994e-01 -4.58694290e-01  -1.21500358e+00  -8.16638120e-01
C     4.925277947400000e+00   2.688892900561068e+00  -6.984648000000000e-01  1.51399859e+00  -6.00321740e-01   4.95973160e-01
C     3.659590025500000e+00   2.343559519580479e+00   4.268356500000000e+00  7.06225280e-01  -3.63158330e-01  -5.67664530e-01
C     4.927929597199999e+00   3.008756718812645e+00   4.020674100000000e+00 -2.65807038e+00   2.25941687e+00   7.30717860e-01
C     6.165469634800000e+00   1.924355329717621e+00  -8.952503999999983e-01  3.47675790e-01   7.86803350e-01   2.40200160e-01
C     7.428476425500000e+00   2.646859023742534e+00  -9.864936000000029e-01 -8.41248320e-01  -9.57050300e-01   5.77804890e-01
C     6.120189063800000e+00   2.285606365524082e+00   4.015742400000000e+00  9.84034870e-01   2.46636117e+00  -9.14568080e-01
C     7.365360297700001e+00   3.097807924355945e+00   4.037486400000000e+00 -1.27747474e+00  -2.16329634e+00  -2.26725010e-01
C     8.640368631099999e+00   1.851458224200385e+00  -9.758022000000004e-01  1.25525317e+00   4.12440375e+00   9.55636100e-02
C     9.932127822700000e+00   2.619836641957735e+00  -7.441835999999995e-01 -1.06083903e+00   1.50742890e-01   7.93471220e-01
C     8.562108726500000e+00   2.453124075389988e+00   4.295684400000000e+00 -4.32625700e-01  -6.01740697e+00   8.27409910e-01
C     9.755436376199999e+00   3.046449106532832e+00   4.581990900000000e+00  2.01934094e+00   2.07566695e+00  -2.32240130e-01
C     2.494329950400000e+00   3.993430150610701e+00  -1.141448999999994e-01 -5.52104330e-01   2.97958946e+00  -1.11874421e+00
C     3.744237484600000e+00   4.771516910943182e+00  -2.950763999999992e-01 -1.92691300e+00   7.89661800e-02   1.14379266e+00
C     1.232732355830000e+01   4.436550571806153e+00   4.404613800000001e+00 -2.06183660e-01   2.87758113e+00   8.59930030e-01
C     3.667640222500000e+00   5.280494450465635e+00   4.215440700000000e+00 -2.30946300e-02  -3.69663205e+00  -1.05738727e+00
C     4.912110065300000e+00   4.150924428414764e+00  -5.336780999999995e-01  3.89200033e+00  -3.79111068e+00  -1.71095155e+00
C     6.178407926800000e+00   4.819351422970884e+00  -8.256011999999977e-01  4.67619700e-02  -1.46745513e+00  -2.94563000e-03
C     4.852906040400000e+00   4.475136225412653e+00   3.925128600000000e+00  2.56541140e+00   1.42690989e+00   3.46851400e-01
C     6.159271688100000e+00   5.222209897412508e+00   3.681087300000000e+00 -2.09689723e+00  -2.17487512e+00   4.14650110e-01
C     7.425378364199999e+00   4.091193281596221e+00  -9.253476000000020e-01  3.33509690e-01  -1.06950107e+00   5.33810810e-01
C     8.692327725199998e+00   4.766968521620905e+00  -7.574222999999982e-01 -1.26270354e+00  -1.81628610e-01   2.77882510e-01
C     7.413442735600000e+00   4.454154168861197e+00   3.772503900000000e+00 -3.38186230e+00   2.04586507e+00   4.71814840e-01
C     8.550178126499999e+00   5.208793745706751e+00   3.945528300000000e+00  3.50611401e+00  -1.36070175e+00   1.17547338e+00
C     9.912704805899999e+00   4.072997931114913e+00  -4.477694999999997e-01 -2.32285263e+00  -2.26739520e+00  -1.98547547e+00
C     1.106431750710000e+01   4.777224812498538e+00  -2.211507000000026e-01  3.86157236e+00   8.85487500e-02   1.72765080e-01
C     9.772788398599999e+00   4.472993275342592e+00   4.477054200000000e+00  2.07872600e-01   9.33207900e-01  -1.83537197e+00
C     1.107111622360000e+01   5.081933167999688e+00   4.419542700000000e+00 -1.17149028e+00   3.74335615e+00  -1.08470498e+00
C     3.810883147300000e+00   6.170886105850866e+00  -3.245363999999995e-01 -2.03422680e-01   2.07295850e+00  -1.82067499e+00
C     5.008958929300000e+00   6.956996803551195e+00  -8.506323000000009e-01 -9.30106270e-01  -1.82228922e+00   1.23562277e+00
C     1.349642213140000e+01   6.682803968242001e+00   4.108234200000000e+00  7.07242600e-01   1.18169440e-01  -3.64795560e-01
C     4.889774651000000e+00   7.354618644425853e+00   3.869822099999999e+00  2.16638950e-01  -1.07542401e+00   5.75111880e-01
C     6.238175746500000e+00   6.199101387399720e+00  -9.986688000000008e-01 -2.09176750e+00   8.53932120e-01   1.13132230e+00
C     7.456479515700000e+00   6.869447183000802e+00  -1.008284400000001e+00 -9.34417000e-02   2.03532714e+00  -2.51434700e-02
C     6.113819996800000e+00   6.630771507882121e+00   3.658810200000000e+00  7.30744280e-01   4.13375310e-01   1.71499860e-01
C     7.385779667500000e+00   7.358345666330059e+00   3.651504600000000e+00 -1.72877063e+00  -1.05542282e+00   4.98801130e-01
C     8.655177759499999e+00   6.177484882369601e+00  -7.825896000000014e-01  1.45853223e+00   1.02114080e-01  -7.92498100e-02
C     9.878085211999998e+00   6.905956832379404e+00  -6.176510999999998e-01  1.48355834e+00  -1.77494908e+00   4.53753380e-01
C     8.583200006000000e+00   6.596033276227596e+00   3.734458500000000e+00  9.07003640e-01   9.90239890e-01   4.62044470e-01
C     9.831583627899999e+00   7.290164741691031e+00   3.876357600000000e+00 -5.74617000e-03  -2.73122300e-01   1.34315210e-01
C     1.116411672960000e+01   6.242125960214144e+00  -3.722601000000019e-01 -3.47082721e+00  -3.97919678e+00   9.47477020e-01
C     1.239669989870000e+01   6.785656947204335e+00  -2.882069999999999e-01  1.21269022e+00   6.37723245e+00  -2.32356708e+00
C     1.106095071150000e+01   6.558893960216198e+00   4.100974799999999e+00  1.37375310e-01   8.40643260e-01   7.40285900e-01
C     1.226489703890000e+01   7.401677387351447e+00   4.152852000000000e+00 -4.20760810e-01  -2.05365366e+00  -5.65046240e-01
