76
Lattice="10.7446858958278 0 0 5.37234294791388 9.3051709414712 0 0 0 30 " PBC="1 1 1" Properties=species:S:1:pos:R:3:force:R:3 Energy="-612.31512332"
C     8.624678786785750e-02   7.662463977765220e-02   3.178650000000000e-02 -8.92624950e-01  -1.05039930e+00   5.41421100e-02
C     1.254764849189436e+01   8.507381873771067e+00   1.189797000000000e-01 -2.28785178e+00   9.37934910e-01  -2.09988700e-02
C     1.392701908740209e+01   8.339062218516466e+00   1.485384000000000e-01  1.63086854e+00   8.13761390e-01  -4.93157220e-01
C     1.452477196615897e+01   7.041248253414667e+00   8.949749999999999e-02  6.40659160e-01   6.08985200e-02  -7.78117800e-02
C     8.293708346688017e+00   9.040074157107862e+00   1.750500000000000e-03  8.54944820e-01  -1.39176752e+00   2.69290300e-02
C     9.735094797932790e+00   8.850706577393819e+00   3.308610000000000e-02 -1.29290129e+00   3.78934000e-01  -2.26309600e-02
C     1.028959102178887e+01   7.525565465430556e+00   3.130320000000000e-02 -6.18950810e-01   6.13798240e-01  -4.06077630e-01
C     1.166772248639518e+01   7.363263185067725e+00   6.688350000000000e-02  2.82066710e+00   9.33517680e-01  -8.80065200e-02
C     1.232237739508185e+01   6.105385338709636e+00  -3.624599999999845e-02 -3.09179652e+00  -1.21622389e+00  -1.17446210e-01
C     1.369113100528150e+01   5.903304755302237e+00  -2.460330000000255e-02  1.44965257e+00   3.38444060e-01  -2.95404500e-02
C     6.012382668308348e+00   8.019325564916356e+00   4.768590000000000e-02  1.50442249e+00   1.79425910e+00   1.39061050e-01
C     7.451762012227000e+00   7.873265181274168e+00   3.492510000000000e-02 -2.90967160e-01   5.76938020e-01  -4.36505710e-01
C     8.039122308440820e+00   6.583467620937179e+00  -3.955739999999963e-02  7.05985890e-01  -8.88346010e-01   1.61374290e-01
C     9.478702631709233e+00   6.377533580140106e+00  -9.520859999999942e-02 -1.67427596e+00   9.17971570e-01   5.49947510e-01
C     1.004680286355359e+01   5.080075816981891e+00  -1.474046999999992e-01 -1.11697073e+00   9.14776150e-01   3.32428230e-01
C     1.144026113908538e+01   4.961431072376805e+00  -1.451832000000017e-01  1.33596556e+00  -8.29034700e-02  -6.72916380e-01
C     1.199898410748080e+01   3.668876669045421e+00  -3.075729000000003e-01 -3.53556480e-01   1.62126290e-01   1.03437932e+00
C     5.218683465561248e+00   6.866594475249499e+00   6.285689999999999e-02 -1.98635874e+00   1.15249182e+00  -2.79318620e-01
C     5.778074914589933e+00   5.597079023803590e+00  -1.268370000000019e-02  5.00496950e-01  -2.13001565e+00   4.72793200e-01
C     7.201471753126054e+00   5.429443298613079e+00   1.822500000000000e-03 -6.44674260e-01   4.07982920e-01  -8.30351900e-02
C     7.751068615105446e+00   4.124038640316974e+00   5.461530000000000e-02  9.40307120e-01   5.39323840e-01  -6.44812680e-01
C     9.173454862209242e+00   3.967851718295912e+00  -8.048849999999774e-02 -3.10920790e-01  -9.15468800e-01   3.27797950e-01
C     9.735337251770124e+00   2.648915015160313e+00  -4.953749999999957e-02 -1.43449171e+00   1.29499123e+00  -1.53248580e-01
C     1.113010611036457e+01   2.558681655934620e+00  -1.781345999999999e-01  4.98589850e-01  -2.41972105e+00   1.48685520e-01
C     3.526085183505885e+00   4.600442828017197e+00  -1.255848000000022e-01 -1.04865000e-02  -2.26684980e-01  -8.39154900e-02
C     4.943910687509137e+00   4.400592414928989e+00  -2.786880000000025e-02 -4.74085400e-01   1.82741178e+00   9.97613500e-02
C     5.500142500478639e+00   3.109039247990749e+00   6.874920000000001e-02 -6.10414640e-01   9.01817420e-01  -1.13533452e+00
C     6.912532966289666e+00   2.996446307409911e+00   9.886320000000001e-02 -9.46038760e-01  -7.86447020e-01  -9.54826500e-02
C     7.421071697273683e+00   1.682496710639605e+00   7.830360000000000e-02  1.00930464e+00   1.82864090e-01   2.39239460e-01
C     8.830136951415806e+00   1.537087316756378e+00   7.214100000000000e-02  1.18580613e+00  -8.73849990e-01  -3.89269800e-01
C     9.383342416154713e+00   2.282015940116198e-01   7.756199999999999e-02  1.08659058e+00  -7.72838750e-01   2.75415010e-01
C     2.656258645518407e+00   3.488806443927789e+00  -2.711960999999974e-01  5.36190380e-01  -7.53000350e-01   3.46316610e-01
C     3.205701804766000e+00   2.163917036838453e+00  -1.963482000000027e-01  1.93796420e-01   2.90169540e-01   2.14840090e-01
C     4.617361793106114e+00   1.994108926440290e+00  -8.581200000000067e-02 -1.46814600e-02   8.41575180e-01   8.28632200e-01
C     5.173425451741281e+00   7.262891562947774e-01   4.886610000000000e-02  5.06316810e-01  -2.27663671e+00  -3.87817090e-01
C     6.583525848923010e+00   5.452936249788717e-01   8.568329999999999e-02  6.79794430e-01  -8.85386330e-01   2.15479900e-01
C     9.267911557126429e-01   1.221432469440810e+00  -7.040070000000043e-02  8.85878420e-01  -2.45535850e-01  -2.67669070e-01
C     2.363253854643740e+00   1.019159548150081e+00  -8.566019999999952e-02 -8.68044990e-01   9.94429570e-01  -2.73841080e-01
C     1.600346976897893e+01   9.245056744176319e+00   3.497336700000000e+00  9.87038800e-02   1.65508274e+00   3.93903430e-01
C     1.176066122581184e+01   8.816227290044452e+00   3.391101000000000e+00 -7.18811660e-01  -1.32893722e+00  -1.69274850e-01
C     1.315626258266983e+01   8.928474078266321e+00   3.412618500000000e+00  1.23534386e+00  -6.36514870e-01   2.98407010e-01
C     1.403115024378021e+01   7.779967536206223e+00   3.449797800000000e+00 -1.28421064e+00   4.65112130e-01  -1.69736860e-01
C     7.512263511933297e+00   8.282485383425625e+00   3.400758300000000e+00  1.01191292e+00   4.10702080e-01  -1.71486090e-01
C     8.944162351804941e+00   8.445798019249121e+00   3.375602100000000e+00 -1.23764979e+00   2.14053800e-02   2.31881940e-01
C     9.751834857394702e+00   7.313918235779743e+00   3.381510600000000e+00  1.55430881e+00   1.09240600e-01  -2.93645100e-01
C     1.116676090790784e+01   7.503238731328829e+00   3.374569800000000e+00  9.30879540e-01  -1.10877333e+00   4.84751230e-01
C     1.202379498403307e+01   6.323300810660761e+00   3.428661000000000e+00  2.49493880e-01   2.18764000e-03  -4.64063450e-01
C     1.345063866408248e+01   6.476065290810091e+00   3.389743500000000e+00  1.75675990e-01   3.81512010e-01   4.43278190e-01
C     4.687239481792759e+00   7.971162186234335e+00   3.480422100000000e+00  5.83363600e-02  -1.41062663e+00  -6.25091740e-01
C     5.529174480610151e+00   6.822586785909282e+00   3.362446200000000e+00  3.37917540e-01  -9.40444320e-01   1.11523260e-01
C     6.944859052224399e+00   6.987436449868646e+00   3.324312000000000e+00 -4.46040340e-01  -3.60206200e-02   4.35268180e-01
C     7.786357172113098e+00   5.853043991090340e+00   3.342230100000000e+00  1.04999040e+00  -9.44142610e-01  -2.98709510e-01
C     9.220602866279018e+00   6.021844258423991e+00   3.366807900000000e+00 -5.15854670e-01  -1.38638556e+00   7.95849960e-01
C     1.008354893720357e+01   4.869635468001995e+00   3.531310800000000e+00 -1.59186650e-01  -5.89503050e-01  -1.23032941e+00
C     1.151126911500528e+01   4.960437094016994e+00   3.466279500000000e+00 -5.72812290e-01   3.08864743e+00   6.93800340e-01
C     1.240172335470700e+01   3.871082779208801e+00   3.543535800000000e+00 -2.08976383e+00  -2.40213100e-02  -5.26749690e-01
C     3.571445594182479e+00   5.344982123024888e+00   3.373603200000000e+00  4.98889460e-01  -7.63277320e-01  -2.91625580e-01
C     4.999337955575731e+00   5.462713192895374e+00   3.323748600000000e+00 -1.55593863e+00   3.51847750e+00   2.14923800e-01
C     5.832106609128403e+00   4.376579118594386e+00   3.301032600000000e+00  7.43929020e-01  -2.20205499e+00  -1.37721240e-01
C     7.242363287766549e+00   4.520525460450717e+00   3.308759400000000e+00  1.44585170e-01   1.29364585e+00   2.89244580e-01
C     8.097824234429156e+00   3.405872060787432e+00   3.368867700000000e+00  4.07816470e-01  -1.34588266e+00  -3.60469670e-01
C     9.513932522731871e+00   3.560101081791010e+00   3.481143000000000e+00 -5.75978460e-01   3.60949650e-01   4.77150850e-01
C     1.034021262163983e+01   2.412769224510377e+00   3.590459100000000e+00  4.25983090e-01   2.60038480e-01  -3.80490890e-01
C     1.177187292948449e+01   2.612506393668246e+00   3.610728900000000e+00  1.08476150e-01  -2.25125975e+00  -1.50029350e-01
C     3.036163339993362e+00   4.027282356262342e+00   3.388850100000000e+00  3.12637700e-02  -1.55652090e-01   7.38578480e-01
C     3.833241370392005e+00   2.858212782200485e+00   3.418220100000000e+00  2.33791834e+00   4.62141300e-02  -4.74799630e-01
C     5.295542675081705e+00   3.047695187723927e+00   3.318027000000000e+00 -2.00123898e+00   7.85439010e-01   5.35891840e-01
C     6.140260654994057e+00   1.940025132747694e+00   3.363984000000000e+00  1.47613050e-01  -4.80793090e-01  -6.70770940e-01
C     7.555926853195416e+00   2.068714530227381e+00   3.288920100000000e+00 -2.75372190e-01   7.13760390e-01   1.33615198e+00
C     8.367960250727981e+00   9.029668091393950e-01   3.430621800000000e+00  7.42177000e-03   1.47339159e+00  -2.95181370e-01
C     9.760726084976952e+00   1.101961797863090e+00   3.537836400000000e+00  1.57275819e+00  -6.92331580e-01  -1.68536530e-01
C     1.848614237282274e+00   1.434776683115950e+00   3.556575000000000e+00  9.93379970e-01  -5.55046530e-01  -2.63844500e-01
C     3.291238959853592e+00   1.528209904524490e+00   3.470394900000000e+00 -1.11972175e+00   2.26886388e+00   2.12385100e-02
C     4.152659124210057e+00   4.241891514875066e-01   3.403913100000000e+00 -1.28841330e-01   5.87419150e-01   1.20210310e-01
C     5.558198617120955e+00   6.564055545528987e-01   3.386427300000000e+00 -1.88106250e-01  -1.17483769e+00   1.89372300e-02
C     1.314284983009057e+00   1.140137471316662e-01   3.484435500000000e+00 -1.33769642e+00   5.03366880e-01   1.88099610e-01
