52
Lattice="8.88768389401873 1.33226762955019e-15 0 4.44384194700937 7.69696003302603 0 0 0 30 " PBC="1 1 1" Properties=species:S:1:pos:R:3:force:R:3 Energy="-419.17817808"
C     1.231746212681244e+01   6.602517968803055e+00  -3.005123999999988e-01  3.54587430e-01   4.83391560e-01   2.66863310e-01
C     8.574112541718101e+00   6.379502323444220e+00  -1.796423999999988e-01  1.61038608e+00  -1.04171203e+00   4.62427920e-01
C     9.976376776968703e+00   5.976665371810106e+00  -1.161981000000019e-01 -1.91263118e+00   7.78464640e-01  -8.35578720e-01
C     1.026940175864262e+01   4.608252712281322e+00  -1.335357000000030e-01  1.14434869e+00  -3.32215920e-01  -4.41676750e-01
C     6.196999143290922e+00   5.815029519058506e+00  -2.099048999999980e-01 -5.98276230e-01  -1.09357830e+00  -2.96910510e-01
C     7.559035232693353e+00   5.395962757505135e+00  -2.095575000000025e-01 -3.00925810e-01   3.36874350e-01   1.52473960e-01
C     7.897292703926809e+00   4.015836941172298e+00  -2.148749999999993e-01  1.17547000e-03   3.00228500e-02   2.73076220e-01
C     9.266578699291683e+00   3.629519436063370e+00  -1.582713000000027e-01 -5.96285050e-01  -9.29726360e-01  -8.93484000e-02
C     9.614316129656922e+00   2.229924159334647e+00  -1.780638000000003e-01 -1.03073637e+00   8.91450680e-01   2.66223210e-01
C     3.765945991395598e+00   5.259853487845029e+00  -2.811525000000010e-01  8.00496890e-01  -3.31925030e+00   1.78303910e-01
C     5.158036850387564e+00   4.830679848076263e+00  -2.326236000000002e-01 -5.42686530e-01  -4.03449710e-01  -5.62161100e-02
C     5.482223118260816e+00   3.399046821888270e+00  -1.995518999999994e-01  7.19067270e-01   2.43895799e+00  -2.99010140e-01
C     6.876847900413003e+00   3.038781987088886e+00  -2.195993999999999e-01 -9.72500530e-01  -1.09593534e+00   1.80097260e-01
C     7.187331359471953e+00   1.630552260598510e+00  -2.097884999999984e-01  9.99417250e-01   1.51453232e+00   2.72647600e-02
C     8.563320534917482e+00   1.265752376949450e+00  -2.020932000000002e-01  6.76314420e-01  -1.29757491e+00  -3.56173770e-01
C     2.744482259310408e+00   4.203032858791520e+00  -2.382129000000006e-01  4.62057710e-01   2.09137306e+00   8.46568260e-01
C     3.073348737135120e+00   2.853612986923964e+00  -1.165194000000014e-01  1.93584651e+00  -3.56909170e-01  -8.85977720e-01
C     4.456904575555702e+00   2.458092611555167e+00  -1.855496999999993e-01 -1.05243300e-02  -1.73160411e+00   8.22796440e-01
C     4.854658024700191e+00   1.041291319466581e+00  -1.187781000000001e-01 -3.21365847e+00   1.59921798e+00  -5.50056140e-01
C     6.155998832135788e+00   6.717014636516523e-01  -1.854519000000003e-01  2.34740855e+00  -1.26105865e+00  -1.10823070e-01
C     1.095752833012753e+01   6.975683139521520e+00  -2.310720000000011e-01  5.81325700e-02   5.49590120e-01   4.54510780e-01
C     2.090150305944507e+00   1.864610272694785e+00  -1.294274999999985e-01 -4.71757160e-01  -1.62980358e+00  -2.96058700e-02
C     2.436822103014420e+00   4.697641742437729e-01  -1.559082000000025e-01  4.32635330e-01  -1.54581880e-01  -1.19095370e-01
C     3.843132456337369e+00   3.833240034140600e-02  -1.571010000000008e-01 -2.34082106e+00   1.73777382e+00   2.35769280e-01
C     4.486108930427298e+00   7.551184225207817e+00  -2.657930999999998e-01 -1.54357824e+00   1.98266505e+00   2.35532990e-01
C     5.824277411407552e+00   7.184306547198659e+00  -2.228126999999986e-01  1.99060114e+00   2.02595520e-01   1.70335700e-01
C     9.994047229025045e-01   1.118698722853088e+00   3.513244500000000e+00 -1.99776970e-01  -1.26090260e+00   3.12214530e-01
C     3.378849360066152e+00   5.318933428795302e-01   3.489167400000000e+00  1.28989538e+00  -9.70721190e-01   5.17682790e-01
C     4.753443880651875e+00   9.309605543997516e-01   3.579682200000000e+00  2.75155350e-01  -6.98608950e-01   1.24460250e-01
C     1.024362889935815e+01   7.636411201197602e+00   3.659598000000000e+00 -8.23710400e-01   2.21667500e-02  -2.71253290e-01
C     7.154432085810152e+00   3.425341946438759e-01   3.705215400000000e+00  3.79985870e-01  -2.57135190e-01  -4.35317490e-01
C     1.260211793323126e+01   7.014812252195632e+00   3.675618900000000e+00  8.59265700e-02   4.51759200e-01  -5.96808900e-02
C     5.081054178309788e+00   7.392742379959868e+00   3.574214400000000e+00  8.93453000e-02   1.91339568e+00  -1.33632200e-01
C     6.106172791336444e+00   6.441242487720062e+00   3.533863200000000e+00  7.68352960e-01  -7.33111770e-01  -6.74660900e-02
C     7.488809154937773e+00   6.842489786199180e+00   3.525767700000000e+00 -6.50749040e-01   1.23112150e-01  -1.83039220e-01
C     8.513204932625749e+00   5.878820076516741e+00   3.562660200000000e+00  8.53080120e-01  -1.58192976e+00   8.13305200e-02
C     9.900288693222164e+00   6.243939999763846e+00   3.611000700000000e+00 -3.67854170e-01   2.67175810e-01  -6.08885000e-03
C     1.091329432627421e+01   5.231860644820723e+00   3.616726200000000e+00 -6.32299570e-01   3.62646260e-01   3.79345840e-01
C     3.376082671818816e+00   5.626052063070740e+00   3.689146500000000e+00  3.15543150e-01   7.44065380e-01  -6.76527280e-01
C     4.404196478746395e+00   4.661580253183573e+00   3.610118100000000e+00 -5.90675800e-02  -5.20921360e-01   4.64655070e-01
C     5.770336190076092e+00   5.045423878369260e+00   3.545138100000000e+00 -3.08386300e-02   8.82135940e-01   7.57914100e-01
C     6.790628746308084e+00   4.087804518057601e+00   3.647998500000000e+00  1.63084028e+00  -7.27048690e-01  -7.48868920e-01
C     8.206051375812384e+00   4.456013000455946e+00   3.591468000000000e+00 -1.77163264e+00   1.36183638e+00  -1.09219660e-01
C     9.214788565381664e+00   3.475750954036835e+00   3.532598700000000e+00 -1.40720210e-01   1.49745330e-01   4.29531740e-01
C     1.057199304370836e+01   3.853144064899779e+00   3.573635700000000e+00  4.23589980e-01   2.30335810e-01  -3.94484480e-01
C     2.717636520432706e+00   2.870930839113063e+00   3.547798800000000e+00 -9.34722760e-01   2.64025760e-01   5.18784420e-01
C     4.048305663125481e+00   3.276927854657094e+00   3.667913400000000e+00  1.40009850e+00   3.23502800e-01  -9.51038900e-01
C     5.093121516683518e+00   2.305427873596934e+00   3.636163200000000e+00  1.37031000e-02  -1.51773740e-01   1.38696990e-01
C     6.465030001440033e+00   2.698377541285311e+00   3.660601200000000e+00 -1.71610740e-01   4.41130090e-01  -4.11643000e-02
C     7.502496895826045e+00   1.736269852671359e+00   3.637631700000000e+00 -2.28137030e-01  -1.06698652e+00   1.77249140e-01
C     8.869478404125669e+00   2.105156822096349e+00   3.558095700000000e+00 -3.23621200e-02  -2.99240520e-01  -6.47907000e-02
C     2.382289763880829e+00   1.491858736608332e+00   3.506930700000000e+00 -1.50085220e+00   7.35226660e-01  -2.37586780e-01
