52
Lattice="8.88768389401873 1.33226762955019e-15 0 4.44384194700937 7.69696003302603 0 0 0 30 " PBC="1 1 1" Properties=species:S:1:pos:R:3:force:R:3 Energy="-419.66662833"
C     1.282230741314715e+01   7.073926675526838e+00  -6.972899999999882e-02  8.32094070e-01   2.00932023e+00  -1.73280200e-01
C     9.080906808320233e+00   6.954341701476738e+00  -1.580858999999997e-01 -1.69072730e-01  -1.89513359e+00   1.66018220e-01
C     1.043538769983627e+01   6.529729665069753e+00  -8.086379999999949e-02  3.53099100e-01   7.26716870e-01  -2.73964280e-01
C     1.077941101156527e+01   5.165499379682070e+00  -9.390630000000044e-02  7.52962300e-02  -1.26039400e+00  -2.93830100e-02
C     6.685169268262250e+00   6.329358630058378e+00  -1.565048999999981e-01  2.64605640e-01  -6.86395640e-01   1.28184280e-01
C     8.074266266519889e+00   5.934726714785844e+00  -1.674062999999997e-01 -1.12743936e+00   1.28325963e+00   8.99378600e-02
C     8.407643466106236e+00   4.578168143399263e+00  -1.302395999999995e-01 -1.61261650e-01  -1.05230425e+00   8.50956100e-02
C     9.755949194870205e+00   4.176193944014912e+00  -1.422153000000002e-01  6.38724250e-01  -9.06559120e-01   1.37833170e-01
C     1.009745764753264e+01   2.761089523734540e+00  -1.602657000000001e-01  2.50221800e-02   1.85268029e+00   1.69252370e-01
C     4.286973750353543e+00   5.713447349670576e+00  -3.028439999999932e-02  1.65473250e-01  -6.41779060e-01  -4.36682970e-01
C     5.666383084299513e+00   5.326927876330461e+00  -8.274779999999993e-02  5.98272900e-02   9.37941400e-02   3.13788510e-01
C     6.030128922020194e+00   3.942131852529821e+00  -2.242559999999827e-02 -4.38900170e-01   3.89728520e-01  -4.60166870e-01
C     7.398528504240888e+00   3.569035800512426e+00  -6.043259999999862e-02 -2.05445370e-01  -6.74460310e-01  -8.07464600e-02
C     7.734961289517942e+00   2.165256687220197e+00  -5.994180000000071e-02 -1.06965714e+00   1.04842779e+00  -3.47842950e-01
C     9.090341125851895e+00   1.788154213567986e+00  -1.350759000000004e-01 -5.82512260e-01  -6.82189700e-01   9.84618000e-03
C     3.250713180030657e+00   4.718584324013755e+00  -5.652659999999798e-02  4.81905780e-01   7.97438210e-01   5.95815370e-01
C     3.602442247001020e+00   3.344309120938922e+00   7.656600000000000e-03  4.24087760e-01   1.15844300e-01  -1.26554997e+00
C     5.001571262891784e+00   2.955632420611199e+00  -4.938600000000193e-02 -9.64178980e-01   5.28094700e-02   6.58204450e-01
C     5.323420692069028e+00   1.568933477382342e+00  -7.118460000000226e-02 -3.83311720e-01   7.69911580e-01  -3.48433990e-01
C     6.680493010043215e+00   1.187310425165312e+00  -8.758169999999765e-02  1.02101761e+00   5.08248100e-02   3.82187270e-01
C     1.146974395056026e+01   7.508889275903767e+00  -6.736260000000271e-02 -1.18580530e-01  -5.41262860e-01  -8.47542200e-02
C     2.560831024363861e+00   2.377193944068653e+00  -1.394519999999986e-01  8.50243860e-01  -5.56360510e-01   4.47112810e-01
C     2.893446682735488e+00   9.889130446448295e-01  -1.723371000000000e-01  1.18372485e+00   4.98834150e-01   7.16513700e-02
C     4.281718459547592e+00   5.999032968566086e-01  -1.525992000000009e-01 -4.49821240e-01   9.80122660e-01   2.32472500e-01
C     5.267710691394644e-01   4.150511805361212e-01  -1.492377000000005e-01 -4.55401240e-01  -1.63375169e+00   3.24316520e-01
C     1.887193732854239e+00   7.247611503448600e-03  -1.721070000000005e-01 -2.49133370e-01  -1.47788950e-01  -9.89172000e-02
C     5.123769319407230e-01   6.030832958930031e-01   3.528803700000000e+00 -5.32290960e-01   2.97858760e-01   1.52859500e-02
C     2.872411311875807e+00   2.089855496465510e-02   3.638477100000000e+00  3.54101220e-01  -1.38158704e+00  -4.43747580e-01
C     4.236461350958293e+00   3.878201056459842e-01   3.593460300000000e+00  3.55193380e-01   1.63478040e-01   1.70780100e-02
C     9.718474944221509e+00   7.096721145686083e+00   3.531848700000000e+00 -6.06213340e-01  -7.01853320e-01  -4.92927220e-01
C     1.107543154504456e+01   7.474182605554093e+00   3.426745200000000e+00  8.65870160e-01   5.38748150e-01   5.31460050e-01
C     1.214008515343969e+01   6.518728477068474e+00   3.426277800000000e+00 -8.90385840e-01  -5.67058530e-01  -4.65831400e-02
C     4.615901332674040e+00   6.933333464831656e+00   3.446603400000000e+00 -2.48403480e-01  -9.53417950e-01   4.17244810e-01
C     5.624621235685447e+00   5.933512134493110e+00   3.491622900000000e+00  1.39497930e-01  -9.05905810e-01  -4.77648340e-01
C     6.996330547432247e+00   6.305312711167856e+00   3.529823100000000e+00 -7.24649840e-01   8.53335030e-01   4.78187430e-01
C     7.988219132444761e+00   5.302890731974373e+00   3.513040500000000e+00  1.28388789e+00  -8.60271900e-02  -4.79184510e-01
C     9.381740286938470e+00   5.694713333805558e+00   3.487283400000000e+00 -5.80152340e-01   7.64589950e-01   4.07713460e-01
C     1.042337883795063e+01   4.733024128908436e+00   3.488914800000000e+00 -7.60088870e-01  -5.17259740e-01   5.66770000e-03
C     1.178118865643305e+01   5.119618339730443e+00   3.461752200000000e+00  8.28313180e-01   7.20972560e-01  -6.33205000e-03
C     3.923829695784200e+00   4.135139590728497e+00   3.483337200000000e+00 -3.71439740e-01   3.94307080e-01  -2.41839470e-01
C     5.283345105243997e+00   4.522452928526105e+00   3.429267600000000e+00 -2.57654480e-01   1.04297286e+00   6.99829260e-01
C     6.283053607811262e+00   3.531260352198791e+00   3.473945400000000e+00  6.63430860e-01  -6.08563000e-01  -1.00661099e+00
C     7.650673385136258e+00   3.910636661783065e+00   3.433750200000000e+00  2.76784230e-01   8.58760780e-01   7.57007790e-01
C     8.695476707066492e+00   2.949113788192192e+00   3.494081100000000e+00  6.03203000e-03  -2.33470030e-01  -9.10501400e-02
C     1.006606314884538e+01   3.343625938766659e+00   3.539242200000000e+00  3.30517090e-01   4.86661560e-01  -3.16735130e-01
C     2.231854116193318e+00   2.381958824144824e+00   3.571270800000000e+00 -1.87898086e+00  -2.49838650e-01   3.50911570e-01
C     3.567232264865806e+00   2.766180139159182e+00   3.544732200000000e+00  8.67038330e-01   4.02617100e-02   1.17902200e-02
C     4.568937652246149e+00   1.769867237141510e+00   3.549648300000000e+00  1.28559559e+00  -3.78471700e-01  -5.76731620e-01
C     5.957154237031256e+00   2.135097226917046e+00   3.402569100000000e+00 -8.38208210e-01   8.04733680e-01   1.26452286e+00
C     6.983053277568996e+00   1.166206669246257e+00   3.452381700000000e+00  1.52736430e-01  -2.99222180e-01  -4.64523980e-01
C     8.356215947840543e+00   1.563614185275209e+00   3.488366400000000e+00 -9.81477200e-02   2.62762510e-01  -3.56034400e-02
C     1.862000615874659e+00   1.010704908790567e+00   3.632997000000000e+00  3.74141810e-01  -3.99461330e-01  -4.64923560e-01
