64
Lattice="9.86 0 0 4.93 8.53901048131456 0 0 0 30 " PBC="1 1 1" Properties=species:S:1:pos:R:3:force:R:3 Energy="-510.26705817"
C     5.112503324900000e+00   8.428904294755744e+00  -8.033789999999996e-02 -1.37898516e+00   2.93748364e+00  -2.94236860e-01
C     1.395666040800000e+00   6.302411374202944e-01  -7.131780000000276e-02 -2.64326930e-01   1.78516073e+00  -4.04321640e-01
C     9.903586622999999e-01   8.148448949160521e-01   3.572748000000000e+00  1.87333652e+00  -4.40510822e+00   4.14349250e-01
C     2.244742735100000e+00   1.444018485246137e+00   3.562134600000000e+00  2.12464743e+00   7.91022950e-01  -3.02053600e-01
C     7.579203879100000e+00   8.538501298805079e+00  -6.722939999999866e-02 -1.30262618e+00  -2.33748256e+00  -6.78811770e-01
C     3.843056771000000e+00   6.762940703014496e-01  -2.029287000000011e-01  1.63616978e+00   2.42860482e+00   1.61145885e+00
C     3.524469472900000e+00   7.564686328903705e-01   3.726375300000000e+00 -1.13961318e+00  -2.86374397e+00  -8.25948190e-01
C     4.772792455800000e+00   1.420561567287262e+00   3.678464400000000e+00 -1.03263970e+00   1.53311252e+00   2.72648060e-01
C     9.996589101000000e+00   8.491511380303953e+00  -8.028420000000125e-02  7.78975180e-01   2.51551945e+00  -1.48069073e+00
C     6.333625082100000e+00   7.033561584849800e-01  -1.438547999999997e-01 -1.46133450e+00  -1.17675736e+00  -1.99420770e-01
C     6.032702812099999e+00   8.135560166742007e-01   3.721934400000000e+00 -1.24890030e+00  -3.93655910e+00  -4.91596540e-01
C     7.267520454400000e+00   1.438646166802645e+00   3.728915400000000e+00  9.51319510e-01   5.22117850e-01   5.79011090e-01
C     1.247873426060000e+01   8.508293268380505e+00  -2.690355000000011e-01  7.44652480e-01   4.72120472e+00   1.50741351e+00
C     8.815464088700001e+00   6.810889808562840e-01  -9.063000000000088e-02 -5.89271940e-01  -2.58841373e+00  -6.63774320e-01
C     8.482468717700000e+00   6.839241031158536e-01   3.827092200000000e+00 -9.87571200e-02   9.04904970e-01  -1.47478632e+00
C     9.623077806799998e+00   1.479082480150475e+00   3.630497400000000e+00  2.53822668e+00   1.02169252e+00  -2.35075900e-01
C     1.363970725700000e+00   2.081842093192462e+00  -2.334930000000028e-01  8.37255440e-01  -4.41538160e-01  -1.56939432e+00
C     2.602587623200000e+00   2.835182886544008e+00  -5.153460000000010e-01 -7.20656110e-01  -1.48700942e+00   1.90744331e+00
C     2.358077223300000e+00   2.855387807751679e+00   3.377779200000000e+00 -1.56328386e+00   1.18803560e-01   7.79374980e-01
C     3.559518814900000e+00   3.586468340073018e+00   3.468998400000000e+00 -5.69703560e-01  -1.73411670e+00  -4.29510100e-02
C     3.856945271200000e+00   2.173131885723198e+00  -2.436155999999983e-01 -2.60768968e+00  -2.54279322e+00  -1.17482316e+00
C     5.001140146499999e+00   2.902656012604348e+00  -2.411102999999990e-01  4.60376326e+00  -2.95963026e+00   5.71248150e-01
C     4.754352678200000e+00   2.834927399350446e+00   3.632624100000000e+00  8.11087810e-01   2.33983000e-01  -6.90699510e-01
C     5.995113534100000e+00   3.485391731460839e+00   3.619983900000000e+00  2.36575428e+00   1.17299729e+00   1.01301300e+00
C     6.333905944200000e+00   2.104720407801211e+00  -1.277121000000001e-01 -2.66460302e+00   1.16922595e+00  -4.77376290e-01
C     7.538811896099999e+00   2.758172539678556e+00  -1.849412999999984e-01  8.78037300e-01   4.33775400e+00   5.75741700e-01
C     7.306929641899999e+00   2.855486006372199e+00   3.714986700000000e+00 -8.80834580e-01   9.72770620e-01  -1.82412850e-01
C     8.543109689700000e+00   3.680644403536100e+00   3.726795900000000e+00 -1.24288313e+00  -3.53494538e+00  -1.50205726e+00
C     8.780902225100000e+00   2.070192150414388e+00  -1.289651999999997e-01 -5.36861210e-01   3.61597980e-01  -5.77251320e-01
C     9.985213323200000e+00   2.746254557361515e+00  -3.534560999999989e-01  1.08431060e+00   3.04832056e+00   1.94761427e+00
C     9.748904767100001e+00   2.930637154485841e+00   3.497262600000000e+00 -8.40258900e-01  -2.80278440e-01   1.35260502e+00
C     1.101711285570000e+01   3.608354848614516e+00   3.409281000000000e+00 -9.98056380e-01   1.07246880e-01  -5.49313970e-01
C     2.608500320100000e+00   4.233411952772403e+00  -6.379170000000016e-01 -2.63685560e-01   1.55189813e+00   6.19308240e-01
C     3.857457744700000e+00   4.945737573255679e+00  -4.529069999999997e-01 -2.39407505e+00   1.32855449e+00   3.77760200e-02
C     3.499831403500000e+00   4.957598600372819e+00   3.476252100000000e+00  3.23673761e+00   3.39214386e+00   1.13006858e+00
C     4.829605332100000e+00   5.627911093833029e+00   3.752935200000000e+00 -3.35135068e+00  -1.19316865e+00  -1.54329411e+00
C     5.061196765600000e+00   4.262292337847544e+00  -3.125537999999999e-01  1.65911167e+00   1.32264471e+00  -1.24540900e-02
C     6.339880167499999e+00   4.992589757517762e+00  -2.204700000000024e-01 -2.97784498e+00  -6.02120530e-01  -3.25193950e-01
C     6.012551979400000e+00   4.912954006490129e+00   3.733537200000000e+00  2.93331800e-01  -3.62238100e-02   3.41292960e-01
C     7.161737197899999e+00   5.706724623541541e+00   3.871014300000000e+00  4.28726766e+00  -1.27639025e+00  -1.54691828e+00
C     7.555062852300000e+00   4.370561781937552e+00  -1.641951000000006e-01  8.21304160e-01  -5.39600976e+00   3.51724250e-01
C     8.808995731500000e+00   4.999939625398317e+00  -7.748189999999866e-02 -2.04995470e-01  -1.41099395e+00  -8.88746560e-01
C     8.509285847099999e+00   5.047455803115326e+00   3.667064700000000e+00 -1.29664322e+00   8.11620800e-01   1.63969472e+00
C     9.789132778300001e+00   5.697675492575466e+00   3.653257800000000e+00 -2.22026481e+00   1.21750352e+00  -5.27812650e-01
C     1.000221970330000e+01   4.227762714219044e+00  -2.588834999999996e-01  1.42454118e+00   7.92213620e-01  -1.76680627e+00
C     1.124343318250000e+01   5.023303382752855e+00  -5.854941000000018e-01 -1.07145907e+00  -1.86454030e+00   1.55095613e+00
C     1.101997117110000e+01   5.065153243895545e+00   3.422150100000000e+00 -1.70375680e+00  -1.98383769e+00   4.34577810e-01
C     1.219342115940000e+01   5.802720777088435e+00   3.438723300000000e+00  1.00928140e+00  -3.21346107e+00   1.09389200e-02
C     3.761342070300000e+00   6.365954506079968e+00  -2.637387000000011e-01  1.10331193e+00   8.28575780e-01  -1.80288211e+00
C     5.038390634900000e+00   7.044614223844797e+00  -2.463557999999999e-01 -3.05244997e+00   9.41682120e-01   9.98885950e-01
C     4.875990321700000e+00   7.001501272271906e+00   3.729862500000000e+00 -2.21946587e+00   3.94116960e+00  -2.11206870e-01
C     6.051300103199999e+00   7.777961265717844e+00   3.657350700000000e+00 -3.40526586e+00   4.01101834e+00   5.43687860e-01
C     6.196432105400000e+00   6.378204655904682e+00  -2.327003999999988e-01  6.52975787e+00  -1.29971480e-01   9.12032500e-01
C     7.536930509499999e+00   7.089798910140347e+00  -9.044550000000129e-02 -1.02928689e+00   2.48992760e-01  -6.29721500e-02
C     7.213197770399999e+00   7.119445586015963e+00   3.800114100000000e+00  1.56176457e+00  -7.42482210e-01  -1.18930340e-01
C     8.435303999300000e+00   7.821102822975843e+00   3.754653300000000e+00  1.66160871e+00   1.14386703e+00   5.35532510e-01
C     8.793295259099999e+00   6.397042993875134e+00  -7.484639999999843e-02 -1.46770107e+00   3.78005710e-01  -5.66451110e-01
C     9.983475794000000e+00   7.110244631443554e+00  -2.394038999999992e-01  8.59838080e-01   7.12926200e-02   7.06442750e-01
C     9.686321621599999e+00   7.102290713961644e+00   3.751099800000000e+00  1.57833776e+00   2.48674884e+00  -9.05807990e-01
C     1.092970232880000e+01   7.887495593430253e+00   3.633118500000000e+00  4.22990360e-01  -2.50626100e-01   1.01013532e+00
C     1.122300912920000e+01   6.472976913079477e+00  -4.616384999999994e-01 -1.03677362e+00  -2.45878580e+00   1.08350490e-01
C     1.241388287140000e+01   7.190998395113333e+00  -3.968987999999989e-01  2.12422828e+00  -5.42951988e+00   2.45750170e-01
C     1.219151601020000e+01   7.161876953772341e+00   3.598989000000000e+00  7.63078660e-01   2.38664599e+00   1.67124610e-01
C     1.349805430650000e+01   7.819637699557683e+00   3.714192000000000e+00 -1.62937017e+00  -1.29411101e+00   2.21593360e-01
