64
Lattice="9.86 0 0 4.93 8.53901048131456 0 0 0 30 " PBC="1 1 1" Properties=species:S:1:pos:R:3:force:R:3 Energy="-516.33447804"
C     4.947152258800000e+00   8.123472001946102e+00   1.229712000000000e-01  5.00728400e-01  -8.38383920e-01   1.02878640e-01
C     1.244714075000000e+00   2.710444167551120e-01   1.489950000000000e-01  1.03575932e+00   6.77836780e-01  -2.92585260e-01
C     9.830645498199999e+00   4.251542577554272e-01   3.288839700000000e+00 -1.25789570e-01  -3.48464000e-02   1.37822180e-01
C     1.188753743600000e+00   1.143807114224174e+00   3.262132500000000e+00  2.55144570e-01   4.00997240e-01   6.94816200e-02
C     7.441918908599999e+00   8.121675223360899e+00   1.273668000000000e-01 -1.47442427e+00  -1.12188899e+00   1.95466640e-01
C     3.719799277399999e+00   2.846559410206512e-01   1.599597000000000e-01  1.42631524e+00   4.88746200e-02  -1.10098380e+00
C     2.417690339600000e+00   4.349078570861024e-01   3.307239300000000e+00  9.63411800e-02   5.25904110e-01   3.49799710e-01
C     3.661201691800000e+00   1.133068454644526e+00   3.361650000000000e+00 -4.62841530e-01   4.48856080e-01  -4.73615580e-01
C     9.903842637899999e+00   8.145030014754433e+00   6.524969999999999e-02 -3.80244670e-01  -1.99269882e+00   1.98534040e-01
C     6.205000889099999e+00   2.980913054999880e-01   7.364250000000000e-02 -6.74924900e-02   5.00161800e-02   4.02589430e-01
C     4.870870171600000e+00   4.045108583596080e-01   3.354957600000000e+00  1.47027830e+00   1.12787178e+00   3.72144220e-01
C     6.121830408699999e+00   1.115140887531871e+00   3.344016900000000e+00  4.22657650e-01   1.27564313e+00  -3.92015820e-01
C     1.236563636310000e+01   8.103627597760894e+00   1.161288000000000e-01 -5.35821070e-01   1.19594322e+00  -5.85450660e-01
C     8.651769009599999e+00   3.034269061984160e-01   1.569069000000000e-01  2.73076650e-01  -1.70619529e+00  -4.49167040e-01
C     7.386954683699999e+00   4.269955245852296e-01   3.310440000000000e+00 -1.41300421e+00   1.18104260e-01   3.32653200e-01
C     8.605714970899999e+00   1.143865264885543e+00   3.261665400000000e+00 -1.61329800e-01   3.71754280e-01   3.07679850e-01
C     1.257728141100000e+00   1.705868437076804e+00   1.225044000000000e-01  4.56709100e-02  -8.53155220e-01   5.40662000e-02
C     2.491075706700000e+00   2.394619386646687e+00   5.312970000000000e-02  4.88350090e-01   9.26670710e-01  -1.59692010e-01
C     1.105493502690000e+01   2.569101257289767e+00   3.227540100000000e+00 -1.69921620e-01   6.99121300e-02   5.60748730e-01
C     2.437814254500000e+00   3.273567401747043e+00   3.297701700000000e+00 -2.52405000e-01  -1.25367090e-01  -4.61543100e-02
C     3.748194351900000e+00   1.690090736632698e+00   5.373480000000000e-02 -1.35050368e+00   9.00631090e-01   4.03423830e-01
C     4.948065294800000e+00   2.429403643567701e+00   4.361970000000000e-02  1.24940611e+00  -5.25495170e-01   2.65141910e-01
C     3.667528311500000e+00   2.563851815207082e+00   3.319908600000000e+00  2.39189900e-01  -3.94319550e-01   2.65834940e-01
C     4.914000621700000e+00   3.281480331978649e+00   3.334843500000000e+00 -1.18905549e+00  -1.33082462e+00   1.65915190e-01
C     6.207176103699999e+00   1.727659137920716e+00   1.235991000000000e-01 -7.13577720e-01  -6.84596210e-01  -5.79433080e-01
C     7.438774357400000e+00   2.404444286714870e+00   1.311318000000000e-01 -3.50291530e-01   8.66904440e-01   4.07251200e-02
C     6.128669107500000e+00   2.578116061433713e+00   3.299294400000000e+00  7.05399710e-01  -1.43075626e+00   3.05875210e-01
C     7.364863156499999e+00   3.292083392071874e+00   3.276411300000000e+00 -2.03071120e-01   1.68262010e-01   5.69227450e-01
C     8.666886460200001e+00   1.691913559199864e+00   1.369365000000000e-01 -6.73250130e-01   8.56946370e-01   3.16961170e-01
C     9.880976903500001e+00   2.398777372409818e+00   1.522710000000000e-01  9.11957070e-01   4.39788050e-01  -8.25442080e-01
C     8.603364445499999e+00   2.585554393462841e+00   3.259255500000000e+00 -9.33798080e-01  -8.87633870e-01  -5.98030500e-02
C     9.808463406900000e+00   3.286200696971993e+00   3.247316100000000e+00  1.47160261e+00   2.59627570e-01   1.17522690e-01
C     2.494899611900000e+00   3.837739653380433e+00  -6.969599999997911e-03  4.72461660e-01  -2.59944370e-01   6.37569100e-02
C     3.747089341700000e+00   4.549381469904471e+00  -1.236689999999996e-02 -9.78646120e-01   6.85460410e-01  -2.01766000e-03
C     1.230399386160000e+01   4.695440987994557e+00   3.341103000000000e+00 -4.45615310e-01   7.82233300e-02  -1.21085410e-01
C     3.669026390600000e+00   5.406547237781290e+00   3.345151500000000e+00 -4.12678340e-01  -1.91597200e-01   2.71115880e-01
C     4.965834198000000e+00   3.847892280670838e+00   3.430979999999999e-02 -3.41384130e-01  -5.73551950e-01  -1.79728500e-01
C     6.192825514599999e+00   4.538981723650775e+00   7.301490000000001e-02 -1.97074720e-01   3.94283360e-01   3.97532360e-01
C     4.883554815100000e+00   4.660152246334385e+00   3.385273500000000e+00  6.87459670e-01   2.57328633e+00  -6.46262920e-01
C     6.114031247300000e+00   5.409224986077713e+00   3.331983300000000e+00  1.30883670e-01  -8.37460750e-01   5.37756020e-01
C     7.411606852899999e+00   3.837230557575615e+00   1.388223000000000e-01  7.25371740e-01  -7.31669400e-01  -4.86063410e-01
C     8.645450770900000e+00   4.521436362647204e+00   9.283740000000000e-02  8.91351760e-01   7.64513200e-01  -2.15012600e-01
C     7.354418902199999e+00   4.728850549618396e+00   3.360945600000000e+00  5.93724920e-01  -9.95187220e-01  -8.76246000e-01
C     8.609501013699999e+00   5.422901919163529e+00   3.306471300000000e+00 -9.38681480e-01   3.43480750e-01   5.23125500e-01
C     9.891675595100001e+00   3.808402516634716e+00   4.296300000000000e-02 -6.95155400e-02   1.21853295e+00   4.65980550e-01
C     1.113152119650000e+01   4.563700536578382e+00   1.458000000000000e-04 -4.74545760e-01  -1.08467392e+00   2.06955400e-02
C     9.830996810000000e+00   4.710650673461533e+00   3.289976100000000e+00  1.21141490e-01  -1.17318740e-01   1.64287960e-01
C     1.106983545890000e+01   5.411639989021666e+00   3.346336800000000e+00  2.74530400e-02   4.87120900e-02  -3.96370210e-01
C     3.747055916299999e+00   5.990299013494796e+00  -2.442000000009159e-04 -8.13940070e-01  -6.38167720e-01   9.46704900e-02
C     4.976578985100000e+00   6.682161578483591e+00   7.607820000000000e-02 -1.04899962e+00   7.52990860e-01   4.51166800e-02
C     1.348884615110000e+01   6.834335625808090e+00   3.332026500000000e+00  2.22514814e+00  -3.86335030e-01   5.01079330e-01
C     4.897335249699999e+00   7.541525885388695e+00   3.360804600000000e+00 -7.94564540e-01  -3.85933830e-01  -6.50366700e-01
C     6.170818142500000e+00   5.954179853065444e+00   1.249497000000000e-01  2.07552293e+00   9.14747190e-01  -5.92942450e-01
C     7.435915598299999e+00   6.687013273458118e+00   1.085535000000000e-01 -1.93320000e-01  -5.17183860e-01   7.78536700e-02
C     6.122736887800000e+00   6.805463438183010e+00   3.314757300000000e+00 -2.76662560e-01   1.96758608e+00   4.77466150e-01
C     7.340296670699999e+00   7.575794129906402e+00   3.335740200000000e+00  8.62908260e-01  -2.09458192e+00  -4.32946700e-02
C     8.677126070200000e+00   5.957398803846090e+00   6.922979999999999e-02 -5.84566200e-01   2.40506900e-01  -2.44972600e-02
C     9.914726155200000e+00   6.672806836332438e+00   2.478150000000000e-02 -9.98434980e-01   1.55296304e+00   3.02057920e-01
C     8.600314599599999e+00   6.844886341767074e+00   3.352975800000000e+00 -3.98613730e-01   3.03809450e-01  -1.80364100e-02
C     9.842670852800000e+00   7.545012107197365e+00   3.377342100000000e+00 -8.07014150e-01  -6.67219120e-01  -3.94710490e-01
C     1.113225349870000e+01   5.986308904677702e+00   1.560960000000000e-02  2.97311240e-01  -4.41853890e-01  -4.34866650e-01
C     1.235447183580000e+01   6.708920190234662e+00   2.808000000000000e-03  9.73337200e-01  -1.04770040e+00   4.00919180e-01
C     1.107942174530000e+01   6.840606675104603e+00   3.331676700000000e+00 -1.27465334e+00  -7.25138750e-01   6.16186650e-01
C     1.228115977780000e+01   7.534896283042128e+00   3.361551900000000e+00  8.14730210e-01   1.05696975e+00  -4.83812810e-01
