64
Lattice="9.86 0 0 4.93 8.53901048131456 0 0 0 30 " PBC="1 1 1" Properties=species:S:1:pos:R:3:force:R:3 Energy="-515.27083072"
C     4.968738954000000e+00   8.330456591300043e+00  -2.792630999999979e-01 -1.20955216e+00  -1.58936229e+00  -3.80828700e-02
C     1.250765650000000e+00   4.833112379919824e-01  -2.374286999999988e-01  6.37047590e-01   5.42392050e-01  -4.66514210e-01
C     9.837750515599998e+00   2.364586918277584e-01   3.690693300000000e+00 -1.80560370e-01   6.66172190e-01   7.17989660e-01
C     1.220452953400000e+00   9.273327809633888e-01   3.701853600000000e+00  1.50446140e-01  -3.88291700e-02   1.16499320e-01
C     7.419988444500000e+00   8.303251218520659e+00  -2.799237000000012e-01  3.71904330e-01   1.12127598e+00   4.29038160e-01
C     3.742294916700000e+00   4.955680482448696e-01  -2.974652999999989e-01 -1.22804680e+00  -9.53068490e-01  -7.22086950e-01
C     2.453379349100000e+00   2.018498261820040e-01   3.832911900000000e+00  1.37938650e-01   1.74260977e+00  -1.43900500e-02
C     3.662864038500000e+00   9.846118655324951e-01   3.823261800000000e+00  6.50002110e-01  -1.94567376e+00  -2.58039130e-01
C     9.879501699599999e+00   8.297121489847591e+00  -3.695555999999982e-01  5.71261170e-01   4.75450190e-01  -6.12881500e-02
C     6.197250583999999e+00   4.664361039209872e-01  -3.655128000000012e-01 -7.09847690e-01   4.27211890e-01   5.32622540e-01
C     4.910041634499999e+00   2.459615004206360e-01   3.802740000000000e+00 -1.16392269e+00  -6.43688350e-01   6.97234320e-01
C     6.127281312500000e+00   9.299584412958840e-01   3.838232400000000e+00  1.01888479e+00   3.64520720e-01  -5.98474900e-01
C     1.234692469600000e+01   8.303224662198065e+00  -3.851991000000012e-01  3.46540460e-01   9.61814600e-02  -4.18714550e-01
C     8.650064215600000e+00   4.952663650046112e-01  -3.162821999999998e-01  1.15483810e-01  -1.62556071e+00  -6.46594900e-02
C     7.373289857600000e+00   2.287044164108704e-01   3.813189300000000e+00 -2.03691600e-01   2.46873870e-01   1.98235940e-01
C     8.588387351999998e+00   9.470087104718240e-01   3.712005600000000e+00  4.46357530e-01   5.78064950e-01   4.08561490e-01
C     1.241754546700000e+00   1.919075744927941e+00  -3.408350999999996e-01 -1.71602570e-01  -4.32927130e-01  -3.77954640e-01
C     2.470949376100000e+00   2.594321566302867e+00  -5.207376000000004e-01  1.28802920e-01   1.05282160e+00   2.81095880e-01
C     1.107720403410000e+01   2.350350936175643e+00   3.656642400000000e+00  1.25475317e+00   4.78446680e-01   2.84026480e-01
C     2.462845639300000e+00   3.115049381976532e+00   3.690250200000000e+00 -8.03051980e-01  -1.63854224e+00   5.84211700e-02
C     3.723843701499999e+00   1.908911077632759e+00  -4.588751999999978e-01 -1.34438611e+00  -8.72698130e-01   5.32535140e-01
C     4.912497809800000e+00   2.599877815032098e+00  -4.350564000000006e-01  2.76709578e+00   9.66891870e-01   6.95816890e-01
C     3.692500388400000e+00   2.392671894526514e+00   3.768970500000000e+00 -1.16296520e+00  -2.04475930e-01  -6.54090000e-03
C     4.915578961200000e+00   3.064398448122212e+00   3.815392500000000e+00  7.24874770e-01   9.37654470e-01  -1.85411250e-01
C     6.189123183200000e+00   1.894820087928768e+00  -2.464182000000008e-01 -2.30284837e+00  -6.35937790e-01  -1.29808647e+00
C     7.383395766000000e+00   2.585480018681560e+00  -2.587620000000008e-01  1.08723029e+00   1.03270702e+00   9.09012200e-02
C     6.138173358700000e+00   2.339458574407355e+00   3.795974400000000e+00  6.09924870e-01   1.59757355e+00   2.70022570e-01
C     7.381768866000000e+00   3.112521749484347e+00   3.785406000000000e+00 -1.14112638e+00  -1.71888375e+00   4.35856060e-01
C     8.605653986800000e+00   1.870512940696400e+00  -3.257553000000009e-01  1.76963151e+00   2.65356816e+00   6.33823860e-01
C     9.874098518199999e+00   2.654823614987544e+00  -3.607817999999980e-01 -6.51810420e-01  -2.70457512e+00  -3.42187790e-01
C     8.590805073300000e+00   2.395278939816162e+00   3.762596100000000e+00  8.31594010e-01  -1.28765784e+00  -5.67345120e-01
C     9.858230968099999e+00   3.057250186279089e+00   3.711402300000000e+00 -6.92934450e-01  -1.43899530e-01  -4.15980920e-01
C     2.460751276699999e+00   4.026811448109850e+00  -6.273824999999995e-01  1.89059249e+00   3.79786200e-02   2.05952700e-01
C     3.746527765400000e+00   4.756039100547135e+00  -5.426595000000027e-01 -2.01691403e+00  -1.08798966e+00  -3.21408430e-01
C     1.231268811380000e+01   4.519082413628182e+00   3.701390700000000e+00 -8.11660500e-02  -4.01292580e-01   1.37361760e-01
C     3.682774139300000e+00   5.207149815409141e+00   3.769624200000000e+00  3.00867670e-01   1.41237903e+00   2.77213470e-01
C     4.948199341500000e+00   4.029962342976971e+00  -4.604339999999993e-01  1.39136984e+00   6.33489120e-01   4.27884100e-02
C     6.228826395900000e+00   4.780696091038869e+00  -3.748110000000011e-01 -1.97310742e+00  -1.97304823e+00   1.13007212e+00
C     4.910960685100000e+00   4.507616998866582e+00   3.839186400000000e+00  1.15090720e-01  -6.09506730e-01  -6.75709120e-01
C     6.129651015599999e+00   5.223313906077466e+00   3.824097000000000e+00  5.41808950e-01   7.04716390e-01   8.86364740e-01
C     7.425261769699999e+00   4.020868809156399e+00  -2.312097000000009e-01 -2.97895120e-01   6.26709000e-02  -8.13520020e-01
C     8.652852525000000e+00   4.716700050045985e+00  -3.097157999999993e-01 -1.91713040e-01   1.39170959e+00  -4.80789000e-01
C     7.376192444399999e+00   4.512060272969849e+00   3.872706600000000e+00 -6.97024180e-01   2.70207060e-01  -8.87836160e-01
C     8.603290446199999e+00   5.189091259875724e+00   3.802876200000000e+00  1.30241704e+00   6.66612740e-01   3.86561930e-01
C     9.885557810200000e+00   4.034282996889746e+00  -5.151296999999992e-01 -4.71334980e-01   6.46470260e-01   8.25948710e-01
C     1.111157653640000e+01   4.744657282698133e+00  -6.516191999999990e-01 -5.26040000e-01  -2.67336150e-01   5.65061380e-01
C     9.864650961999999e+00   4.460715886074448e+00   3.688427100000000e+00 -1.09476697e+00   1.43992899e+00   6.00843280e-01
C     1.107596394190000e+01   5.189475429957218e+00   3.713720700000000e+00  3.08360600e-02   1.79469893e+00  -2.99243950e-01
C     3.709677543700000e+00   6.160520088688565e+00  -4.870248000000004e-01  1.84487570e-01   1.11978978e+00  -1.77402580e-01
C     4.941671922900000e+00   6.865028415857612e+00  -3.318593999999990e-01 -2.52109220e-01   1.60563632e+00   1.61097420e-01
C     1.354977538020000e+01   6.651156687601025e+00   3.808185000000000e+00  2.16819900e-02  -5.65879970e-01   4.05629310e-01
C     4.930720420900000e+00   7.375277840991060e+00   3.837350700000000e+00 -1.04001717e+00  -6.11456420e-01  -6.53756170e-01
C     6.172307544799999e+00   6.186362464615133e+00  -2.490123000000004e-01  1.46692340e-01  -4.59753470e-01  -8.43490840e-01
C     7.397473578200000e+00   6.892274434326882e+00  -2.657178000000009e-01  2.88602170e-01   2.40585100e-02   3.83102580e-01
C     6.146678644000000e+00   6.667870092813530e+00   3.871686000000000e+00  5.28966930e-01  -1.44981362e+00   1.45054570e-01
C     7.407515051499999e+00   7.333828630220093e+00   3.954426300000000e+00 -1.07428838e+00   3.89795300e-01  -8.31792680e-01
C     8.601738630100000e+00   6.163055150119868e+00  -3.154341000000009e-01  1.85194204e+00  -2.52960860e-01  -5.33267160e-01
C     9.865239258899999e+00   6.885833373331713e+00  -4.597605000000016e-01 -1.02410745e+00  -1.05731668e+00   5.15188920e-01
C     8.616300568300000e+00   6.625147117849260e+00   3.908355000000000e+00  9.23218380e-01  -8.55508780e-01  -5.55896940e-01
C     9.852813045999998e+00   7.338892519605047e+00   3.824122200000000e+00 -5.65153970e-01   8.56962220e-01  -1.05865560e-01
C     1.107470876390000e+01   6.149194115968103e+00  -5.805974999999997e-01  1.54316127e+00   1.87082766e+00  -2.48015010e-01
C     1.233908402400000e+01   6.907545259108894e+00  -5.702114999999992e-01 -5.55155440e-01  -1.86885205e+00   8.44928920e-01
C     1.108673939360000e+01   6.657427907677747e+00   3.751285200000000e+00 -6.05636580e-01  -1.83726157e+00   7.62486560e-01
C     1.230443090610000e+01   7.353724695418701e+00   3.881469600000000e+00  7.99128640e-01  -1.44442130e-01  -1.38506895e+00
