64
Lattice="9.86 0 0 4.93 8.53901048131456 0 0 0 30 " PBC="1 1 1" Properties=species:S:1:pos:R:3:force:R:3 Energy="-514.60435758"
C     4.968109886000000e+00   8.344328896945642e+00  -5.357406000000005e-01 -1.60236029e+00  -1.00373640e+00   2.89893110e-01
C     1.230791952200000e+00   5.087713224193601e-01  -5.363693999999981e-01  1.35316346e+00   2.11086840e-01   2.56941740e-01
C     9.858104612200000e+00   2.254558352638592e-01   3.869930400000000e+00 -2.16544545e+00  -1.34343084e+00  -3.05478020e-01
C     1.204220534000000e+00   8.917565308203552e-01   3.883475999999999e+00  1.74328421e+00   1.28531025e+00  -2.60593050e-01
C     7.417353951099999e+00   8.371394571513575e+00  -5.879696999999986e-01 -1.42297260e-01  -6.99648730e-01   6.98108720e-01
C     3.728122990800000e+00   5.411907003879376e-01  -4.480746000000018e-01 -3.49603950e-01  -1.24786763e+00  -8.59749940e-01
C     2.436394463800000e+00   1.891534276696064e-01   3.718743900000000e+00  9.38166260e-01   1.10530463e+00   5.77637060e-01
C     3.683865937100000e+00   9.279606544039832e-01   3.773851800000000e+00 -7.10697350e-01  -3.15385360e-01  -1.05143870e-01
C     9.878402211000001e+00   8.325158818418041e+00  -4.710245999999998e-01  3.90326090e-01   1.40705566e+00   3.36974460e-01
C     6.195337990499999e+00   4.961519457814920e-01  -4.893459000000000e-01  9.60954900e-02   5.46876750e-01   5.28633780e-01
C     4.910632297799999e+00   2.227394052499616e-01   3.757128900000000e+00 -7.78526200e-02  -4.21169270e-01   3.79326040e-01
C     6.141566579099999e+00   9.085070807284472e-01   3.812465700000000e+00 -9.76497800e-02   1.18775622e+00  -4.86117930e-01
C     1.236821435870000e+01   8.375143026334085e+00  -4.162376999999999e-01 -1.02324220e-01  -1.18810964e+00  -4.06797660e-01
C     8.671042548799999e+00   5.667442015899664e-01  -4.890903000000009e-01 -4.70651170e-01  -3.19168803e+00  -1.91197420e-01
C     7.374027237700000e+00   1.589981683298008e-01   3.811246500000000e+00 -9.13892700e-02   5.25381940e-01   1.37720180e-01
C     8.586692664499999e+00   8.657186115537960e-01   3.815689200000000e+00  1.08259999e+00   2.89382872e+00   8.45367000e-01
C     1.212816383400000e+00   1.915051736239242e+00  -3.600519000000020e-01  7.74902840e-01   5.85393330e-01  -5.42867820e-01
C     2.442752536900000e+00   2.625168741661866e+00  -3.063834000000014e-01  1.60996215e+00   9.67078850e-01   2.06075810e-01
C     1.108771474480000e+01   2.318344931704402e+00   3.997638900000001e+00  1.59989100e-01  -8.59459600e-02  -1.69462010e-01
C     2.449895564600000e+00   3.068563606654146e+00   3.967251300000000e+00 -3.41866140e-01  -8.28478170e-01   1.32624020e-01
C     3.732817780500000e+00   1.961049250942382e+00  -3.991235999999994e-01 -2.47749058e+00  -1.65649576e+00   3.82127270e-01
C     4.927916138300000e+00   2.610581891619302e+00  -4.125702000000011e-01  3.26984889e+00   1.42753151e+00  -1.82088420e-01
C     3.694926786500000e+00   2.334540275151084e+00   3.878875800000000e+00 -1.21734050e+00   1.05728651e+00   1.12147600e-01
C     4.894220919400000e+00   3.085937589717382e+00   3.877442700000000e+00  3.68483350e-01  -1.10963836e+00  -4.59433750e-01
C     6.235425200899999e+00   1.915218844674335e+00  -4.867884000000018e-01 -3.57882979e+00  -1.50022370e-01  -2.19789620e-01
C     7.412002929100000e+00   2.631902434546185e+00  -5.542452000000004e-01  4.15898950e-01   6.99249630e-01   1.15831870e-01
C     6.100076487900000e+00   2.379047134794730e+00   3.773674200000000e+00  2.59683052e+00  -1.96356404e+00   2.96278390e-01
C     7.399314982500000e+00   3.049844473269995e+00   3.746102400000000e+00 -1.69664824e+00  -5.18402590e-01   6.49932320e-01
C     8.624912588099999e+00   1.929048455267534e+00  -5.613612000000003e-01  1.64708250e+00   1.86941903e+00   7.78525570e-01
C     9.869820165600000e+00   2.645991716448080e+00  -4.076553000000018e-01 -8.32741260e-01  -4.48850530e-01  -5.02753490e-01
C     8.617560922800001e+00   2.363993115488805e+00   3.893375400000000e+00 -7.53010220e-01  -3.11886913e+00  -6.81246170e-01
C     9.852888179199999e+00   3.013697048715954e+00   4.011389100000000e+00  5.32761270e-01   1.37662743e+00  -4.28452330e-01
C     2.499034895899999e+00   4.057914452222831e+00  -1.896453000000022e-01  2.81542300e-01   4.98836800e-02  -3.86800440e-01
C     3.800890974000000e+00   4.791037601241091e+00  -2.389073999999987e-01 -3.56949573e+00  -1.23095284e+00  -4.76686040e-01
C     1.227971819650000e+01   4.490549737059786e+00   4.003999800000000e+00  1.02323437e+00   4.20036750e-01  -4.07075070e-01
C     3.698916290400000e+00   5.175959969559579e+00   3.853386000000000e+00 -1.86553571e+00  -4.86788780e-01   7.85055230e-01
C     4.977364679199999e+00   4.035266007776203e+00  -4.053231000000004e-01 -1.01888280e-01   5.04206890e-01   8.26635000e-03
C     6.197603128299999e+00   4.746075697728966e+00  -5.707526999999999e-01 -6.53339500e-01   5.95415510e-01   1.00913306e+00
C     4.897681976599999e+00   4.490091789927744e+00   3.851946300000000e+00  1.35689742e+00  -3.17445900e-02  -9.10896070e-01
C     6.135173601600000e+00   5.194316109608225e+00   3.654976800000000e+00  1.40700170e-01  -5.99766220e-01   8.83802810e-01
C     7.410881354099999e+00   4.058171134877860e+00  -5.442008999999999e-01  4.45066880e-01  -5.44365970e-01  -1.89209410e-01
C     8.626087801500001e+00   4.757072918545949e+00  -4.599807000000027e-01  6.25906240e-01   1.58186934e+00  -2.83718030e-01
C     7.381691957999999e+00   4.441392788479047e+00   3.725218800000000e+00 -8.86092870e-01   1.85070523e+00  -6.06749970e-01
C     8.586038404200000e+00   5.159040603414297e+00   3.756345300000000e+00  2.37995807e+00   1.11456370e-01   6.55408180e-01
C     9.862927532600001e+00   4.050578161368939e+00  -3.889880999999988e-01  7.38732560e-01   7.03301330e-01   6.74615400e-01
C     1.111077151670000e+01   4.759375377331775e+00  -2.295456000000016e-01 -1.37886350e-01   7.78304120e-01  -6.20385200e-02
C     9.876276099199998e+00   4.447740518089669e+00   3.954018000000000e+00 -2.20946482e+00   1.04033023e+00  -1.10515320e-01
C     1.104970454340000e+01   5.236973931922533e+00   4.028262000000000e+00  5.79190170e-01  -1.48485756e+00  -5.52564490e-01
C     3.682359329100000e+00   6.202383270687604e+00  -3.547334999999983e-01  1.55469893e+00   1.34130130e-01   1.95830050e-01
C     4.920446103700000e+00   6.887549543657983e+00  -4.895333999999991e-01  7.42301930e-01   1.18866440e+00   2.75851600e-02
C     1.356192797810000e+01   6.557897799253601e+00   3.835805700000000e+00 -5.11432660e-01   2.74441903e+00   2.08487680e-01
C     4.906941650499999e+00   7.354601310234578e+00   3.817454100000000e+00  7.28346220e-01  -2.20473602e+00  -7.90140450e-01
C     6.163946954999999e+00   6.168384431950541e+00  -5.177273999999983e-01  3.73259400e-02   1.04959205e+00  -8.08470320e-01
C     7.390549984799999e+00   6.927804403033114e+00  -5.997158999999996e-01  4.89431950e-01  -1.60475480e-01   5.59387850e-01
C     6.138385052899999e+00   6.615169967224218e+00   3.647531400000000e+00  5.80931100e-01   5.73423600e-01   5.21935440e-01
C     7.413513727600000e+00   7.330812907888871e+00   3.645396300000000e+00 -1.45355487e+00  -1.27922602e+00   2.92691500e-02
C     8.625512470499999e+00   6.216853307066803e+00  -4.873082999999987e-01  5.21488440e-01  -7.09421510e-01   8.95612700e-02
C     9.893684767300000e+00   6.927419037490151e+00  -3.905469000000004e-01 -1.95609276e+00  -1.09396161e+00  -9.57163100e-02
C     8.626836767100000e+00   6.591664803856133e+00   3.721506300000000e+00 -1.47407800e-01   2.73508800e-01  -1.28294150e-01
C     9.850013446900000e+00   7.339025301218010e+00   3.807046200000000e+00 -1.33707142e+00   2.02235200e-01  -2.60980140e-01
C     1.108701350160000e+01   6.205346051153850e+00  -2.326671000000005e-01  1.45645312e+00   3.94578600e-02  -7.85889410e-01
C     1.233583056910000e+01   6.945668952248426e+00  -3.339018000000031e-01 -4.77422470e-01  -9.03366940e-01   4.85795930e-01
C     1.104924634920000e+01   6.666232822944095e+00   3.920592900000000e+00  1.13968485e+00  -2.43181109e+00   1.53466470e-01
C     1.231508527700000e+01   7.267462672258589e+00   3.883742400000000e+00  1.17180420e-01   1.48344751e+00  -3.51680670e-01
