52
Lattice="8.88768389401873 1.33226762955019e-15 0 4.44384194700937 7.69696003302603 0 0 0 30 " PBC="1 1 1" Properties=species:S:1:pos:R:3:force:R:3 Energy="-418.84430272"
C     1.231701947568241e+01   6.550353592500537e+00  -1.073955000000026e-01 -1.32436892e+00   4.09706700e-01   4.60991700e-02
C     8.487650753115872e+00   6.309213992328662e+00  -9.595290000000034e-02  1.74293145e+00   1.08333560e-01   1.95896500e-02
C     9.880949759450967e+00   5.931674716194748e+00  -9.103769999999756e-02  7.46602990e-01  -3.19994810e-01  -4.74434470e-01
C     1.025830935139670e+01   4.528600028684465e+00  -1.760421000000001e-01 -1.37082887e+00   1.50265648e+00  -3.96869200e-02
C     6.111799361354645e+00   5.732412428275695e+00  -9.642029999999835e-02  7.29905430e-01   1.14729792e+00  -2.55267840e-01
C     7.461611819170742e+00   5.333912636648885e+00  -7.089600000000118e-02  5.93060950e-01  -6.48429150e-01   1.42356890e-01
C     7.817154546844949e+00   3.936644073967632e+00  -6.365939999999881e-02 -3.21653320e-01   1.05644756e+00  -4.10499240e-01
C     9.179189036503583e+00   3.578085424298098e+00  -1.461933000000002e-01  1.36548259e+00  -7.73461440e-01  -2.17866410e-01
C     9.558702869718326e+00   2.189371647842188e+00  -2.375459999999983e-01 -3.68511990e-01   8.94374750e-01   9.25613830e-01
C     3.756417061064545e+00   5.185363540188294e+00  -2.114192999999993e-01 -5.77668000e-01  -1.14166319e+00  -5.70428800e-01
C     5.108784061415186e+00   4.775254962535437e+00  -2.343708000000007e-01 -3.45383100e-01  -1.11058516e+00  -2.46809360e-01
C     5.445076821232423e+00   3.371274573738424e+00  -4.046622000000006e-01  7.58532900e-02   1.12924975e+00   1.21780990e+00
C     6.782632318621274e+00   2.952813716878612e+00  -1.784661000000014e-01  7.55914560e-01   1.47189697e+00  -5.50175320e-01
C     7.147992248645577e+00   1.617831956574531e+00  -1.816089000000005e-01  9.32242520e-01  -1.73107068e+00   1.75340700e-01
C     8.552981714405963e+00   1.212827848874369e+00  -9.284489999999934e-02 -1.29344780e+00   6.43228000e-03  -5.96385370e-01
C     2.732395809093112e+00   4.174638465362449e+00  -3.591087000000002e-01 -1.68524030e-01   4.34865720e-01   8.25545440e-01
C     3.059842657151643e+00   2.796843288526695e+00  -4.461557999999997e-01  3.41183470e-01   2.32935390e-01   3.40146100e-01
C     4.431214947434942e+00   2.413737416959886e+00  -4.748240999999993e-01 -5.76426140e-01  -1.45837606e+00   1.40475850e-01
C     4.776895678868847e+00   1.010527801740276e+00  -3.780207000000004e-01 -7.62086490e-01  -3.90260300e-02   5.15239930e-01
C     6.119396461352615e+00   6.303089829111191e-01  -2.540702999999986e-01  1.15695883e+00  -5.84995890e-01   2.58940870e-01
C     1.091666627021437e+01   6.941691901606634e+00  -1.452990000000014e-01 -3.62932400e-02  -5.09327760e-01   1.20383100e-01
C     2.038075144091111e+00   1.832415582220501e+00  -2.940266999999999e-01  2.36084830e-01  -1.72881796e+00  -4.08789090e-01
C     2.375345949070557e+00   4.107844477130910e-01  -2.235267000000007e-01  1.53191673e+00   1.18884860e+00   1.34965420e-01
C     8.222121332469644e+00   7.689494286649301e+00  -2.142540000000004e-01 -1.94903935e+00   1.38996453e+00  -4.86190680e-01
C     4.454440824000955e+00   7.532543342559162e+00  -6.467909999999932e-02 -6.06242140e-01   3.09199240e-01  -3.35428440e-01
C     5.813246506962887e+00   7.148884136535796e+00  -1.155296999999997e-01 -5.40226030e-01  -1.20375709e+00   2.48125710e-01
C     1.038512709537398e+00   1.174640921077530e+00   3.632450400000000e+00 -2.75282120e-01  -6.11246110e-01  -2.88454510e-01
C     3.405704474610077e+00   5.704745089691058e-01   3.500244300000000e+00  1.68630498e+00  -3.98026070e-01   6.22958000e-02
C     4.796200617006608e+00   9.494016239660282e-01   3.461730600000000e+00  4.67377840e-01   2.31088850e-01  -6.83771300e-02
C     1.031069882821813e+01   7.681544173603914e+00   3.531648900000000e+00 -1.40458897e+00  -2.43641940e-01   1.69164200e-01
C     7.220752116357803e+00   4.121360338943589e-01   3.566916900000000e+00 -4.44383630e-01  -4.41407240e-01  -5.14177620e-01
C     1.265324313502653e+01   7.100050619686260e+00   3.550843500000000e+00  5.22093720e-01  -5.82677100e-01   6.32993290e-01
C     5.137188745379614e+00   7.483574744061100e+00   3.600331200000000e+00  6.21960680e-01  -1.63370860e-01   4.10107700e-02
C     6.198100416648185e+00   6.502292773468414e+00   3.654780900000000e+00 -1.37722647e+00  -1.95946020e-01   4.22215200e-02
C     7.550342634434969e+00   6.889529988331326e+00   3.655934700000000e+00 -3.00929900e-01   3.69695240e-01  -7.13651490e-01
C     8.568213652304335e+00   5.916583209694327e+00   3.650426400000000e+00  1.78904800e-01  -1.25206320e+00   1.21329916e+00
C     9.935090463682691e+00   6.277710104017070e+00   3.631886700000000e+00  1.98770820e-01   1.13211134e+00  -3.86583490e-01
C     1.092153134285538e+01   5.276141717690915e+00   3.643048200000000e+00  1.34697150e+00  -9.64600000e-02  -2.67346610e-01
C     3.416492837473256e+00   5.704166047388001e+00   3.589839000000000e+00  1.26144280e-01  -5.26248140e-01  -2.50352980e-01
C     4.462232476882831e+00   4.714210449507108e+00   3.557623800000000e+00  1.02798130e-01   2.87836700e-02   4.00621950e-01
C     5.858989237142186e+00   5.116920016452726e+00   3.672963900000000e+00 -1.29318675e+00  -2.65794540e-01  -3.92062220e-01
C     6.865653063365405e+00   4.121601253792529e+00   3.733922700000000e+00  1.28135590e-01  -1.88369270e-01   5.32303000e-03
C     8.239377346376159e+00   4.510078448916274e+00   3.837285300000000e+00 -9.80000720e-01   1.20920994e+00  -1.29987057e+00
C     9.228778935253176e+00   3.521542786221715e+00   3.765249000000000e+00  9.15601420e-01   1.99095470e-01   1.00020640e-01
C     1.058362240033980e+01   3.876321612759716e+00   3.641377800000000e+00  1.14041069e+00   1.35944554e+00   2.17943430e-01
C     2.741567187033421e+00   2.913167214551285e+00   3.531505200000000e+00 -6.44921700e-02   4.77477860e-01  -2.10513260e-01
C     4.109976590644177e+00   3.308788497066075e+00   3.498417900000000e+00  5.85441350e-01   1.01643693e+00  -1.52079080e-01
C     5.155657304721350e+00   2.336980791543916e+00   3.433218600000000e+00 -8.30760000e-03  -2.05117590e-01   7.85115790e-01
C     6.536999266034362e+00   2.728104432434776e+00   3.600229500000000e+00 -1.25147012e+00   1.50882625e+00  -3.34595940e-01
C     7.572620588446711e+00   1.803728858249491e+00   3.586740300000000e+00 -8.60762270e-01  -2.06908218e+00   7.43611390e-01
C     8.909219193854021e+00   2.161854861795738e+00   3.742326000000000e+00  3.62040150e-01  -4.56150760e-01  -8.18181690e-01
C     2.396993237073720e+00   1.544523569252001e+00   3.487068600000000e+00 -1.63681330e-01   1.68019230e-01   8.07390240e-01
