64
Lattice="9.86 0 0 4.93 8.53901048131456 0 0 0 30 " PBC="1 1 1" Properties=species:S:1:pos:R:3:force:R:3 Energy="-514.86606881"
C     9.928484010400000e+00   3.302506705994496e-01  -1.168541999999988e-01 -1.91283745e+00  -4.63901670e-01  -5.75931500e-02
C     1.283153285000000e+00   1.057144867642864e+00  -2.049774000000006e-01 -6.83573590e-01  -1.10084547e+00   2.50194800e-01
C     1.238879074900000e+00   3.984263864420840e-01   3.767961600000000e+00 -1.60017266e+00   4.79670300e-02  -2.77777000e-02
C     2.442978330900000e+00   1.088712479316062e+00   3.700753800000000e+00  1.69228050e-01   1.57365520e+00  -8.67426030e-01
C     2.468448189900000e+00   3.178630427060088e-01  -1.050821999999982e-01  1.81912375e+00   2.50126220e-01   1.58433400e-01
C     3.717971923600000e+00   1.032968025710421e+00  -1.250472000000009e-01 -4.92432040e-01  -1.13920130e-01  -1.00876262e+00
C     3.663237831100000e+00   4.233515872529944e-01   3.621105000000000e+00  1.28166166e+00  -1.97986292e+00   3.95749640e-01
C     4.907135498100000e+00   1.103486333688138e+00   3.612008700000000e+00 -2.35735320e-01   1.27234267e+00  -4.69438070e-01
C     4.946104387300000e+00   2.982573038637192e-01  -1.211918999999995e-01 -4.32379100e-01   1.94347824e+00   2.65598640e-01
C     6.161283621100000e+00   1.004945128067681e+00  -1.027193999999980e-01  1.58671953e+00   5.26279350e-01   2.34457010e-01
C     6.117737719899999e+00   3.844842316907592e-01   3.614309400000000e+00  1.05554335e+00   5.19752900e-01   1.74320640e-01
C     7.367982022400001e+00   1.119474691520786e+00   3.704766300000000e+00 -1.24201721e+00  -1.89245010e-01  -5.50802060e-01
C     7.405255928299999e+00   2.810131137597784e-01  -9.461100000000044e-02  1.09834534e+00   4.01215130e-01  -6.05937960e-01
C     8.665249059299999e+00   1.001344910469103e+00  -9.913170000000093e-02 -4.84180720e-01   1.61904830e+00  -7.67363600e-02
C     8.567235778599999e+00   4.024541522953952e-01   3.713568300000000e+00  2.21224835e+00  -5.58840780e-01  -1.33712680e-01
C     9.865516029100000e+00   1.094560676813604e+00   3.716629500000000e+00 -2.03992929e+00   3.07524790e-01   2.28438750e-01
C     1.114213272570000e+01   2.447008777644631e+00  -3.861239999999988e-01 -4.25511300e-01   1.12002956e+00   1.82142550e-01
C     2.501012220300000e+00   3.161205124543867e+00  -5.320485000000019e-01  5.93175210e-01  -8.44164760e-01   7.09993740e-01
C     2.408073339300000e+00   2.514891349257487e+00   3.495705900000000e+00  7.81388490e-01  -7.72651950e-01   4.84805290e-01
C     3.629255982000000e+00   3.223757901985421e+00   3.467211600000000e+00  1.88694139e+00   8.93676360e-01   1.07227270e-01
C     3.738057384500000e+00   2.454961158104656e+00  -3.568557000000006e-01 -6.76772310e-01  -1.24907293e+00   2.19774710e-01
C     4.964669682699999e+00   3.121771461806598e+00  -2.775891000000001e-01 -3.57096600e-02   2.68795318e+00   5.13645960e-01
C     4.913999389200000e+00   2.552045352366910e+00   3.542919600000000e+00 -8.59406410e-01  -9.95907690e-01   3.73860360e-01
C     6.138307947700000e+00   3.265394202476006e+00   3.617023200000000e+00 -3.18530500e-01  -2.60159550e-01   3.33540200e-02
C     6.175000754500000e+00   2.441264585294735e+00  -8.180549999999798e-02  1.09508615e+00  -2.44688410e-01  -4.32284000e-01
C     7.431882414600000e+00   3.184768950913950e+00  -6.552359999999879e-02 -3.13671020e-01  -1.91351162e+00   1.56900370e-01
C     7.385996883300000e+00   2.546945769918150e+00   3.670540500000000e+00 -2.21953113e+00  -1.00756500e+00   2.54576010e-01
C     8.585066405399999e+00   3.209974060488395e+00   3.657129600000000e+00  1.62412405e+00   1.51922021e+00  -6.91997900e-02
C     8.662907013500000e+00   2.481295466424975e+00  -1.096305000000015e-01  9.03715390e-01  -1.60288834e+00  -3.25923430e-01
C     9.926853511499999e+00   3.185116915591010e+00  -2.831147999999999e-01 -1.84605059e+00  -7.05021900e-02  -2.36794080e-01
C     9.811124177200000e+00   2.512674024406146e+00   3.641749800000000e+00  1.19632571e+00  -6.65522030e-01  -4.64284590e-01
C     1.105446164830000e+01   3.199754658136036e+00   3.448415400000000e+00 -1.35282355e+00   1.71607083e+00   3.13126620e-01
C     1.235352034580000e+01   4.553920039364696e+00  -5.462729999999993e-01 -6.19679110e-01   2.02804186e+00   6.34403600e-01
C     3.723088326900000e+00   5.310929020838240e+00  -4.177020000000020e-01  2.23905210e-01  -1.82505773e+00   2.65566030e-01
C     3.671182378200000e+00   4.656197574410783e+00   3.465905700000000e+00 -4.61834970e-01   1.07199285e+00  -2.25943020e-01
C     4.913744261700000e+00   5.415246525488000e+00   3.557561700000000e+00 -1.10167622e+00  -1.92544063e+00   1.84939640e-01
C     4.945554199300000e+00   4.605968126113755e+00  -2.370465000000017e-01  1.07022987e+00  -1.33506792e+00  -1.17920710e-01
C     6.192948320899999e+00   5.295180182249557e+00  -7.931700000000319e-03 -1.96353600e-02   1.82320300e-02  -5.67258300e-02
C     6.113456655800000e+00   4.685344632783215e+00   3.652659600000000e+00  1.38776031e+00  -2.41594480e-01  -5.57674030e-01
C     7.380321861700000e+00   5.354536381117924e+00   3.632706000000000e+00 -6.66192920e-01   1.20418336e+00   6.69913060e-01
C     7.460605777800000e+00   4.568796874203161e+00  -1.269929999999775e-02 -2.34849546e+00   1.52211886e+00  -1.62103390e-01
C     8.642183117600000e+00   5.308472432913249e+00  -9.857729999999876e-02  1.06272017e+00   6.81004640e-01  -3.40492800e-02
C     8.608694564299999e+00   4.639428751020263e+00   3.623256900000000e+00 -8.86121600e-01   7.70910440e-01  -9.48617910e-01
C     9.787210078299999e+00   5.398006263328879e+00   3.410236800000000e+00  1.94957792e+00  -2.01512244e+00   5.62490450e-01
C     9.869196372699999e+00   4.639347459640494e+00  -3.483440999999985e-01 -2.99278500e-02  -2.45022030e+00   9.76951250e-01
C     1.109398245100000e+01   5.275130671032622e+00  -3.855572999999985e-01  1.90642944e+00   2.07283997e+00  -2.57621560e-01
C     1.101881030400000e+01   4.641312200561837e+00   3.338789100000000e+00  1.31955628e+00   7.94088380e-01   5.55079300e-01
C     1.229287853570000e+01   5.400017712637548e+00   3.401183100000000e+00 -1.01633174e+00  -2.81281116e+00  -5.14338850e-01
C     1.359576330760000e+01   6.696214654981051e+00  -3.086996999999982e-01  4.94406120e-01   1.31235478e+00   5.49625550e-01
C     4.944870802700000e+00   7.436310247616650e+00  -9.732389999999924e-02  1.68009618e+00  -4.10765770e-01   1.81217260e-01
C     4.910175237500000e+00   6.807684007858334e+00   3.635917500000000e+00 -1.12071502e+00   1.56121059e+00   4.03306110e-01
C     6.115506056800000e+00   7.546514631481426e+00   3.796784700000000e+00  1.97134047e+00  -2.26385627e+00  -9.66195360e-01
C     6.211358173399999e+00   6.732647538655439e+00   8.470980000000000e-02 -1.89918416e+00  -1.01856538e+00  -1.33306430e+00
C     7.424863228500000e+00   7.428815045777726e+00   2.294850000000000e-02  6.63785900e-02   1.04802792e+00   3.24477230e-01
C     7.384040067699999e+00   6.804926590594132e+00   3.690634800000000e+00  3.07344200e-02  -9.11436500e-02  -6.40323100e-02
C     8.648374211600000e+00   7.506190008390673e+00   3.606760200000000e+00 -1.88376571e+00   9.07738640e-01   1.75959950e-01
C     8.652959653900000e+00   6.735482404744694e+00  -1.391880000000256e-02  6.19970440e-01  -1.42662060e-01  -5.93314660e-01
C     9.895856432300000e+00   7.466979982337875e+00  -1.360722000000010e-01 -1.39583360e-01  -2.88846451e+00   5.24600970e-01
C     9.875641164499999e+00   6.804867842202029e+00   3.475864200000000e+00 -2.89254922e+00  -4.14840170e-01   1.56016890e-01
C     1.105445223200000e+01   7.499972413299766e+00   3.519425400000000e+00  1.13557723e+00   1.08724844e+00  -4.26901230e-01
C     1.114176618020000e+01   6.733000541348681e+00  -2.081295000000019e-01 -1.23319458e+00  -1.63561812e+00  -1.04833025e+00
C     1.237342167120000e+01   7.385637966236130e+00  -2.707029000000034e-01 -7.20656270e-01   2.01951203e+00   8.26640360e-01
C     1.225769534420000e+01   6.784068605864951e+00   3.432781800000000e+00  2.25103422e+00   1.62579939e+00   9.75002780e-01
C     1.351042441600000e+01   7.518925771741384e+00   3.611360700000000e+00 -3.07532560e-01  -6.34538660e-01  -3.43669880e-01
