76
Lattice="10.7446858958278 0 0 5.37234294791388 9.3051709414712 0 0 0 30 " PBC="1 1 1" Properties=species:S:1:pos:R:3:force:R:3 Energy="-611.32709548"
C     1.265322685001635e-01   3.015712849944600e-03  -8.830920000000120e-02 -1.70718977e+00   1.76158560e+00  -8.61432030e-01
C     1.253349731077662e+01   8.518569108585391e+00  -2.495967000000014e-01  2.05771500e-02   1.11669625e+00   8.31944100e-02
C     1.396660224164054e+01   8.427883331948594e+00  -3.156441000000001e-01 -1.35228685e+00  -3.59359825e+00   9.43245450e-01
C     1.451952769986489e+01   7.066334063751812e+00  -9.464129999999926e-02 -1.12642297e+00   2.56604400e-01  -4.04308050e-01
C     8.277778758883544e+00   8.966742803429295e+00   6.632220000000000e-02  3.68824990e-01   1.87953495e+00  -2.85984680e-01
C     9.704608363394424e+00   8.874179429400225e+00  -2.619689999999864e-02 -4.30025320e-01  -9.64930910e-01  -4.51296340e-01
C     1.029600183863110e+01   7.570364838714347e+00   7.092300000000000e-03 -7.01466360e-01  -5.42787270e-01  -6.88282720e-01
C     1.169337843249348e+01   7.386740503556183e+00  -3.361680000000078e-02  3.13418790e-01   4.06570570e-01   1.32717710e-01
C     1.225089552479034e+01   6.088847165346264e+00   1.639368000000000e-01  1.54586450e-01   7.43897130e-01  -1.14295899e+00
C     1.364996521253341e+01   5.931981617208549e+00   1.279173000000000e-01  1.02601309e+00   3.58080790e-01  -4.01026050e-01
C     6.031841509366966e+00   8.003029977359391e+00  -1.007135999999988e-01 -4.34042900e-02  -6.82926670e-01   2.41920600e-02
C     7.448332684551726e+00   7.825442092693423e+00  -2.944500000001682e-03  3.32975590e-01  -8.55035700e-01  -4.83700080e-01
C     8.055265769218135e+00   6.491969875084159e+00  -8.223630000000171e-02 -1.97892792e+00   1.12030525e+00   4.91798630e-01
C     9.460705981231317e+00   6.376836901991829e+00  -3.557280000000063e-02 -7.20924780e-01   1.74030882e+00   9.78196530e-01
C     9.989416839247424e+00   5.109620572181774e+00   1.362672000000000e-01  1.68991104e+00  -7.00400210e-01  -8.63302130e-01
C     1.142603146803715e+01   4.968929272171966e+00   1.341156000000000e-01 -8.96559960e-01  -2.10923720e+00   1.05356478e+00
C     1.199119297456442e+01   3.626456721022696e+00   1.937307000000000e-01 -1.48664085e+00   7.21495440e-01  -5.63157960e-01
C     5.153911759061143e+00   6.832999737449689e+00  -1.495856999999994e-01  1.34089432e+00   1.32139738e+00   5.74801410e-01
C     5.733764689513205e+00   5.535254351457716e+00  -2.666639999999987e-02 -2.40986410e-01   1.81720080e-01   3.11450770e-01
C     7.148453497361670e+00   5.348584154695762e+00  -3.095429999999766e-02  8.12522910e-01   1.08939119e+00   3.66314560e-01
C     7.701644564221471e+00   4.058769938102789e+00   1.009899000000000e-01  1.70308978e+00   9.79955280e-01  -5.66014790e-01
C     9.167970022397869e+00   3.966479205582262e+00   8.929920000000000e-02 -1.72118833e+00  -1.48594010e-01   1.78768060e-01
C     9.743124462876148e+00   2.694936715698784e+00   1.205040000000000e-02 -1.97511752e+00  -1.90756204e+00  -7.51723360e-01
C     1.111610186282652e+01   2.482787658179177e+00   9.652590000000000e-02  1.17205925e+00   1.06112038e+00  -7.94343800e-02
C     3.466874818980762e+00   4.621320747003566e+00   1.932030000000000e-01  4.89849530e-01  -3.69942370e-01  -3.33610370e-01
C     4.875979882184144e+00   4.417737564592776e+00   1.566537000000000e-01  9.97723580e-01  -5.59014610e-01  -3.85627610e-01
C     5.491482283643239e+00   3.081939984765606e+00   1.253985000000000e-01 -2.44537181e+00   1.72895682e+00  -3.60564800e-02
C     6.864807811416769e+00   2.923049259224507e+00   6.497430000000000e-02  5.99395560e-01   1.17559814e+00  -7.99604220e-01
C     7.433557989311214e+00   1.704036692538354e+00  -2.720030999999992e-01  2.43749290e-01  -2.33148449e+00   8.43596730e-01
C     8.843217209689890e+00   1.559694601761946e+00  -2.690736000000022e-01  1.49619484e+00  -3.11504530e-01   4.83345820e-01
C     9.403378784080456e+00   2.211471578185870e-01  -3.332823000000005e-01  2.65890493e+00   1.70085194e+00   9.55902020e-01
C     2.631985325601716e+00   3.466409827992303e+00   1.544451000000000e-01  4.57989180e-01  -1.66227500e-02   4.24696930e-01
C     3.193859065690449e+00   2.162275511632927e+00   7.770960000000000e-02  5.86176890e-01  -1.43842330e-01   5.09259350e-01
C     4.615769914166600e+00   1.977813990245290e+00   2.795040000000000e-02 -9.50818730e-01   1.62070325e+00  -2.85918060e-01
C     5.136689854160046e+00   7.329340719147408e-01  -1.981880999999994e-01  2.12096671e+00  -2.74835319e+00   1.16487596e+00
C     6.584670372865078e+00   5.275819765082568e-01  -2.715996000000018e-01 -4.80523880e-01   4.65668730e-01  -3.98406550e-01
C     9.452924303638531e-01   1.204561264009496e+00   3.995040000000000e-02 -1.86343690e-01  -2.17062736e+00   5.33530000e-02
C     2.354171317929041e+00   1.026259114422173e+00   1.102842000000000e-01 -9.64327100e-02  -1.22330975e+00  -6.34943020e-01
C     1.602528174997308e+01   9.270372857494229e+00   3.246009600000000e+00  3.79044470e-01   5.13320480e-01  -5.24738540e-01
C     1.179073087398415e+01   8.796277375755929e+00   3.304795200000000e+00 -3.87903260e-01  -2.08072750e+00   6.83169110e-01
C     1.320448591490447e+01   8.968509204028834e+00   3.284634300000000e+00 -6.79165910e-01  -4.39139510e-01  -4.51818960e-01
C     1.405971837582142e+01   7.841181696286723e+00   3.341025600000000e+00 -1.17284930e-01  -1.43726132e+00   1.62473600e-01
C     7.518041735393169e+00   8.278563905236380e+00   3.272830800000000e+00  6.29337850e-01  -1.32131610e-01   8.53995960e-01
C     8.928388991733453e+00   8.462253934901383e+00   3.380162700000000e+00  1.14603760e-01  -2.30980050e-01  -3.74494780e-01
C     9.783270423762044e+00   7.323145336335555e+00   3.399419100000000e+00  9.03833540e-01   7.37911840e-01   9.30417980e-01
C     1.121980618655726e+01   7.464043025036814e+00   3.377360100000000e+00 -2.28343040e-01   7.76158070e-01  -2.04851960e-01
C     1.206088263124781e+01   6.329524481192271e+00   3.429515100000000e+00  1.02789678e+00  -4.44404400e-01   5.16504270e-01
C     1.351189277531264e+01   6.502901310749342e+00   3.442571700000000e+00 -1.29142384e+00   1.23438215e+00  -1.87749770e-01
C     4.730616154835064e+00   7.968769361527114e+00   3.326913600000000e+00 -5.16164450e-01  -2.63287140e-01   1.65096440e-01
C     5.561368514355173e+00   6.808917582850131e+00   3.464879700000000e+00 -4.54567830e-01  -4.22864780e-01   1.57732570e-01
C     6.950130287680080e+00   6.976676136297050e+00   3.423696600000000e+00  8.13377220e-01  -5.31703000e-03   1.21154610e-01
C     7.817523100587779e+00   5.850344747104065e+00   3.574609800000000e+00 -1.97529000e-02   6.86234640e-01   1.60723220e-01
C     9.218402838117564e+00   6.065082130972343e+00   3.614819400000000e+00  4.44576660e-01  -2.56663257e+00  -1.34120516e+00
C     1.006705401775047e+01   4.876979667218100e+00   3.541930800000000e+00  6.81470620e-01  -2.44793210e-01   2.99640350e-01
C     1.150565936822032e+01   5.005611372637960e+00   3.542468400000000e+00 -1.13338219e+00   1.43220502e+00  -4.60301250e-01
C     1.235465555971747e+01   3.883125252284221e+00   3.492761400000000e+00 -8.90110110e-01   9.57709200e-02  -3.96004320e-01
C     3.589361981856722e+00   5.367558980121481e+00   3.515259600000000e+00  7.17205490e-01  -4.35686130e-01   3.14361050e-01
C     5.029016013670408e+00   5.470428761483693e+00   3.639441000000000e+00 -1.72995148e+00   2.39604701e+00  -1.08786265e+00
C     5.865916536185927e+00   4.366492406347136e+00   3.636430800000000e+00  7.61591900e-01  -7.68651680e-01   1.60391700e-01
C     7.280308951873842e+00   4.543062863622525e+00   3.610664400000000e+00 -3.22122490e-01  -1.48965080e-01  -6.48804470e-01
C     8.088924196204468e+00   3.411461118660834e+00   3.378732000000000e+00  8.16885910e-01  -1.24151823e+00   8.71780540e-01
C     9.536260248649219e+00   3.539407963499509e+00   3.409493700000000e+00 -1.55273920e+00   1.51839978e+00  -2.23576430e-01
C     1.036516522059911e+01   2.414952031509483e+00   3.255643200000000e+00  1.05744335e+00  -2.09663450e-01   5.73844440e-01
C     1.180497134344171e+01   2.583622119501683e+00   3.371921700000000e+00 -9.06861920e-01  -3.46134320e-01  -2.46863560e-01
C     2.983568854640875e+00   4.088594499792840e+00   3.444372900000000e+00  2.17682974e+00  -1.43215280e+00   6.81664390e-01
C     3.862350551091708e+00   2.926663480669313e+00   3.448715400000000e+00  1.27449542e+00   8.51396830e-01   9.13954680e-01
C     5.320687603918604e+00   3.064052747719353e+00   3.591087600000000e+00 -2.15605348e+00  -5.55958370e-01  -1.13245757e+00
C     6.109977080125484e+00   1.887401413427293e+00   3.415167300000000e+00 -3.89141820e-01   5.53917430e-01   8.26052790e-01
C     7.499895572610955e+00   2.081669933623725e+00   3.312792300000000e+00  8.03730240e-01   9.04207120e-01  -2.03992920e-01
C     8.346777747157285e+00   9.620591110904462e-01   3.183395400000000e+00  1.94816220e+00   2.08700750e-01   4.80708040e-01
C     9.792277049270860e+00   1.117287321349560e+00   3.167967600000000e+00 -2.49677010e-01  -2.65247100e-01   3.62687500e-01
C     1.916375867527771e+00   1.468330292060206e+00   3.315782400000000e+00 -2.20876870e-01  -1.76455716e+00   1.44488660e-01
C     3.339935864119283e+00   1.624319944457340e+00   3.439361700000000e+00 -1.46831493e+00  -3.69077760e-01  -6.16841130e-01
C     4.136953079595733e+00   4.487680161118414e-01   3.432211800000000e+00 -2.83629520e-01  -2.05708190e-01  -4.31173000e-03
C     5.534060250459169e+00   5.608929996461064e-01   3.441213300000000e+00  9.44395100e-01   2.13685653e+00  -8.59799050e-01
C     1.335776879810243e+00   1.119490227517896e-01   3.231951300000000e+00 -5.78117940e-01   1.98868912e+00   3.68681500e-01
