64
Lattice="9.86 0 0 4.93 8.53901048131456 0 0 0 30 " PBC="1 1 1" Properties=species:S:1:pos:R:3:force:R:3 Energy="-515.33903269"
C     5.039930766900000e+00   6.684164318001571e+00  -2.593967999999975e-01  1.39946460e-01   1.55005125e+00   5.57581200e-02
C     6.273334189400000e+00   7.435769813643372e+00  -1.651778999999998e-01 -5.52038520e-01   4.91404730e-01  -5.25867400e-01
C     9.713815048400001e+00   1.774980711588885e+00   3.704436600000000e+00  1.20342596e+00   1.35624199e+00   1.56511360e-01
C     1.097150138310000e+01   2.490700332567647e+00   3.616032900000000e+00 -3.18752600e-02  -1.64427409e+00   3.21246590e-01
C     7.516761928799999e+00   6.763266039313784e+00  -9.771749999999813e-02 -2.27795420e-01  -6.37017740e-01  -2.52647720e-01
C     8.736268371500000e+00   7.475961313560740e+00  -1.999598999999996e-01  2.03587070e-01  -1.44474180e-01   4.56748390e-01
C     2.360259290600000e+00   1.777254650079709e+00   3.601017600000000e+00 -6.31123090e-01   5.60969190e-01  -2.86210170e-01
C     3.583624395000000e+00   2.489484633645610e+00   3.539784900000000e+00  1.64893410e-01   9.40264380e-01   3.75718680e-01
C     9.973950195899999e+00   6.770044562003123e+00  -2.716884000000022e-01 -8.10096730e-01  -1.77049023e+00  -4.18167450e-01
C     1.119208328850000e+01   7.475524970125212e+00  -3.437391000000005e-01  2.51350310e-01  -7.04930620e-01  -3.48080050e-01
C     4.831486521500000e+00   1.792485426902571e+00   3.555478500000000e+00 -4.07189290e-01   2.16751863e+00   8.26452800e-02
C     6.063436432100000e+00   2.534346118394490e+00   3.640049700000000e+00  7.24801130e-01  -1.69553940e+00   7.23091540e-01
C     1.241137005040000e+01   6.740584036555970e+00  -4.478499000000014e-01  1.16107366e+00   1.10592800e+00   7.68745090e-01
C     1.369465999500000e+01   7.439027958482121e+00  -3.843986999999984e-01 -1.25035819e+00   5.02272000e-03   1.83123930e-01
C     7.300563039899999e+00   1.789522731826430e+00   3.755400000000000e+00 -6.56975710e-01   3.78632450e-01  -4.72466210e-01
C     8.500793379799999e+00   2.533399056742153e+00   3.822653100000000e+00  6.04472270e-01  -1.32916460e+00  -3.90107830e-01
C     1.338669423400000e+00   3.312345353869552e-01  -2.969909999999985e-01 -1.24893699e+00  -3.28759900e-02   5.70557800e-02
C     2.544682061700000e+00   1.054097721753076e+00  -2.281803000000018e-01  6.65096830e-01   5.27627460e-01  -4.66666180e-01
C     1.100164655830000e+01   3.871465158392031e+00   3.617116500000000e+00 -7.02634900e-02   2.91063957e+00  -1.18995320e-01
C     1.222537559530000e+01   4.648504011358408e+00   3.478709700000000e+00 -8.09266570e-01  -8.74357850e-01   7.56309700e-01
C     3.772475982300000e+00   3.500450361832424e-01  -1.992498000000005e-01  1.55641594e+00   3.81471580e-01   7.48785200e-02
C     5.054136019600000e+00   1.056998167442817e+00  -2.027994000000000e-01 -1.71320135e+00  -2.57094580e-01  -5.16821700e-02
C     3.572209325100000e+00   3.934144398578794e+00   3.566572500000000e+00  1.84452021e+00  -3.62363120e-01  -6.81190310e-01
C     4.863970883099999e+00   4.637751347801571e+00   3.616370100000000e+00 -1.35999316e+00  -1.26380587e+00   3.31659900e-02
C     6.268608488600000e+00   3.464739366104016e-01  -2.804670000000016e-01  2.93766000e-03   2.87468320e-01   2.80218090e-01
C     7.485072480400000e+00   1.061604963596777e+00  -2.597117999999980e-01  1.42380326e+00  -6.31740000e-03  -4.55240400e-02
C     6.101955508100000e+00   3.941734554214257e+00   3.752342100000000e+00 -1.31341182e+00   5.56849000e-02  -6.50587940e-01
C     7.300799088300000e+00   4.675399332667263e+00   3.846213600000000e+00  8.48072620e-01  -6.42286850e-01  -4.54332900e-02
C     8.743093611399999e+00   3.497069767583392e-01  -3.577844999999975e-01 -1.09422048e+00  -9.34419370e-01  -9.23212600e-02
C     9.941490878700000e+00   1.065026630486218e+00  -4.228568999999993e-01  1.42114898e+00  -9.11169700e-01   6.91716530e-01
C     8.520488384699998e+00   3.939275831536646e+00   3.871614300000000e+00  1.30832276e+00   9.24280080e-01  -2.16103500e-01
C     9.806334632900001e+00   4.629932859025875e+00   3.794462100000000e+00 -1.74638845e+00  -7.21247800e-02  -2.32882100e-01
C     2.584072958900000e+00   2.494682073154471e+00  -3.266580000000019e-01 -1.36418085e+00  -1.17350512e+00  -1.03703640e-01
C     3.783781902000000e+00   3.181704470832888e+00  -1.922540999999995e-01  1.22929263e+00   2.94517290e-01  -3.06966650e-01
C     1.220353712500000e+01   6.076663675560879e+00   3.487077000000000e+00 -1.22002810e+00  -7.15736340e-01   2.53560400e-01
C     1.341900624280000e+01   6.728862195309654e+00   3.554812800000000e+00  2.41569169e+00   1.37380198e+00   7.46119200e-02
C     5.040864459600000e+00   2.465534587831515e+00  -1.564142999999980e-01  3.21940970e-01   8.81170770e-01   5.43033170e-01
C     6.291578147400000e+00   3.188175674535051e+00  -5.689590000000067e-02 -7.79869030e-01   1.39249300e-02  -5.75084800e-01
C     4.845393607799999e+00   6.022788496739414e+00   3.588464400000000e+00 -8.69286660e-01   1.36318311e+00   3.77276930e-01
C     6.066210247299999e+00   6.745851154390348e+00   3.712886700000000e+00 -3.15675290e-01   2.01625947e+00   3.63055100e-02
C     7.528119662799999e+00   2.490488479717638e+00  -1.302017999999983e-01 -9.40042320e-01  -9.89518480e-01  -2.75939500e-01
C     8.749129656899999e+00   3.190456358844154e+00  -2.384798999999980e-01 -4.81706600e-01  -6.29438470e-01  -3.48541360e-01
C     7.315626063299999e+00   6.088286891236149e+00   3.801800400000000e+00 -9.36657200e-02   5.22304000e-03   1.14160910e-01
C     8.565774378699999e+00   6.795506525012805e+00   3.791107800000000e+00 -1.57266749e+00   3.24442600e-01  -3.32042600e-02
C     9.942550039899999e+00   2.468982213312815e+00  -4.354539000000024e-01  1.65552486e+00   8.95945100e-01   6.60462400e-02
C     1.121598530890000e+01   3.197078703031814e+00  -5.102943000000018e-01 -1.21328105e+00  -1.53111203e+00   7.23887400e-01
C     9.769087940599999e+00   6.076819427112033e+00   3.773776800000000e+00  4.66278680e-01  -8.43803810e-01  -6.72572620e-01
C     1.095223178790000e+01   6.804215291021148e+00   3.567464700000000e+00  1.61918695e+00   5.28610220e-01   4.33160090e-01
C     3.779135031900000e+00   4.606438284030784e+00  -2.250200999999983e-01 -7.11635110e-01  -2.06678500e-01  -6.08238200e-01
C     5.020593827900000e+00   5.264451699136229e+00  -1.878363000000007e-01 -7.16913800e-02   1.60624041e+00   1.58003150e-01
C     1.345501811800000e+01   8.163558215864251e+00   3.665115900000000e+00  7.22225630e-01  -4.93444960e-01  -3.94222850e-01
C     9.757149008900001e+00   3.652024629060808e-01   3.676038300000000e+00 -1.44204130e+00  -2.63776490e-01   4.32182540e-01
C     6.257199186799999e+00   4.615449245620013e+00  -9.015510000000049e-02  1.24514551e+00  -6.36360010e-01   4.14809650e-01
C     7.507690432999999e+00   5.344566147091371e+00  -7.238849999999886e-02 -5.43062980e-01  -9.95636410e-01  -4.05276010e-01
C     6.032308510700000e+00   8.218268595300763e+00   3.741234900000000e+00  1.48531109e+00  -1.92970289e+00  -7.09636000e-01
C     2.345624684200000e+00   3.752020711286848e-01   3.679479000000000e+00  2.48461720e-01  -5.92073190e-01   8.88278300e-02
C     8.722369123899998e+00   4.590600981293528e+00  -2.215355999999993e-01 -5.11980590e-01   1.13194368e+00   3.02924110e-01
C     9.925476907599998e+00   5.279730806758408e+00  -3.617879999999971e-01  1.33446550e+00   2.44600003e+00  -4.29426000e-02
C     8.527960588500001e+00   8.224318655006053e+00   3.683122800000000e+00 -3.45301790e-01  -7.21352280e-01  -8.15516400e-02
C     4.805454741100000e+00   4.097106887914040e-01   3.577944900000000e+00  1.25476592e+00  -1.04104781e+00   3.70284490e-01
C     1.115936085720000e+01   4.584163165122341e+00  -5.175203999999987e-01  9.93954340e-01   1.74159374e+00   8.84434810e-01
C     1.240223683100000e+01   5.344351988708533e+00  -4.053059999999995e-01  1.34010770e-01  -1.76631238e+00  -1.54936900e-01
C     1.098459664630000e+01   8.252003664004100e+00   3.601322100000000e+00  1.72119010e-01  -1.82445183e+00  -2.27019870e-01
C     7.340028478700000e+00   3.489631435554264e-01   3.666268500000000e+00 -2.30547938e+00   1.40292069e+00  -5.84200400e-02
