52
Lattice="8.88768389401873 1.33226762955019e-15 0 4.44384194700937 7.69696003302603 0 0 0 30 " PBC="1 1 1" Properties=species:S:1:pos:R:3:force:R:3 Energy="-419.25869126"
C     1.277026260272632e+01   7.029552238531482e+00  -2.107188000000022e-01 -1.19748531e+00   2.27177230e-01   8.37173000e-03
C     9.021022127423278e+00   6.789367985038530e+00  -2.374791000000016e-01 -1.77600840e+00   5.94855040e-01   8.60939200e-02
C     1.035952807375070e+01   6.406886721778155e+00  -2.873397000000004e-01  6.66730480e-01   8.99633000e-02   8.32195800e-02
C     1.070650160769933e+01   5.028436533643848e+00  -3.103197000000009e-01 -1.16305387e+00  -1.42627970e-01   3.41103350e-01
C     6.589913738565514e+00   6.223318843238673e+00  -1.424835000000009e-01  2.21922750e-01  -1.69856300e-01  -2.26284510e-01
C     7.968461100467581e+00   5.803194827255580e+00  -2.488857000000024e-01 -2.36228460e-01   7.39771390e-01   1.52155600e-01
C     8.288742564454745e+00   4.419256167832682e+00  -3.310290000000009e-01 -3.33406890e-01   1.59617100e-02   6.50806650e-01
C     9.652161488607934e+00   4.022224571331594e+00  -2.694149999999986e-01  1.09789381e+00   2.60952830e-01  -3.69207330e-01
C     1.002437537822049e+01   2.632410052621794e+00  -1.942067999999999e-01  2.31109610e-01   2.05299487e+00  -8.32919000e-02
C     4.200157698671407e+00   5.643079893805909e+00  -2.554043999999998e-01  2.63172900e-02   9.72528690e-01   4.72026660e-01
C     5.539113361786320e+00   5.233905111343891e+00  -1.981515000000016e-01  1.27480510e+00   1.53298675e+00  -1.43746440e-01
C     5.885004642490993e+00   3.891366167803955e+00  -2.542353000000013e-01 -3.36338560e-01  -1.99914050e+00   2.11903350e-01
C     7.214873893085056e+00   3.452834717969916e+00  -2.929527000000007e-01  2.15902004e+00   5.10258940e-01  -5.58725600e-02
C     7.599708293837108e+00   2.087184035578297e+00  -2.671211999999983e-01  4.82660070e-01  -3.19291270e-01   3.72566060e-01
C     9.001838058433194e+00   1.688563016831015e+00  -1.795061999999987e-01 -1.79439431e+00   4.78977570e-01  -2.19700360e-01
C     3.181152922156898e+00   4.692225314695017e+00  -2.717010000000002e-01 -3.09073340e-01  -2.27884923e+00  -1.22503900e-01
C     3.523675592866550e+00   3.277284762693685e+00  -2.359161000000007e-01 -3.11971530e-01   8.06129120e-01   3.51254800e-01
C     4.875590298991957e+00   2.879382793952405e+00  -2.055702000000004e-01 -7.92287000e-02  -2.05160890e-01  -5.87004330e-01
C     5.192792536010017e+00   1.482246003226865e+00  -2.464289999999991e-01  2.00435039e+00   7.53080900e-01   5.25935690e-01
C     6.598741071747255e+00   1.089994064965207e+00  -2.394204000000002e-01 -1.16046977e+00   6.66098700e-02  -1.85223840e-01
C     1.137703212043517e+01   7.408858736688284e+00  -2.404517999999989e-01  8.13308960e-01  -2.20999510e-01  -1.02200030e-01
C     2.513876723744533e+00   2.296887172808446e+00  -1.676148000000026e-01 -2.19545860e-01  -1.67617774e+00  -7.51522400e-02
C     2.855581105389543e+00   8.682632731441799e-01  -1.288182000000013e-01 -1.61479270e-01   2.01250985e+00   1.96258600e-01
C     4.211234193567667e+00   4.957391822266142e-01  -1.757792999999985e-01 -2.41259800e-02  -1.31190469e+00  -3.03619710e-01
C     4.298538980840013e-01   3.418751039565070e-01  -1.318485000000003e-01  1.47917380e+00  -1.94121544e+00   1.20619820e-01
C     6.275782551838662e+00   7.620236732420960e+00  -6.794220000000095e-02 -1.38906037e+00  -8.05283040e-01  -5.74600180e-01
C     5.729080140016860e-01   6.367293251505434e-01   3.651975900000000e+00  1.81320850e-01   2.38685843e+00   3.07228800e-02
C     2.999416625760707e+00   6.379286654624179e-02   3.587409900000000e+00 -1.98165840e-01   1.00220632e+00   8.65628600e-02
C     4.380938873767179e+00   4.945571600748070e-01   3.547615200000000e+00 -1.17729188e+00   4.41478510e-01   2.63514000e-02
C     9.829845977861162e+00   7.212325021099865e+00   3.466698600000000e+00 -3.72315760e-01  -4.36603320e-01   1.04732446e+00
C     1.117538981492432e+01   7.589944730466092e+00   3.605879100000000e+00  6.27959860e-01   3.21881070e-01  -5.61823730e-01
C     1.219273734820194e+01   6.600638525102930e+00   3.651991200000000e+00 -2.19146510e-01  -4.06132740e-01  -1.21613980e-01
C     4.656258349972578e+00   7.001843336362684e+00   3.704459700000000e+00  6.23706460e-01  -1.57665764e+00  -4.14327890e-01
C     5.692010010217429e+00   5.997814001006136e+00   3.676308000000000e+00  2.93464800e-01   9.82239340e-01   3.47853420e-01
C     7.073169462948147e+00   6.398771047122523e+00   3.622635300000000e+00  2.25037510e-01  -2.96690480e-01  -5.89687300e-02
C     8.122375654591075e+00   5.422509572648605e+00   3.607448700000000e+00 -4.70338850e-01   1.27035838e+00  -8.50643000e-02
C     9.475035060274823e+00   5.833094438188118e+00   3.533065200000000e+00 -3.44016800e-02   1.43607480e-01  -3.73676810e-01
C     1.048630088478764e+01   4.852822847538570e+00   3.531606900000000e+00  3.87576300e-01  -1.02386136e+00   4.48438440e-01
C     1.185099208137945e+01   5.209731115038470e+00   3.600881700000000e+00  4.55431450e-01   5.03511180e-01   7.47544000e-02
C     3.980600887638786e+00   4.207067605239247e+00   3.660191400000000e+00  6.62467430e-01   1.06449239e+00   2.31193730e-01
C     5.362435137788438e+00   4.638172797127540e+00   3.729846300000000e+00 -8.64266500e-02  -1.05057532e+00  -8.47535700e-01
C     6.436736593668356e+00   3.669897072623947e+00   3.657172200000000e+00 -1.56431127e+00   2.55153840e-01   8.24222980e-01
C     7.778769751179025e+00   4.082115771869028e+00   3.660748500000000e+00  6.57938750e-01  -2.03772749e+00  -5.53942610e-01
C     8.799365021879968e+00   3.056238692436926e+00   3.603054300000000e+00 -3.77908260e-01   4.74968780e-01   2.88003660e-01
C     1.015937614192116e+01   3.462682901358701e+00   3.593690100000000e+00 -1.19267780e-01  -9.22844360e-01  -1.00643030e-01
C     2.269513454783761e+00   2.424354141807666e+00   3.637290000000000e+00  7.90507970e-01   9.11910500e-01  -2.45100990e-01
C     3.659564501991529e+00   2.834759206360878e+00   3.653094600000000e+00 -1.11164399e+00   1.49108680e-01  -5.24780500e-02
C     4.697086588910779e+00   1.897710356577397e+00   3.640255800000000e+00  7.85363380e-01  -1.21400515e+00  -3.28357600e-02
C     6.080141784617648e+00   2.302381339847460e+00   3.687923100000000e+00 -4.01176500e-01  -1.06481403e+00  -8.36722180e-01
C     7.081768382659955e+00   1.274740040206881e+00   3.616500300000000e+00 -1.58257600e-02   6.88229800e-01   4.41781130e-01
C     8.446557077173816e+00   1.677492941037468e+00   3.626448000000000e+00  3.89441290e-01  -7.71800100e-01   7.97172000e-03
C     1.947242792028359e+00   1.039853065515376e+00   3.636549300000000e+00  2.77400700e-02   1.69493650e-01  -8.88150500e-02
