64
Lattice="9.86 0 0 4.93 8.53901048131456 0 0 0 30 " PBC="1 1 1" Properties=species:S:1:pos:R:3:force:R:3 Energy="-509.13821065"
C     9.808914403299999e+00   4.817871954015120e-02  -4.091394000000008e-01  5.16953687e+00  -5.01537443e+00   1.51806780e-01
C     1.235962930600000e+00   6.940499179133520e-01  -4.704591000000029e-01 -3.40594670e-01  -1.85373251e+00   1.30171659e+00
C     9.840802826499999e+00   3.593207070973520e-02   3.830546700000000e+00 -2.69456690e-01   4.66800800e-01  -1.26727741e+00
C     1.212119675800000e+00   7.717403969635360e-01   3.787638900000000e+00  1.08490768e+00   1.14300620e-01  -3.27453950e-01
C     7.398250940599999e+00   8.408686565032353e+00  -4.447913999999997e-01  3.73487250e-01   7.32524156e+00   8.51583300e-01
C     3.781391246400000e+00   7.219429372066912e-01  -2.255456999999979e-01 -2.26666229e+00  -7.42556956e+00  -2.03224694e+00
C     2.524822986400000e+00   7.066304420535359e-02   3.596984400000000e+00 -7.45668457e+00  -2.65878114e+00   1.84708250e-01
C     3.646836214100000e+00   7.495867027841192e-01   3.629943900000000e+00  3.20964277e+00   2.30575643e+00   4.54404190e-01
C     9.911110788999999e+00   8.499676382124928e+00  -3.315891000000022e-01 -5.88724720e-01   1.74938440e-01   6.54688470e-01
C     6.194899269800000e+00   6.225439025934129e-01  -3.800279999999994e-01  8.42043780e-01   3.93560367e+00   6.46415720e-01
C     4.860939623300000e+00   9.357927202063440e-02   3.668865000000000e+00  4.41732984e+00  -3.24842736e+00  -5.93240880e-01
C     6.205413579399999e+00   7.139835547580736e-01   3.649667700000000e+00 -5.46135583e+00   3.18663634e+00  -2.22313220e-01
C     7.467761672799999e+00   1.146959887673600e-02  -2.282480999999983e-01 -2.35600145e+00  -4.24887410e-01  -7.35356200e-01
C     8.669186699599999e+00   7.301648088374639e-01  -3.029478000000019e-01 -2.55219781e+00  -2.38593045e+00  -4.84371270e-01
C     7.388887588799999e+00   8.637977611463200e-02   3.659729100000000e+00  3.38391740e-01  -4.61740952e+00  -6.69918170e-01
C     8.573420414299999e+00   7.397248288005576e-01   3.669729900000000e+00  3.93416910e+00   2.34693198e+00   1.47951668e+00
C     1.105132823890000e+01   2.077607256335011e+00  -2.100831000000021e-01  1.88304292e+00  -5.47246400e-02  -1.53670324e+00
C     2.496631718100000e+00   2.701197700052852e+00  -2.286888000000005e-01 -2.15827626e+00   4.17279950e+00   1.50983685e+00
C     1.107675047410000e+01   2.208327552169139e+00   3.847293300000000e+00  7.39653350e-01  -1.13523326e+00  -2.15870590e-01
C     2.535508860000000e+00   2.856173140545525e+00   3.780487500000000e+00 -6.91025293e+00   4.36782927e+00   8.15253190e-01
C     3.723321220100000e+00   2.033135406634332e+00  -2.373236999999975e-01 -1.00435300e-01   4.36936602e+00   1.29485410e-01
C     4.938207513300000e+00   2.810713071161996e+00  -2.710988999999984e-01  1.20735436e+00  -2.81842251e+00  -7.50895580e-01
C     3.631884312900000e+00   2.157905549185787e+00   3.748855200000000e+00  5.35171631e+00  -2.28776900e-02  -3.50059440e-01
C     4.909112970399999e+00   2.907700433045408e+00   3.748155000000000e+00  4.83123260e-01  -2.29231485e+00  -8.65482430e-01
C     6.171553254800000e+00   2.143846324600781e+00  -4.206696000000001e-01 -3.19948780e-01  -4.28703843e+00   1.06098511e+00
C     7.411330329199999e+00   2.780258946455390e+00  -3.330789000000003e-01 -1.47393335e+00  -5.11750130e-01  -1.18151332e+00
C     6.140213737800000e+00   2.155573972374222e+00   3.588111300000000e+00  7.39194120e-01   3.14377840e-01   1.26120879e+00
C     7.375299867899999e+00   2.885104930463756e+00   3.643329900000000e+00 -8.25623860e-01   1.28361828e+00  -3.01986680e-01
C     8.615233469800000e+00   2.059334200858334e+00  -4.181966999999993e-01 -3.25090800e-01   3.47026065e+00   1.11823892e+00
C     9.780042055499999e+00   2.773902421663974e+00  -2.749284000000003e-01  3.87123445e+00  -4.32045190e-01   2.96987100e-02
C     8.631677139699999e+00   2.186839473856637e+00   3.748368600000000e+00 -1.43938208e+00  -1.45363250e-01  -4.64863600e-01
C     9.832626372200000e+00   2.910596694620014e+00   3.865746900000000e+00  1.51814975e+00   7.61964080e-01  -6.25403550e-01
C     2.511051918800000e+00   4.252052356479928e+00  -6.580740000000063e-02 -1.85169854e+00  -3.96656622e+00  -8.81826610e-01
C     3.719637721300000e+00   4.883759215049114e+00  -1.097511000000004e-01  2.09603916e+00   2.79750275e+00  -1.74499733e+00
C     1.232166100960000e+01   4.361701448493189e+00   3.829076700000000e+00 -1.66637100e-01  -2.49531198e+00  -2.85514080e-01
C     3.643862388800000e+00   5.048067110875589e+00   3.698039100000000e+00  2.82905391e+00  -1.72993531e+00   6.41911000e-01
C     5.023465109200000e+00   4.148831602336220e+00  -3.010647000000013e-01 -4.38031421e+00   4.36297061e+00   1.10330498e+00
C     6.190312348499999e+00   4.912314861555701e+00  -3.754086000000001e-01  3.70915390e-01  -1.41236988e+00   5.29852230e-01
C     4.966733775100000e+00   4.291942087766934e+00   3.718316700000000e+00 -4.02223769e+00   1.85295666e+00  -3.79450500e-01
C     6.114025479200000e+00   5.073843651031355e+00   3.584999400000000e+00  5.96211420e-01  -1.15999462e+00  -3.09549040e-01
C     7.372821556900000e+00   4.156665546720887e+00  -3.566910000000014e-01  2.68983365e+00   1.94387540e+00  -3.38169100e-02
C     8.642257511299999e+00   4.818408289263369e+00  -3.275112000000000e-01 -5.16623390e-01   4.95525275e+00  -8.22258200e-02
C     7.289966793700000e+00   4.349650257612660e+00   3.589362600000000e+00  5.16359577e+00  -1.04979293e+00   4.70647760e-01
C     8.651320626099999e+00   5.077839139425052e+00   3.661194000000000e+00 -2.70986534e+00  -1.84685061e+00  -3.94179810e-01
C     9.861930735900000e+00   4.160240488848444e+00  -2.398316999999999e-01 -3.31454000e-03   1.24741738e+00   2.49919190e-01
C     1.108437304290000e+01   4.917096024303663e+00  -1.214879999999994e-01  1.03389401e+00   4.71868020e-01   2.05814370e-01
C     9.894149962100000e+00   4.360313773900084e+00   3.784374900000000e+00 -3.73831501e+00  -1.20126667e+00   5.60316130e-01
C     1.106417295950000e+01   5.073490733728217e+00   3.884548800000000e+00  2.54588812e+00  -3.90590500e+00  -4.85159050e-01
C     3.708320068200000e+00   6.386938697384045e+00  -3.200061000000005e-01 -4.34535350e-01  -1.66261849e+00   2.15617866e+00
C     4.940355070600000e+00   7.046957584490824e+00  -3.200840999999990e-01  4.88220590e-01   1.81630031e+00  -6.38990660e-01
C     1.354421438950000e+01   6.437521319154525e+00   3.680178000000000e+00  9.81151980e-01   1.45602474e+00  -7.05248000e-02
C     4.927914363500000e+00   7.161177523423924e+00   3.731190000000000e+00 -8.74489570e-01   3.70240190e-01  -8.83940970e-01
C     6.208599789099999e+00   6.292074645846590e+00  -3.094068000000014e-01 -2.34974660e+00   3.06314353e+00  -1.26164902e+00
C     7.371273191799999e+00   7.083585669944783e+00  -4.630289999999988e-01  2.96235347e+00  -4.47430090e+00   8.88976420e-01
C     6.125480531399999e+00   6.481365124634400e+00   3.494087100000000e+00 -5.47157230e-01  -1.42168930e-01   1.14781704e+00
C     7.332040695500000e+00   7.160731274736239e+00   3.472216200000000e+00  2.04915828e+00   1.91794515e+00   5.50378510e-01
C     8.692405668499999e+00   6.387504919168974e+00  -3.726585000000000e-01 -3.39680597e+00  -3.30521451e+00   1.44775670e-01
C     9.872269882599998e+00   7.080612044935228e+00  -2.572728000000026e-01  3.50503110e-01  -2.61522010e-01  -5.53800800e-02
C     8.560934548399999e+00   6.479480052680835e+00   3.582793500000000e+00  2.69849562e+00  -2.95543050e-01  -9.24741200e-02
C     9.848730217200000e+00   7.178552958118942e+00   3.650189700000000e+00 -8.44104380e-01   1.64724680e-01   5.60374240e-01
C     1.107056928940000e+01   6.355060521899690e+00  -1.089351000000001e-01  2.08761917e+00   8.00387740e-01  -8.40846580e-01
C     1.234494032170000e+01   7.172894412044161e+00  -1.929797999999998e-01  2.88266000e-03  -4.60411963e+00   9.10337100e-02
C     1.111614423070000e+01   6.391687497282287e+00   3.791003100000000e+00 -1.04443555e+00   6.94111369e+00  -1.49533265e+00
C     1.236262255550000e+01   7.156086906936167e+00   3.613718100000000e+00 -2.35472888e+00   1.08884840e-01   1.60253461e+00
