64
Lattice="9.86 0 0 4.93 8.53901048131456 0 0 0 30 " PBC="1 1 1" Properties=species:S:1:pos:R:3:force:R:3 Energy="-516.63637128"
C     9.856271884700000e+00   2.774058941726072e-01  -1.680968999999983e-01  1.20067304e+00  -2.15983280e-01   1.86162980e-01
C     1.258650396200000e+00   9.862755209443136e-01  -1.232541000000005e-01 -1.49553541e+00   7.16993300e-02  -3.30066140e-01
C     1.221100508900000e+00   4.148334119585656e-01   3.469098600000000e+00  5.36774580e-01   1.96154018e+00   2.02682440e-01
C     2.470139081300000e+00   1.147819339078412e+00   3.478627500000000e+00 -5.79857290e-01   6.19713800e-02  -2.31999300e-01
C     2.453475484100000e+00   2.686293284210536e-01  -1.157226000000016e-01  1.26810957e+00  -2.52326810e-01   6.36030800e-02
C     3.697815766500000e+00   9.964870674070312e-01  -1.051655999999994e-01  1.59479770e-01  -3.14639550e-01   2.82021420e-01
C     3.717530047700000e+00   4.336477553095688e-01   3.469329900000000e+00 -1.01364380e+00   5.77220540e-01   1.29638880e-01
C     4.937243550400000e+00   1.145325350287518e+00   3.508433100000000e+00  9.54883500e-02   4.45554450e-01  -2.45693710e-01
C     4.942556710000000e+00   2.671781235899776e-01  -8.318189999999959e-02 -5.79406910e-01   2.44968990e-01  -2.93183410e-01
C     6.161618022999999e+00   9.707886591971567e-01  -1.297889999999988e-01  9.42764730e-01   4.45366710e-01   1.79377910e-01
C     6.169647661899999e+00   4.394997099717224e-01   3.521171400000000e+00 -2.41358670e-01   1.98544780e-01   2.43321550e-01
C     7.404230882699999e+00   1.164618134395716e+00   3.542721600000000e+00 -1.35846226e+00  -2.22313060e-01  -1.68009640e-01
C     7.413063027000001e+00   2.737014152560688e-01  -1.448877000000017e-01 -3.09865680e-01  -2.49261760e-01   8.34859500e-02
C     8.641218316600000e+00   9.915457982125696e-01  -1.489119000000017e-01 -4.62296200e-01   4.09179200e-02  -4.39723400e-02
C     8.597041572600000e+00   4.292099461730080e-01   3.486326400000000e+00  9.59433410e-01   4.46429640e-01   5.57792680e-01
C     9.839663010499999e+00   1.133958304926647e+00   3.517494000000000e+00  5.29618580e-01  -4.42042540e-01  -5.87489270e-01
C     1.112186273490000e+01   2.402045251720514e+00  -1.355600999999993e-01 -6.93643500e-01   9.63241730e-01   7.33917090e-01
C     2.485741989000000e+00   3.145331189451651e+00  -5.217179999999999e-02 -5.83934000e-03  -1.17156725e+00  -5.38054980e-01
C     2.439141657000000e+00   2.592080161441972e+00   3.479914500000000e+00  6.95154230e-01  -1.15889403e+00   3.34740180e-01
C     3.675859715700000e+00   3.283275573541964e+00   3.529299600000000e+00  1.18310740e-01   3.41062150e-01  -2.01634410e-01
C     3.727884083000000e+00   2.436229045424574e+00  -7.046279999999783e-02 -7.56005480e-01  -1.50920100e+00  -1.64327080e-01
C     4.972219287500000e+00   3.090056039861991e+00  -9.986849999999947e-02 -1.24738953e+00   1.97951554e+00   1.17783300e-01
C     4.906402357799999e+00   2.574819576437909e+00   3.499863600000000e+00  1.52598340e-01   2.77780670e-01   2.13414030e-01
C     6.113829363799999e+00   3.325678847953863e+00   3.516081900000000e+00  1.54760913e+00  -1.10278851e+00   3.38142040e-01
C     6.168132032000000e+00   2.398172212737101e+00  -1.360233000000015e-01  1.45446029e+00  -1.96875940e-01   4.85789100e-02
C     7.412233653099999e+00   3.148210458395402e+00  -1.514924999999998e-01 -6.89009540e-01  -2.57262081e+00   2.47772690e-01
C     7.377781136899999e+00   2.592181861056788e+00   3.575744700000000e+00 -1.08739428e+00  -4.56091330e-01  -5.36171950e-01
C     8.603159653300001e+00   3.254697042487290e+00   3.553885800000000e+00  1.08084394e+00   1.04904853e+00   7.52898000e-02
C     8.630112357700000e+00   2.416855140716816e+00  -1.230273000000004e-01  4.62842070e-01   2.78027100e-02  -3.03748720e-01
C     9.859279529799998e+00   3.123500355258483e+00  -1.136727000000022e-01  7.66095520e-01  -3.80690280e-01   1.70253000e-03
C     9.854621320699998e+00   2.540306689269950e+00   3.506874000000000e+00 -3.79500250e-01   1.21083024e+00   3.12860710e-01
C     1.108404293010000e+01   3.297025600557489e+00   3.509079000000000e+00 -9.54103820e-01  -6.86700450e-01  -1.92656400e-02
C     1.232634056560000e+01   4.540982243026028e+00  -7.633709999999994e-02  1.87779500e-01   7.69426960e-01   1.30057940e-01
C     3.719410053899999e+00   5.259332903913888e+00  -1.356690000000000e-01 -7.27520640e-01  -1.13937377e+00   6.67482970e-01
C     3.685702312800000e+00   4.712803016443122e+00   3.568038300000000e+00 -3.33351030e-01  -4.85203830e-01  -2.73517520e-01
C     4.904950620699999e+00   5.420557619226350e+00   3.547479000000000e+00  8.52498320e-01   1.25311406e+00  -4.56581250e-01
C     4.946568201700000e+00   4.540619420470733e+00  -9.764430000000246e-02  1.22032870e-01  -5.87704420e-01  -3.09860450e-01
C     6.168365023800000e+00   5.247762971664013e+00  -1.215551999999995e-01  1.68914980e-01  -4.29152830e-01  -1.15917510e-01
C     6.159181567699999e+00   4.744326908382662e+00   3.516163800000000e+00 -7.21432700e-01  -9.99177980e-01   2.97780050e-01
C     7.409939526900001e+00   5.409936285650697e+00   3.542205000000000e+00 -1.01055422e+00   1.51840407e+00  -1.46229460e-01
C     7.402377104099999e+00   4.519081303556820e+00  -1.446900000000007e-01  3.38255920e-01   2.52509177e+00  -1.43758180e-01
C     8.640493803800000e+00   5.267540173836741e+00  -1.715403000000002e-01 -9.31847390e-01  -1.89979670e-01   6.48203060e-01
C     8.612224542900000e+00   4.693049467329423e+00   3.570169500000000e+00  7.67008890e-01  -2.76486370e-01  -3.78056970e-01
C     9.841997809200000e+00   5.413598752635674e+00   3.536111400000000e+00  2.28641600e-02   5.44445680e-01   1.09894500e-02
C     9.854248119699999e+00   4.551866834294780e+00  -8.215979999999945e-02 -3.47084290e-01  -7.26316800e-01  -3.31366370e-01
C     1.106959354380000e+01   5.231539022532222e+00  -4.428839999999923e-02  2.01524025e+00   7.70908780e-01  -2.94887140e-01
C     1.107477738950000e+01   4.715879024188331e+00   3.540174000000000e+00 -2.00118360e-01  -3.53159860e-01  -4.76897500e-02
C     1.230442390550000e+01   5.414372813935686e+00   3.551277600000000e+00  3.93939490e-01   1.19026750e-01  -2.75578500e-02
C     1.358011267750000e+01   6.657446266550280e+00  -1.235862000000019e-01  5.04321960e-01   1.27621013e+00  -4.28190860e-01
C     4.956571073100000e+00   7.383004450013993e+00  -1.779633000000018e-01 -9.87458290e-01   2.14281310e-01   3.91482100e-01
C     4.929695621800000e+00   6.858669500143260e+00   3.474640500000000e+00 -9.36384660e-01  -6.77277790e-01   5.61512350e-01
C     6.159142620699999e+00   7.569268618097587e+00   3.477082500000000e+00  6.95650600e-02  -1.38251861e+00  -9.58237300e-02
C     6.169059069199999e+00   6.661974930758348e+00  -1.456572000000023e-01 -1.46607680e-01   7.48895400e-02  -1.95904800e-02
C     7.377568653900000e+00   7.367784859294860e+00  -1.239078000000013e-01  8.65271310e-01   1.40313031e+00  -2.03830030e-01
C     7.393513358499999e+00   6.862929868642047e+00   3.503368500000000e+00  2.74700780e-01  -1.12814369e+00  -1.51488090e-01
C     8.628385871700001e+00   7.556911303691350e+00   3.468588000000000e+00 -4.57115660e-01   2.11988520e-01   2.29373730e-01
C     8.616604157699999e+00   6.698258467139439e+00  -1.415204999999986e-01  1.21959237e+00  -8.95137070e-01   2.39963710e-01
C     9.885355581599999e+00   7.389210175880333e+00  -8.573220000000248e-02 -3.90987280e-01  -5.68565190e-01  -6.56531200e-02
C     9.848037798700000e+00   6.857903294732891e+00   3.499284600000000e+00 -2.95142600e-01  -1.39115421e+00   3.25570660e-01
C     1.105877791260000e+01   7.556253714494285e+00   3.557002800000000e+00  1.74144195e+00  -5.08067500e-02  -6.25300530e-01
C     1.112987856980000e+01   6.646749875072507e+00  -6.510450000000034e-02 -1.06579338e+00   1.36270157e+00  -1.85307340e-01
C     1.236392797020000e+01   7.388741725765400e+00  -1.191183000000002e-01 -8.02568180e-01  -6.03166820e-01   1.95472780e-01
C     1.231059828680000e+01   6.824219033141911e+00   3.531439200000000e+00 -4.64513680e-01   8.89398110e-01   2.69715770e-01
C     1.353860715540000e+01   7.553676982691839e+00   3.510792300000000e+00  1.01037820e-01  -4.72431480e-01  -3.27278400e-01
