64
Lattice="9.86 0 0 4.93 8.53901048131456 0 0 0 30 " PBC="1 1 1" Properties=species:S:1:pos:R:3:force:R:3 Energy="-505.55711761"
C     4.966740430600000e+00   8.371199796684525e+00  -1.766243999999979e-01  1.28139840e-01   4.95406039e+00  -3.55504000e-02
C     1.284125875400000e+00   6.502067101642112e-01  -1.541099999999993e-01 -1.20747375e+00  -9.87339900e-02  -5.05514310e-01
C     9.850648726699999e+00   6.081047774321520e-02   3.556881000000000e+00  7.20803500e-02  -6.77449520e-01   2.65645977e+00
C     1.239827163200000e+00   7.144204105342304e-01   3.652204800000000e+00 -1.13897007e+00   4.81038047e+00  -2.68783400e-01
C     2.514738326300000e+00   4.413046006168800e-03  -2.369531999999985e-01 -3.34284399e+00  -6.15024335e+00   1.64592692e+00
C     3.703190107400000e+00   5.863929770450752e-01  -2.224700999999989e-01  3.47968254e+00   3.18151469e+00  -3.00689101e+00
C     2.425927186400000e+00   1.265115883487456e-01   4.000259400000000e+00  2.61396042e+00  -1.52319281e+00   4.59577300e-02
C     3.722608243499999e+00   8.149145732415688e-01   3.933216300000000e+00 -2.65898361e+00   2.35735445e+00  -3.96182250e-01
C     9.839556177399999e+00   8.391963596128111e+00  -4.578099000000009e-01  1.59736616e+00   6.54462450e-01   2.06271480e-01
C     6.188133584299999e+00   5.680662965825848e-01  -5.155290000000008e-01 -4.72557730e-01  -3.06246710e-01   2.42783935e+00
C     4.911057756800000e+00   1.021859968537408e-01   3.867821100000000e+00 -2.66042190e-01  -2.20465880e-01   1.77413499e+00
C     6.085376854800000e+00   8.569738963113328e-01   4.043756999999999e+00  2.33616766e+00  -5.97265380e-01  -2.07890634e+00
C     1.235633029790000e+01   8.349153010916318e+00  -4.327740000000020e-01 -5.01519330e-01   5.26740400e-01  -2.67482025e+00
C     8.646330529400000e+00   5.580854741830368e-01  -2.915828999999981e-01  3.81302800e-01   6.61742600e-01  -2.25710510e-01
C     7.356104173399999e+00   5.359749020065440e-02   4.019395200000000e+00 -1.86451000e-03   5.68742350e+00  -1.10168592e+00
C     8.619466762199998e+00   7.782221890386944e-01   3.649764900000000e+00 -1.76061591e+00  -6.08139560e-01   2.13602426e+00
C     1.299620816100000e+00   2.081319847311505e+00  -3.532194000000004e-01  1.18264070e-01  -5.22211280e-01  -1.77287269e+00
C     2.498435506500000e+00   2.767252752642778e+00  -8.119094999999987e-01  3.26978310e-01  -2.53415362e+00   1.67392929e+00
C     1.106766995640000e+01   2.274646716353211e+00   3.577989000000000e+00 -1.97045542e+00  -3.91104473e+00  -3.90606900e-02
C     2.359365826700000e+00   2.983966007416794e+00   3.646900800000000e+00  4.96755265e+00  -6.00466250e-01   9.24975270e-01
C     3.734398239900000e+00   1.996170371826831e+00  -6.424605000000021e-01 -4.44111510e-01   1.48625871e+00   1.44738257e+00
C     4.942841959800000e+00   2.748665120020019e+00  -5.369145000000017e-01  1.02497259e+00  -8.06124600e-01   9.56462350e-01
C     3.727929044600000e+00   2.307735723523630e+00   3.851999700000000e+00 -4.71741526e+00  -3.64326925e+00  -7.96420440e-01
C     4.900584908499999e+00   2.957421297878247e+00   3.856534800000000e+00  1.91283300e-01   5.00818971e+00   1.75439700e-01
C     6.135297788299999e+00   1.961056082150766e+00  -1.608285000000009e-01  2.53035107e+00   2.55082859e+00  -2.35178950e+00
C     7.485078051299999e+00   2.741847830223101e+00  -7.777889999999843e-02 -2.86003210e+00   1.28751271e+00  -1.34800498e+00
C     6.094061986499999e+00   2.298657132971399e+00   3.848166300000000e+00  2.83738115e+00  -3.11085193e+00   1.42641880e+00
C     7.404759526599999e+00   2.905380213117783e+00   3.894951900000000e+00 -2.21704432e+00   1.19398606e+00   6.35201990e-01
C     8.688702203200000e+00   2.062826485364445e+00  -3.370160999999996e-01  7.84662700e-02  -1.90649802e+00   2.02647880e+00
C     9.955784526299999e+00   2.766082908207018e+00  -4.200608999999993e-01 -2.48743612e+00   1.85229363e+00  -9.13717170e-01
C     8.581850073400000e+00   2.193192924604282e+00   3.846755400000000e+00  1.33265450e+00  -1.32826445e+00  -2.18082066e+00
C     9.787304093400000e+00   2.928264590423972e+00   3.625923900000000e+00  8.98222690e-01  -1.39727882e+00  -2.48960830e-01
C     2.483664141900000e+00   4.147245993480190e+00  -1.033333800000001e+00 -7.88698600e-01   1.52150313e+00   2.52439240e-01
C     3.709104825600000e+00   4.866561050211661e+00  -7.957574999999970e-01  7.13706590e-01   7.40252800e-02  -1.22770745e+00
C     1.226527650100000e+01   4.371804634912915e+00   3.699701700000000e+00  1.29945771e+00   2.46858428e+00   5.22300390e-01
C     3.694790669200000e+00   5.184029505243388e+00   3.851919600000000e+00 -1.93841827e+00  -3.23547872e+00   2.65832320e-01
C     4.961008516800000e+00   4.213628346341815e+00  -6.134489999999992e-01 -1.06924754e+00  -3.51048554e+00  -4.49297090e-01
C     6.176224232599999e+00   4.869622285468741e+00  -5.585468999999996e-01  1.71103355e+00   1.73104392e+00   4.52010305e+00
C     4.894978561800000e+00   4.474794835773662e+00   3.958412400000000e+00  1.74457683e+00  -2.43571357e+00  -1.29844876e+00
C     6.195357316099999e+00   5.088790249585442e+00   3.998882700000000e+00 -3.22254660e-01  -5.86286520e-01   1.53917697e+00
C     7.428038986599999e+00   4.273004697274914e+00  -1.179842999999998e-01  3.30018790e-01  -3.76783534e+00  -2.11375029e+00
C     8.683333876900001e+00   4.987538078917795e+00  -3.063617999999977e-01 -7.26666070e-01  -4.96022340e+00  -1.16258971e+00
C     7.458292572500000e+00   4.316113635512879e+00   4.056716700000001e+00 -4.78207964e+00  -4.26469750e-01  -9.51731690e-01
C     8.595548275599999e+00   5.012518356346300e+00   3.937884000000000e+00  2.14483570e+00   2.69246575e+00   4.02052480e-01
C     9.866957758300000e+00   4.234836772061096e+00  -7.356009000000014e-01  1.53878470e-01  -1.54915127e+00   1.89007112e+00
C     1.106019908370000e+01   4.903951754691589e+00  -1.098363599999999e+00  1.20400677e+00  -2.50973840e-01   2.03657389e+00
C     9.754802723299999e+00   4.300454114973817e+00   3.569511900000000e+00  3.01038106e+00   2.94278138e+00   2.02546217e+00
C     1.105188670930000e+01   5.061762402833937e+00   3.727151400000000e+00 -1.87795698e+00   3.70041500e-01  -1.13275694e+00
C     3.723214732100000e+00   6.268735139281815e+00  -7.916804999999982e-01  6.98936020e-01   7.97707640e-01   1.44314588e+00
C     4.951555932000000e+00   7.030209681675981e+00  -2.283882000000013e-01 -1.21482553e+00  -4.49818749e+00  -2.01874121e+00
C     1.353582535360000e+01   6.554353170613248e+00   3.955851599999999e+00 -1.18555315e+00   9.90685610e-01   7.85495600e-01
C     4.918225730300000e+00   7.224605293269364e+00   3.996211800000000e+00  1.12375686e+00  -1.57891200e-02  -1.55611750e+00
C     6.160346230900000e+00   6.264551365707034e+00  -1.350999000000002e-01  1.04924849e+00   1.37621610e+00  -2.47474394e+00
C     7.427441865000000e+00   6.997299310604803e+00  -1.738862999999995e-01 -1.26655336e+00   2.28972663e+00  -7.63705200e-02
C     6.219822736899999e+00   6.500027388208754e+00   4.133044500000000e+00 -3.07690243e+00   4.44849010e-01  -3.95082330e-01
C     7.386393452500000e+00   7.236729492689497e+00   4.260873600000000e+00  1.63927435e+00  -4.78603420e-01  -1.19564213e+00
C     8.646646788900000e+00   6.323891169675280e+00  -3.967593000000029e-01  9.89342500e-02   2.06085421e+00   4.66271500e-01
C     9.877687262399999e+00   6.989809232172166e+00  -5.666139000000001e-01  2.75322920e-01   1.92221965e+00  -4.15256130e-01
C     8.620624276899999e+00   6.448708618344792e+00   4.192536300000000e+00 -2.30506830e-01   1.46491952e+00  -2.01933398e+00
C     9.819713864099999e+00   7.202395839351513e+00   3.894375000000000e+00 -1.17973491e+00  -3.16606900e-01   9.34273700e-01
C     1.112190828810000e+01   6.357123119881134e+00  -8.744108999999973e-01 -4.56319686e+00  -4.90444816e+00  -1.34705278e+00
C     1.231479366750000e+01   6.885343746470790e+00  -9.757116000000003e-01  4.98207841e+00   6.83172284e+00   3.70280584e+00
C     1.101285461750000e+01   6.507423366745902e+00   3.832657200000000e+00  2.04164057e+00  -8.28214780e-01   1.10716314e+00
C     1.223963399340000e+01   7.264511419456491e+00   4.091737200000000e+00  1.08539782e+00  -4.48041273e+00  -2.28985602e+00
