64
Lattice="9.86 0 0 4.93 8.53901048131456 0 0 0 30 " PBC="1 1 1" Properties=species:S:1:pos:R:3:force:R:3 Energy="-516.29811576"
C     9.830467919600000e+00   4.793224954165648e-01   3.128549999999999e-02  7.95602930e-01   1.65305920e-01  -5.21451800e-02
C     1.204107587700000e+00   1.188724102541175e+00   6.402420000000000e-02  3.67915660e-01   9.01020670e-01   3.85780570e-01
C     1.257657592800000e+00   2.036483979594064e-01   3.290499300000000e+00 -9.42065440e-01   7.46466710e-01  -5.10166620e-01
C     2.460778539600000e+00   9.487819213881008e-01   3.267395700000000e+00  6.95481600e-01   3.91015000e-03   8.76672310e-01
C     2.432342398200000e+00   4.868194050575856e-01   9.444000000000001e-03  9.76299260e-01  -7.60897780e-01  -6.21768600e-02
C     3.675803168600000e+00   1.182594373868107e+00   4.478250000000000e-02  8.81121100e-02   1.32969178e+00   4.39929800e-01
C     3.699704350900000e+00   2.301129261895464e-01   3.340087200000000e+00 -2.72765440e-01   4.37252600e-02  -3.83909740e-01
C     4.940697064699999e+00   9.167776247189560e-01   3.322281900000000e+00 -1.25520530e-01   8.66036450e-01   6.91065630e-01
C     4.923058510700000e+00   5.118184683091480e-01   7.248900000000000e-03 -5.12558690e-01  -1.41170832e+00   1.82108000e-03
C     6.145773791800000e+00   1.227488392246917e+00   4.041000000000000e-04  2.11628020e-01  -2.78750660e-01  -6.08644300e-02
C     6.171809269700000e+00   2.079533400928984e-01   3.387919500000000e+00 -2.71967400e-01   6.01511540e-01  -6.56149260e-01
C     7.390855398300000e+00   9.344537179729752e-01   3.291547500000000e+00  5.49174080e-01  -1.20903260e-01   9.49476600e-02
C     7.358162004700000e+00   4.664372139923496e-01  -1.163100000000128e-02  8.07895000e-01   1.59682811e+00   4.89343840e-01
C     8.610542328299999e+00   1.195677931115668e+00   3.391260000000000e-02 -5.63408380e-01  -5.91947050e-01  -2.11658040e-01
C     8.636450119199999e+00   2.492391995933840e-01   3.248890800000000e+00 -4.21054810e-01  -6.11289020e-01   5.11525740e-01
C     9.866303399400000e+00   9.440294497153520e-01   3.266415000000000e+00  6.84272850e-01  -7.47207010e-01   5.49360000e-04
C     1.109437621010000e+01   2.628836759003655e+00   2.101557000000000e-01 -4.08415790e-01  -4.41858030e-01  -1.12168935e+00
C     2.460085825300000e+00   3.363715784746918e+00   2.255004000000000e-01  6.36965570e-01  -2.06381656e+00   1.90919160e-01
C     2.471459729700000e+00   2.382279321041620e+00   3.367367400000000e+00 -7.16650700e-02  -6.05839030e-01   4.89759000e-02
C     3.724274337000000e+00   3.072047522929986e+00   3.416989500000000e+00 -4.45373210e-01   3.46976600e-02  -5.92923670e-01
C     3.721924255299999e+00   2.619162914030863e+00   1.937364000000000e-01 -2.13857727e+00  -3.80131010e-01  -8.35237680e-01
C     4.917841042399999e+00   3.327323119811891e+00   8.367990000000000e-02  6.97727270e-01   1.03811120e+00  -1.32829430e-01
C     4.941828647600000e+00   2.362545240871816e+00   3.351190500000000e+00  2.39813230e-01  -1.10208972e+00  -1.13041710e-01
C     6.176229211899999e+00   3.054521630870310e+00   3.303325800000000e+00 -7.29604200e-02   1.18543201e+00   8.34113900e-02
C     6.162437635499999e+00   2.663046596689679e+00  -1.488300000001885e-03  1.50611360e-01  -1.56671016e+00  -5.46852700e-02
C     7.409250263600000e+00   3.342042666077315e+00  -4.812330000000031e-02 -8.31474230e-01  -1.05614048e+00   2.28714370e-01
C     7.407136673999999e+00   2.347339654129870e+00   3.272852400000000e+00 -5.92092000e-03   4.49690200e-01   4.40734360e-01
C     8.643667885699999e+00   3.058482536271562e+00   3.352411500000000e+00 -6.06661260e-01   1.40164963e+00  -7.68152030e-01
C     8.633903823499999e+00   2.613135568093450e+00   4.297110000000001e-02 -6.74346950e-01   1.18203040e-01  -5.52240510e-01
C     9.848110368299999e+00   3.332570768702375e+00   8.379540000000001e-02  9.78089290e-01  -7.87145440e-01   8.79594320e-01
C     9.860053145400000e+00   2.355745968387011e+00   3.302268600000000e+00  8.91139420e-01   4.17061620e-01   6.93455110e-01
C     1.109559554700000e+01   3.082230122147176e+00   3.410701800000000e+00  7.26426900e-02   9.10944200e-02  -3.21052950e-01
C     1.231609183510000e+01   4.757203736186502e+00   2.357628000000000e-01  4.93117250e-01   7.08744360e-01  -2.68035750e-01
C     3.701319320300000e+00   5.464230046765890e+00   1.736352000000000e-01 -6.71587060e-01   4.49718100e-01  -3.15332310e-01
C     3.730196893900000e+00   4.488423865010686e+00   3.376383300000000e+00 -1.49726209e+00   3.82298780e-01   5.31054440e-01
C     4.916385065500000e+00   5.235568325407420e+00   3.369438000000000e+00  1.54626813e+00  -9.35424510e-01  -3.42598600e-01
C     4.899443613500000e+00   4.760579548589665e+00   4.451100000000000e-02  1.29686678e+00  -3.02742250e-01   4.24533900e-01
C     6.150851987599999e+00   5.469072946559622e+00  -3.231239999999858e-02 -7.58033050e-01  -4.98715580e-01  -1.29432740e-01
C     6.177767667700000e+00   4.494345839558775e+00   3.303889500000000e+00 -5.44964590e-01   3.84154160e-01   4.38757730e-01
C     7.411887715000001e+00   5.221464527187709e+00   3.324630900000000e+00 -7.35154000e-02  -1.13146292e+00  -4.35138970e-01
C     7.360640907300001e+00   4.730600449036062e+00  -9.076469999999759e-02  9.80449590e-01   1.13596487e+00   3.61631930e-01
C     8.598157132999999e+00   5.427015416682059e+00  -3.993180000000152e-02  8.49962240e-01   4.52508610e-01   2.45579220e-01
C     8.651653302500000e+00   4.530521186677086e+00   3.342335700000000e+00 -3.33070490e-01  -2.04876102e+00   6.20037010e-01
C     9.879454470199999e+00   5.221498000108790e+00   3.441499800000000e+00 -4.52698460e-01   1.21656320e-01  -4.27198790e-01
C     9.850463851700001e+00   4.730650999978104e+00   1.257285000000000e-01 -8.48909900e-02   1.27670347e+00  -7.83931800e-01
C     1.110219376040000e+01   5.461993252970655e+00   1.691781000000000e-01 -1.54406795e+00  -4.32385000e-03   7.18024800e-02
C     1.110787154280000e+01   4.515239005011134e+00   3.464032500000000e+00 -6.36424160e-01  -1.13531778e+00  -2.10767290e-01
C     1.232364893350000e+01   5.191244542148465e+00   3.411406800000000e+00  1.64540929e+00   1.05619135e+00   5.05422100e-01
C     1.358063614490000e+01   6.878333048086500e+00   1.168326000000000e-01 -8.37647050e-01   1.00659650e+00  -3.09302630e-01
C     4.965381722599999e+00   7.597747669680167e+00   1.630980000000000e-02 -2.01123236e+00  -5.66799100e-02   3.58926120e-01
C     4.911710883200000e+00   6.656740688114317e+00   3.344123100000000e+00  1.33729431e+00  -6.80302610e-01  -3.92154270e-01
C     6.185224292699999e+00   7.316000201019110e+00   3.265246200000000e+00 -9.92026680e-01   9.90477270e-01   3.42652290e-01
C     6.172758984900000e+00   6.889786764403744e+00  -7.657500000000539e-03  5.11719220e-01  -3.77294090e-01  -4.58174550e-01
C     7.412145208900000e+00   7.585227516344077e+00  -6.551009999999735e-02 -1.18013777e+00   6.23180700e-01   1.93035600e-01
C     7.412061497500000e+00   6.620041472703059e+00   3.270570900000000e+00 -6.42015650e-01   4.56359180e-01   5.97360040e-01
C     8.610481048400001e+00   7.348114650923447e+00   3.359651400000000e+00  1.06873555e+00  -5.77055300e-02  -4.09313260e-01
C     8.605735578299999e+00   6.845859362011270e+00  -6.477629999999834e-02  1.32211454e+00   1.15981083e+00   3.34788220e-01
C     9.848160654299999e+00   7.598982154425261e+00   1.512210000000000e-02 -2.53276720e-01  -1.43440590e-01  -2.02476370e-01
C     9.850545393899999e+00   6.634293764315017e+00   3.396127500000000e+00  3.85049230e-01   4.59427960e-01   4.04058640e-01
C     1.108995439450000e+01   7.340527142381233e+00   3.417382500000000e+00  5.31230320e-01  -6.04773310e-01   1.84555210e-01
C     1.107417307010000e+01   6.885917738755255e+00   1.039677000000000e-01  2.85132380e-01   8.71551500e-02  -1.39653070e-01
C     1.230487090860000e+01   7.608724567652208e+00   8.678820000000001e-02  9.50844260e-01  -1.13570470e+00  -1.13428320e-01
C     1.234523981920000e+01   6.630455052153732e+00   3.444173100000000e+00 -8.94162620e-01  -1.34025980e-01  -7.46250360e-01
C     1.356020440080000e+01   7.362331932592437e+00   3.320383800000000e+00 -3.06764760e-01   7.16515200e-02   4.39139520e-01
