64
Lattice="9.86 0 0 4.93 8.53901048131456 0 0 0 30 " PBC="1 1 1" Properties=species:S:1:pos:R:3:force:R:3 Energy="-515.41845099"
C     4.953948214500000e+00   7.265724898235804e+00  -1.941753000000013e-01  2.14520252e+00  -5.95857390e-01  -1.62284410e-01
C     6.217200223400000e+00   7.986090765596944e+00  -2.237537999999972e-01 -6.94796230e-01  -2.20269320e-01   8.50605160e-01
C     9.773465435499999e+00   1.258870707392698e+00   3.481144800000000e+00  1.46244173e+00   8.14094310e-01  -4.12235080e-01
C     1.188921659400000e+00   1.991523527713720e+00   3.490310400000000e+00 -7.17731960e-01  -9.10094660e-01   2.29047440e-01
C     7.456102617199999e+00   7.288796023701192e+00  -2.382072000000015e-01 -2.69895920e-01  -3.86471930e-01  -3.33333140e-01
C     8.695258265099998e+00   8.003349728189015e+00  -2.000717999999999e-01 -1.93387990e-01  -1.52930073e+00  -9.18639300e-02
C     2.438510863500000e+00   1.252953002349849e+00   3.435652500000000e+00 -1.94042911e+00   9.85957410e-01  -2.51902730e-01
C     3.624191688800000e+00   2.005041122863979e+00   3.499764600000000e+00  8.72224740e-01  -8.57170610e-01   3.45157090e-01
C     9.933087250000000e+00   7.262557010737829e+00  -2.385017999999981e-01  1.16722200e-02   3.80317840e-01   5.08606050e-01
C     1.116916968380000e+01   7.958982822927136e+00  -2.313735000000001e-01 -1.12078600e-01   1.10356164e+00   1.81163030e-01
C     4.865847438299999e+00   1.298600503013414e+00   3.551899200000000e+00  1.60848630e-01  -9.97435370e-01  -5.66724880e-01
C     6.124046493000000e+00   1.976916354826213e+00   3.555113400000000e+00 -1.73166843e+00   1.01815790e+00  -4.94480810e-01
C     1.241785556400000e+01   7.288989517678669e+00  -1.558986000000004e-01 -1.90296716e+00  -6.28801700e-01   3.02961400e-02
C     1.362174539360000e+01   7.983577564032470e+00  -1.440444000000021e-01  3.08465570e-01   6.06391100e-02  -1.67959160e-01
C     7.324336732400000e+00   1.273635425023562e+00   3.549776700000000e+00  5.71412500e-01  -3.64718770e-01  -1.13872860e-01
C     8.532852085200000e+00   1.988217735196493e+00   3.493182000000000e+00  1.73009073e+00  -4.80937200e-01   1.57683590e-01
C     1.272353528400000e+00   8.560817404963824e-01  -5.069280000000020e-02  1.14506390e-01   5.17587760e-01  -5.29908360e-01
C     2.516005632100000e+00   1.567946681364263e+00  -3.394169999999974e-02 -4.78152070e-01   4.73085170e-01   6.26775220e-01
C     1.104100984750000e+01   3.405137329123931e+00   3.657942000000000e+00  1.01888523e+00  -4.59113000e-02   1.19462320e-01
C     2.436299314800000e+00   4.139753097174094e+00   3.785237100000000e+00 -2.71246806e+00  -6.76472840e-01  -3.45182850e-01
C     3.742791318400000e+00   8.597627371341009e-01  -9.065459999999703e-02  5.50391350e-01   3.34175490e-01  -2.94237300e-01
C     4.992122387700000e+00   1.539824645809850e+00  -1.232103000000002e-01  5.28096290e-01   9.32208300e-01  -5.87015080e-01
C     3.604280158300000e+00   3.411709976270596e+00   3.622761900000000e+00  1.47908442e+00   8.50790490e-01  -1.37685110e-01
C     4.831075556699999e+00   4.149426173635943e+00   3.522403800000000e+00  1.92046412e+00  -2.06303488e+00  -6.14738900e-02
C     6.234897838799998e+00   8.536459023668576e-01  -2.566284000000003e-01 -2.47802510e-01  -4.02465090e-01   7.74732750e-01
C     7.471551413100000e+00   1.577632822512147e+00  -2.095923000000006e-01 -8.46545240e-01  -5.91704730e-01  -2.96325780e-01
C     6.097142842099999e+00   3.407172687661943e+00   3.434897700000000e+00 -9.45734300e-02   4.78499320e-01   7.50864310e-01
C     7.341874369299999e+00   4.128803950986114e+00   3.451982100000000e+00 -2.92074190e-01  -8.93352940e-01  -3.54670510e-01
C     8.702805552799999e+00   8.471147548111249e-01  -1.302353999999966e-01 -1.28360834e+00   1.26311248e+00  -1.82834920e-01
C     9.881263780199999e+00   1.577762188520918e+00  -4.729740000000149e-02  2.15347310e+00   7.36970000e-02   2.82453440e-01
C     8.589865760399999e+00   3.398176583950949e+00   3.492121800000000e+00 -9.66863780e-01   8.77644870e-01   2.31658310e-01
C     9.820951984299999e+00   4.112610059171214e+00   3.626025300000000e+00 -2.25035410e-01  -1.17994232e+00  -4.09776920e-01
C     2.527450429900000e+00   3.003347170283460e+00   7.497630000000000e-02  6.52248720e-01  -8.16795520e-01  -5.45825320e-01
C     3.776692019700000e+00   3.692208443868745e+00  -4.455480000000023e-02 -9.46309010e-01   4.10862330e-01  -4.16051050e-01
C     1.224281078680000e+01   5.559076507941756e+00   3.898449300000000e+00  6.13085850e-01  -6.91998410e-01  -6.60726230e-01
C     3.609843959100000e+00   6.224430995746964e+00   3.766817700000000e+00  1.95539210e+00   2.02488875e+00  -9.71354450e-01
C     5.015717367699999e+00   2.969847436708953e+00  -1.557455999999995e-01 -1.61083950e+00   4.53217630e-01   3.64802320e-01
C     6.194959070700000e+00   3.717170703985138e+00  -2.642772000000022e-01  1.56941209e+00  -5.15108480e-01  -3.37153400e-01
C     4.889129166100000e+00   5.541613975339843e+00   3.530052000000000e+00 -1.73933153e+00   6.98970890e-01   9.50845520e-01
C     6.120047868599999e+00   6.256683265280448e+00   3.446268900000000e+00 -4.75007530e-01   3.46681750e-01  -8.76688130e-01
C     7.427442949600000e+00   2.987149606694053e+00  -2.858726999999988e-01  1.75760931e+00   8.91796740e-01   6.62865190e-01
C     8.707315221000000e+00   3.708788896688075e+00  -2.000694000000003e-01 -1.49283188e+00   6.81392410e-01   2.33468200e-02
C     7.336632744000000e+00   5.543366436460653e+00   3.404232300000000e+00  1.17741859e+00  -2.45766010e-01   6.10208260e-01
C     8.613197034700001e+00   6.210904178465387e+00   3.504947700000000e+00 -1.79365175e+00   1.55265676e+00  -8.33005850e-01
C     9.927476219799999e+00   3.008604895206310e+00   6.640500000000001e-03 -9.40228680e-01  -5.22520580e-01  -6.71827450e-01
C     1.115923139540000e+01   3.709530936698787e+00   6.998430000000000e-02 -1.50165320e-01  -5.06625240e-01  -3.32308300e-02
C     9.834266385999999e+00   5.507714189124347e+00   3.619254900000000e+00 -1.06805119e+00   1.44685961e+00   6.74834220e-01
C     1.100537275090000e+01   6.265704473682253e+00   3.821911200000000e+00  1.43271097e+00  -1.84758810e-01  -2.16799860e-01
C     3.718897333900000e+00   5.129168668442218e+00  -1.799144999999989e-01  1.23300437e+00  -1.00231370e-01   1.17866890e+00
C     4.977901260399999e+00   5.827548803960083e+00  -2.253702000000004e-01 -6.78554980e-01   8.42743970e-01  -3.26863950e-01
C     1.351244206780000e+01   7.675112812431064e+00   3.629470800000000e+00  3.11054870e-01  -9.28160800e-01  -1.72756700e-02
C     4.900753218700000e+00   8.373728795418387e+00   3.443784000000000e+00 -1.94704694e+00   5.66533090e-01   2.25007340e-01
C     6.223885254099999e+00   5.142809908464228e+00  -3.073674000000004e-01 -1.31016817e+00  -4.73889640e-01   3.06935270e-01
C     7.428000236799999e+00   5.855558978477208e+00  -3.140342999999994e-01  1.35887595e+00   5.50825470e-01   7.45910700e-02
C     6.107932492200000e+00   7.687557566304616e+00   3.321650100000000e+00 -1.74677820e-01  -1.27331704e+00   8.01779310e-01
C     7.314324099599999e+00   8.379646585851342e+00   3.311349900000000e+00  1.79936842e+00   2.02737950e-01   5.22208580e-01
C     8.673456424699999e+00   5.159443217758430e+00  -2.724899999999977e-01  5.16641900e-01  -1.22769784e+00   7.03990570e-01
C     9.928826645399999e+00   5.842837219103684e+00  -1.454267999999992e-01 -1.25058925e+00  -1.69368210e-01  -3.93900950e-01
C     8.546479246099999e+00   7.664456554302547e+00   3.424135500000000e+00  1.68194443e+00  -6.00501140e-01   2.50382960e-01
C     9.792242572999999e+00   8.392819717318837e+00   3.528301200000000e+00  3.66576840e-01   8.77640400e-02   8.00723490e-01
C     1.112535726680000e+01   5.100804893501117e+00  -3.697799999997642e-03  1.32294629e+00   2.62375435e+00  -3.40049940e-01
C     1.236806029620000e+01   5.891585746813166e+00  -6.567330000000027e-02  1.10071050e-01  -2.75811195e+00  -3.89132610e-01
C     1.106377175610000e+01   7.680267898447944e+00   3.754322700000000e+00 -1.88285859e+00   5.84354840e-01  -1.19674243e+00
C     1.229725366420000e+01   8.393152567947347e+00   3.626009700000000e+00 -7.38395730e-01  -3.06040180e-01   7.62292640e-01
