52
Lattice="8.88768389401873 1.33226762955019e-15 0 4.44384194700937 7.69696003302603 0 0 0 30 " PBC="1 1 1" Properties=species:S:1:pos:R:3:force:R:3 Energy="-419.07537323"
C     1.259506831111253e+01   6.808511864025146e+00  -1.130907000000008e-01 -8.54342740e-01   1.32502820e+00   8.47939600e-02
C     8.833817242071445e+00   6.689636087872211e+00  -1.518000000000796e-03 -6.54407020e-01  -7.39868570e-01   2.32437410e-01
C     1.019067341156787e+01   6.299450475500207e+00  -3.353339999999960e-02  7.13556080e-01  -2.07351537e+00  -2.76645180e-01
C     1.058552320994018e+01   4.872031611898238e+00  -6.567749999999961e-02 -2.48420586e+00   1.76107867e+00   2.50922200e-01
C     6.423347699373295e+00   6.039710786567834e+00  -4.121699999998896e-03  8.40042240e-01   1.40612373e+00   9.85049400e-02
C     7.798140237075107e+00   5.698360615285374e+00   2.096160000000000e-02  6.14393580e-01  -9.74977800e-01  -6.20172300e-01
C     8.194681717230967e+00   4.320091767529374e+00  -8.135370000000108e-02 -2.41522062e+00  -2.74915230e-01   7.05279060e-01
C     9.519162765064138e+00   3.936731742342374e+00   1.298580000000000e-02  1.16204258e+00  -1.73761092e+00  -6.94775120e-01
C     9.840067033474586e+00   2.513836690028437e+00   7.730999999999999e-03  2.11016850e-01   7.73865920e-01  -2.03624030e-01
C     4.055269475942798e+00   5.463734952386886e+00  -1.687268999999993e-01 -2.17012390e-01  -1.46952074e+00   8.94221900e-02
C     5.421967288873416e+00   5.064105554906074e+00  -1.300319999999999e-01 -1.53181590e-01  -4.70482150e-01   2.13203870e-01
C     5.777281914144192e+00   3.672387039193652e+00  -1.455587999999999e-01  1.07616400e-02   1.06891975e+00  -4.32948990e-01
C     7.149788495074431e+00   3.274624847246517e+00  -1.439000999999998e-01 -1.18219470e-01   3.32071541e+00   2.70439160e-01
C     7.459699365157027e+00   1.956077559028891e+00  -1.273514999999996e-01  1.52091125e+00  -3.71412633e+00   7.24351380e-01
C     8.847570218511581e+00   1.509692516028242e+00   4.225199999999999e-03 -1.58616004e+00   1.54915570e-01  -8.13490100e-01
C     3.009432026282884e+00   4.469215903873807e+00  -1.785738000000023e-01  1.99500297e+00  -5.61415230e-01   3.73719160e-01
C     3.362726436555498e+00   3.059725646239317e+00  -1.595192999999995e-01  3.35961400e-02   1.89499053e+00  -1.89926600e-01
C     4.752173254085409e+00   2.717990473016155e+00  -1.878932999999989e-01 -7.17996750e-01  -1.39955374e+00   2.96068120e-01
C     5.086904758918301e+00   1.323541922550693e+00  -1.359539999999981e-01 -4.74672010e-01  -2.90275100e-02   2.85997850e-01
C     6.452351363706384e+00   9.169829519548718e-01  -9.496469999999846e-02 -2.35376640e-01   1.28528358e+00  -4.10147340e-01
C     1.121631399949895e+01   7.240738810868212e+00  -8.380890000000107e-02  9.80714740e-01   1.31932800e-01   1.82988400e-02
C     2.306694102502306e+00   2.131804082568211e+00  -8.508360000000081e-02  6.45152910e-01  -1.44099111e+00   4.22524990e-01
C     2.630483979690228e+00   7.250550202788053e-01  -2.278830000000198e-02  2.17033699e+00   1.33644429e+00   6.67839400e-02
C     4.037435979388225e+00   3.499792331720940e-01  -3.855480000000000e-02 -4.08675850e-01   8.35735690e-01  -2.36060780e-01
C     2.589857310293859e-01   1.012748297739331e-01  -5.078100000000063e-02  1.39057453e+00   1.48119976e+00   6.99584730e-01
C     6.101127476041244e+00   7.452708087070392e+00   5.662620000000000e-02 -1.97617624e+00  -1.91318411e+00  -9.11060500e-01
C     7.495298453906083e-01   8.404121311540261e-01   3.422881500000000e+00 -5.16569430e-01   1.13544733e+00   4.13279920e-01
C     3.118475506016048e+00   2.576552751866482e-01   3.322016700000000e+00  3.51241280e-01  -1.87728770e-01   4.12085380e-01
C     4.496709622016687e+00   6.338194124416016e-01   3.353092800000000e+00 -5.30461040e-01   2.61492890e-01   2.27814710e-01
C     9.955439438782372e+00   7.348593848741393e+00   3.389815800000000e+00  3.54559490e-01  -8.34400370e-01   7.83863140e-01
C     6.884723452895174e+00   1.166535868226740e-02   3.530381700000000e+00 -2.54559830e-01   1.87963171e+00  -2.65930440e-01
C     1.237144911843156e+01   6.764244953561410e+00   3.584180400000000e+00  1.39891630e-01   3.75968280e-01  -5.34446610e-01
C     4.851934709024876e+00   7.173980074713611e+00   3.528333300000000e+00  3.63667230e-01  -1.10831440e+00  -2.08741470e-01
C     5.883269456991458e+00   6.146157742573126e+00   3.505627500000000e+00 -4.12553700e-01   2.33981320e+00  -1.43875890e-01
C     7.230972779073170e+00   6.562843449541218e+00   3.414189900000000e+00  4.54588190e-01   2.38229300e-01   4.51781260e-01
C     8.263279973002586e+00   5.581217578774392e+00   3.531814200000000e+00 -1.17093207e+00  -7.29100400e-01  -7.16481660e-01
C     9.613293337406859e+00   5.942933675387431e+00   3.468058200000000e+00  2.73684660e-01   2.08788687e+00  -2.52350580e-01
C     1.065107969961565e+01   5.019856424420007e+00   3.465021000000000e+00  5.57908910e-01  -1.59001351e+00   4.97973800e-01
C     3.141706715207857e+00   5.400261740590690e+00   3.511966500000000e+00 -6.10296160e-01   9.63561900e-02  -7.01316300e-02
C     4.166328106761426e+00   4.452055762395722e+00   3.488788500000000e+00  1.04467510e-01  -2.27972175e+00   1.24580720e-01
C     5.529892922735755e+00   4.809457020185545e+00   3.534557100000000e+00 -5.11765700e-02  -1.46533588e+00   1.23578330e-01
C     6.522457904910741e+00   3.776284531128208e+00   3.567961800000000e+00  6.73990580e-01   6.13053520e-01  -2.66269300e-01
C     7.894778556021405e+00   4.190402917078293e+00   3.552443700000000e+00  3.65094350e-01  -1.15724050e-01   2.62901200e-02
C     8.944242134988107e+00   3.211557573122304e+00   3.487140900000000e+00 -3.71967550e-01   3.17994970e-01   3.03505380e-01
C     1.031877728585544e+01   3.626006081688076e+00   3.485516700000000e+00 -1.35454220e-01   7.23899400e-02  -7.21075370e-01
C     2.464369747285183e+00   2.660613330533320e+00   3.374778600000000e+00  1.98114550e-01  -6.41844740e-01   5.66476710e-01
C     3.852371783385991e+00   3.033241946168093e+00   3.433929900000000e+00 -1.37353243e+00   7.50275890e-01  -5.33366200e-02
C     4.825636315673820e+00   2.015380634850434e+00   3.466056600000000e+00  3.94524840e-01  -5.56104400e-02  -4.10790840e-01
C     6.188148029992284e+00   2.385500965150630e+00   3.539879700000000e+00 -6.02855800e-02   1.19536903e+00   4.31779200e-02
C     7.209572610523981e+00   1.431940981558794e+00   3.548892000000000e+00  8.59159770e-01  -1.29172257e+00  -3.45285190e-01
C     8.580783634295148e+00   1.837083480600295e+00   3.476971800000000e+00  6.75064170e-01  -6.29729550e-01   1.84217490e-01
C     2.116077812508524e+00   1.268486414121707e+00   3.365959800000000e+00 -2.61388890e-01  -4.03142670e-01  -2.41378770e-01
