64
Lattice="9.86 0 0 4.93 8.53901048131456 0 0 0 30 " PBC="1 1 1" Properties=species:S:1:pos:R:3:force:R:3 Energy="-514.95720278"
C     1.473137594030000e+01   8.531167142703806e+00  -1.163199000000006e-01  2.49264442e+00   1.58819975e+00  -1.12753720e-01
C     1.230011730400000e+00   7.213242005073104e-01  -1.449488999999993e-01 -1.56152263e+00  -2.84769820e-01  -3.59675600e-01
C     1.240827953200000e+00   6.547139414559744e-01   3.591356100000000e+00  9.02037020e-01   3.16458307e+00   6.13941200e-01
C     2.482133426200000e+00   1.424497538777914e+00   3.540328500000000e+00 -5.68514640e-01  -1.00800820e+00  -5.93377650e-01
C     2.448642851600000e+00   2.196318885560800e-02  -6.279480000000248e-02  6.12211390e-01  -1.61046079e+00   7.30375200e-02
C     3.687446941200000e+00   7.220209837624785e-01  -1.051788000000009e-01 -4.03624690e-01   4.12062020e-01  -1.97954490e-01
C     3.703122812900000e+00   6.931598968510216e-01   3.553331700000000e+00  2.09991070e-01   2.65506360e-01   5.50329130e-01
C     4.927445175400000e+00   1.398755154664067e+00   3.634046400000000e+00  1.04598120e+00   3.40120270e-01  -1.10460763e+00
C     4.944622182800000e+00   3.038504411182240e-02  -7.385280000000094e-02 -1.42905098e+00  -8.01516200e-01   1.27853720e-01
C     6.150884377699999e+00   7.727976118510648e-01  -6.843300000000241e-02 -1.51749820e-01  -2.27321436e+00  -5.17386120e-01
C     6.179438986999999e+00   6.741323344083328e-01   3.565405500000000e+00 -2.51884070e-01   1.85684022e+00   1.14614017e+00
C     7.429114318200000e+00   1.376938324448086e+00   3.701393400000000e+00 -2.84501800e-01   5.00155520e-01  -3.78684270e-01
C     7.379245445500000e+00   3.167417852398800e-02  -1.310210999999981e-01 -8.24305730e-01  -7.80089070e-01  -3.16667020e-01
C     8.603212256399999e+00   7.013299366881809e-01  -1.925363999999981e-01 -4.19434940e-01   1.75241791e+00   6.48571970e-01
C     8.647632148000000e+00   6.906013531408992e-01   3.722770200000000e+00  1.47122028e+00   1.07567224e+00  -2.64421290e-01
C     9.923481342199999e+00   1.454317129615750e+00   3.660606300000000e+00 -2.14132085e+00  -2.34665655e+00   7.91940800e-02
C     1.106251968400000e+01   2.127795375821315e+00  -3.287906999999990e-01 -4.54674440e-01   5.53561500e-01   1.00078177e+00
C     2.438663594900000e+00   2.862040721596856e+00  -3.542297999999988e-01 -7.56659430e-01  -6.03333930e-01  -3.89284800e-01
C     2.487249336500000e+00   2.846517142104636e+00   3.381274200000000e+00  5.05812590e-01  -2.96965410e-01   4.28177360e-01
C     3.749962447100000e+00   3.541201679276861e+00   3.354732600000000e+00 -8.36441990e-01   3.45435660e-01   6.28241640e-01
C     3.626323716600000e+00   2.137921105228709e+00  -2.647575000000018e-01  3.05597511e+00   2.03508860e-01   6.08457130e-01
C     4.930852840699999e+00   2.852361923997986e+00  -2.092293000000005e-01 -3.93596932e+00   1.78300856e+00  -1.70461770e-01
C     4.962465923400000e+00   2.848079695632372e+00   3.562977600000000e+00 -8.12577030e-01  -1.87013914e+00  -1.12555100e-01
C     6.186534883899999e+00   3.513484392819201e+00   3.662445300000000e+00  1.20845088e+00  -9.30672400e-02   8.89045900e-02
C     6.088978269100000e+00   2.161411154548246e+00  -1.145159999999983e-01  3.03718566e+00   9.27038900e-02   1.60463340e-01
C     7.347506499900000e+00   2.876630816463404e+00  -9.583200000000147e-02 -3.51353800e-02  -2.22183923e+00  -1.43815780e-01
C     7.461154289600000e+00   2.800358240103424e+00   3.722327100000000e+00 -2.38793423e+00   9.22921190e-01  -4.83432800e-01
C     8.608695205200000e+00   3.587391150935592e+00   3.619136700000000e+00  2.74377925e+00  -1.15481602e+00   5.26553330e-01
C     8.585260055799999e+00   2.158013396888149e+00  -1.763720999999983e-01 -2.35717220e-01  -1.00335097e+00   3.49513700e-01
C     9.804826496600000e+00   2.839573474952614e+00  -2.165055000000002e-01  1.58601111e+00   8.23024440e-01  -8.93752680e-01
C     9.891408044000000e+00   2.851822856266384e+00   3.607543500000000e+00 -3.61407020e-01   1.33897393e+00  -5.75825410e-01
C     1.112129923590000e+01   3.570879522540730e+00   3.432624600000000e+00 -4.45105260e-01  -7.83366700e-01  -1.32621700e-02
C     2.467255672200000e+00   4.267374244544611e+00  -4.425917999999989e-01 -1.43614543e+00   1.42468386e+00   7.13922880e-01
C     3.665346441400000e+00   5.019333169830179e+00  -3.118122000000021e-01  8.20982010e-01  -9.89412310e-01   6.73931100e-02
C     3.751926460500000e+00   4.980437379363045e+00   3.370323600000000e+00 -1.68921449e+00  -1.69828713e+00  -3.53095300e-02
C     4.925182453300000e+00   5.633069510063996e+00   3.584741400000000e+00  2.57079060e+00   2.45433316e+00   3.21629000e-01
C     4.918711039500000e+00   4.315500705340625e+00  -2.156501999999989e-01 -8.70393760e-01  -1.28059503e+00  -3.73432300e-01
C     6.127823168800000e+00   5.012230591693125e+00  -1.498716000000009e-01  1.09411878e+00  -4.29725210e-01   8.83221640e-01
C     6.172498927400000e+00   4.916212663669507e+00   3.685161900000000e+00  4.79611720e-01   1.22905704e+00  -3.61774780e-01
C     7.414810268300000e+00   5.654135419698366e+00   3.690012300000000e+00 -1.45471271e+00   2.50008436e+00   3.01196730e-01
C     7.356376161499999e+00   4.234169363001978e+00  -4.202970000000050e-02  6.53536850e-01   3.50883800e+00  -5.15238210e-01
C     8.631539691299999e+00   4.967429050797814e+00  -5.545500000000203e-02 -1.30357974e+00  -7.04413120e-01  -2.52810720e-01
C     8.636856006100000e+00   5.024513360537871e+00   3.606536700000000e+00  1.22309213e+00  -1.86739156e+00  -3.60837050e-01
C     9.911152053100000e+00   5.695888790022631e+00   3.465263700000000e+00 -1.57486852e+00   9.05461630e-01   6.81980380e-01
C     9.855940046400001e+00   4.293298851142101e+00  -2.494203000000006e-01 -1.19782765e+00  -1.63067509e+00   5.21466250e-01
C     1.105461635170000e+01   4.991168353833261e+00  -3.735897000000001e-01  2.02849360e+00  -3.46065500e-02   3.18658600e-02
C     1.110022683830000e+01   4.974498497574205e+00   3.370893600000000e+00  2.02825288e+00   8.32105420e-01  -2.22026240e-01
C     1.239005544190000e+01   5.696887000347743e+00   3.322998000000000e+00 -1.67196939e+00  -6.24688940e-01   9.79469800e-02
C     1.353681820630000e+01   6.427808877854363e+00  -1.973316000000018e-01  3.41580400e-02   1.82982060e-01  -2.64411340e-01
C     4.913420360699999e+00   7.149081331958166e+00  -7.216169999999877e-02 -5.10878760e-01  -1.47177151e+00  -5.45548220e-01
C     4.940569229799999e+00   7.100391808811100e+00   3.679020900000000e+00  1.01651650e-01  -1.43220996e+00  -5.10594100e-02
C     6.165289098200000e+00   7.805451072936316e+00   3.718923600000000e+00  2.82484580e-01  -2.82552840e-01  -2.50981190e-01
C     6.151678649999999e+00   6.438045016667264e+00  -8.178029999999836e-02 -4.48221790e-01  -6.90451190e-01   3.25480610e-01
C     7.383887040499999e+00   7.097367035128771e+00   5.727000000000000e-03 -9.61925600e-02   1.52646263e+00  -1.44995660e-01
C     7.406912260400000e+00   7.136626758222562e+00   3.723510300000000e+00 -2.62064000e-02  -2.77904547e+00  -5.89123480e-01
C     8.640254353700000e+00   7.797400750026087e+00   3.609093300000000e+00  8.14202200e-02   1.31143987e+00   1.48101730e-01
C     8.604961173900000e+00   6.365937428059008e+00   1.377300000000000e-03  2.66774010e-01   1.63393102e+00  -4.30841690e-01
C     9.815180482599999e+00   7.119900202933919e+00  -9.657659999999879e-02  1.81814784e+00   7.16125400e-02  -2.45475360e-01
C     9.898705430000000e+00   7.140942544899364e+00   3.549542100000000e+00 -1.09398395e+00  -2.10270281e+00  -5.32772820e-01
C     1.109563957190000e+01   7.830295921658610e+00   3.507751500000000e+00  2.31159381e+00  -1.09451528e+00  -4.82588200e-01
C     1.107917317470000e+01   6.410066351098810e+00  -2.873531999999983e-01 -1.28444572e+00   4.38095510e-01   6.06815610e-01
C     1.230521886800000e+01   7.127069897693346e+00  -2.395119000000001e-01 -2.31893000e-01   9.01845460e-01   3.75935490e-01
C     1.238164323500000e+01   7.094596382398325e+00   3.407725800000000e+00 -1.30230523e+00   1.25230923e+00   1.14299252e+00
C     1.358799303600000e+01   7.824261488342499e+00   3.659551500000000e+00 -1.31291650e-01  -9.23087260e-01  -9.54285800e-01
