52
Lattice="8.88768389401873 1.33226762955019e-15 0 4.44384194700937 7.69696003302603 0 0 0 30 " PBC="1 1 1" Properties=species:S:1:pos:R:3:force:R:3 Energy="-418.87214982"
C     1.241223434423744e+01   6.674993468080739e+00  -1.325210999999982e-01 -2.95551270e-01  -5.31593480e-01   6.48094760e-01
C     8.619354630020872e+00   6.436485920360722e+00  -2.647187999999971e-01  5.82005580e-01  -4.70589050e-01   1.81786290e-01
C     1.000154278721238e+01   6.050728138185176e+00  -1.918508999999986e-01 -3.27076310e-01  -7.32505420e-01   1.21011440e-01
C     1.032769141127728e+01   4.660884447996862e+00  -1.507383000000004e-01  1.34996576e+00   1.08111450e-01  -4.47937700e-02
C     6.236850273588544e+00   5.831356926430945e+00  -1.073151000000010e-01  7.76441510e-01   2.36635080e+00  -6.65723930e-01
C     7.595349375892861e+00   5.444878708796592e+00  -2.723811000000005e-01 -1.10047300e-02  -1.02366846e+00   7.73160140e-01
C     7.910534730794096e+00   4.029782293354652e+00  -2.267550000000007e-01  1.43750384e+00   1.87549390e+00   6.08444600e-02
C     9.318252582217642e+00   3.662015385553227e+00  -2.179481999999986e-01 -8.57957170e-01   1.25230602e+00   2.92509870e-01
C     9.669739682013901e+00   2.318224531464411e+00  -1.558896000000018e-01 -2.64901600e-02  -1.50639822e+00   5.69955000e-02
C     3.859047413106914e+00   5.302775431513123e+00  -2.531399999999806e-02 -2.39516620e-01  -6.03069490e-01  -1.99107300e-02
C     5.211484937235957e+00   4.903035505686280e+00   1.073760000000000e-02  3.14838800e-02  -1.37373946e+00  -3.77587920e-01
C     5.546782232021016e+00   3.502014213172800e+00   8.185200000000000e-03  6.78115200e-02   6.15898350e-01   4.93599740e-01
C     6.885889607890711e+00   3.078642387935448e+00  -8.471970000000084e-02  9.17899980e-01   1.00046636e+00  -3.78770830e-01
C     7.264846050041474e+00   1.737934012399446e+00  -1.119300000000010e-01  2.70840280e-01  -1.63923796e+00   1.98479190e-01
C     8.641600455042852e+00   1.331445853835900e+00  -1.542680999999995e-01  1.48840650e-01   6.38001500e-02   5.69850500e-02
C     2.864480834302697e+00   4.272602139901077e+00  -2.083950000000101e-02 -2.32014313e+00   1.75426575e+00  -4.39460760e-01
C     3.179029431136872e+00   2.927146356388171e+00  -9.791700000000958e-03  1.16816790e-01  -2.02421388e+00   5.02856450e-01
C     4.557653982585780e+00   2.525889051861013e+00   9.582660000000000e-02 -1.60764258e+00  -1.10319840e+00  -1.31608501e+00
C     4.883339824947722e+00   1.131738142839911e+00  -6.345269999999914e-02 -3.61546940e-01  -4.16068470e-01   3.20054740e-01
C     6.243718005826435e+00   7.575052498260848e-01  -8.300789999999836e-02  1.44001120e-01  -1.91176838e+00  -1.22498710e-01
C     1.102382343070488e+01   7.019120317694022e+00  -1.089041999999978e-01  5.25246770e-01   2.17015458e+00  -4.49880730e-01
C     2.139514857525293e+00   1.894620181064552e+00  -8.855820000000136e-02  1.02073652e+00   2.44604902e+00  -2.48863460e-01
C     2.510164648125737e+00   5.621796490839753e-01  -1.828202999999995e-01 -5.54324950e-01  -2.14281947e+00   4.26811690e-01
C     3.856818600799213e+00   9.934296977600339e-02  -1.830843000000009e-01  4.37030950e-01   2.35322709e+00   2.06715650e-01
C     4.583282644492482e+00   7.646274547597645e+00  -1.368563999999992e-01 -2.11209683e+00   6.52644370e-01  -8.73587700e-02
C     5.919568847328410e+00   7.261413461265595e+00  -1.567766999999982e-01  8.97348380e-01  -1.13325388e+00   6.84798300e-02
C     9.170397566412525e-01   1.069135303283907e+00   3.594597900000000e+00  4.18687600e-01  -2.09366337e+00  -9.24193800e-02
C     3.307560047699341e+00   4.583183328615611e-01   3.711735900000000e+00  1.01124046e+00  -6.88744240e-01  -4.06335160e-01
C     4.687977867661111e+00   8.796747091150576e-01   3.638377500000000e+00  5.79457910e-01  -2.62253827e+00  -6.60752820e-01
C     1.018099525788260e+01   7.546217453870059e+00   3.459244500000000e+00 -6.86344790e-01   2.29878057e+00   1.03234679e+00
C     7.101322753045791e+00   2.895212284980503e-01   3.467593500000000e+00 -3.98882440e-01  -4.94484350e-01  -5.56342460e-01
C     1.254952932987975e+01   6.982950224333845e+00   3.457959600000000e+00  3.68703240e-01  -6.15938720e-01   2.59832130e-01
C     5.035985044347895e+00   7.354813531232836e+00   3.562518000000000e+00 -4.18030410e-01   1.03089625e+00  -4.52617070e-01
C     6.069141100974301e+00   6.386514023122749e+00   3.520835100000000e+00 -4.97645100e-01  -6.86539850e-01   3.94672340e-01
C     7.429572341812082e+00   6.760802026370390e+00   3.616898700000000e+00  4.94345950e-01   5.72456220e-01  -6.33741770e-01
C     8.472969409957752e+00   5.797636082721914e+00   3.465028800000000e+00 -9.86343830e-01  -2.52965490e-01   8.72223110e-01
C     9.822036680435854e+00   6.196170279760057e+00   3.477701700000000e+00  3.45230120e-01  -1.25894253e+00  -3.62599950e-01
C     1.080898313548401e+01   5.159786311099803e+00   3.469821300000000e+00  1.61155579e+00   9.01450020e-01  -3.44278940e-01
C     3.310688560200783e+00   5.590252193488006e+00   3.441593100000000e+00 -4.63872550e-01  -7.14073890e-01   1.72831530e-01
C     4.336836144793756e+00   4.583262376395118e+00   3.441088800000000e+00  1.54340420e-01   2.80553150e-01   8.11738210e-01
C     5.719643018621159e+00   5.000896887626110e+00   3.451164000000000e+00 -8.27582400e-02  -3.81193780e-01  -4.07755940e-01
C     6.763364931601163e+00   4.019492843247347e+00   3.384905400000000e+00 -6.24559900e-01   2.18146320e-01   1.02237643e+00
C     8.136348870543703e+00   4.407696642350826e+00   3.466053000000000e+00 -7.11075200e-01   3.02619350e-01  -1.21305682e+00
C     9.128743031454965e+00   3.406298897628536e+00   3.402666000000000e+00  6.92767830e-01   2.99542860e-01   7.83744560e-01
C     1.048904277900246e+01   3.769605878910177e+00   3.472561500000000e+00  5.68168630e-01   8.47749150e-01   7.65723100e-01
C     2.625285441411426e+00   2.793562151435507e+00   3.698843700000000e+00  3.19028510e-01   3.29919900e-01  -1.25828895e+00
C     3.996886056801634e+00   3.192120593897745e+00   3.626650200000000e+00  5.21335080e-01   6.19810150e-01  -5.68102380e-01
C     5.062767320957554e+00   2.213666255511280e+00   3.571528500000000e+00 -1.06090837e+00   1.54910520e+00   3.01051500e-01
C     6.412827523496882e+00   2.638428613547652e+00   3.451548000000000e+00  4.76664430e-01   1.10982300e-01  -4.77915110e-01
C     7.454252014641863e+00   1.675687311184030e+00   3.404203800000000e+00 -8.18528400e-01  -1.09160987e+00   8.01978470e-01
C     8.815974635943665e+00   2.041977249325297e+00   3.476763600000000e+00 -1.15122139e+00   2.19634020e-01  -4.39250960e-01
C     2.277461176566036e+00   1.409097250855357e+00   3.683811000000000e+00  3.00383140e-01   1.30409833e+00   4.01768870e-01
