64
Lattice="9.86 0 0 4.93 8.53901048131456 0 0 0 30 " PBC="1 1 1" Properties=species:S:1:pos:R:3:force:R:3 Energy="-507.3919994"
C     4.927446407900000e+00   8.462094574590457e+00   1.791300000000000e-02 -2.18887180e-01  -2.78715200e+00  -1.39488189e+00
C     1.227101452800000e+00   6.424386015503456e-01  -7.738379999999978e-02  6.18403970e-01  -1.82332392e+00   1.34285295e+00
C     1.299713795900000e+00   6.574432653756968e-01   3.531034200000000e+00 -2.87423662e+00   6.23676420e+00   2.70280940e-01
C     2.443261460800000e+00   1.549118931766806e+00   3.450469200000000e+00  9.73733320e-01  -2.28213040e+00   1.24323523e+00
C     7.314072275199999e+00   8.324582947551271e+00   6.468510000000000e-02  4.08226820e+00   6.79758914e+00  -1.88080495e+00
C     3.757200032200000e+00   5.873778665138384e-01  -1.682798999999982e-01 -2.48742728e+00  -9.93466570e-01   5.81943170e-01
C     3.706273230800000e+00   8.424348647274560e-01   3.836699700000000e+00 -1.78295863e+00   3.86832410e-01  -9.25033680e-01
C     4.897553993800000e+00   1.590985017029408e+00   3.821870400000000e+00  5.32488350e-01  -2.13708683e+00   1.34917340e-01
C     9.924351832299999e+00   8.410699978313433e+00  -2.674929000000006e-01 -1.76808454e+00   2.36415013e+00  -5.85831700e-02
C     6.206802360399999e+00   6.402157263421919e-01  -2.922827999999988e-01 -6.14776060e-01  -1.32455729e+00   2.51266980e-01
C     6.137715312400000e+00   8.069504943371871e-01   3.901268100000000e+00 -1.18309333e+00  -7.95737100e-02  -2.94515210e-01
C     7.351765231100000e+00   1.510284451394919e+00   3.894973800000000e+00 -1.60411517e+00   6.53261410e-01  -4.17333980e-01
C     1.231252567030000e+01   8.415169467178874e+00  -3.660917999999995e-01  2.40928068e+00  -1.94569582e+00  -5.71856110e-01
C     8.610157147399999e+00   5.306607342244208e-01  -1.197836999999993e-01  5.15455510e-01   2.53505802e+00   5.04060500e-01
C     8.558818592400000e+00   9.593921542501296e-01   3.864524700000000e+00  4.22329119e+00  -6.65415688e+00  -8.16741840e-01
C     9.853082076100000e+00   1.472179458688338e+00   3.586270200000000e+00  2.36912700e-01   2.06108296e+00   2.81674840e-01
C     1.324039056800000e+00   2.060574235960240e+00  -2.920101000000024e-01 -1.47566966e+00  -5.30299280e-01  -1.34426986e+00
C     2.529093007300000e+00   2.716521125139422e+00  -6.764915999999985e-01 -3.20782210e-01  -1.55850040e-01   1.19795916e+00
C     2.382003055600000e+00   2.979216524397713e+00   3.293041800000000e+00  2.04204266e+00  -4.24163910e-01   8.02251660e-01
C     3.686932298499999e+00   3.687443163680276e+00   3.467638200000000e+00 -2.68506176e+00   4.13962020e-01  -5.18854250e-01
C     3.739196461000000e+00   1.999498109600992e+00  -3.996725999999988e-01  1.17061187e+00   2.36219650e-01  -4.32196140e-01
C     4.996371850499999e+00   2.747805156274579e+00  -3.947403000000023e-01 -1.62855205e+00  -3.66928310e-01   2.54189620e-01
C     4.827816876000000e+00   3.000081084164965e+00   3.680015100000000e+00  4.67170177e+00  -1.38433061e+00   1.83293510e-01
C     6.159633697999999e+00   3.652676497120851e+00   3.749235600000000e+00 -1.38917574e+00   9.05177760e-01  -3.88206450e-01
C     6.225659363899999e+00   2.069378895056273e+00  -1.353374999999986e-01 -1.72068891e+00  -1.21695279e+00  -5.14483110e-01
C     7.428872008700000e+00   2.728135033293269e+00   3.123030000000000e-02  2.08573510e+00   8.25843840e-01  -6.29971140e-01
C     7.398966677999999e+00   2.850768288472104e+00   3.770022300000000e+00 -2.36632269e+00   7.07719890e+00   8.66866950e-01
C     8.584053881999999e+00   3.693547787662533e+00   3.816325200000000e+00  1.39496501e+00  -3.03593397e+00  -1.53632401e+00
C     8.656946249099999e+00   1.967489884987026e+00  -1.054140000000103e-02  1.02881588e+00   2.17580750e+00  -1.27024671e+00
C     9.939936153900000e+00   2.757991000315751e+00  -3.455252999999985e-01 -1.92045963e+00  -4.30502310e-01   1.67342124e+00
C     9.813699905000000e+00   2.956304651477778e+00   3.542564700000000e+00  3.56936160e-01  -1.19327246e+00   2.38337230e-01
C     1.100994108610000e+01   3.673789627483175e+00   3.336459300000000e+00 -2.45497430e-01   9.92017100e-01   9.71006700e-02
C     2.474768844300000e+00   4.117780088456435e+00  -9.769019999999990e-01 -5.91172060e-01   6.09294480e-01   5.05068890e-01
C     3.690987174200000e+00   4.842861026624421e+00  -8.124293999999992e-01  1.15149916e+00   9.83893800e-02  -2.26979700e-02
C     3.734501178300000e+00   5.114053936771779e+00   3.524714700000000e+00 -3.30380328e+00  -1.67743571e+00  -6.26256090e-01
C     4.817357585199999e+00   5.888224963068447e+00   3.759710699999999e+00  4.80987646e+00  -4.20852180e-01   2.27539650e-01
C     4.869153200500000e+00   4.166970595348361e+00  -5.264844000000011e-01  3.99069055e+00  -6.98286050e-01   1.36372027e+00
C     6.132370650100000e+00   4.908931022482688e+00  -1.941654000000028e-01  1.57127299e+00  -2.62641481e+00  -6.99992700e-02
C     6.137442732700000e+00   5.115933372978429e+00   3.768923700000000e+00  3.60885830e-01  -6.53872800e-02   1.44487962e+00
C     7.418138905699999e+00   5.794911937394580e+00   4.060067700000000e+00 -2.07946609e+00   2.54560750e-01  -1.62649412e+00
C     7.466657254199999e+00   4.162311113499739e+00  -1.893420000000035e-02 -3.26077199e+00  -2.45485130e-01  -7.60051720e-01
C     8.653723409500000e+00   4.860844438865615e+00  -2.190422999999981e-01  8.83860810e-01   1.92560757e+00  -5.52752680e-01
C     8.645099804199999e+00   5.093864044222554e+00   3.877659000000000e+00 -7.24717540e-01   1.12076552e+00   1.34635572e+00
C     9.874869767400000e+00   5.876612591936486e+00   3.894476700000000e+00 -1.00631526e+00  -3.76086637e+00  -1.79685169e+00
C     9.897504038299999e+00   4.230784499247706e+00  -5.018558999999989e-01 -5.68224820e-01  -3.56280230e+00  -2.96407410e-01
C     1.106434205850000e+01   4.848065980462504e+00  -9.856352999999984e-01  8.05820360e-01   2.30827457e+00   1.79028991e+00
C     1.101843966660000e+01   5.126409799546235e+00   3.426471600000000e+00  8.39331660e-01  -9.45261240e-01   1.31188292e+00
C     1.231442224130000e+01   5.706578264901914e+00   3.462938400000000e+00 -5.87910550e-01   3.87011898e+00   1.02492669e+00
C     3.866509865600000e+00   6.246760251981850e+00  -6.650385000000014e-01 -4.39251839e+00   1.24105488e+00   2.80302960e-01
C     4.934156532299999e+00   6.953751296447956e+00  -1.212204000000021e-01  2.66289660e+00   2.27932916e+00  -5.28506380e-01
C     4.846295995000000e+00   7.336779797632085e+00   3.882224700000000e+00  1.14597772e+00  -3.22463709e+00  -4.60544820e-01
C     6.163764692899999e+00   7.876676581761988e+00   3.877545900000000e+00 -1.18981309e+00   1.13954033e+00  -2.62280170e-01
C     6.213930400900000e+00   6.289520798592232e+00  -6.485729999999990e-02 -2.28196905e+00  -5.10143600e-01  -4.50056000e-03
C     7.430876990400000e+00   6.994088130323695e+00   2.475000000000000e-03 -6.06621510e-01  -2.29445012e+00  -5.62518100e-02
C     7.359997394400000e+00   7.239051164248903e+00   4.060821900000001e+00  2.58654110e+00  -2.44252021e+00   2.72328650e-01
C     8.618702562899999e+00   7.938420117180352e+00   4.071487200000000e+00 -2.34406132e+00   2.32287532e+00  -6.66461990e-01
C     8.641230789500000e+00   6.306266139703930e+00  -2.673875999999993e-01 -2.11921690e-01  -7.56780540e-01   7.35524410e-01
C     9.826471020700000e+00   7.028584964151952e+00  -4.356839999999984e-01  3.40025007e+00  -1.21838550e+00  -9.98918570e-01
C     9.807995007599999e+00   7.253416170799198e+00   4.013505599999999e+00  1.88462534e+00  -4.18968390e-01  -5.50995030e-01
C     1.104375004010000e+01   7.901366618224279e+00   3.825151200000000e+00  1.52705746e+00   9.47332190e-01   8.40408370e-01
C     1.107897178420000e+01   6.349602557181083e+00  -8.339691000000009e-01  2.07529233e+00  -2.18794309e+00   9.86315400e-02
C     1.246955346670000e+01   6.963530000469442e+00  -7.676121000000009e-01 -4.40838952e+00   2.30604423e+00   1.47126714e+00
C     1.230371857040000e+01   7.132618034362621e+00   3.741336300000000e+00 -3.36330490e-01   2.92535183e+00  -4.96463460e-01
C     1.351329397180000e+01   8.024862825802222e+00   3.831099900000000e+00 -1.86881666e+00  -1.09005850e+00   1.16600960e-01
