52
Lattice="8.88768389401873 1.33226762955019e-15 0 4.44384194700937 7.69696003302603 0 0 0 30 " PBC="1 1 1" Properties=species:S:1:pos:R:3:force:R:3 Energy="-418.66546716"
C     1.272642885681454e+01   6.975303371513640e+00  -1.632300000000022e-01 -8.13125660e-01   7.52207200e-01  -1.21479250e-01
C     8.963813750462302e+00   6.816205514362333e+00  -3.140532000000000e-01 -3.08244220e-01   6.47943660e-01   3.76792730e-01
C     1.033920687337236e+01   6.427718928947352e+00  -3.414543000000023e-01 -4.32195240e-01  -6.62885000e-01  -3.05403400e-02
C     1.071321803041419e+01   5.027182390976560e+00  -3.514757999999993e-01 -1.63280459e+00   5.72409290e-01  -6.82187700e-02
C     6.603493319645942e+00   6.204937117234228e+00  -1.622693999999996e-01 -1.63044867e+00   1.90884630e-01  -9.47955300e-02
C     7.921200041489033e+00   5.800235654002446e+00  -3.074460000000023e-01  2.14214929e+00   2.81901306e+00   2.69918250e-01
C     8.340205764864887e+00   4.499159156569714e+00  -3.323342999999994e-01 -2.53771069e+00  -3.40719888e+00  -3.17020310e-01
C     9.645072805286867e+00   4.075087369787235e+00  -3.782972999999998e-01  2.36756647e+00  -1.34719608e+00   7.04255640e-01
C     9.989145976884817e+00   2.652863107539913e+00  -2.371917000000003e-01 -4.42873150e-01   7.94611690e-01  -1.13809640e-01
C     4.185067788989081e+00   5.599809970574858e+00  -1.392428999999993e-01  2.86570790e-01  -1.92089160e-01  -6.31101210e-01
C     5.579446737796942e+00   5.227338065046295e+00  -1.593462000000017e-01 -7.57665130e-01  -1.02633014e+00  -1.37882490e-01
C     5.924809245709672e+00   3.824907613090523e+00  -2.541926999999973e-01 -4.34710570e-01   7.14656980e-01   1.80208190e-01
C     7.310449690394125e+00   3.440888343276953e+00  -3.133914000000004e-01 -9.80582380e-01   1.78684654e+00   3.93606270e-01
C     7.590787769956007e+00   2.088527078133932e+00  -2.536563000000029e-01  1.86200438e+00  -1.97390267e+00  -1.00532660e-01
C     8.987923500503941e+00   1.640737801745410e+00  -1.901445000000024e-01 -1.54678773e+00   1.62096944e+00  -1.31056510e-01
C     3.149859520438141e+00   4.603978975224664e+00  -2.709426000000015e-01  1.45729949e+00   1.62381200e-01   7.30016050e-01
C     3.489110501408416e+00   3.213346423602876e+00  -1.715586000000009e-01  4.99534680e-01   9.25721120e-01  -5.63947910e-01
C     4.871085887452542e+00   2.835192930058569e+00  -2.147594999999995e-01  3.34445420e-01   1.49680332e+00   6.34381270e-01
C     5.220929165672766e+00   1.488075064996785e+00  -1.511688000000007e-01 -3.55094490e-01  -6.53785220e-01  -9.35805970e-01
C     6.577375390737324e+00   1.078745496668565e+00  -2.596814999999992e-01 -1.39122080e-01   1.15827256e+00   4.24622300e-01
C     1.133766043626059e+01   7.416538840375818e+00  -2.901389999999999e-01  1.74262952e+00  -1.11939994e+00   5.06430260e-01
C     2.453326888668629e+00   2.260265806681709e+00  -1.466759999999994e-01  1.27171500e-02  -8.30235790e-01   3.82365700e-02
C     2.775056289660192e+00   8.508679895371793e-01  -9.430139999999909e-02  2.22919182e+00   2.52306617e+00  -3.82835870e-01
C     4.178650255794194e+00   5.376195732634490e-01  -1.786761000000006e-01 -3.98066720e-01  -2.73838299e+00   5.74202100e-02
C     4.041895998503843e-01   2.791360282079725e-01  -9.774990000000017e-02  1.13175942e+00  -8.70582000e-01  -2.93872370e-01
C     6.246326323293257e+00   7.588101385508507e+00  -1.027635000000018e-01 -1.63999373e+00  -1.32566804e+00   1.65921740e-01
C     6.050466344357035e-01   6.900644090736244e-01   3.715833300000000e+00  3.78951560e-01   2.10348514e+00  -2.99770130e-01
C     2.977637845252006e+00   1.271079827834215e-01   3.663664500000000e+00 -3.25291100e-01  -4.12931520e-01   7.32524700e-02
C     4.327842694801730e+00   4.827295494751073e-01   3.586173600000000e+00  8.37849670e-01   4.77561890e-01   1.85546600e-01
C     9.819838579121763e+00   7.220763737167957e+00   3.519879900000000e+00 -3.73352700e-02  -1.12812852e+00  -7.60641330e-01
C     1.118420675286374e+01   7.610237919524388e+00   3.483390900000000e+00  1.24826344e+00  -9.18617600e-02   8.96328080e-01
C     1.224665697108790e+01   6.624943061850461e+00   3.556606800000000e+00 -8.95814540e-01   1.52882230e-01   1.33504670e-01
C     4.733848363620459e+00   7.043633980845568e+00   3.695399100000000e+00 -1.12434619e+00  -2.26256398e+00  -3.20365700e-02
C     5.749174570922056e+00   6.009813792601706e+00   3.767053200000000e+00 -6.79103080e-01   1.58893687e+00  -8.35431820e-01
C     7.083827351311966e+00   6.452691869703887e+00   3.688253400000000e+00  1.03771499e+00  -1.85971895e+00  -4.07422380e-01
C     8.100308113180310e+00   5.405039859438114e+00   3.532638000000000e+00  4.29368280e-01   1.80651473e+00   3.13217840e-01
C     9.501669004769933e+00   5.817469378418417e+00   3.435327900000000e+00 -1.34537312e+00  -1.03945860e-01   9.37917330e-01
C     1.050989590795641e+01   4.818327535711319e+00   3.536207400000000e+00  2.01549180e-01   1.08737993e+00  -4.28368170e-01
C     1.187767539698498e+01   5.234767170867252e+00   3.583905900000000e+00  9.39268500e-02   6.76065980e-01  -5.72151200e-02
C     4.015220238408928e+00   4.273867443160408e+00   3.671357700000000e+00  9.35671230e-01  -4.32851460e-01   5.80593500e-02
C     5.389560615665529e+00   4.660175481008499e+00   3.676682100000000e+00  2.35421860e-01  -1.47150608e+00   8.93489610e-01
C     6.410227343329776e+00   3.610944131514170e+00   3.731411100000000e+00 -1.31875631e+00   1.67187629e+00  -1.26712730e+00
C     7.738140815207878e+00   4.038244869998835e+00   3.590330400000000e+00  1.90806963e+00  -5.03170030e-01   2.95801800e-01
C     8.810521287075188e+00   3.044381371571511e+00   3.597296400000000e+00 -9.96218690e-01   1.36780474e+00  -2.22462000e-03
C     1.016553326268106e+01   3.449479228244837e+00   3.590367300000000e+00  2.77711000e-03   4.33428260e-01   1.86846590e-01
C     2.310020718384440e+00   2.502069192686572e+00   3.691093800000000e+00  9.31492060e-01  -3.26100290e-01  -3.68926200e-02
C     3.705952834888215e+00   2.895780012752316e+00   3.727581300000000e+00 -1.46726702e+00  -1.06729682e+00  -6.27744140e-01
C     4.672333322721864e+00   1.846606082579811e+00   3.654229800000000e+00  1.32392362e+00   1.51243011e+00  -1.23101950e-01
C     6.066952950513609e+00   2.250207727192906e+00   3.611536800000000e+00 -7.69055990e-01  -2.38715220e-01   7.95282860e-01
C     7.108076238054606e+00   1.292158337724371e+00   3.605343000000000e+00 -9.11675760e-01  -5.33902720e-01  -5.05991550e-01
C     8.455830397682412e+00   1.699982072792323e+00   3.660860700000000e+00  7.37169800e-01  -1.51638874e+00  -1.24778710e-01
C     1.973674986169408e+00   1.132357671152725e+00   3.703719300000000e+00 -4.79277640e-01  -9.15731480e-01   1.62186080e-01
