52
Lattice="8.88768389401873 1.33226762955019e-15 0 4.44384194700937 7.69696003302603 0 0 0 30 " PBC="1 1 1" Properties=species:S:1:pos:R:3:force:R:3 Energy="-413.09719284"
C     1.210628578014882e+01   6.087990815021613e+00  -3.721977000000010e-01  9.37951250e-01   6.55899534e+00   7.66945540e-01
C     8.484149361058003e+00   6.135934486322079e+00  -1.689581999999987e-01 -3.16018818e+00  -2.42267022e+00  -2.60160404e+00
C     9.757554711477026e+00   5.639402748121177e+00  -4.261037999999999e-01  2.09991144e+00   3.06535418e+00   3.39028345e+00
C     1.011442614792454e+01   4.291008188299217e+00  -2.129951999999982e-01  4.73709260e-01  -6.07261960e-01  -1.14721435e+00
C     6.035245429296786e+00   5.445158724202483e+00  -4.365276000000016e-01 -1.21659443e+00  -6.61691110e-01   3.42477380e-01
C     7.442786815792880e+00   5.133094947046970e+00  -3.237249000000020e-01 -1.19081413e+00   2.12928565e+00   8.38608530e-01
C     7.831936675941650e+00   3.837498531216398e+00  -2.444409000000007e-01 -3.08143113e+00  -5.68117097e+00  -1.76835508e+00
C     9.128026950718128e+00   3.335764417731218e+00  -3.116133000000012e-01 -9.53003050e-01  -2.53224464e+00   1.71291947e+00
C     9.419542981345948e+00   1.851516358230949e+00  -2.393697000000010e-01 -7.75995310e-01   3.78559128e+00  -1.79997027e+00
C     3.612979841471587e+00   4.796305686399886e+00  -2.733603000000002e-01 -3.08010900e-02  -3.02776845e+00  -1.32833350e-01
C     4.998558383435742e+00   4.409200782279889e+00  -4.026452999999997e-01  6.92981740e-01   4.15532900e-01   7.75982990e-01
C     5.376087685706937e+00   3.008559026865488e+00  -3.213746999999998e-01 -1.16731290e+00   2.29568094e+00   4.58377200e-02
C     6.758626773178360e+00   2.748285322846234e+00  -3.977307000000003e-01  4.54825670e-01  -1.44690495e+00   1.28881545e+00
C     7.045178365793677e+00   1.289210094154480e+00  -3.599919000000007e-01  1.00721990e+00   3.22733824e+00   6.04032440e-01
C     8.424544194522111e+00   8.951559896713982e-01  -3.497513999999988e-01 -2.95977962e+00  -1.37538011e+00   3.68077470e-01
C     2.530313696197467e+00   3.820777655247226e+00  -1.455624000000029e-01  3.52937266e+00  -6.93871250e-01  -1.91188060e+00
C     2.901260024309923e+00   2.394467846615980e+00  -4.117631999999993e-01  5.78644840e-01   3.87685926e+00   2.42805476e+00
C     4.293227788933287e+00   2.047305931723667e+00  -2.065343999999989e-01 -1.82689970e-01   3.56392300e-01  -2.34105037e+00
C     4.597537418404993e+00   6.805543531389577e-01  -3.102905999999983e-01  2.95555803e+00   2.41854553e+00   1.00391980e+00
C     6.026607797080433e+00   3.457733063333008e-01  -2.386710000000001e-01 -1.09810962e+00  -1.47100481e+00  -8.80547610e-01
C     1.081099766332593e+01   6.657598646291341e+00  -2.707605000000015e-01 -1.47312963e+00  -2.72813820e+00  -1.23836661e+00
C     1.834352675842310e+00   1.515503028124489e+00  -4.904375999999999e-01  2.06871391e+00  -4.05390509e+00   5.63328060e-01
C     2.160309681400303e+00   6.065235291480119e-02  -5.419407000000014e-01  2.23599358e+00   2.83009012e+00   1.33782851e+00
C     8.052363681521493e+00   7.455682269395585e+00  -3.189197999999998e-01 -2.67620187e+00  -1.45796705e+00  -6.04294580e-01
C     4.190972767198031e+00   7.189130770836663e+00  -3.878933999999994e-01  2.74383367e+00  -1.44775119e+00  -4.95677480e-01
C     5.587278654750968e+00   6.818021689051012e+00  -4.686774000000007e-01  2.23591170e-01  -1.35680911e+00   6.31021700e-02
C     1.242332720099748e+00   1.465162831349081e+00   3.673686000000000e+00 -1.54191138e+00   3.86508124e+00  -9.57556490e-01
C     3.580081054956797e+00   9.288799891340422e-01   3.728043300000000e+00 -2.10318448e+00  -1.33999973e+00  -7.30560540e-01
C     4.920594285154690e+00   1.260546230154759e+00   3.808429500000000e+00 -8.34744270e-01   1.97610994e+00  -1.98100190e-01
C     5.897084513461526e+00   2.857444841505299e-01   3.840776700000000e+00  1.91400691e+00  -3.18384011e+00   6.04730410e-01
C     7.274213534823039e+00   6.245866779768157e-01   3.804927900000000e+00  1.53912265e+00   2.09120285e+00  -1.46863100e-01
C     1.284455675234591e+01   7.420863146459872e+00   3.812819100000000e+00 -1.44403841e+00  -1.47021450e-01  -1.13192086e+00
C     8.738910284271787e-01   1.865227414949990e-01   3.615184200000000e+00 -8.34343460e-01  -6.65657235e+00   1.13912646e+00
C     6.295108997648459e+00   6.754044249403251e+00   3.644618400000000e+00  7.97118000e-02   3.72720650e+00  -3.93035430e-01
C     7.643489339076544e+00   7.210834273881255e+00   3.661566600000000e+00  1.54764290e-01  -1.08492721e+00   9.56161060e-01
C     8.556363925692882e+00   6.112062518728235e+00   3.845850000000000e+00  5.31367354e+00   2.85528121e+00  -5.25998780e-01
C     1.007753159601616e+01   6.532036597929944e+00   3.921659700000000e+00 -3.22506802e+00   2.52577524e+00  -4.04604240e-01
C     1.117105808986581e+01   5.672183793010546e+00   3.890210100000000e+00 -3.66466683e+00  -3.49239512e+00  -1.09097602e+00
C     3.601293071205353e+00   6.009473740907581e+00   3.766200300000000e+00  2.86411173e+00   1.84406751e+00   5.33943320e-01
C     4.628851797819826e+00   5.020747501482679e+00   3.684197700000000e+00 -1.19159118e+00   2.42310730e-01  -3.22063210e-01
C     5.983516087214023e+00   5.398298400026238e+00   3.670962300000000e+00 -8.34802450e-01  -4.75641200e-01  -1.01163979e+00
C     6.971973804048138e+00   4.388546990644188e+00   3.544338900000000e+00 -2.31939470e-01  -3.62556270e-01   1.76104256e+00
C     8.296100589288649e+00   4.755171361698759e+00   3.734925300000000e+00  1.69466298e+00  -3.36316710e-01  -1.72438520e-01
C     9.385286116047322e+00   3.761387526807745e+00   3.788382300000000e+00 -2.37384810e-01   2.11666042e+00  -1.30221514e+00
C     1.077465187843328e+01   4.240343025871343e+00   3.714809400000000e+00 -1.17372863e+00   9.70387770e-01   2.23713407e+00
C     2.912578623645064e+00   3.296502532496589e+00   3.826467900000000e+00 -1.97606542e+00   2.50975840e-01  -2.45547691e+00
C     4.222214395810656e+00   3.663696016775778e+00   3.621102000000000e+00  2.33921066e+00   2.75528710e-01   1.71921706e+00
C     5.191901057644755e+00   2.663458357869209e+00   3.750201900000000e+00  4.08113621e+00  -6.49286200e-01  -5.87879550e-01
C     6.664897436808232e+00   3.025582624272640e+00   3.709874700000000e+00 -4.18405420e+00   5.10124100e-01  -9.23397870e-01
C     7.631202112747807e+00   2.052620143837180e+00   3.698721000000000e+00  9.49546930e-01  -2.64301405e+00   2.90463120e-01
C     9.007581191346844e+00   2.397869595070838e+00   3.644693400000000e+00  1.73323101e+00   1.02726144e+00   1.00972684e+00
C     2.562482266891175e+00   1.972934979068996e+00   3.629588100000000e+00  8.81488130e-01  -3.90062047e+00   1.50682835e+00
