52
Lattice="8.88768389401873 1.33226762955019e-15 0 4.44384194700937 7.69696003302603 0 0 0 30 " PBC="1 1 1" Properties=species:S:1:pos:R:3:force:R:3 Energy="-414.56471566"
C     1.244385881215389e+01   6.721350026223020e+00   1.001901000000000e-01  2.42832515e+00  -5.03374012e+00  -4.55328800e-02
C     8.765579027014418e+00   6.414037659463627e+00   2.279190000000000e-02  2.03155910e+00   2.06755498e+00  -1.44579518e+00
C     1.014597773792771e+01   6.022425723428463e+00  -1.934979000000006e-01  1.34031200e-02   1.08296953e+00   2.58692678e+00
C     1.049803840438600e+01   4.651218374682387e+00  -5.530740000000023e-02 -1.22993323e+00   1.81468302e+00   2.24908000e-03
C     6.365953169753371e+00   5.882020241588413e+00   2.253780000000000e-02  1.09588823e+00  -1.86865484e+00   1.27527796e+00
C     7.755835306019115e+00   5.507805282491456e+00   6.161010000000000e-02 -1.58927681e+00  -3.49221055e+00  -1.62963210e-01
C     8.142910780654660e+00   4.068586517345897e+00   8.483910000000000e-02 -4.39218755e+00   2.32141898e+00  -2.96068360e-01
C     9.435989952680709e+00   3.740930931288012e+00  -6.509129999999885e-02  2.15888005e+00  -4.39114745e+00   1.38925444e+00
C     9.752056832490236e+00   2.297606145844848e+00   1.398396000000000e-01  3.16116310e-01  -1.12653420e-01  -1.16208507e+00
C     3.914046534064318e+00   5.305776938046423e+00   1.324788000000000e-01  1.22163127e+00  -1.38678587e+00   5.63759890e-01
C     5.343252849802756e+00   4.875400648272969e+00   1.240776000000000e-01 -1.98250269e+00   1.91938200e+00  -2.95362940e-01
C     5.663446636813367e+00   3.529981502289806e+00   1.635999000000000e-01 -1.79954660e-01  -2.73020462e+00   1.69009670e-01
C     7.075378583514846e+00   3.102933224094125e+00   2.012643000000000e-01 -1.57535778e+00  -1.55756700e-01  -1.13688375e+00
C     7.314835005810878e+00   1.701634379201963e+00   1.053168000000000e-01  2.65450612e+00  -2.75389050e-01   5.76804640e-01
C     8.729353401834473e+00   1.266684786687485e+00   1.377735000000000e-01 -6.50888570e-01   2.18169567e+00  -2.71547690e-01
C     2.912901913774123e+00   4.262562994933948e+00   2.403834000000000e-01  1.36139791e+00   6.61456450e-01  -2.84753357e+00
C     3.205193883704671e+00   2.871770731391536e+00   5.712000000000000e-04  3.24856807e+00   1.44418561e+00   2.37533335e+00
C     4.564437818349890e+00   2.473751307040199e+00   1.321596000000000e-01  3.17115226e+00   8.89772900e-01  -2.26238340e+00
C     4.988416600757382e+00   1.094795043783920e+00  -1.631780999999997e-01 -5.66932070e-01   1.21915804e+00   2.96458529e+00
C     6.341478306909421e+00   6.695044433806892e-01   3.916200000000000e-02 -1.06516376e+00   4.39092085e+00  -9.25199250e-01
C     1.114857056187375e+01   7.072385821098433e+00   5.516580000000000e-02 -3.27433255e+00  -2.95420558e+00  -1.49314706e+00
C     2.262966608733029e+00   1.895295127489583e+00   9.517529999999999e-02 -3.63684137e+00  -1.23405728e+00  -6.81020200e-02
C     2.580678110044541e+00   5.082502828769779e-01   1.427196000000000e-01  2.51867686e+00   3.86859460e-01  -5.62623980e-01
C     4.014651423940973e+00   1.190562698656388e-01   2.950020000000000e-02 -2.77383885e+00  -5.88971230e-01  -5.29127930e-01
C     4.588260991707317e+00   7.585761971476989e+00   7.459890000000000e-02  4.04870161e+00   2.71597339e+00   8.66800100e-01
C     6.051000449925096e+00   7.215744318623593e+00   1.390413000000000e-01 -3.38898349e+00   1.00915640e+00  -7.58712440e-01
C     8.311244273001991e-01   1.025324745580349e+00   3.475027200000000e+00 -1.04866227e+00   5.88188430e-01  -4.61353540e-01
C     3.223783850575344e+00   4.452807601451453e-01   3.522109500000000e+00 -6.83633000e-02   2.41086780e+00  -4.83181430e-01
C     4.605491673400537e+00   8.438688359034991e-01   3.398314800000000e+00 -1.22328234e+00   1.42289818e+00  -8.71547790e-01
C     1.002450123105841e+01   7.610854599961992e+00   3.146056500000000e+00  2.61998960e+00  -2.85623767e+00   1.19199597e+00
C     7.013285889136169e+00   2.678672169064507e-01   3.185964600000000e+00 -2.31931598e+00   1.12671747e+00  -9.17950500e-02
C     1.242379562137328e+01   6.949089295952267e+00   3.222740700000000e+00  1.26935843e+00   2.73751430e-01   4.51912260e-01
C     4.908430871532991e+00   7.294406711342991e+00   3.366870000000000e+00  1.50034638e+00   1.67673923e+00   5.23885900e-01
C     5.985408764511964e+00   6.283673631678714e+00   3.417152100000000e+00 -1.41925542e+00   5.38711095e+00   8.49270770e-01
C     7.305513295204101e+00   6.821638413599509e+00   3.433419300000000e+00  1.53205919e+00  -3.61336017e+00  -4.81623360e-01
C     8.387441272606264e+00   5.816778268377322e+00   3.275189100000000e+00 -2.67974720e+00  -1.13995780e+00   7.45891640e-01
C     9.719852445733064e+00   6.150680861134756e+00   3.188742600000000e+00  1.00779695e+00   3.13229413e+00  -5.31246470e-01
C     1.075970315026637e+01   5.208177714565216e+00   3.121279800000000e+00 -1.07975298e+00  -2.10026320e+00   2.69476390e-01
C     3.214312382493757e+00   5.563340234560712e+00   3.222651600000000e+00 -9.93956670e-01   2.24955557e+00   1.90174630e-01
C     4.215359459190849e+00   4.663210238409127e+00   3.435837300000000e+00  1.25320647e+00  -3.04647248e+00  -4.35469380e-01
C     5.574824386575538e+00   5.003398014787858e+00   3.566188800000000e+00  1.12453409e+00  -2.12524348e+00  -2.57422418e+00
C     6.547156334203667e+00   4.002281286076262e+00   3.239485500000000e+00  3.56169934e+00   1.57091965e+00   3.00024292e+00
C     8.026904198029522e+00   4.416375195693452e+00   3.315810900000000e+00 -2.05801142e+00   3.14508630e-01  -5.24867060e-01
C     9.063944972400975e+00   3.438172624869568e+00   3.378024300000000e+00 -1.21148895e+00   1.79535470e-01  -9.26257950e-01
C     1.041428775880625e+01   3.796224429721126e+00   3.179816400000000e+00  8.37403470e-01   1.09074248e+00   1.39579934e+00
C     2.562563634194153e+00   2.830321447085981e+00   3.344214000000000e+00  5.89446090e-01   6.54334410e-01  -2.36083680e-01
C     3.974700798070065e+00   3.255192409228377e+00   3.319828200000000e+00 -2.95313905e+00  -4.16670100e-01   5.91336650e-01
C     4.965950225296300e+00   2.253801591770113e+00   3.301192200000000e+00 -3.45676911e+00  -1.29682919e+00   1.19475720e+00
C     6.245066713087052e+00   2.651435090545546e+00   3.355078800000000e+00  3.52427878e+00  -7.48242640e-01  -1.41842927e+00
C     7.303407932863482e+00   1.676471939289489e+00   3.275711100000000e+00  1.00732923e+00  -5.37381710e-01   8.36505820e-01
C     8.670648917120618e+00   2.085917038987759e+00   3.423542100000000e+00  8.02491150e-01  -2.59867847e+00  -3.60314570e-01
C     2.203299986994821e+00   1.475560731623208e+00   3.522028800000000e+00 -1.47628820e-01  -1.62441546e+00  -3.65868490e-01
