64
Lattice="9.86 0 0 4.93 8.53901048131456 0 0 0 30 " PBC="1 1 1" Properties=species:S:1:pos:R:3:force:R:3 Energy="-516.00560331"
C     4.979607237600000e+00   7.613613492712427e+00  -1.821635999999991e-01 -1.02613647e+00  -2.93894000e-03   1.54407710e-01
C     6.189794550599999e+00   8.324608564582711e+00  -1.577403000000004e-01  8.44959160e-01  -3.91940330e-01  -8.55328140e-01
C     9.851953352599999e+00   9.160286681097551e-01   3.594492600000000e+00 -2.11006669e+00  -4.43405800e-02  -2.39800210e-01
C     1.166203085500000e+00   1.654414750847258e+00   3.573706200000000e+00  1.22429370e+00  -7.99080950e-01   3.09154920e-01
C     7.414641514400000e+00   7.609362260954854e+00  -2.539212000000006e-01  1.12831779e+00  -7.57537690e-01   6.14115460e-01
C     8.672726587500000e+00   8.294640992693255e+00  -2.280881999999984e-01 -5.59554300e-02   1.74624090e+00   3.42181100e-02
C     2.388417922300000e+00   9.437827577025848e-01   3.647815800000000e+00  1.34420970e+00  -3.31359730e-01  -2.72377890e-01
C     3.642524189600000e+00   1.646723578717818e+00   3.672297300000000e+00 -1.89201910e-01  -4.10115540e-01  -2.59335090e-01
C     9.923007322699998e+00   7.636029676073998e+00  -1.851017999999982e-01 -9.94967490e-01  -1.30875269e+00  -5.49987820e-01
C     1.114090840950000e+01   8.339651824735430e+00  -2.199291000000017e-01  5.88634720e-01  -3.39548230e-01   4.20090080e-01
C     4.882106036000000e+00   9.176333189591568e-01   3.659424000000000e+00 -3.55393040e-01   8.19292300e-01   3.26263080e-01
C     6.089940654399999e+00   1.660871694401920e+00   3.637048800000000e+00  1.79809790e+00  -1.17913501e+00  -2.46393130e-01
C     1.235647548640000e+01   7.583645835432868e+00  -1.833489000000021e-01  1.16268242e+00   1.50467345e+00   4.92593500e-02
C     1.359426724980000e+01   8.322814689261072e+00  -1.143338999999983e-01 -8.95913100e-02  -5.67129830e-01  -5.34328190e-01
C     7.367738036700000e+00   9.363005351595896e-01   3.570489000000000e+00 -8.21124130e-01  -3.77678200e-02   5.98891660e-01
C     8.623698674200000e+00   1.631291366637733e+00   3.573117600000000e+00 -1.35300708e+00   7.10055830e-01  -5.41366330e-01
C     1.295317665600000e+00   1.196299656468717e+00  -2.096363999999973e-01 -1.16232491e+00   1.29029640e-01   9.81428760e-01
C     2.500664063700000e+00   1.888587378789311e+00  -1.834044000000006e-01  1.83921628e+00   1.48130545e+00  -7.32777000e-01
C     1.102506721350000e+01   3.051270317239945e+00   3.557379900000000e+00  2.54364710e-01   1.47474402e+00   1.50446630e-01
C     2.394541327400000e+00   3.771192668396754e+00   3.644612100000000e+00  1.07869050e+00  -1.55971060e-01  -3.02808560e-01
C     3.777098547500000e+00   1.212004177593009e+00  -2.311187999999973e-01 -1.72943802e+00  -1.14556972e+00   2.24526090e-01
C     4.982727483900000e+00   1.936681135175186e+00  -2.433347999999995e-01  3.71243970e-01  -8.54604550e-01   2.73485100e-02
C     3.643170512600000e+00   3.067052714139814e+00   3.650325000000000e+00  4.56371460e-01  -2.23024050e-01  -5.51821800e-02
C     4.907267178400000e+00   3.764031854208226e+00   3.610158900000000e+00 -2.12413144e+00   1.05129415e+00   9.07504300e-01
C     6.242726629500000e+00   1.227754040862950e+00  -2.295528000000004e-01 -2.00200077e+00  -8.11654080e-01  -1.76408200e-02
C     7.435190937599999e+00   1.915097676115624e+00  -2.207484000000015e-01  1.58571082e+00   1.53166830e-01   3.68917570e-01
C     6.115743140499999e+00   3.071902786702350e+00   3.644385000000000e+00  6.30264390e-01  -2.15159440e-01  -8.83275770e-01
C     7.362908312900000e+00   3.768491181651196e+00   3.520140300000000e+00 -4.63751240e-01   7.75421580e-01   1.02090276e+00
C     8.665631873799999e+00   1.196314685127162e+00  -1.272956999999977e-01  7.55769230e-01   5.00107980e-01  -2.79346330e-01
C     9.925870765300001e+00   1.921424485150570e+00  -1.490211000000023e-01 -1.16180778e+00  -1.34509074e+00  -4.15342800e-02
C     8.583718296900001e+00   3.088499719811907e+00   3.498009300000000e+00  6.70818680e-01  -1.73456216e+00   1.80188920e-01
C     9.812250287800000e+00   3.787817267900266e+00   3.506612700000000e+00 -1.98618500e-01   9.92338680e-01   4.90740580e-01
C     2.498500237400000e+00   3.339631932638602e+00  -2.372027999999986e-01 -3.49418690e-01  -3.57382590e-01   3.43130230e-01
C     3.721783208000000e+00   4.059200854151643e+00  -3.059697000000021e-01  6.71020680e-01  -8.97348520e-01   7.71272640e-01
C     1.231068717470000e+01   5.188813998205437e+00   3.650501700000000e+00 -1.47684832e+00   2.43536600e-01  -1.79396400e-01
C     3.663708153100000e+00   5.925147729774073e+00   3.661488900000000e+00 -6.68122980e-01  -1.02162529e+00  -8.40260000e-02
C     4.948147280700000e+00   3.335838648013071e+00  -2.591877000000018e-01  1.59011989e+00   8.27308350e-01  -2.98563220e-01
C     6.238104409400000e+00   4.031411498445531e+00  -2.607621000000009e-01 -2.70145982e+00   8.97931140e-01  -5.41760000e-03
C     4.868297056699999e+00   5.202504081367393e+00   3.678609900000000e+00  9.69203290e-01  -9.41843760e-01  -6.43971670e-01
C     6.101718966700000e+00   5.880866983127937e+00   3.636789300000000e+00  8.46857320e-01   8.53291650e-01   3.83829010e-01
C     7.447158216800000e+00   3.328961243582375e+00  -2.456336999999991e-01 -7.24952400e-02   2.84326190e-01   6.74694200e-02
C     8.663291405599999e+00   4.037968775373333e+00  -2.221463999999997e-01  5.49883030e-01   3.80152280e-01   2.59666240e-01
C     7.372123025200000e+00   5.196607980021057e+00   3.634544100000000e+00 -1.47907788e+00   5.87726000e-03  -1.04762512e+00
C     8.556060553200000e+00   5.956648566385317e+00   3.574947900000000e+00  1.78582987e+00  -1.57556699e+00   4.37028940e-01
C     9.877514071499998e+00   3.313037611449166e+00  -1.500833999999998e-01  1.53565652e+00   1.73895319e+00  -2.60526870e-01
C     1.113183701230000e+01   4.065396333205407e+00  -1.667681999999999e-01 -5.02121260e-01  -7.49972320e-01  -4.89504880e-01
C     9.816160221500001e+00   5.238517358066793e+00   3.601600200000000e+00 -2.39821250e-01  -1.29125367e+00  -7.28445190e-01
C     1.106752743010000e+01   5.900178638449296e+00   3.616790400000000e+00 -3.94616250e-01   8.33575810e-01   3.24499720e-01
C     3.762821020999999e+00   5.463020495931398e+00  -2.330463000000016e-01 -2.27364120e-01   5.25244000e-01  -6.64054510e-01
C     4.969390552100000e+00   6.196012998089315e+00  -2.848365000000008e-01  3.95240090e-01  -2.89450810e-01   8.40766820e-01
C     1.348213794940000e+01   7.325539385796632e+00   3.608056500000000e+00  7.59533180e-01   7.46021450e-01   2.93264910e-01
C     4.861295273500000e+00   8.035881137975091e+00   3.615869700000000e+00  8.29903860e-01  -3.56551240e-01   1.39348200e-02
C     6.177130563800000e+00   5.473186700248467e+00  -2.553564000000001e-01  2.16537689e+00  -6.80459660e-01  -2.66890780e-01
C     7.445852604900000e+00   6.164600027895910e+00  -2.456831999999984e-01 -1.04725482e+00   9.52974710e-01  -8.87276300e-02
C     6.092301976499999e+00   7.307237980805162e+00   3.640595700000000e+00  1.19211707e+00   7.39154680e-01  -2.92891230e-01
C     7.366057448999999e+00   8.056414981866451e+00   3.616782000000000e+00 -1.69871262e+00  -3.04635260e-01   2.07065040e-01
C     8.685209248900000e+00   5.472981849387052e+00  -2.330973000000007e-01 -4.03875070e-01  -3.28021370e-01   1.17223470e-01
C     9.906501436199999e+00   6.196997802167973e+00  -2.064570000000003e-01  8.45408850e-01   2.39088160e-01   3.68648200e-02
C     8.604172521799999e+00   7.353340525337207e+00   3.603060600000000e+00 -1.43715567e+00   3.55591880e-01   4.30424880e-01
C     9.827550099100000e+00   8.035713602589473e+00   3.692772300000000e+00 -4.52099170e-01   8.38337450e-01  -7.15822330e-01
C     1.114700612930000e+01   5.487688245576337e+00  -2.208419999999975e-01  3.35307970e-01  -3.06624710e-01   3.11806030e-01
C     1.242491108420000e+01   6.179227779798674e+00  -2.225064000000003e-01 -2.69352543e+00  -1.30013970e-01   1.78297200e-01
C     1.103369875610000e+01   7.341185841649660e+00   3.656816400000000e+00  9.48616050e-01  -1.16225675e+00  -7.88073600e-02
C     1.225744031530000e+01   8.033432320549636e+00   3.619077900000000e+00  5.04827110e-01   1.25179129e+00  -1.75412160e-01
