64
Lattice="9.86 0 0 4.93 8.53901048131456 0 0 0 30 " PBC="1 1 1" Properties=species:S:1:pos:R:3:force:R:3 Energy="-513.27099849"
C     4.973175362400000e+00   8.300687209843829e+00  -2.429160000000010e-01 -3.67250550e-01   5.10386400e-01   2.54652000e-03
C     1.283773626900000e+00   5.359700347705704e-01  -1.803080999999978e-01 -1.53703137e+00  -2.40269212e+00  -6.28385330e-01
C     9.873336734599999e+00   2.459846411390368e-01   3.651018000000000e+00 -1.23935189e+00  -6.62655700e-01   8.31624380e-01
C     1.226245210400000e+00   9.233100531262608e-01   3.657766500000000e+00  4.74679330e-01   6.33929760e-01   4.52213160e-01
C     7.403399536799999e+00   8.319177583137220e+00  -2.110893000000011e-01  4.78703040e-01  -9.83837820e-01  -2.82759200e-02
C     3.710891704100000e+00   4.242589425065992e-01  -3.435114000000006e-01  4.32068940e-01   1.84549364e+00   6.49396300e-01
C     2.451973362400000e+00   2.887667914459328e-01   3.868599000000000e+00  2.22631200e-01  -3.42380092e+00  -4.35895580e-01
C     3.667826280699999e+00   9.521163195904360e-01   3.801336300000000e+00  5.30899400e-02   2.22636191e+00   3.66286950e-01
C     9.885958964299999e+00   8.278971054561408e+00  -3.186204000000004e-01 -1.54632171e+00  -6.51137230e-01  -3.25300520e-01
C     6.160714797699999e+00   4.381679658972616e-01  -2.765439000000001e-01  1.03149717e+00   6.03398500e-02  -8.05004100e-01
C     4.851923787200000e+00   1.933372012443872e-01   3.811383300000000e+00  2.40344106e+00   2.75245366e+00   3.50018600e-02
C     6.103144476200000e+00   9.531866845541039e-01   3.792412800000000e+00  8.75753680e-01  -3.42226960e-01   2.20890000e-01
C     1.233470776160000e+01   8.215568816357303e+00  -4.170192000000021e-01  6.44347250e-01   2.11937706e+00   8.92116660e-01
C     8.658359236399999e+00   4.040255010039248e-01  -3.249585000000010e-01 -8.65978570e-01   2.80626876e+00   4.83622350e-01
C     7.361870695800000e+00   2.660139149011344e-01   3.793644900000000e+00  5.18265450e-01  -2.77085230e-01  -7.18330100e-02
C     8.660732390500002e+00   9.899291073583912e-01   3.713799000000000e+00 -2.85931613e+00  -2.36813648e+00  -1.09170400e-02
C     1.259569101700000e+00   1.917450088112759e+00  -3.525887999999995e-01 -1.40663680e-01   2.31788920e-01  -6.46866500e-02
C     2.483189235000000e+00   2.593464335040779e+00  -4.781100000000009e-01  3.85646200e-01   8.30474490e-01  -6.08483860e-01
C     1.107120895690000e+01   2.317235116512316e+00   3.601693200000000e+00 -5.65984090e-01   1.93543032e+00  -1.36227000e-02
C     2.416286374200000e+00   3.079673542409464e+00   3.619854000000000e+00  1.48103210e+00   1.53006616e+00   1.53746240e-01
C     3.682970451900000e+00   1.842573725356364e+00  -4.305969000000012e-01  2.07695305e+00   2.09771258e+00  -4.50473700e-02
C     4.984032504200000e+00   2.641947128744123e+00  -4.287027000000023e-01 -3.38982573e+00  -1.57838823e+00   1.90149460e-01
C     3.665986700500000e+00   2.452899670194574e+00   3.763428000000000e+00  1.35464202e+00  -3.20041017e+00  -3.07762550e-01
C     4.961161790499999e+00   3.117139902522246e+00   3.806232300000000e+00 -2.75001932e+00  -1.08218410e+00  -3.44117860e-01
C     6.116711146000000e+00   1.885212164116882e+00  -2.527466999999994e-01  3.71036087e+00  -1.11503780e-01   4.22007100e-02
C     7.404478664499999e+00   2.616978464369870e+00  -1.778523000000014e-01  1.96305290e-01  -1.03846552e+00  -5.50067590e-01
C     6.174064054500000e+00   2.388483936836598e+00   3.827331000000000e+00 -2.52078769e+00  -1.39272128e+00  -3.22528490e-01
C     7.343662431000000e+00   3.088049628569506e+00   3.792261900000000e+00  2.60387539e+00   8.10073280e-01  -3.46410200e-02
C     8.669795653200000e+00   1.939520612330101e+00  -2.457050999999986e-01 -1.29620789e+00  -3.03670189e+00  -3.19386960e-01
C     9.892868950899999e+00   2.614679250408025e+00  -3.898590000000013e-01 -5.42664720e-01   1.58056355e+00   3.83509850e-01
C     8.587523813199999e+00   2.369499069446309e+00   3.726549300000000e+00  2.19935910e-01   4.57231190e-01  -7.65532500e-02
C     9.821967268500000e+00   3.020409137903758e+00   3.659008200000000e+00  6.07779990e-01   2.20517902e+00  -4.56728220e-01
C     2.499008126000000e+00   4.034672204987424e+00  -6.841797000000014e-01 -2.83864406e+00  -9.52798770e-01   4.93548400e-01
C     3.670253171800000e+00   4.716432608237750e+00  -5.890869000000016e-01  4.08274647e+00   1.41742005e+00   4.78598010e-01
C     1.235225925180000e+01   4.542261216015723e+00   3.586329000000000e+00 -2.03623237e+00  -3.40280610e-01   5.53324630e-01
C     3.700133014400000e+00   5.283993480790024e+00   3.772336800000000e+00 -4.70968680e-01  -2.59504511e+00  -6.84423100e-01
C     4.967569114300000e+00   4.065038036325666e+00  -4.737365999999987e-01 -7.91727710e-01  -1.39318939e+00   4.31852220e-01
C     6.193363032500000e+00   4.736405097580156e+00  -2.764187999999983e-01 -5.02075100e-02   1.18755549e+00  -2.42825370e-01
C     4.919666670700000e+00   4.494367528645395e+00   3.780178800000000e+00  8.01848800e-02   2.40499413e+00   5.01443580e-01
C     6.146266496000000e+00   5.190811870487443e+00   3.868937400000000e+00 -1.57088000e-03   1.85416787e+00   1.06272920e-01
C     7.443608961899999e+00   4.023126694307521e+00  -1.970495999999997e-01 -1.35045127e+00   5.72818260e-01  -7.49334400e-02
C     8.658038589199998e+00   4.759891902075710e+00  -2.773596000000005e-01  1.36236600e-02  -1.28780400e+00  -4.75706540e-01
C     7.363146974199999e+00   4.522582383243725e+00   3.824292000000000e+00  1.10182223e+00  -9.08349960e-01   4.36270940e-01
C     8.637552664399999e+00   5.216123376132469e+00   3.845403300000001e+00 -1.47871315e+00  -1.06282004e+00  -4.01155390e-01
C     9.879092657499999e+00   4.078613867527399e+00  -4.761287999999979e-01  3.79110510e-01  -1.50723578e+00   6.17684000e-02
C     1.108689626620000e+01   4.789954854712227e+00  -6.994883999999999e-01  8.09590200e-01  -1.02378001e+00   6.33468470e-01
C     9.791856406099999e+00   4.469103841459057e+00   3.663502200000000e+00  3.31904831e+00  -3.74395000e-03  -1.93569610e-01
C     1.107742420790000e+01   5.239187841169682e+00   3.569216400000000e+00 -5.93614160e-01  -2.60033068e+00   8.51171970e-01
C     3.732844402500000e+00   6.137657571249204e+00  -4.468154999999996e-01 -1.51929102e+00  -2.84363000e-01  -7.46948790e-01
C     4.918437572399999e+00   6.885535788816485e+00  -2.817509999999999e-01  1.71074623e+00  -7.94684430e-01  -1.92477190e-01
C     1.351461393000000e+01   6.687818587536486e+00   3.818184000000000e+00  1.13991530e+00  -9.67771100e-02  -1.18469860e-01
C     4.901600488500000e+00   7.374487982521660e+00   3.796053600000000e+00  1.41774448e+00  -4.23074160e-01   3.72433830e-01
C     6.163201982700000e+00   6.179534586445221e+00  -2.553809999999999e-01  1.05984390e+00  -3.70433880e-01   5.32985230e-01
C     7.416745539799999e+00   6.892335232081499e+00  -1.872432000000011e-01 -9.69057700e-01  -6.99667560e-01  -3.37340990e-01
C     6.169122715500000e+00   6.631263440275875e+00   3.943490700000000e+00 -6.15562940e-01   7.77160620e-01  -7.11295600e-01
C     7.424101888599999e+00   7.345505641661386e+00   3.982339200000000e+00 -6.06446950e-01   4.08994230e-01  -6.59263540e-01
C     8.660773309500000e+00   6.148133058525858e+00  -2.990466000000005e-01 -2.82307942e+00   9.78166060e-01   2.80683670e-01
C     9.816547670199999e+00   6.851957154785143e+00  -4.244978999999987e-01  3.63817409e+00   1.91417023e+00  -3.53706840e-01
C     8.691035670800000e+00   6.613282418957614e+00   3.912232500000000e+00 -3.38799203e+00   1.07477455e+00   6.42000000e-05
C     9.851471445100000e+00   7.349047025477757e+00   3.804553800000000e+00  3.67797400e-01  -1.02045400e+00   2.33655290e-01
C     1.108208922040000e+01   6.220580670531428e+00  -6.516555000000004e-01 -6.65405800e-01  -3.11561334e+00   6.32019020e-01
C     1.234426481310000e+01   6.794395428969148e+00  -5.372807999999978e-01  9.23178100e-02   3.07726843e+00   2.29726240e-01
C     1.105662527740000e+01   6.604852537031548e+00   3.743740800000000e+00  1.27534997e+00   2.58920500e+00  -1.11409170e-01
C     1.228687764110000e+01   7.369346473531443e+00   3.831141300000000e+00 -4.28457070e-01   1.73419870e-01  -7.66019400e-01
