64
Lattice="9.86 0 0 4.93 8.53901048131456 0 0 0 30 " PBC="1 1 1" Properties=species:S:1:pos:R:3:force:R:3 Energy="-515.20612055"
C     4.938556803800000e+00   8.009284084302301e+00   1.447071000000000e-01  1.00813870e+00  -3.88490270e-01   1.98649710e-01
C     1.246618287500000e+00   1.754248335703864e-01   1.044585000000000e-01  8.39884880e-01   2.87556220e-01  -2.16756160e-01
C     9.829002624999999e+00   5.273443533341984e-01   3.459268200000000e+00  3.51199910e-01  -7.43680500e-02  -2.53375100e-01
C     1.204359116300000e+00   1.244287102174116e+00   3.398331900000000e+00 -4.78264450e-01   1.01703499e+00  -4.47444300e-02
C     7.436503895200000e+00   8.002914836385269e+00   1.871565000000000e-01 -1.92194062e+00  -4.23245930e-01   2.39274640e-01
C     3.706997250600000e+00   1.705105476490416e-01   1.599504000000000e-01  2.15172834e+00  -2.64968110e-01  -1.06557142e+00
C     2.435762388500000e+00   5.537805320495448e-01   3.541561500000000e+00 -3.33759790e-01   5.38385560e-01  -4.72628480e-01
C     3.656734372300000e+00   1.283331215253287e+00   3.422849400000000e+00 -2.66064090e-01  -1.87219210e-01   1.13846350e-01
C     9.904504884799998e+00   8.042696378409493e+00   6.687960000000000e-02 -6.23535000e-03  -2.11023676e+00   4.89536210e-01
C     6.225305882900000e+00   1.887766011371240e-01   5.384850000000000e-02 -7.82304880e-01  -1.23528028e+00   4.82060030e-01
C     4.866513284100000e+00   5.455108419600840e-01   3.458283000000000e+00  1.35677249e+00   2.35179870e-01  -2.46788030e-01
C     6.111580642900000e+00   1.244709953973086e+00   3.453321900000000e+00  1.44856390e-01   1.50541462e+00  -4.19061140e-01
C     1.236675350110000e+01   7.958665086347176e+00   7.201289999999999e-02 -2.25023170e-01   1.69428701e+00  -4.61984590e-01
C     8.642159502899998e+00   1.762797592996440e-01   1.442520000000000e-01  7.69335070e-01  -1.61196632e+00  -6.03652080e-01
C     7.358942620899999e+00   5.681921615970600e-01   3.356861100000000e+00 -6.62885560e-01  -1.01692431e+00   4.59504700e-02
C     8.612788485599999e+00   1.245342780039758e+00   3.366997500000000e+00 -6.39031310e-01   2.65050650e-01   2.90386440e-01
C     1.277458198300000e+00   1.603813087083407e+00  -1.020512999999994e-01  7.56813300e-02  -1.12144662e+00   7.04886000e-01
C     2.538085820300000e+00   2.284729494537890e+00  -1.990076999999992e-01 -1.05386544e+00  -2.21471460e-01   2.80524070e-01
C     1.103996375080000e+01   2.671708825090906e+00   3.148633200000000e+00  2.88533080e-01   1.67503430e-01   2.60969690e-01
C     2.428592344400000e+00   3.404503478376000e+00   3.064323600000000e+00 -3.64599790e-01  -9.04172470e-01   5.24083810e-01
C     3.783870296900000e+00   1.558436785392687e+00  -3.036450000000102e-02 -1.90040564e+00   1.84609048e+00   1.76077320e-01
C     4.980121929599999e+00   2.300134125614125e+00   6.984450000000000e-02  1.05994558e+00  -1.93942660e-01  -9.54577800e-02
C     3.651771193400000e+00   2.708287555064291e+00   3.241391700000000e+00  3.91664250e-01  -7.03470460e-01   1.62390330e-01
C     4.895086578100000e+00   3.426255326722228e+00   3.326216100000000e+00 -5.03704720e-01  -1.96422328e+00   5.58889450e-01
C     6.234187080699999e+00   1.592577627874033e+00   1.558065000000000e-01 -1.16070556e+00  -7.39505900e-02  -4.42162240e-01
C     7.449936025300000e+00   2.264023418805148e+00   1.546383000000000e-01  5.76882010e-01   2.03776991e+00  -3.57487300e-02
C     6.114372304700000e+00   2.701994218950427e+00   3.473909700000000e+00  1.78263930e-01  -1.26429051e+00  -2.02143370e-01
C     7.361285751300000e+00   3.374659209797876e+00   3.488048400000000e+00  9.44678600e-02   8.68772000e-01   3.32020100e-01
C     8.682251643299999e+00   1.565488300247071e+00   8.829510000000000e-02 -7.93443180e-01   8.56194360e-01   4.00460860e-01
C     9.888027937399999e+00   2.291054937331160e+00  -9.803699999999083e-03  9.83101290e-01   5.41511060e-01  -9.13846130e-01
C     8.610549131699999e+00   2.670265476149471e+00   3.363731100000000e+00 -1.29705468e+00   7.38266700e-02  -9.08654200e-02
C     9.786276139100000e+00   3.399399284861580e+00   3.153225000000000e+00  1.61218371e+00  -5.77607840e-01   4.49591860e-01
C     2.460838636300000e+00   3.702052215150089e+00  -2.918096999999982e-01  2.62267944e+00   4.95540670e-01   5.82763410e-01
C     3.734757045299999e+00   4.397734108746378e+00  -1.597620000000006e-01  1.20850950e-01   1.41284373e+00   2.76636260e-01
C     1.231344412930000e+01   4.818382843012138e+00   3.007011900000000e+00 -7.32816620e-01   4.10946710e-01   1.24596700e-02
C     3.668778362300000e+00   5.551248711644636e+00   3.140205600000000e+00 -2.74884750e-01  -2.42349540e-01   5.14650880e-01
C     4.985920644900000e+00   3.735020993052950e+00   5.926980000000000e-02 -1.55184616e+00  -1.54788663e+00  -5.86037430e-01
C     6.195310382499999e+00   4.419839557516583e+00   1.925994000000000e-01  9.28572310e-01   6.19189160e-01   2.70573450e-01
C     4.873593897999999e+00   4.798605043108676e+00   3.387428700000000e+00  5.15866730e-01   2.82484563e+00  -4.37033590e-01
C     6.109521529799999e+00   5.517718323022505e+00   3.587787600000000e+00  4.22312650e-01  -3.72497220e-01   2.45993510e-01
C     7.449425375899999e+00   3.709520092155477e+00   1.867602000000000e-01 -6.51966270e-01  -5.06395980e-01  -1.31388990e-01
C     8.673156976500000e+00   4.421311512143125e+00   1.000251000000000e-01 -6.81212930e-01   6.90286360e-01  -3.38368200e-02
C     7.353878870000000e+00   4.816139047228309e+00   3.634154100000000e+00  7.16089840e-01  -6.03072460e-01  -1.55537686e+00
C     8.605607694100000e+00   5.528271942245052e+00   3.428546700000000e+00 -8.99867800e-01   4.43966890e-01   6.45757240e-01
C     9.877553067799999e+00   3.716455220297019e+00  -1.059377999999995e-01  1.01432597e+00   3.71134080e-01   4.14249900e-01
C     1.113007759390000e+01   4.455355522245627e+00  -2.264814000000008e-01 -1.53874856e+00  -1.35523792e+00   1.81480310e-01
C     9.802939440499999e+00   4.820427423681469e+00   3.133012500000000e+00  4.81159410e-01   1.03325920e-01   5.10457730e-01
C     1.106294144550000e+01   5.512283669802510e+00   3.026856900000000e+00 -4.64676310e-01   4.10057800e-01   2.14585810e-01
C     3.772248906500000e+00   5.845880095488233e+00  -9.658980000000028e-02 -1.04003043e+00  -1.77610140e-01   4.53925950e-01
C     4.981166547299999e+00   6.576976339588855e+00   1.600224000000000e-01 -1.39416145e+00  -3.62846250e-01  -5.27797160e-01
C     1.348188282190000e+01   6.990835706621968e+00   3.213350400000000e+00  1.89017185e+00  -1.54051206e+00   8.90983820e-01
C     4.883195171600001e+00   7.638835338747413e+00   3.514491300000000e+00 -3.22240150e-01   5.50241930e-01  -7.71686200e-01
C     6.169632674700000e+00   5.846608814642596e+00   2.829960000000000e-01  1.40068706e+00   3.37854810e-01  -5.53550230e-01
C     7.406379376700000e+00   6.575601388121365e+00   2.910402000000000e-01  7.98489750e-01  -4.21469230e-01  -4.28313340e-01
C     6.133684396500000e+00   6.932850018935641e+00   3.638921100000000e+00 -1.15602202e+00   6.57451660e-01  -2.98152550e-01
C     7.346040712300001e+00   7.684357059786608e+00   3.654347400000000e+00  1.28383122e+00  -1.16397455e+00  -4.22709100e-02
C     8.640376519099998e+00   5.853789951676066e+00   1.692957000000000e-01  1.31741336e+00   5.64215800e-01  -2.11535630e-01
C     9.920686870299999e+00   6.573900929574378e+00   4.721970000000000e-02 -2.08501648e+00   1.00320767e+00   6.32775200e-02
C     8.610362087499999e+00   6.964470657863918e+00   3.553601100000000e+00 -5.71666380e-01  -4.33170180e-01  -5.76669500e-01
C     9.838907142899998e+00   7.663505991655915e+00   3.387945300000000e+00 -6.73069190e-01  -4.41871620e-01  -4.37995500e-02
C     1.111767706630000e+01   5.864599314262489e+00  -1.103309999999986e-01  1.44365062e+00   1.66189710e-01  -4.26029900e-01
C     1.238525746730000e+01   6.571512397562913e+00  -1.115673000000008e-01 -3.40858000e-01  -1.01225658e+00   3.56711340e-01
C     1.106145963540000e+01   6.935528621133112e+00   3.134785200000000e+00 -1.32426960e+00   3.82866530e-01   6.94859020e-01
C     1.224837739770000e+01   7.668987011702817e+00   3.193228200000000e+00  1.34061914e+00   1.11768362e+00   2.01497140e-01
