64
Lattice="9.86 0 0 4.93 8.53901048131456 0 0 0 30 " PBC="1 1 1" Properties=species:S:1:pos:R:3:force:R:3 Energy="-515.66449814"
C     4.959455517500000e+00   8.391761648530260e+00  -2.669426999999978e-01  1.15324204e+00   8.59168420e-01   6.79854600e-02
C     1.291424789700000e+00   5.860844625964328e-01  -3.208608000000019e-01 -1.08532719e+00  -8.60782050e-01   9.34685260e-01
C     1.183790761900000e+00   8.649140659863703e-01   3.603754800000000e+00  1.12474701e+00  -1.45135453e+00  -5.93468480e-01
C     2.443118441500000e+00   1.529007085773367e+00   3.579988200000000e+00 -8.83401470e-01   1.33591294e+00   3.04258600e-01
C     7.454664782700000e+00   8.392730655439530e+00  -2.769431999999981e-01 -1.24291434e+00   6.71309370e-01   2.18201250e-01
C     3.734063690100000e+00   5.638546858336392e-01  -1.268853000000014e-01  1.71431230e-01  -5.05580350e-01  -8.31563520e-01
C     3.676028962600000e+00   8.615050368324400e-01   3.544189500000000e+00 -1.48426766e+00  -2.37152829e+00  -2.39164810e-01
C     4.865368587400000e+00   1.556115284613490e+00   3.552641400000000e+00  1.41302344e+00   9.98994640e-01  -2.49085000e-03
C     9.889978442600000e+00   8.390163914279347e+00  -1.528941000000010e-01  6.14399260e-01   9.28862280e-01   1.38549970e-01
C     6.195352928399999e+00   5.835733957845792e-01  -2.160930000000008e-01 -3.19400660e-01  -1.43370100e-01   7.42907160e-01
C     6.078362697299999e+00   8.384070988741448e-01   3.535838100000000e+00  2.68133196e+00  -1.31778430e-01  -6.10924480e-01
C     7.370313912399999e+00   1.515196346393330e+00   3.536048100000000e+00 -3.57595140e-01   1.17380012e+00  -9.14170400e-02
C     1.237070578350000e+01   8.383038878544731e+00  -1.326156000000012e-01 -5.33088450e-01   1.35292519e+00  -3.31213360e-01
C     8.677887459399999e+00   5.658880803992415e-01  -2.115513000000000e-01 -8.25819780e-01   8.14738830e-01  -3.20467340e-01
C     8.627707158600000e+00   8.486888360030079e-01   3.578518500000000e+00 -1.12699919e+00  -2.18908780e-01  -6.20533700e-01
C     9.843654092000000e+00   1.607986699235717e+00   3.586325700000000e+00 -7.45810490e-01  -2.30478313e+00   2.78794700e-01
C     1.236715199300000e+00   1.991584240078233e+00  -1.458680999999977e-01  1.86544869e+00   2.35220010e-01  -7.90703570e-01
C     2.503707254100000e+00   2.705642596568111e+00  -1.135302000000031e-01 -1.74868513e+00  -2.28077080e-01   1.18684364e+00
C     2.430650816600000e+00   2.961702330782395e+00   3.633958800000000e+00 -2.94142500e-01   3.24062960e-01   3.37546700e-02
C     3.649609585600000e+00   3.689955938294225e+00   3.647267700000000e+00  8.55981220e-01   3.87913550e-01  -1.24853590e-01
C     3.702837661699999e+00   1.959456725487862e+00  -9.349380000000096e-02  9.71382340e-01   2.71796972e+00  -1.60531240e-01
C     4.927256504299999e+00   2.767220816743583e+00  -1.126532999999981e-01  3.48333210e-01  -2.35229500e+00  -3.44880970e-01
C     4.900021261599999e+00   2.989919661693765e+00   3.572828700000000e+00 -1.26361550e-01  -5.84236160e-01   1.38086100e-02
C     6.167500597600000e+00   3.651678969916577e+00   3.506768700000000e+00 -8.93097050e-01   1.28098150e-01  -8.59563000e-02
C     6.133793595999999e+00   2.028487879400382e+00  -2.336960999999995e-01  2.14889905e+00  -2.94440840e-01   1.11386080e-01
C     7.420395416000000e+00   2.735189536801322e+00  -2.793020999999989e-01 -5.84755200e-01  -8.73980730e-01   2.21128220e-01
C     7.410100047699999e+00   2.956015947533448e+00   3.473726700000000e+00 -1.25072743e+00  -4.34410410e-01   9.40769980e-01
C     8.596063953599998e+00   3.711870967130726e+00   3.589050000000000e+00  1.80517210e-01   3.62965040e-01  -7.09882660e-01
C     8.673432711400000e+00   2.023610225833997e+00  -2.666438999999983e-01 -1.38340085e+00  -1.13307529e+00   2.95101760e-01
C     9.887327975999998e+00   2.714503442353102e+00  -1.636580999999993e-01  4.84211860e-01   8.11910100e-01   1.62112480e-01
C     9.823004096800000e+00   2.988252163727231e+00   3.606249600000000e+00  1.62845570e-01   1.61588848e+00   1.36358790e-01
C     1.105024102600000e+01   3.691207074109755e+00   3.634587300000000e+00  7.16251540e-01  -2.62396140e-01  -3.39123790e-01
C     2.492513442600000e+00   4.132445241225101e+00   8.871269999999999e-02  5.49246270e-01  -1.85121480e-01  -5.52327320e-01
C     3.716896345500000e+00   4.831624286563475e+00   5.085090000000000e-02  9.66447580e-01   1.38118193e+00  -7.22350200e-01
C     3.661777713000000e+00   5.126841873476524e+00   3.663756000000000e+00  1.42453730e-01  -3.14420430e-01  -7.75052620e-01
C     4.915826545800000e+00   5.816956844580481e+00   3.544021500000000e+00 -7.27321810e-01  -7.89531600e-01   1.51106980e-01
C     4.982610692200000e+00   4.174714197002149e+00  -1.085066999999995e-01 -2.15140243e+00  -9.20467370e-01   4.99590400e-01
C     6.187427657599999e+00   4.856548377303023e+00  -2.052161999999988e-01  1.32862238e+00   4.18154320e-01  -5.58592600e-02
C     6.150760930500000e+00   5.059329297187765e+00   3.487530600000000e+00 -1.54267185e+00   1.35983453e+00   3.94293020e-01
C     7.322724720999999e+00   5.815946167300068e+00   3.501912000000000e+00  1.72795827e+00   2.84705630e-01  -4.94255660e-01
C     7.430867968499999e+00   4.144082290097350e+00  -2.580537000000014e-01  2.83240050e-01   1.54907930e-01   1.63881490e-01
C     8.692625102800001e+00   4.843801342458478e+00  -1.880673000000002e-01 -8.65883330e-01  -1.71107210e-01  -4.42828000e-03
C     8.565782661100000e+00   5.165217296645006e+00   3.547541400000000e+00  1.59906557e+00  -1.97927505e+00  -1.37335500e-02
C     9.854104755300000e+00   5.831334061915762e+00   3.524625000000000e+00 -1.98330297e+00   3.00174350e-01  -1.78562460e-01
C     9.927199991900000e+00   4.147656719884278e+00  -6.741839999999755e-02 -2.35744400e-01   2.17553880e-01   1.60915700e-02
C     1.115429952200000e+01   4.899770286649638e+00   1.035357000000000e-01 -1.39669142e+00  -2.02312103e+00  -4.59356050e-01
C     1.104655200560000e+01   5.106923606850666e+00   3.545767500000000e+00  1.05534216e+00   7.88815500e-02   7.05553010e-01
C     1.228048269160000e+01   5.843168703490519e+00   3.594078300000000e+00  5.20985670e-01  -1.57910515e+00  -2.53068240e-01
C     3.707076229200000e+00   6.265900102412351e+00  -6.302369999999868e-02  7.01162840e-01  -3.60786990e-01   6.99422590e-01
C     4.954680664600000e+00   6.990458026188437e+00  -1.884261000000009e-01 -4.27107640e-01  -1.14573872e+00   7.40499000e-03
C     4.887814483000000e+00   7.246249550083544e+00   3.520918200000000e+00  8.01677750e-01  -4.68724770e-01   6.07379900e-02
C     6.121260648600000e+00   7.944138436328495e+00   3.537614100000000e+00  3.44385820e-01   1.28411682e+00  -3.56378780e-01
C     6.191582513699999e+00   6.271348247268905e+00  -2.188085999999991e-01 -4.98071980e-01   5.02972030e-01  -3.26122850e-01
C     7.410840139300000e+00   6.984879405251748e+00  -2.912982000000000e-01  1.07553070e+00  -9.11635770e-01   2.89036670e-01
C     7.370532262100000e+00   7.227733303588398e+00   3.440730000000000e+00 -1.31401752e+00   1.12178515e+00   8.28582380e-01
C     8.590329377600000e+00   7.945281809831767e+00   3.473196300000000e+00  1.22738268e+00   5.57379350e-01   7.37968000e-02
C     8.655062446799999e+00   6.252302582123998e+00  -2.171717999999991e-01  2.49666720e-01   1.05676620e+00   4.16851800e-01
C     9.885330586500000e+00   6.986556637690230e+00  -9.614009999999951e-02 -5.24278080e-01  -4.79867570e-01   9.87040700e-02
C     9.863865070699999e+00   7.252448273961290e+00   3.472615800000000e+00 -1.41236803e+00  -2.83489600e-01  -1.13697440e-01
C     1.107816903230000e+01   7.956058468008050e+00   3.444639300000000e+00 -5.24754310e-01   3.78357830e-01   6.72350860e-01
C     1.111349834900000e+01   6.309311407011412e+00   8.991900000000000e-02 -1.98488820e-01  -1.04628432e+00  -6.25215200e-01
C     1.234007879940000e+01   6.964950464862790e+00   3.536400000000000e-03  9.24254960e-01   1.52189940e+00  -2.38430110e-01
C     1.230368070800000e+01   7.226644494362093e+00   3.496491900000000e+00 -1.12241670e-01   2.02760780e+00  -4.75471200e-02
C     1.352921008240000e+01   7.967845974244957e+00   3.502028100000000e+00  3.26575860e-01  -5.55523640e-01   5.61878480e-01
