76
Lattice="10.7446858958278 0 0 5.37234294791388 9.3051709414712 0 0 0 30 " PBC="1 1 1" Properties=species:S:1:pos:R:3:force:R:3 Energy="-609.70945474"
C     1.433335726717050e-01   8.239096115746081e-02  -2.991758999999981e-01 -1.70174931e+00  -1.45635076e+00   3.75747520e-01
C     1.252971598719127e+01   8.538073584341015e+00  -4.952787000000001e-01 -3.91721900e-02  -6.23400320e-01   6.92878370e-01
C     1.390001914226799e+01   8.336564989791297e+00  -5.054423999999997e-01  3.75872797e+00   2.25402882e+00   1.15761220e+00
C     1.451971003718462e+01   7.041873002591577e+00  -3.825840000000014e-01  8.68919420e-01   1.10353312e+00  -5.47610280e-01
C     8.327592573248539e+00   9.074215015390140e+00  -2.099894999999989e-01 -5.70039400e-02  -1.37296150e+00  -1.29273550e-01
C     9.765844960786570e+00   8.836234338082546e+00  -2.998776000000021e-01 -8.59541620e-01   1.31964866e+00   4.54877530e-01
C     1.037760069027233e+01   7.549293558275846e+00  -2.734334999999994e-01 -1.73080307e+00  -5.26587550e-01  -1.93946460e-01
C     1.176719958207571e+01   7.333408102416992e+00  -3.863693999999995e-01 -8.44435120e-01   1.16861630e+00   5.55242500e-01
C     1.233067492504470e+01   6.043599841133421e+00  -2.090163000000018e-01 -1.69416249e+00  -3.23047650e-01   4.62426780e-01
C     1.370395844109636e+01   5.918164368879742e+00  -2.355438000000021e-01  1.20613817e+00  -9.82583310e-01  -2.17959400e-01
C     6.061436403592778e+00   8.038140899712165e+00  -3.449816999999982e-01  5.94194830e-01   1.11366517e+00   8.96175300e-02
C     7.484957450697903e+00   7.879677281517212e+00  -2.699907000000010e-01  1.29609310e-01   6.57351670e-01   4.04084300e-02
C     8.086245223669021e+00   6.575261669840321e+00  -2.372471999999988e-01  4.31059420e-01  -6.38025730e-01   3.41119980e-01
C     9.515914165152410e+00   6.420335319326500e+00  -1.745973000000021e-01 -1.72453160e-01   4.26413430e-01  -7.38504500e-02
C     1.009349083389655e+01   5.122032367491803e+00  -7.345860000000215e-02 -1.92927461e+00   2.10250400e-01  -3.02193570e-01
C     1.146691768405812e+01   4.868590869512271e+00   1.845630000000000e-02  1.57551010e-01   4.76834929e+00  -1.29810713e+00
C     1.196270456809259e+01   3.628197997660699e+00  -2.267339999999862e-02  4.21011163e+00  -1.58570988e+00   8.55054260e-01
C     5.229346169507830e+00   6.892650628812267e+00  -3.830109000000022e-01 -1.07267043e+00   1.29548973e+00   5.00619510e-01
C     5.820010080571895e+00   5.640181971373310e+00  -2.689631999999982e-01  9.10569380e-01  -2.72123847e+00  -1.14102590e-01
C     7.269311121174038e+00   5.376008726696967e+00  -2.203409999999977e-01 -2.36633250e+00   3.94613737e+00  -7.16685090e-01
C     7.784973901250332e+00   4.108528223083926e+00  -3.194373000000006e-01  5.55298520e-01   2.38336540e-01   4.50183370e-01
C     9.203581994451110e+00   4.044536748632964e+00  -1.942602000000022e-01 -3.27401150e-01  -3.06989381e+00   4.05017770e-01
C     9.717009557519628e+00   2.694348908050504e+00  -1.141715999999988e-01 -1.39760920e-01   1.17033608e+00  -5.19622570e-01
C     1.110718361235923e+01   2.540339302977692e+00  -4.154549999999801e-02  5.01087530e-01  -2.42413951e+00  -1.25817310e-01
C     3.558152268786999e+00   4.621574685118518e+00  -1.488522000000003e-01  3.90669200e-02   1.22643650e-01   3.41059390e-01
C     4.983559814119015e+00   4.469147238260635e+00  -2.270108999999998e-01 -9.38555620e-01   7.49097140e-01   4.30622740e-01
C     5.518600742662819e+00   3.168655338014013e+00  -2.109600000000000e-01 -5.27777860e-01  -7.91739200e-01  -4.81603700e-01
C     6.896851634452910e+00   2.997594751607326e+00  -3.796904999999988e-01  1.22326170e+00  -1.21043035e+00   7.28185940e-01
C     7.441089852956825e+00   1.664591607665147e+00  -3.770871000000007e-01  9.63803100e-01   1.68560744e+00   5.50257500e-01
C     8.878932008387194e+00   1.563534845808884e+00  -2.536728000000004e-01 -7.13081240e-01  -1.67028228e+00  -3.79882400e-01
C     9.445007350450263e+00   2.485064075197938e-01  -3.157290000000010e-01 -4.31430080e-01  -1.38752964e+00  -8.51903050e-01
C     2.734205217251944e+00   3.491834904861922e+00   1.119030000000000e-02 -1.89733275e+00   2.57181910e-01  -5.19511530e-01
C     3.319876986076579e+00   2.214922214725550e+00   8.113499999999999e-03 -4.23507136e+00  -1.23551579e+00  -4.41194420e-01
C     4.648682176440607e+00   1.996605410751783e+00  -1.444691999999996e-01  2.65640838e+00   1.03355946e+00  -2.77523140e-01
C     5.201004427998535e+00   7.015797401221543e-01  -3.034818000000001e-01 -3.58473390e-01  -1.61449830e-01   4.49687510e-01
C     6.585944477719100e+00   5.562612577590120e-01  -3.474657000000008e-01  1.19267398e+00  -1.36377454e+00  -1.12553386e+00
C     9.420570442690746e-01   1.216420611320816e+00  -1.179801000000005e-01  1.24326056e+00   1.00629347e+00   3.71599900e-02
C     2.371152004631683e+00   1.090121433100487e+00  -9.099420000000080e-02  1.36458952e+00  -9.82969080e-01   6.01188000e-02
C     1.594652739275358e+01   9.226968143230923e+00   3.658869600000000e+00  6.76480000e-03   7.39482400e-01  -1.17337540e+00
C     1.173511573508459e+01   8.748211515265359e+00   3.719802600000000e+00  3.56268130e-01   1.61666354e+00   1.22454280e-01
C     1.315051954805627e+01   8.965028697890437e+00   3.685543800000000e+00 -1.45163710e-01  -7.70060940e-01   4.52502180e-01
C     1.400362595797418e+01   7.784038269337346e+00   3.690201600000000e+00 -1.69836439e+00   1.86869196e+00  -1.40968860e-01
C     7.471876547742665e+00   8.260976201642686e+00   3.779367300000000e+00  7.30949260e-01  -8.16267900e-02  -2.03866996e+00
C     8.888713325749400e+00   8.471668441599927e+00   3.636016800000000e+00 -1.25373230e+00  -1.58502837e+00   7.81065940e-01
C     9.731237885482127e+00   7.367169588880047e+00   3.640122300000000e+00  1.51296255e+00  -3.19900315e+00   4.30336050e-01
C     1.118337165507494e+01   7.477904845134422e+00   3.786452100000000e+00 -6.19376940e-01  -2.00164239e+00  -1.47734043e+00
C     1.205865977062882e+01   6.291348528583570e+00   3.691976400000000e+00 -1.39500249e+00   1.33171761e+00  -5.45421900e-02
C     1.347656494647802e+01   6.507105480031743e+00   3.721982400000000e+00 -1.14265037e+00  -3.13641481e+00  -5.29402340e-01
C     4.616971223773649e+00   7.947449912179643e+00   3.603553800000000e+00  3.29120429e+00  -1.57667669e+00   1.15069129e+00
C     5.490893367409060e+00   6.754463536405832e+00   3.667750800000000e+00  4.63075050e-01   1.74635499e+00  -4.80030520e-01
C     6.948729986490162e+00   6.955363665827782e+00   3.649273500000000e+00 -2.87272343e+00   7.43354250e-01   8.29341770e-01
C     7.777400992904582e+00   5.856959886177020e+00   3.604306800000000e+00  8.48883070e-01  -1.51300083e+00  -5.29283000e-03
C     9.175461700918213e+00   5.998913618728259e+00   3.582057000000000e+00  1.26222620e+00   1.51222614e+00  -2.74412070e-01
C     1.003915157272420e+01   4.860342952094475e+00   3.456348900000000e+00 -7.29806100e-01  -2.75946700e-02   1.46440758e+00
C     1.143936417270645e+01   5.002846154989720e+00   3.506664900000000e+00  1.04322039e+00   1.08071227e+00   3.85917970e-01
C     1.228069607230428e+01   3.873160623879703e+00   3.508826100000000e+00  2.72547460e-01  -9.68964440e-01  -3.49806550e-01
C     3.562574459162862e+00   5.290487133828452e+00   3.637320600000000e+00 -2.74149739e+00   1.60465712e+00  -1.29611350e-01
C     4.930742537704393e+00   5.439301289758625e+00   3.653758200000000e+00  1.22473428e+00   2.15688699e+00  -4.26648790e-01
C     5.823020741561075e+00   4.386488102076683e+00   3.594488400000000e+00  1.09055892e+00  -2.93770150e+00   1.03836923e+00
C     7.223522642211188e+00   4.554665667371030e+00   3.629492700000000e+00  5.21280870e-01  -3.29286080e-01   8.99876500e-02
C     8.088858331279901e+00   3.405379072831031e+00   3.734883300000000e+00 -1.54171686e+00   3.15865900e-02  -8.07810350e-01
C     9.490668128821191e+00   3.547227377795519e+00   3.626085600000000e+00  9.73235310e-01  -1.13159606e+00  -1.22676427e+00
C     1.036076650736194e+01   2.338382478343795e+00   3.496052100000000e+00 -1.05940411e+00   2.61928179e+00   1.03696873e+00
C     1.178515556391750e+01   2.553419209561212e+00   3.501478200000000e+00 -1.37180642e+00  -2.06937692e+00  -3.87053270e-01
C     2.929639395788742e+00   4.013048515430552e+00   3.519317400000000e+00  2.10556450e+00   1.72869610e+00   9.39846420e-01
C     3.863272176524780e+00   2.969881812358690e+00   3.616097100000000e+00 -3.16327160e-01  -4.17727074e+00  -1.49626990e-01
C     5.306600246235113e+00   3.044503327988088e+00   3.710652000000000e+00 -2.25142573e+00   1.02357940e+00  -9.67383200e-01
C     6.073160521335993e+00   1.839951183046114e+00   3.718197000000000e+00  5.39635700e-02   2.71024019e+00  -1.46018900e-01
C     7.469834627634230e+00   2.109756661589021e+00   3.728104800000000e+00  1.16068548e+00  -1.05609022e+00   1.45674740e-01
C     8.340844370433016e+00   9.855769070724928e-01   3.697756800000000e+00 -1.77190166e+00  -1.46888581e+00  -4.85419090e-01
C     9.709341128916229e+00   1.083786751879663e+00   3.576647700000000e+00  3.18194260e+00  -1.09134730e-01   3.99937760e-01
C     1.874226345062104e+00   1.356720256685760e+00   3.524053800000000e+00  4.12778050e-01   2.24555151e+00   4.17455400e-01
C     3.318216985828459e+00   1.591316736374186e+00   3.589781400000000e+00 -2.02499434e+00   5.29526020e-01  -9.63231700e-02
C     4.091221923532158e+00   4.132225422761696e-01   3.623393100000000e+00  1.87490170e-01   2.39021247e+00   4.15729700e-02
C     5.464463965096247e+00   5.754281419129335e-01   3.657721800000000e+00  2.68844069e+00  -8.38441170e-01   4.10833550e-01
C     1.259892374471205e+00   6.231012311381260e-02   3.616625700000000e+00 -4.66473930e-01   1.33943200e+00   6.07830610e-01
