64
Lattice="9.86 0 0 4.93 8.53901048131456 0 0 0 30 " PBC="1 1 1" Properties=species:S:1:pos:R:3:force:R:3 Energy="-514.53211366"
C     5.002069106400000e+00   7.385048945293220e+00  -2.569514999999996e-01 -9.57155300e-01  -2.39826000e-03   3.20624300e-01
C     6.215526291200000e+00   8.089922058989972e+00  -2.380779000000004e-01  4.44191430e-01   9.24550210e-01   3.17750800e-02
C     9.778006951499998e+00   1.110948745726820e+00   3.755778300000000e+00  9.34712330e-01   1.24375607e+00  -1.35128750e-01
C     1.188650657300000e+00   1.827640020708102e+00   3.689760300000000e+00 -1.36502809e+00  -8.98977100e-02  -5.40761910e-01
C     7.440797678699999e+00   7.372524010111260e+00  -1.009865999999988e-01  1.27793257e+00   1.50174153e+00   2.80204400e-02
C     8.718760955499999e+00   8.103851832176101e+00  -5.431170000000307e-02 -1.54127754e+00   8.95288610e-01  -1.61506937e+00
C     2.394994098600000e+00   1.107367399341403e+00   3.626209500000000e+00  8.73953110e-01   2.87293120e-01   7.30568570e-01
C     3.610777208100000e+00   1.878192841332007e+00   3.658423200000000e+00  3.43705840e-01  -9.45107810e-01  -8.56977950e-01
C     9.944790724899999e+00   7.403971990247633e+00  -1.862562000000025e-01 -9.50111330e-01  -1.19129600e-01   3.83248750e-01
C     1.118442270940000e+01   8.138488193435601e+00  -1.913340000000012e-01 -1.81328351e+00  -1.72336309e+00   1.40947000e-01
C     4.862696428800000e+00   1.189372298826712e+00   3.600139500000000e+00 -7.92926410e-01  -9.85536700e-01   1.32096560e-01
C     6.100219014200000e+00   1.847371709954971e+00   3.612552900000000e+00  1.68089912e+00  -1.61815236e+00  -2.18702100e-01
C     1.237372935250000e+01   7.398483968212137e+00  -1.855913999999999e-01  1.53483364e+00  -3.91962540e-01  -1.07811852e+00
C     1.362840552780000e+01   8.101525720331244e+00  -2.992448999999979e-01 -7.73613730e-01  -3.17608100e-02   4.10612950e-01
C     7.348816548799999e+00   1.128122659774510e+00   3.611811600000000e+00 -2.82587010e-01   1.29185595e+00   3.99181330e-01
C     8.569412570799999e+00   1.885639797761720e+00   3.732388800000000e+00 -2.65827900e-02  -2.05114051e+00   4.83726200e-02
C     1.263273898100000e+00   9.990393776395031e-01  -3.503678999999984e-01  1.32321530e+00  -9.70469860e-01   7.31279960e-01
C     2.514529688700000e+00   1.711979465316921e+00  -3.152015999999982e-01 -3.85838810e-01  -1.70799803e+00  -1.11083140e-01
C     1.106609275080000e+01   3.266183804775091e+00   3.537331200000000e+00 -1.88886109e+00  -1.31561050e-01   3.83969860e-01
C     2.373151733600000e+00   3.999011247860429e+00   3.394431600000000e+00  2.91221362e+00  -1.27830631e+00   9.92787270e-01
C     3.750222258100000e+00   1.010103202738230e+00  -2.321987999999990e-01  8.08989260e-01  -4.55507510e-01   4.81054110e-01
C     5.005556588399999e+00   1.762186712186701e+00  -2.506662000000013e-01 -2.07748866e+00  -2.09002726e+00   8.91790280e-01
C     3.639447623100000e+00   3.286569582224729e+00   3.556268400000000e+00 -4.36120860e-01  -3.90534960e-01  -4.27308560e-01
C     4.914171495500000e+00   3.898341010756993e+00   3.575635200000000e+00 -4.50572220e-01   3.49416732e+00   1.36470670e-01
C     6.180209053000000e+00   9.881430025362895e-01  -1.649691000000004e-01  2.01162683e+00   1.65528326e+00  -4.06232800e-01
C     7.437246796900000e+00   1.678244908954214e+00  -1.833026999999987e-01  2.63928040e-01   1.32463306e+00   4.51023150e-01
C     6.173465897599999e+00   3.210813274438369e+00   3.625064700000000e+00 -1.75853227e+00   3.50788043e+00   3.16661790e-01
C     7.355612849600000e+00   4.020792555792813e+00   3.717518700000000e+00  3.30907440e-01  -1.04135825e+00   7.13168420e-01
C     8.657535630599998e+00   9.919525966718369e-01  -3.125253000000008e-01  1.23210397e+00  -4.16165450e-01   5.55030690e-01
C     9.922823581599999e+00   1.715438191511845e+00  -3.146178000000006e-01 -1.48125120e+00  -2.26032090e-01  -1.03999524e+00
C     8.576593510199999e+00   3.283556250816441e+00   3.808143000000000e+00  1.24896274e+00   1.83986168e+00  -1.34664802e+00
C     9.845978389799999e+00   4.024102617815280e+00   3.631659300000000e+00 -1.58024934e+00  -1.94325822e+00   7.75464650e-01
C     2.511834507000000e+00   3.094822942462451e+00  -3.491142000000025e-01 -3.26671700e-01   1.94854555e+00  -2.56177000e-02
C     3.726274290100000e+00   3.814805920593668e+00  -2.304822000000009e-01  7.22694610e-01   8.54654540e-01   3.03020200e-02
C     1.226968934400000e+01   5.384971549221263e+00   3.393272700000000e+00  6.61852700e-02   1.47789950e+00  -1.43964610e-01
C     3.646994220600000e+00   6.118977546533051e+00   3.426043800000000e+00  1.96170790e-01  -5.96280510e-01   8.40866910e-01
C     4.961247326000000e+00   3.158036383144843e+00  -1.493937000000010e-01  2.44907601e+00  -2.22249940e-01  -1.69815700e-01
C     6.260584124799999e+00   3.855750561235373e+00  -3.610259999999954e-02 -1.97330800e+00  -1.01937120e+00   3.60796080e-01
C     4.878172191799999e+00   5.414808901200899e+00   3.594855900000000e+00  2.56760400e-01  -1.84285658e+00  -9.90715280e-01
C     6.093086093000000e+00   6.151814140553681e+00   3.633990000000000e+00  6.06331970e-01  -1.09348068e+00   1.20033347e+00
C     7.505717447000000e+00   3.124880600912471e+00  -2.739060000000038e-02 -2.65271414e+00  -6.21055940e-01  -1.04210203e+00
C     8.665646022899999e+00   3.867956820546218e+00  -1.867277999999999e-01  2.12947010e+00  -2.41659676e+00  -5.36375610e-01
C     7.350359688099999e+00   5.451095511625764e+00   3.802247400000000e+00 -1.01890618e+00  -8.50031670e-01  -1.53094730e+00
C     8.578030950299999e+00   6.137159405377800e+00   3.709270200000000e+00  3.91019780e-01   1.52722640e-01   3.70104570e-01
C     9.918494203500000e+00   3.129306796994778e+00  -4.189488000000026e-01 -3.96080660e-01   1.10544434e+00   1.40010276e+00
C     1.115369732250000e+01   3.844270288595537e+00  -4.078781999999990e-01 -5.30368100e-01   1.86474750e-01   3.55807760e-01
C     9.804404587200001e+00   5.435920409151232e+00   3.622260600000000e+00  9.71503350e-01  -8.48379160e-01  -3.03549310e-01
C     1.105803762380000e+01   6.088199707939149e+00   3.482740500000000e+00 -1.13888720e+00   3.08712560e+00  -5.58056500e-01
C     3.762539074300000e+00   5.231168514867496e+00  -2.139282000000016e-01 -1.70485251e+00   9.31582230e-01  -6.73412000e-03
C     4.969503104000000e+00   5.970540853315438e+00  -1.159181999999994e-01 -2.02900300e-02  -5.25359650e-01  -2.07352700e-01
C     1.351701060020000e+01   7.540304209159322e+00   3.553138200000000e+00 -1.66827125e+00  -9.74209500e-01  -3.55114100e-02
C     4.849066802899999e+00   8.212023504596111e+00   3.733787700000000e+00  1.00977649e+00   2.40567183e+00  -4.94397240e-01
C     6.184706100400000e+00   5.257584883078528e+00   1.042890000000000e-02  1.64111734e+00   5.11086040e-01  -7.51960940e-01
C     7.437538751500000e+00   5.971323965966559e+00  -7.169699999999679e-02 -9.15281250e-01  -4.70157250e-01   3.66884420e-01
C     6.095820418900000e+00   7.559568643752725e+00   3.706691700000000e+00  3.72400930e-01  -1.13177734e+00  -2.97134060e-01
C     7.354360925399999e+00   8.205904364296039e+00   3.681528300000000e+00 -9.20734870e-01   2.29876836e+00   1.87948000e-01
C     8.644348521500000e+00   5.242914948463993e+00  -1.812636000000012e-01  6.22328490e-01   2.16356112e+00   7.74326600e-02
C     9.858899673300000e+00   5.985329309395437e+00  -2.814914999999978e-01  2.17966754e+00  -1.87696000e-01   6.62960170e-01
C     8.588101757099999e+00   7.548628634305959e+00   3.684705600000000e+00  3.14904000e-03   5.27495900e-02  -5.53189410e-01
C     9.788630657799999e+00   8.305454027054184e+00   3.553188600000000e+00  9.59554100e-01  -1.06070287e+00  -2.65674700e-02
C     1.114203861200000e+01   5.297425344275064e+00  -2.859827999999993e-01 -1.70820110e+00  -2.10489073e+00  -9.78784400e-01
C     1.235775437770000e+01   5.948231749145286e+00  -2.855945999999996e-01  1.60828253e+00   1.70978547e+00   9.15957660e-01
C     1.102975820710000e+01   7.579673060807047e+00   3.419793900000000e+00  2.85581420e-01  -1.19162319e+00   1.20100476e+00
C     1.227966519900000e+01   8.275246594360345e+00   3.537456600000000e+00 -1.58561300e-01  -1.08217624e+00  -6.24419190e-01
