52
Lattice="8.88768389401873 1.33226762955019e-15 0 4.44384194700937 7.69696003302603 0 0 0 30 " PBC="1 1 1" Properties=species:S:1:pos:R:3:force:R:3 Energy="-417.74982192"
C     1.234330297877981e+01   6.500960737565622e+00  -2.171681999999997e-01 -1.43613207e+00   1.87695487e+00   3.86745160e-01
C     8.510039806564560e+00   6.439371433706368e+00  -5.477100000000235e-02  2.66027120e+00  -2.67289258e+00  -9.60929440e-01
C     9.937276833740739e+00   6.002323188070111e+00  -2.027693999999975e-01 -1.66797918e+00  -8.07029470e-01   1.35594228e+00
C     1.028919045344967e+01   4.601257253188456e+00  -1.749587999999989e-01 -3.11777970e-01  -1.09809341e+00   3.48453300e-02
C     6.172674041278649e+00   5.771990042810754e+00  -1.675889999999995e-01 -3.56840040e-01  -1.18308753e+00   6.65793800e-02
C     7.555673688456627e+00   5.399918917990954e+00  -7.459290000000252e-02 -1.59544167e+00   5.57874900e-01  -3.98129230e-01
C     7.845890650834338e+00   4.016763424251108e+00  -1.483305000000001e-01  3.52025507e+00   9.59626190e-01   3.10757680e-01
C     9.263646519032626e+00   3.585665005687641e+00  -1.056896999999992e-01 -1.36680969e+00   1.82270390e+00  -3.40166250e-01
C     9.540493294154436e+00   2.208698175690316e+00  -1.159713000000018e-01  1.84527281e+00   5.83124270e-01  -7.34990420e-01
C     3.797378307474886e+00   5.134631876025761e+00  -3.003854999999973e-01 -6.26258320e-01   2.34404250e-01   6.12739720e-01
C     5.146764112054050e+00   4.779551174715382e+00  -2.755391999999972e-01  1.04492732e+00   9.85026400e-02   3.77217700e-02
C     5.491762980400893e+00   3.408634155301638e+00  -3.042693000000014e-01  9.06684630e-01   1.16451681e+00   2.12143240e-01
C     6.872734902525895e+00   3.077400021617006e+00  -2.717306999999991e-01 -1.05505544e+00  -3.41457072e+00   3.61526390e-01
C     7.224116461012809e+00   1.636390789629267e+00  -2.322953999999982e-01 -2.92174814e+00   1.77674560e+00   1.60896210e-01
C     8.537953796370346e+00   1.248952453200770e+00  -1.797006000000003e-01  9.20076570e-01  -2.66403845e+00   5.13312690e-01
C     2.784274997464112e+00   4.125826653940198e+00  -2.416295999999996e-01 -2.02850185e+00   3.35756639e+00  -7.31429250e-01
C     3.069967995464815e+00   2.801569298954716e+00  -3.795848999999976e-01  1.08824531e+00  -2.05346944e+00   1.61654232e+00
C     4.493290664529199e+00   2.465288961304815e+00  -2.833560000000013e-01 -2.47356966e+00  -2.67558137e+00  -1.17808680e+00
C     4.802550556142997e+00   1.050877652275146e+00  -2.801597999999998e-01 -1.89909635e+00   1.36294620e+00   8.41420080e-01
C     6.123026324821367e+00   7.116171286712293e-01  -1.768788000000008e-01  3.34601941e+00  -3.19919448e+00  -3.89931510e-01
C     1.094521239991039e+01   6.944504755649597e+00  -1.483944000000008e-01  1.16813348e+00   1.83420507e+00  -7.24592750e-01
C     2.018793980446457e+00   1.799179570023759e+00  -2.407196999999996e-01  7.46684870e-01   8.21346760e-01  -1.60514280e-01
C     2.358971769112287e+00   4.385737831142039e-01  -2.167139999999996e-01 -1.39147260e-01  -4.28371890e-01   4.27159210e-01
C     3.730536744395218e+00   7.532145024877610e-02  -1.724537999999995e-01  4.47478360e-01   1.13833728e+00  -3.01717390e-01
C     4.473177217027030e+00   7.512607138507057e+00  -1.538576999999997e-01 -3.25108497e+00   9.37137040e-01  -4.73038130e-01
C     5.765769699432806e+00   7.107279527576836e+00  -1.580097000000009e-01  3.47355575e+00   1.66478111e+00  -5.47206100e-02
C     1.010440959955094e+00   1.150411968477495e+00   3.563832000000000e+00  3.56326580e-01  -1.07290539e+00  -4.91738320e-01
C     3.380853088394271e+00   5.243791086806423e-01   3.467041500000000e+00  1.24045685e+00   9.35162980e-01  -8.95068900e-02
C     4.761923308777777e+00   9.238626487688865e-01   3.474328800000000e+00  2.34939560e-01   1.45161120e-01   6.94173080e-01
C     1.023561154190681e+01   7.626751285451150e+00   3.554803500000000e+00 -6.24810760e-01   9.31933630e-01   3.64343200e-01
C     7.153380095104099e+00   3.388200265813994e-01   3.628556700000000e+00  2.86633310e-01  -1.02810101e+00   6.32390500e-02
C     1.265117377113786e+01   7.084443416863829e+00   3.655266300000000e+00 -2.71087340e-01  -1.16124153e+00  -6.20542190e-01
C     5.144004887867743e+00   7.420782790197159e+00   3.587590500000000e+00 -1.13952301e+00   2.75469846e+00   1.18451840e-01
C     6.148782081034629e+00   6.489220949279864e+00   3.575382000000000e+00  1.48349847e+00  -3.01048059e+00   5.79318480e-01
C     7.543273104005683e+00   6.839247749664944e+00   3.553147500000000e+00 -2.26459348e+00   7.08954740e-01   1.84817800e-02
C     8.517385965735894e+00   5.844602932824974e+00   3.679945200000000e+00  8.45532350e-01   9.14662800e-01  -6.69844520e-01
C     9.872708521471919e+00   6.275288024634830e+00   3.651499200000000e+00  7.19425380e-01  -8.03407330e-01  -1.08851550e-01
C     1.092199941275232e+01   5.314425396275331e+00   3.662122200000000e+00  2.77910440e-01  -2.52984640e-01  -3.18525370e-01
C     3.410052732857967e+00   5.716856487207064e+00   3.600985200000000e+00  6.98064530e-01  -1.33500872e+00   8.40704580e-01
C     4.470377728087622e+00   4.696572634689562e+00   3.649818000000000e+00 -1.61524920e+00   8.00286800e-02  -1.08672979e+00
C     5.830429909196244e+00   5.053542323930501e+00   3.685795800000000e+00 -4.46122920e-01   1.56416355e+00  -1.02209895e+00
C     6.825546856506440e+00   4.053395566121887e+00   3.610331400000000e+00  5.92152550e-01   7.24926730e-01   1.41889720e+00
C     8.188286228886311e+00   4.482881702467870e+00   3.667022700000000e+00 -5.12541010e-01  -6.55959080e-01   1.15527740e-01
C     9.201815790933368e+00   3.516522597981348e+00   3.692838300000000e+00  9.23941240e-01  -1.22110483e+00  -8.15671950e-01
C     1.058307478573761e+01   3.938958780757453e+00   3.643433100000000e+00  2.60679600e-01  -1.35633265e+00   9.73005000e-02
C     2.749454606555591e+00   2.937136240811108e+00   3.550420500000000e+00 -1.29928796e+00  -1.20749020e-01  -8.94567390e-01
C     4.109418799607656e+00   3.315586144286170e+00   3.445812000000000e+00  6.61468450e-01   6.12486800e-02   2.08112458e+00
C     5.134102004958645e+00   2.299592346380589e+00   3.588839400000000e+00 -6.36058660e-01   3.33400900e-01  -6.98778390e-01
C     6.503569665082315e+00   2.683100153200166e+00   3.748985400000000e+00 -8.64813980e-01  -2.91667130e-01  -1.50500335e+00
C     7.505792671164226e+00   1.674187327613384e+00   3.686150100000000e+00  4.55888400e-02   1.98005588e+00  -2.28555090e-01
C     8.856673562430498e+00   2.093622003856190e+00   3.582664500000000e+00  6.38109050e-01   1.32738745e+00   1.08748296e+00
C     2.371226419448972e+00   1.547268767016301e+00   3.470908800000000e+00  3.82826070e-01  -9.73709800e-02   5.55702730e-01
