64
Lattice="9.86 0 0 4.93 8.53901048131456 0 0 0 30 " PBC="1 1 1" Properties=species:S:1:pos:R:3:force:R:3 Energy="-513.32210594"
C     5.040622889600000e+00   6.981918161807389e+00   7.158840000000001e-02 -2.67143297e+00  -1.17783310e+00  -1.33607400e-01
C     6.246967859200000e+00   7.704056813134282e+00   4.638090000000000e-02 -4.10348460e-01  -2.22840763e+00   6.03367860e-01
C     9.834744891800000e+00   1.599580043418157e+00   3.518933400000000e+00 -2.04491338e+00  -5.25645870e-01  -3.91749750e-01
C     1.103366197830000e+01   2.270835670585882e+00   3.437229000000000e+00  8.94825960e-01   1.88654798e+00  -1.22597207e+00
C     7.425630040700000e+00   6.947565124915615e+00   1.686606000000000e-01  2.08743825e+00   4.97098740e-01   3.81091660e-01
C     8.698032967700000e+00   7.639925514215394e+00   2.523054000000000e-01 -1.22617409e+00  -5.20251400e-02  -1.89564139e+00
C     2.386368077600000e+00   1.605619002409822e+00   3.247296900000000e+00  1.84235868e+00  -2.04281358e+00   1.04010764e+00
C     3.626296503000000e+00   2.299782659942768e+00   3.222916800000000e+00  7.25919800e-02   1.00398192e+00  -3.72258990e-01
C     9.902119997300000e+00   6.919713775993419e+00   1.489650000000000e-02 -1.98530860e-01   2.78619953e+00   9.19837310e-01
C     1.111611287590000e+01   7.634184566689481e+00  -2.008049999999884e-02  1.71131627e+00   6.36054010e-01   5.36381920e-01
C     4.839161644100000e+00   1.578016053302489e+00   3.287379900000000e+00  1.01054190e+00   8.61693300e-01   4.60517030e-01
C     6.085229004099999e+00   2.302645875546817e+00   3.406257300000000e+00 -1.01215017e+00   4.19460360e-01  -8.35218540e-01
C     1.236258770040000e+01   6.914711367483920e+00  -1.911869999999993e-02  1.64677717e+00   2.93207630e-01  -7.40027440e-01
C     1.363141228550000e+01   7.644754666202254e+00   1.909260000000000e-02 -9.27670060e-01   1.77812936e+00  -2.96662530e-01
C     7.288453382300000e+00   1.599344622899223e+00   3.380880900000000e+00  2.61923402e+00  -5.07215590e-01   3.18461710e-01
C     8.609403202500001e+00   2.279879848925879e+00   3.472200300000000e+00 -3.06259746e+00   1.30544310e+00   1.21746910e-01
C     1.317321438800000e+00   5.374338773371568e-01  -3.405150000000035e-02 -2.69235670e-01   2.00896092e+00   8.04931900e-02
C     2.555810600000000e+00   1.222457719612730e+00  -4.960680000000295e-02  7.41239900e-02   4.12708960e-01   7.28561940e-01
C     1.100750389130000e+01   3.704740807989821e+00   3.269571000000000e+00  6.80064180e-01  -4.52183260e-01   4.64528290e-01
C     1.223873269080000e+01   4.417341470000659e+00   3.180216000000000e+00  1.65688609e+00   1.47133734e+00  -7.19941300e-02
C     3.778139171899999e+00   5.227232970327368e-01   1.533990000000000e-01 -8.87280150e-01  -6.91837140e-01  -4.97101750e-01
C     4.985099750600000e+00   1.217329702259070e+00   1.351623000000000e-01  6.56733900e-02   2.51878476e+00   6.90621150e-01
C     3.671060656500000e+00   3.747741215404587e+00   3.142941000000000e+00 -1.72548762e+00  -1.35077849e+00   1.07615982e+00
C     4.887435908300000e+00   4.443724194510401e+00   3.301245600000000e+00 -1.10702538e+00   6.85796630e-01  -1.02665310e-01
C     6.194795690500000e+00   5.346485375086856e-01   1.124628000000000e-01  1.58275240e+00  -2.49414720e-01  -9.52888950e-01
C     7.441549996699999e+00   1.298068522660510e+00   1.355190000000000e-02 -2.10341700e-02  -2.33213252e+00   7.46020450e-01
C     6.112262757700000e+00   3.738130729889556e+00   3.388137600000000e+00 -2.37568775e+00  -1.84604976e+00   5.29620140e-01
C     7.290600791700000e+00   4.396529766708279e+00   3.506410800000000e+00  2.52178449e+00   1.38770608e+00   2.02077930e-01
C     8.671822918500000e+00   5.997236532559272e-01  -1.086900000000668e-03  1.75713147e+00  -2.10146461e+00  -5.63459100e-02
C     9.968680568200000e+00   1.289296482584510e+00  -5.372399999998834e-03 -2.40407532e+00   4.16222000e-01  -1.14604386e+00
C     8.529869780300000e+00   3.717436779551695e+00   3.479249400000000e+00  1.45290272e+00  -1.47688095e+00  -4.19507660e-01
C     9.779151598900000e+00   4.396003934442922e+00   3.306612600000000e+00 -5.69175210e-01   1.61649688e+00   1.00407733e+00
C     2.543815367700000e+00   2.628729850592446e+00  -9.082049999999953e-02 -1.04572091e+00   1.65534532e+00   3.26367340e-01
C     3.754812926200000e+00   3.390441777477955e+00   3.402000000000000e-02  1.62539600e-01  -2.08178969e+00   2.44747160e-01
C     1.229599784530000e+01   5.875825892900965e+00   3.196740000000000e+00 -1.01545962e+00   3.01986510e-01  -2.62409150e-01
C     1.353701634300000e+01   6.643640309016111e+00   3.130896000000000e+00 -1.70917893e+00  -2.85724491e+00   1.04212212e+00
C     4.967197441600000e+00   2.697075492743632e+00   2.311452000000000e-01  1.55285834e+00  -1.53748647e+00  -1.04212210e+00
C     6.228844834099999e+00   3.391636299654003e+00   2.789190000000000e-01  1.29980470e-01   2.51318740e-01   6.13910100e-02
C     4.837308112000000e+00   5.877043641185517e+00   3.335472900000000e+00  1.84105230e+00  -2.20660860e-01  -9.04506600e-01
C     6.098057209200000e+00   6.535345333284768e+00   3.373134300000000e+00 -3.03007730e-01   1.86651846e+00   8.95203110e-01
C     7.501004169800000e+00   2.670080948132998e+00   1.463847000000000e-01 -2.79510275e+00   1.97377733e+00   6.82480900e-02
C     8.681225562399998e+00   3.420298256841066e+00   6.317430000000000e-02  5.40250520e-01   3.54714990e-01   5.80150700e-02
C     7.310195076699999e+00   5.810372328209249e+00   3.556972200000000e+00 -2.78573790e-01   1.58963226e+00  -1.36046861e+00
C     8.516644759500000e+00   6.562803802334781e+00   3.454339200000000e+00  2.68656735e+00  -1.49735155e+00  -3.38358500e-02
C     9.914144957500000e+00   2.764787198756783e+00  -1.270170000000022e-01 -6.15121200e-02  -3.71085532e+00   1.34590643e+00
C     1.113698442530000e+01   3.371751164388807e+00  -7.439369999999812e-02  2.32311830e+00   2.31270696e+00  -3.97269540e-01
C     9.773696307400000e+00   5.836038117399090e+00   3.340765800000000e+00  7.43607450e-01   6.21972500e-01   3.15371520e-01
C     1.105351316560000e+01   6.604350101654905e+00   3.309373200000000e+00 -1.50411523e+00  -3.06199080e+00  -9.16413870e-01
C     3.776147994200000e+00   4.764245260398623e+00  -1.608269999999834e-02  2.66366650e-01   2.35213235e+00   2.82050590e-01
C     4.968987426000000e+00   5.535235761461806e+00   1.566936000000000e-01  2.01398262e+00  -1.19478260e-01   1.17593310e-01
C     1.351263941570000e+01   8.029431623359546e+00   3.200210700000000e+00 -1.82148605e+00   1.42466879e+00   7.87385120e-01
C     9.757152312000001e+00   2.108720592650672e-01   3.430102500000000e+00  3.47658461e+00  -1.92682109e+00  -1.01556183e+00
C     6.239881871600000e+00   4.842315213074539e+00   3.553368000000000e-01 -2.23183006e+00  -1.70000797e+00  -1.55681859e+00
C     7.443005135499999e+00   5.521877760417418e+00   2.412069000000000e-01  5.05959210e-01   1.20847705e+00   3.29859370e-01
C     6.122170480099999e+00   8.009779773860664e+00   3.343979700000000e+00  5.64095000e-03  -9.87174690e-01   5.86591550e-01
C     2.492848337500000e+00   1.324462860224504e-01   3.329745300000000e+00 -3.33109519e+00   1.78387632e+00   1.05957080e-01
C     8.674010704600001e+00   4.830855177889540e+00   1.757469000000000e-01  8.25799450e-01   3.90036270e-01  -1.01396756e+00
C     9.912302074199999e+00   5.572973576717748e+00  -2.853479999999919e-02  1.56092360e-01  -4.01525368e+00   1.01174373e+00
C     8.646283990200001e+00   7.974836179004095e+00   3.378906300000000e+00 -3.67239244e+00  -5.21231460e-01   1.53704540e-01
C     4.871723209500000e+00   1.685294118275768e-01   3.341490300000000e+00  7.06193820e-01   9.06803800e-02  -5.62740260e-01
C     1.117145227380000e+01   4.848018930514760e+00  -1.765619999999757e-02 -1.00201542e+00  -2.31533315e+00  -1.34350163e+00
C     1.242083298820000e+01   5.459996832320431e+00  -1.249542000000012e-01 -1.23317511e+00   2.76958055e+00   1.02156166e+00
C     1.098522053780000e+01   7.982850211119784e+00   3.226317000000000e+00  2.77215330e+00   1.75192518e+00   9.38822200e-01
C     7.298239037900000e+00   1.926387955772280e-01   3.242724000000000e+00  4.58254790e-01  -1.07451797e+00  -3.07640800e-02
