64
Lattice="9.86 0 0 4.93 8.53901048131456 0 0 0 30 " PBC="1 1 1" Properties=species:S:1:pos:R:3:force:R:3 Energy="-516.73248501"
C     4.953662718199999e+00   7.880414533599608e+00  -9.773579999999882e-02  1.52745557e+00   4.18482200e-02   6.99272100e-02
C     1.288410390500000e+00   4.367217136922640e-02  -1.066098000000011e-01 -8.96020640e-01   7.23722090e-01   5.43141150e-01
C     9.796383723700000e+00   6.620432303212728e-01   3.498576000000000e+00  1.70240049e+00   5.48405050e-01  -1.69464050e-01
C     1.205725761600000e+00   1.390749832339067e+00   3.473580900000000e+00 -1.05273164e+00  -3.63282580e-01   3.66833630e-01
C     7.446533339299999e+00   7.881494462255013e+00  -4.400189999999782e-02 -1.01470360e+00  -1.06613449e+00  -2.52856230e-01
C     3.719580385400000e+00   4.513037818889600e-02  -4.691309999999760e-02  1.08646943e+00   3.16900770e-01   3.15483400e-02
C     2.441741295300000e+00   6.621072728998727e-01   3.467017800000000e+00 -7.34250490e-01   7.00217220e-01  -4.82093140e-01
C     3.674666310600000e+00   1.364795509985107e+00   3.402042900000000e+00 -1.76790540e-01   3.65840640e-01   5.10974180e-01
C     9.880699196599998e+00   7.874787667253707e+00  -4.311780000000098e-02  9.32877010e-01  -7.43778890e-01   1.16806870e-01
C     6.194829658200001e+00   3.190823280124480e-02  -4.899569999999898e-02 -2.22199530e-01   2.04487100e-01   5.33379800e-02
C     4.914553324000000e+00   6.676879431990768e-01   3.404738100000000e+00 -8.70888950e-01   3.65503800e-02  -1.30741160e-01
C     6.130411665300000e+00   1.390805421297292e+00   3.431505300000000e+00 -4.14213850e-01  -2.64674630e-01   4.37438000e-02
C     1.236458962550000e+01   7.870935634236075e+00  -4.846889999999959e-02 -3.01514190e-01   2.36041510e-01  -2.63886300e-01
C     8.660729629699999e+00   5.496552506965520e-02  -1.326600000000013e-01  6.05489900e-02  -8.83407300e-01   3.88087840e-01
C     7.338131809100000e+00   6.578109551669655e-01   3.464973300000000e+00  3.66153430e-01   1.13888976e+00  -3.11142810e-01
C     8.571104349599999e+00   1.381816661135310e+00   3.483230700000000e+00  4.36314150e-01  -1.47983551e+00   3.43143950e-01
C     1.289502336200000e+00   1.482467514684957e+00  -5.108940000000217e-02 -1.73636140e-01  -7.13963190e-01  -8.61721370e-01
C     2.530976365900000e+00   2.200483958702629e+00  -5.853749999999991e-02 -1.17290045e+00  -1.07542925e+00   3.49873590e-01
C     1.104684297420000e+01   2.821857760689968e+00   3.495994500000000e+00  1.22174590e-01  -6.58980560e-01  -1.55742610e-01
C     2.430101959700000e+00   3.499721386507746e+00   3.417705300000000e+00 -5.36337620e-01   5.91128930e-01   1.52624160e-01
C     3.739736246700000e+00   1.464072351358417e+00  -5.066970000000026e-02  4.70032670e-01   5.55628020e-01   5.84645700e-02
C     4.982096197400001e+00   2.175976742454715e+00  -3.491400000000056e-02 -5.34420420e-01  -2.92414800e-02   9.02375000e-02
C     3.648729728500000e+00   2.794223388024068e+00   3.430484700000000e+00  7.15905500e-02  -1.82720880e-01  -2.35231140e-01
C     4.851384149399999e+00   3.532684614053795e+00   3.443810700000000e+00  1.72481104e+00  -5.82486140e-01  -3.41028440e-01
C     6.191800567600000e+00   1.448005434629354e+00  -3.518610000000066e-02  1.27253496e+00   9.07037120e-01  -1.93981420e-01
C     7.451723791199999e+00   2.182077011541627e+00  -5.502899999999755e-02 -8.91881190e-01  -2.57454080e-01  -2.08378670e-01
C     6.106669376899999e+00   2.813468780624102e+00   3.441548100000000e+00 -2.45160340e-01  -3.25412180e-01   2.57832550e-01
C     7.344919580999999e+00   3.483863675535443e+00   3.497426700000000e+00  3.52952950e-01   7.83584690e-01  -3.35840600e-01
C     8.683144515600000e+00   1.459894982041496e+00  -1.433490000000006e-01 -1.05555720e+00   5.34264700e-01   4.09072250e-01
C     9.892971445600001e+00   2.164373764234282e+00  -1.175750999999998e-01  1.23056002e+00   6.99911660e-01   2.90401870e-01
C     8.599880069399999e+00   2.767716847862366e+00   3.532997100000000e+00 -9.37774590e-01   2.10601767e+00  -5.38724100e-02
C     9.811224995700000e+00   3.534663529732535e+00   3.554791500000000e+00  1.22522210e-01  -1.39889019e+00  -6.52944090e-01
C     2.491117365200000e+00   3.597644282379347e+00  -1.638479999999731e-02  9.18087500e-01   1.05298669e+00  -3.36150640e-01
C     3.739372807100000e+00   4.306920536830111e+00   2.763510000000000e-02 -3.36554070e-01   6.86970750e-01  -4.06035210e-01
C     1.228548466960000e+01   4.928136708683988e+00   3.375781200000000e+00 -1.49952840e-01  -3.63285430e-01   3.13729070e-01
C     3.641553127499999e+00   5.640903881399186e+00   3.388654200000000e+00  9.30237620e-01   1.40733994e+00   1.47265900e-01
C     4.975725700700000e+00   3.609996217208982e+00  -6.014700000001483e-03 -6.66584330e-01  -8.40130740e-01   1.03838140e-01
C     6.183395361300000e+00   4.316801538197148e+00  -9.624299999998698e-03  1.06703392e+00  -1.73596890e-01   1.16874370e-01
C     4.900348613600000e+00   4.945856350891456e+00   3.412896300000000e+00 -8.08577730e-01   2.67858490e-01   1.25433960e-01
C     6.148812298699999e+00   5.649265963582041e+00   3.429850500000000e+00 -1.33137002e+00   3.77066680e-01  -1.99002540e-01
C     7.426040118099999e+00   3.611100823604674e+00  -2.373000000000047e-02  6.47472440e-01  -8.65978800e-02  -1.00023940e-01
C     8.676042899900001e+00   4.340088444457365e+00  -3.686549999999755e-02 -5.97744160e-01  -1.54911668e+00  -1.07371120e-01
C     7.341912330300000e+00   4.920580111359713e+00   3.442615500000000e+00  1.06808290e+00  -5.50254440e-01   5.82270580e-01
C     8.584192267099999e+00   5.616435859209375e+00   3.483949800000000e+00 -8.61164930e-01   2.03356122e+00  -3.85560280e-01
C     9.898203555999999e+00   3.590847913158106e+00  -8.292570000000055e-02 -3.32770260e-01   7.36199320e-01  -7.14770500e-02
C     1.112440898130000e+01   4.320247541266457e+00  -8.946359999999842e-02  3.18927950e-01  -1.09514680e+00   6.13057620e-01
C     9.801594881600000e+00   4.939914907399472e+00   3.468556800000000e+00  7.94124180e-01  -3.01948580e-01   2.94274380e-01
C     1.104850694780000e+01   5.629679949853959e+00   3.407832600000000e+00  1.40147680e-01   5.35623040e-01   1.22736400e-01
C     3.750873806900000e+00   5.741889634939858e+00  -4.412399999999650e-03 -2.98657600e-02   6.35119200e-02   1.94045850e-01
C     5.007863779100000e+00   6.461194530248859e+00  -6.040500000001003e-03 -2.03035784e+00  -2.94467740e-01  -3.84762940e-01
C     1.351141805750000e+01   7.100397188387703e+00   3.436521600000000e+00  3.36859160e-01  -1.67799335e+00  -1.71964840e-01
C     4.904739616700000e+00   7.781132056479382e+00   3.477423900000000e+00 -1.11400518e+00   3.99364440e-01  -3.21561300e-01
C     6.205562416099999e+00   5.727118683831344e+00  -7.937999999999334e-03  8.12512020e-01   8.57664780e-01  -1.03664300e-02
C     7.446635488900000e+00   6.446322818816681e+00  -3.274560000000193e-02 -2.88587050e-01   2.68714850e-01   1.63905160e-01
C     6.134611729500000e+00   7.090300491615942e+00   3.424685400000000e+00 -9.86398290e-01  -1.45369483e+00   3.69214980e-01
C     7.325040982899999e+00   7.787478419848327e+00   3.445935900000000e+00  1.93683458e+00   1.98058440e-01   4.89229700e-02
C     8.675470822699999e+00   5.746439902844442e+00  -2.074950000000086e-02  4.71212230e-01   2.35333900e-02  -1.29722190e-01
C     9.926546766900000e+00   6.435207930435284e+00  -3.073470000000000e-02 -1.17971020e+00   9.85309550e-01  -1.13870770e-01
C     8.564283891799999e+00   7.075902780655509e+00   3.454253700000000e+00  5.68447450e-01  -7.09577830e-01  -3.11201200e-01
C     9.804243869200000e+00   7.793628642146547e+00   3.391256100000000e+00  9.75601670e-01  -1.33173952e+00   5.83864880e-01
C     1.114558835990000e+01   5.725283821259403e+00  -4.338180000000236e-02 -2.59360610e-01   6.50733140e-01  -9.38848000e-03
C     1.235878647320000e+01   6.458357273236669e+00  -2.221199999999968e-02  1.21743247e+00  -6.69284570e-01  -7.38959600e-02
C     1.107217301840000e+01   7.048419292304790e+00   3.421944900000000e+00 -1.74812318e+00   7.65099300e-01  -4.24382240e-01
C     1.227599165880000e+01   7.792816411469690e+00   3.417859500000000e+00  3.25245370e-01  -6.30195100e-01   2.84262530e-01
