72
Lattice="7.395 0 0 3.6975 6.40425786098592 0 0 0 13.6 " PBC="1 1 1" Properties=species:S:1:pos:R:3:force:R:3 Energy="-580.85917853"
C     3.653596291725000e+00   6.242718845059297e+00   1.352341799200000e+01  1.35955365e+00  -6.33033980e-01   2.40210760e-01
C     1.179449071125000e+00   5.669997528261067e-01   1.354298893600000e+01  1.10437182e+00  -9.36321940e-01   2.07240500e-02
C     1.369091701575000e+00   9.433700459785602e-01   3.512479480000000e+00 -3.96290570e-01   1.31224297e+00  -4.63638800e-02
C     2.593574806725000e+00   1.667533296690261e+00   3.503931744000000e+00  9.39742340e-01  -3.57208760e-01   1.49696380e-01
C     6.098243859000000e+00   6.224899189691583e+00   1.357936744000000e+01  2.22020713e+00   4.82935980e-01  -3.58284600e-01
C     3.686167975950000e+00   5.509962169023312e-01   1.351764656000000e+01 -6.01961060e-01  -3.46505400e-01   5.97531690e-01
C     3.848385435450000e+00   9.730134983777209e-01   3.559623200000000e+00 -3.98445830e-01  -7.32593070e-01  -7.13693000e-02
C     5.086547256975000e+00   1.721631984111039e+00   3.596081944000000e+00 -1.00493456e+00  -1.37641729e+00  -2.30371980e-01
C     8.643619312875000e+00   6.246435235895455e+00   1.355882355200000e+01 -7.35476030e-01  -8.34129790e-01  -2.60622860e-01
C     6.193967549100000e+00   5.860250737785444e-01   7.564184000000000e-03 -2.96008348e+00  -6.56821300e-01  -3.67624530e-01
C     6.276960044175000e+00   9.935753288759299e-01   3.573256928000000e+00  1.74275477e+00  -1.30447910e+00  -7.19486500e-02
C     7.543880281200000e+00   1.690863687861348e+00   3.502733040000000e+00 -1.59339684e+00  -2.17178810e-01   2.31442130e-01
C     1.217429051625000e+00   1.991502927350937e+00   1.353603348800000e+01 -7.37378900e-01  -1.68420128e+00   2.48247840e-01
C     2.446450431300000e+00   2.666850042737681e+00   1.345822938400000e+01 -1.46508680e-01  -1.42472190e-01   2.33308030e-01
C     2.608474104825000e+00   3.099716072985332e+00   3.513676688000000e+00 -2.29589820e-01  -1.48871576e+00  -1.77517700e-02
C     3.832650465375000e+00   3.770340496498376e+00   3.591227696000000e+00  4.96563420e-01   1.98807395e+00  -7.37296200e-02
C     3.660253788375000e+00   2.003883766731046e+00   1.351428912800000e+01  2.42278269e+00  -1.94172209e+00   3.09624090e-01
C     4.926251018475000e+00   2.730627805275170e+00   5.671145600000000e-02 -1.33359182e+00  -2.02538039e+00  -3.42455710e-01
C     5.094359298000000e+00   3.119569976819696e+00   3.607498872000000e+00 -8.22667080e-01   5.66030200e-01  -1.60114790e-01
C     6.301066265175001e+00   3.880626555998393e+00   3.577525016000000e+00 -6.82539330e-01  -2.85475911e+00  -2.84518750e-01
C     6.172525524749999e+00   2.022596303729602e+00   9.101364799999999e-02 -2.46962639e+00  -2.51687934e+00  -1.30026750e-01
C     7.367063169000000e+00   2.645896079530704e+00   8.465483200000000e-02  2.20197035e+00   2.47663559e+00  -5.37105810e-01
C     7.490441016224999e+00   3.126824784166083e+00   3.484016175999999e+00  2.59787195e+00  -5.09420490e-01   2.93390790e-01
C     8.788810080674999e+00   3.790344324009243e+00   3.484526176000000e+00 -1.95257929e+00   6.12108200e-01   2.83352630e-01
C     2.475387916725000e+00   4.050784741379977e+00   1.343034231200000e+01 -1.22832598e+00   1.85844191e+00   4.19291780e-01
C     3.675729822525000e+00   4.781108888152998e+00   1.348179179200000e+01 -7.15503860e-01   2.07325432e+00   4.07685680e-01
C     3.810219655575000e+00   5.215074977773261e+00   3.604199240000000e+00  5.37448400e-02   3.22871210e-01  -2.45138480e-01
C     5.049805680150000e+00   5.944872630507612e+00   3.568598247999999e+00 -9.04508590e-01  -2.09175380e-01  -1.72415000e-02
C     4.878865300499999e+00   4.118449632268172e+00   6.326148799999999e-02  1.83076928e+00  -1.49775770e-01  -5.10778000e-01
C     6.141786987074999e+00   4.787083292225434e+00   6.866504000000000e-02 -3.86912450e-01   1.45801040e+00  -4.75775000e-03
C     6.268825396275000e+00   5.254871292285616e+00   3.558602384000000e+00  1.01576795e+00   6.67219090e-01   5.39499600e-02
C     7.526057111025000e+00   5.898546854894094e+00   3.553707064000000e+00 -1.17191240e-01   2.90104023e+00  -1.55793400e-02
C     7.367002788824999e+00   4.061937116017381e+00   7.014050400000001e-02  9.11453560e-01   1.45142623e+00  -6.13699390e-01
C     8.631779659050000e+00   4.754798723884810e+00   1.350445292800000e+01 -7.55267010e-01   2.14607605e+00   5.85766400e-01
C     8.749491383324999e+00   5.205887045191834e+00   3.563680216000000e+00  4.96843550e-01   7.17369900e-02  -2.42764960e-01
C     9.965132619749999e+00   5.939274028286399e+00   3.589108952000000e+00  7.20280730e-01   6.10160750e-01  -3.45347500e-02
C     7.391426735999999e+00   1.511175582528612e-01   7.103359287999999e+00  1.19424080e-01   2.87433740e-01  -8.62877620e-01
C     1.214282220300000e+00   8.533604432465112e-01   6.957231912000000e+00  2.15041321e+00   1.17439070e-01  -4.90631200e-01
C     1.087335841875000e+00   4.868877384889518e-01   9.929084056000001e+00  9.34326190e-01  -1.10018230e+00   4.12735550e-01
C     2.324359055250000e+00   1.204683043482719e+00   9.952990000000000e+00  4.24728930e-01  -9.11091760e-01   6.58624400e-02
C     2.491349950275000e+00   1.277760236730978e-01   6.834204951999999e+00 -1.19282807e+00   6.94801500e-01   3.20207000e-01
C     3.694913118075000e+00   8.849067287410352e-01   6.781707728000000e+00  4.10461550e-01  -9.32088000e-03   4.28044500e-01
C     3.576887513025000e+00   4.906306429526502e-01   1.006593582400000e+01  1.45449500e-02  -9.46356100e-02  -2.52389010e-01
C     4.831745876474999e+00   1.193877331323277e+00   1.002213144800000e+01 -2.59312782e+00  -2.19551240e-01  -3.39321440e-01
C     4.922016012899999e+00   1.324064942336136e-01   6.925813872000000e+00 -5.95570760e-01   6.17400150e-01  -1.42056220e-01
C     6.147133239300000e+00   8.185515085852105e-01   7.033012744000000e+00  2.98478830e-01   1.71816077e+00  -5.34921800e-01
C     6.004648597800000e+00   4.755804448539144e-01   1.001178266400000e+01  1.13130414e+00  -9.03012720e-01   1.19782950e-01
C     7.241887634249999e+00   1.120075752468473e+00   9.924102784000000e+00  4.90290080e-01   2.77570898e+00   3.70456010e-01
C     8.655704258849999e+00   2.286188256393241e+00   6.897678192000000e+00 -2.33057730e-01  -2.34187480e-01  -1.59001100e-02
C     2.483156623050000e+00   3.050852674237368e+00   6.809238480000000e+00 -3.53701230e-01  -7.71350560e-01   4.17617600e-01
C     2.327558206200000e+00   2.612112722723104e+00   9.867196711999998e+00  7.03239320e-01  -8.46195800e-02   4.32562030e-01
C     3.573214342575000e+00   3.304262817542287e+00   9.841304623999999e+00 -7.49159300e-01   8.29552690e-01   4.71307400e-01
C     3.702754295400000e+00   2.356598588583439e+00   6.758560527999999e+00  2.59782490e-01  -2.46217185e+00   2.94005480e-01
C     4.948246484625000e+00   3.004714799549463e+00   6.824878072000000e+00  6.60738160e-01   6.93030620e-01   2.09993230e-01
C     4.789610719425000e+00   2.580653791305790e+00   9.861604935999999e+00  1.18486221e+00   1.67166088e+00   9.77829180e-01
C     6.023842727025000e+00   3.303435259341617e+00   9.958712880000000e+00  7.35144880e-01   1.10540848e+00  -1.19628650e-01
C     6.175816965299999e+00   2.254975312520330e+00   6.935657688000000e+00 -5.30973930e-01   4.58174130e-01  -1.67405600e-01
C     7.415250061275000e+00   2.978247666921127e+00   6.951850120000000e+00  3.36950540e-01  -6.57857160e-01  -4.32143650e-01
C     7.269904959825000e+00   2.561017568196087e+00   9.943784976000000e+00 -7.57525810e-01   1.11884754e+00   1.59662220e-01
C     8.507204857125000e+00   3.308876444904631e+00   9.931215856000000e+00 -8.24916990e-01  -2.78949870e-01   4.44636960e-01
C     9.895050648449999e+00   4.464835830545891e+00   6.961255472000000e+00 -7.43025220e-01  -1.34761008e+00  -3.50350960e-01
C     3.704068756650000e+00   5.159650544932885e+00   7.040765832000000e+00  1.93652104e+00  -7.54050270e-01  -9.13199430e-01
C     3.552918802050000e+00   4.737765703510040e+00   9.904391896000000e+00  6.67038500e-01   4.86693140e-01   3.59924270e-01
C     4.811690081849999e+00   5.468228566508308e+00   9.945127024000000e+00 -9.57141410e-01  -2.55401900e-02   2.23087280e-01
C     4.975620297300000e+00   4.455058193900715e+00   6.875034464000000e+00 -1.78108209e+00  -1.74494065e+00   3.85368200e-01
C     6.198711922274999e+00   5.090547641984805e+00   6.862422368000001e+00  1.67418155e+00   1.73087096e+00   1.07741960e-01
C     6.043072685025001e+00   4.804012179367402e+00   1.001425636800000e+01  3.06508500e-01  -3.17150361e+00  -9.03673000e-02
C     7.296107478449999e+00   5.465891652815194e+00   1.010327312800000e+01 -7.56790610e-01   2.19443470e-01  -2.52669460e-01
C     7.477581554924999e+00   4.383286252446902e+00   6.902389912000000e+00 -3.39141919e+00   1.19516510e-01  -1.54869440e-01
C     8.643694335150000e+00   5.110138843161753e+00   6.959581991999999e+00  7.70418320e-01   1.40398586e+00  -2.12325830e-01
C     8.522955504600001e+00   4.723274404994746e+00   1.005887184800000e+01 -1.54861875e+00   4.42790940e-01  -2.43416220e-01
C     9.696435479624999e+00   5.475015222605129e+00   1.001572176800000e+01  1.85360404e+00  -1.70152013e+00  -8.82326500e-02
