72
Lattice="7.395 0 0 3.6975 6.40425786098592 0 0 0 13.6 " PBC="1 1 1" Properties=species:S:1:pos:R:3:force:R:3 Energy="-574.78400429"
C     3.697132838250000e+00   6.304983025294153e+00   1.350443552000000e+01 -3.12704947e+00  -3.40385823e+00   3.54777030e-01
C     1.126065342600000e+00   5.776999228160160e-01   1.353055092000000e+01  5.53600887e+00  -4.10033600e-02   5.16336100e-02
C     1.327355504775000e+00   9.171683057959423e-01   3.673026664000000e+00  4.98002990e-01  -1.96902850e-01   2.48508840e-01
C     2.595902863650000e+00   1.579231325274002e+00   3.778429520000000e+00 -9.72395680e-01   1.89705720e+00   3.13327280e-01
C     6.065521834425000e+00   6.254668165544799e+00   1.342543339200000e+01  2.93018758e+00  -1.33243320e-01  -4.88710980e-01
C     3.639159883650000e+00   6.184180662047388e-01   1.342516261600000e+01  1.08434425e+00  -2.13425357e+00   9.95260970e-01
C     3.810547697775000e+00   8.907597080844463e-01   3.713888000000000e+00  2.63637220e-01   1.99927727e+00  -9.41155200e-01
C     4.981016650649999e+00   1.675016864127407e+00   3.510385624000000e+00  2.99678487e+00  -1.59476733e+00   1.14271154e+00
C     8.649863909699999e+00   6.218020888664785e+00   1.332032021600000e+01 -1.56119763e+00   3.37301990e+00   1.28065119e+00
C     6.200086430924999e+00   5.876769240083742e-01   1.336989412000000e+01 -3.59527748e+00  -3.89889300e-02  -9.87573800e-02
C     6.298295432625000e+00   9.676644700853131e-01   3.465421848000000e+00 -1.23853665e+00  -1.42637683e+00   3.32349560e-01
C     7.530486679050000e+00   1.706277968019425e+00   3.678909752000000e+00 -1.57440569e+00  -5.42446384e+00  -1.01518270e+00
C     1.210153296000000e+00   1.955990100708244e+00   1.358385217600000e+01  3.26489380e-01   2.72478577e+00  -8.57530000e-02
C     2.466317246700000e+00   2.671669118692173e+00   8.208307199999999e-02 -1.79241702e+00   2.42053202e+00   3.15081440e-01
C     2.641199605050000e+00   3.048661265282834e+00   3.837146568000000e+00 -3.57642194e+00   4.73679680e-01  -1.71944159e+00
C     3.801573273675000e+00   3.800934660976854e+00   3.457348480000000e+00 -2.76755340e-01  -4.36191101e+00   2.52021477e+00
C     3.711808548525000e+00   2.078624530001019e+00   1.291498160000000e-01 -1.70693561e+00  -4.85084512e+00  -2.89890928e+00
C     4.846618663500000e+00   2.698898614176165e+00   1.328493233600000e+01  3.13839798e+00   1.24147645e+00   1.49272937e+00
C     5.016365268300000e+00   3.083480190586396e+00   3.586232959999999e+00  1.85087454e+00  -4.34356000e-02  -1.72542956e+00
C     6.329211930974999e+00   3.738254524193990e+00   3.547578495999999e+00 -4.67486760e+00   3.12494577e+00   3.67359780e-01
C     6.104671629975000e+00   2.009132184132473e+00   1.325617391200000e+01  2.62240723e+00   1.04355120e-01   7.71465570e-01
C     7.434956442150000e+00   2.746230946997538e+00   1.340738075200000e+01 -2.77563742e+00  -1.29859777e+00  -1.69379566e+00
C     7.467733522500000e+00   3.041095659302501e+00   3.736258368000000e+00  2.98367213e+00   2.88340502e+00   6.16868020e-01
C     8.681667697125000e+00   3.798642961344231e+00   3.860258272000000e+00  3.33084314e+00  -8.99612770e-01  -2.35969479e+00
C     2.430833966100000e+00   4.131840551197960e+00   3.901513600000000e-02  1.93946560e+00  -9.24594370e-01   2.12440830e-01
C     3.706128375075000e+00   4.859164879546777e+00   3.765649600000000e-02 -5.44007170e-01  -6.27290300e-01  -1.67781278e+00
C     3.787050824775000e+00   5.133815704683066e+00   3.443525848000000e+00  5.61358450e-01   3.70159766e+00  -4.15174200e-01
C     4.998702495674999e+00   5.878336426024663e+00   3.532393551999999e+00  1.62281689e+00   1.34005513e+00   2.19374760e-01
C     4.929229576574999e+00   4.111305874753078e+00   1.333852232000000e+01 -1.34821671e+00   3.82333530e-01   4.83928390e-01
C     6.167885532000000e+00   4.765005061551135e+00   1.320203965600000e+01 -1.10440880e+00   4.16911897e+00   5.99594960e-01
C     6.291982469024999e+00   5.247855171629671e+00   3.571820360000000e+00 -1.03477018e+00  -3.05362692e+00   3.27058480e-01
C     7.518186353700000e+00   5.925618485421835e+00   3.678620480000000e+00 -4.10759760e-01  -9.67464920e-01  -1.48495816e+00
C     7.430783073899999e+00   4.161922375047637e+00   1.315519921600000e+01 -6.74599090e-01  -2.37937625e+00   2.55684842e+00
C     8.613793244249999e+00   4.823100902472653e+00   1.349022107200000e+01  6.04314390e-01   1.42523077e+00  -1.77984581e+00
C     8.713516926824999e+00   5.196953873988076e+00   3.470066792000000e+00  8.65058070e-01  -1.55284742e+00   2.35964381e+00
C     9.982140343274999e+00   5.831038420025418e+00   3.389136728000000e+00 -1.22158511e+00   4.05148929e+00   5.13201700e-01
C     7.410752570175000e+00   1.090762311476838e-01   6.771791152000000e+00  1.94266590e-01   1.34002890e+00   3.02748410e-01
C     1.260742306125000e+00   8.263308246503311e-01   6.936379576000000e+00 -1.70601230e-01   5.10180950e-01   5.34227000e-02
C     1.128704581125000e+00   5.368219931936863e-01   1.001774245600000e+01 -1.72207210e+00  -7.75541200e-01  -1.07693158e+00
C     2.398619275500000e+00   1.238914698340519e+00   1.015832579200000e+01 -3.22070705e+00  -1.47138170e+00  -6.83691580e-01
C     2.469436235850000e+00   6.085927818810840e-02   7.046206240000000e+00  1.29590789e+00   4.37624426e+00  -6.87847360e-01
C     3.726850718025000e+00   8.445683578434103e-01   7.080393104000001e+00 -1.02418653e+00   3.40816240e-01  -3.07197030e-01
C     3.563731290375000e+00   5.482501351745419e-01   9.958552943999999e+00  2.18644248e+00  -2.49857568e+00   1.15176934e+00
C     4.804245461400000e+00   1.175417250169563e+00   1.005486134400000e+01  8.20222100e-01   1.93617411e+00  -1.68909284e+00
C     4.958961913575000e+00   1.465958319908082e-01   6.882993456000000e+00 -2.18051426e+00  -8.32901780e-01  -1.22458050e-01
C     6.138847326674999e+00   8.131626458089135e-01   6.748430296000000e+00  3.41022865e+00   1.77843348e+00   1.29251699e+00
C     6.064768062075000e+00   4.588939588719487e-01   9.836690279999999e+00 -1.40837685e+00   3.33276899e+00   9.89391350e-01
C     7.227139970624999e+00   1.249059491088809e+00   9.872235920000000e+00  3.21061426e+00  -2.50047793e+00   1.53304007e+00
C     8.687147355150000e+00   2.317929551539602e+00   6.999956719999999e+00 -1.01708400e+00  -3.91121958e+00   5.72064260e-01
C     2.446172379300000e+00   3.036088426252082e+00   7.199161495999999e+00  3.47481849e+00  -9.68167880e-01  -2.09810680e+00
C     2.355360891900000e+00   2.602740987941094e+00   1.024177552800000e+01 -1.10431949e+00   3.68916471e+00  -1.05361979e+00
C     3.580872197850000e+00   3.372763848336683e+00   1.022991116000000e+01 -3.82505800e-01  -6.64873010e-01  -1.37939293e+00
C     3.727334905650000e+00   2.306109853233187e+00   7.148600912000000e+00 -1.07890884e+00  -1.67930558e+00  -2.49965970e-01
C     4.965206288550000e+00   2.974659041029276e+00   7.044049552000000e+00  4.45226720e-01   3.72196340e-01  -5.40938220e-01
C     4.782288338324999e+00   2.638779347983779e+00   1.001456073600000e+01  1.78000110e+00  -8.49796100e-02   1.09353182e+00
C     6.085072254749999e+00   3.355411895920484e+00   9.891930759999999e+00 -3.40107519e+00   1.73568770e-01   9.83256930e-01
C     6.215073026999999e+00   2.230613899876362e+00   6.971892848000000e+00 -1.35851850e+00  -1.00387990e-01  -8.55506260e-01
C     7.449043806224999e+00   2.922622076341368e+00   7.009067768000000e+00 -1.52917829e+00   2.64565628e+00  -6.62815420e-01
C     7.256303003550000e+00   2.630766916932555e+00   9.996250784000001e+00 -3.59684430e-01   2.48643680e-01  -1.14044734e+00
C     8.442266773875000e+00   3.317989191498782e+00   9.972143152000001e+00  4.24401852e+00   1.65510065e+00   1.88705266e+00
C     9.906723951749999e+00   4.401785655743876e+00   6.889582928000000e+00 -1.48810997e+00   1.07921207e+00   1.19278412e+00
C     3.731843711099999e+00   5.108574026796240e+00   6.865146991999999e+00  2.27545580e-01  -2.27819750e-01  -5.53729630e-01
C     3.574297340325000e+00   4.816749607825155e+00   1.003806357600000e+01 -1.12716690e-01  -3.31775925e+00   8.54385200e-02
C     4.739036536275000e+00   5.472186333823210e+00   9.898386680000000e+00  5.73740915e+00   2.44779707e+00   1.02139382e+00
C     4.948759734599999e+00   4.404511564059407e+00   6.911050800000001e+00  1.12633967e+00  -6.12081710e-01   5.59915110e-01
C     6.208560435374999e+00   5.110043483762217e+00   6.934942056000001e+00 -1.54890543e+00  -2.34460960e+00   1.53715630e-01
C     6.064925057925000e+00   4.756848918953532e+00   9.899101904000000e+00 -8.13696840e-01   1.41833749e+00  -1.37290790e-01
C     7.314092820975000e+00   5.512040927082089e+00   9.863460247999999e+00 -2.03996718e+00  -4.77232770e-01   5.98126330e-01
C     7.403780157449999e+00   4.382937284436111e+00   6.992884584000000e+00  2.38749289e+00  -6.36281400e-02  -5.52132070e-01
C     8.673611029500000e+00   5.137198625812454e+00   6.883416280000000e+00 -1.44613191e+00  -1.78134159e+00   2.02544920e-01
C     8.515246180125001e+00   4.788777218429404e+00   9.921742775999999e+00  7.27474540e-01  -9.96242210e-01  -3.04455100e-02
C     9.807736959075001e+00   5.507787731352106e+00   9.905845871999999e+00 -3.91707768e+00  -1.98044824e+00   4.20277660e-01
