72
Lattice="7.395 0 0 3.6975 6.40425786098592 0 0 0 13.6 " PBC="1 1 1" Properties=species:S:1:pos:R:3:force:R:3 Energy="-570.79873838"
C     3.697388631300000e+00   6.387997065037989e+00   1.329911740800000e+01 -1.72193184e+00  -4.11005480e-01   8.60586260e-01
C     1.199708302200000e+00   6.532448047028905e-01   1.326525789600000e+01  1.02830242e+00   7.85774960e-01   1.10400146e+00
C     1.211375874375000e+00   8.101463684420107e-01   3.384915424000000e+00  2.28266036e+00  -2.92741004e+00   1.35494810e+00
C     2.529071993175000e+00   1.415598886524022e+00   3.380223152000000e+00 -1.85288628e+00   2.62332634e+00   7.13557080e-01
C     6.067544773649999e+00   6.340285728236460e+00   1.338918055200000e+01  4.61097921e+00   1.80701420e-01  -3.55490940e-01
C     3.729159474000000e+00   7.164114089127996e-01   1.320365302400000e+01 -1.49844390e+00  -3.47827560e+00   2.67887478e+00
C     3.741060617250000e+00   7.461171747409381e-01   3.553833408000000e+00  4.99842980e-01   2.76187637e+00  -2.89375740e-01
C     4.919245032449999e+00   1.509683646617547e+00   3.581348656000000e+00  2.97985401e+00  -3.38002690e-01   8.58562660e-01
C     8.675328814049999e+00   6.367165166985823e+00   1.329044210400000e+01 -3.48249544e+00  -1.12346861e+00   8.86221020e-01
C     6.139647243825000e+00   6.600556688944219e-01   1.339922252000000e+01  1.26448274e+00   2.49970387e+00   8.99122550e-01
C     6.246901624650000e+00   7.580876292773784e-01   3.603018896000000e+00 -2.52725679e+00   2.02140358e+00   2.22610820e-01
C     7.454951228024999e+00   1.539145474263798e+00   3.466108512000000e+00 -1.89249648e+00  -2.69458583e+00  -1.01818560e-01
C     1.300931986575000e+00   2.059373587044174e+00   1.329603932000000e+01 -4.28565679e+00   2.32187459e+00   8.01071100e-02
C     2.457768589725000e+00   2.759269439617291e+00   1.296182299200000e+01  9.53975530e-01   1.71192394e+00   3.56721713e+00
C     2.548022198325000e+00   2.861635481507002e+00   3.475455656000000e+00 -1.85680248e+00   8.44177500e-01  -5.17823480e-01
C     3.786202914075000e+00   3.636353687595229e+00   3.564854848000000e+00 -4.57143922e+00  -1.40786466e+00   9.33767550e-01
C     3.706922561100000e+00   2.088812487447286e+00   1.334334025600000e+01 -1.35017111e+00   5.41754680e-01  -3.21011108e+00
C     4.904035994775000e+00   2.797735205516652e+00   1.344645940000000e+01 -2.98190620e-01   1.11144763e+00   2.06257747e+00
C     4.944652847400000e+00   2.974516354164155e+00   3.738603280000000e+00  2.55572073e+00  -4.02381412e+00  -2.63508460e+00
C     6.199960383150000e+00   3.580552172052055e+00   3.538021096000000e+00  4.16241450e-01   3.89594291e+00   4.20159550e-01
C     6.051147507374999e+00   2.109575667812613e+00   1.391897440000000e-01  5.14465400e+00  -1.21189452e+00  -2.57207227e+00
C     7.405297093799999e+00   2.881059403468647e+00   5.462236000000000e-02  2.01982670e-01  -4.72596775e+00  -1.44115836e+00
C     7.439558868300000e+00   2.904583651525156e+00   3.393596168000000e+00 -2.92069151e+00   6.31301830e-01   8.64039120e-01
C     8.579714422049999e+00   3.605088933276230e+00   3.470312815999999e+00  6.11118026e+00   1.61410954e+00  -8.04584570e-01
C     9.802888797074999e+00   4.213706371550076e+00   1.308404496800000e+01  2.47488194e+00  -9.80663500e-02   1.66453513e+00
C     3.698808878025000e+00   4.997368379910107e+00   1.329288493600000e+01 -2.85825280e-01  -3.50418383e+00  -1.61424000e-02
C     3.689945933550000e+00   5.002414742976050e+00   3.692813984000000e+00  1.39453290e-01   1.70613213e+00  -3.68432800e-01
C     4.829136070050000e+00   5.753056525895079e+00   3.617758032000000e+00  6.03805616e+00   1.43869611e+00  -1.13312302e+00
C     4.941864821475000e+00   4.213181734746184e+00   1.358055227200000e+01 -1.93603384e+00   1.85128090e+00  -1.44647373e+00
C     6.152660927850000e+00   4.939705402777346e+00   8.553801599999999e-02  1.62647880e-01   7.15525640e-01  -1.67841868e+00
C     6.230808995399999e+00   5.075578777960891e+00   3.543478776000000e+00 -2.86492501e+00  -1.37392502e+00   7.94244630e-01
C     7.469659217475000e+00   5.802471843585417e+00   3.640574752000000e+00 -1.73448922e+00  -3.77168688e+00  -2.08556444e+00
C     7.445368676099999e+00   4.249967984021760e+00   1.355553031200000e+01 -3.94608423e+00  -4.77233820e-01   1.40040069e+00
C     8.610092638350000e+00   4.890745235693117e+00   1.338454118400000e+01  3.06631833e+00   3.28143776e+00  -1.98468698e+00
C     8.642914569375000e+00   5.057733505561737e+00   3.466344336000000e+00  1.15385701e+00  -7.19854550e-01   2.49478734e+00
C     9.905516865899999e+00   5.749968648925301e+00   3.721155840000000e+00 -1.88746323e+00  -2.97160090e-01  -2.04286139e+00
C     7.370401567799999e+00   3.913180871680080e-02   7.343401736000001e+00  2.40272039e+00   1.88073110e-01  -3.30857844e+00
C     1.296345089925000e+00   7.597750871809098e-01   6.930990712000000e+00 -2.39370695e+00  -9.20277190e-01   1.62297340e-01
C     1.265194539825000e+00   6.392706500097919e-01   1.020227528000000e+01 -4.16066675e+00   5.02951330e-01  -7.42239250e-01
C     2.447644686825000e+00   1.336693562452849e+00   1.026251253600000e+01 -4.71640740e-01   1.77059554e+00  -1.46908920e+00
C     2.480774138925000e+00   4.516711728148620e-02   6.657949496000000e+00 -3.55024740e-01  -1.72952969e+00   2.60964010e-01
C     3.688502762325000e+00   7.556215417032283e-01   6.461015103999999e+00  4.54324530e-01   3.64020970e-01   1.77448488e+00
C     3.634152766125000e+00   6.231173184946711e-01   1.040679303200000e+01  1.40661171e+00   3.87623656e+00   9.74455030e-01
C     4.864270010850000e+00   1.375887940768942e+00   1.048426733600000e+01  1.83722740e+00   7.28677120e-01  -4.18751949e+00
C     4.883132141549999e+00   5.382804348361441e-02   6.892684135999999e+00  9.95476780e-01   4.03010140e-01  -1.21604686e+00
C     6.134503429725000e+00   7.229434317171066e-01   7.071080911999999e+00  7.68504400e-02   9.00640040e-01   5.69431760e-01
C     6.112796738325000e+00   6.504430059317191e-01   1.030657939200000e+01 -4.45475620e-01  -1.51822260e-01   9.59520960e-01
C     7.286686137525000e+00   1.422948156673844e+00   1.008935815200000e+01  2.72622393e+00  -5.06552545e+00   1.33063852e+00
C     8.648122978800000e+00   2.171156129478336e+00   6.742000624000000e+00  1.23111752e+00  -8.20509210e-01   1.59961335e+00
C     2.487430193550000e+00   2.912304368630857e+00   6.686898320000000e+00 -3.22633200e-01  -4.38721000e-03  -1.36820124e+00
C     2.416982872275000e+00   2.789286324292268e+00   1.002204508800000e+01  8.45246290e-01  -9.86055140e-01   7.28505350e-01
C     3.620270687250000e+00   3.555358077801130e+00   9.963763647999999e+00  2.15677165e+00  -3.92375564e+00   4.54372720e-01
C     3.660044251050000e+00   2.184845999165029e+00   6.387247343999999e+00  2.90324384e+00   1.15600847e+00   2.75636046e+00
C     4.995716320725000e+00   2.946484084957413e+00   6.628231727999999e+00 -2.12863006e+00  -4.91846908e+00   7.57885300e-01
C     4.951188733275000e+00   2.799163995445217e+00   9.983885800000001e+00 -3.79707654e+00  -9.96419830e-01   2.54607847e+00
C     6.150468421274999e+00   3.494454161935737e+00   1.012165706400000e+01 -1.22244057e+00   1.74295707e+00   1.03071997e+00
C     6.176763192525000e+00   2.155341519161431e+00   6.986804431999999e+00 -4.00142280e-01   1.94933430e-01  -1.89340350e+00
C     7.438334736975000e+00   2.805060395656919e+00   6.939506488000000e+00 -1.52798629e+00   3.18089659e+00  -5.23433300e-01
C     7.309177031699999e+00   2.761227029117357e+00   1.018946965600000e+01  2.77480977e+00   2.11486710e+00  -8.89418060e-01
C     8.593825930800000e+00   3.453044550825870e+00   1.010885402400000e+01 -1.24523738e+00   2.53800169e+00   1.92044980e+00
C     2.514426306600000e+00   4.342771828500706e+00   6.882562880000000e+00 -1.06474100e+00  -2.28525710e-01   1.10385391e+00
C     3.734101182750000e+00   5.019366045020528e+00   7.149601328000000e+00  1.82132680e-01  -9.89811700e-02  -1.88455732e+00
C     3.615798856800000e+00   4.900087767059286e+00   1.013314144800000e+01  3.73457302e+00   1.31778131e+00  -6.48974140e-01
C     4.913669350349999e+00   5.623103374762474e+00   1.015295760000000e+01 -5.39210780e-01  -3.48299600e-02   1.25237798e+00
C     4.978576855275000e+00   4.289411872224078e+00   6.820302896000000e+00 -1.24430823e+00   2.53621997e+00   5.15550590e-01
C     6.205922564925000e+00   4.957249034631293e+00   6.692272224000000e+00 -5.36085960e-01   2.93851162e+00   1.53225844e+00
C     6.123193479750000e+00   4.921526148330792e+00   1.038102892000000e+01  7.62485200e-01   6.31660370e-01  -1.08296561e+00
C     7.342187091525000e+00   5.717427141759333e+00   1.064402980000000e+01  7.19327290e-01  -6.76736383e+00  -2.37754165e+00
C     7.402158396974999e+00   4.282475420535913e+00   6.821872608000000e+00  2.04409790e+00  -1.07208617e+00  -1.15491620e-01
C     8.638790673675000e+00   5.056344293946746e+00   6.918320000000000e+00 -4.68314650e-01  -2.00225922e+00  -4.01025720e-01
C     8.636713676999999e+00   4.911676399742112e+00   1.045826427200000e+01 -2.35249919e+00  -1.05870045e+00  -9.81684390e-01
C     9.863966542425000e+00   5.566637097253432e+00   1.037251708800000e+01 -2.69722174e+00   3.75494943e+00  -3.58614490e-01
