72
Lattice="7.395 0 0 3.6975 6.40425786098592 0 0 0 13.6 " PBC="1 1 1" Properties=species:S:1:pos:R:3:force:R:3 Energy="-574.50185794"
C     3.715319620574999e+00   6.134419002091981e+00   1.146023040000000e-01 -1.42075437e+00   3.70920097e+00  -8.99042400e-01
C     1.226489368650000e+00   5.023014422638212e-01   1.357042584800000e+01 -2.66134400e-01   2.73712710e-01   1.07086700e+00
C     1.442381032275000e+00   9.853456013555154e-01   3.288740032000000e+00 -2.21517009e+00   1.08829504e+00   8.93682150e-01
C     2.599720939125000e+00   1.814712492529537e+00   3.091291968000000e+00  1.24149315e+00  -3.35059553e+00   7.71340720e-01
C     6.148492144500000e+00   6.206466070463459e+00   1.998704960000000e-01 -1.27599033e+00  -7.15953040e-01  -1.68323870e-01
C     3.624815136600000e+00   5.588972779093704e-01   2.158616480000000e-01  2.97435511e+00  -9.40769050e-01  -1.29900740e+00
C     3.843954129600000e+00   1.057607724705933e+00   3.268515744000000e+00 -7.11873200e-02  -1.59987575e+00   1.40509824e+00
C     5.077031333999999e+00   1.728973633194007e+00   3.584310056000000e+00 -9.15700630e-01  -5.36474780e-01  -2.03770612e+00
C     8.632403797049999e+00   6.241601622275621e+00   3.021291680000000e-01 -1.75310498e+00  -1.63189665e+00  -1.18610525e+00
C     6.146757092625000e+00   5.379012387282534e-01   2.207520720000000e-01  1.16112201e+00  -3.22780443e+00   3.31473300e-02
C     6.298662964125000e+00   1.004989381489493e+00   3.699929096000000e+00  4.24430690e-01   1.85102187e+00  -7.61547840e-01
C     7.527802441950000e+00   1.672648697655936e+00   3.424932608000000e+00  2.22706130e+00   2.18122461e+00  -3.58451960e-01
C     1.195715556825000e+00   1.999492623286759e+00   1.351215243200000e+01  5.49476460e-01  -3.40825860e+00  -1.49511800e-01
C     2.390905772850000e+00   2.687298581914347e+00   1.333603855200000e+01  2.95250331e+00  -1.15273387e+00   1.02313441e+00
C     2.610284474775000e+00   3.210431858187754e+00   3.138983360000000e+00  1.89994562e+00  -3.42555560e-01   1.65282568e+00
C     3.860005125000000e+00   3.819718413322812e+00   3.569428664000000e+00 -8.35262560e-01   3.30741098e+00  -1.52873543e+00
C     3.683722375500000e+00   1.935433073403430e+00   1.343392958400000e+01 -5.56785110e-01   6.67342530e-01   2.80425090e+00
C     4.918820781299999e+00   2.632658862789556e+00   2.650629120000000e-01 -8.15947860e-01  -7.30749500e-02  -1.83195234e+00
C     5.077278474900000e+00   3.139600446043262e+00   3.441296536000000e+00  4.68683550e-01  -2.10962100e-02   1.70186489e+00
C     6.288769711275000e+00   3.881408387797942e+00   3.481035600000000e+00  2.07460680e+00  -3.17817573e+00  -3.73125890e-01
C     6.162763718025000e+00   1.900359194594461e+00   3.573692400000000e-01 -5.46978930e-01   1.93433337e+00  -1.00554289e+00
C     7.392937423575000e+00   2.625774349632634e+00   2.053636720000000e-01 -1.63699830e+00   5.04677820e-01   1.57428021e+00
C     7.568664882525000e+00   3.180819466439215e+00   3.293061840000000e+00 -1.56074474e+00  -2.18590172e+00   5.68251690e-01
C     8.806164333900000e+00   3.889268013256626e+00   3.181817512000000e+00 -1.51649943e+00   9.28095080e-01   1.98566131e+00
C     2.477259517275000e+00   4.077605901382814e+00   1.350935559200000e+01 -2.64524549e+00  -9.93884900e-02  -2.86240020e-01
C     3.680774839425000e+00   4.757420947265588e+00   1.356741344800000e+01  1.50851441e+00   3.90894080e-01   1.10550246e+00
C     3.931256689500000e+00   5.328612414946221e+00   3.772146591999999e+00 -2.64544082e+00  -2.09869129e+00  -1.27960252e+00
C     5.177947682175001e+00   5.970942763191206e+00   3.607100664000000e+00 -2.64714125e+00   2.39432985e+00  -7.21185290e-01
C     4.908769571250000e+00   4.080962052714347e+00   2.287396240000000e-01 -8.86753810e-01  -2.11493095e+00  -4.41749460e-01
C     6.085423221450000e+00   4.753366347571842e+00   4.228374640000000e-01  3.17799050e+00   1.38386874e+00  -3.97317900e-02
C     6.328739242574999e+00   5.239279229929345e+00   3.506050624000000e+00  8.67475320e-01   1.02357155e+00  -6.47513390e-01
C     7.525933318724999e+00   5.937310674954259e+00   3.366984640000000e+00  1.99183234e+00   3.38814054e+00   8.33682800e-01
C     7.358532260024999e+00   3.983843211417069e+00   5.496471280000000e-01  1.39883135e+00   3.29185710e+00  -4.24293966e+00
C     8.635974435825000e+00   4.755404502635788e+00   1.155685840000000e-01 -1.95847738e+00   1.42553249e+00   2.67048611e+00
C     8.793184001324999e+00   5.282779254847295e+00   3.539279912000000e+00 -1.18517040e-01   5.19198290e-01  -1.18654771e+00
C     1.000713485167500e+01   6.045392516984021e+00   3.759866336000000e+00  1.28276317e+00  -3.56701541e+00  -7.88423280e-01
C     7.373207526599999e+00   1.640535187042752e-01   6.742020072000000e+00  2.46274189e+00  -1.02163476e+00   6.11122800e-02
C     1.197270244650000e+00   9.047917572685993e-01   6.612069896000000e+00  9.27558260e-01  -1.07294428e+00   4.22598220e-01
C     1.100386759725000e+00   4.334360091971910e-01   1.017149127200000e+01  2.26360260e-01   8.47511180e-01   3.56022750e-01
C     2.270410496625000e+00   1.132205865153363e+00   9.813442031999999e+00  2.43806856e+00   2.59418100e-01   1.38252702e+00
C     2.451925282575000e+00   2.031834701862966e-01   6.734137376000000e+00  1.69933970e-01  -7.87644770e-01   1.25381120e-01
C     3.714323070374999e+00   8.773691734101295e-01   6.742348104000000e+00 -2.12262860e-01  -3.57613850e-01  -3.39354870e-01
C     3.564844200900000e+00   3.876771384894409e-01   9.923252511999999e+00  1.74597940e-01   2.09334565e+00  -6.03152600e-02
C     4.892635566975000e+00   1.145959521248342e+00   1.000909326400000e+01 -5.29590675e+00  -9.48262700e-01   4.98169850e-01
C     4.966401949125000e+00   1.328989176204690e-01   6.854008184000000e+00 -4.03755900e-02   2.62274302e+00  -2.03404860e-01
C     6.239888354550001e+00   8.678543034649489e-01   6.832424168000000e+00 -4.68053918e+00   2.45602089e+00  -1.01769517e+00
C     6.007700958000000e+00   4.726671479534005e-01   1.033070402400000e+01  2.70392360e+00  -2.42422018e+00  -4.25462500e-02
C     7.291729453575000e+00   1.124221804964458e+00   1.042404803200000e+01 -1.07207568e+00   1.45994369e+00  -1.82317528e+00
C     8.601319321275000e+00   2.296483164945770e+00   6.501870320000000e+00 -2.56227520e-01   2.00112994e+00  -1.24241370e-01
C     2.471030339025000e+00   2.987527180389952e+00   6.432677056000000e+00 -1.35329666e+00   8.46215920e-01   2.07343095e+00
C     2.304723444525000e+00   2.609379705681349e+00   9.779642495999999e+00  1.23869763e+00  -2.28140029e+00   8.20397120e-01
C     3.562845517275000e+00   3.265242955252879e+00   9.846739048000000e+00  8.71214960e-01   8.42848230e-01   1.70410121e+00
C     3.683336245575000e+00   2.293588056137578e+00   6.595453280000000e+00  7.87048790e-01  -6.30907750e-01  -4.44500500e-02
C     4.919056607850000e+00   3.003784196839827e+00   6.660359552000000e+00 -9.71681080e-01   7.80582260e-01   3.11797240e-01
C     4.803995658300000e+00   2.522111381483694e+00   1.010142352800000e+01 -1.26042876e+00   1.90865084e+00  -1.07744433e+00
C     5.966697716624999e+00   3.234078427569389e+00   1.031738785600000e+01  3.33082297e+00   2.16254126e+00  -9.07564970e-01
C     6.154369209824999e+00   2.352908903502557e+00   6.646404455999999e+00  1.26246975e+00  -1.61572795e+00   7.98867250e-01
C     7.362098165999999e+00   3.119752113913235e+00   6.558653040000000e+00  6.88809870e-01  -4.04932277e+00   4.80293510e-01
C     7.274897102475000e+00   2.530842370266811e+00   1.026014749600000e+01  9.95673800e-02   1.93184920e+00   5.47984580e-01
C     8.568239711475000e+00   3.326294745432259e+00   1.008016264800000e+01 -3.82296216e+00  -2.29962631e+00  -3.30784100e-01
C     9.827253880050000e+00   4.427157660278152e+00   6.708323896000000e+00  9.36021680e-01  -1.43587221e+00  -1.31552927e+00
C     3.641037622050000e+00   5.130073376602574e+00   6.724684832000000e+00  9.25657590e-01   5.99722230e-01   6.56783760e-01
C     3.560427278325000e+00   4.672166570037167e+00   1.014273325600000e+01 -5.66014710e-01   1.54492376e+00   4.36142230e-01
C     4.809397927650000e+00   5.455831460313235e+00   1.030623177600000e+01 -8.68854890e-01  -2.89849273e+00  -1.29938220e+00
C     4.851467010375000e+00   4.417913178099822e+00   6.762577424000000e+00  3.08574636e+00   8.77332190e-01  -3.24046280e-01
C     6.161425925549999e+00   5.166103731322934e+00   6.843431599999999e+00 -2.69374454e+00   3.80815910e-01  -9.63151930e-01
C     6.013522597800000e+00   4.735102941177009e+00   1.023314660000000e+01  1.78687000e-01  -2.21203713e+00   4.20182600e-01
C     7.267077518550000e+00   5.404917994581706e+00   1.012702484800000e+01 -5.50404760e-01   7.85670800e-02  -2.32359690e-01
C     7.371221192625001e+00   4.482229090425287e+00   6.720319504000000e+00  9.04366640e-01   8.78482550e-01   1.47830340e-01
C     8.651296358174999e+00   5.154877003251776e+00   6.778834864000000e+00 -1.91929923e+00  -4.28439450e-01  -1.34408500e-02
C     8.528849985150000e+00   4.715174555823732e+00   1.010453180800000e+01 -2.43322038e+00   1.82819500e-01   6.11031680e-01
C     9.660397647975000e+00   5.438118499881468e+00   1.023630819200000e+01  4.60343987e+00  -2.02839330e-01  -5.50200860e-01
