72
Lattice="7.395 0 0 3.6975 6.40425786098592 0 0 0 13.6 " PBC="1 1 1" Properties=species:S:1:pos:R:3:force:R:3 Energy="-573.59900764"
C     3.749324344875000e+00   6.348948575715947e+00   1.340749744000000e+01 -5.90385700e-01   1.90544228e+00   5.71295310e-01
C     1.205425524600000e+00   7.962274184516653e-01   1.344302213600000e+01  1.88941968e+00  -3.92126501e+00   3.20171720e-01
C     1.314385821000000e+00   6.916211671625256e-01   3.431119792000000e+00 -1.94784202e+00   3.38961423e+00  -1.47699630e-01
C     2.443332958125000e+00   1.586050771171066e+00   3.427245151999999e+00  1.80516659e+00  -4.76128262e+00  -2.65442670e-01
C     6.108281536200000e+00   6.401149489405070e+00   1.350339756800000e+01  2.51969951e+00   6.10380500e-02  -4.59487320e-01
C     3.691992795600000e+00   7.085444185575757e-01   1.331943472000000e+01  6.07035300e-02  -8.09953400e-02   1.98293922e+00
C     3.659595966150000e+00   7.534245610443552e-01   3.445366336000000e+00  1.58012780e-01  -7.80366330e-01   4.94174080e-01
C     4.929765048525000e+00   1.436116975941047e+00   3.487785144000000e+00 -1.52460147e+00  -3.02719000e-01   1.97603080e-01
C     8.665792998524999e+00   6.400781308620700e+00   1.346555883200000e+01 -1.10323790e+00  -9.00667280e-01  -3.16413280e-01
C     6.285573407399999e+00   7.403612839466844e-01   1.352421794400000e+01 -4.50691128e+00  -3.53011261e+00  -1.13908740e-01
C     6.125783911275001e+00   7.905626602467595e-01   3.494525440000000e+00  3.70642092e+00  -3.84472125e+00   3.31277900e-01
C     7.419630637425000e+00   1.410402727866733e+00   3.407051872000000e+00 -1.15215648e+00   1.23189560e+00   1.75774190e-01
C     8.590455178875001e+00   2.212246808546775e+00   1.346749397600000e+01  5.30314185e+00  -4.60191194e+00  -1.28318879e+00
C     2.439843553425000e+00   2.909222703791204e+00   1.327902028000000e+01  2.39060530e-01  -3.11094989e+00   1.07759470e+00
C     2.490714941625000e+00   2.990980740483536e+00   3.397649648000000e+00 -1.21456959e+00  -2.22590052e+00   1.70299270e-01
C     3.752305084500000e+00   3.569597688982526e+00   3.521390200000000e+00  4.38560560e-01   1.88504046e+00   1.80365370e-01
C     3.661936890375000e+00   2.194562090892171e+00   1.334435182400000e+01  1.94678192e+00  -2.51482071e+00   3.77654640e-01
C     4.934836687424999e+00   2.858531337722261e+00   1.359850073600000e+01 -5.16851630e-01  -1.98416772e+00  -6.36306100e-02
C     5.000036701575000e+00   2.802771770068070e+00   3.610442592000000e+00 -3.33113457e+00   3.68586467e+00  -1.22680090e+00
C     6.142830569475000e+00   3.628705594773660e+00   3.524847456000000e+00  4.13218860e-01  -6.19103654e+00  -3.12260800e-01
C     6.233829039450000e+00   2.127438103622832e+00   1.193817520000000e-01 -6.42429232e+00  -3.60655440e+00  -1.02804323e+00
C     7.395025179975001e+00   2.683658978129930e+00   1.359979436800000e+01 -6.92802550e-01   8.46424543e+00   5.15234610e-01
C     7.313270496974999e+00   2.868158986648355e+00   3.356183384000000e+00  4.70274458e+00   2.70741070e-01   6.21949200e-01
C     8.618544901500000e+00   3.629904920143102e+00   3.363386760000000e+00 -3.38306600e-01  -1.40110160e+00   2.70867570e-01
C     2.497549770375000e+00   4.253121632719760e+00   1.332487621600000e+01 -3.07917581e+00   1.22939605e+00   3.52837640e-01
C     3.711083505750000e+00   4.882877220656636e+00   1.336154902400000e+01 -5.90506080e-01   4.86070014e+00   5.93418280e-01
C     3.762824435025000e+00   5.028428133935006e+00   3.528456080000000e+00 -4.71457990e-01  -3.55078120e-01   2.53671270e-01
C     5.050728391274999e+00   5.688548293706078e+00   3.469895840000000e+00 -5.72009030e+00   2.57850571e+00   1.66287570e-01
C     4.869890728500000e+00   4.252506503752307e+00   4.283782400000000e-02  2.63192343e+00  -1.33555084e+00  -3.56704440e-01
C     6.108953815650000e+00   4.935915491060955e+00   1.033220560000000e-01  1.20181925e+00   8.58451570e-01  -1.12938945e+00
C     6.147712156875000e+00   4.960637911720491e+00   3.466066216000000e+00  3.69613418e+00   1.07817052e+00   2.76636950e-01
C     7.367336414250000e+00   5.621057342461361e+00   3.505586184000000e+00  1.99999337e+00   4.97013492e+00  -6.25710720e-01
C     7.306314464174999e+00   4.092948838108330e+00   3.200216000000000e-03  2.49175228e+00   5.82159070e+00  -1.68805350e-01
C     8.602659332249999e+00   4.885817159269846e+00   1.345488106400000e+01 -7.94323930e-01   2.39116157e+00   2.16013260e-01
C     8.671780471200000e+00   5.002559223033372e+00   3.514215112000000e+00 -1.89673512e+00   1.12254174e+00   5.64358200e-02
C     9.885267728999999e+00   5.748818316128488e+00   3.611689168000000e+00  7.19070800e-01  -3.41427310e-01  -1.32161442e+00
C     3.741884050500000e+00   6.400150809434383e+00   7.115443839999999e+00 -1.95972856e+00   9.24897900e-01  -9.88954780e-01
C     1.237244619675000e+00   6.982500223456758e-01   6.909873040000000e+00  1.02507060e+00   2.02119329e+00  -5.92857610e-01
C     1.190553218250000e+00   6.636718330950708e-01   1.021265711200000e+01  5.23775450e-01   6.47346810e-01  -2.61426150e-01
C     2.460925441275000e+00   1.414440612447463e+00   1.018154194400000e+01 -6.42745520e-01  -2.04521124e+00   2.75889500e-01
C     6.176484659849999e+00   6.390909593427559e+00   6.670982648000000e+00  1.46965600e-02   2.97339649e+00   3.42485790e-01
C     3.794464460174999e+00   6.811062083099274e-01   6.505566800000000e+00 -1.35383993e+00   2.15987300e-01   1.99746586e+00
C     3.714032816625000e+00   6.786679792574682e-01   1.034263979200000e+01 -1.65438664e+00  -1.22352457e+00   5.84520670e-01
C     4.919246215650000e+00   1.391128025113227e+00   1.035629704800000e+01 -1.65241848e+00  -3.27220250e-01  -1.20482245e+00
C     8.705155215449999e+00   6.395778110252732e+00   6.892687808000000e+00 -9.62248230e-01   1.09772082e+00  -1.25417470e+00
C     6.203115238050000e+00   7.460741381281188e-01   7.033553752000000e+00  3.68239870e-01   5.66313460e-01  -4.80431730e-01
C     6.118997371874999e+00   7.325973381004278e-01   1.027987579200000e+01  1.72524949e+00  -4.69587380e-01   2.51351470e-01
C     7.362079974299999e+00   1.361417904389743e+00   1.016207068800000e+01  1.63751335e+00   2.83695438e+00  -6.28260700e-02
C     8.607445598100000e+00   2.198196315099985e+00   6.854661528000000e+00 -3.36821500e-02  -1.66355244e+00  -5.10376760e-01
C     2.482765760325000e+00   2.821714540136692e+00   6.703984407999999e+00  1.17035870e-01  -2.38114320e-01  -3.06610550e-01
C     2.448572167725000e+00   2.821637945212687e+00   1.007430485600000e+01  2.53194040e-01  -1.10477240e-01   6.59340790e-01
C     3.721922874900000e+00   3.443890816981415e+00   1.005172980800000e+01 -3.28346781e+00   3.64408391e+00   1.64777930e-01
C     3.778496177850000e+00   2.133538671575111e+00   6.492830808000000e+00 -4.25692392e+00  -2.24905306e+00   1.24549688e+00
C     4.905693842850000e+00   2.829451203844465e+00   6.681710872000000e+00  2.75370795e+00   3.00720948e+00   1.05312553e+00
C     4.889646507975000e+00   2.736219618983050e+00   1.010535379200000e+01  2.68945878e+00   3.07346601e+00   3.61960380e-01
C     6.142587347925000e+00   3.517044925366573e+00   1.011624263200000e+01  4.33109010e-01   3.03058130e-01   7.54189420e-01
C     6.166328218949999e+00   2.183728712338774e+00   6.870302344000000e+00  1.53876460e-01  -1.82364580e-01  -3.04010470e-01
C     7.359550292700000e+00   2.989373079632940e+00   6.835855176000000e+00  1.75548484e+00  -3.03086468e+00   3.96653920e-01
C     7.434427810575000e+00   2.836071989662712e+00   1.011663431200000e+01 -2.45552382e+00  -2.61522320e-01   5.61384640e-01
C     8.620637427675000e+00   3.601458551623132e+00   1.019341828000000e+01  1.25802661e+00  -3.04881034e+00  -3.30844030e-01
C     2.443568932574999e+00   4.219865474419195e+00   6.862550616000000e+00  7.47982700e-01   8.04883550e-01   2.60881730e-01
C     3.609819185849999e+00   5.000068863321933e+00   6.982028111999999e+00  3.60129107e+00  -1.39492661e+00  -3.82504060e-01
C     3.626493062100000e+00   4.943995743202916e+00   1.008519315200000e+01  8.62295110e-01   2.46334490e-01   8.75831800e-01
C     4.849020855300000e+00   5.654710820919561e+00   1.020256251200000e+01  1.78721573e+00  -2.72200310e-01   1.17392100e-01
C     4.867851335399999e+00   4.294132514735264e+00   6.864763608000000e+00  5.55650420e-01  -3.88997850e-01  -7.19149000e-01
C     6.117841052699999e+00   5.029034296941455e+00   6.765079552000000e+00  6.88724060e-01  -1.49993996e+00   2.88163670e-01
C     6.132635933400000e+00   4.966426656357567e+00   1.029916834400000e+01  1.22310310e-01  -2.16390475e+00  -4.34474260e-01
C     7.429694418974999e+00   5.582753668328436e+00   1.050653706400000e+01 -4.32419879e+00   4.36167813e+00  -1.58684583e+00
C     7.421943904349999e+00   4.394595851614769e+00   6.764607632000000e+00 -2.59396893e+00  -2.51124387e+00   2.54254730e-01
C     8.668375443450000e+00   4.968353825632798e+00   6.887362455999999e+00 -7.04674260e-01   1.55019227e+00  -1.59681410e-01
C     8.631473173274999e+00   4.971662329285852e+00   1.041330240000000e+01  7.63758930e-01   4.99332800e-02  -8.28032710e-01
C     9.799410041174999e+00   5.776472606036332e+00   1.028138525600000e+01  1.93308299e+00  -5.26331348e+00  -4.37488510e-01
