72
Lattice="7.395 0 0 3.6975 6.40425786098592 0 0 0 13.6 " PBC="1 1 1" Properties=species:S:1:pos:R:3:force:R:3 Energy="-568.40544679"
C     1.096623314812500e+01   6.281702074993746e+00   1.350278597600000e+01  3.01501525e+00   1.70585009e+00  -1.88147187e+00
C     1.265033033025000e+00   5.400936723640458e-01   1.344434854400000e+01 -3.35842629e+00   1.29562471e+00   3.06168900e-02
C     1.290839142675000e+00   8.733239879754390e-01   3.739821160000000e+00 -7.35527240e-01   3.35177000e-02  -1.00646460e-01
C     2.564041691025000e+00   1.511198958069801e+00   3.825951864000000e+00 -1.22206150e-01   4.07202680e-01  -7.28251570e-01
C     6.228384100950000e+00   6.227357271943408e+00   1.332276182400000e+01 -5.08807258e+00   4.06513996e+00   1.08680604e+00
C     3.679051249800000e+00   5.159373880993332e-01   1.348343453600000e+01 -5.39717830e-01   3.02081421e+00  -5.92005820e-01
C     3.858044192850000e+00   9.025151716845266e-01   3.670598112000000e+00  6.36601700e-02   3.98368590e-01   1.13162170e-01
C     5.147057325150000e+00   1.640818639495636e+00   3.626353776000000e+00 -5.37603252e+00   5.36149030e-01  -1.49836919e+00
C     8.565230501099999e+00   6.354473208758876e+00   1.335709869600000e+01  2.05593968e+00  -4.61519317e+00  -5.48502200e-01
C     6.017340636299999e+00   6.232932434580852e-01   1.322847764800000e+01  6.34233099e+00   1.72779896e+00   1.03056664e+00
C     6.262570557375000e+00   8.528992726380127e-01   3.510133616000000e+00 -3.50443550e-01   4.42019082e+00   4.24781830e-01
C     7.418231947124999e+00   1.544322676317821e+00   3.721616200000000e+00  5.05459561e+00   4.58852756e+00   3.70647470e-01
C     1.226122022025000e+00   2.000519225821717e+00   1.348013939200000e+01 -1.32337616e+00   8.70427300e-02  -5.31378760e-01
C     2.435516812875000e+00   2.701707713801297e+00   1.269530080000000e-01  1.87218330e+00  -1.03147703e+00  -1.55941567e+00
C     2.514613806825000e+00   2.887518673903664e+00   3.793588352000000e+00  4.64517983e+00   1.55450130e+00  -2.95936050e-01
C     3.735654576450000e+00   3.626366695760609e+00   3.604363120000000e+00  5.93837310e-01   3.51323499e+00  -1.48784548e+00
C     3.684656031225000e+00   1.890968118953714e+00   1.351838204800000e+01 -7.95571600e-02   5.81259532e+00   2.52393110e-01
C     4.903963375875000e+00   2.748770171196449e+00   1.317740352800000e+01 -9.30993040e-01  -7.17088260e-01   7.91548420e-01
C     5.043045688799999e+00   3.079057666278594e+00   3.396303792000000e+00 -4.85093360e-01  -2.38096196e+00   2.95687472e+00
C     6.218188022850000e+00   3.825636203755767e+00   3.570368832000000e+00  3.62746977e+00  -1.24720460e-01   6.63868130e-01
C     6.155624363174999e+00   2.043531118205577e+00   1.302109233600000e+01 -1.35949102e+00   3.12896550e-01   1.37553909e+00
C     7.382405094824999e+00   2.778826121844373e+00   1.311380992800000e+01  1.75465890e+00  -1.64771687e+00   1.64323482e+00
C     7.569078226049999e+00   3.144647385492413e+00   3.870575776000000e+00 -6.07944207e+00  -4.85815829e+00  -2.11399505e+00
C     8.824355885999999e+00   3.691363764952063e+00   3.836283104000000e+00 -3.47424471e+00   1.98380330e+00  -4.34274480e-01
C     2.524307172825000e+00   4.117166923461392e+00   1.135772720000000e-01 -4.04826418e+00   8.20127130e-01  -2.01773978e+00
C     3.666177479174999e+00   4.872397100966795e+00   1.354253415200000e+01  1.44355123e+00  -7.18582500e-02  -3.16090130e-01
C     3.705477947850000e+00   5.171621127554482e+00   3.454230544000000e+00  9.99531390e-01  -1.50405329e+00   9.18961220e-01
C     4.954893813150000e+00   5.893737321283813e+00   3.609610680000000e+00 -4.17728190e-01  -1.49712289e+00  -8.43079600e-01
C     4.875481607325000e+00   4.206326104792212e+00   1.318642549600000e+01  1.42365222e+00  -4.39047200e-01   1.92040270e-01
C     6.149278750650000e+00   4.980960351059894e+00   1.295675372800000e+01  4.36585840e-01  -7.77897378e+00   1.65612621e+00
C     6.206833259174999e+00   5.235917250723159e+00   3.611974088000000e+00  5.57077080e-01  -6.93682460e-01  -2.23478890e-01
C     7.477679501699999e+00   5.906404815245735e+00   3.594991904000000e+00  1.36534254e+00  -2.72209697e+00   8.37560770e-01
C     7.446443354475000e+00   4.209065333964091e+00   1.315787216000000e+01 -1.43344479e+00  -9.37289200e-02  -1.24079437e+00
C     8.670849958350001e+00   4.920522985379602e+00   1.332043404800000e+01 -1.50840680e-01  -2.45322021e+00   2.11218045e+00
C     8.742904213125000e+00   5.078427840155070e+00   3.619638096000000e+00 -8.81811110e-01   4.59671851e+00  -9.46983210e-01
C     9.884621295075000e+00   5.950403667808400e+00   3.393418688000000e+00  1.04415854e+00  -8.29456230e+00   1.21494604e+00
C     7.431231099975000e+00   1.383630304266210e-01   6.545678640000000e+00  6.67391200e-02  -9.24214980e-01   9.05603760e-01
C     1.292333339400000e+00   7.629288639640669e-01   6.819423928000000e+00 -1.93049450e+00   2.41480578e+00   3.29716830e-01
C     1.106702607375000e+00   5.247394641446959e-01   1.004718985600000e+01  1.86323631e+00   2.73065550e+00   1.19107934e+00
C     2.289884267775000e+00   1.247983960023801e+00   1.021606867200000e+01  3.90769312e+00   9.96919990e-01  -1.07280519e+00
C     2.452617750375000e+00   1.487203804932846e-01   7.135863287999999e+00  2.78118595e+00  -4.44478668e+00  -7.21898350e-01
C     3.654162711750000e+00   9.126116122859737e-01   7.331324120000000e+00  4.83370700e-01  -3.23045379e+00  -2.54927789e+00
C     3.646077758250000e+00   5.280140252310924e-01   9.938003752000000e+00 -3.29341144e+00   1.95397547e+00   7.24604340e-01
C     4.831778155650000e+00   1.330109024734090e+00   9.947491383999999e+00  1.15448812e+00  -2.55118773e+00   1.21959404e+00
C     4.763293726200001e+00   1.535870400836772e-01   6.807185424000000e+00  4.05442995e+00  -6.54149260e-01   8.66666490e-01
C     6.130193364899999e+00   8.325121502942244e-01   6.600861048000000e+00 -1.48607122e+00  -3.55864468e+00   1.15304998e+00
C     6.044612434949999e+00   5.347748721687372e-01   9.943414647999999e+00  1.16662390e-01  -1.20904642e+00   4.16832810e-01
C     7.295210575874999e+00   1.200760499586047e+00   1.013763162400000e+01 -2.98794150e+00   2.23127982e+00  -1.01349232e+00
C     1.303879781475000e+00   2.178889719142337e+00   6.956877632000000e+00  4.25346290e-01   2.27502295e+00   4.28829100e-02
C     2.559742903575000e+00   3.044157214772474e+00   7.115584328000000e+00 -3.42398482e+00  -1.00510639e+00   2.66396480e-01
C     2.326738359525000e+00   2.738361458981748e+00   1.035293852800000e+01  2.33129627e+00  -4.77164592e+00  -3.47655490e-01
C     3.582529861050000e+00   3.355517438090018e+00   1.036368579200000e+01  1.24966057e+00   3.09678970e+00  -8.29298980e-01
C     3.697494860475000e+00   2.288080778633450e+00   7.417911784000000e+00  2.30087284e+00   2.94343493e+00  -2.91854359e+00
C     4.977824598900000e+00   2.973351547744578e+00   7.104120344000000e+00 -9.90995760e-01  -3.12501437e+00   6.38798200e-02
C     4.841426560049999e+00   2.726950160199065e+00   1.020941800000000e+01 -2.28384179e+00  -1.69841004e+00  -5.52305800e-02
C     5.999369640075001e+00   3.461840606868845e+00   1.015970415200000e+01  3.81164983e+00  -2.75031808e+00  -1.10858356e+00
C     6.145593378449999e+00   2.153156322337020e+00   6.854540080000000e+00  1.57839347e+00   4.01884191e+00   9.38875070e-01
C     7.451513255550000e+00   2.829822266544874e+00   6.927225416000001e+00 -3.40325820e-01   1.26650895e+00  -1.38355350e-01
C     7.245171568875000e+00   2.661290442446836e+00   1.012477486400000e+01  1.35193589e+00   6.44552000e-02   5.16407800e-01
C     8.558809348650000e+00   3.376315649745839e+00   1.017653007200000e+01 -5.55360925e+00   6.70419320e-01  -1.45389872e+00
C     9.888823799624999e+00   4.483444362396800e+00   6.906221031999999e+00  2.03241465e+00  -1.57680526e+00  -1.01190609e+00
C     3.837106063800000e+00   5.142004508995755e+00   6.685002888000000e+00 -3.33562963e+00  -1.60463341e+00   1.27379385e+00
C     3.654438841050000e+00   4.812529265937994e+00   1.024220569600000e+01 -1.30767167e+00  -3.66120570e-01  -8.99196930e-01
C     4.946287992825000e+00   5.596617733828922e+00   1.009452397600000e+01 -4.50550801e+00  -5.02173382e+00  -2.03345720e-01
C     5.041503128775000e+00   4.330835892914131e+00   6.883801432000000e+00 -6.52381420e-01   2.90912184e+00   1.55539780e-01
C     6.301759398524999e+00   5.006807103229332e+00   6.988274592000000e+00 -3.01353047e+00   2.84979050e+00  -1.54583830e-01
C     6.085291146749999e+00   4.819768510937781e+00   9.922916456000001e+00  1.63883680e-01   2.21273809e+00   9.25913750e-01
C     7.295581213275000e+00   5.525616032467932e+00   9.719536888000000e+00  1.27507198e+00  -7.42987530e-01   1.60838195e+00
C     7.482722706824999e+00   4.281110801271104e+00   7.013708088000000e+00 -1.65229242e+00  -9.96182810e-01  -5.45810140e-01
C     8.579351808224999e+00   5.073561244607255e+00   6.824063160000000e+00  2.71918888e+00   2.48576775e+00   4.26864130e-01
C     8.497847113199999e+00   4.732575692940296e+00   9.808971983999999e+00  1.50124917e+00   1.50106168e+00   1.64523469e+00
C     9.738365277524998e+00   5.411516237412285e+00   9.973220408000000e+00  1.47944997e+00   3.63389985e+00   7.83633700e-02
