72
Lattice="7.395 0 0 3.6975 6.40425786098592 0 0 0 13.6 " PBC="1 1 1" Properties=species:S:1:pos:R:3:force:R:3 Energy="-576.80525699"
C     3.678295406850000e+00   6.226117151451398e+00   1.349624859200000e+01  1.28710285e+00   1.52945355e+00   7.94937250e-01
C     1.179668813550000e+00   6.563057837896561e-01   1.357203296000000e+01  1.38540714e+00  -4.76436226e+00  -5.73816410e-01
C     1.401048528525000e+00   9.179178601358766e-01   3.660174528000000e+00 -2.13512233e+00   5.52991270e-01  -3.10592990e-01
C     2.571739368375000e+00   1.712187625044897e+00   3.766056512000000e+00 -3.14515290e-01  -1.03770663e+00  -6.90722900e-02
C     6.091161778425000e+00   6.232336262216665e+00   1.343729585600000e+01  2.06088425e+00   2.18829371e+00   5.33515310e-01
C     3.657128254650000e+00   5.866881706373688e-01   1.344379665600000e+01  7.55076730e-01  -1.10373120e-01   5.37731170e-01
C     3.744102254700000e+00   9.109142277827593e-01   3.688940023999999e+00  2.87068009e+00   2.13965061e+00  -9.70490420e-01
C     5.019050577675000e+00   1.648484344026320e+00   3.499227912000000e+00 -2.04243500e-02  -4.22586710e-01   1.57545196e+00
C     8.672132547149999e+00   6.287234265060950e+00   1.335403284800000e+01 -3.51762414e+00  -1.38261234e+00   1.24837205e+00
C     6.209962342500000e+00   5.838914312299068e-01   1.344362924000000e+01 -2.19510415e+00  -7.75174240e-01  -2.83294680e-01
C     6.274098585899999e+00   9.655220537034074e-01   3.467568880000000e+00 -8.47691050e-01  -6.79308580e-01   2.79528500e-02
C     7.509019141950000e+00   1.591070748694627e+00   3.611795384000000e+00  1.47611270e+00   3.50158682e+00   1.64386310e-01
C     1.219172681700000e+00   2.038298775491378e+00   1.774324000000000e-02 -1.03105472e+00  -1.04799168e+00  -2.76949910e-01
C     2.421180681000000e+00   2.762047798804695e+00   6.806963200000000e-02  1.40774554e+00  -3.59021403e+00   1.38096010e-01
C     2.564099113200000e+00   3.166267263431672e+00   3.771796120000000e+00  1.50087608e+00  -3.34573411e+00  -1.13803588e+00
C     3.856192817625000e+00   3.744351377676710e+00   3.499426608000000e+00 -2.83776020e+00   3.06898609e+00   1.49605665e+00
C     3.651856470075000e+00   2.040197830074604e+00   6.392544000000000e-02  1.30042696e+00  -2.01230382e+00  -2.03937712e+00
C     4.925130897825000e+00   2.725777348457163e+00   1.342598405600000e+01 -7.08677890e-01  -3.07861507e+00   9.04994300e-01
C     5.084019239250000e+00   3.082130813455294e+00   3.614468872000000e+00 -3.82220275e+00  -3.38168652e+00  -1.46300179e+00
C     6.221193646650000e+00   3.760780284407547e+00   3.561391744000000e+00  5.42206655e+00   1.83933736e+00   5.71770180e-01
C     6.194922724275000e+00   2.016205046513058e+00   1.339510267200000e+01 -4.39481489e+00  -3.13462088e+00   2.20222290e-01
C     7.347007744124999e+00   2.644159565011965e+00   1.345967982400000e+01  3.84519111e+00   2.77179162e+00  -3.85436970e-01
C     7.495917679274999e+00   3.102807152084040e+00   3.684521792000000e+00 -1.16866046e+00  -3.17896969e+00  -2.42319120e-01
C     8.702663544149999e+00   3.810981852835357e+00   3.750885168000000e+00  1.50253452e+00  -7.87404840e-01  -9.80679540e-01
C     2.480744041275000e+00   4.092689209494686e+00   1.633496000000000e-03 -2.80765675e+00   4.04120886e+00  -1.33967100e-02
C     3.692483010150000e+00   4.788145822646987e+00   5.703840000000001e-04  2.44445360e-01   1.52116364e+00  -1.13719318e+00
C     3.832053171225000e+00   5.193835897006357e+00   3.431511880000000e+00  5.76437070e-01   8.56090260e-01   7.16418900e-02
C     5.108468440350000e+00   5.893189629151625e+00   3.499327736000000e+00 -2.17232250e+00   1.14076152e+00   4.31558310e-01
C     4.906959645000000e+00   4.076275801067871e+00   1.342153944000000e+01  9.96218790e-01   3.11056430e+00   6.09188190e-01
C     6.152325083925000e+00   4.819026705749857e+00   1.335991566400000e+01 -7.11837250e-01  -1.09632332e+00  -6.96776410e-01
C     6.292419439574999e+00   5.190068656362790e+00   3.575303864000000e+00 -4.53516550e-01  -9.58680600e-01   6.76108000e-02
C     7.485085816049999e+00   5.902948309193536e+00   3.651378320000000e+00  1.77776822e+00  -4.84644780e-01  -9.34305450e-01
C     7.383480734550000e+00   4.018307917218395e+00   1.326545536800000e+01 -8.40556600e-01   4.79643882e+00   2.02123318e+00
C     8.561725086225000e+00   4.801910686193221e+00   1.348749508800000e+01  2.92835173e+00   1.03449427e+00  -1.39162461e+00
C     8.762539860824999e+00   5.154802201519971e+00   3.518953216000000e+00 -9.24491230e-01   5.21034369e+00   7.98460960e-01
C     9.993862342650001e+00   5.971825333966893e+00   3.422393760000000e+00 -4.97978900e-01  -4.11690020e+00   3.26562600e-01
C     7.420086539174999e+00   1.061443618993758e-01   6.886887135999999e+00  6.99736350e-01   1.30540853e+00   2.68313230e-01
C     1.249893545325000e+00   8.293390326523302e-01   6.996082759999999e+00 -2.29223240e-01   1.84983682e+00  -4.74842240e-01
C     1.088020914675000e+00   4.907010897891102e-01   9.972555639999999e+00  2.27844956e+00   9.76130480e-01  -3.50074480e-01
C     2.325769244775000e+00   1.228829977530956e+00   1.009838651200000e+01  1.04394532e+00  -1.23884235e+00  -2.75507760e-01
C     2.477491202625000e+00   1.587940219367502e-01   6.954606296000001e+00  1.22389566e+00  -2.19952401e+00  -1.85973000e-01
C     3.788347501050000e+00   8.389758396671652e-01   6.941130056000000e+00 -2.55224875e+00  -9.99355260e-01   2.68928300e-01
C     3.623497162725000e+00   4.758529460258574e-01   1.003014878400000e+01 -4.21031666e+00   3.69293330e-01   5.70283210e-01
C     4.791785071275000e+00   1.171171291250961e+00   1.002528583200000e+01  2.64826692e+00   1.38071119e+00  -7.73331410e-01
C     5.001683383200000e+00   1.165175304829536e-01   6.917168351999999e+00  3.24591720e-01   5.36170830e-01  -4.49530080e-01
C     6.236037556199999e+00   8.684063504924808e-01   6.893373519999999e+00 -1.52840018e+00  -1.98253337e+00   2.01274410e-01
C     6.047684354925000e+00   5.332765960423902e-01   9.851157008000001e+00 -3.36673710e-01  -1.10580854e+00   5.33745180e-01
C     7.295095842450000e+00   1.171101676968023e+00   9.823994544000000e+00 -1.62329587e+00   3.13493184e+00   1.20620164e+00
C     8.604625477874999e+00   2.311687001190567e+00   7.048779359999999e+00  2.32591975e+00  -1.30255222e+00   1.57220190e-01
C     2.505787393650000e+00   2.999226414606022e+00   7.129807344000000e+00 -1.62354889e+00  -2.83717576e+00  -1.76932648e+00
C     2.333476017975000e+00   2.669481872505248e+00   1.014044464800000e+01  7.87001040e-01  -3.35859025e+00  -3.34546380e-01
C     3.575691852449999e+00   3.277678551037691e+00   1.010705773600000e+01  7.83935110e-01   3.52614192e+00  -8.31213100e-01
C     3.713460332700000e+00   2.233754163675435e+00   7.000839903999999e+00  1.70522111e+00   2.33904667e+00   3.95935310e-01
C     4.962917277224999e+00   3.014761286939602e+00   6.991174791999999e+00 -1.09577731e+00  -3.79981772e+00  -3.51005090e-01
C     4.813444730475000e+00   2.569056320747117e+00   9.993350176000000e+00 -1.06419252e+00   2.25875582e+00   1.34552650e-01
C     6.006589415550001e+00   3.350264153452617e+00   9.813406400000000e+00  1.44829363e+00  -1.84347935e+00   1.56619445e+00
C     6.213956455950000e+00   2.242113385289778e+00   6.976004944000000e+00 -6.47569830e-01   4.11989691e+00  -3.87633940e-01
C     7.422741972749999e+00   3.053920826092937e+00   7.008035120000001e+00 -4.41365110e-01  -1.52119975e+00  -4.42280020e-01
C     7.273059703800000e+00   2.613644749288373e+00   9.893251456000000e+00  8.28703020e-01   1.01071950e+00  -3.63562090e-01
C     8.550805629225000e+00   3.348442462304340e+00   9.972163280000000e+00 -3.43763891e+00   1.12057869e+00   5.39683400e-01
C     9.848134254149999e+00   4.363418259245245e+00   6.934442391999999e+00  2.56373754e+00   1.38703015e+00   6.58029780e-01
C     3.684825524625000e+00   5.123153127686795e+00   6.916282312000000e+00 -4.16183990e-01  -1.40749140e+00  -2.98822900e-01
C     3.515378343375000e+00   4.768546936360607e+00   9.935560512000000e+00  2.83862317e+00  -3.49125120e-01   1.96635640e-01
C     4.783669391549999e+00   5.519535381757597e+00   9.867528280000000e+00  1.27921040e-01  -3.65977855e+00   1.04892130e+00
C     4.888739954925000e+00   4.394255465309510e+00   6.952771112000000e+00  2.20933132e+00   6.51961020e-01  -1.92626380e-01
C     6.152262633150000e+00   5.062385878684134e+00   6.923679896000000e+00  3.87342370e-01   4.37191692e+00   1.01766920e-01
C     6.028535594025000e+00   4.748035891627229e+00   9.899947552000000e+00 -8.89556300e-02   1.92988172e+00  -1.14092450e-01
C     7.306361459399999e+00   5.470357726076443e+00   9.960791368000001e+00 -2.12000535e+00  -5.87410840e-01   4.04255200e-02
C     7.444942206449999e+00   4.495986653117560e+00   6.950255792000000e+00 -2.82443011e+00  -4.01771949e+00   5.23828200e-02
C     8.674629431925000e+00   5.079091961695152e+00   6.926737447999999e+00 -2.73563840e-01   3.37514337e+00  -2.35281920e-01
C     8.517662052675000e+00   4.793015940536624e+00   9.976415184000000e+00  3.19381220e-01  -9.77547270e-01  -2.79117760e-01
C     9.727499175449999e+00   5.542398838488112e+00   9.901223640000000e+00  4.38024600e-02  -2.32185758e+00   5.39335220e-01
