72
Lattice="7.395 0 0 3.6975 6.40425786098592 0 0 0 13.6 " PBC="1 1 1" Properties=species:S:1:pos:R:3:force:R:3 Energy="-573.74172466"
C     3.665887299375000e+00   6.344314710898765e+00   1.338368207200000e+01  3.65939130e-01  -2.12841814e+00  -3.05237160e-01
C     1.129522542075000e+00   6.755165720497195e-01   1.340844930400000e+01  4.00831587e+00  -3.22834696e+00  -6.05866850e-01
C     1.309297876125000e+00   8.403867617163018e-01   3.773564528000000e+00 -3.06350080e-01   7.31280780e-01  -7.46763510e-01
C     2.549507373150000e+00   1.543286275268338e+00   3.805545608000000e+00  9.03932870e-01  -3.99185630e-01  -9.51716720e-01
C     6.079436784075000e+00   6.307346260487072e+00   1.329248727200000e+01  2.53777887e+00  -5.99567880e-01   4.92089900e-01
C     3.671684387775000e+00   5.928537418069266e-01   1.347354407200000e+01  4.40628640e-01  -3.02878900e-02  -2.31856792e+00
C     3.794410772475000e+00   8.557738878210522e-01   3.646107912000000e+00 -3.45503830e-01   2.93487000e-02   1.11344130e-01
C     5.005206324225000e+00   1.639644418817005e+00   3.597918488000000e+00  1.34158148e+00  -2.42484304e+00  -8.22307180e-01
C     8.681603804324999e+00   6.268656473647768e+00   1.334911889600000e+01 -2.19296924e+00   1.90042762e+00  -1.29149900e-01
C     6.238459011975000e+00   7.027946118082889e-01   1.323454909600000e+01 -5.06335738e+00  -2.79569294e+00   4.76730880e-01
C     6.252082450725000e+00   9.410395365433062e-01   3.562707952000000e+00  4.51377050e-01  -2.81139151e+00   7.18277000e-02
C     7.515905365949999e+00   1.630192822939481e+00   3.732892232000000e+00 -2.98799811e+00  -2.12267608e+00  -4.69893210e-01
C     1.192804515075000e+00   2.049948312666454e+00   1.340021069600000e+01  1.10309987e+00   1.54206380e-01   3.38303120e-01
C     2.471104658775000e+00   2.727627538552917e+00   5.520117600000000e-02 -2.37006493e+00   2.84780520e-01  -1.81714672e+00
C     2.599013496450000e+00   2.965624170210702e+00   3.735856896000000e+00 -2.93399553e+00   5.41458190e-01   3.16942350e-01
C     3.799890430500000e+00   3.682194532803587e+00   3.614975880000000e+00 -1.50660860e-01  -2.27447670e-01  -1.16730768e+00
C     3.659000927475000e+00   2.095760530842179e+00   1.338479577600000e+01  2.23246787e+00  -3.67934691e+00   1.65072829e+00
C     4.897951610624999e+00   2.782948542628855e+00   1.320395956800000e+01  1.79435610e-01  -9.76048080e-01  -7.89054740e-01
C     5.073639987000000e+00   3.014200466078802e+00   3.464287335999999e+00 -2.29164566e+00   1.71277456e+00   1.96985866e+00
C     6.256241398724999e+00   3.776314900570813e+00   3.621146200000000e+00 -1.74993111e+00  -3.70153360e-01  -3.05791140e-01
C     6.155985276150000e+00   2.093428164172145e+00   1.299707337600000e+01 -7.78511900e-01  -2.09089766e+00   1.66435121e+00
C     7.409152624949999e+00   2.688648855641549e+00   1.304097567200000e+01 -3.30142060e-01   3.71893270e+00   1.54475641e+00
C     7.384537110300000e+00   3.018247316620536e+00   3.816270704000000e+00  5.18708574e+00   1.37251161e+00  -8.77262120e-01
C     8.694676352549999e+00   3.709462325749581e+00   3.760048984000000e+00  1.10355371e+00  -8.25944600e-01   4.01912100e-01
C     2.442145727850000e+00   4.117593895332918e+00   2.809991200000000e-02  8.44014890e-01   1.48214862e+00  -1.51471810e+00
C     3.685392795075000e+00   4.831338763400550e+00   1.345929290400000e+01 -3.93531820e-01   2.56350340e+00  -4.97208380e-01
C     3.713008017525000e+00   5.075758929734493e+00   3.511418952000000e+00  1.93499173e+00   1.66980100e+00   3.52726890e-01
C     4.957827446624999e+00   5.821917732151521e+00   3.597863136000000e+00 -4.10586190e-01   1.77211631e+00   1.15625550e-01
C     4.905905044050000e+00   4.177678258319967e+00   1.312876244800000e+01 -4.57014450e-01  -2.19352530e-01   1.19180500e+00
C     6.171464527125000e+00   4.822638322927425e+00   1.298893119200000e+01 -1.59405973e+00   3.80554287e+00   2.13076627e+00
C     6.211667222775000e+00   5.226948087590229e+00   3.630572768000000e+00  9.65595090e-01  -3.58153839e+00  -4.07880880e-01
C     7.477648886400000e+00   5.812868195582449e+00   3.588735904000000e+00  4.43768000e-01   2.97663282e+00   1.14218223e+00
C     7.379616921000000e+00   4.131997199345215e+00   1.312026163200000e+01  1.37080391e+00   2.56863150e-01  -3.14962500e-01
C     8.621457533174999e+00   4.822743096586015e+00   1.333351058400000e+01  1.43657730e-01   1.50753473e+00   1.00916430e+00
C     8.733124991175000e+00   5.122808450528770e+00   3.683030688000000e+00 -2.13775676e+00  -1.00036773e+00  -1.26223775e+00
C     9.915328847700000e+00   5.811443632464070e+00   3.483071248000000e+00  1.01832270e+00   2.95798798e+00   1.11783846e+00
C     7.435125972524999e+00   8.156059342250820e-02   6.496218024000000e+00 -1.49007896e+00   1.47176312e+00   1.74478738e+00
C     1.258152725025000e+00   7.702760207087946e-01   6.800778191999999e+00  1.06050496e+00   1.07140545e+00   1.02046276e+00
C     1.148002684050000e+00   5.823928348906668e-01   1.012857103200000e+01 -1.85872117e+00  -1.02365464e+00   9.08834870e-01
C     2.394776389800000e+00   1.320244162096860e+00   1.017559452800000e+01 -9.41788240e-01  -3.37542271e+00  -1.74349730e-01
C     2.489946083475000e+00   2.089395531082860e-02   7.101228168000000e+00  7.58645700e-02   3.63372378e+00  -5.88824440e-01
C     3.735056394900000e+00   8.365933276580880e-01   7.294895568000000e+00 -1.39822828e+00  -3.06113820e-01  -2.14679842e+00
C     3.611673149325000e+00   6.028451525794698e-01   9.983418776000001e+00  1.89335230e-01  -2.35683128e+00  -1.05839412e+00
C     4.823012862149999e+00   1.271088152807273e+00   9.950758376000000e+00  5.60675360e-01   7.78974040e-01   2.54664263e+00
C     4.883161573650000e+00   1.152031205997672e-01   6.829897423999999e+00 -1.18416050e-01  -7.28704220e-01   1.34495274e+00
C     6.083064290399999e+00   7.559655143928888e-01   6.635443535999999e+00  4.32147924e+00   2.87751383e+00   2.14610090e-01
C     6.057499183799999e+00   5.325901236423768e-01   1.003840779200000e+01 -6.62954690e-01   2.22682163e+00  -3.83777520e-01
C     7.238542210199999e+00   1.238879474922289e+00   1.022398577600000e+01  3.54806097e+00   8.27801310e-01  -8.15741250e-01
C     8.675082597525000e+00   2.274776189099614e+00   6.948015055999999e+00  6.72205440e-01  -3.46124540e+00  -6.53823900e-01
C     2.479941942600000e+00   3.019168248900804e+00   7.063359920000000e+00  1.85850968e+00  -1.54219168e+00   1.18749628e+00
C     2.384190447300000e+00   2.663741031716965e+00   1.035830726400000e+01 -1.25365153e+00   3.32025221e+00  -7.21538510e-01
C     3.618402229575000e+00   3.376685623722412e+00   1.036882006400000e+01 -1.54508124e+00   1.39725744e+00  -3.65201630e-01
C     3.759971074275000e+00   2.322388387989470e+00   7.363142272000000e+00 -3.09243298e+00  -3.11748237e+00  -2.36252296e+00
C     4.952292510974999e+00   2.930336389189209e+00   7.115146816000000e+00  2.39902292e+00   1.98169502e+00  -1.41603836e+00
C     4.806715909050000e+00   2.654672986842677e+00   1.031919665600000e+01  2.73577878e+00   1.64785747e+00  -1.61380031e+00
C     6.104203193700000e+00   3.442861012317527e+00   1.022539419200000e+01 -1.83590179e+00  -9.81613230e-01  -9.83009500e-01
C     6.193393918950000e+00   2.200786581234041e+00   6.821775640000000e+00 -1.57489159e+00  -1.04625589e+00   8.82889420e-01
C     7.444043159324999e+00   2.883447487182062e+00   6.867699304000000e+00 -8.89913130e-01   1.75528890e+00   1.75552210e-01
C     7.302125048774999e+00   2.668498947008895e+00   1.020094411200000e+01 -1.94169714e+00   6.17637350e-01   1.49690130e-01
C     8.468277133425000e+00   3.403686102945329e+00   1.023338106400000e+01  3.99428220e+00  -3.37050050e-01  -1.19254752e+00
C     9.922597467150000e+00   4.401041224810230e+00   6.872481880000000e+00 -1.42385524e+00   7.01514790e-01  -8.86879490e-01
C     3.738945018675000e+00   5.105814368041788e+00   6.662281232000000e+00  1.38523786e+00  -1.75824226e+00   1.27035870e+00
C     3.584770361175000e+00   4.851299938554069e+00   1.027568413600000e+01  2.37098150e-01  -1.46090119e+00  -4.27756140e-01
C     4.795671920249999e+00   5.525702425906463e+00   1.018791993600000e+01  3.18441377e+00   2.15824605e+00  -1.13142266e+00
C     4.966700189475000e+00   4.379730352312715e+00   6.896650848000000e+00  2.33552160e-01  -6.14024010e-01   2.75875400e-01
C     6.240515191725000e+00   5.039150654784847e+00   7.009454143999999e+00 -1.17824739e+00  -6.66231520e-01  -8.63952840e-01
C     6.104553827625001e+00   4.865819287718790e+00   1.000186146400000e+01 -7.62716360e-01  -1.76743086e+00   1.07232171e+00
C     7.377029114699999e+00   5.512797077807620e+00   9.756420495999999e+00 -3.77315291e+00   2.59090428e+00   2.06009662e+00
C     7.467866188800000e+00   4.312216217654545e+00   6.973789232000000e+00 -3.90878940e-01   7.03053480e-01  -3.89268170e-01
C     8.661356738024999e+00   5.084918427411022e+00   6.834642872000000e+00 -7.80394860e-01  -8.80851450e-01   3.37237470e-01
C     8.541516067200000e+00   4.791191175344574e+00   9.855850775999999e+00  1.53030872e+00   2.72716580e-01   1.94255960e+00
C     9.787734852149999e+00   5.587816170124188e+00   1.001966277600000e+01 -1.17112083e+00  -4.52416465e+00   2.20236480e-01
