72
Lattice="7.395 0 0 3.6975 6.40425786098592 0 0 0 13.6 " PBC="1 1 1" Properties=species:S:1:pos:R:3:force:R:3 Energy="-576.13420999"
C     3.622586949150000e+00   6.187169144935178e+00   3.119461920000000e-01  1.41094980e+00   6.87377040e-01  -1.02556637e+00
C     1.222958995650000e+00   4.352790905667204e-01   3.414252800000000e-01 -1.83342928e+00   1.95552686e+00  -6.79680180e-01
C     1.403612042250000e+00   1.069101702457589e+00   3.438238848000000e+00  5.83390920e-01  -1.72538704e+00  -3.46752850e-01
C     2.644345955700000e+00   1.748372898762890e+00   3.637247783999999e+00  5.27157130e-01  -3.05056910e-01  -8.91675050e-01
C     6.137715300075000e+00   6.164495318279899e+00   1.437381280000000e-01 -4.71521860e-01   4.01754760e-01   6.51858700e-01
C     3.645168727874999e+00   4.487821480516374e-01   2.933050800000000e-01  2.15203880e+00   1.34358271e+00  -1.76588234e+00
C     3.911696655675000e+00   1.044457157573630e+00   3.486365575999999e+00  3.00936140e-01   1.65228115e+00  -6.02869990e-01
C     5.157159412799999e+00   1.770463617740017e+00   3.317603992000000e+00 -1.36305140e+00   6.44361190e-01  -5.36443840e-01
C     8.642896155824999e+00   6.189695048277741e+00   6.643096799999999e-02 -4.19602691e+00  -1.49994320e-01   8.58101830e-01
C     6.080655110325000e+00   4.992580748861706e-01   1.234482880000000e-01  3.87270702e+00   2.77200830e-01   1.24651840e-01
C     6.373559265300001e+00   1.039823869139656e+00   3.133597488000000e+00 -1.62545287e+00   1.95299684e+00   4.80882340e-01
C     7.571616005175000e+00   1.710146972320387e+00   3.323655992000000e+00  1.38697069e+00   4.17902121e+00   1.33383851e+00
C     1.220624985750000e+00   1.895465252865584e+00   4.151537360000000e-01 -9.45521910e-01   1.14170970e-01  -8.23193070e-01
C     2.431248492825000e+00   2.623920701237636e+00   5.876606240000000e-01  2.78556010e-01  -1.07191808e+00  -1.72917718e+00
C     2.632721200575000e+00   3.152809932347876e+00   3.611132656000000e+00  2.96245612e+00   8.40835710e-01  -1.17246364e+00
C     3.905754440400000e+00   3.871214282264130e+00   3.338741112000000e+00 -2.48387899e+00   1.59771310e+00  -7.77034600e-01
C     3.664226345400000e+00   1.875393155965930e+00   3.719364720000000e-01  1.97855700e-01   9.55675590e-01   6.02318100e-01
C     4.906960680300000e+00   2.596652716163907e+00   1.611575520000000e-01 -5.36493930e-01   1.29861257e+00  -7.20046840e-01
C     5.134009772024999e+00   3.236212966714127e+00   3.174348120000000e+00 -2.96567280e-01  -3.28602737e+00   1.96633143e+00
C     6.347901610274999e+00   3.900188617802077e+00   3.268635832000000e+00  2.68894565e+00   1.70125174e+00   1.14841317e+00
C     6.115682156400000e+00   1.880603532075669e+00   1.358471196800000e+01  1.28090681e+00   2.43442831e+00   1.21057655e+00
C     7.401787574699999e+00   2.648503252905510e+00   9.777339199999999e-02 -7.63512700e-01  -1.71212945e+00   5.13446950e-01
C     7.614027476400000e+00   3.212384068111219e+00   3.581312072000000e+00 -2.66137587e+00  -2.15858324e+00  -2.76980860e+00
C     8.846626224300000e+00   3.898321456422994e+00   3.537531768000000e+00 -8.80652430e-01  -2.50118670e-01   9.59174000e-02
C     2.399959693200000e+00   4.027595884307596e+00   4.814372800000000e-01  1.44743806e+00   1.98367233e+00  -1.50735374e+00
C     3.652228031850000e+00   4.799795808120114e+00   4.114675920000000e-01  9.77325350e-01  -2.77886637e+00  -1.64257124e+00
C     3.845601439800000e+00   5.318264799351504e+00   3.060433432000000e+00  1.48138137e+00   8.59024800e-02   1.76481125e+00
C     5.096045727750000e+00   6.056809195343306e+00   3.243343232000000e+00  6.23765480e-01  -1.15701579e+00   1.24263820e-01
C     4.941307460325000e+00   4.069151512496671e+00   8.516660000000000e-02 -2.13386614e+00  -3.48287710e-01   1.17184563e+00
C     6.156754947750000e+00   4.797082067894517e+00   1.348739744000000e+01 -4.51990230e-01  -2.35763015e+00   1.46695632e+00
C     6.360825962700000e+00   5.344815699672649e+00   3.359546120000000e+00 -8.23568370e-01  -2.37546340e-01  -7.65913080e-01
C     7.611615338325000e+00   6.058150823322398e+00   3.362091360000000e+00 -4.48720540e-01  -2.26087646e+00   6.95652210e-01
C     7.398921790349999e+00   4.068993391370108e+00   2.113385600000000e-02 -1.67462300e-02   7.91362500e-02  -6.50441510e-01
C     8.637395163225001e+00   4.798005113579879e+00   9.938689600000000e-02 -3.84138280e-01  -2.80306617e+00   1.54233096e+00
C     8.834776365374999e+00   5.280984781794922e+00   3.319897496000000e+00  7.32081700e-02   3.29153367e+00  -1.11136113e+00
C     1.002775492177500e+01   6.089450993187362e+00   2.995607944000000e+00 -1.02841780e-01  -5.01514472e+00   2.36765600e+00
C     7.343187598049999e+00   2.307756387928992e-01   6.433810888000000e+00  9.83948540e-01  -1.73609878e+00   5.19247760e-01
C     1.204705695300000e+00   8.990704494667896e-01   6.553943360000000e+00 -4.90145410e-01   5.65443130e-01   1.01015900e-02
C     1.129530048000000e+00   3.874809120286104e-01   1.024420707200000e+01  1.43181940e-01   1.47397243e+00   6.74444790e-01
C     2.310628130175000e+00   1.089536344394698e+00   1.055452969600000e+01  1.23223185e+00   1.36020929e+00  -2.62065350e-01
C     2.439191277450000e+00   2.378265986116020e-01   6.487209384000000e+00 -1.21322387e+00  -3.52763637e+00   2.24974120e-01
C     3.609143689575000e+00   9.497420263789459e-01   6.539034360000000e+00  2.09595176e+00  -1.64942470e+00  -6.22780000e-01
C     3.581088908325000e+00   3.626418057908646e-01   1.054731244800000e+01 -1.28999366e+00   2.00063821e+00  -1.82026811e+00
C     4.805980550250000e+00   1.115393087206398e+00   1.031875452000000e+01  3.25175540e-01  -1.49562900e-01   1.02149178e+00
C     4.825739583524999e+00   2.164584720488190e-01   6.318113920000000e+00  1.77717707e+00  -2.93228890e-01   1.78800981e+00
C     6.111791351100000e+00   9.082432679996677e-01   6.430215728000000e+00 -1.20357141e+00  -8.71411020e-01  -2.28278020e-01
C     6.000188155650000e+00   3.979672438485745e-01   1.013879143200000e+01  1.69054687e+00  -1.38726453e+00   2.97984950e-01
C     7.286496566699999e+00   1.111597283572776e+00   1.012988846400000e+01 -2.18572572e+00  -1.01306967e+00   1.20772960e-01
C     8.616625011600000e+00   2.292769784110806e+00   6.681493408000000e+00 -1.21671572e+00   2.27189515e+00  -3.50833300e-01
C     2.452315479750000e+00   3.053592671920191e+00   6.664134776000000e+00 -1.49113993e+00   5.39758680e-01   3.27078400e-01
C     2.299650252675000e+00   2.607811559101749e+00   1.063946414400000e+01  2.37181360e+00  -5.32599120e+00  -7.22599940e-01
C     3.541256517300000e+00   3.242065369674331e+00   1.052757041600000e+01  2.68436602e+00   9.80358560e-01  -3.22893120e-01
C     3.642991750800000e+00   2.316295953444673e+00   6.659188728000000e+00  1.50731691e+00   3.43388287e+00  -5.00153510e-01
C     4.903641767324999e+00   3.087759195475555e+00   6.558890495999999e+00 -4.90170540e-01  -4.02691473e+00  -5.11610400e-02
C     4.857159348600000e+00   2.558344366922745e+00   1.040602123200000e+01 -4.24073431e+00  -1.52083198e+00  -2.98620690e-01
C     5.997078595125000e+00   3.269700446808596e+00   1.018925056000000e+01  2.34250432e+00  -1.42239555e+00   5.70183100e-02
C     6.134005672274999e+00   2.304065934337167e+00   6.533387504000000e+00 -1.43644792e+00   1.63901624e+00   3.83038170e-01
C     7.323044283600000e+00   3.012945487708557e+00   6.650098760000000e+00  2.78402921e+00   2.45479980e-01  -6.85057770e-01
C     7.220082996074998e+00   2.501711450624186e+00   1.015138979200000e+01  2.53710602e+00   1.23494248e+00   1.22049557e+00
C     8.529716272424999e+00   3.206076962842954e+00   1.040828508800000e+01 -5.14086957e+00   2.41508588e+00  -1.49510185e+00
C     9.828198813149999e+00   4.518951809462892e+00   6.572784799999999e+00  6.24206830e-01  -1.15285340e+00  -4.87873870e-01
C     3.713237003700000e+00   5.196683422178649e+00   6.481170576000000e+00 -2.23085775e+00   2.17476470e-01  -1.91787040e-01
C     3.583686106275000e+00   4.637703849555778e+00   1.031914851200000e+01  3.90857320e-01   9.45974410e-01  -3.04337770e-01
C     4.877213294474999e+00   5.401285307395778e+00   1.020740547200000e+01 -4.01961159e+00  -1.85721173e+00   3.01513840e-01
C     4.934546729475000e+00   4.446170300800028e+00   6.444257184000000e+00 -9.08118790e-01   1.75739331e+00   7.72908050e-01
C     6.168552228225000e+00   5.125298041729266e+00   6.440643800000000e+00 -1.61958083e+00   3.76349205e+00  -8.70804500e-02
C     6.031211105024999e+00   4.664105402583627e+00   1.019906540800000e+01  6.88134000e-01   1.16795966e+00   2.46538740e-01
C     7.225288447499999e+00   5.399939452606500e+00   1.026074195200000e+01  2.58669583e+00  -1.63456515e+00   6.10086390e-01
C     7.345168311825000e+00   4.455653853924273e+00   6.507106320000000e+00  1.45743911e+00  -1.67880221e+00   4.63114170e-01
C     8.558133852374999e+00   5.189897790763085e+00   6.425109472000000e+00  1.15536188e+00   5.16970690e-01   5.03746880e-01
C     8.485813747349999e+00   4.640136122648427e+00   1.027569270400000e+01 -1.56794110e-01   3.71309800e-02   1.52153210e-01
C     9.722482740225001e+00   5.305512577058094e+00   1.022787932000000e+01  4.34360900e-02   2.79953805e+00   8.05864400e-02
