72
Lattice="7.395 0 0 3.6975 6.40425786098592 0 0 0 13.6 " PBC="1 1 1" Properties=species:S:1:pos:R:3:force:R:3 Energy="-576.62129299"
C     3.628774086825000e+00   6.193959259331244e+00   3.225915920000000e-01  7.87792340e-01   2.90004850e-01  -1.20656375e+00
C     1.201315235700000e+00   4.487948925247788e-01   3.380360240000000e-01 -5.91606750e-01   1.25781789e+00  -6.07841860e-01
C     1.410232268100000e+00   1.068039364163772e+00   3.440659784000000e+00 -1.03357590e-01  -1.70170568e+00  -4.44648330e-01
C     2.655417527850000e+00   1.732887403257411e+00   3.633767952000000e+00 -2.70050200e-02   5.98730410e-01  -9.12956690e-01
C     6.128127645599999e+00   6.165004136566876e+00   1.471868160000000e-01 -2.85861730e-01   2.63586000e-01   5.96436600e-01
C     3.642264674400000e+00   4.508854984605972e-01   2.988133520000000e-01  2.29980977e+00   1.18812086e+00  -1.89167952e+00
C     3.905564869575000e+00   1.035381299504752e+00   3.480529272000000e+00  8.33770570e-01   2.13773742e+00  -5.02223300e-01
C     5.146618173075000e+00   1.778683674831063e+00   3.325638056000000e+00 -6.47422980e-01   2.86101430e-01  -7.64361380e-01
C     8.652137909174998e+00   6.181067488259063e+00   7.728376800000000e-02 -4.12782915e+00   5.86207650e-01   7.62371720e-01
C     6.093574692974999e+00   5.179620942217722e-01   1.214818640000000e-01  2.97212611e+00  -8.72509780e-01   2.95239210e-01
C     6.382117720649999e+00   1.053595457156642e+00   3.137565968000000e+00 -2.32840170e+00   8.69125990e-01   4.75326230e-01
C     7.571375371874999e+00   1.729687003477033e+00   3.328625568000000e+00  1.80360313e+00   3.36807134e+00   1.30559827e+00
C     1.218390142800000e+00   1.896388874934154e+00   4.153448160000000e-01 -9.15510420e-01   1.63139900e-01  -9.60642510e-01
C     2.436950074800000e+00   2.614854257427813e+00   5.808793920000000e-01  1.12338200e-01  -6.55407140e-01  -1.67922190e+00
C     2.634880725450000e+00   3.159194785306560e+00   3.599433392000000e+00  2.90588078e+00  -2.75777100e-02  -9.89870030e-01
C     3.916353804825000e+00   3.868571693343358e+00   3.338332568000000e+00 -3.26154277e+00   1.71508029e+00  -7.66101950e-01
C     3.673849384950000e+00   1.889642629704430e+00   3.590462560000000e-01 -3.97124200e-01   1.86632440e-01   8.78503470e-01
C     4.899270767699999e+00   2.609489026363019e+00   1.684550400000000e-01  1.07613220e-01   7.80694400e-01  -9.75749370e-01
C     5.136028459125000e+00   3.244021678322826e+00   3.172858648000000e+00 -3.51203600e-02  -3.61889019e+00   2.04241932e+00
C     6.351392641875000e+00   3.904996422262736e+00   3.273387400000000e+00  2.55765958e+00   1.82688055e+00   1.13836225e+00
C     6.112523862824999e+00   1.889234742521327e+00   1.358719070400000e+01  1.41548672e+00   2.56005498e+00   1.10980204e+00
C     7.406101337025000e+00   2.644597488164432e+00   8.616143999999999e-02 -9.63177840e-01  -1.59516519e+00   7.84798520e-01
C     7.610651917724999e+00   3.210203354267310e+00   3.582939720000000e+00 -2.81437470e+00  -2.03031268e+00  -2.71289372e+00
C     8.833930784100000e+00   3.886542361111410e+00   3.537517488000000e+00 -8.21875400e-02   4.49385870e-01   3.61162900e-02
C     2.397520970100000e+00   4.021930549719483e+00   4.878377120000000e-01  1.56356313e+00   1.93848464e+00  -1.66886382e+00
C     3.649264522575000e+00   4.791572292729823e+00   4.142343760000000e-01  1.15246326e+00  -2.25888424e+00  -1.64705990e+00
C     3.840178723275000e+00   5.303780225306964e+00   3.063279368000000e+00  1.40888754e+00   4.50846690e-01   1.70977799e+00
C     5.074434394874999e+00   6.050136022695765e+00   3.244267896000000e+00  1.57442532e+00  -7.70186430e-01   2.41824420e-01
C     4.945940982449999e+00   4.056150420742821e+00   8.371411999999999e-02 -2.40998394e+00   3.43956330e-01   1.25556164e+00
C     6.164653362375000e+00   4.782270748613959e+00   1.348735500800000e+01 -8.57179720e-01  -1.46613825e+00   1.64581405e+00
C     6.365079714599999e+00   5.354671468263717e+00   3.366256224000000e+00 -1.30320383e+00  -6.62246190e-01  -8.71500480e-01
C     7.616525285549999e+00   6.059012516217461e+00   3.363843176000000e+00 -7.02644930e-01  -2.42547755e+00   7.05663080e-01
C     7.397741881124999e+00   4.060818420254396e+00   3.135316800000000e-02  1.82486040e-01   3.24233720e-01  -8.98544110e-01
C     8.635709805750000e+00   4.791474499712301e+00   9.374765600000000e-02 -1.75375800e-01  -2.66713647e+00   1.80129770e+00
C     8.831718717750000e+00   5.283007822810318e+00   3.326637384000000e+00  1.22684380e-01   2.71891425e+00  -1.07320916e+00
C     1.002382947090000e+01   6.074551807488965e+00   3.003117864000000e+00  4.99044000e-02  -3.66179687e+00   2.37789923e+00
C     7.332229539149999e+00   2.356390322117832e-01   6.433191680000000e+00  1.84580305e+00  -2.18674085e+00   5.48812460e-01
C     1.204289800500000e+00   9.046807074373068e-01   6.551548672000000e+00 -3.96127040e-01   1.09476500e-02  -2.51736500e-02
C     1.121008456725000e+00   3.923113235195154e-01   1.023726998400000e+01  8.10847650e-01   1.23673911e+00   8.62336800e-01
C     2.325799157550000e+00   1.098957327919651e+00   1.054161785600000e+01  2.59681670e-01   9.10868010e-01  -3.30598880e-01
C     2.443503597750000e+00   2.215234074625572e-01   6.491354120000000e+00 -1.42919177e+00  -2.75288069e+00   2.97356170e-01
C     3.611746322850000e+00   9.472720962500797e-01   6.549263464000000e+00  1.61664703e+00  -1.05942456e+00  -6.03860990e-01
C     3.579302793975000e+00   3.681625322364990e-01   1.053525020000000e+01 -1.06327115e+00   2.14509202e+00  -1.78113018e+00
C     4.803510879075000e+00   1.107015869627468e+00   1.030584635200000e+01  3.25468370e-01   3.77484170e-01   1.16028272e+00
C     4.815859050075000e+00   2.161036761633750e-01   6.321304208000000e+00  2.22323316e+00  -4.54242460e-01   1.80027135e+00
C     6.108299949749999e+00   8.980976426978556e-01   6.432032824000000e+00 -1.58201940e+00  -4.18728780e-01  -2.56898490e-01
C     5.994348287175000e+00   3.932407094201587e-01   1.013895626400000e+01  2.08262595e+00  -1.22838147e+00   2.86095620e-01
C     7.285286633775000e+00   1.108055921103932e+00   1.013867909600000e+01 -2.50524154e+00  -8.06686970e-01  -1.87442400e-02
C     8.622810966075001e+00   2.294959592000876e+00   6.674697760000000e+00 -1.41974182e+00   2.28821484e+00  -3.50796980e-01
C     2.447590740300000e+00   3.065711577153826e+00   6.653303055999999e+00 -1.29408624e+00   2.74616560e-01   5.23155380e-01
C     2.304519786225000e+00   2.600480477044250e+00   1.062946039200000e+01  1.84441248e+00  -4.73519316e+00  -8.46533370e-01
C     3.538320406500000e+00   3.251708516904448e+00   1.051532320800000e+01  2.81759284e+00   3.74481510e-01  -2.07882160e-01
C     3.636673795575000e+00   2.332205731033378e+00   6.667622632000000e+00  1.91675522e+00   2.48299893e+00  -6.64201550e-01
C     4.916060486625000e+00   3.085893507075780e+00   6.565163903999999e+00 -1.23818051e+00  -3.55499467e+00  -5.05622100e-02
C     4.858798191525000e+00   2.552706378515694e+00   1.040348836800000e+01 -4.24995074e+00  -1.20188732e+00  -4.09480690e-01
C     6.006053721749999e+00   3.264686873542895e+00   1.019527767200000e+01  1.70228198e+00  -9.46283150e-01   6.08472000e-03
C     6.126837994575000e+00   2.293849221773109e+00   6.532534376000000e+00 -7.08703950e-01   2.04677686e+00   4.90219090e-01
C     7.329182133600000e+00   3.014918127214594e+00   6.648618400000000e+00  2.32363005e+00  -5.70190730e-01  -6.87702950e-01
C     7.210255484774999e+00   2.501199878506329e+00   1.015220021600000e+01  3.08714395e+00   9.52427790e-01   1.26718991e+00
C     8.518587869699999e+00   3.197676561850571e+00   1.040445614400000e+01 -4.34260922e+00   2.63393846e+00  -1.48526613e+00
C     9.827216683200000e+00   4.523795605852723e+00   6.577028407999999e+00  9.76831680e-01  -1.21015987e+00  -6.11612360e-01
C     3.720558497400000e+00   5.189120505986618e+00   6.480750064000000e+00 -2.85504504e+00   9.99028200e-01  -1.13034030e-01
C     3.579636567300000e+00   4.641151709859866e+00   1.031762354400000e+01  5.51175920e-01   1.01155127e+00  -2.86114990e-01
C     4.860933756600000e+00   5.397725500664297e+00   1.021066335200000e+01 -2.95758233e+00  -1.65888376e+00   2.31305110e-01
C     4.927981596375000e+00   4.457288220530145e+00   6.450843120000000e+00 -9.19598800e-02   8.48149630e-01   7.47274780e-01
C     6.170127548100000e+00   5.123017549547899e+00   6.448046007999999e+00 -1.26940688e+00   3.46214136e+00  -8.61633200e-02
C     6.038740398225000e+00   4.667264622985965e+00   1.019453620000000e+01  1.90841510e-01   1.27695160e+00   3.29263120e-01
C     7.231936811325000e+00   5.416620815182177e+00   1.025204475200000e+01  2.33780633e+00  -2.58546546e+00   4.87801800e-01
C     7.353210226425000e+00   4.437409916473334e+00   6.514208376000000e+00  1.18760194e+00  -6.15179470e-01   3.07304540e-01
C     8.570376607649999e+00   5.188819505867198e+00   6.426138583999999e+00  2.75280540e-01   4.34504970e-01   5.37629800e-01
C     8.497937849849999e+00   4.641990155298896e+00   1.026098403200000e+01 -7.43178160e-01  -7.02852900e-02   3.33545460e-01
C     9.727525427700000e+00   5.314702623044615e+00   1.022930174400000e+01 -2.03827630e-01   2.40404261e+00  -8.16114000e-03
