72
Lattice="7.395 0 0 3.6975 6.40425786098592 0 0 0 13.6 " PBC="1 1 1" Properties=species:S:1:pos:R:3:force:R:3 Energy="-572.81783854"
C     3.710814364725000e+00   6.347069950715294e+00   1.333991700000000e+01 -2.27601294e+00  -3.04845930e+00   1.03816500e-01
C     1.120669802700000e+00   6.743765501080609e-01   1.339105191200000e+01  5.61797523e+00  -1.22771905e+00  -5.69111480e-01
C     1.304912604150000e+00   8.368857460719756e-01   3.774728824000000e+00  2.79904300e-01   1.08190523e+00  -8.26699590e-01
C     2.555663377875000e+00   1.544415538056791e+00   3.786972632000000e+00  1.92869460e-01   5.03330740e-01  -7.82762380e-01
C     6.045136148850000e+00   6.337291481516596e+00   1.329187799200000e+01  4.43283252e+00  -1.47880151e+00   3.86721530e-01
C     3.679720460325000e+00   6.240949924995787e-01   1.344262134400000e+01  7.40215600e-02  -7.26691300e-01  -1.95468032e+00
C     3.775069260900000e+00   8.468223363972373e-01   3.641091416000000e+00 -4.13715240e-01  -2.59666630e-01  -1.01279800e-02
C     4.960121930250000e+00   1.613019933573048e+00   3.574911096000000e+00  3.17565979e+00  -1.44133034e+00  -2.24393060e-01
C     8.692149333149999e+00   6.254503383990062e+00   1.334370800000000e+01 -2.34961907e+00   2.46711517e+00   4.09679000e-02
C     6.266612664375000e+00   6.971703925556371e-01   1.324523801600000e+01 -6.00292846e+00  -2.85296659e+00   1.89369290e-01
C     6.249026208149999e+00   9.479409569409780e-01   3.579554952000000e+00  4.75781480e-01  -3.51832951e+00  -1.05289500e-02
C     7.534791345524999e+00   1.655586409822746e+00   3.733616976000000e+00 -4.09744134e+00  -5.58415742e+00  -6.64676550e-01
C     8.581603031099998e+00   2.071188610242352e+00   1.337830680800000e+01  2.22492693e+00  -1.32195548e+00   6.12659320e-01
C     2.463759427125000e+00   2.725013064324151e+00   8.955872000000000e-03 -2.17730300e+00   1.77449253e+00  -1.57235946e+00
C     2.606712209100000e+00   3.004888290894891e+00   3.722246968000000e+00 -3.75704344e+00  -9.66365850e-01   2.08266960e-01
C     3.816256748699999e+00   3.713241606397923e+00   3.599088088000000e+00 -5.74652640e-01  -2.83860087e+00  -4.45209190e-01
C     3.676616815800000e+00   2.133551864346303e+00   1.336645740000000e+01  7.47375860e-01  -5.16308775e+00   1.61841612e+00
C     4.894108761900000e+00   2.777598361570032e+00   1.320432867200000e+01  1.03593416e+00  -4.68870670e-01  -8.41997750e-01
C     5.046348369750000e+00   2.998189949513959e+00   3.514554568000000e+00 -9.25462100e-01   2.14153752e+00   1.17410090e+00
C     6.276791992800000e+00   3.767775142927396e+00   3.636722960000000e+00 -4.16961792e+00  -1.85020582e+00  -5.20055900e-01
C     6.131694586875000e+00   2.082078730520389e+00   1.301189547200000e+01  1.38559303e+00  -1.61544341e+00   1.60753807e+00
C     7.433442278925000e+00   2.702893782356969e+00   1.304433446400000e+01 -3.34017663e+00   2.74355443e+00   9.10487500e-01
C     7.360542073124999e+00   2.974576618230618e+00   3.782881616000000e+00  6.77636867e+00   4.40822705e+00  -3.48170260e-01
C     8.660487973424999e+00   3.703092714924603e+00   3.742120920000000e+00  2.00941603e+00  -3.81179600e-02   2.84655920e-01
C     2.409836344275000e+00   4.144556909647354e+00   1.358017582400000e+01  3.07932042e+00  -3.72338650e-01  -9.20308720e-01
C     3.691992425850000e+00   4.851088918257582e+00   1.342928600000000e+01 -5.32907200e-01   1.83408497e+00  -6.16136150e-01
C     3.741167548950000e+00   5.058061979947377e+00   3.535222488000000e+00  1.01073242e+00   3.65391934e+00   5.70973400e-02
C     4.943864947124999e+00   5.822841738475562e+00   3.593196976000000e+00  1.76941839e+00   9.04012960e-01   3.88917130e-01
C     4.916516277450000e+00   4.166709301627673e+00   1.312513342400000e+01 -1.35683297e+00   1.95812370e-01   1.40438915e+00
C     6.163408007399999e+00   4.792987441589148e+00   1.302804424800000e+01 -1.48476266e+00   5.15296864e+00   1.50958115e+00
C     6.228632166224999e+00   5.171411516194724e+00   3.630141240000000e+00  8.80305700e-02  -5.65731710e-01  -3.11245340e-01
C     7.492144565399999e+00   5.809152445172076e+00   3.602860320000000e+00 -1.74781181e+00   3.14668478e+00   7.86420840e-01
C     7.366322522774999e+00   4.113982086027614e+00   1.310012832800000e+01  2.10779162e+00   1.02533594e+00   4.32584430e-01
C     8.613171916350000e+00   4.800592882053369e+00   1.335665914400000e+01 -1.12636967e+00   3.02852911e+00   1.86942400e-02
C     8.701188944174998e+00   5.151544483631747e+00   3.682752296000000e+00  3.11713000e-01  -3.16115826e+00  -9.83015910e-01
C     9.939724398075001e+00   5.773820730941664e+00   3.525807616000000e+00 -3.13938370e-01   4.39176828e+00   8.07691090e-01
C     7.418363393250000e+00   8.716002819724201e-02   6.501905952000000e+00 -5.41494010e-01   2.45346730e-01   2.10947418e+00
C     1.251721626300000e+00   7.986487402633741e-01   6.806996927999999e+00  1.19458579e+00  -4.99501950e-01   8.16428020e-01
C     1.144026503475000e+00   6.045465077225575e-01   1.016650809600000e+01 -1.30747233e+00  -2.23334563e+00   3.05571540e-01
C     2.432521431150000e+00   1.307537474076834e+00   1.015813838400000e+01 -3.81588012e+00  -1.80264789e+00   5.43799650e-01
C     2.517788850075000e+00   2.614410186187800e-03   7.084394768000000e+00 -1.33287922e+00   5.59913602e+00  -6.57592250e-01
C     3.739849057424999e+00   7.984534744412226e-01   7.253141528000000e+00 -6.74912530e-01   6.75094780e-01  -1.81629995e+00
C     3.581851037025000e+00   6.010734786850794e-01   9.986855631999999e+00  3.31368486e+00  -2.69348192e+00  -1.09943056e+00
C     4.840158095700001e+00   1.257340900970154e+00   9.984071439999999e+00 -1.27850372e+00   1.37344663e+00   2.19424227e+00
C     4.934345511525000e+00   9.490501744023301e-02   6.852963976000000e+00 -1.56284004e+00  -2.04252930e-01   1.18545091e+00
C     6.107518557074999e+00   7.484143179927415e-01   6.651288080000000e+00  4.36712331e+00   3.63324867e+00   1.55114800e-01
C     6.049740904425000e+00   5.462575143839814e-01   1.006163958400000e+01  8.46258350e-01   2.30518431e+00  -1.91918200e-01
C     7.255222483125000e+00   1.267942573474177e+00   1.023666927200000e+01  2.61732093e+00  -3.17461260e-01  -6.44504550e-01
C     8.689744811924999e+00   2.263760865580414e+00   6.938659072000000e+00 -1.88620729e+00  -2.52579231e+00  -7.35758990e-01
C     2.464773947175000e+00   2.986696163890039e+00   7.063996807999999e+00  3.01153687e+00  -2.80215910e-01   7.01586470e-01
C     2.389256059275000e+00   2.657382436215507e+00   1.035015025600000e+01 -8.78883840e-01   3.86092004e+00  -7.73559710e-01
C     3.616546232475000e+00   3.416083209140402e+00   1.036462664000000e+01 -1.28306471e+00  -1.23636869e+00  -3.44922530e-01
C     3.752659341975000e+00   2.314389982262959e+00   7.311638528000000e+00 -2.44345933e+00  -3.84619581e+00  -1.92198954e+00
C     4.966303780500000e+00   2.921916775423246e+00   7.104342568000000e+00  1.21396025e+00   2.60075300e+00  -1.33265461e+00
C     4.823795031300000e+00   2.648341993692596e+00   1.033271641600000e+01  1.96625461e+00   2.09659620e+00  -1.72191719e+00
C     6.125324570849999e+00   3.405868994236909e+00   1.023091484000000e+01 -3.26118228e+00   1.18025724e+00  -6.90397600e-01
C     6.195860410274999e+00   2.219919621803684e+00   6.825232216000001e+00 -1.48140828e+00  -1.59666626e+00   6.93046360e-01
C     7.420643900325000e+00   2.928332496904815e+00   6.852010208000000e+00  9.59543580e-01  -4.74848430e-01   1.99144390e-01
C     7.303209636449999e+00   2.680885998519129e+00   1.022736197600000e+01 -1.21866867e+00   1.25348360e-01  -2.16283370e-01
C     8.464205927100000e+00   3.408043880206165e+00   1.023169126400000e+01  5.18951027e+00   1.39812900e-01  -9.37653870e-01
C     9.926783259000000e+00   4.385285853878529e+00   6.848031527999999e+00 -2.65051584e+00  -5.68507720e-01  -1.46373960e-01
C     3.712597225275000e+00   5.057072201895114e+00   6.675767672000000e+00  2.55232458e+00   1.61298618e+00   5.78313400e-01
C     3.565362923175000e+00   4.844720204028705e+00   1.027809487200000e+01  8.02654510e-01  -7.01607700e-01  -3.58482360e-01
C     4.771616576850000e+00   5.502650299739393e+00   1.020178622400000e+01  4.21972176e+00   3.66414051e+00  -9.49642320e-01
C     4.950177540975000e+00   4.403848531243161e+00   6.902867543999999e+00  2.17668300e-02  -2.51188435e+00   3.68734940e-01
C     6.189040112700000e+00   5.058134476146352e+00   7.005651719999999e+00  1.27974311e+00  -2.16686987e+00  -8.81205880e-01
C     6.102621920850000e+00   4.876761794826121e+00   1.003822868000000e+01 -1.00954961e+00  -2.73417640e+00   8.63336340e-01
C     7.354271113125000e+00   5.540398212375226e+00   9.794111807999998e+00 -1.92044141e+00   1.08170379e+00   1.97261680e+00
C     7.455836039774999e+00   4.315506020874649e+00   6.956251623999999e+00 -5.88934370e-01   2.29759918e+00  -1.27632970e-01
C     8.688566936325000e+00   5.092403211657162e+00   6.842209912000000e+00 -1.72815413e+00  -1.99047266e+00   2.37637360e-01
C     8.586608225925000e+00   4.811742374774735e+00   9.897047079999998e+00 -1.63503558e+00   4.33379400e-01   1.39891850e+00
C     9.792565007324999e+00   5.603967772489687e+00   1.003544516800000e+01 -1.19533226e+00  -4.56812043e+00   2.82628260e-01
