76
Lattice="10.7446858958278 0 0 5.37234294791388 9.3051709414712 0 0 0 30 " PBC="1 1 1" Properties=species:S:1:pos:R:3:force:R:3 Energy="-610.25452357"
C     1.421478428592105e-01   1.118274041676038e-01  -2.437632000000001e-01  1.86091308e+00  -1.43752481e+00  -4.61982420e-01
C     1.261802328347417e+01   8.570970620423743e+00  -2.729526000000000e-01  1.24448510e-01   5.73305710e-01   5.14665370e-01
C     1.405654912326835e+01   8.465418158279530e+00  -3.250604999999993e-01 -1.97328828e+00  -2.52199920e+00   8.72536740e-01
C     1.455611168992808e+01   7.112806041512069e+00  -1.772084999999990e-01  1.84389111e+00  -2.28383750e-01   5.59258080e-01
C     8.379060532007841e+00   8.990885999950219e+00  -2.205144000000026e-01 -3.27478028e+00   3.65877693e+00   9.75194200e-02
C     9.738690775686372e+00   8.930781946762860e+00  -1.174371000000001e-01  2.11261696e+00  -2.38845111e+00  -5.60892130e-01
C     1.029865233774891e+01   7.575867730704845e+00  -1.537623000000004e-01  1.74256965e+00   1.61376517e+00   5.98855140e-01
C     1.175273927634463e+01   7.446489192265342e+00  -1.641276000000005e-01 -1.18079764e+00  -2.66182800e-02  -3.94448100e-02
C     1.229481491191745e+01   6.163672929477796e+00  -5.450669999999747e-02  1.89977482e+00  -1.35673885e+00  -8.58636110e-01
C     1.375470612983635e+01   5.937878676240063e+00  -9.986999999999924e-02 -2.68325838e+00   2.07855785e+00   4.57870850e-01
C     6.119291863225912e+00   8.034726925545987e+00  -1.305681000000014e-01 -3.59725919e+00   1.75522785e+00   1.14248900e-01
C     7.474464996299405e+00   7.902605687971920e+00  -9.446700000000163e-02  3.23888101e+00  -1.63650032e+00   4.29481500e-02
C     8.096407386422953e+00   6.569495534563931e+00  -2.368799999999283e-03 -2.55851729e+00   8.15845210e-01  -1.47364569e+00
C     9.475329659911505e+00   6.430820013734855e+00  -1.178187000000008e-01  5.87449620e-01  -1.09551640e-01   4.09031250e-01
C     1.002991135774391e+01   5.115655440794913e+00  -1.601970000000001e-01  1.49136388e+00   1.30695954e+00  -3.33066120e-01
C     1.148711871429528e+01   5.009311015551994e+00  -1.004556000000001e-01 -1.71845119e+00  -9.38785310e-01  -6.42836710e-01
C     1.204302388881342e+01   3.709860363933558e+00  -2.802462000000006e-01  1.46814390e-01  -6.77931090e-01  -1.15006290e-01
C     5.232160310191899e+00   6.883917539781659e+00  -2.050500000002842e-03  1.75773180e-01   1.63798544e+00  -1.43074442e+00
C     5.798860831804060e+00   5.583331750360252e+00  -3.759149999999778e-02 -1.11255530e-01   3.02109200e-02   6.46290570e-01
C     7.217856270931533e+00   5.437736160006517e+00  -1.379361000000010e-01  1.95623900e-02   3.72833040e-01   1.11073113e+00
C     7.753919610062152e+00   4.132362860136480e+00  -1.827533999999993e-01  1.73923930e+00   1.24706219e+00  -9.31234200e-02
C     9.188465457028689e+00   4.016421825999720e+00  -3.109187999999996e-01  4.77467700e-02  -1.68295008e+00   1.34440051e+00
C     9.804474362981109e+00   2.706819605092582e+00  -2.724705000000007e-01 -2.61941897e+00  -1.00752560e-01   4.67577770e-01
C     1.117576914511954e+01   2.551960065706111e+00  -3.532497000000028e-01  1.71650569e+00   4.92596710e-01   8.77593800e-02
C     3.504082914124449e+00   4.635274781345189e+00  -1.437239999999917e-02  3.17646391e+00  -1.37018490e-01  -8.45123430e-01
C     4.956181387424085e+00   4.429775198979307e+00   3.077790000000000e-02 -4.83783580e-01   7.76176850e-01  -9.75410910e-01
C     5.526716794880814e+00   3.133143362793725e+00  -8.349540000000033e-02 -6.18714750e-01   1.30891735e+00   6.22661400e-01
C     6.947649823216635e+00   3.016256644134333e+00  -5.420249999999882e-02 -1.15771017e+00  -1.22853881e+00  -4.35185430e-01
C     7.512656982330955e+00   1.726194630839229e+00  -4.593960000000052e-02  1.75364420e-01  -1.53550789e+00  -5.70669850e-01
C     8.923568388404416e+00   1.546643820363468e+00  -9.921120000000272e-02  1.94867640e-01   2.71726913e+00  -1.39558790e+00
C     9.487311703839749e+00   3.043505534508192e-01  -2.822910000000007e-01  9.66095520e-01  -1.85622951e+00   7.24617700e-01
C     2.729376931472490e+00   3.520711362684895e+00  -2.963100000000018e-01 -2.30998825e+00  -7.68527030e-01   9.79527230e-01
C     3.257280648683789e+00   2.192444550751177e+00  -3.158282999999997e-01 -2.69057640e-01   6.17057440e-01   2.03863670e-01
C     4.639427456134360e+00   2.025487172522193e+00  -1.526679000000009e-01  1.41915216e+00   6.46929200e-01   3.38658800e-02
C     5.222140031015278e+00   7.722563285315398e-01  -1.054080000000006e-01  1.09464728e+00  -2.52872487e+00  -3.61575500e-01
C     6.673028867576292e+00   5.464612378284228e-01  -1.429437000000000e-01 -1.02745880e+00   2.04053181e+00   2.94073910e-01
C     1.015865031611079e+00   1.242426237805381e+00  -3.647273999999996e-01 -9.01593840e-01  -5.67201330e-01   4.36648160e-01
C     2.411142704806323e+00   1.069549468134625e+00  -3.590124000000010e-01  7.34864000e-01  -1.97721934e+00   4.94843780e-01
C     1.602195261649382e+01   9.262507196498646e+00   3.489841200000000e+00 -2.33710959e+00  -1.42512687e+00   4.02035560e-01
C     1.168851716052831e+01   8.727517280353347e+00   3.510127500000000e+00  2.37694644e+00   1.96930300e-01  -1.43749568e+00
C     1.317120752745842e+01   8.875019314129268e+00   3.408692700000000e+00 -2.44407149e+00   9.49801960e-01   3.22473200e-01
C     1.400824413142086e+01   7.734025022672452e+00   3.477134700000000e+00  6.93005050e-01   3.01585158e+00  -3.10033020e-01
C     7.442571383972147e+00   8.242198180582347e+00   3.518842500000000e+00  6.85709410e-01  -3.19340110e-01   7.01070700e-01
C     8.851921049950043e+00   8.397126019923519e+00   3.495483000000000e+00  1.70740940e+00   8.11224320e-01  -3.38996460e-01
C     9.755801258194687e+00   7.290492281834874e+00   3.510360300000000e+00 -2.34284452e+00  -7.73664990e-01  -4.60367200e-02
C     1.114873352762825e+01   7.422289048098265e+00   3.492083400000000e+00 -1.30265420e-01   8.55169460e-01   9.48029340e-01
C     1.198023065505152e+01   6.306950880905505e+00   3.646557300000000e+00  2.03997674e+00  -5.62709400e-01  -5.84819300e-01
C     1.342966562816340e+01   6.512456418580791e+00   3.553257300000000e+00 -7.60032630e-01  -4.34397735e+00   7.33366280e-01
C     4.671087532713583e+00   7.944620674955336e+00   3.518168700000000e+00  1.04185517e+00  -1.18915260e+00   1.77929320e-01
C     5.508690381622955e+00   6.740384719721903e+00   3.646842900000000e+00 -1.77857394e+00   1.97155560e+00  -1.68690343e+00
C     6.862170259645467e+00   6.923899905224942e+00   3.606342000000000e+00  2.72459337e+00   6.68164440e-01  -6.69071810e-01
C     7.754819746123424e+00   5.804883310907892e+00   3.520488300000000e+00 -8.92141860e-01  -9.87924800e-02   3.01130220e-01
C     9.142765944065092e+00   5.996378145750527e+00   3.552378000000000e+00  2.12413376e+00  -8.05792150e-01   3.25295750e-01
C     1.002187669652161e+01   4.847122351326341e+00   3.701123400000000e+00 -5.30559950e-01  -1.62629480e-01  -8.60564270e-01
C     1.144784430860617e+01   4.985857518301143e+00   3.741441300000000e+00 -1.25871930e-01   6.23260910e-01  -9.71686500e-02
C     1.233876852086916e+01   3.860858071276510e+00   3.778503600000000e+00 -1.49982051e+00  -4.33850500e-02   4.65056100e-02
C     3.571789370407849e+00   5.330620801351220e+00   3.600630300000000e+00 -2.08671782e+00   1.52255300e-01   1.29842250e-01
C     4.959235618114590e+00   5.457286882461713e+00   3.462792900000000e+00  3.56598000e-03  -6.02877790e-01   1.74483714e+00
C     5.788517083858418e+00   4.281749470182881e+00   3.518782800000000e+00 -1.03568840e-01   1.72647186e+00  -6.41065780e-01
C     7.204679847718646e+00   4.495812601364846e+00   3.489171300000000e+00  1.69883300e-01  -2.31540788e+00   4.06457510e-01
C     8.061703501498549e+00   3.283652362558909e+00   3.530270100000000e+00 -9.15001390e-01   3.37885684e+00  -2.25271400e-02
C     9.457953944831750e+00   3.532313701174853e+00   3.628150500000000e+00 -5.14177000e-03  -8.94597030e-01   9.24411480e-01
C     1.027730844899600e+01   2.378756312328523e+00   3.777241200000000e+00  2.14962539e+00  -1.15538340e-01  -2.19335462e+00
C     1.175791977292789e+01   2.551179175760826e+00   3.707132100000000e+00 -2.15666483e+00   7.30714740e-01   1.42321096e+00
C     2.988485139397849e+00   4.033684220817353e+00   3.789422700000000e+00  4.99743680e-01  -6.44730060e-01  -1.34400507e+00
C     3.799903135045492e+00   2.830227759753563e+00   3.657081000000000e+00 -1.12515848e+00   1.52308774e+00   1.52094710e-01
C     5.165068987176273e+00   3.015238937588625e+00   3.518074500000000e+00  2.98337865e+00  -1.44318977e+00   1.74676530e-01
C     6.062284589097724e+00   1.856270312685558e+00   3.475026600000000e+00 -1.22710571e+00   9.14988230e-01  -1.52828340e-01
C     7.466678053810527e+00   2.013325314103612e+00   3.497513100000000e+00  3.25814650e-01  -1.44131740e-01  -6.19876850e-01
C     8.329997824910684e+00   8.923498882519832e-01   3.381105600000000e+00  6.14405070e-01  -1.03786363e+00   1.02884593e+00
C     9.753204267612658e+00   1.061195285664693e+00   3.513774900000000e+00 -1.43146150e-01   1.25343529e+00   4.26874670e-01
C     1.824328399806510e+00   1.425672224713126e+00   3.714729000000000e+00  3.46752980e-01  -1.67862477e+00  -1.08758911e+00
C     3.214025229421864e+00   1.542695543281916e+00   3.618164400000000e+00  1.67390694e+00   2.12598410e-01  -8.40519100e-02
C     4.093216190958628e+00   4.105008728279290e-01   3.458462400000000e+00 -2.86793617e+00  -4.42810320e-01   5.30689990e-01
C     5.470192386936972e+00   5.683560258951146e-01   3.425663700000000e+00  1.61321993e+00  -2.70981050e-01   5.32495630e-01
C     1.286414019912470e+00   1.066995105659886e-01   3.567069300000000e+00 -2.93093310e-01   2.52974220e-01   2.56993820e-01
