72
Lattice="7.395 0 0 3.6975 6.40425786098592 0 0 0 13.6 " PBC="1 1 1" Properties=species:S:1:pos:R:3:force:R:3 Energy="-571.28979335"
C     3.633068991900000e+00   6.291430719066293e+00   1.352929305600000e+01  4.62123250e-01   2.92818800e-01  -1.23719903e+00
C     1.248576532800000e+00   4.484471413229808e-01   1.348080878400000e+01 -3.81235125e+00   6.09100248e+00   5.05185810e-01
C     1.254978754050000e+00   9.072297301507440e-01   3.696339376000000e+00  3.37988001e+00  -7.49973100e-01   4.53787610e-01
C     2.585012062275000e+00   1.498692595235636e+00   3.804451080000000e+00 -5.04247700e-02   2.48215897e+00  -1.37778680e-01
C     6.161450772749999e+00   6.280588822849942e+00   1.339320234400000e+01 -2.22626880e-01  -3.04272851e+00  -1.09194933e+00
C     3.667186046250000e+00   5.729739647708076e-01   1.344506499200000e+01 -5.83468100e-02  -6.55971250e-01   3.49406960e-01
C     3.900918775950000e+00   9.490132858770565e-01   3.700710824000000e+00 -4.23569660e+00  -3.47409273e+00  -3.30856380e-01
C     5.059063036950000e+00   1.647297827172598e+00   3.574830584000000e+00  9.49163310e-01   7.21058300e-01  -4.50218540e-01
C     8.545439151675000e+00   6.262817711756806e+00   1.333700224800000e+01  3.10447118e+00   2.06217728e+00   3.91592800e-02
C     6.046855745175000e+00   5.883384838453123e-01   1.328242504000000e+01  2.94852185e+00   4.54162420e-01   1.08723217e+00
C     6.267735632099999e+00   9.075751758197125e-01   3.476019512000000e+00  9.15264220e-01  -2.92040190e-01   5.22087560e-01
C     7.506256961550000e+00   1.667726641235054e+00   3.718311808000000e+00 -2.59803533e+00  -1.94018147e+00  -1.07951728e+00
C     1.206613531350000e+00   1.969329529404838e+00   1.353973214400000e+01  8.97282860e-01   2.09189430e-01  -1.65919140e-01
C     2.463207538275000e+00   2.627846639390973e+00   1.111915600000000e-01 -8.59193020e-01   3.19693485e+00  -2.58796070e-01
C     2.599786273950000e+00   2.916710241868223e+00   3.838633048000000e+00 -1.78328595e+00   3.16787958e+00  -1.03032421e+00
C     3.714746175300000e+00   3.738080904763406e+00   3.514259583999999e+00  3.23153245e+00  -1.12158835e+00   6.87585060e-01
C     3.725439567150000e+00   1.937873992244190e+00   7.290620000000000e-02 -1.23112051e+00   2.39868635e+00  -2.30601887e+00
C     4.863201396375000e+00   2.679458041144084e+00   1.319181504000000e+01  3.18524210e-01   2.43895145e+00   2.20773104e+00
C     4.969415300700000e+00   3.052570808536049e+00   3.482193640000000e+00  3.07121265e+00   2.05435317e+00   5.05587070e-01
C     6.342052128300000e+00   3.840600905012072e+00   3.551046496000000e+00 -3.62565799e+00  -3.75205087e+00   3.20046290e-01
C     6.077934046125000e+00   1.991327834941045e+00   1.312627704800000e+01  2.82511326e+00   1.82811689e+00   7.98030540e-01
C     7.452169598774999e+00   2.822847837607598e+00   1.327975617600000e+01 -2.32290246e+00  -2.95359130e+00  -7.07301320e-01
C     7.521679899599999e+00   3.056333822369428e+00   3.813903215999999e+00  4.92973790e-01   2.21141372e+00  -5.69461420e-01
C     8.792981526224999e+00   3.736363987273718e+00   3.889666640000000e+00 -2.16108630e+00   5.61131400e-02  -2.05049911e+00
C     2.435737442700000e+00   4.173925747469478e+00   9.000643200000000e-02  2.91358179e+00  -2.81521129e+00  -5.76545380e-01
C     3.700185309375000e+00   4.916312634134702e+00   8.925544000000001e-03 -1.03635328e+00  -2.75982199e+00  -7.10147770e-01
C     3.757351617374999e+00   5.187788228224002e+00   3.442618728000000e+00 -7.61937120e-01  -2.47583790e+00   2.43263710e-01
C     4.925529007650000e+00   5.916420690283303e+00   3.580322264000000e+00  2.90503416e+00  -1.45325020e+00  -5.19696960e-01
C     4.911176015175000e+00   4.200785140891740e+00   1.326426482400000e+01 -5.09474530e-01  -2.58152508e+00   8.66216000e-02
C     6.143700960975000e+00   4.853004751996401e+00   1.304246324000000e+01  9.37858840e-01   1.86011311e+00   2.25366755e+00
C     6.246604160775000e+00   5.196167431122868e+00   3.581766040000000e+00  3.85688650e-01   2.84457921e+00   5.13822010e-01
C     7.543618017525000e+00   5.912674519648097e+00   3.648062096000000e+00 -2.93775706e+00   1.02715429e+00  -4.77659510e-01
C     7.449714754575000e+00   4.261826043832758e+00   1.313830951200000e+01 -3.81269130e-01  -4.32958000e+00   1.01754803e+00
C     8.706163043025001e+00   4.903132543373665e+00   1.341475780000000e+01 -3.88435385e+00  -1.69719569e+00  -4.88623170e-01
C     8.693408036099999e+00   5.218772476048732e+00   3.508748999999999e+00  2.06182266e+00  -5.22176701e+00   1.74949110e+00
C     9.923481724275000e+00   5.807029241563751e+00   3.373712696000000e+00  7.86211930e-01   5.83907912e+00   7.51103210e-01
C     7.414245783299999e+00   1.692982216361436e-01   6.652887984000000e+00  2.58612520e-01  -2.56890068e+00   5.30807150e-01
C     1.262844186975000e+00   8.469238438843183e-01   6.868317696000000e+00  1.03122459e+00  -3.33805153e+00   6.96001510e-01
C     1.127215486950000e+00   5.662530804022092e-01   1.002883516000000e+01 -8.80997930e-01  -2.22567028e+00   9.63414000e-02
C     2.364884357775000e+00   1.201542843726225e+00   1.020093132800000e+01 -1.28635280e+00   2.34908143e+00  -6.51356460e-01
C     2.510742931050000e+00   8.909577917800560e-02   7.120679568000000e+00 -3.45995067e+00   7.97382120e-01  -1.67367127e+00
C     3.612132378825000e+00   8.607584497986475e-01   7.228510976000000e+00  4.76889255e+00   1.47295675e+00  -1.32171685e+00
C     3.527574842925000e+00   5.248895799489343e-01   9.923408232000000e+00  4.44641773e+00   5.56062110e-01   1.20816219e+00
C     4.889044222199999e+00   1.277880380608432e+00   1.001875484000000e+01 -4.37520187e+00  -1.30246097e+00  -8.12112350e-01
C     4.844111499675000e+00   1.556771977214454e-01   6.836416720000000e+00  9.71805160e-01  -7.29754800e-02   5.02589940e-01
C     6.134299808400000e+00   7.907390975508024e-01   6.635771431999999e+00 -1.52190910e-01   2.16879454e+00   2.19021624e+00
C     6.031392541350000e+00   4.887534909313057e-01   9.864169080000000e+00  1.53414576e+00   1.20135390e-01   1.14082812e+00
C     7.259198589750000e+00   1.263734912017578e+00   9.994264232000001e+00  4.73941170e-01  -2.37054428e+00   1.99447390e-01
C     1.364234332800000e+00   2.182283783680401e+00   6.968591448000000e+00 -3.56732323e+00   4.02629945e+00   5.82008070e-01
C     2.493544712325000e+00   3.010341708590416e+00   7.187549272000000e+00  6.25614540e-01   1.76294127e+00  -1.40836627e+00
C     2.338822122300000e+00   2.636252035704488e+00   1.031505137600000e+01 -2.74751890e-01   2.25783714e+00  -1.09558695e+00
C     3.584769843525000e+00   3.459062439809176e+00   1.031366077600000e+01 -3.85414800e-01  -6.40125742e+00  -8.49076050e-01
C     3.714640241925000e+00   2.342878042501597e+00   7.309816536000000e+00 -5.30546320e-01  -2.91383477e+00  -1.52046648e+00
C     4.974039542100000e+00   2.915114428894668e+00   7.081559711999999e+00 -8.69028500e-02   3.90025659e+00  -5.03713340e-01
C     4.805139923624999e+00   2.725146529057953e+00   1.008491068000000e+01  9.27574600e-01  -2.10631281e+00   1.13067105e+00
C     6.053532838574999e+00   3.352682337177974e+00   1.002836555200000e+01 -1.25094634e+00   3.21362402e+00  -4.75418180e-01
C     6.165626248574999e+00   2.245463516618923e+00   6.930985543999999e+00  8.61864380e-01  -3.69963030e+00  -9.05073820e-01
C     7.421584507350000e+00   2.861532821253506e+00   6.980742911999999e+00  1.79049804e+00   5.30197130e-01  -5.03735510e-01
C     7.237340485724999e+00   2.664034795025004e+00   1.006827556800000e+01  6.51349860e-01  -1.08144333e+00  -6.46893330e-01
C     8.455184138025000e+00   3.350255891959977e+00   1.004954836800000e+01  3.06974844e+00  -6.35623420e-01   1.16824487e+00
C     9.932378537849999e+00   4.497515733724214e+00   6.886365440000000e+00 -2.27910131e+00  -3.11330943e+00   6.75102790e-01
C     3.790127995200000e+00   5.078125495141499e+00   6.781565880000000e+00  1.64437690e-01   2.84133305e+00  -2.19591800e-01
C     3.660831374849999e+00   4.770255144059606e+00   1.015516692000000e+01 -2.39860409e+00   3.57427229e+00  -1.17433832e+00
C     4.882779252150000e+00   5.481184380159088e+00   9.981379048000001e+00 -2.55796412e+00   3.20087522e+00   4.80188390e-01
C     5.064474365174999e+00   4.397910759525684e+00   6.883683656000000e+00 -4.26546552e+00  -2.01276071e+00   7.31801610e-01
C     6.221979476325000e+00   5.106970208500361e+00   6.955287112000000e+00  2.35529437e+00  -2.58075635e+00   2.93482230e-01
C     6.074518258650000e+00   4.836124601256749e+00   9.895621936000000e+00 -3.89978900e-02  -3.26464457e+00   7.41232910e-01
C     7.243406863050000e+00   5.536912695034921e+00   9.775215967999999e+00  3.51014395e+00  -6.68968920e-01   8.91407840e-01
C     7.430566696200000e+00   4.237715870224637e+00   7.020257576000000e+00  6.73049630e-01   5.86361367e+00  -8.63229470e-01
C     8.615786862300000e+00   5.156702536954769e+00   6.840829784000000e+00  5.35316580e-01  -3.11362129e+00   7.50190790e-01
C     8.539892347049999e+00   4.741540501177880e+00   9.856652631999999e+00 -2.14717429e+00   9.80350750e-01   4.87831780e-01
C     9.757172870100000e+00   5.388156002399571e+00   9.932170304000000e+00  1.20319179e+00   3.86961401e+00   2.64174710e-01
