72
Lattice="7.395 0 0 3.6975 6.40425786098592 0 0 0 13.6 " PBC="1 1 1" Properties=species:S:1:pos:R:3:force:R:3 Energy="-582.36929638"
C     3.681287830575000e+00   6.231244464336692e+00   8.163141600000000e-02  2.82020600e-02   1.00958172e+00   6.40821870e-01
C     1.258266238275000e+00   5.171680943322895e-01   9.568987200000000e-02 -1.63471599e+00   1.48259090e+00  -1.29582430e-01
C     1.324115089725000e+00   9.241401089874953e-01   3.366975528000000e+00 -2.57543880e-01  -5.68617980e-01  -9.08297000e-03
C     2.552489554800000e+00   1.619324925436218e+00   3.293676832000000e+00  1.34807040e-01   5.24271760e-01   4.05300500e-01
C     6.193156613399999e+00   6.241222618295465e+00   1.344373600000000e-01 -2.33322458e+00  -9.80037500e-02  -2.26911990e-01
C     3.683887431900000e+00   5.325410670271692e-01   7.582761600000000e-02  8.96745620e-01   8.10773330e-01   7.18822000e-01
C     3.792968932350000e+00   9.214505128140312e-01   3.325808600000000e+00  3.69081290e-01  -2.83365000e-02   8.94849500e-02
C     5.050281104700001e+00   1.616350147660248e+00   3.336711040000000e+00 -1.30079239e+00   9.64127300e-02   8.41193780e-01
C     8.600642863650000e+00   6.236935992339453e+00   1.535429120000000e-01 -7.97084000e-02  -7.20939300e-02  -6.68442000e-03
C     6.103448792775000e+00   5.239235616933318e-01   1.543946800000000e-01  2.72554579e+00   5.64387180e-01  -5.06714680e-01
C     6.269429419874999e+00   8.775765432796363e-01   3.424226768000000e+00 -1.11337675e+00   2.21801622e+00  -1.15349180e-01
C     7.464254988450000e+00   1.594106110749953e+00   3.396427552000000e+00  2.16116070e+00   2.13828952e+00  -2.21550940e-01
C     1.232278470450000e+00   1.962610053972969e+00   5.872888000000000e-02 -8.09755890e-01   1.96145970e-01   1.18006530e-01
C     2.448029781450000e+00   2.682392536138115e+00   2.425736800000000e-02  7.08990600e-01  -2.87920760e-01   5.68694810e-01
C     2.540931391650000e+00   3.039665332352048e+00   3.307886248000000e+00  1.70265429e+00  -7.48327400e-02  -2.48816600e-02
C     3.784377310425000e+00   3.745113740532364e+00   3.323618048000000e+00 -2.65171410e-01   1.25892162e+00   9.66463410e-01
C     3.685894656750000e+00   1.938797870483074e+00   1.023210960000000e-01 -1.78942410e-01   1.60752175e+00  -1.02444705e+00
C     4.920275340825000e+00   2.670965739051410e+00   8.391988800000000e-02 -1.71814050e-01   1.17126880e-01   6.18398280e-01
C     5.005847951400000e+00   3.049501247743751e+00   3.429749184000000e+00  7.82593160e-01  -1.03368596e+00  -1.19011677e+00
C     6.236680958175000e+00   3.742540893979688e+00   3.398225880000000e+00  1.82880546e+00   1.03610734e+00  -8.31911100e-02
C     6.141905122200000e+00   1.931327303689384e+00   1.346655680000000e-01  2.52887650e-01   2.01566325e+00  -2.89797660e-01
C     7.377831804975001e+00   2.705741243486682e+00   1.068123600000000e-01  1.00775460e-01  -1.43451975e+00  -3.66349850e-01
C     7.529269499024999e+00   3.064835666806314e+00   3.343533072000000e+00 -2.74297635e+00  -1.63993759e+00   5.38570500e-01
C     8.749317748725000e+00   3.763183225999197e+00   3.344112024000000e+00 -1.24494519e+00   5.32578510e-01  -1.25406400e-01
C     2.457351807525000e+00   4.108485695761847e+00   6.418900799999999e-02 -8.90568810e-01   2.82594750e-01   5.15399110e-01
C     3.668974231200000e+00   4.840896285703078e+00   9.164033600000000e-02  9.64153220e-01  -1.66218533e+00  -1.05243280e-01
C     3.799858705950000e+00   5.204661206194851e+00   3.420931896000000e+00 -2.83186940e-01  -1.26670923e+00  -2.78578530e-01
C     5.031840452025000e+00   5.912077514730388e+00   3.387141472000000e+00 -1.43330200e-02  -7.70482760e-01   9.77650900e-02
C     4.918275141225000e+00   4.113190135500647e+00   1.268983360000000e-01 -4.86152230e-01  -4.22026500e-02  -1.99801060e-01
C     6.134493335549999e+00   4.848082887703256e+00   1.862770240000000e-01  7.65947960e-01  -1.69862135e+00  -8.74709090e-01
C     6.262613448374999e+00   5.177947317511168e+00   3.363306112000000e+00 -6.07543330e-01  -9.80126000e-03   3.63372430e-01
C     7.481541984149999e+00   5.907789415795068e+00   3.385544016000000e+00  6.71815840e-01  -9.13837380e-01  -4.96703980e-01
C     7.372304116424999e+00   4.137452794488413e+00   9.196510399999999e-02  9.97044800e-02  -8.92903780e-01   1.07093034e+00
C     8.613848337000000e+00   4.841203690080358e+00   1.898592640000000e-01  6.37964800e-02  -1.69127383e+00  -1.41073223e+00
C     8.726448230550000e+00   5.186846482105689e+00   3.375078136000000e+00 -1.36791650e-01   4.25568910e-01   5.57327460e-01
C     9.952319857874999e+00   5.910055690523985e+00   3.467979464000000e+00  2.58143450e-01  -2.15142317e+00  -7.46377590e-01
C     7.414174754325000e+00   1.462607612195730e-01   6.747600424000000e+00  9.59397010e-01  -1.21599422e+00  -3.70280000e-02
C     1.259155671900000e+00   8.490772755897432e-01   6.733844024000000e+00 -2.83222830e-01  -6.56670220e-01   2.83247200e-02
C     1.125234477375000e+00   5.361367376026662e-01   1.019853024800000e+01  5.45771420e-01   6.62365340e-01  -5.62916000e-01
C     2.337740307750000e+00   1.242649149183842e+00   1.008547562400000e+01  1.29620090e+00   6.16387760e-01   1.07280910e-01
C     2.488553383125000e+00   1.567814198616666e-01   6.785166751999999e+00 -1.68771260e-01  -1.77242305e+00  -1.77320340e-01
C     3.715271848875000e+00   8.353303439655174e-01   6.774489256000000e+00  4.75304470e-01  -2.82510720e-01   2.06944610e-01
C     3.591751241174999e+00   5.234009742519559e-01   1.004439138400000e+01 -4.86013230e-01   1.44966454e+00   1.19175972e+00
C     4.828500950475000e+00   1.275986577516651e+00   1.017612615200000e+01 -9.36231600e-02  -7.42664320e-01  -8.65700290e-01
C     4.950000171900000e+00   1.314294606544920e-01   6.836235296000000e+00  8.78021900e-01  -9.76888600e-02  -8.06877570e-01
C     6.216805712474999e+00   8.561293241322822e-01   6.753263872000000e+00 -2.17712942e+00  -5.26334590e-01   5.14556870e-01
C     6.055356186750000e+00   5.593969381076076e-01   1.020146988800000e+01  3.77521710e-01  -5.59716320e-01   5.99100500e-02
C     7.312853418974999e+00   1.274154831683534e+00   1.021093045600000e+01 -1.60030779e+00  -3.88266370e-01   2.21376580e-01
C     8.653294006499999e+00   2.235722960626755e+00   6.693129704000000e+00 -1.88269430e-01   2.08097480e+00   5.09549140e-01
C     2.507581383675000e+00   2.950099672774855e+00   6.747477888000000e+00 -1.48865592e+00   8.18682590e-01  -7.47964990e-01
C     2.358920733975000e+00   2.691935969073351e+00   1.008573878400000e+01  2.63237860e-01  -1.26968468e+00   2.30338990e-01
C     3.576152302125000e+00   3.398685146067612e+00   1.013642748000000e+01  1.49844750e+00  -1.67054380e-01  -1.80997600e-01
C     3.706342977975000e+00   2.231915565286407e+00   6.731560991999999e+00  1.44364784e+00   1.64992279e+00   4.20902710e-01
C     4.955415974099999e+00   2.979298925848846e+00   6.771804752000000e+00 -8.04983370e-01  -7.97386080e-01  -5.41251500e-02
C     4.843466618700000e+00   2.704523089599131e+00   1.014387592800000e+01 -1.76862303e+00  -1.06182179e+00   3.83361500e-01
C     6.043530805275000e+00   3.397534172845013e+00   1.019178505600000e+01  1.21047126e+00  -9.46357700e-02   2.33052000e-01
C     6.179399399099999e+00   2.275452542772209e+00   6.770393072000000e+00  5.80405710e-01  -8.62742500e-02  -3.54268090e-01
C     7.409741747625000e+00   2.981527543541547e+00   6.722722760000000e+00  3.94557280e-01  -5.99523640e-01   1.79799170e-01
C     7.287465311700000e+00   2.694736999333579e+00   1.022328401600000e+01  9.18507040e-01  -2.17382600e-01  -7.31355380e-01
C     8.556318638700001e+00   3.398854538688009e+00   1.012337991200000e+01 -2.24359319e+00  -3.68026300e-02   6.61953470e-01
C     9.872625458849999e+00   4.399920735855044e+00   6.714060104000000e+00  1.00553197e+00  -5.40179180e-01   7.39865910e-01
C     3.736828199925000e+00   5.104699002492890e+00   6.755994887999999e+00 -1.45815518e+00   5.70062760e-01  -1.01854040e-01
C     3.608580412425000e+00   4.804587281723229e+00   1.018351530400000e+01 -6.81829100e-01   7.67462480e-01  -1.67061540e-01
C     4.859206321575000e+00   5.534041602193705e+00   1.018284468800000e+01 -2.14284292e+00  -7.88059640e-01   3.04973460e-01
C     4.953969216299999e+00   4.389579908773660e+00   6.787041920000000e+00  2.10777490e-01   4.91953000e-01  -1.58668020e-01
C     6.187959444375000e+00   5.114816961400748e+00   6.794944472000000e+00 -6.51161130e-01   4.31543180e-01   5.29890300e-02
C     6.047025793200000e+00   4.808476651564185e+00   1.019859253600000e+01  4.58266070e-01   4.77149210e-01  -4.17017980e-01
C     7.255711736325000e+00   5.526177301626782e+00   1.014241909600000e+01  1.82365143e+00  -5.09675290e-01  -2.42439900e-02
C     7.391323501800001e+00   4.394175091873367e+00   6.773085736000000e+00  1.31163788e+00   4.02068360e-01  -7.01200000e-04
C     8.644238126474999e+00   5.109648212967098e+00   6.791329184000000e+00 -1.71309480e-01   1.13148630e-01  -2.12198220e-01
C     8.517111753749999e+00   4.811820314592891e+00   1.016248929600000e+01 -1.80010190e-01   2.53453420e-01  -2.05666320e-01
C     9.743153687925000e+00   5.502712869338685e+00   1.017658909600000e+01  8.51149150e-01   1.60929903e+00   8.81344900e-02
