72
Lattice="7.395 0 0 3.6975 6.40425786098592 0 0 0 13.6 " PBC="1 1 1" Properties=species:S:1:pos:R:3:force:R:3 Energy="-582.61234637"
C     3.678459390975000e+00   6.313278652627948e+00   1.353582853600000e+01  2.48297990e-01  -1.36335699e+00  -2.41877770e-01
C     1.210793961825000e+00   6.027831593633851e-01   1.354456599200000e+01  4.42643390e-01  -8.97095090e-01  -1.48224300e-02
C     1.289811681375000e+00   8.699188440712771e-01   3.480896472000000e+00  6.13985930e-01  -9.01610350e-01  -1.37239640e-01
C     2.544180606750000e+00   1.542929558105536e+00   3.516701872000000e+00 -1.10561848e+00   1.78130690e+00  -4.34405500e-01
C     6.146772733050000e+00   6.275715694959111e+00   1.353161824800000e+01 -2.40393200e-02   1.30627072e+00  -1.06235800e-01
C     3.683534579475000e+00   6.037429014462847e-01   1.351072620000000e+01 -1.99858890e-01  -2.53901620e-01   6.31454200e-02
C     3.753191781975000e+00   8.345517142948987e-01   3.489808144000000e+00  1.00659124e+00   2.20333907e+00   1.60120430e-01
C     4.989509105624999e+00   1.566136475185082e+00   3.498975768000000e+00  4.94208260e-01  -2.16909850e-01  -4.69190150e-01
C     8.604789720825000e+00   6.273414709152592e+00   1.352281592000000e+01 -2.58208830e-01   7.00723260e-01  -3.03791670e-01
C     6.145460527274999e+00   5.641049001882295e-01   1.353361336800000e+01 -4.02005680e-01   1.83978194e+00   1.73296860e-01
C     6.251751450524999e+00   8.417905750392138e-01   3.450559224000000e+00 -1.66730074e+00   6.07130590e-01   2.21564300e-01
C     7.454299839450000e+00   1.566296389503846e+00   3.452400664000000e+00  8.83894060e-01   3.93440350e-01   8.01108900e-02
C     1.222960141875000e+00   1.986333794661817e+00   1.355560348000000e+01 -8.75401140e-01   2.60541510e+00  -8.99892800e-02
C     2.452696174350000e+00   2.730234007459358e+00   1.355111384800000e+01 -3.78001980e-01  -6.64277900e-02  -3.43000010e-01
C     2.536146309000000e+00   2.997922251535412e+00   3.482656584000000e+00  1.08857730e-01  -5.18134530e-01   2.58224680e-01
C     3.769454422274999e+00   3.722768260177566e+00   3.515742936000000e+00 -6.57517370e-01  -1.08501660e+00  -6.31821070e-01
C     3.684321333525000e+00   2.038581523475897e+00   1.350141713600000e+01 -5.91278150e-01  -1.15982520e+00   7.24777790e-01
C     4.895466483900000e+00   2.730079664844933e+00   1.358821043200000e+01  8.99436250e-01  -2.06260890e-01  -4.71656930e-01
C     4.989345010575000e+00   3.007361038897215e+00   3.474268240000000e+00 -6.56179100e-02  -1.90292423e+00   5.61945110e-01
C     6.224254252274999e+00   3.645127905118900e+00   3.495975744000000e+00  1.11466051e+00   3.38392202e+00  -3.72512140e-01
C     6.135453835125000e+00   2.011358944590396e+00   1.357533626400000e+01  2.05895450e-01   7.08000100e-02  -1.30534050e-01
C     7.358788127024999e+00   2.752162122329420e+00   1.355161364800000e+01  9.22518120e-01  -1.37547166e+00   3.47402690e-01
C     7.480325506650000e+00   2.991522732826228e+00   3.464208320000000e+00 -1.45214252e+00  -9.39040470e-01   2.63471600e-02
C     8.683761961125001e+00   3.712064695930992e+00   3.456237496000000e+00  1.00564549e+00  -4.80253560e-01   3.88847750e-01
C     2.443351778399999e+00   4.148920963080894e+00   1.352697643200000e+01 -3.88049070e-01   7.68419530e-01  -2.87411280e-01
C     3.677901179400000e+00   4.883101369681736e+00   1.350316541600000e+01 -1.67602970e-01  -9.64073220e-01   5.51355550e-01
C     3.765090928575000e+00   5.115669624292227e+00   3.453848656000000e+00  5.07410050e-01   8.80805170e-01   2.47692760e-01
C     4.995609426000000e+00   5.844834792520324e+00   3.458825848000000e+00  4.97474810e-01  -3.38930230e-01   1.10809190e-01
C     4.898031217800000e+00   4.131414155709641e+00   1.357326498400000e+01  5.79592280e-01   1.85055302e+00  -3.29761260e-01
C     6.148559106224999e+00   4.879702694078012e+00   1.353954487200000e+01 -7.72136620e-01  -1.15939114e+00   4.22308110e-01
C     6.247145326875000e+00   5.133423251761405e+00   3.480703760000000e+00 -1.14806081e+00  -9.61503910e-01  -3.57177300e-02
C     7.456069832700000e+00   5.873734902709674e+00   3.475316800000000e+00  5.48129350e-01  -3.28333733e+00   2.62325610e-01
C     7.383659952375000e+00   4.184098462782038e+00   1.356557676800000e+01 -1.53891705e+00  -1.48923434e+00  -5.50035220e-01
C     8.573456329350000e+00   4.869611569010589e+00   1.348382172800000e+01  2.46107786e+00  -1.66763600e-01   7.40692170e-01
C     8.687849991074998e+00   5.115023434674153e+00   3.505196816000000e+00  3.87799180e-01   1.42232284e+00  -6.23947630e-01
C     9.944459231700000e+00   5.822240442705087e+00   3.458476464000000e+00 -1.08955968e+00   1.98380800e-02   1.81569890e-01
C     7.429944554850000e+00   9.480120442032240e-02   6.963975608000000e+00  2.04739070e-01   2.58496260e-01  -2.02195080e-01
C     1.276763351775000e+00   8.043410367770778e-01   6.930261480000000e+00 -8.90804070e-01   7.73030350e-01  -5.49550000e-02
C     1.137974435475000e+00   5.799156039078402e-01   1.005906755200000e+01  1.12888055e+00   3.61007870e-01   4.08437860e-01
C     2.392929303675000e+00   1.295859245826546e+00   1.010649904800000e+01 -5.65199410e-01  -1.93375370e-01   2.38214900e-02
C     2.488338743250000e+00   1.131310870117428e-01   6.855951623999999e+00  9.81419460e-01  -1.16292633e+00   1.48817320e-01
C     3.752652612525000e+00   8.038368935983388e-01   6.829661191999999e+00 -1.23190303e+00  -1.72385470e-01   2.05686620e-01
C     3.630272535674999e+00   5.949790588203462e-01   1.016580293600000e+01 -1.84441856e+00  -7.30204150e-01  -5.03638020e-01
C     4.812089153025000e+00   1.288377279453865e+00   1.009477761600000e+01  3.17764543e+00   1.01034142e+00   2.37693330e-01
C     4.971115337250000e+00   1.141105542088512e-01   6.883696167999999e+00  3.57251890e-01  -1.17957188e+00   1.92068430e-01
C     6.194476103250000e+00   8.367070672776816e-01   6.960324960000000e+00  2.06467700e-01  -2.06717070e+00  -5.25712090e-01
C     6.099767413874999e+00   5.688330356811102e-01   1.007877041600000e+01 -1.12945510e+00   1.01301052e+00   5.64325000e-03
C     7.319760755700000e+00   1.305959849195602e+00   1.004894221600000e+01 -5.81716150e-01  -2.50800350e-01  -9.91859800e-02
C     8.657018387325000e+00   2.246037338123179e+00   6.951187119999999e+00  4.39400210e-01  -8.66515720e-01  -6.68971630e-01
C     2.493098017350000e+00   2.951047823151028e+00   6.870857903999999e+00  2.50342750e-01  -1.27064392e+00   5.07356350e-01
C     2.391818241900000e+00   2.712043737689286e+00   1.007928150400000e+01 -3.62240090e-01  -5.15495100e-02   1.57824280e-01
C     3.608866229175000e+00   3.430967857173457e+00   1.005643391200000e+01  6.66142390e-01   4.92985500e-01   1.36766850e-01
C     3.723504776325000e+00   2.202614292384706e+00   6.847165344000000e+00  8.16054780e-01   2.24747378e+00   1.71678300e-02
C     4.966489838699999e+00   2.966090528268067e+00   6.875747240000000e+00 -4.71244320e-01  -1.98064263e+00  -7.27043000e-03
C     4.848185109375000e+00   2.735433560373314e+00   1.006630642400000e+01 -2.41264020e-01  -8.41141990e-01  -6.50129200e-02
C     6.101995120650000e+00   3.444726700717302e+00   1.004851164000000e+01 -1.19001537e+00  -1.53488249e+00  -6.18889500e-02
C     6.195788641800000e+00   2.215646252661442e+00   6.906780535999999e+00  5.80234300e-02   2.17786134e+00   9.16330500e-02
C     7.440380674650000e+00   2.931986190056524e+00   6.922951208000001e+00 -9.47142240e-01   1.15529170e+00  -5.96081100e-02
C     7.313012300549999e+00   2.736687065764252e+00   1.001582472000000e+01  6.64866240e-01  -9.84350860e-01   7.79693890e-01
C     8.546737196024999e+00   3.414991923601058e+00   1.009659049600000e+01 -1.42322300e-01   1.29518134e+00  -3.70809990e-01
C     9.884173564799999e+00   4.344119284354449e+00   6.939743399999999e+00  9.62947250e-01   1.41218604e+00  -5.15101110e-01
C     3.752477831699999e+00   5.077431657844946e+00   6.931134055999999e+00 -1.76021659e+00   4.25187000e-02   6.02737200e-02
C     3.608425376250000e+00   4.873658803807794e+00   1.003110282400000e+01  8.96316360e-01  -1.57994951e+00   4.63934880e-01
C     4.836095319675000e+00   5.564138155836460e+00   1.007136453600000e+01  7.18134650e-01  -3.60873990e-01  -2.22032960e-01
C     4.966026135225000e+00   4.372693225690991e+00   6.906274615999999e+00  8.74039300e-02  -9.96558300e-02  -2.07723590e-01
C     6.185647360650000e+00   5.078349644166599e+00   6.881867647999999e+00  5.11747940e-01   9.81391730e-01  -1.34171810e-01
C     6.082406061450000e+00   4.815313068744579e+00   1.007090390400000e+01 -1.81274090e-01   3.19359911e+00   4.36962290e-01
C     7.306716345449999e+00   5.575036089309086e+00   1.014798149600000e+01  2.44491200e-02  -8.60008930e-01  -2.14660170e-01
C     7.424045748225000e+00   4.388675819691564e+00   6.884297151999999e+00 -5.67245000e-02  -1.51100686e+00   9.23756900e-02
C     8.658209832750000e+00   5.066371248350412e+00   6.907722472000000e+00  3.30675660e-01   1.13952483e+00  -3.65199100e-02
C     8.525900452424999e+00   4.863017424905039e+00   1.012496186400000e+01  1.31588746e+00  -6.26987830e-01  -9.87406200e-02
C     9.807683752050000e+00   5.559139312363837e+00   1.008166381600000e+01 -2.33093982e+00   6.71041900e-01   1.63140500e-01
