72
Lattice="7.395 0 0 3.6975 6.40425786098592 0 0 0 13.6 " PBC="1 1 1" Properties=species:S:1:pos:R:3:force:R:3 Energy="-571.72111521"
C     3.669294397725000e+00   6.182196815090096e+00   1.354225290400000e+01  1.60185318e+00   2.08484095e+00   9.71796530e-01
C     1.169796562500000e+00   6.422639360909773e-01   5.355299199999999e-02  1.41196052e+00  -5.85393352e+00  -8.96015210e-01
C     1.457540634375000e+00   9.793596696189307e-01   3.743529744000000e+00 -2.57094158e+00   2.10697540e-01  -4.79232340e-01
C     2.609926667700000e+00   1.792310846833307e+00   3.895385168000000e+00 -2.19152440e-01  -1.34479645e+00  -2.24479490e-01
C     6.066320346525000e+00   6.194136401103651e+00   1.346507848000000e+01  2.88705239e+00   2.04102894e+00   4.81530680e-01
C     3.639961760475000e+00   5.639647750262526e-01   1.345092713600000e+01  1.14740312e+00  -4.76062510e-01   7.29241650e-01
C     3.772755920025000e+00   9.703473417880243e-01   3.779537376000000e+00  3.32697050e+00   2.56634173e+00  -1.37435153e+00
C     5.051729045700000e+00   1.704919240671847e+00   3.520547000000000e+00  9.11693800e-02   6.91170700e-02   2.20211119e+00
C     8.700525723600000e+00   6.253236877955668e+00   1.330808905600000e+01 -5.03892784e+00  -1.44219491e+00   1.76578930e+00
C     6.214256840850000e+00   5.546772562351020e-01   1.344853448800000e+01 -2.11688812e+00  -9.30055990e-01  -3.21746630e-01
C     6.313558010100000e+00   1.041668935829122e+00   3.479761688000000e+00 -6.74225330e-01  -1.31248107e+00  -2.15034800e-02
C     7.556383821150000e+00   1.636508061615227e+00   3.697031208000000e+00  1.46508782e+00   4.22659507e+00   1.41069230e-01
C     1.218920955900000e+00   2.017640432827219e+00   9.564132000000000e-02 -1.38124197e+00  -1.32591077e+00  -2.11880810e-01
C     2.419039015050000e+00   2.734235003514815e+00   1.549441200000000e-01  1.34652616e+00  -4.87642428e+00   2.56340600e-01
C     2.607418283700000e+00   3.255206394462423e+00   3.897876416000000e+00  1.45540114e+00  -4.04770591e+00  -1.38533966e+00
C     3.901335151425000e+00   3.784730991994953e+00   3.527585680000000e+00 -3.49374354e+00   4.11912369e+00   1.73280401e+00
C     3.647103370800000e+00   2.010907252283530e+00   1.547987360000000e-01  1.39335747e+00  -2.41010596e+00  -2.74765173e+00
C     4.913276675850000e+00   2.696849764001593e+00   1.344212712000000e+01 -4.13236060e-01  -4.64670871e+00   1.09593515e+00
C     5.129636516925000e+00   3.153423460250864e+00   3.673131792000000e+00 -4.57823150e+00  -4.90611003e+00  -1.72268180e+00
C     6.250881243899999e+00   3.814578099794061e+00   3.609112376000000e+00  7.17662731e+00   2.48099091e+00   7.38665710e-01
C     6.193815323024999e+00   1.989022045941130e+00   1.340106858400000e+01 -4.69322473e+00  -3.59125612e+00   2.88605870e-01
C     7.341737660399999e+00   2.604028371856111e+00   1.350186471200000e+01  4.19007941e+00   3.54611907e+00  -7.27989960e-01
C     7.546824600450000e+00   3.171024218084924e+00   3.795236400000000e+00 -2.21326721e+00  -3.72119416e+00  -4.40599340e-01
C     8.731649208000000e+00   3.894681916681156e+00   3.876314568000000e+00  2.42739992e+00  -1.88213336e+00  -1.14830479e+00
C     2.477109435750000e+00   4.034979225109233e+00   4.661549600000000e-02 -2.74907015e+00   6.28583303e+00  -9.15349400e-02
C     3.687031564050000e+00   4.751071445810291e+00   6.694028800000000e-02  7.50296550e-01   8.91741170e-01  -1.67208891e+00
C     3.875852277224999e+00   5.238046154120981e+00   3.410804792000000e+00  9.16963710e-01   1.60212134e+00   1.62909470e-01
C     5.170804999574999e+00   5.949131654112247e+00   3.501088256000000e+00 -2.85928932e+00   1.39369369e+00   6.69536900e-01
C     4.918620081000000e+00   4.015914646056113e+00   1.342443746400000e+01  1.58426300e-01   5.20136447e+00   1.01105221e+00
C     6.165668880750000e+00   4.757661939488859e+00   1.334870069600000e+01 -1.64917941e+00   1.20392010e-01  -7.93699530e-01
C     6.342282778349999e+00   5.246652644131299e+00   3.607542936000000e+00 -4.75792780e-01  -9.94528350e-01   1.86718290e-01
C     7.525832303025000e+00   5.971238767989496e+00   3.717679408000000e+00  1.95409103e+00  -1.06760366e+00  -1.24367750e+00
C     7.384691887650000e+00   3.977768068368495e+00   1.322265929600000e+01 -7.43504790e-01   4.28921972e+00   2.61536790e+00
C     8.544920207550000e+00   4.764648472473490e+00   1.349196445600000e+01  3.93386592e+00   1.09723277e+00  -1.71931497e+00
C     8.812102999575000e+00   5.192056153747063e+00   3.542182016000000e+00 -1.15871442e+00   7.45222434e+00   6.91121820e-01
C     1.004319668010000e+01   6.043307482752541e+00   3.389151008000000e+00 -6.41261640e-01  -4.90983700e+00   7.40861930e-01
C     7.416132025950000e+00   1.447118914561320e-01   6.926737447999999e+00  4.75576460e-01   1.68998078e+00   1.84527080e-01
C     1.232774490075000e+00   8.675119958823319e-01   7.035269936000001e+00  8.83959400e-02   2.51997993e+00  -6.37134710e-01
C     1.059478026450000e+00   4.164072796751869e-01   9.842333463999999e+00  2.40008317e+00   1.65781598e+00  -1.28632660e-01
C     2.284693125675000e+00   1.162273983891220e+00   1.003819141600000e+01  1.48044605e+00  -1.27424634e+00  -2.32325020e-01
C     2.457897151800000e+00   2.137239179851776e-01   6.947736120000000e+00  1.81965944e+00  -2.93050918e+00  -3.40763820e-01
C     3.792912434550000e+00   8.751046918734120e-01   6.910155920000000e+00 -3.09052467e+00  -6.19710900e-01   5.40242820e-01
C     3.604434405675000e+00   4.011421546826694e-01   1.001137806400000e+01 -4.98526763e+00   3.23120480e-01   2.90697200e-01
C     4.767700739474999e+00   1.088872607110088e+00   9.953678432000000e+00  2.81847872e+00   1.76743516e+00  -7.11666090e-01
C     5.012629721024999e+00   1.571148255258582e-01   6.919275264000000e+00 -1.15187250e-01   7.30248200e-01  -4.63623730e-01
C     6.244330050375000e+00   9.213118606313623e-01   6.939924688000000e+00 -1.91157749e+00  -3.11226148e+00  -2.69591780e-01
C     6.019869430500000e+00   4.710208694279088e-01   9.731057176000000e+00 -3.06140390e-01  -1.46441601e+00   5.12325700e-01
C     7.270340710199999e+00   1.091227132512317e+00   9.639943839999999e+00 -1.80705789e+00   3.74091643e+00   1.82503059e+00
C     8.576029826325000e+00   2.370004429434041e+00   7.106806479999999e+00  3.41359835e+00  -1.80451536e+00  -8.13511500e-02
C     2.502679681875000e+00   3.049835357876307e+00   7.171492840000000e+00 -2.33041715e+00  -3.56815925e+00  -2.01330841e+00
C     2.299494144225000e+00   2.615290835686129e+00   1.008293840800000e+01  1.28904653e+00  -4.70070339e+00  -7.75712100e-02
C     3.549396082875000e+00   3.194396365017258e+00   1.005265624000000e+01  7.73329450e-01   4.12323846e+00  -1.29173921e+00
C     3.686105562150000e+00   2.277271992430235e+00   6.976634352000000e+00  2.75055512e+00   2.16804061e+00   6.74220230e-01
C     4.950025980450000e+00   3.068721962603497e+00   6.982815960000001e+00 -1.18913130e+00  -4.95524333e+00  -4.11274330e-01
C     4.780730174850000e+00   2.481375434258120e+00   9.900144888000000e+00 -1.08154071e+00   2.93917194e+00   5.46673900e-02
C     5.951521549725000e+00   3.285931141758665e+00   9.641603719999999e+00  2.23508806e+00  -2.36061239e+00   2.30768776e+00
C     6.220083398325000e+00   2.267821036978497e+00   7.006071960000000e+00 -1.28432052e+00   6.08992871e+00  -6.40599580e-01
C     7.417778522700000e+00   3.114160940631141e+00   7.054990751999999e+00 -9.26271850e-01  -1.73664374e+00  -7.58720560e-01
C     7.237977675900000e+00   2.535027616820899e+00   9.730560096000000e+00  1.02770893e+00   1.31624941e+00   9.34619200e-02
C     8.535764236200000e+00   3.271836715102956e+00   9.890405112000000e+00 -4.88551756e+00   1.94777166e+00   3.79592550e-01
C     9.832615994549998e+00   4.399143899376627e+00   6.969326120000000e+00  2.97136714e+00   1.94113459e+00   5.30395270e-01
C     3.660601944975000e+00   5.178002266043608e+00   6.944840136000000e+00 -3.12286600e-02  -2.33221016e+00  -5.35397910e-01
C     3.470081638950000e+00   4.689312753648323e+00   9.794011167999999e+00  3.65966193e+00   4.34836000e-02   6.78168270e-01
C     4.759791639075000e+00   5.463457330360030e+00   9.709819280000000e+00 -2.39642240e-01  -4.85290052e+00   1.49848398e+00
C     4.866258896100000e+00   4.435201023894842e+00   6.950597968000000e+00  2.30990200e+00   1.00082912e+00  -3.22231250e-01
C     6.134411398949999e+00   5.088957016460117e+00   6.903262216000000e+00  4.56069460e-01   5.40900108e+00   2.40897230e-01
C     5.996346564074999e+00   4.680275641339499e+00   9.781551528000000e+00 -1.96457000e-01   1.99505279e+00  -5.91263000e-03
C     7.276919080350000e+00   5.398886464529157e+00   9.922701712000000e+00 -2.15219003e+00  -7.67568360e-01  -1.07361250e-01
C     7.439043288900000e+00   4.559494091930778e+00   6.957512208000000e+00 -3.29359536e+00  -4.67702417e+00   7.30898000e-02
C     8.672152772475000e+00   5.117471142028245e+00   6.945584056000000e+00 -4.14448550e-01   3.98208643e+00  -3.44695030e-01
C     8.489316721874999e+00   4.726067493975227e+00   9.944616480000001e+00  4.31266050e-01  -1.07285476e+00  -6.97121250e-01
C     9.697379044650001e+00   5.486263981323326e+00   9.799679240000000e+00 -1.38888070e-01  -3.10006285e+00   8.85718790e-01
