72
Lattice="7.395 0 0 3.6975 6.40425786098592 0 0 0 13.6 " PBC="1 1 1" Properties=species:S:1:pos:R:3:force:R:3 Energy="-568.22063144"
C     3.712007030325000e+00   6.123554434802805e+00   2.069680640000000e-01 -1.46454276e+00   7.64040790e-01  -1.60750438e+00
C     1.231326770925000e+00   4.161765342644910e-01   1.358824429600000e+01  1.17907590e-01   1.66004194e+00   1.38669905e+00
C     1.498764283725000e+00   1.034575771951121e+00   3.252494944000000e+00 -1.92331897e+00   2.18142600e+00   1.00267244e+00
C     2.634312234825000e+00   1.901179067685698e+00   3.008207256000000e+00  2.61415903e+00  -4.31283733e+00   1.31490860e+00
C     6.160647269025000e+00   6.141702436471002e+00   2.610271120000000e-01 -1.62806469e+00  -1.30629870e-01  -3.79306300e-02
C     3.614938522500000e+00   5.258908856653453e-01   3.199960320000000e-01  2.39678643e+00  -1.19848244e+00  -1.75004878e+00
C     3.916027944150000e+00   1.174038669622619e+00   3.246996464000000e+00 -1.64454054e+00  -3.29366074e+00   1.69517633e+00
C     5.128648655850000e+00   1.815222847838400e+00   3.615099504000000e+00 -7.64315860e-01  -1.96701286e+00  -2.14772852e+00
C     8.601671582100000e+00   6.216522804666174e+00   4.267775200000000e-01  3.01307710e-01  -2.33140664e+00  -1.91190103e+00
C     6.159372223125000e+00   4.745235501792787e-01   2.921504400000000e-01 -2.06716390e-01  -2.14110857e+00   8.93023490e-01
C     6.344217754050000e+00   1.074940464348551e+00   3.748440024000000e+00  1.19918022e+00   1.58284355e+00  -1.00956067e+00
C     7.588506333074999e+00   1.749446956848591e+00   3.409192784000000e+00  1.23058191e+00   7.47151620e-01   3.36281400e-02
C     1.238712822975000e+00   1.907073162364570e+00   1.352319617600000e+01 -2.85492156e+00  -8.33121150e-01   7.19087310e-01
C     2.418819605400000e+00   2.618819645809567e+00   1.333890257600000e+01  1.20823955e+00   6.78642280e-01   1.53354369e+00
C     2.693678407425000e+00   3.288542541943659e+00   3.087827368000000e+00  1.77177870e-01   5.57709180e-01   1.70156943e+00
C     3.882939349425000e+00   3.897024786334080e+00   3.599433936000000e+00  1.67531665e+00   2.86273633e+00  -1.49250522e+00
C     3.652703604300000e+00   1.894774873868276e+00   1.347598255200000e+01  1.23769650e+00   1.16752200e-01   3.34079591e+00
C     4.889268401624999e+00   2.567240969814121e+00   3.802719120000000e-01 -6.46605720e-01   1.09815196e+00  -2.24603822e+00
C     5.100172248674999e+00   3.173467250330777e+00   3.450927648000000e+00  1.88422602e+00   3.92669593e+00   1.90217002e+00
C     6.368594558099999e+00   3.974075629456733e+00   3.486641384000000e+00 -1.52347530e-01  -6.69558312e+00  -1.16883970e-01
C     6.137914669274999e+00   1.832888929102632e+00   5.111705519999999e-01  3.18401830e-01   2.97850193e+00  -1.94128244e+00
C     7.349693164425000e+00   2.612557754601795e+00   2.909707760000000e-01  8.84410820e-01  -3.74708230e-01   1.77871308e+00
C     7.611339763649999e+00   3.221204652461797e+00   3.280390992000000e+00  4.38636080e-01   6.26046600e-02   1.95335750e-01
C     8.901193596524999e+00   3.977834608607660e+00   3.133398520000000e+00 -3.46851350e+00   1.09071264e+00   2.88835382e+00
C     2.470499267100000e+00   4.066142728111465e+00   1.358719777600000e+01 -2.33732446e+00  -2.99139951e+00  -1.10872334e+00
C     3.671023274775000e+00   4.698822756357530e+00   3.061373600000000e-02  2.11717638e+00   2.79739254e+00   1.42457872e+00
C     4.023649227900000e+00   5.432468727639955e+00   3.863595712000000e+00 -4.61364962e+00  -3.51317760e+00  -1.89233573e+00
C     5.255583239250000e+00   6.050944047909962e+00   3.663852240000000e+00 -2.62116180e+00   2.38007414e+00  -1.03197456e+00
C     4.898477727900000e+00   4.052189259171254e+00   2.975660960000000e-01 -3.73311330e-01  -3.51862456e+00   1.02527900e-01
C     6.085348864725000e+00   4.721197183957855e+00   5.391977040000000e-01  2.05137783e+00   1.61248792e+00  -3.63420660e-01
C     6.390638313599999e+00   5.291054388555936e+00   3.562809136000000e+00  1.47010741e+00   2.68964296e+00  -8.67270920e-01
C     7.592912902649999e+00   5.977957538953000e+00   3.416909424000000e+00  9.82473670e-01   5.69909115e+00   2.74704700e-01
C     7.332009131174999e+00   4.015460648216417e+00   7.250906640000000e-01  2.71118879e+00  -9.00407610e-01  -5.78164436e+00
C     8.655918048299998e+00   4.711988565623539e+00   1.979840400000000e-01 -3.91187293e+00   2.94851993e+00   3.49033846e+00
C     8.852077633425001e+00   5.416451102348887e+00   3.584536496000000e+00  2.41678800e-02  -3.90930632e+00  -1.79862079e+00
C     1.004095403542500e+01   6.097444019337271e+00   3.838138824000000e+00  3.34250674e+00  -4.73210550e-01  -9.48464000e-01
C     7.349661550799999e+00   2.192342695330788e-01   6.560902072000000e+00  2.49738072e+00  -1.23717218e+00   3.98994190e-01
C     1.152797786925000e+00   9.811389005375958e-01   6.441560984000001e+00  1.87599455e+00  -2.41251458e+00   9.85989060e-01
C     1.099015430925000e+00   3.581428146442146e-01   1.025996797600000e+01 -1.29569700e+00   2.61384670e-01   6.20887030e-01
C     2.222705018850000e+00   1.044497696525884e+00   9.792236232000000e+00  2.80534857e+00  -3.67276420e-01   1.45314134e+00
C     2.416421998500000e+00   2.501045856104796e-01   6.664945880000000e+00  7.41326700e-02   1.37857606e+00  -3.28724250e-01
C     3.682250992350000e+00   9.291868563089113e-01   6.682210943999999e+00 -4.64224300e-02   2.64796540e-01  -5.84493700e-01
C     3.498153909375000e+00   2.710413213638130e-01   9.829406799999999e+00  1.94215557e+00   2.43129474e+00   7.15056020e-01
C     4.936013231925000e+00   1.073129788523793e+00   1.000805014400000e+01 -8.04037227e+00  -1.36259685e+00  -4.98997530e-01
C     4.953597506625000e+00   1.923520769528358e-01   6.750857896000000e+00 -6.42153930e-01   2.87884237e+00  -1.40688240e-01
C     6.224196238499998e+00   8.978515911108744e-01   6.678136247999999e+00 -5.26449822e+00   4.37987645e+00  -6.95121700e-01
C     5.991431329425000e+00   3.853935722643007e-01   1.037954937600000e+01  3.18504938e+00  -3.35093026e+00   6.12487700e-01
C     7.270829741549999e+00   1.026216998634828e+00   1.058610400000000e+01  9.17034500e-02   1.67514165e+00  -2.76960429e+00
C     8.582082079199999e+00   2.350254274577009e+00   6.318006616000000e+00 -1.42918643e+00   2.56192242e+00   6.38157900e-02
C     2.424081147900000e+00   3.025445062029390e+00   6.280928120000000e+00  2.90691680e-01   1.92023569e+00   2.55169934e+00
C     2.272596828375000e+00   2.493492482256976e+00   9.766512920000000e+00  1.31767485e+00  -3.45460700e-02   8.77281640e-01
C     3.548139080775000e+00   3.184913452318798e+00   9.829390071999999e+00  4.12274040e-01  -1.13722440e-01   1.94974855e+00
C     3.657777905400000e+00   2.360834364732043e+00   6.520003200000000e+00 -6.80927390e-01  -2.41670438e+00  -2.97939240e-01
C     4.879802357925000e+00   3.020860317869995e+00   6.579028287999999e+00 -7.99065190e-01   4.13276603e+00   5.75020930e-01
C     4.768067346600000e+00   2.426818586230038e+00   1.014356081600000e+01 -3.74870690e-01   2.21352839e+00  -1.22732497e+00
C     5.932185288599999e+00   3.121352537952449e+00   1.039770374400000e+01  3.84954019e+00   3.26611480e+00  -1.11527402e+00
C     6.116607677625000e+00   2.460481863202764e+00   6.512529320000000e+00  2.41836907e+00  -4.25001649e+00   8.29878480e-01
C     7.329009645224999e+00   3.208850262666649e+00   6.393122816000000e+00  5.24600920e-01  -5.55562742e+00   4.33463020e-01
C     7.271193686475000e+00   2.427099156766884e+00   1.034644126400000e+01 -9.16659660e-01   2.40038822e+00   6.05584880e-01
C     8.546392071374999e+00   3.256937273234244e+00   1.008411331200000e+01 -3.15364872e+00  -4.89425587e+00  -3.51246790e-01
C     9.806424790274999e+00   4.481052244000932e+00   6.575748376000000e+00 -6.03651710e-01  -1.40278079e+00  -1.54005359e+00
C     3.606821955375000e+00   5.181069393217919e+00   6.585626328000000e+00  1.57638807e+00   6.49957110e-01   1.00200820e+00
C     3.572915436674999e+00   4.567510365536719e+00   1.018090736800000e+01 -2.33107033e+00   2.01773203e+00   5.29602900e-01
C     4.790315167125000e+00   5.369797620860673e+00   1.040273710400000e+01 -4.98607830e-01  -2.26655462e+00  -1.76172731e+00
C     4.809391789799999e+00   4.478744597766239e+00   6.698536792000000e+00  3.52148261e+00   3.05871360e-01  -5.44200880e-01
C     6.132271766624999e+00   5.266444682834736e+00   6.792175240000001e+00 -2.97494925e+00  -2.67573910e+00  -1.22083446e+00
C     5.989569638174999e+00   4.677605450067350e+00   1.026961200800000e+01  2.54874600e-02  -4.32767631e+00   7.16186420e-01
C     7.233325740224999e+00   5.297536330063778e+00   1.008718596000000e+01 -3.66582630e-01   1.11571067e+00  -5.07595620e-01
C     7.329949660650000e+00   4.527366235779988e+00   6.605112000000000e+00  1.37352917e+00   3.73884383e+00   6.10537670e-01
C     8.620939661325000e+00   5.233783095833894e+00   6.641452560000000e+00 -1.53482306e+00  -2.22461162e+00   1.24758310e-01
C     8.508540726900000e+00   4.616514529872446e+00   1.004956564000000e+01 -3.03655060e+00   1.20946622e+00   9.62696930e-01
C     9.607461427874998e+00   5.340570509264992e+00   1.026387090400000e+01  6.38314463e+00   2.07113750e-01  -6.49726020e-01
