72
Lattice="7.395 0 0 3.6975 6.40425786098592 0 0 0 13.6 " PBC="1 1 1" Properties=species:S:1:pos:R:3:force:R:3 Energy="-581.70875937"
C     3.705159482175000e+00   6.266659882217334e+00   5.045899200000000e-02 -6.10336110e-01  -2.00720676e+00   6.34025210e-01
C     1.215984549300000e+00   5.554497378181752e-01   5.672587200000000e-02  1.03421493e+00   2.08257370e-01  -2.00114500e-01
C     1.334047905825000e+00   9.195763067513022e-01   3.352756728000000e+00  1.79394770e-01  -2.52966170e-01  -1.34000260e-01
C     2.556997472850000e+00   1.631885596377036e+00   3.227000928000000e+00 -7.35050600e-02   5.60428440e-01   6.15600140e-01
C     6.147988914750000e+00   6.254558972948287e+00   1.350380720000000e-01  4.73886030e-01  -4.82537920e-01  -1.61950810e-01
C     3.697607893050000e+00   5.573619211300140e-01   8.213951200000000e-02 -9.80144400e-01  -3.23462800e-02   3.45763340e-01
C     3.763481480775000e+00   9.047790127954578e-01   3.297067176000000e+00  1.75814710e-01  -3.62014110e-01   1.71627700e-01
C     4.985576481600001e+00   1.593729796558099e+00   3.371321408000000e+00  1.42691461e+00   5.21716730e-01   5.67675050e-01
C     8.597792017200000e+00   6.225332501778390e+00   1.740295440000000e-01  1.08850210e+00   1.17929300e+00  -1.69355370e-01
C     6.173551581000001e+00   5.229098317166725e-01   1.657131440000000e-01 -1.58978181e+00   6.22831720e-01  -5.87022400e-01
C     6.249362532749999e+00   9.242460994550784e-01   3.494970840000000e+00  5.41108120e-01  -1.64500034e+00  -4.34556780e-01
C     7.511115328649999e+00   1.639299677616401e+00   3.395762512000000e+00 -1.76839703e+00  -3.01122279e+00   2.84658270e-01
C     1.224144636000000e+00   1.967514562727314e+00   1.358544854400000e+01  9.92251200e-02   7.89862900e-01   5.17668520e-01
C     2.479873723725000e+00   2.688861925300551e+00   1.353250224800000e+01 -2.24902784e+00   1.07083359e+00   4.24960410e-01
C     2.574724951725000e+00   3.084719478524884e+00   3.252814000000000e+00 -1.75435087e+00  -6.32044610e-01   2.65268700e-01
C     3.791073150150000e+00   3.792202135171851e+00   3.369357024000000e+00  7.77040980e-01  -2.30709424e+00   2.78164720e-01
C     3.686318686049999e+00   1.994854979957440e+00   8.736911999999999e-03 -5.75134400e-02  -1.23190789e+00  -6.76529800e-02
C     4.895616787275000e+00   2.672852049161494e+00   1.078897520000000e-01  1.48251893e+00   3.63066930e-01   1.86741880e-01
C     5.002394338499999e+00   3.002509877610844e+00   3.432970616000000e+00  7.66349540e-01   2.00486155e+00  -6.54959620e-01
C     6.282819731250001e+00   3.721173407842691e+00   3.418722576000000e+00 -2.69202439e+00   1.48029950e-01  -5.59487300e-02
C     6.128866997699999e+00   1.944635351522463e+00   1.691736640000000e-01  1.02807751e+00   5.80613360e-01  -2.20618540e-01
C     7.380004012275000e+00   2.668365354189936e+00   1.281508960000000e-01 -4.12443780e-01   8.05241530e-01  -4.04515300e-01
C     7.459679295225000e+00   2.990240280189763e+00   3.332687208000000e+00  2.29477833e+00   3.62903474e+00   3.60802300e-02
C     8.691472209975000e+00   3.775060050285724e+00   3.286472640000000e+00  1.02506412e+00  -5.71631400e-01   4.59386980e-01
C     2.410649942175000e+00   4.144030479651263e+00   1.358464764000000e+01  1.97383243e+00  -1.57374962e+00   5.61833410e-01
C     3.688746094800000e+00   4.812490584220519e+00   3.228436000000000e-02 -2.55687070e-01   7.00796970e-01   1.96111160e-01
C     3.802519426950000e+00   5.173091160903667e+00   3.494888424000000e+00  3.83218880e-01   8.81126490e-01  -3.39344200e-01
C     5.026183350975000e+00   5.900109365726776e+00   3.423754440000000e+00  9.26543390e-01  -5.84964820e-01   3.24726900e-02
C     4.925462341725000e+00   4.087400317183584e+00   1.415375120000000e-01 -5.90773880e-01   7.09606150e-01  -2.74065530e-01
C     6.165163691324999e+00   4.812387539711552e+00   2.445545200000000e-01 -1.78796599e+00   1.20533309e+00  -9.40147690e-01
C     6.275883036374999e+00   5.157236844188029e+00   3.378967192000000e+00 -4.74499940e-01   3.30416580e-01   1.60426440e-01
C     7.503783481950000e+00   5.892703289809737e+00   3.355131152000000e+00 -1.40126607e+00   2.99347060e-01   6.38702800e-02
C     7.364096886599999e+00   4.139133591963771e+00   1.705234640000000e-01  6.97224030e-01  -2.72461075e+00   2.57857730e-01
C     8.581554076200000e+00   4.826551004266992e+00   1.727161920000000e-01  6.37273230e-01  -6.00029000e-02  -9.69070060e-01
C     8.724708261000000e+00   5.215635158208275e+00   3.411772432000000e+00  3.48720000e-04  -2.42553309e+00  -1.40422170e-01
C     9.970325203874999e+00   5.846094702169122e+00   3.534567376000000e+00 -4.24006710e-01   3.23650707e+00  -6.43038360e-01
C     7.440500251800000e+00   1.183734844107816e-01   6.806787487999999e+00 -1.17362593e+00   4.21684160e-01   7.27178700e-02
C     1.255742509650000e+00   8.511749262092078e-01   6.751566592000000e+00  2.73115050e-01  -4.70010880e-01  -1.24860100e-02
C     1.139678095575000e+00   5.579849913772134e-01   1.018450892000000e+01 -7.91952570e-01  -6.85118000e-01  -4.30838300e-01
C     2.385746762025000e+00   1.259548640782232e+00   9.996326944000000e+00 -2.04462548e+00  -4.44779690e-01   6.19442830e-01
C     2.496754733925000e+00   1.125118593192594e-01   6.790779472000000e+00 -2.86461190e-01   2.14043404e+00  -1.06468210e-01
C     3.759891467100000e+00   7.986837075112896e-01   6.771743416000000e+00 -7.64988500e-01   1.31071200e+00   1.27550270e-01
C     3.566724860324999e+00   5.487585051634686e-01   1.002297410400000e+01  2.27757187e+00  -9.62297730e-01   8.42566290e-01
C     4.809829019175000e+00   1.248040957918755e+00   1.013752364000000e+01  3.44319170e-01   4.08072770e-01  -2.15483230e-01
C     5.001545429475000e+00   1.356148352937378e-01   6.889673096000000e+00 -1.28123532e+00  -8.39554320e-01  -6.13809420e-01
C     6.193241101274999e+00   8.532881391752718e-01   6.844266095999999e+00  1.64953316e+00   3.25485530e-01  -2.92414220e-01
C     6.076189343774999e+00   5.540125583118127e-01   1.024911830400000e+01 -7.34482090e-01   1.01384626e+00  -4.00070660e-01
C     7.300009487175000e+00   1.287467618667430e+00   1.024615105600000e+01  7.41529700e-01  -7.50468180e-01  -1.87039590e-01
C     8.632356395100000e+00   2.283108064532896e+00   6.687275176000000e+00  3.68156300e-02  -1.39599957e+00   2.89362430e-01
C     2.466837226125000e+00   2.927446019531834e+00   6.694926400000000e+00  1.79324329e+00   1.26999552e+00  -1.95284620e-01
C     2.376588424275000e+00   2.648943801803699e+00   9.982644528000000e+00 -7.20653530e-01   2.71313471e+00   7.30230450e-01
C     3.608172356324999e+00   3.405171250343062e+00   1.005478328000000e+01 -1.17737253e+00  -8.96050860e-01   9.14045300e-02
C     3.745926379350000e+00   2.242793261304196e+00   6.691228288000000e+00 -1.52961329e+00  -1.23547388e+00   5.25425690e-01
C     4.945777811775000e+00   2.947683346284277e+00   6.762282168000000e+00  7.22290550e-01   1.99277167e+00   1.83484000e-03
C     4.814108875425000e+00   2.682838464612907e+00   1.012106492000000e+01  1.40756251e+00  -2.04852310e-01   2.57056370e-01
C     6.087775460025000e+00   3.392304327791379e+00   1.020812355200000e+01 -1.84334896e+00   2.76747730e-01   7.05710900e-02
C     6.195958763775000e+00   2.286371482210616e+00   6.773762200000000e+00 -1.93765620e-01  -1.00190843e+00   4.18253300e-02
C     7.422205650375000e+00   3.006213267803546e+00   6.716450984000000e+00 -6.74282580e-01  -7.43780500e-02   3.22007610e-01
C     7.313297599649999e+00   2.714655906385223e+00   1.021937048000000e+01 -1.13231965e+00  -1.36054335e+00  -2.95681390e-01
C     8.496877517774999e+00   3.402860722192332e+00   1.010932431200000e+01  3.14280935e+00   3.10082990e-01   1.39757110e-01
C     9.884964866774999e+00   4.349943764750384e+00   6.740092952000000e+00 -9.56113220e-01   1.03731149e+00   5.79866840e-01
C     3.700469092500000e+00   5.089559785209900e+00   6.800495447999999e+00  6.43298440e-01   2.62085320e-01  -1.22031490e-01
C     3.589530152925000e+00   4.821722129797974e+00   1.016591282400000e+01 -7.32708420e-01  -3.96081090e-01  -1.32918140e-01
C     4.789620850575000e+00   5.496959027906947e+00   1.020029620800000e+01  2.29341322e+00   2.22728407e+00   3.10952700e-02
C     4.937059439550000e+00   4.409662124400733e+00   6.810492535999999e+00 -4.24931240e-01  -1.22882686e+00  -1.99128640e-01
C     6.135970634700000e+00   5.143902218684830e+00   6.839493311999999e+00  1.74792326e+00  -2.21324618e+00  -2.92326960e-01
C     6.055212095174999e+00   4.809782671869575e+00   1.021188776000000e+01 -3.74032960e-01  -2.67956330e-01  -4.08971480e-01
C     7.278010138650000e+00   5.522815386463175e+00   1.014958643200000e+01  1.95554000e-01   6.01437950e-01   6.74941300e-02
C     7.400731901474999e+00   4.418224425031818e+00   6.785845664000000e+00  2.65081170e-01   7.30210890e-01   2.24984150e-01
C     8.659545517649999e+00   5.114539208737359e+00   6.844298464000000e+00  6.02036200e-02  -1.05498770e+00  -4.87085230e-01
C     8.524373791650000e+00   4.836207600438614e+00   1.017899289600000e+01  1.27416580e-01  -1.45731830e-01  -4.53786650e-01
C     9.775545858525000e+00   5.564213597994051e+00   1.018669444000000e+01 -9.61361580e-01  -1.45915568e+00   1.35786840e-01
