72
Lattice="7.395 0 0 3.6975 6.40425786098592 0 0 0 13.6 " PBC="1 1 1" Properties=species:S:1:pos:R:3:force:R:3 Energy="-581.63650245"
C     3.683213414625000e+00   6.287338590421490e+00   1.349958018400000e+01  5.03016060e-01   6.91809200e-01   5.57519860e-01
C     1.186458717675000e+00   6.656413345147567e-01   1.354383308800000e+01  1.25508736e+00  -2.97116434e+00  -2.62601200e-01
C     1.329014942775000e+00   8.291305100164087e-01   3.531723344000000e+00 -1.43225804e+00   5.96344630e-01  -1.55635660e-01
C     2.525497989675000e+00   1.590934017789316e+00   3.584046488000000e+00 -3.19918430e-01  -5.65972760e-01  -5.63005000e-03
C     6.112661409825000e+00   6.291021807201932e+00   1.347795944800000e+01  1.10986866e+00   1.16737173e+00   2.92107980e-01
C     3.662937101100000e+00   6.183280223392272e-01   1.348575768800000e+01  5.92609030e-01   1.91281890e-01   3.26409410e-01
C     3.715924568550000e+00   8.197743375809989e-01   3.547468336000000e+00  1.91307502e+00   1.56679376e+00  -4.67910560e-01
C     4.977717593250000e+00   1.552084188546091e+00   3.447061576000000e+00 -6.95812100e-02  -4.79938090e-01   8.50734640e-01
C     8.639400465375001e+00   6.316126498013133e+00   1.344798001600000e+01 -1.78047918e+00  -8.18076830e-01   6.60430310e-01
C     6.191077952850000e+00   6.230565420875797e-01   1.348626510400000e+01 -1.92612795e+00  -6.80512780e-01  -2.50972280e-01
C     6.225121316025000e+00   8.559462904426434e-01   3.432200856000000e+00 -7.80344940e-01  -3.52225950e-01   4.55482400e-02
C     7.451637047850000e+00   1.520395024058711e+00   3.496053128000000e+00  1.23010801e+00   2.11040094e+00   9.68333800e-02
C     1.212195018525000e+00   2.057420672652345e+00   1.357365326400000e+01 -2.58558430e-01  -3.62533190e-01  -2.17862250e-01
C     2.428621936724999e+00   2.783814014036055e+00   2.483768000000000e-03  9.02012890e-01  -1.99447426e+00   7.53283300e-02
C     2.517673562025000e+00   3.034566198201338e+00   3.588527008000000e+00  1.07179257e+00  -2.17207173e+00  -6.62520550e-01
C     3.792942606150000e+00   3.673330015244089e+00   3.448987064000000e+00 -1.82273126e+00   1.55041354e+00   9.34418930e-01
C     3.661189403774999e+00   2.071954623524986e+00   1.359988929600000e+01  6.73900700e-01  -1.51688371e+00  -1.10176669e+00
C     4.918765503675000e+00   2.763485874907158e+00   1.346054138400000e+01 -4.79093870e-01  -1.72908068e+00   5.62459690e-01
C     5.019131774774999e+00   2.977283441857725e+00   3.516607080000000e+00 -2.33368595e+00  -1.68163782e+00  -9.76518950e-01
C     6.189244066800000e+00   3.671619822225155e+00   3.474470064000000e+00  2.99702580e+00   1.12643282e+00   3.53569330e-01
C     6.171910556549999e+00   2.046999856390289e+00   1.344214194400000e+01 -2.19143294e+00  -1.56876195e+00   2.06712160e-01
C     7.361353896225000e+00   2.703903605736333e+00   1.347426922400000e+01  1.48133938e+00   1.52802985e+00  -2.01734070e-01
C     7.440700508399999e+00   2.991754310790446e+00   3.529849536000000e+00 -2.14691780e-01  -1.94573612e+00  -6.89932700e-02
C     8.667394607624999e+00   3.696814236688974e+00   3.570152728000000e+00  6.29555410e-01  -9.60153500e-02  -5.38665540e-01
C     2.467888203525000e+00   4.153344704197689e+00   1.357153887200000e+01 -2.06331121e+00   1.92746519e+00   9.57640600e-02
C     3.682534368750000e+00   4.849953571424162e+00   1.356600707200000e+01  1.23782420e-01   1.26084001e+00  -6.29809480e-01
C     3.773726365875000e+00   5.108281800510089e+00   3.426021968000000e+00  2.43394350e-01   4.42953190e-01  -1.02497500e-02
C     5.028481753950000e+00   5.808892048047489e+00   3.456881320000000e+00 -1.16271447e+00   6.89552250e-01   2.10898310e-01
C     4.896902334075000e+00   4.144553451348110e+00   1.346527282400000e+01  1.10027502e+00   1.49016326e+00   3.08113890e-01
C     6.141735369975000e+00   4.872255438782933e+00   1.343414256000000e+01 -3.19832090e-01  -7.87189450e-01  -3.92324270e-01
C     6.231241011300000e+00   5.102230097045282e+00   3.490102992000000e+00 -3.36638520e-01  -7.54511880e-01   2.21069800e-02
C     7.437000678974999e+00   5.809986215502870e+00   3.531764280000000e+00  1.29319735e+00  -3.08960300e-01  -5.38163240e-01
C     7.367399752424999e+00   4.096371017338400e+00   1.337970856000000e+01 -1.55975010e-01   3.36588027e+00   1.25751474e+00
C     8.579577022950000e+00   4.853957641523390e+00   1.352143456800000e+01  1.47817638e+00   8.09303590e-01  -9.28289210e-01
C     8.701592933024999e+00   5.082111569276142e+00   3.460986480000000e+00 -5.99832750e-01   2.83442379e+00   5.77955690e-01
C     9.933926939925000e+00   5.855212956425032e+00   3.427619152000000e+00 -3.21072650e-01  -2.54047156e+00  -1.92068100e-02
C     7.427530198275000e+00   7.281250527090541e-02   6.823194528000000e+00  4.93603040e-01   6.08853740e-01   2.44662740e-01
C     1.265576047875000e+00   7.888315893472014e-01   6.910653544000001e+00 -2.94808130e-01   1.10720526e+00  -2.37146610e-01
C     1.137961346325000e+00   5.905999553808354e-01   1.011956960000000e+01  1.74533547e+00   3.73343640e-01  -4.09924340e-01
C     2.386736508825000e+00   1.319346477272624e+00   1.016898275200000e+01  2.73188450e-01  -9.96253110e-01  -2.11714550e-01
C     2.495482387200000e+00   9.742861524996600e-02   6.917279056000000e+00  5.19399780e-01  -9.99279440e-01  -8.40651900e-02
C     3.770332393650000e+00   7.971774260626177e-01   6.928727127999999e+00 -1.44333139e+00  -8.91943410e-01   1.62575400e-02
C     3.652858196775000e+00   5.846278568412283e-01   1.009237259200000e+01 -2.71740467e+00   1.42816390e-01   6.02426320e-01
C     4.836975472574999e+00   1.286600738323501e+00   1.012417048000000e+01  2.01153782e+00   7.86143550e-01  -6.05547780e-01
C     4.988011100474999e+00   7.715715380312940e-02   6.881448767999999e+00  4.31781380e-01   3.15130510e-01  -3.62795650e-01
C     6.221589131250000e+00   8.139540199526737e-01   6.826636416000000e+00 -9.19838970e-01  -1.02835998e+00   4.61600600e-01
C     6.092255240099999e+00   6.169991388332773e-01   1.002612889600000e+01 -3.14453980e-01  -5.68130960e-01   4.05512470e-01
C     7.333055412749999e+00   1.284170770763681e+00   1.004289076000000e+01 -1.03388274e+00   1.96949530e+00   6.05454100e-01
C     8.635406204024999e+00   2.246863615472276e+00   6.941515888000001e+00  1.05398037e+00  -7.05588350e-01   2.64614370e-01
C     2.504922770250000e+00   2.942068285120365e+00   7.020698896000000e+00 -6.85984160e-01  -1.64811759e+00  -1.21098248e+00
C     2.385679208700000e+00   2.746335720656128e+00   1.020371606400000e+01  3.03870610e-01  -1.63579912e+00  -3.95239850e-01
C     3.622002374400000e+00   3.398003284733257e+00   1.018303808000000e+01  4.43630590e-01   2.37302014e+00  -3.51792230e-01
C     3.735500871375000e+00   2.196765539851483e+00   6.967491888000000e+00  5.53006860e-01   1.73558528e+00   1.02001090e-01
C     4.971117481799999e+00   2.953368470029177e+00   6.942824072000000e+00 -9.08213910e-01  -1.91855704e+00  -2.12126920e-01
C     4.859939535824999e+00   2.694001854573830e+00   1.012242383200000e+01 -6.75871960e-01   1.27477824e+00   9.49385100e-02
C     6.079124936925000e+00   3.444758914134338e+00   1.003737419200000e+01  4.71664210e-01  -1.18306629e+00   7.30088530e-01
C     6.201569683050000e+00   2.213626221647241e+00   6.905131127999999e+00  1.74841690e-01   2.05831993e+00  -2.35514720e-01
C     7.425796736324999e+00   2.983587665209952e+00   6.915542063999999e+00 -8.22452600e-02  -1.12935807e+00  -1.43176220e-01
C     7.324930896000000e+00   2.724291112335593e+00   1.008882244800000e+01  4.53560120e-01   3.98376500e-01  -5.08853780e-01
C     8.574508157175000e+00   3.450671837331319e+00   1.010008528800000e+01 -1.52532835e+00   3.12900310e-01   4.69743040e-01
C     9.870593682599999e+00   4.331084057906206e+00   6.869482263999999e+00  1.58172658e+00   7.52108990e-01   5.98727220e-01
C     3.710203352850000e+00   5.068016374109489e+00   6.855862544000000e+00 -4.91559090e-01  -3.70334930e-01  -8.88657600e-02
C     3.586358918100000e+00   4.870133900281650e+00   1.010708235200000e+01  1.59587735e+00  -6.43615700e-01  -1.94296480e-01
C     4.830658071975000e+00   5.594578490041141e+00   1.005811609600000e+01  5.74954250e-01  -1.89403143e+00   6.05929580e-01
C     4.920954571574999e+00   4.356878679416663e+00   6.904842400000000e+00  1.60121175e+00   6.63632200e-02  -5.43331300e-02
C     6.173612515799999e+00   5.045076194369812e+00   6.894397871999999e+00  2.84758670e-01   2.40987248e+00   4.10826600e-02
C     6.083676818250000e+00   4.846344900205209e+00   1.006869268000000e+01 -1.44450640e-01   1.55851263e+00  -2.32063170e-01
C     7.345661336475000e+00   5.569274882980809e+00   1.006049052000000e+01 -1.57302040e+00  -2.26120760e-01   1.09641200e-01
C     7.443670747125000e+00   4.416418424315298e+00   6.898850239999999e+00 -1.66065787e+00  -2.48552687e+00   4.03432100e-02
C     8.676420833700000e+00   5.046965578523669e+00   6.874216696000000e+00 -3.25146710e-01   2.01812468e+00  -9.28547600e-02
C     8.562425466675000e+00   4.883882753183234e+00   1.007302428000000e+01  1.30414560e-01  -7.05683020e-01  -4.22387900e-02
C     9.780608845274999e+00   5.616447749781469e+00   1.005124143200000e+01  1.96659500e-02  -1.27584891e+00   2.74112900e-01
