72
Lattice="7.395 0 0 3.6975 6.40425786098592 0 0 0 13.6 " PBC="1 1 1" Properties=species:S:1:pos:R:3:force:R:3 Energy="-572.96446185"
C     1.100093444445000e+01   6.317617217115204e+00   1.344341748800000e+01  2.58332059e+00  -3.46708200e-02  -1.12915107e+00
C     1.185660945075000e+00   6.396914097511938e-01   1.342698991200000e+01  3.47979480e-01  -3.22348628e+00  -4.68071840e-01
C     1.311003348000000e+00   8.533907994287676e-01   3.763268648000000e+00 -1.28683845e+00   8.80486800e-02  -5.34648490e-01
C     2.550569664900000e+00   1.536360326563062e+00   3.821623528000000e+00  7.37976050e-01  -1.03151337e+00  -9.61033630e-01
C     6.155504342325000e+00   6.258503675577153e+00   1.329927068000000e+01 -1.41990737e+00   1.60264799e+00   6.88611960e-01
C     3.666260894775000e+00   5.481684168442482e-01   1.349215703200000e+01  1.28270256e+00   1.40404689e+00  -1.94933151e+00
C     3.819548300175000e+00   8.701391505416611e-01   3.654890112000000e+00  2.56378480e-01   7.27886090e-01   2.09972890e-01
C     5.083688423925000e+00   1.651610518458100e+00   3.621374952000000e+00 -2.11655417e+00  -1.64555045e+00  -1.46714587e+00
C     8.641101130499999e+00   6.309742413565391e+00   1.335532199200000e+01 -1.38940371e+00  -1.86847580e-01  -3.48657440e-01
C     6.143170998299999e+00   6.792801622663056e-01   1.322492043200000e+01 -3.16558260e-01  -1.62814929e+00   9.02493270e-01
C     6.260504098575000e+00   9.005992098605502e-01   3.538905776000000e+00 -5.55539160e-01  -9.20077400e-02   1.66201960e-01
C     7.458849280425000e+00   1.572810224215831e+00   3.727016216000000e+00  1.79840233e+00   2.70396103e+00   1.37939930e-01
C     1.212787949625000e+00   2.021509693298496e+00   1.343573117600000e+01 -7.80089350e-01   1.15708616e+00  -2.02230320e-01
C     2.457055711725000e+00   2.731765457641421e+00   1.013676000000000e-01 -2.52816870e-01  -2.18679875e+00  -2.05333489e+00
C     2.557079446425000e+00   2.916191304853827e+00   3.759317712000000e+00  4.46230110e-01   2.25265652e+00   1.66180300e-01
C     3.773725737299999e+00   3.636853668006359e+00   3.624016479999999e+00 -1.96117740e-01   2.81876232e+00  -1.76021719e+00
C     3.657883727850000e+00   2.001813334207487e+00   1.343096043200000e+01  1.67558493e+00   5.52547440e-01   1.42681881e+00
C     4.905138145575000e+00   2.778862626114174e+00   1.319464710400000e+01 -5.95611740e-01  -1.40173839e+00  -3.37033000e-01
C     5.085386685674999e+00   3.053367434171254e+00   3.414274696000000e+00 -3.52060848e+00  -1.53877612e+00   2.66774890e+00
C     6.212411418599999e+00   3.786437278416593e+00   3.595820416000000e+00  3.82333151e+00   1.59382852e+00   5.14372170e-01
C     6.179416777349999e+00   2.085658006195764e+00   1.299483468000000e+01 -3.36853877e+00  -1.93663377e+00   1.57541123e+00
C     7.373887201050000e+00   2.709819923189980e+00   1.305498775200000e+01  3.46960369e+00   2.56781285e+00   2.21553835e+00
C     7.473187261050000e+00   3.094354364262362e+00   3.853741015999999e+00 -1.07836934e+00  -2.83673777e+00  -1.85452106e+00
C     8.756072933324999e+00   3.708499061324858e+00   3.790859376000000e+00 -6.16463920e-01  -1.26735721e+00   2.45936860e-01
C     2.496242925975000e+00   4.096995560564907e+00   8.011311200000000e-02 -2.39278020e+00   2.92554046e+00  -2.02319043e+00
C     3.672233762325000e+00   4.832021969629055e+00   1.349756534400000e+01  5.54898130e-01   2.32830852e+00  -3.77859010e-01
C     3.694287648975000e+00   5.119548811363186e+00   3.481098976000000e+00  2.07811005e+00  -4.32355310e-01   7.73524170e-01
C     4.971739660124999e+00   5.841332239854111e+00   3.605644512000000e+00 -2.24105031e+00   1.75937118e+00  -3.20689920e-01
C     4.886319164700000e+00   4.191498390611533e+00   1.314764360000000e+01  8.53097490e-01  -1.96591890e-01   7.27457740e-01
C     6.166092947025000e+00   4.905163333541071e+00   1.295698724000000e+01 -5.34779100e-01  -1.35733452e+00   2.45472285e+00
C     6.198687703650000e+00   5.265619366124318e+00   3.626313384000000e+00  1.54192491e+00  -4.90921047e+00  -4.80513760e-01
C     7.462792590225000e+00   5.850334833213070e+00   3.581550752000000e+00  2.04765896e+00   5.38605390e-01   1.28561186e+00
C     7.412682110550000e+00   4.162091063199670e+00   1.314524809600000e+01 -6.41646420e-01   3.50317850e-01  -1.17678836e+00
C     8.635969000499999e+00   4.870712076681251e+00   1.331232178400000e+01  9.81561920e-01  -7.69910040e-01   2.00186149e+00
C     8.755568335500000e+00   5.074484162207460e+00   3.668210224000000e+00 -2.50222366e+00   3.84739672e+00  -1.58414740e+00
C     9.891422476574999e+00   5.895242257838334e+00   3.433951176000000e+00  1.45510801e+00  -2.61399750e+00   1.46091826e+00
C     7.442810782574999e+00   9.158594676170941e-02   6.507813383999999e+00 -1.32756037e+00   2.19360411e+00   1.16299468e+00
C     1.278187259025000e+00   7.432746448897770e-01   6.803248632000000e+00 -5.61361600e-01   3.12679330e+00   7.27942720e-01
C     1.133789789850000e+00   5.412149938727533e-01   1.008390523200000e+01 -6.19786790e-01   2.09666942e+00   1.33226292e+00
C     2.331361972350000e+00   1.302158922155692e+00   1.019878456800000e+01  2.40821837e+00  -1.79114810e+00  -7.56761970e-01
C     2.452824847350000e+00   8.494774136208361e-02   7.119189144000001e+00  2.72351087e+00  -1.14195675e+00  -3.89987700e-01
C     3.711573683325000e+00   8.870323019247691e-01   7.330460519999999e+00 -1.55885034e+00  -2.21412357e+00  -2.54379605e+00
C     3.653546782200000e+00   5.787138449204112e-01   9.966746127999999e+00 -3.70627045e+00  -1.25008293e+00  -4.10475250e-01
C     4.806929883375000e+00   1.299647492435893e+00   9.931561975999999e+00  2.80152188e+00  -2.20842870e-01   2.34750439e+00
C     4.810168893374999e+00   1.368693013233546e-01   6.811482615999999e+00  2.84308122e+00  -6.80533920e-01   1.11785184e+00
C     6.093814734675000e+00   7.964020625635074e-01   6.615408424000000e+00  1.28616784e+00  -8.21335960e-01   6.72372270e-01
C     6.060790106700001e+00   5.350731824998560e-01   9.999971744000000e+00 -1.31112172e+00  -2.51110900e-01  -3.05858460e-01
C     7.253162051249999e+00   1.207047879740103e+00   1.019553090400000e+01  1.62878490e+00   2.01085167e+00  -1.02566391e+00
C     8.664156928724999e+00   2.251319441920949e+00   6.954433440000000e+00  3.13724269e+00  -2.65147668e+00  -3.54110530e-01
C     2.521144072500000e+00   3.047722272995400e+00   7.076352271999999e+00 -7.86777460e-01  -2.48647941e+00   1.25559866e+00
C     2.362508381250000e+00   2.706266328588623e+00   1.036157194400000e+01 -7.05333020e-01  -1.17258064e+00  -7.58351280e-01
C     3.604632924450000e+00   3.337738321674557e+00   1.037060316000000e+01 -3.10900360e-01   3.98175901e+00  -4.60814070e-01
C     3.737893597575000e+00   2.302037705872905e+00   7.410041872000000e+00 -7.52616470e-01   6.00045740e-01  -3.03325421e+00
C     4.957116306450000e+00   2.961472674095535e+00   7.115383864000000e+00  8.71258900e-01  -1.56949066e+00  -6.67242080e-01
C     4.812187950225000e+00   2.682250425656202e+00   1.028088899200000e+01  1.53822386e+00   5.50951670e-01  -1.11753074e+00
C     6.053857405124999e+00   3.482091638733107e+00   1.020577265600000e+01  5.33048460e-01  -4.20927866e+00  -1.02603750e+00
C     6.173274342450000e+00   2.163937250018544e+00   6.827224888000000e+00 -1.20050890e-01   1.90973299e+00   1.05781928e+00
C     7.465655305649999e+00   2.839041195734344e+00   6.892608112000000e+00 -2.76085702e+00   3.02455366e+00   4.43678700e-02
C     7.280254890899999e+00   2.658173426103796e+00   1.016436079200000e+01 -3.89683740e-01   1.07037703e+00   5.71862910e-01
C     8.515604541825001e+00   3.393302623506596e+00   1.022146651200000e+01 -7.77654250e-01  -3.30494700e-01  -1.53975042e+00
C     9.902034671324998e+00   4.432118590544245e+00   6.897457463999999e+00  7.57235860e-01   7.76470360e-01  -1.42087620e+00
C     3.790990769850000e+00   5.153730064711628e+00   6.658040072000000e+00 -1.21958905e+00  -4.64452595e+00   1.84007911e+00
C     3.616109779575000e+00   4.844460703500218e+00   1.026681965600000e+01 -1.03589030e-01  -1.26756509e+00  -6.54700560e-01
C     4.864148104274999e+00   5.579106571562324e+00   1.015467949600000e+01 -3.72376370e-01  -2.82796114e+00  -8.55174830e-01
C     4.994340111225000e+00   4.340206603014883e+00   6.890572327999999e+00  6.47697020e-01   2.42001300e+00   6.55139000e-02
C     6.298710033300000e+00   5.007313872153794e+00   7.005156952000000e+00 -4.35058502e+00   2.41345321e+00  -6.22288950e-01
C     6.098812349625000e+00   4.833199200308879e+00   9.960888200000001e+00 -3.24007850e-01   1.69619403e+00   9.46549440e-01
C     7.366539122325000e+00   5.502170812953415e+00   9.725280575999999e+00 -3.59270108e+00   2.40363431e+00   1.97910338e+00
C     7.480595572049999e+00   4.312760451487488e+00   6.994822992000000e+00 -6.71905860e-01  -1.91781480e+00  -5.36330670e-01
C     8.614652284424999e+00   5.066564977150677e+00   6.827481519999999e+00  1.44286605e+00   1.72233699e+00   3.36098300e-01
C     8.495496575474998e+00   4.763778197872894e+00   9.818581743999999e+00  3.88958438e+00   1.37356880e-01   2.28126068e+00
C     9.767956037249999e+00   5.516203630648511e+00   9.999043680000000e+00 -2.85579280e-01  -6.29433560e-01   1.20364270e-01
