72
Lattice="7.395 0 0 3.6975 6.40425786098592 0 0 0 13.6 " PBC="1 1 1" Properties=species:S:1:pos:R:3:force:R:3 Energy="-580.28368988"
C     3.640690981425000e+00   6.273892979129577e+00   1.356018382400000e+01  5.54603630e-01   4.69563160e-01   4.54812380e-01
C     1.196094994275000e+00   5.622566313698334e-01   1.352288133600000e+01 -8.20426800e-02  -4.98690290e-01   3.30157070e-01
C     1.283912246175000e+00   8.721764730520842e-01   3.355862968000000e+00  4.64476030e-01  -1.03338609e+00   6.51731510e-01
C     2.571096262200000e+00   1.518310950465910e+00   3.280030728000000e+00 -1.63236980e+00   1.71677440e+00   1.10546500e+00
C     6.132498534300000e+00   6.257497758795083e+00   5.230152000000000e-03  7.67711200e-02   1.07994745e+00  -1.32763800e-02
C     3.675652618725000e+00   5.576536350755370e-01   1.359264362400000e+01  6.27903000e-03   3.57965760e-01   1.56776210e-01
C     3.804726945375000e+00   8.567019928701234e-01   3.428452016000000e+00  4.98384570e-01   2.07851729e+00  -3.90575030e-01
C     5.015145795824999e+00   1.607821277255193e+00   3.471105696000000e+00  8.37238910e-01   4.48382000e-02   5.36563880e-01
C     8.617427849775000e+00   6.289158168164673e+00   1.358544133600000e+01 -1.17720676e+00  -1.03257935e+00   6.36810400e-01
C     6.104273889899999e+00   5.908657961246040e-01   1.989448800000000e-02  1.84473023e+00   1.46559891e+00  -1.27201270e-01
C     6.267935851724999e+00   8.725889072582683e-01   3.543134967999999e+00 -2.10741546e+00   1.28296628e+00  -4.83312030e-01
C     7.463915816775000e+00   1.581784895010520e+00   3.433546440000000e+00  1.23202166e+00   1.69930938e+00  -1.23889350e-01
C     1.230405871575000e+00   1.956671705872284e+00   1.348388524000000e+01 -1.67629586e+00   2.43239248e+00   7.59569280e-01
C     2.451631590150000e+00   2.682239602460418e+00   1.336951644800000e+01  3.57557050e-01  -1.21469170e-01   1.44464128e+00
C     2.540727511500000e+00   2.947353462961908e+00   3.378984328000000e+00  1.01563783e+00   4.55651730e-01  -2.80114920e-01
C     3.782206286325000e+00   3.698250711726971e+00   3.440206632000000e+00 -1.81248359e+00   4.14333190e-01   8.71784610e-01
C     3.695086235025000e+00   1.961775002790603e+00   1.357807190400000e+01 -1.22145208e+00   1.43521118e+00  -1.46089462e+00
C     4.890578462850000e+00   2.725043740719300e+00   5.740696000000000e-03  4.47468040e-01  -1.60696300e-02   7.44030430e-01
C     5.030979415200000e+00   3.066527991945819e+00   3.516589536000000e+00 -1.00119762e+00  -3.16078715e+00  -1.16480616e+00
C     6.235394006325000e+00   3.720630646989056e+00   3.419448544000000e+00  2.10649235e+00   3.30377351e+00   5.98215530e-01
C     6.115901344199999e+00   2.046164100739559e+00   1.141910400000000e-01  1.25120149e+00  -1.05517919e+00  -4.20845410e-01
C     7.377458912100000e+00   2.754497306872912e+00   1.455051760000000e-01  9.13125790e-01  -2.06691052e+00  -1.69963283e+00
C     7.502371184849999e+00   3.046279265614385e+00   3.387952712000000e+00 -3.17014349e+00  -2.75025128e+00   2.86349730e-01
C     8.700721025549999e+00   3.688085681523844e+00   3.409219304000000e+00  2.08780528e+00   7.91817850e-01  -5.63591050e-01
C     2.449550748075000e+00   4.109677528149593e+00   1.341926184800000e+01 -1.33493390e-01   9.88349730e-01   1.34436795e+00
C     3.673650385500000e+00   4.864387359703872e+00   1.356736720800000e+01 -1.04536280e-01  -1.30750530e+00  -7.21684290e-01
C     3.717001021725000e+00   5.112789885702900e+00   3.578194000000000e+00  1.13139239e+00   7.62634430e-01  -7.77338480e-01
C     4.934345141774999e+00   5.847949759500850e+00   3.516795168000000e+00  2.02819836e+00   5.10081520e-01  -5.32559320e-01
C     4.914847410824999e+00   4.143244292956369e+00   3.380429600000000e-02 -2.16851200e-02   1.04138519e+00   2.00358640e-01
C     6.160310611650000e+00   4.885917065692463e+00   1.541506960000000e-01 -3.26819210e-01  -2.50669984e+00  -1.04400252e+00
C     6.235579361999999e+00   5.218105408550034e+00   3.453483768000000e+00 -9.56779650e-01  -2.69275090e+00   8.03793600e-02
C     7.489369221900000e+00   5.894343932588312e+00   3.454431008000000e+00  9.84737000e-03  -3.40818245e+00  -6.17260460e-01
C     7.430164149374999e+00   4.162619606600856e+00   1.012337760000000e-01 -2.40388282e+00   1.86727000e-03   6.93676130e-01
C     8.619389373524999e+00   4.865884739234119e+00   3.389976800000000e-02  1.73468201e+00  -6.36953530e-01  -1.43948896e+00
C     8.707857348450000e+00   5.097181876744558e+00   3.390583632000000e+00 -7.57522400e-02   2.81631414e+00   1.35971270e+00
C     9.923629106625000e+00   5.883755068600009e+00   3.545885160000000e+00 -6.40483080e-01  -2.87876282e+00  -5.89807920e-01
C     7.413164893124999e+00   1.225830671447382e-01   7.057041224000001e+00  7.47378980e-01  -2.81327720e-01  -1.18175903e+00
C     1.285090084800000e+00   7.979504199863197e-01   6.881783599999999e+00 -1.86816947e+00   1.04324457e+00  -7.20054300e-02
C     1.147059747600000e+00   5.724743045725704e-01   1.008266572800000e+01  4.68498520e-01   9.43753860e-01  -2.33375640e-01
C     2.377070763150000e+00   1.296658817420366e+00   1.002933700000000e+01  2.34526720e-01   5.84608400e-02  -6.04543400e-02
C     2.478425967600000e+00   1.118037405276792e-01   6.844882039999999e+00  1.45029559e+00  -1.79806212e+00  -2.21704610e-01
C     3.681834099225000e+00   8.750951495292006e-01   6.798220711999999e+00 -9.45595000e-03  -1.54967921e+00   9.96639500e-02
C     3.632208139950000e+00   5.884429372910088e-01   1.008968904000000e+01 -2.62146458e+00  -5.41010300e-02   4.77235990e-01
C     4.794588367875000e+00   1.292053835806134e+00   1.013470939200000e+01  4.30477447e+00   8.36945660e-01  -7.64360700e-01
C     4.871776194675000e+00   1.344987012338970e-01   6.911677080000000e+00  2.19616344e+00  -1.11107979e+00  -2.02730430e-01
C     6.142184949000000e+00   8.110537877381940e-01   6.949504119999999e+00  2.22265460e-01  -1.76874326e+00   4.09597000e-01
C     6.079255458675000e+00   5.405309550907266e-01   1.017175184800000e+01 -1.06792195e+00   5.68505780e-01  -4.20502600e-02
C     7.299575400674999e+00   1.269172575238768e+00   1.009223876800000e+01 -7.74592360e-01  -2.80422230e-01   7.16811140e-01
C     8.674980694424999e+00   2.229667030351761e+00   6.751172464000000e+00  6.45267870e-01  -3.67620100e-02   1.18555257e+00
C     2.496717426150000e+00   3.027586261602302e+00   6.772729144000000e+00 -2.96554830e-01  -2.23677359e+00  -6.02515790e-01
C     2.369411059125000e+00   2.732506302190665e+00   9.949201856000000e+00  6.74530000e-03  -1.67762917e+00   3.81434370e-01
C     3.600988742399999e+00   3.424064515498427e+00   9.954695032000000e+00  1.06111041e+00   8.16349320e-01   5.24573220e-01
C     3.701475367125000e+00   2.265013794588145e+00   6.720228520000000e+00  1.46556231e+00   2.32280268e+00   6.83172360e-01
C     4.990888458000000e+00   2.994332024579095e+00   6.783145792000000e+00 -1.36368198e+00  -3.46996984e+00   3.13199010e-01
C     4.859307596100000e+00   2.736443960135886e+00   9.985701536000001e+00 -1.53630660e+00  -9.72895880e-01   1.01018676e+00
C     6.079866581475000e+00   3.451021253640160e+00   1.012210137600000e+01 -4.63116740e-01  -1.51336965e+00   1.42792830e-01
C     6.186672862275000e+00   2.180080398763668e+00   6.918059016000000e+00 -3.58475600e-02   3.01517693e+00  -8.24097840e-01
C     7.447755671175000e+00   2.860527416812065e+00   6.893570992000000e+00 -7.95207000e-01   2.41260617e+00  -4.29976470e-01
C     7.262050582425000e+00   2.682084043036999e+00   1.016411449600000e+01  1.85658169e+00   4.43305230e-01  -1.19796756e+00
C     8.514078805424999e+00   3.376090411996903e+00   1.001465389600000e+01 -7.12848570e-01   1.78197504e+00   1.27742461e+00
C     9.898116726374999e+00   4.420734766027780e+00   6.874676239999999e+00  1.12257278e+00   5.01769380e-01   6.40100900e-01
C     3.799634008875000e+00   5.114598063867092e+00   7.009320864000000e+00 -2.61471176e+00  -5.31036180e-01  -1.15899020e+00
C     3.620001657150000e+00   4.855023053860981e+00   1.009739289600000e+01  1.10960157e+00  -1.10222269e+00  -5.67380580e-01
C     4.863936570300000e+00   5.580518134037247e+00   1.007631534400000e+01 -3.05031470e-01  -1.61660664e+00   7.83622770e-01
C     4.998341397825000e+00   4.371765761067706e+00   6.831536768000000e+00  4.08925120e-01   1.23221058e+00   5.28230470e-01
C     6.254195941724999e+00   5.039325106768954e+00   6.836244816000000e+00 -1.56557170e+00   2.32486037e+00   5.07458690e-01
C     6.094236693375001e+00   4.839398521917360e+00   1.017590977600000e+01 -1.70667170e-01   2.16896718e+00  -7.19258930e-01
C     7.326052828424999e+00   5.587233062446035e+00   1.018847155200000e+01 -4.42908630e-01  -1.75737167e+00  -2.01437830e-01
C     7.453003311074999e+00   4.339069847244733e+00   6.890008879999999e+00 -6.58325800e-02  -1.62771899e+00  -2.90155170e-01
C     8.642666725950001e+00   5.080495839060642e+00   6.921903464000000e+00  2.53985880e-01   1.51779717e+00  -2.26733570e-01
C     8.515047291599998e+00   4.819698576441950e+00   1.015051966400000e+01  1.47384008e+00  -1.42270690e-01  -2.31417730e-01
C     9.803310977624999e+00   5.509343197501143e+00   1.017801587200000e+01 -2.39066435e+00   1.47615097e+00  -2.95490800e-01
