72
Lattice="7.395 0 0 3.6975 6.40425786098592 0 0 0 13.6 " PBC="1 1 1" Properties=species:S:1:pos:R:3:force:R:3 Energy="-580.53597258"
C     1.103766722122500e+01   6.386411434834431e+00   1.341373290400000e+01  1.26133508e+00  -7.17781610e-01   7.58157000e-02
C     1.238557232175000e+00   6.335994235044474e-01   1.337086597600000e+01 -1.39969181e+00   1.57766087e+00   2.31360060e-01
C     1.240599324450000e+00   7.522925444250217e-01   3.421482560000000e+00 -1.23971680e-01   5.65994540e-01   3.57375540e-01
C     2.484889641300000e+00   1.420651910018141e+00   3.398717792000000e+00  1.00200552e+00   8.65987360e-01   6.40800210e-01
C     6.208113888300000e+00   6.357211285164340e+00   1.340722666400000e+01 -3.66545126e+00  -6.84532500e-02   3.76350750e-01
C     3.684986698650000e+00   6.335120053846585e-01   1.340946876000000e+01  1.80441530e-01   2.47437818e+00  -3.49304940e-01
C     3.765641227500000e+00   7.926827898113125e-01   3.529293160000000e+00 -1.12750917e+00  -1.88807278e+00  -4.19678330e-01
C     5.012039784900000e+00   1.500406566766708e+00   3.580364288000000e+00 -2.32384602e+00  -5.73108300e-02  -3.93571860e-01
C     8.571874575824999e+00   6.373081868694942e+00   1.337305068000000e+01  3.08446025e+00   2.03519600e-01   6.62751770e-01
C     6.100077634124999e+00   6.999313962042403e-01   1.344496272000000e+01  1.56455547e+00  -5.13246920e-01  -8.38914500e-02
C     6.185023814249999e+00   7.654649500766268e-01   3.576358816000000e+00  9.25292030e-01  -2.45082760e-01  -4.54305460e-01
C     7.399104225000000e+00   1.486681729832099e+00   3.462244480000000e+00  8.67344690e-01  -9.27147700e-02   1.89108580e-01
C     8.593046423850000e+00   2.083820752700887e+00   1.334577819200000e+01  1.45117069e+00   9.76087000e-03   5.42105050e-01
C     2.478099737175000e+00   2.778861601432917e+00   1.323605026400000e+01 -1.22364478e+00   6.01013230e-01   8.12684330e-01
C     2.483814075525000e+00   2.833330839213475e+00   3.463737896000000e+00  4.97528350e-01   1.04746482e+00  -9.52488000e-02
C     3.659933326050000e+00   3.586166272577289e+00   3.556505128000000e+00  3.08434900e+00   4.83763030e-01  -3.36472700e-02
C     3.691011885825000e+00   2.060713742043957e+00   1.334116017600000e+01  3.59675340e-01   1.15615403e+00   4.72294780e-01
C     4.906162981650000e+00   2.816764112853491e+00   1.351365088000000e+01  4.58504830e-01   1.65670500e-02  -2.79581340e-01
C     4.960374506475000e+00   2.905301248618369e+00   3.546108336000000e+00  4.53008700e-02   1.31264121e+00  -4.41091700e-02
C     6.203215625175000e+00   3.652523670180785e+00   3.503460912000000e+00 -6.99444110e-01  -1.38333821e+00   2.63095980e-01
C     6.158835937725000e+00   2.092925622057871e+00   1.358064148800000e+01 -4.69246210e-01   1.71748542e+00  -1.87491310e-01
C     7.406959674674999e+00   2.832530947406761e+00   1.359729917600000e+01 -5.58808700e-01  -1.15481400e-02  -8.87725330e-01
C     7.437393649275000e+00   2.913275574335326e+00   3.458815648000000e+00  6.05190000e-02   4.34931320e-01   1.19437700e-02
C     8.725820690849998e+00   3.604979804722296e+00   3.463310176000000e+00 -3.61603536e+00  -4.46052120e-01  -7.40099900e-02
C     2.486035718400000e+00   4.222108565734660e+00   1.326172597600000e+01 -1.01478236e+00  -3.14004830e-01   8.18104650e-01
C     3.673761532350000e+00   4.943947839354125e+00   1.339147990400000e+01  8.64609170e-01   6.63562050e-01  -1.41205330e-01
C     3.680442766950000e+00   5.036757703835458e+00   3.615892791999999e+00  6.89284600e-01  -7.41232120e-01  -7.06340790e-01
C     4.936683292874999e+00   5.774120962550141e+00   3.557416192000000e+00 -7.53837860e-01  -1.91786940e+00  -1.43738250e-01
C     4.917346329224999e+00   4.260525979487178e+00   1.350752435200000e+01  2.98739440e-01  -8.14699720e-01   9.57713700e-02
C     6.178621999724999e+00   4.975307504774607e+00   1.357094292000000e+01 -8.08693620e-01  -9.80952850e-01  -3.43808030e-01
C     6.171348425625000e+00   5.060346314683461e+00   3.543292184000000e+00  5.26584660e-01   3.15910260e-01  -3.17887470e-01
C     7.422773549400000e+00   5.738455458400065e+00   3.516901655999999e+00  2.26333880e-01   1.11691464e+00   2.15040700e-02
C     7.408197375824999e+00   4.311482481831526e+00   1.359104848000000e+01  1.03342315e+00  -2.87145798e+00  -6.45079120e-01
C     8.662421987775000e+00   4.989512404878401e+00   1.337882619200000e+01 -1.37744969e+00  -2.21372257e+00   3.15924640e-01
C     8.659874003550000e+00   5.025532704913921e+00   3.505209736000000e+00 -6.02273690e-01  -5.98522180e-01   8.63139600e-02
C     9.850382223224999e+00   5.733900558082297e+00   3.554788264000000e+00  1.35949487e+00   1.25288389e+00   2.72832630e-01
C     3.041304675000000e-02   5.114991093171960e-02   7.099004839999999e+00 -1.61007410e+00  -9.16936780e-01  -9.57174420e-01
C     1.227885729525000e+00   7.225359928320535e-01   6.886389103999999e+00  1.48858666e+00   7.19941850e-01  -4.89640330e-01
C     1.179289745850000e+00   6.567640724821177e-01   1.017736620000000e+01  1.77870859e+00   1.82865600e-01   3.10022640e-01
C     2.428499586450000e+00   1.389046641308726e+00   1.022087464000000e+01  3.78069200e-02  -8.68942230e-01  -7.65860700e-02
C     2.457998167500000e+00   1.637197287846120e-02   6.725229784000000e+00  4.68935490e-01   7.80493580e-01   3.77127070e-01
C     3.662876646975000e+00   7.836979362466254e-01   6.650100936000000e+00  7.76028830e-01  -6.51097980e-01   3.86172330e-01
C     3.664788217500000e+00   7.013357859103596e-01   1.039484652000000e+01  3.55814080e-01  -1.48714493e+00  -1.03683579e+00
C     4.907486353874999e+00   1.407034216317530e+00   1.027122415200000e+01 -6.29583280e-01  -1.37678578e+00   1.75471280e-01
C     4.882082199449999e+00   5.721589589155441e-02   6.809528296000000e+00  7.61592110e-01  -8.54363360e-01   5.47672380e-01
C     6.136057710825000e+00   7.341642038284555e-01   6.994990543999999e+00  4.51595820e-01  -2.00224260e-01  -5.07082960e-01
C     6.130151731050000e+00   6.243174123750564e-01   1.030193812000000e+01 -1.00355570e-01   1.29690117e+00  -5.03998640e-01
C     7.369314576750000e+00   1.335818292531122e+00   1.016327197600000e+01 -1.34708209e+00   1.54540649e+00   4.65618930e-01
C     1.281377905725000e+00   2.144869148623602e+00   6.779508880000000e+00 -1.00884596e+00   4.59124630e-01   5.86421380e-01
C     2.473342570650000e+00   2.924684567585181e+00   6.678846032000000e+00  4.67637730e-01  -1.84379960e-01   7.11092130e-01
C     2.438542218300000e+00   2.780028521257588e+00   1.010444000800000e+01 -5.87264980e-01   1.46246599e+00   1.95296080e-01
C     3.670975650975000e+00   3.506927991139973e+00   1.005292824000000e+01 -8.32309700e-01   7.44041590e-01   7.92878750e-01
C     3.709641517725000e+00   2.210429920591893e+00   6.610484408000000e+00 -9.84455000e-01  -9.75077590e-01   5.95210760e-01
C     4.942135145700000e+00   2.844496983005278e+00   6.708571824000000e+00  8.80363240e-01   2.44483409e+00   5.77260030e-01
C     4.867572987599999e+00   2.818007435474431e+00   1.011296598400000e+01  2.21762021e+00  -5.36195210e-01   4.26734360e-01
C     6.121005151349999e+00   3.538486572809588e+00   1.019428745600000e+01  2.69321650e-01  -1.20971960e+00   1.53237000e-02
C     6.155974257600000e+00   2.143161453265233e+00   6.888476840000000e+00  7.66251530e-01  -3.05251070e-01  -1.81386310e-01
C     7.432669057725000e+00   2.822400948494127e+00   6.903482671999999e+00 -6.32446550e-01   1.70451200e-01  -6.10034660e-01
C     7.361191612950000e+00   2.808034084709053e+00   1.019324216000000e+01 -1.16389448e+00  -1.47044620e+00  -2.14998890e-01
C     8.571926932425001e+00   3.498112658280841e+00   1.017869478400000e+01  1.08142344e+00  -4.84971220e-01   1.35607730e-01
C     9.882114390074999e+00   4.344849433793068e+00   6.898033831999999e+00  1.41449300e-01  -6.46930230e-01  -3.40001130e-01
C     3.765363471300000e+00   5.026679963666962e+00   7.016529543999999e+00 -1.13071036e+00  -1.86325330e-01  -1.03844128e+00
C     3.725771158949999e+00   4.946333041151502e+00   1.016492791200000e+01 -2.76124960e+00  -8.49659210e-01   1.10312100e-02
C     4.930152583500000e+00   5.650632077173684e+00   1.019270033600000e+01 -4.73523090e-01   2.15942000e-01   2.74109530e-01
C     4.987232406975000e+00   4.315229485020254e+00   6.794993024000000e+00 -9.20114770e-01  -9.27609480e-01   4.69157330e-01
C     6.217262353724999e+00   5.017089139223562e+00   6.766999736000000e+00 -2.74597330e-01  -1.65386415e+00   3.54012670e-01
C     6.150244020000000e+00   4.941257538712295e+00   1.029357398400000e+01 -6.61225880e-01  -3.36898260e-01  -4.18617770e-01
C     7.356677741924999e+00   5.616686244344176e+00   1.042417192800000e+01  8.40678190e-01   2.18304503e+00  -5.37183790e-01
C     7.437317998425000e+00   4.221227531980859e+00   6.828294936000000e+00 -8.03720710e-01   2.46683726e+00  -1.81710960e-01
C     8.609736347249999e+00   5.007810714478572e+00   6.870818191999999e+00  1.12138441e+00   4.77715950e-01  -7.13740500e-02
C     8.562885065924998e+00   4.889462526886337e+00   1.034192388800000e+01  1.59442020e+00   1.34134078e+00  -3.03697740e-01
C     9.828410458050000e+00   5.617554213411941e+00   1.031700216000000e+01  3.67515770e-01  -3.13546150e-01  -5.77148230e-01
