72
Lattice="7.395 0 0 3.6975 6.40425786098592 0 0 0 13.6 " PBC="1 1 1" Properties=species:S:1:pos:R:3:force:R:3 Energy="-573.33724014"
C     1.099546854112500e+01   6.375944443873204e+00   1.327008603200000e+01  2.70987991e+00  -1.68162734e+00   4.76834700e-02
C     1.236838190475000e+00   5.905748506900242e-01   1.319506584800000e+01 -2.19677054e+00   1.91515658e+00   3.53139180e-01
C     1.247299564200000e+00   7.729776568870357e-01   3.448175960000000e+00  1.87969910e-01   1.38620825e+00   4.32150270e-01
C     2.492772489450000e+00   1.447399164885274e+00   3.401711968000000e+00  2.47694088e+00  -4.29911350e-01   1.10548821e+00
C     6.229882771650000e+00   6.314141626374583e+00   1.326154645600000e+01 -5.99047744e+00   4.39923900e-02   6.49970900e-01
C     3.670567557900000e+00   5.854378033327824e-01   1.329690346400000e+01  7.11520390e-01   4.09154127e+00  -9.27810630e-01
C     3.826027651275000e+00   8.647363905258079e-01   3.631154440000000e+00 -3.19622456e+00  -3.85744156e+00  -8.86449690e-01
C     5.067309756075000e+00   1.556470144541512e+00   3.720573216000000e+00 -4.11836256e+00   4.19895780e-01  -7.81354170e-01
C     8.544723315675000e+00   6.360424621545595e+00   1.321060384800000e+01  5.02344494e+00  -8.82245760e-01   1.19059986e+00
C     6.078468667650000e+00   6.941266409225149e-01   1.333522812800000e+01  1.36864415e+00  -5.16378200e-01  -2.11422610e-01
C     6.184845594750000e+00   8.186444984093376e-01   3.715052296000000e+00  3.50808634e+00  -1.59395204e+00  -9.79316150e-01
C     7.418758582050000e+00   1.527525396674878e+00   3.507386551999999e+00 -1.11970680e-01  -4.34266600e-02   5.04081450e-01
C     8.562052906575000e+00   2.055594306395831e+00   1.314726484000000e+01  2.70984376e+00  -2.79976030e-01   9.29935590e-01
C     2.485571571225000e+00   2.736396504585143e+00   1.297479929600000e+01 -2.03598671e+00   9.32601600e-01   1.17064848e+00
C     2.507021360325000e+00   2.824291613499557e+00   3.505881576000000e+00  6.70489800e-02   2.82805036e+00  -4.25367100e-02
C     3.628664234100000e+00   3.611998487081384e+00   3.690099152000000e+00  5.91489100e+00   5.98475870e-01  -2.50161340e-01
C     3.682334297025000e+00   2.018250694558699e+00   1.312278416000000e+01  1.02938926e+00   1.44031369e+00   1.79565073e+00
C     4.888807101525000e+00   2.790612261839602e+00   1.346261592800000e+01  4.04141560e-01   4.76942140e-01  -1.07476803e+00
C     5.000079666525000e+00   2.935044415312409e+00   3.641694440000000e+00 -5.14947160e-01   3.49290840e+00   2.97245370e-01
C     6.247050005325000e+00   3.742512330989633e+00   3.591207568000000e+00 -2.28512297e+00  -3.73805846e+00   2.89625350e-01
C     6.160039473975000e+00   2.076003011088607e+00   1.355641472000000e+01 -8.29527970e-01   1.71535374e+00  -2.39274970e-01
C     7.429611151274999e+00   2.799817229746937e+00   1.357078312000000e+01 -1.18733090e+00   7.23966630e-01  -1.21280660e+00
C     7.443687422850000e+00   2.967916766439425e+00   3.499561520000000e+00  1.80874322e+00   5.24945890e-01   8.38756000e-03
C     8.799200425424999e+00   3.647442788164976e+00   3.502170816000000e+00 -6.19748284e+00  -1.16692217e+00   6.46450000e-03
C     2.504146184325000e+00   4.188598606695103e+00   1.301301026400000e+01 -1.89110560e+00  -1.09777197e+00   1.22594798e+00
C     3.656456381925000e+00   4.898000171124661e+00   1.322349637600000e+01  1.43094171e+00   2.57068753e+00  -2.48781000e-03
C     3.676339170525000e+00   5.080973916909891e+00   3.791768672000000e+00  6.87347920e-01  -1.15449638e+00  -1.37255979e+00
C     4.961712557775000e+00   5.823457571911380e+00   3.680534408000000e+00 -2.56000394e+00  -2.25658078e+00  -3.11053000e-03
C     4.896341571224999e+00   4.265828576910100e+00   1.341944952800000e+01  1.03183956e+00  -2.34116008e+00   4.48449480e-01
C     6.180347105325000e+00   4.964970135992467e+00   1.353218740800000e+01 -7.18954910e-01  -1.58291275e+00  -4.26072150e-01
C     6.164973713775000e+00   5.123020303378778e+00   3.665877824000000e+00  2.21352754e+00   2.22775090e-01  -6.92603340e-01
C     7.440660797250000e+00   5.740434502163962e+00   3.602822648000000e+00  3.61469000e-01   3.66559740e+00   3.47213500e-01
C     7.427321622299999e+00   4.318023470596836e+00   1.358831352000000e+01  1.50659525e+00  -3.85942141e+00  -1.57740102e+00
C     8.694264229199998e+00   4.962454607547637e+00   1.320063151200000e+01 -2.99216127e+00  -1.63920481e+00   1.14556247e+00
C     8.682742412475001e+00   5.055872428227621e+00   3.606934063999999e+00 -1.05984619e+00  -1.41970532e+00  -3.20984260e-01
C     9.839322741899998e+00   5.769068579481808e+00   3.669261096000000e+00  2.87096897e+00   2.48032754e+00   8.55308260e-01
C     6.306119527500000e-02   8.577049636935781e-02   7.271302424000000e+00 -3.49294324e+00  -1.44701371e+00  -1.16248902e+00
C     1.224571327500000e+00   7.167485290465501e-01   6.945227872000000e+00  2.70686990e+00   2.27589036e+00  -1.24593179e+00
C     1.155438023775000e+00   6.152217651493914e-01   1.015718624800000e+01  1.49900426e+00   2.38293030e-01   6.94618800e-01
C     2.394397913700000e+00   1.360844210970644e+00   1.022571392800000e+01  7.55963650e-01  -1.21992315e+00   4.90776400e-02
C     2.441614508024999e+00   2.094967235421060e-02   6.684023280000000e+00  1.37626137e+00   1.83732065e+00   6.18738740e-01
C     3.637458220200000e+00   8.378526609236784e-01   6.577790824000000e+00  1.37527362e+00  -1.27860049e+00   6.27593940e-01
C     3.644222870400000e+00   7.055068790545777e-01   1.053139364800000e+01  5.94980190e-01  -2.47479018e+00  -2.42917083e+00
C     4.902343427174999e+00   1.396004931516195e+00   1.029011686400000e+01 -2.01754451e+00  -2.41959070e+00   1.04575870e+00
C     4.855824477150000e+00   9.316594121835001e-02   6.816067448000000e+00  6.56487680e-01  -1.06223002e+00   1.02407917e+00
C     6.102077168175000e+00   7.436457075901854e-01   7.130622800000000e+00  1.45696535e+00   5.95781870e-01  -1.12309969e+00
C     6.102892836674998e+00   5.689750821204450e-01   1.038007814400000e+01 -1.29055340e-01   1.86242727e+00  -1.22479765e+00
C     7.326313539149999e+00   1.265556411038119e+00   1.014073256000000e+01 -4.27163080e-01   2.30189112e+00   6.72974560e-01
C     1.314286838925000e+00   2.164533166212417e+00   6.773579280000000e+00 -1.75126230e+00  -1.41019780e-01   9.43407600e-01
C     2.475390431025000e+00   2.991496795581895e+00   6.591433528000000e+00  1.11171432e+00  -4.25772550e-01   1.70624718e+00
C     2.413975547625000e+00   2.735509642956691e+00   1.003825003200000e+01 -6.83307670e-01   2.32286000e+00   2.51111100e-01
C     3.664326103950000e+00   3.462302417903129e+00   9.948773864000000e+00 -3.13644436e+00   1.85453290e+00   1.41435732e+00
C     3.731962363875000e+00   2.274909525748260e+00   6.520101936000000e+00 -3.25722315e+00  -2.42086382e+00   6.23938320e-01
C     4.939518498900000e+00   2.844137576054174e+00   6.664170407999999e+00  3.18099600e+00   4.31986278e+00   1.27747505e+00
C     4.811855655900000e+00   2.791284132531695e+00   1.007499886400000e+01  5.20707571e+00  -1.10134370e+00   5.02019720e-01
C     6.085054580700000e+00   3.517379419754600e+00   1.020378692000000e+01  6.86386010e-01  -1.66884747e+00  -1.29058490e-01
C     6.160733864475000e+00   2.158182832203599e+00   6.947938760000000e+00  1.51293860e-01  -1.34098778e+00  -1.01936940e-01
C     7.451930962124999e+00   2.798206430809990e+00   6.976480128000000e+00 -4.60820540e-01   1.58516879e+00  -1.14679860e+00
C     7.342052021850000e+00   2.760251532560122e+00   1.017682070400000e+01 -2.60441103e+00  -1.42846169e+00  -8.51516600e-02
C     8.531396527350001e+00   3.465075077301038e+00   1.017192334400000e+01  1.87549059e+00  -1.75765025e+00  -3.61345130e-01
C     9.906036512549999e+00   4.392727985767322e+00   6.968004199999999e+00 -4.60379320e-01  -8.78276700e-01  -8.58426320e-01
C     3.798595861800000e+00   5.065721984688566e+00   7.154350040000000e+00 -7.72038880e-01  -1.08612190e+00  -1.89890233e+00
C     3.732885481724999e+00   4.912353650010807e+00   1.014178628800000e+01 -3.93699228e+00  -1.05208558e+00   1.32230580e-01
C     4.931354825625000e+00   5.614655454176770e+00   1.020754704800000e+01 -1.29356299e+00   7.68961900e-01   1.71522780e-01
C     5.020455036074999e+00   4.345046044509370e+00   6.800110159999999e+00 -1.50944780e+00  -9.20364480e-01   8.80948380e-01
C     6.266394031199999e+00   5.043564149089065e+00   6.754589464000000e+00 -1.39474186e+00  -2.93501998e+00   5.66995420e-01
C     6.130188853950000e+00   4.922770751803305e+00   1.035610719200000e+01 -1.22748620e-01  -1.67642465e+00  -6.00149430e-01
C     7.344525575399999e+00   5.544047934887062e+00   1.055474321600000e+01  9.57700100e-02   4.16041367e+00  -7.85527200e-01
C     7.467949826250000e+00   4.210367767885080e+00   6.851775200000000e+00 -1.37904876e+00   2.57713543e+00  -2.89801480e-01
C     8.595572888625000e+00   5.027465189723176e+00   6.912221216000001e+00  2.26586979e+00   7.95966520e-01   3.06548300e-02
C     8.516253120300000e+00   4.820165959180573e+00   1.041467205600000e+01  2.94763984e+00   2.35353876e+00  -3.54194750e-01
C     9.802878074325001e+00   5.571640872004608e+00   1.039252744800000e+01  6.85428770e-01  -1.10070010e+00  -1.21678120e+00
