72
Lattice="7.395 0 0 3.6975 6.40425786098592 0 0 0 13.6 " PBC="1 1 1" Properties=species:S:1:pos:R:3:force:R:3 Energy="-574.15152058"
C     3.629997885374999e+00   6.185196953727192e+00   1.353507591200000e+01  1.97694830e+00   1.38171090e-01   6.92918100e-01
C     1.160759096025000e+00   5.304585944988330e-01   1.356781750400000e+01  1.57618843e+00  -1.15220386e+00   1.90579650e-01
C     1.433460443775000e+00   1.003700716722904e+00   3.500087296000000e+00 -1.03264335e+00   1.82425493e+00   1.05642500e-02
C     2.642733291074999e+00   1.763216367417906e+00   3.434252688000000e+00  2.12681834e+00  -2.65913871e+00   7.49300630e-01
C     6.075326827949999e+00   6.175500843284573e+00   8.607222399999999e-02  2.78404380e+00   7.54481800e-01  -9.02097980e-01
C     3.685083905925000e+00   5.237944518548743e-01   1.358695896000000e+01 -7.64580230e-01  -1.31411057e+00   9.76682170e-01
C     3.933369884700000e+00   1.068601786089037e+00   3.574820928000000e+00 -1.87321659e+00  -1.80331894e+00  -2.61274740e-01
C     5.153358308850001e+00   1.820939672659708e+00   3.660428032000000e+00 -1.81204358e+00  -2.09892733e+00  -2.45263560e-01
C     8.654189282175000e+00   6.226620333991458e+00   6.165179200000000e-02 -9.97679000e-01  -1.49998286e+00  -3.31197980e-01
C     6.209279155425000e+00   5.730768811946179e-01   1.321127120000000e-01 -3.90110773e+00  -1.79688995e+00  -1.09207753e+00
C     6.300196576199999e+00   1.084557482206598e+00   3.674264536000000e+00  4.25682603e+00  -2.34470072e+00  -4.90490040e-01
C     7.613262574575000e+00   1.763274261908960e+00   3.504383672000000e+00 -3.06136144e+00   9.22081300e-02   5.51977080e-01
C     1.230201067050000e+00   1.983682880205827e+00   1.355268696000000e+01 -2.62000582e+00  -3.78014203e+00   7.65394970e-01
C     2.445462681150000e+00   2.618046908056180e+00   1.341548526400000e+01  1.80670180e-01  -2.82279640e-01   5.58604970e-01
C     2.666084038875000e+00   3.163496717438858e+00   3.480901912000000e+00 -1.94171060e-01  -1.99357549e+00  -2.15007780e-01
C     3.878667590700000e+00   3.793797051549305e+00   3.631047136000000e+00  1.63014994e+00   4.32230089e+00   5.57615050e-01
C     3.646666141424999e+00   1.953330476461564e+00   1.355221068800000e+01  3.58784820e+00  -1.21006929e+00   3.45893370e-01
C     4.936992551774999e+00   2.715162291054213e+00   1.654280880000000e-01 -2.54503661e+00  -2.76993916e+00  -4.45423290e-01
C     5.160324287925000e+00   3.187538301445298e+00   3.692660168000000e+00 -7.23150900e-01   2.74019165e+00  -6.57778630e-01
C     6.374180075549999e+00   4.036379964388372e+00   3.625470048000000e+00 -2.02444520e+00  -8.68043912e+00  -2.70606850e-01
C     6.169636150349999e+00   2.009497290873072e+00   2.271255760000000e-01 -3.47102532e+00  -3.97057705e+00   5.95839700e-02
C     7.353323924550000e+00   2.580594295750271e+00   2.463117760000000e-01  4.67742423e+00   3.78333095e+00  -1.49170224e+00
C     7.525457894174999e+00   3.229055055789163e+00   3.439309304000000e+00  3.95685152e+00  -1.38864087e+00   7.24577690e-01
C     8.865223170300000e+00   3.824935065605254e+00   3.451469880000000e+00 -3.65465891e+00   2.73868728e+00   3.79290010e-01
C     2.484886683300000e+00   3.982826407396638e+00   1.338607839200000e+01 -1.95811586e+00   2.70090390e+00   9.03008840e-01
C     3.674180052375000e+00   4.703546280784752e+00   1.347690680800000e+01 -1.09967042e+00   3.82444102e+00   5.67332050e-01
C     3.852297760200000e+00   5.287745692775146e+00   3.737151888000000e+00 -5.76348700e-01  -3.38492620e-01  -9.34051100e-01
C     5.083521851550000e+00   6.004843638130538e+00   3.652893224000000e+00 -1.11560141e+00   8.05251330e-01  -1.66818530e-01
C     4.861958481749999e+00   4.102023351283058e+00   1.937683120000000e-01  2.31832970e+00  -1.39667818e+00  -8.68132480e-01
C     6.130474596749999e+00   4.732996836937168e+00   2.243269680000000e-01  1.96345330e-01   2.23782150e+00  -1.53329250e-01
C     6.292549073925000e+00   5.334013573897609e+00   3.604393856000000e+00  2.37128717e+00   3.21585320e+00  -3.34276400e-02
C     7.591834933499999e+00   5.910987574085194e+00   3.577285384000000e+00 -1.14563204e+00   6.08260219e+00  -6.55495000e-02
C     7.365113588175000e+00   3.981923471080956e+00   2.075588480000000e-01  9.26411890e-01   2.97150296e+00  -5.92971160e-01
C     8.638171860074999e+00   4.682394297924743e+00   1.357348448800000e+01 -9.12438700e-01   2.79928058e+00   4.71737170e-01
C     8.799374762549999e+00   5.262120976225714e+00   3.598137992000000e+00  1.06718914e+00  -1.11805796e+00  -2.39888420e-01
C     9.984874089900000e+00   6.024315912239025e+00   3.697973144000000e+00  1.85237271e+00   4.69846260e-01  -1.34619000e-01
C     7.352480746650000e+00   2.095525686706452e-01   7.090601535999999e+00  6.64619000e-01   3.71295710e-01  -9.89433230e-01
C     1.161944847300000e+00   9.094530323094216e-01   6.888201304000000e+00  3.45505987e+00  -5.63385690e-01  -5.24006140e-01
C     1.068070905525000e+00   4.097745819373206e-01   9.892231455999999e+00 -1.49699380e-01  -1.62078632e+00   3.01988730e-01
C     2.268221058975000e+00   1.132919427564124e+00   9.847011455999999e+00  1.99174191e+00  -1.37904238e+00   1.67712080e-01
C     2.469270218100000e+00   1.524094251483804e-01   6.782590368000000e+00 -1.21054076e+00   2.19981733e+00   3.26002900e-01
C     3.649878418500000e+00   9.579169974946573e-01   6.739428727999999e+00  9.46069660e-01  -5.02983000e-01   3.18649720e-01
C     3.538035292275000e+00   4.023817628340510e-01   9.969021544000000e+00  1.13935527e+00   7.33118740e-01   1.84221510e-01
C     4.849310961149999e+00   1.129767828228640e+00   9.989103848000001e+00 -7.21987281e+00  -4.34991320e-01  -9.34740090e-01
C     4.883792145299999e+00   1.555827349180104e-01   6.908146927999999e+00 -1.06233513e+00   2.12441631e+00  -3.76639620e-01
C     6.118198859774999e+00   8.227835062216770e-01   6.984360239999999e+00 -5.02674150e-01   4.06114633e+00  -3.57893200e-01
C     5.948871514500000e+00   4.295068048723452e-01   1.002769588800000e+01  3.26013919e+00  -4.66537845e+00   1.30191620e-01
C     7.196586160050000e+00   9.845111905989360e-01   9.929350343999999e+00  1.76975015e+00   4.87042277e+00   4.22657130e-01
C     8.643604079174999e+00   2.323705487660957e+00   6.775538768000001e+00 -4.11219350e-01   3.38530740e-01   5.14451930e-01
C     2.460356839725000e+00   3.131713794616407e+00   6.706328232000000e+00 -3.24666610e-01  -2.06332830e-01   4.07812350e-01
C     2.307469097100000e+00   2.530024226325196e+00   9.718985408000000e+00  4.92271300e-02   3.56713340e-01   7.18425150e-01
C     3.555687231225000e+00   3.209639523405315e+00   9.710432504000000e+00 -1.27863662e+00   1.26925031e+00   6.06669180e-01
C     3.680939082375000e+00   2.478491789071498e+00   6.674006063999999e+00 -8.66113100e-02  -5.12134759e+00   4.49465620e-01
C     4.938731042325000e+00   3.048558476944180e+00   6.747084847999999e+00  8.65381240e-01   2.41629133e+00   2.98003300e-01
C     4.760986190400000e+00   2.468325606101956e+00   9.750402360000001e+00  1.56791919e+00   3.63263105e+00   1.66542264e+00
C     5.956446915524999e+00   3.199713692233258e+00   9.971163135999999e+00  2.74414125e+00   1.68837837e+00  -3.33260780e-01
C     6.156153845174999e+00   2.303976915152913e+00   6.873497120000000e+00 -5.81607050e-01  -6.17917940e-01  -1.59170890e-01
C     7.402408532849999e+00   3.021522966430769e+00   6.878672191999999e+00  3.69477480e-01  -2.03283404e+00  -4.83336300e-01
C     7.247502583799999e+00   2.425463829522334e+00   9.986038951999999e+00 -1.42972485e+00   2.94374118e+00  -7.24288700e-01
C     8.491293812100000e+00   3.237758762433796e+00   9.842074792000000e+00 -1.10141994e+00  -2.32228108e+00   9.90680560e-01
C     9.890211693225000e+00   4.569696394914652e+00   6.894346735999999e+00 -2.08847719e+00  -3.78066651e+00  -3.12136800e-01
C     3.660850675800000e+00   5.234160626834740e+00   7.026619247999999e+00  4.37895540e+00  -1.03591218e+00  -1.30463711e+00
C     3.520117059375000e+00   4.638859049588564e+00   9.866239272000000e+00  7.76572270e-01   1.32823613e+00   1.20251940e-01
C     4.803442031625000e+00   5.401140955423614e+00   9.926356168000000e+00 -2.43684784e+00  -3.56273500e-02   1.53344950e-01
C     4.959600434850000e+00   4.531556541697786e+00   6.792890735999999e+00 -1.63248928e+00  -2.61464747e+00   8.99479470e-01
C     6.205599292499999e+00   5.124859542193591e+00   6.808033656000000e+00  1.27533680e+00   1.46804775e+00   2.63392950e-01
C     6.012262046100000e+00   4.790860715638998e+00   1.001989234400000e+01  1.35403019e+00  -6.16120129e+00  -3.20464510e-01
C     7.293147851550000e+00   5.395421376771426e+00   1.005758324800000e+01 -1.45517689e+00   1.41351810e-01  -1.11553680e-01
C     7.499075566124999e+00   4.387151862491198e+00   6.861737879999999e+00 -4.74025185e+00   2.06078155e+00  -2.93841210e-01
C     8.629094460599999e+00   5.154514458214321e+00   6.936234736000000e+00  4.79191780e-01   1.36476986e+00  -3.31487060e-01
C     8.531090892000000e+00   4.619838980127572e+00   1.001118752800000e+01 -4.12264333e+00   1.20307594e+00  -1.97545030e-01
C     9.624292780649998e+00   5.401316624216713e+00   9.988917799999999e+00  4.82233673e+00  -1.39691676e+00  -1.13742870e-01
