72
Lattice="7.395 0 0 3.6975 6.40425786098592 0 0 0 13.6 " PBC="1 1 1" Properties=species:S:1:pos:R:3:force:R:3 Energy="-579.10518718"
C     3.706887065100000e+00   6.224989105471938e+00   1.352341160000000e+01 -2.66090280e-01   9.21143360e-01  -1.08981690e-01
C     1.273317503625000e+00   5.348251455929383e-01   1.357747676800000e+01 -2.32356270e+00   2.25953372e+00  -2.82684550e-01
C     1.371783592500000e+00   9.509062564153152e-01   3.637015496000000e+00 -3.40652900e-02   7.00057410e-01  -3.84807910e-01
C     2.553093874200000e+00   1.743351832515493e+00   3.747777024000000e+00  1.58619960e+00  -3.14562912e+00  -1.00519804e+00
C     6.189977724749999e+00   6.283004124659263e+00   1.346899106400000e+01 -1.96413847e+00  -2.20494960e+00   4.21008120e-01
C     3.693757057725000e+00   5.569660739516874e-01   1.348080144000000e+01 -8.98162410e-01   7.28834440e-01  -2.17716920e-01
C     3.800736973125000e+00   1.000082823372633e+00   3.629084928000000e+00 -1.52325841e+00  -3.06863015e+00   1.29769450e-01
C     5.040493119675000e+00   1.612618706818119e+00   3.559241176000000e+00 -5.46178720e-01   9.78464470e-01  -9.64954000e-03
C     8.568669508875001e+00   6.274222029898423e+00   1.343482133600000e+01  2.92178879e+00  -1.84011873e+00   5.32785000e-02
C     6.121391429175000e+00   5.363856070631058e-01   1.348616079200000e+01  1.28386725e+00  -1.04516499e+00   1.52084220e-01
C     6.251775669150000e+00   9.272918364081372e-01   3.473358672000000e+00  2.36189531e+00   1.77688700e-01   3.32509160e-01
C     7.526999862599999e+00   1.632128445835088e+00   3.565470656000000e+00 -1.26858150e+00  -2.63081420e-01   5.26966000e-02
C     1.205491303125000e+00   2.039884533780093e+00   2.862201600000000e-02  1.47662184e+00  -3.07347973e+00  -5.38977200e-01
C     2.440665803475000e+00   2.714778163667770e+00   5.713754400000000e-02  1.14092100e-01   5.22229620e-01  -8.83659740e-01
C     2.566436931525000e+00   3.122294284070762e+00   3.671758600000000e+00  3.54866160e-01   8.92161850e-01  -5.10710800e-02
C     3.803098640325000e+00   3.808045052308497e+00   3.594826256000000e+00  1.82912370e+00   1.37870080e-01  -7.29973110e-01
C     3.663686473425000e+00   1.939450656486744e+00   1.353147436000000e+01  9.52585320e-01   3.16288529e+00   9.92050250e-01
C     4.944593132774999e+00   2.646993064859544e+00   1.356568815200000e+01 -2.10783766e+00   1.64821654e+00  -7.43804730e-01
C     5.013060553724999e+00   3.001764870293990e+00   3.569957432000000e+00  1.26892227e+00   4.16630717e+00   2.75949000e-01
C     6.299016297225000e+00   3.785190433453830e+00   3.595228544000000e+00 -2.17629089e+00  -3.30003305e+00  -2.22431780e-01
C     6.128208509924999e+00   1.921406275710722e+00   1.351032404800000e+01  1.54116395e+00   1.85170061e+00  -1.05114610e-01
C     7.383662577599999e+00   2.677060479129036e+00   1.347729332000000e+01 -1.95859355e+00   6.91097420e-01   6.76486790e-01
C     7.505397070950000e+00   3.040837055370114e+00   3.636337128000000e+00  1.56177914e+00   1.88228829e+00  -3.60569920e-01
C     8.757716361149999e+00   3.809002296730831e+00   3.622473016000000e+00 -1.93961729e+00   7.87817960e-01   2.70927040e-01
C     2.418220351575000e+00   4.181146740334364e+00   1.357329857600000e+01  1.85987086e+00  -3.10162006e+00  -2.46873480e-01
C     3.687273602400000e+00   4.812825783076912e+00   1.352186732000000e+01 -1.54844740e-01   1.18965668e+00   1.73911670e-01
C     3.875671321575000e+00   5.271970660771815e+00   3.431525071999999e+00 -1.78992907e+00  -2.30395518e+00   9.70139330e-01
C     5.103733384875000e+00   5.945371970492955e+00   3.496112967999999e+00 -5.69717540e-01  -5.03822640e-01   4.28703240e-01
C     4.925524237875000e+00   4.142047721417807e+00   1.351172484800000e+01 -8.27998880e-01  -2.82347796e+00   2.91592260e-01
C     6.120191812274999e+00   4.837744174026964e+00   1.344963663200000e+01  1.33955127e+00   6.14236620e-01  -4.40873200e-02
C     6.282056900024999e+00   5.152198358359253e+00   3.580687832000000e+00  1.22616815e+00   2.60441868e+00  -1.61012950e-01
C     7.521926374950000e+00   5.887259030202951e+00   3.590599104000000e+00 -1.37988780e+00   3.28137162e+00   3.03308720e-01
C     7.328044412850000e+00   4.100224779505655e+00   1.343790676800000e+01  2.25538130e+00   2.90897040e-01  -4.52952600e-02
C     8.621662411649998e+00   4.840515488530722e+00   1.342708416000000e+01 -3.22323775e+00   2.56191220e-01   5.65657770e-01
C     8.761108003950000e+00   5.283356470608217e+00   3.593281296000000e+00 -1.99394400e-01  -3.91210288e+00  -5.26543460e-01
C     9.987901602899999e+00   5.933385697439601e+00   3.463245983999999e+00  1.18925891e+00   7.74128030e-01   1.67866450e-01
C     7.446571472850000e+00   1.484751614598252e-01   6.982542327999999e+00 -9.62843800e-01  -9.80449470e-01  -9.05361800e-02
C     1.248639353325000e+00   8.892085968307543e-01   7.015304592000001e+00  1.11301801e+00  -2.25006503e+00  -6.55029260e-01
C     1.125128433075000e+00   4.807262020018458e-01   9.920647704000000e+00 -1.80169380e+00  -5.91088370e-01   2.18926790e-01
C     2.317240850100000e+00   1.171608766105378e+00   1.004185607200000e+01  1.01608974e+00   1.04462102e+00   1.63914120e-01
C     2.514952275975000e+00   1.589182645392342e-01   6.881602176000000e+00 -2.00047147e+00   9.68462760e-01   4.99288310e-01
C     3.743638292400000e+00   8.082047895865945e-01   6.852244944000001e+00  1.59108192e+00   1.13727360e+00   4.60578650e-01
C     3.520403097975000e+00   4.401449816461699e-01   1.010216962400000e+01  2.89868571e+00   1.28449140e+00  -8.39972930e-01
C     4.850684582400000e+00   1.220087204913377e+00   9.976970064000000e+00 -3.77856785e+00  -1.57343166e+00   8.99705440e-01
C     5.024389989525000e+00   1.248126454761186e-01   6.921935424000000e+00 -1.41680585e+00   1.28385977e+00  -1.59351240e-01
C     6.246107179799999e+00   8.615185711640510e-01   7.006212720000000e+00 -1.11962115e+00   1.67039518e+00  -8.30974090e-01
C     6.039462519974999e+00   5.352322002225198e-01   9.886682927999999e+00  1.05132319e+00  -1.83964329e+00   2.41544200e-01
C     7.294709527649999e+00   1.228040012323925e+00   9.845686680000000e+00  1.28208740e-01  -6.34811680e-01   3.20316820e-01
C     8.634558958874999e+00   2.258868653001160e+00   7.084687984000000e+00 -6.66469690e-01   2.06764747e+00  -1.13568354e+00
C     2.493148784025000e+00   2.884800706867880e+00   7.000576335999999e+00  1.60120690e-01   3.62862469e+00  -5.08736800e-02
C     2.341357017375000e+00   2.610490972505216e+00   1.004539302400000e+01 -2.99076900e-02   1.04372216e+00  -1.67075050e-01
C     3.586049733150000e+00   3.338850100839053e+00   9.981494919999999e+00 -1.16745205e+00  -1.41197036e+00   4.19198950e-01
C     3.751082764950000e+00   2.242647884650774e+00   6.907576543999999e+00 -2.16636155e+00  -1.92200929e+00   9.75098900e-02
C     4.930666277175000e+00   2.935992629731161e+00   6.936136136000000e+00  1.19302824e+00   3.98246836e+00  -6.69341300e-02
C     4.804612697100000e+00   2.615760459915003e+00   9.982102160000000e+00  4.34073260e-01   1.03307370e-01  -6.66129820e-01
C     6.013235117175000e+00   3.293700403138946e+00   9.828280855999999e+00  1.53360352e+00   2.34460183e+00   7.66516480e-01
C     6.187160229749999e+00   2.370516065594477e+00   6.960661832000000e+00  4.70223490e-01  -4.39624285e+00   4.24319400e-02
C     7.386942075224999e+00   3.074426299121978e+00   6.988798328000000e+00  1.49031218e+00  -2.33198966e+00   1.24344630e-01
C     7.305234942075000e+00   2.644969575546098e+00   9.808590232000000e+00 -1.29304368e+00  -5.91923700e-02   1.33687492e+00
C     8.518091665200000e+00   3.384631066236420e+00   9.998411144000000e+00  4.94280950e-01  -2.97315867e+00  -5.45510320e-01
C     9.881082158999998e+00   4.380612154577459e+00   6.994369296000000e+00 -1.60090877e+00  -1.40222227e+00  -4.91136070e-01
C     3.666177627075000e+00   5.089823832761468e+00   6.942513311999999e+00  2.69173518e+00   1.23591368e+00   2.99727040e-01
C     3.580257673350000e+00   4.719774478074256e+00   9.873820863999999e+00 -1.42201450e+00   2.21919825e+00   6.76342980e-01
C     4.816786494000000e+00   5.441972133963565e+00   9.892348552000000e+00 -1.97699395e+00   1.81535044e+00   1.28416860e-01
C     4.927074155925000e+00   4.402400528541015e+00   6.972153560000001e+00 -7.23282420e-01  -6.57940800e-02  -7.33870620e-01
C     6.130227233999999e+00   5.182093113836840e+00   6.918217456000000e+00  1.08129703e+00  -2.96047875e+00  -1.96881310e-01
C     6.007203533324999e+00   4.782588527888972e+00   9.896944808000001e+00  9.36630180e-01  -3.88075395e+00   3.21931260e-01
C     7.222479530699999e+00   5.430246193992220e+00   1.003508680800000e+01  1.68893813e+00   1.63686639e+00  -1.74438060e-01
C     7.382792851649999e+00   4.443916706501673e+00   6.919389096000000e+00  6.16930550e-01   2.25532194e+00   1.31765200e-01
C     8.656950057525000e+00   5.143720914144813e+00   6.949135832000001e+00  5.92577200e-02  -2.07072042e+00  -1.15032270e-01
C     8.510472152999998e+00   4.762541599722707e+00   1.000653347200000e+01 -1.57698344e+00   1.03167211e+00   5.99205700e-02
C     9.688696981874999e+00   5.475176737988358e+00   9.921220263999999e+00  3.10908035e+00   6.48485710e-01   1.68777990e-01
