72
Lattice="7.395 0 0 3.6975 6.40425786098592 0 0 0 13.6 " PBC="1 1 1" Properties=species:S:1:pos:R:3:force:R:3 Energy="-574.68787338"
C     3.716705295675000e+00   6.243273069534501e+00   1.314022847200000e+01 -3.02897520e-01   4.27119674e+00   1.29993128e+00
C     1.308344475750000e+00   6.117380410012873e-01   1.323128455200000e+01 -3.21574198e+00   2.76023200e-02  -8.90218300e-02
C     1.336628538975000e+00   9.154875723631638e-01   3.820206000000000e+00 -4.29492660e-01  -8.47714270e-01  -7.79286450e-01
C     2.554573502775000e+00   1.658480109694208e+00   3.773897864000000e+00 -9.84088350e-01  -3.66085330e-01  -4.37370900e-02
C     6.210355016999999e+00   6.300865727915959e+00   1.324262831200000e+01 -1.74416983e+00   1.40807114e+00  -2.39235000e-01
C     3.719165944950000e+00   6.535684758951349e-01   1.319937011200000e+01 -1.51633727e+00  -3.11474601e+00   1.21155754e+00
C     3.745221007275000e+00   8.797112105095315e-01   3.685325552000000e+00  1.31631914e+00   1.77571887e+00  -3.09475730e-01
C     5.016021252900000e+00   1.535680834804116e+00   3.556581288000000e+00 -1.16342474e+00   1.57113430e+00   2.28916829e+00
C     8.574428993700000e+00   6.308150443146553e+00   1.328125884000000e+01  6.13695140e-01  -2.15698339e+00   1.20060520e-01
C     6.096957498750000e+00   4.980830856965964e-01   1.320178968800000e+01  4.00885243e+00   3.45765108e+00  -7.11940390e-01
C     6.253385486699999e+00   8.283363179991901e-01   3.700624192000000e+00 -1.37259826e+00   3.34831443e+00  -3.67450960e-01
C     7.440531828450000e+00   1.535541862408554e+00   3.791265336000000e+00  3.89431861e+00   3.59850919e+00  -4.94040870e-01
C     1.229809945500000e+00   2.043101200375435e+00   1.326299907200000e+01 -1.42028471e+00   2.64074220e-01  -8.09748530e-01
C     2.419361917725000e+00   2.792649584350026e+00   1.335470305600000e+01  2.13436000e+00  -2.23560430e+00   1.65130610e-01
C     2.509190350800000e+00   3.078259567664081e+00   3.750270448000000e+00  3.31362056e+00  -1.07024399e+00  -7.33870690e-01
C     3.795533703225000e+00   3.736323384278886e+00   3.596712032000000e+00 -1.18597969e+00   1.77347671e+00   1.88446779e+00
C     3.699613897725000e+00   1.981183362405648e+00   1.334705360000000e+01 -5.09629750e-01   5.31794625e+00  -1.59967621e+00
C     4.932590160375000e+00   2.710513312188482e+00   1.306609133600000e+01 -9.40290120e-01  -1.55542250e-01   1.55169874e+00
C     4.979128041599999e+00   3.003001084188706e+00   3.775795472000000e+00  5.65545370e-01  -2.51266862e+00  -2.46361805e+00
C     6.203010155099999e+00   3.656842893809305e+00   3.747856312000000e+00  3.89313497e+00   2.71793987e+00  -3.54555970e-01
C     6.153968178974999e+00   1.960242976225334e+00   1.301755048800000e+01 -1.18334689e+00   2.77812180e-01   7.36170790e-01
C     7.336372070249999e+00   2.735076010656990e+00   1.298993133600000e+01  2.56432799e+00  -5.17507650e-01   1.19860473e+00
C     7.567367503724999e+00   3.052480188287330e+00   3.731804912000000e+00 -7.40335886e+00  -4.54816929e+00   6.65086050e-01
C     8.695390487699999e+00   3.760267559523275e+00   3.771506032000000e+00  1.80103360e+00   9.58588280e-01  -5.89037460e-01
C     2.460512985150000e+00   4.182504378958106e+00   1.335734526400000e+01 -2.20360331e+00   1.11054307e+00   1.47551250e-01
C     3.684743994750000e+00   4.911067610989940e+00   1.323858734400000e+01 -1.51170510e-01  -4.07339550e+00   8.21344300e-02
C     3.867269899050000e+00   5.216769736530752e+00   3.683354096000000e+00 -2.09495451e+00  -2.29389075e+00  -2.82532180e-01
C     5.086972432500000e+00   5.890439128485912e+00   3.671944648000000e+00 -4.78126000e-01  -1.54477360e-01   5.99449530e-01
C     4.876500157650000e+00   4.152417687872454e+00   1.309830783200000e+01  1.61967383e+00   5.16732220e-01   6.11190830e-01
C     6.083507250899999e+00   4.932963640528123e+00   1.311418311200000e+01  2.61144669e+00  -3.40687477e+00  -9.34550180e-01
C     6.277826812124999e+00   5.103438516460884e+00   3.682066992000000e+00 -1.31865053e+00   6.95585260e-01   6.05350710e-01
C     7.444357188000000e+00   5.901708188701526e+00   3.756458040000000e+00  1.96021223e+00  -3.49596198e+00  -9.96032770e-01
C     7.391311152149999e+00   4.185929376061633e+00   1.297602506400000e+01 -3.08908987e+00  -8.91899580e-01   2.43613042e+00
C     8.535543199650000e+00   4.871958985686593e+00   1.337503600800000e+01  2.71166333e+00  -1.02545350e-01  -1.96831172e+00
C     8.704731334049999e+00   5.145930447149092e+00   3.711617208000000e+00  5.99817710e-01   3.39377751e+00   8.28505870e-01
C     9.986424932324999e+00   5.896025498574612e+00   3.771093136000000e+00 -9.07102150e-01  -4.56368240e+00  -1.11525386e+00
C     7.444571236274999e+00   9.444403895947021e-02   6.594740231999999e+00  9.44084050e-01   6.58067980e-01   1.80622763e+00
C     1.285552087425000e+00   8.253210012709662e-01   6.872086528000001e+00 -2.47562196e+00   2.40892070e-01  -8.23376490e-01
C     1.123815820575000e+00   5.034599084681167e-01   1.026137598400000e+01  3.00649200e-02   2.60378948e+00  -1.30055202e+00
C     2.306327346075000e+00   1.200140311254885e+00   1.010678655200000e+01  3.47399583e+00   2.02634949e+00   3.77489730e-01
C     2.478485904075000e+00   1.833628044502254e-01   7.044212616000000e+00  1.62686173e+00  -4.38659606e+00  -3.70650310e-01
C     3.774512269500000e+00   7.626328591657777e-01   7.108943176000000e+00  2.95354710e-01   2.90983520e-01  -2.07860450e-01
C     3.608564476200000e+00   4.938181061321508e-01   9.887266367999999e+00 -2.78552592e+00   2.65316439e+00   2.37711189e+00
C     4.806982092075000e+00   1.257329181178270e+00   1.013708585600000e+01  1.73446838e+00  -6.24916350e-01  -1.02674343e+00
C     5.062962383474999e+00   7.941503895425100e-02   7.000879616000000e+00 -1.07570789e+00   1.07725050e+00  -1.46405161e+00
C     6.282084631275000e+00   8.990605228671067e-01   6.723176864000000e+00 -3.00153910e+00  -3.67979114e+00   1.33561976e+00
C     6.088536405525000e+00   6.000303531648427e-01   1.008378609600000e+01 -1.04207937e+00  -1.87551626e+00   3.88140330e-01
C     7.323775612125000e+00   1.296150255303704e+00   1.023721259200000e+01 -1.29628336e+00  -1.09443006e+00   1.01823770e-01
C     8.617109790824999e+00   2.222103729904258e+00   6.902968048000000e+00  1.61364995e+00   2.00218803e+00   1.06094471e+00
C     2.524654294125000e+00   2.895996630458732e+00   7.145634616000001e+00 -2.58844223e+00  -1.36933180e-01  -2.56989054e+00
C     2.362969163700000e+00   2.705551229155975e+00   1.025936549600000e+01  1.36080821e+00  -3.79422212e+00  -6.09926910e-01
C     3.577281222824999e+00   3.379967549705347e+00   1.034537679200000e+01  1.85387964e+00   3.46477660e-01  -1.06352934e+00
C     3.710749695450000e+00   2.149551749843098e+00   7.145558727999999e+00  2.71819409e+00   3.48071778e+00  -1.87231530e-01
C     4.971227186625000e+00   3.000232971813878e+00   7.077346296000000e+00 -1.78130232e+00  -4.83479866e+00  -3.56285240e-01
C     4.860026759849999e+00   2.679762819775642e+00   1.029037363200000e+01 -4.43443317e+00  -1.93098283e+00  -2.71153420e-01
C     6.016466510324999e+00   3.352055744588951e+00   1.021839400000000e+01  3.95998507e+00   1.16226580e+00   2.12269700e-01
C     6.182900746724999e+00   2.272810081936595e+00   6.883798847999999e+00  1.64156669e+00   1.98397220e+00  -1.25907070e-01
C     7.427260872375000e+00   3.015643025161767e+00   6.823011607999999e+00 -1.03599048e+00  -3.80208480e-01   7.13162480e-01
C     7.314222455324999e+00   2.696703426709492e+00   1.029243076800000e+01  6.85981640e-01   3.96595670e-01  -1.72400797e+00
C     8.617510119149999e+00   3.411666512707253e+00   1.015427081600000e+01 -5.40475273e+00   1.18052689e+00   5.59968670e-01
C     9.856804447949999e+00   4.284252538049484e+00   6.795527504000000e+00  1.85096629e+00   1.66259596e+00   1.49643354e+00
C     3.699985866225000e+00   5.074517528390911e+00   6.724228688000000e+00 -6.17212760e-01  -1.08769620e+00   8.39887250e-01
C     3.564428564925000e+00   4.789457222528980e+00   1.025289828800000e+01  1.18572323e+00   8.82447730e-01  -5.98254190e-01
C     4.832305012425000e+00   5.552169622577378e+00   1.019008097600000e+01 -1.67303980e+00  -4.49455872e+00   4.16441860e-01
C     4.919490176700000e+00   4.348839222397269e+00   6.990763528000000e+00  3.57491120e-01   3.45647943e+00  -8.49730800e-01
C     6.144904386299999e+00   5.112472682811094e+00   6.999298752000000e+00 -2.31464450e-01   1.55400911e+00  -7.15716800e-02
C     6.013078491074999e+00   4.753145336633094e+00   1.015100967200000e+01  5.95733920e-01   3.00877462e+00  -8.62481670e-01
C     7.220715934125000e+00   5.518152638443045e+00   9.926409207999999e+00  2.39062308e+00  -2.45596731e+00   9.40856280e-01
C     7.377746799450000e+00   4.476480436442414e+00   6.935871071999999e+00  1.17654946e+00  -3.24539591e+00  -7.67372800e-02
C     8.663148583500000e+00   5.060877419787790e+00   6.900237168000000e+00  4.77844260e-01   1.29817890e+00  -1.49771080e-01
C     8.527344806850000e+00   4.838521586888590e+00   1.002024512800000e+01 -8.16881280e-01  -1.08451512e+00   2.13045600e-02
C     9.755641328625000e+00   5.492917813112130e+00   1.004459497600000e+01  3.09598010e-01   3.11767564e+00   5.68537910e-01
