72
Lattice="7.395 0 0 3.6975 6.40425786098592 0 0 0 13.6 " PBC="1 1 1" Properties=species:S:1:pos:R:3:force:R:3 Energy="-581.59516987"
C     1.104951641460000e+01   6.362742386507708e+00   1.341341031200000e+01  1.27622240e+00   1.11889100e-02  -2.52587580e-01
C     1.202871476475000e+00   6.834066177332394e-01   1.336694278400000e+01  5.67487500e-02  -1.26129097e+00   9.65530800e-02
C     1.249318029450000e+00   7.509358664399592e-01   3.452888088000000e+00  4.46962310e-01   4.88851780e-01   1.72901910e-01
C     2.485429476300000e+00   1.478237843928846e+00   3.429488064000000e+00  1.05267943e+00  -1.98090399e+00   3.89961380e-01
C     6.139822616249999e+00   6.351042575908431e+00   1.339341083200000e+01  1.52749230e-01   9.60127450e-01   4.65234480e-01
C     3.681272670825000e+00   6.705297045392946e-01   1.341944803200000e+01 -1.84612950e-01  -3.40693130e-01  -8.12732010e-01
C     3.761517590625000e+00   7.824876595962427e-01   3.530599303999999e+00 -1.51694023e+00  -1.06101551e+00  -3.08326930e-01
C     4.983123671025000e+00   1.507685069867176e+00   3.598686480000000e+00 -8.40451810e-01  -4.54736290e-01  -7.95433790e-01
C     8.619948953174999e+00   6.388552506322187e+00   1.338000259200000e+01  2.73334240e-01  -1.08804162e+00   4.20404910e-01
C     6.155286115875000e+00   7.004333619353070e-01   1.342678904000000e+01 -5.92166040e-01   4.09889300e-02   5.39918800e-02
C     6.177634064700000e+00   7.864542647869909e-01   3.584932936000000e+00  1.43157231e+00  -5.29480020e-01  -5.22593060e-01
C     7.430441166074999e+00   1.484588370065401e+00   3.476852784000000e+00 -9.59809180e-01   2.10721140e-01   3.67122350e-01
C     8.596647825824999e+00   2.094253352797406e+00   1.332946404000000e+01  1.02343043e+00  -1.30557020e-01   7.21812520e-01
C     2.449597965150000e+00   2.798330481284739e+00   1.327689337600000e+01  8.96760200e-02  -2.58264820e-01   1.82291300e-02
C     2.502561842550000e+00   2.857533234134779e+00   3.466967080000000e+00 -7.95836710e-01   2.12364636e+00   2.29088610e-01
C     3.701306354400000e+00   3.597736717167793e+00   3.585783208000000e+00  1.53811657e+00   2.24238750e-01  -7.75518660e-01
C     3.680672307750000e+00   2.082554246666494e+00   1.329978829600000e+01  8.37280090e-01   7.54470130e-01   1.53783919e+00
C     4.929167643450000e+00   2.816525618290784e+00   1.351144754400000e+01 -8.87850770e-01   3.63070610e-01  -1.03363923e+00
C     4.982956211249999e+00   2.910865716145187e+00   3.516686232000000e+00 -9.06151760e-01   1.30683880e+00   8.64879980e-01
C     6.203517304199999e+00   3.665135254971591e+00   3.526748600000000e+00 -9.84351620e-01  -1.53161822e+00  -1.19084100e-02
C     6.178157482800000e+00   2.145365542650330e+00   1.352833248800000e+01 -1.66431880e+00  -2.20346452e+00   3.20325000e-02
C     7.395670689524999e+00   2.790225444664858e+00   1.354514616800000e+01  7.03738060e-01   2.00167131e+00  -4.71909300e-01
C     7.409816030399999e+00   2.927643847057129e+00   3.486134104000000e+00  1.33363327e+00  -3.91721330e-01  -2.34267740e-01
C     8.676008673375000e+00   3.609867086022998e+00   3.464454616000000e+00 -6.45350390e-01  -6.51008800e-01   3.71608180e-01
C     2.479949670374999e+00   4.214785232829171e+00   1.327992291200000e+01 -5.97602370e-01  -2.27164080e-01   5.23908710e-01
C     3.692891657850000e+00   4.918109348677326e+00   1.336859953600000e+01 -5.95235690e-01   1.81052416e+00   7.53802100e-02
C     3.702376484850000e+00   5.032736726495478e+00   3.610100688000000e+00  2.45794290e-01  -9.67399300e-02  -5.28054140e-01
C     4.961015652975000e+00   5.732484320499137e+00   3.562185576000000e+00 -2.23036143e+00   1.33120070e+00  -1.64017580e-01
C     4.910169962399999e+00   4.259940566276195e+00   1.347680290400000e+01  1.01373311e+00  -1.81030682e+00   2.21984750e-01
C     6.152731402200000e+00   4.947515395237616e+00   1.351978815200000e+01  7.64902330e-01  -3.24200460e-01   6.88108000e-02
C     6.161929820849999e+00   5.074686792926150e+00   3.558656784000000e+00  2.02400941e+00  -1.36800900e+00  -4.78384810e-01
C     7.418848911974999e+00   5.720143571773231e+00   3.503404064000000e+00  6.19414190e-01   2.30971627e+00   6.07339920e-01
C     7.420183302749999e+00   4.225418542367023e+00   1.357575500800000e+01 -6.20697180e-01   3.97352410e-01  -1.18043473e+00
C     8.652226538250000e+00   4.925372289431194e+00   1.334487787200000e+01 -1.06634642e+00   1.19475733e+00   1.04252471e+00
C     8.662850897775000e+00   5.019152847276368e+00   3.547470512000000e+00 -5.38023940e-01   3.53438130e-01  -6.38538750e-01
C     9.866957967825000e+00   5.764116487091563e+00   3.546428344000000e+00  7.42861020e-01  -2.29356780e-01   6.32305310e-01
C     2.055292350000000e-02   2.484544645302720e-02   7.044383160000000e+00 -9.51179890e-01   1.32936818e+00  -5.49649100e-01
C     1.252446632100000e+00   7.172178330625308e-01   6.874059343999999e+00 -6.34991400e-01   1.57205792e+00  -1.08418320e-01
C     1.218195876150000e+00   6.549015862112725e-01   1.017720640000000e+01 -2.00249243e+00   2.49525260e-01   4.90341420e-01
C     2.412047005575000e+00   1.376539061665568e+00   1.020695898400000e+01  1.66311035e+00   4.28129500e-02   2.26714700e-01
C     2.456673316275000e+00   2.173906117803420e-02   6.744549672000000e+00  1.57475539e+00   2.31330470e-01   3.30984450e-01
C     3.681436026375000e+00   7.812795603935323e-01   6.691124112000000e+00  4.52945510e-01  -8.30008700e-01   2.21957510e-01
C     3.673179397950000e+00   6.785503330405801e-01   1.039218445600000e+01 -1.56859990e-01  -8.37161250e-01  -1.72605008e+00
C     4.912638413400001e+00   1.376467910360743e+00   1.022680900000000e+01 -1.31145729e+00  -4.73456270e-01   1.00961903e+00
C     4.915352008649999e+00   3.587037635901720e-02   6.808582007999999e+00 -5.62544850e-01   2.73006270e-01   6.46794500e-01
C     6.129901262399999e+00   7.232866358958240e-01   6.993421784000000e+00  1.76819754e+00   7.67670990e-01  -9.03540420e-01
C     6.122482191674999e+00   6.474743762432946e-01   1.030472190400000e+01 -2.72426100e-01  -4.05911330e-01  -6.61350350e-01
C     7.323420023550000e+00   1.346164883444581e+00   1.019381635200000e+01  2.36872775e+00   2.07123800e-01  -9.54864300e-02
C     1.257999241800000e+00   2.178054667959971e+00   6.811228568000000e+00  4.65565600e-01  -1.21634284e+00  -6.83495300e-02
C     2.480726626050000e+00   2.931526364342176e+00   6.677287336000000e+00  8.05574900e-02  -8.78956420e-01   1.33632478e+00
C     2.421150509400000e+00   2.801056005344797e+00   1.011816512800000e+01  2.13093530e-01  -1.28611740e-01   2.48475050e-01
C     3.676627538550000e+00   3.494460886406491e+00   1.007907777600000e+01 -1.45095898e+00   6.82657050e-01   7.39341700e-01
C     3.718701982650000e+00   2.211009569970801e+00   6.663607231999999e+00 -1.19823142e+00  -1.04092156e+00   2.09930910e-01
C     4.940429451975000e+00   2.882179700296096e+00   6.737389544000000e+00  1.31020311e+00   1.46685840e-01   4.14609680e-01
C     4.878061611900000e+00   2.787713374519273e+00   1.015135416000000e+01  1.49954417e+00   2.89510230e-01  -1.05006240e-01
C     6.114795717750000e+00   3.509325937410493e+00   1.021402595200000e+01  5.08753540e-01  -2.54732680e-01  -2.34613560e-01
C     6.179665619100000e+00   2.152063755946104e+00   6.866625312000000e+00 -9.39432640e-01  -6.26763550e-01   2.04235680e-01
C     7.414408547250000e+00   2.828863164887760e+00   6.889734160000001e+00  7.55337600e-02   2.00571087e+00  -4.46743120e-01
C     7.357752309375000e+00   2.760912259843538e+00   1.018055988800000e+01 -1.02014256e+00   1.15203554e+00   4.07281490e-01
C     8.577728125049999e+00   3.500403653445098e+00   1.020248825600000e+01  2.92368260e-01  -7.72103700e-01  -3.04457130e-01
C     9.895441215375000e+00   4.331434691024040e+00   6.909005767999999e+00 -1.12106323e+00  -6.77240000e-03  -7.64189440e-01
C     3.716419589850000e+00   5.046327458270499e+00   6.981146288000000e+00  1.42361815e+00  -2.12223382e+00  -8.54635370e-01
C     3.667189373999999e+00   4.926902394719105e+00   1.016603672000000e+01  1.47289080e-01   4.70743700e-02   2.61070990e-01
C     4.911623560574999e+00   5.651976523026233e+00   1.021845574400000e+01 -5.32055820e-01  -5.01152750e-01  -2.19609330e-01
C     4.974945059850000e+00   4.289578318885860e+00   6.804394295999999e+00 -7.80073480e-01   1.36600559e+00   5.52715320e-01
C     6.225433828725000e+00   4.998722752362339e+00   6.796669768000000e+00 -1.80405735e+00   1.02842120e-01  -2.14236400e-02
C     6.131231770799999e+00   4.944093087922388e+00   1.027079602400000e+01  6.79939930e-01  -9.27987820e-01   3.90127200e-02
C     7.394450810324999e+00   5.622045327321423e+00   1.038126420000000e+01 -2.12948635e+00   1.65756412e+00  -2.83449000e-01
C     7.430645120174999e+00   4.288207359405770e+00   6.827323624000001e+00 -7.67607600e-02  -1.00996947e+00   4.98842600e-02
C     8.628577402199998e+00   5.018380429735873e+00   6.867790288000000e+00  9.05262030e-01  -5.83938900e-02  -7.48753000e-03
C     8.578280975249999e+00   4.905829824656561e+00   1.032391368000000e+01  1.41104608e+00   2.55207020e-01  -3.43907350e-01
C     9.822494236199999e+00   5.626025765709150e+00   1.029855416800000e+01  8.31585900e-02  -3.29311800e-01  -3.50541450e-01
