72
Lattice="7.395 0 0 3.6975 6.40425786098592 0 0 0 13.6 " PBC="1 1 1" Properties=species:S:1:pos:R:3:force:R:3 Energy="-564.05319398"
C     1.100363380432500e+01   6.261060127229708e+00   1.358586796800000e+01  1.34180180e+00   8.21409130e-01  -1.84826341e+00
C     1.256837265450000e+00   3.833748861442500e-01   1.353712529600000e+01 -4.63567131e+00   6.84536096e+00   5.95226920e-01
C     1.271760449400000e+00   9.574359096442140e-01   3.795068712000000e+00  4.37931556e+00  -1.01708431e+00   4.60788230e-01
C     2.638080024300000e+00   1.509546467414185e+00   3.954871296000000e+00 -4.50929720e-01   3.86730230e+00  -2.87073200e-01
C     6.172200292649999e+00   6.228723428230103e+00   1.340595424800000e+01 -1.42149753e+00  -3.23538599e+00  -1.80744225e+00
C     3.652202371200000e+00   5.272113155509200e-01   1.342311255200000e+01  3.50600950e-01   1.35955400e-02   6.78510510e-01
C     3.962587159950000e+00   1.009232010194008e+00   3.787798832000000e+00 -4.86308928e+00  -3.65888592e+00  -3.56813930e-01
C     5.104466784000000e+00   1.715538396799828e+00   3.629482320000000e+00  1.26802812e+00   6.19107570e-01  -8.49357650e-01
C     8.519018332649999e+00   6.232735439609079e+00   1.327853068000000e+01  4.17826154e+00   1.78208318e+00   4.76442800e-02
C     6.027320151824999e+00   5.444794362317311e-01   1.324006294400000e+01  3.16154670e+00   1.05906256e+00   1.31133540e+00
C     6.314839526625000e+00   9.668484395487918e-01   3.475381400000000e+00  5.89057900e-01  -2.24313260e-01   7.55006730e-01
C     7.536946063649999e+00   1.711664845475785e+00   3.820837312000000e+00 -2.97383386e+00  -6.87266600e-02  -1.28965807e+00
C     1.218054298875000e+00   1.909491025877035e+00   1.359944580000000e+01  1.23773480e-01   1.42435342e+00  -3.05334850e-01
C     2.457506621850000e+00   2.578344736134368e+00   2.196178320000000e-01 -1.74754800e-01   3.24022427e+00  -5.27426200e-01
C     2.658081761475000e+00   2.949191805180621e+00   3.996108264000000e+00 -2.09156264e+00   3.19510453e+00  -1.46266755e+00
C     3.728634576900000e+00   3.786482364391928e+00   3.542740568000000e+00  3.80285346e+00  -1.17780866e+00   7.77577340e-01
C     3.729694798050000e+00   1.874167893352154e+00   1.365736480000000e-01 -1.22709145e+00   3.30910722e+00  -2.85250833e+00
C     4.844123035875000e+00   2.644729031620876e+00   1.314923860800000e+01 -2.52841490e-01   2.04635499e+00   2.97875777e+00
C     4.995844476075000e+00   3.110680418611966e+00   3.488493840000000e+00  3.19132936e+00   2.23285483e+00   9.54115130e-01
C     6.400269228825000e+00   3.919363093920074e+00   3.600654672000000e+00 -3.85587482e+00  -4.16088429e+00   2.53949440e-01
C     6.053894417100000e+00   1.946785388971223e+00   1.305485909600000e+01  3.06880994e+00   2.32311354e+00   1.03669065e+00
C     7.466234260200000e+00   2.833059234637632e+00   1.326084347200000e+01 -1.80447956e+00  -4.81360449e+00  -6.95030620e-01
C     7.559437105724999e+00   3.145317719162619e+00   3.964108552000000e+00  6.14434990e-01   3.78430750e-01  -9.32673190e-01
C     8.851063076399999e+00   3.786222095352497e+00   4.064189184000000e+00 -2.61681247e+00   4.90874490e-01  -2.76721870e+00
C     2.463501452550000e+00   4.159508866430517e+00   1.884855280000000e-01  8.06524960e-01  -2.89452220e+00  -1.26805418e+00
C     3.712114257825000e+00   4.898009009000507e+00   6.532555999999999e-02 -1.89585036e+00  -3.13129242e+00  -3.25367970e-01
C     3.783820725750000e+00   5.255224102851123e+00   3.410811728000000e+00 -7.87574490e-01  -3.70433594e+00   5.08294220e-01
C     4.933957902600000e+00   5.982673634441103e+00   3.597367144000000e+00  3.79544279e+00  -1.67815080e+00  -4.87391040e-01
C     4.875761212275000e+00   4.185239829617847e+00   1.327158597600000e+01  1.52110765e+00  -2.79123462e+00  -1.00495374e+00
C     6.110933161349999e+00   4.851553739293061e+00   1.291261370400000e+01  1.94315556e+00   3.91597280e-01   3.62052203e+00
C     6.287040686325000e+00   5.263078604903520e+00   3.611063160000000e+00  9.77674800e-02   3.33950274e+00   7.17470340e-01
C     7.589872485375000e+00   5.985269216109183e+00   3.703082936000000e+00 -3.21050220e+00   6.84702270e-01  -4.90424110e-01
C     7.497672106050000e+00   4.239619471830943e+00   1.306540412800000e+01 -2.60674924e+00  -4.01432782e+00   7.39298010e-01
C     8.718894570825000e+00   4.881407251350030e+00   1.338278773600000e+01 -2.46228727e+00  -2.38540479e+00   1.61324000e-01
C     8.724428914874998e+00   5.291877912074154e+00   3.539206472000000e+00  2.44790325e+00  -6.31481285e+00   2.20172799e+00
C     9.951078422249999e+00   5.834935603060964e+00   3.318215040000000e+00  7.03214080e-01   7.23807789e+00   1.17010688e+00
C     7.401759399750000e+00   2.214963814943880e-01   6.679982176000000e+00  7.94634760e-01  -3.05370875e+00   3.69499110e-01
C     1.272915844200000e+00   8.907751423458889e-01   6.902305999999999e+00  4.43793290e-01  -4.49032064e+00   5.79810340e-01
C     1.088791621575000e+00   5.283328932299418e-01   9.892445656000000e+00 -1.71978690e-01  -3.10216228e+00   4.09835880e-01
C     2.331870267675000e+00   1.127069138009014e+00   1.017646044000000e+01 -1.24712260e+00   2.62238827e+00  -1.12253093e+00
C     2.513532546900000e+00   1.292530376633496e-01   7.157807160000000e+00 -4.48923838e+00  -1.16347490e-01  -2.00387342e+00
C     3.576853976700000e+00   9.203138851290383e-01   7.277356055999999e+00  5.97810593e+00   1.40693068e+00  -1.58528403e+00
C     3.498459396825000e+00   4.492590090918931e-01   9.853739647999999e+00  4.11427784e+00   1.66185874e+00   1.91856910e+00
C     4.868465231325000e+00   1.223311044277522e+00   9.959683784000001e+00 -4.46570278e+00  -1.58555662e+00  -1.24143138e+00
C     4.788440423700000e+00   2.085738699844800e-01   6.833743912000000e+00  2.11467034e+00  -4.41283970e-01   6.12199800e-01
C     6.111262756500000e+00   8.172630999889358e-01   6.628762535999999e+00 -3.90534430e-01   2.68323662e+00   2.68359888e+00
C     5.994809809125000e+00   4.218469922588922e-01   9.721947488000000e+00  1.67077533e+00  -3.57374900e-02   1.46501354e+00
C     7.224686198700001e+00   1.201343735349358e+00   9.829966984000000e+00  1.55905280e-01  -2.12551593e+00   4.59354960e-01
C     1.390341862650000e+00   2.199134282706161e+00   7.030676808000000e+00 -4.08993176e+00   5.81773522e+00   6.95639600e-01
C     2.497972061850000e+00   3.072980537910083e+00   7.261058496000000e+00  3.46346280e-01   1.41480279e+00  -1.68080243e+00
C     2.297153811600000e+00   2.565881666083336e+00   1.031552574400000e+01 -3.64317000e-01   2.41008342e+00  -1.67906426e+00
C     3.552246855375000e+00   3.413476035765596e+00   1.028658943200000e+01 -2.39540190e-01  -7.32410300e+00  -8.55255390e-01
C     3.711150097725000e+00   2.391635963122606e+00   7.363358920000000e+00 -5.29439260e-01  -2.39630631e+00  -1.69205448e+00
C     4.982393525700000e+00   2.946731481438545e+00   7.107754128000000e+00 -1.34686261e+00   4.57453970e+00  -4.16063730e-01
C     4.764286689824999e+00   2.683248721371418e+00   9.972016536000000e+00  1.32774795e+00  -2.65053908e+00   1.75939530e+00
C     6.027914561924999e+00   3.290974110567944e+00   9.871422367999999e+00 -2.44796582e+00   3.62527649e+00  -1.69220470e-01
C     6.143238033974999e+00   2.287252836177309e+00   6.974707912000000e+00  2.39581660e+00  -4.85734196e+00  -1.44118243e+00
C     7.420368917249999e+00   2.874743396281958e+00   7.050441960000000e+00  1.92023485e+00   4.47918180e-01  -7.79307480e-01
C     7.191907158675000e+00   2.607183429490841e+00   9.920470496000000e+00  9.28604020e-01  -2.01516633e+00  -4.53886420e-01
C     8.396242401449999e+00   3.280539461108910e+00   9.956175935999999e+00  4.31804701e+00  -6.26087170e-01   1.91848900e+00
C     9.928568744774999e+00   4.579323147244646e+00   6.934913088000000e+00 -1.79321099e+00  -4.00752879e+00   6.44730980e-01
C     3.815123834700000e+00   5.108867085635914e+00   6.814357520000000e+00 -9.93298870e-01   3.73970641e+00  -5.00759070e-01
C     3.637471716074999e+00   4.705165149086602e+00   1.005474261600000e+01 -1.76245168e+00   3.93291786e+00  -1.29115070e+00
C     4.870949507624999e+00   5.418979631437172e+00   9.836892240000001e+00 -3.68368633e+00   3.36592808e+00   6.75643670e-01
C     5.085762795375000e+00   4.439246913797896e+00   6.893819600000000e+00 -5.32699207e+00  -2.76587043e+00   8.24148580e-01
C     6.219124599599999e+00   5.136553204705323e+00   6.967843448000000e+00  3.75868412e+00  -1.88861725e+00   4.79493010e-01
C     6.048768424950000e+00   4.771016482234002e+00   9.754996439999999e+00  2.32802870e-01  -3.02739906e+00   9.92345130e-01
C     7.214001422024999e+00   5.485808446461744e+00   9.692042720000000e+00  3.95562995e+00  -1.61368230e+00   8.10000840e-01
C     7.442383425525000e+00   4.240217949727961e+00   7.067374775999999e+00  1.54406770e-01   6.88879004e+00  -1.12543272e+00
C     8.598513362475000e+00   5.204751442188098e+00   6.864063344000001e+00  6.27248340e-01  -3.02405760e+00   8.37726860e-01
C     8.517241351125000e+00   4.666907393482535e+00   9.792941799999999e+00 -2.70427456e+00   1.01923244e+00   2.05180500e-01
C     9.740721657300000e+00   5.279485352902161e+00   9.824695759999999e+00  7.74570390e-01   5.51858364e+00   2.83065870e-01
