72
Lattice="7.395 0 0 3.6975 6.40425786098592 0 0 0 13.6 " PBC="1 1 1" Properties=species:S:1:pos:R:3:force:R:3 Energy="-583.18269625"
C     3.706588381050000e+00   6.361280678693742e+00   1.338679919200000e+01 -7.49546310e-01  -4.18780400e-01  -2.74385900e-02
C     1.215614984175000e+00   6.662521726294435e-01   1.337489701600000e+01  6.01754540e-01   5.66432660e-01   2.75829400e-01
C     1.276283046525000e+00   7.855203318632671e-01   3.520861024000000e+00 -2.16318840e-01   9.72891600e-02   3.24496400e-02
C     2.501208076875000e+00   1.500143415811240e+00   3.507240352000000e+00 -3.48344360e-01   8.47623750e-01  -1.34245910e-01
C     6.136055640225000e+00   6.373648389345238e+00   1.341072580800000e+01  1.18443653e+00  -8.48399380e-01  -1.62487310e-01
C     3.685166988750000e+00   6.833385404721877e-01   1.337176656800000e+01  1.90921340e-01  -5.00554010e-01   5.66980420e-01
C     3.707728542149999e+00   7.783099700664289e-01   3.514055720000000e+00  5.92079380e-01  -9.14740800e-02   1.91377440e-01
C     4.935378851849999e+00   1.480804158138505e+00   3.545898760000000e+00  1.11014853e+00   2.91501430e-01  -1.59245650e-01
C     8.628736024949999e+00   6.345054722894488e+00   1.341912231200000e+01 -6.45983840e-01   1.22544055e+00  -3.00445790e-01
C     6.173899146000000e+00   6.650112195839113e-01   1.340732866400000e+01 -8.88446890e-01  -8.00898070e-01   1.88186690e-01
C     6.197963733150000e+00   7.893149186878957e-01   3.555485944000000e+00 -2.73825930e-01  -9.19284260e-01   5.88816600e-02
C     7.436940335775000e+00   1.499883402942124e+00   3.529113368000000e+00 -5.85376760e-01  -1.38701583e+00  -5.65795300e-02
C     1.227550846950000e+00   2.095776477444250e+00   1.337372007200000e+01  1.63582960e-01  -3.05782610e-01   6.08471000e-02
C     2.465842746525000e+00   2.806460366425116e+00   1.334604094400000e+01 -8.98655940e-01   6.12404720e-01   2.76140700e-01
C     2.505059503800000e+00   2.955641725399163e+00   3.500947768000000e+00 -5.39895280e-01  -1.17393855e+00   1.97280810e-01
C     3.745939209675000e+00   3.652075500215743e+00   3.551654008000000e+00 -4.31858390e-01  -1.08383990e+00  -2.70029200e-01
C     3.690687504150000e+00   2.120042594731261e+00   1.337370048800000e+01 -2.93287890e-01  -1.46338007e+00  -1.28525800e-02
C     4.911646374149999e+00   2.797494213293380e+00   1.341815589600000e+01  9.58286700e-01   4.38793400e-02   1.91759030e-01
C     4.952798624774999e+00   2.903379587004897e+00   3.552373992000000e+00  3.44811550e-01   3.82417000e-01   4.47578000e-03
C     6.201992381250000e+00   3.608732059402470e+00   3.555526880000000e+00 -8.53044530e-01  -1.94589460e-01  -2.42053520e-01
C     6.140524290825000e+00   2.066703003994629e+00   1.344481135200000e+01  9.11785810e-01   1.08972735e+00  -2.17657540e-01
C     7.396014150300000e+00   2.792468023639695e+00   1.341826714400000e+01 -1.06509481e+00   2.42167890e-01   1.51430040e-01
C     7.406933755199999e+00   2.882537762353049e+00   3.512717751999999e+00  1.37920662e+00   1.93454238e+00   8.87080000e-02
C     8.641531556475000e+00   3.635397275726417e+00   3.505591352000000e+00  3.99641290e-01  -7.25890500e-02   1.00187260e-01
C     9.828868689224999e+00   4.237202184701686e+00   1.335707761600000e+01  1.14091057e+00  -4.21257190e-01   8.06905200e-02
C     3.690925512225000e+00   4.938176386213271e+00   1.335476792800000e+01  2.85163300e-02  -3.23436900e-01   5.59277930e-01
C     3.742021560525000e+00   5.051225242554090e+00   3.559337872000000e+00  1.12957190e-01   5.97255520e-01   9.48292500e-02
C     4.962904409925000e+00   5.772343909079148e+00   3.549329224000000e+00  1.07913948e+00  -7.10052450e-01  -1.46674190e-01
C     4.934788656900000e+00   4.209339756413392e+00   1.343407578400000e+01 -8.87174580e-01   6.02720210e-01  -3.07862730e-01
C     6.160506690075000e+00   4.918726527007293e+00   1.344692996000000e+01 -8.36760960e-01   1.39343247e+00   2.01728100e-02
C     6.214222010400000e+00   5.024600757310134e+00   3.540949720000000e+00 -7.08791360e-01   1.13592984e+00   4.16107700e-02
C     7.439328920774999e+00   5.764030798121396e+00   3.537510688000000e+00 -1.04123544e+00  -5.06549000e-02  -1.14800350e-01
C     7.368553446375000e+00   4.225764948674669e+00   1.343990324800000e+01  1.03313291e+00  -7.00450780e-01  -1.35050080e-01
C     8.603249194425000e+00   4.937756010727340e+00   1.339214902400000e+01 -9.40426000e-03  -1.41281470e-01   2.57923490e-01
C     8.657358483374999e+00   5.071032971689285e+00   3.551207928000000e+00  4.71982630e-01  -1.20029960e+00  -9.88676200e-02
C     9.907647328425000e+00   5.742923516981251e+00   3.582724432000000e+00 -5.10459790e-01   1.54009934e+00  -3.95546760e-01
C     7.414358039400000e+00   4.164253396823520e-02   6.897738576000000e+00  1.99655760e-01  -3.50318480e-01  -2.36185780e-01
C     1.242675951375000e+00   7.741044860575027e-01   6.848205064000000e+00  6.58504870e-01  -1.19673625e+00   5.50517300e-02
C     1.184770217325000e+00   6.520133299589911e-01   1.022452624000000e+01  8.59798490e-01  -7.93762780e-01  -4.09587900e-02
C     2.449022782050000e+00   1.358950343836285e+00   1.020077887200000e+01 -1.92011225e+00  -2.30248210e-01  -7.30973600e-02
C     2.503024621650000e+00   3.738575185385040e-02   6.813123456000000e+00 -1.29863701e+00   9.38022480e-01   9.93669600e-02
C     3.740895080175000e+00   7.274009232728238e-01   6.783472735999999e+00 -3.85707890e-01   9.51299410e-01   3.41839140e-01
C     3.638756301525000e+00   6.426964156242631e-01   1.023216998400000e+01  1.27321587e+00  -3.88164440e-01   1.36022660e-01
C     4.883281446600000e+00   1.342630757787119e+00   1.024171568800000e+01 -1.49944500e-02   3.92277610e-01  -2.85719750e-01
C     4.972724969924999e+00   4.246067790985020e-02   6.868618255999999e+00 -1.37377000e-01  -2.53904920e-01  -2.08925130e-01
C     6.194233251450000e+00   7.572608395876524e-01   6.897666496000000e+00 -2.55402800e-02   4.05551880e-01  -2.34578330e-01
C     6.121650697874999e+00   6.438560986375519e-01   1.024552219200000e+01  4.26534350e-01   6.89768600e-01  -2.65588400e-02
C     7.371131713125000e+00   1.361639427669121e+00   1.023010128800000e+01 -9.76396620e-01   1.31748070e-01  -2.13537230e-01
C     8.638092622649999e+00   2.182787286433354e+00   6.845172399999999e+00 -5.42685480e-01   1.85683660e-01  -2.29157900e-01
C     2.472086714775000e+00   2.856965368590333e+00   6.804579120000000e+00  7.70906970e-01   9.54877650e-01   1.39512710e-01
C     2.428211920950000e+00   2.766648873821633e+00   1.016894793600000e+01 -3.09802220e-01   1.02670006e+00   2.87366870e-01
C     3.650551363500000e+00   3.496531126802314e+00   1.018612174400000e+01  3.12050050e-01  -7.41371570e-01  -1.19056960e-01
C     3.721444011675000e+00   2.163791168896758e+00   6.774906640000000e+00 -1.35108900e-01  -4.58572700e-01   2.85907140e-01
C     4.950002057624999e+00   2.874895625491290e+00   6.819096712000000e+00 -4.12480200e-01   1.09074109e+00   1.06425250e-01
C     4.890636698475000e+00   2.766312330071090e+00   1.020219572000000e+01 -9.00237500e-02   4.48021970e-01   1.22870180e-01
C     6.135996886950000e+00   3.480200653514785e+00   1.022100696800000e+01 -1.04663725e+00   4.43377390e-01  -1.10851850e-01
C     6.180562780500000e+00   2.190055222508353e+00   6.851206040000000e+00  3.93829520e-01  -2.63764890e-01   1.67425000e-02
C     7.406867865750000e+00   2.929313949421860e+00   6.834118592000000e+00  1.21521110e-01  -1.63076331e+00   2.24370640e-01
C     7.356619765124999e+00   2.792730277999062e+00   1.020516813600000e+01  2.29292550e-01  -7.61334270e-01   2.05704060e-01
C     8.574752561924999e+00   3.496687710906991e+00   1.021097084800000e+01  1.17352228e+00   9.79360300e-02  -1.15683250e-01
C     2.478445601325000e+00   4.289600413575477e+00   6.851623696000000e+00 -6.92130100e-02  -7.97859500e-02  -9.25950300e-02
C     3.705067969050000e+00   4.997662143218145e+00   6.861415424000000e+00 -2.62277740e-01   1.37292980e+00   2.03593130e-01
C     3.647271754950000e+00   4.912765251663470e+00   1.019710877600000e+01 -1.32292770e-01   8.12644300e-02   1.93151910e-01
C     4.866617109900000e+00   5.606942230052764e+00   1.023162639200000e+01  1.08556415e+00   1.10159555e+00  -1.88341020e-01
C     4.928359665750000e+00   4.328623926291866e+00   6.859542976000000e+00  5.49327330e-01  -1.49793560e+00  -2.81954070e-01
C     6.146874266399999e+00   5.041608672994093e+00   6.841163527999999e+00  1.36760861e+00  -7.49310250e-01   9.63120000e-04
C     6.121971419025000e+00   4.908864994584151e+00   1.024095136800000e+01 -6.27088490e-01  -2.74744400e-01  -2.76659000e-03
C     7.337218649849999e+00   5.624453136149048e+00   1.027704508800000e+01  7.70636560e-01  -1.10343500e-02  -3.63501460e-01
C     7.406981563875000e+00   4.321225919739729e+00   6.831898528000000e+00 -2.11578270e-01   1.18206290e+00   9.37729000e-02
C     8.659588149825000e+00   5.027663209376208e+00   6.859473071999999e+00 -5.26332810e-01  -4.81821380e-01  -2.57531700e-02
C     8.596041805574998e+00   4.925233381078210e+00   1.026095560800000e+01 -8.09677990e-01  -1.28819250e-01  -2.45029540e-01
C     9.822252493650000e+00   5.647027248509447e+00   1.023730058400000e+01 -1.73959710e-01  -9.96514980e-01  -8.78730200e-02
