72
Lattice="7.395 0 0 3.6975 6.40425786098592 0 0 0 13.6 " PBC="1 1 1" Properties=species:S:1:pos:R:3:force:R:3 Energy="-580.67425197"
C     3.655462124175000e+00   6.219230332761646e+00   1.649519520000000e-01  2.04863172e+00   3.69750020e-01  -4.02712300e-02
C     1.283230168350000e+00   5.013870423265704e-01   2.068997920000000e-01 -3.17458421e+00   1.51742814e+00  -5.73337860e-01
C     1.318028080350000e+00   9.339958135359853e-01   3.413320112000000e+00  1.53062244e+00  -4.67889660e-01  -2.25694900e-02
C     2.545944757950000e+00   1.667178308677081e+00   3.544144904000000e+00  1.36865989e+00  -2.96383563e+00  -3.46452360e-01
C     6.191623555950000e+00   6.216134578554701e+00   6.673152800000000e-02 -1.33050800e+00   1.05171714e+00   4.76208650e-01
C     3.702326161875000e+00   5.201933376601963e-01   1.264726560000000e-01 -1.71224089e+00   8.49182730e-01  -2.11187020e-01
C     3.830689829025000e+00   9.513843342645644e-01   3.473635704000000e+00 -1.83942438e+00  -1.56014171e+00  -5.75404410e-01
C     5.062269471974999e+00   1.622361120045065e+00   3.329333448000000e+00 -1.65639716e+00   8.31881530e-01   2.36396440e-01
C     8.579727141450000e+00   6.262810474945424e+00   2.260034400000000e-02  2.30495698e+00  -2.69100314e+00   4.85311020e-01
C     6.106494090749999e+00   4.938280967744124e-01   7.473499200000000e-02  2.13751092e+00   2.51937522e+00  -2.35371780e-01
C     6.244481093250000e+00   8.987489557222176e-01   3.223306624000000e+00  1.72905498e+00   1.40933417e+00   2.18997530e-01
C     7.498257013575000e+00   1.598015077619961e+00   3.337022616000000e+00 -9.47418500e-01   2.08212195e+00   3.04432810e-01
C     1.235875398450000e+00   1.954226880434228e+00   2.446268720000000e-01 -5.38150790e-01   7.88216300e-02  -9.30179200e-02
C     2.451238176150000e+00   2.680870884470579e+00   3.682739920000000e-01  2.16524610e-01  -4.94962690e-01  -1.15090894e+00
C     2.567109469800000e+00   3.026430805399202e+00   3.533461832000000e+00 -1.39644800e-02   3.09707942e+00  -7.82416900e-01
C     3.759613526025000e+00   3.768675517539933e+00   3.340366448000000e+00  2.31681443e+00   1.57799020e-01   6.73161000e-03
C     3.672864481875000e+00   1.900770347949073e+00   2.637131120000000e-01  1.15847315e+00   3.25614695e+00  -6.14015370e-01
C     4.937548175100000e+00   2.637623443482628e+00   6.578904800000000e-02 -1.69762952e+00   1.66251772e+00   4.40168120e-01
C     5.024014064699999e+00   3.039435419494875e+00   3.295439800000000e+00  1.40352240e-01   1.36691520e+00   4.13410800e-01
C     6.268108894725000e+00   3.774761227613977e+00   3.317928080000000e+00 -3.17132890e-01  -9.09582120e-01   3.28266660e-01
C     6.151286530124999e+00   1.944121281744041e+00   1.358656741600000e+01  2.35994910e-01  -2.64435360e-01   7.14038230e-01
C     7.377628923149999e+00   2.683458332731176e+00   7.813771200000000e-02  8.59292080e-01  -2.66294210e-01  -4.15176150e-01
C     7.511974479750000e+00   3.063174082104537e+00   3.449724728000000e+00 -5.74516800e-02  -3.27575170e-01  -6.87126660e-01
C     8.772626973600001e+00   3.791067044508745e+00   3.485206856000000e+00 -2.06807224e+00  -1.24507833e+00  -2.92386330e-01
C     2.451821382825000e+00   4.119851588356304e+00   2.727448720000000e-01  5.14909810e-01  -1.04871751e+00  -1.52830050e-01
C     3.699723491624999e+00   4.812082440867102e+00   2.402962240000000e-01 -8.07962470e-01   1.86298960e-01  -7.99367770e-01
C     3.799379214150000e+00   5.223297340397137e+00   3.204604584000000e+00  1.38663090e-01  -1.14752291e+00   6.63806950e-01
C     5.068208433450000e+00   5.924671295684342e+00   3.296882216000000e+00 -2.33507411e+00  -5.40794210e-01   6.22905800e-02
C     4.917825858000000e+00   4.139461361881045e+00   6.145132800000000e-02  5.07691060e-01  -2.57320663e+00   1.49597340e-01
C     6.138057725550000e+00   4.850828136877523e+00   1.353078443200000e+01  1.15033181e+00  -2.51691102e+00   4.25900710e-01
C     6.246664762800000e+00   5.187351009539899e+00   3.360652888000000e+00  1.75727430e+00   3.01827330e-01  -6.85376000e-03
C     7.500331200150000e+00   5.892522049312299e+00   3.399349784000000e+00  2.65548200e-02   1.10562338e+00   5.90952200e-02
C     7.398916502924999e+00   4.126613972315835e+00   1.355652474400000e+01 -3.80981460e-01  -1.19415647e+00   7.67210020e-01
C     8.642597508749999e+00   4.827816357534971e+00   8.995597600000001e-02 -1.50204608e+00  -2.54769950e-01  -3.05859430e-01
C     8.746722436499999e+00   5.195106437723202e+00   3.332412080000000e+00 -6.29003220e-01   6.95677400e-02   6.93502600e-02
C     9.946701395700000e+00   5.925774749313620e+00   3.164610656000000e+00  8.08418470e-01  -1.50626769e+00   1.02273461e+00
C     7.431687630300000e+00   1.391025300817152e-01   6.588812400000000e+00 -1.49934947e+00   5.28049650e-01   3.51054190e-01
C     1.250570557575000e+00   8.381934314844089e-01   6.709673695999999e+00 -3.81796800e-01   1.01584675e+00   7.99937700e-02
C     1.154484771300000e+00   5.209489760450976e-01   1.020444420800000e+01 -2.50011935e+00   6.39822880e-01  -2.32441180e-01
C     2.310688806150000e+00   1.226589960259264e+00   1.038978895200000e+01  2.88197384e+00   1.39969850e+00  -3.98506250e-01
C     2.469831646500000e+00   1.702429777556508e-01   6.705244448000000e+00  6.63985470e-01  -1.95288526e+00  -2.88041300e-02
C     3.689696537175000e+00   8.615140241409702e-01   6.737984407999999e+00  1.50614873e+00  -8.00538320e-01  -3.29248150e-01
C     3.578794646550000e+00   5.177013768842916e-01   1.031715189600000e+01  3.68651850e-01   5.32051710e-01  -6.37705060e-01
C     4.839181105274999e+00   1.271164427518386e+00   1.022243456000000e+01 -1.22723877e+00  -1.38078022e+00   1.81101670e-01
C     4.944898028624999e+00   1.464672344929794e-01   6.575817464000000e+00 -7.07623910e-01   1.69185500e-01   7.72079300e-01
C     6.179895455700001e+00   8.638137290959177e-01   6.587729704000000e+00  3.55312640e-01  -3.76927790e-01   3.39577060e-01
C     6.058294737899999e+00   5.504020298580804e-01   1.008622199200000e+01 -3.89395930e-01  -1.14742438e+00   2.90111480e-01
C     7.284209071349999e+00   1.257763966244386e+00   1.009716999200000e+01  9.50222310e-01  -6.48244170e-01   5.63068020e-01
C     8.636855587050000e+00   2.257909103045997e+00   6.804447336000000e+00  3.79781560e-01   2.89591510e-01  -1.81750920e-01
C     2.491674590775000e+00   2.964775670086831e+00   6.851524008000000e+00 -5.99360660e-01   1.04470406e+00  -5.97178830e-01
C     2.337138835425000e+00   2.686415626883188e+00   1.042350498400000e+01  9.03541830e-01  -1.03268627e+00  -6.05785380e-01
C     3.596712139950000e+00   3.374844335545083e+00   1.036947000800000e+01 -9.66519810e-01   6.37865460e-01  -3.77230650e-01
C     3.722541984299999e+00   2.253821393339116e+00   6.836585088000001e+00 -8.86446220e-01   9.70423900e-01  -3.14567140e-01
C     4.923210749100000e+00   2.982978043904259e+00   6.762403072000000e+00  1.78430180e+00  -2.65210130e-01  -2.91419140e-01
C     4.813972141874999e+00   2.689265265460574e+00   1.026386682400000e+01  6.20110040e-01  -8.98150710e-01  -1.63586110e-01
C     6.025287673050000e+00   3.395349616446388e+00   1.013071752000000e+01  1.41477729e+00  -7.94853930e-01   3.50749450e-01
C     6.192107965425000e+00   2.292103164910159e+00   6.704443952000000e+00 -1.69843041e+00  -1.40537463e+00  -3.77449500e-02
C     7.398872280825000e+00   2.956874993335263e+00   6.759879320000000e+00  1.07081836e+00   2.15205682e+00  -3.11070780e-01
C     7.297348581300000e+00   2.669095375543397e+00   1.014632229600000e+01 -8.68151180e-01   5.56684890e-01   7.49241100e-02
C     8.539152218475000e+00   3.394502141003774e+00   1.025565541600000e+01 -1.48472916e+00  -9.37806140e-01  -7.77534800e-02
C     9.886671595799999e+00   4.410296017843716e+00   6.697533656000000e+00 -1.24052519e+00  -1.31020770e-01   1.86010900e-01
C     3.703698378075000e+00   5.143248536085060e+00   6.640128056000000e+00  1.25847528e+00  -1.85331714e+00   3.00841300e-02
C     3.609686408625000e+00   4.789317609707631e+00   1.022202003200000e+01 -5.80790310e-01   6.27210270e-01  -2.90822780e-01
C     4.871204376300000e+00   5.523108701473163e+00   1.014757676000000e+01 -3.19486141e+00  -3.39241230e-01   3.89048940e-01
C     4.973728952100000e+00   4.378953707962034e+00   6.676788352000000e+00 -1.78679873e+00   1.95130995e+00   2.65428480e-01
C     6.194052110925000e+00   5.122708672191311e+00   6.659866960000000e+00 -1.25713663e+00   4.26688400e-01   9.36011400e-02
C     6.031681464000000e+00   4.809569986466045e+00   1.014053277600000e+01  1.71757656e+00  -8.55821320e-01   3.95283100e-02
C     7.267089757275000e+00   5.492378318430003e+00   1.015392972800000e+01  3.00492050e-01   1.51983334e+00   5.30905210e-01
C     7.392626315925000e+00   4.422985350324941e+00   6.686584160000000e+00  7.81501290e-01  -1.48656358e+00   2.25519310e-01
C     8.604588502875000e+00   5.127348428925723e+00   6.623626224000000e+00  2.21584000e+00  -2.51278330e-01   2.10566970e-01
C     8.488341210449999e+00   4.791224477485446e+00   1.017101418400000e+01  1.61766911e+00   6.36396760e-01  -7.28092900e-02
C     9.741650395350000e+00   5.480786291490511e+00   1.012644521600000e+01  4.62282500e-01   1.51992446e+00   4.44817080e-01
