72
Lattice="7.395 0 0 3.6975 6.40425786098592 0 0 0 13.6 " PBC="1 1 1" Properties=species:S:1:pos:R:3:force:R:3 Energy="-581.85719076"
C     3.691457989200000e+00   6.349053925757744e+00   1.336612828000000e+01  7.34544870e-01   8.34283600e-02   6.84065420e-01
C     1.283209351425000e+00   6.612313625523606e-01   1.340546723200000e+01 -2.00306508e+00  -1.21835000e-03   7.13907800e-02
C     1.279267076925000e+00   8.101577680210015e-01   3.573678120000000e+00 -1.43837390e-01  -6.52381400e-01  -2.44098760e-01
C     2.482743797175000e+00   1.550571694967295e+00   3.555698376000000e+00  7.51799000e-01  -1.52834444e+00  -8.69533300e-02
C     6.222944671724999e+00   6.346007484336320e+00   1.341773116800000e+01 -3.33102133e+00   1.16458272e+00  -1.45265490e-01
C     3.700497822075000e+00   6.563199371995266e-01   1.337409896800000e+01 -3.87715840e-01   1.01757544e+00   8.37028220e-01
C     3.717780528675000e+00   8.059330071959168e-01   3.517875688000000e+00 -6.40021100e-02  -5.30865870e-01   9.04566000e-02
C     4.980017253374999e+00   1.472818881140607e+00   3.482745664000000e+00 -1.56891981e+00   3.95228780e-01   7.98474470e-01
C     8.576811034124999e+00   6.364891847573259e+00   1.342903236000000e+01  1.93765767e+00  -1.30247346e+00   1.73647000e-03
C     6.119478453599999e+00   6.039712132389937e-01   1.340902499200000e+01  2.03028101e+00   2.00421613e+00  -1.71334200e-01
C     6.186392406900000e+00   7.479448218490249e-01   3.532985424000000e+00  4.16961120e-01   2.04679754e+00   8.10397000e-02
C     7.409573770200000e+00   1.457049356799036e+00   3.564784808000000e+00  1.36306987e+00   2.01616806e+00  -2.36067760e-01
C     1.228186743000000e+00   2.084329635030443e+00   1.342249756000000e+01 -2.64879600e-01   6.16415500e-01  -4.24189310e-01
C     2.454192256800000e+00   2.826783958530933e+00   1.341979755200000e+01  1.82572310e-01  -1.10890248e+00   4.30659450e-01
C     2.479334850075000e+00   2.942504351038052e+00   3.545953296000000e+00  1.20513526e+00   7.62965380e-01  -2.65432560e-01
C     3.709090701150000e+00   3.643349634838914e+00   3.495647984000000e+00  1.47994313e+00   5.15346350e-01   7.79051720e-01
C     3.682523978774999e+00   2.057696952336426e+00   1.344662504800000e+01  3.56907260e-01   2.11599654e+00  -9.52341120e-01
C     4.936448834400000e+00   2.772267969667997e+00   1.335424201600000e+01 -8.71321510e-01   5.13714050e-01   7.76843510e-01
C     4.947140858175000e+00   2.890649971741732e+00   3.584042816000000e+00  7.72026300e-02   5.46450660e-01  -1.24647330e+00
C     6.181054769850000e+00   3.584534595759718e+00   3.553736168000000e+00  1.10723828e+00   1.47667095e+00  -8.27656800e-02
C     6.163755239625000e+00   2.041472021218430e+00   1.336742354400000e+01 -1.05525035e+00   4.45983520e-01  -8.96054300e-02
C     7.351891365149999e+00   2.791773802087671e+00   1.333290851200000e+01  1.76525444e+00   2.42346600e-02   4.21591270e-01
C     7.462034085074999e+00   2.925869419331859e+00   3.538655264000000e+00 -1.81635960e+00  -1.22005188e+00   2.68339070e-01
C     8.684319026474999e+00   3.664665502657560e+00   3.550458024000000e+00 -1.56201554e+00  -8.11629880e-01  -2.59967020e-01
C     2.459465002725000e+00   4.246689708465805e+00   1.342959839200000e+01 -1.24819251e+00  -4.17158020e-01   1.35114260e-01
C     3.684170327625000e+00   4.928438071711355e+00   1.339471996800000e+01  2.10242440e-01   4.34997220e-01   6.09996400e-02
C     3.766350518925000e+00   5.099135367519594e+00   3.524343712000000e+00 -3.65278740e-01  -1.38093989e+00   9.09652200e-02
C     5.033147111550000e+00   5.790330971747323e+00   3.524656104000000e+00 -2.52662369e+00  -2.51176530e-01   1.43803200e-01
C     4.902644625524999e+00   4.224199491883372e+00   1.337881327200000e+01  1.01107958e+00  -6.48433260e-01   5.07900800e-02
C     6.132418076700000e+00   4.972912376377546e+00   1.339529620000000e+01  7.48575780e-01  -2.65727153e+00  -4.87373410e-01
C     6.201499874249999e+00   5.036428909236926e+00   3.525547992000000e+00  5.32848970e-01  -5.96210780e-01   2.61646630e-01
C     7.407074334150000e+00   5.769886787466001e+00   3.560161216000000e+00  1.32789113e+00   5.45671500e-02  -6.18449790e-01
C     7.367284353450000e+00   4.244701634698325e+00   1.331961777600000e+01 -3.52738820e-01  -1.10472120e+00   1.14946578e+00
C     8.590115822325000e+00   4.957289637626126e+00   1.345897969600000e+01  4.92261470e-01  -1.24948990e+00  -8.94064720e-01
C     8.672761824675000e+00   5.062770198198313e+00   3.534840464000000e+00 -6.03489730e-01   9.57952380e-01   4.68162850e-01
C     9.900586249650001e+00   5.782474100119517e+00   3.581155400000000e+00  4.10718190e-01  -1.82017480e+00  -7.85776570e-01
C     4.465833105000000e-02   4.187155022930880e-02   6.763397776000000e+00 -8.89547520e-01   4.13404550e-01   2.75534620e-01
C     1.256341837425000e+00   7.548862048157431e-01   6.835153687999999e+00 -7.11158240e-01   1.15305826e+00  -1.13893800e-01
C     1.188417690150000e+00   6.110425385976912e-01   1.025929559200000e+01 -4.63368890e-01   1.42433538e+00  -6.61437420e-01
C     2.382388137900000e+00   1.333247623426118e+00   1.019328187200000e+01  2.34810987e+00   4.48103530e-01  -3.59961900e-02
C     2.465882457675000e+00   8.672716440848460e-02   6.879053807999999e+00  1.79583677e+00  -1.86823729e+00  -8.18616400e-02
C     3.750677371050000e+00   7.382646580084776e-01   6.884756560000000e+00 -4.46355450e-01  -6.74516780e-01   2.24606460e-01
C     3.657837324225000e+00   6.259004808754698e-01   1.010742289600000e+01 -1.11140784e+00   1.66126730e-01   1.27478536e+00
C     4.880197213950000e+00   1.359070103458267e+00   1.023656496000000e+01  3.71729570e-01  -7.61772640e-01  -1.04819238e+00
C     5.003516936475000e+00   4.484472694081380e-02   6.901274168000000e+00 -6.22847060e-01  -9.74358700e-02  -8.86509000e-01
C     6.229486103850000e+00   8.012630864069832e-01   6.793511712000000e+00 -1.00925213e+00  -1.46493796e+00   5.81413030e-01
C     6.141920318925000e+00   6.605765912287542e-01   1.019052814400000e+01 -1.12183754e+00  -6.56540610e-01   3.46979320e-01
C     7.366422762000000e+00   1.364271513607002e+00   1.023719749600000e+01 -2.37581900e-02  -7.48660200e-02   8.64713300e-02
C     8.619118346775000e+00   2.185215076545501e+00   6.846728240000000e+00  1.11186332e+00  -1.42902680e-01   2.78194690e-01
C     2.494612402425000e+00   2.848498427358785e+00   6.924653247999999e+00 -7.38930460e-01   3.37246840e-01  -1.15764203e+00
C     2.425043755050000e+00   2.770928583179157e+00   1.023282931200000e+01 -7.79934800e-02  -5.31597430e-01  -1.42064170e-01
C     3.653576399175000e+00   3.466643287923215e+00   1.026330473600000e+01 -1.64259380e-01   1.13042186e+00  -4.08718380e-01
C     3.726136102200000e+00   2.122973183127997e+00   6.886053592000000e+00  3.84697400e-02   2.14235122e+00   3.12012790e-01
C     4.930243541999999e+00   2.891931655867254e+00   6.889820656000000e+00  6.35590130e-01  -6.10439720e-01  -1.56194450e-01
C     4.871619309750000e+00   2.776332239791110e+00   1.024384517600000e+01  5.79183090e-01  -5.19170080e-01   8.31203100e-02
C     6.098799815100000e+00   3.489539726581709e+00   1.021595239200000e+01  1.07423871e+00  -1.09882373e+00   3.06116880e-01
C     6.191108863949999e+00   2.216633404967982e+00   6.843196864000000e+00 -3.15064010e-01  -4.42386470e-01  -2.19743150e-01
C     7.413036478950000e+00   2.919680664748848e+00   6.809168304000000e+00 -3.48732330e-01   7.82181470e-01   3.44671920e-01
C     7.379705106375000e+00   2.795128928737946e+00   1.024588408800000e+01 -8.75520210e-01  -3.25525190e-01  -4.99103370e-01
C     8.620032849450000e+00   3.506287245141081e+00   1.020630795200000e+01 -1.62946228e+00  -5.50054350e-01   3.46694890e-01
C     2.467150367400000e+00   4.266233774304903e+00   6.794914824000000e+00  5.79802270e-01   1.13215575e+00   7.98718200e-01
C     3.697015257750000e+00   5.033162353472854e+00   6.785926856000000e+00  1.29242480e-01  -1.33776697e+00   3.16604360e-01
C     3.660769219875000e+00   4.908838096701139e+00   1.023892469600000e+01 -7.01693140e-01  -3.02064430e-01  -2.55826460e-01
C     4.898025005999999e+00   5.623883797625294e+00   1.022071293600000e+01 -1.36504977e+00  -1.17128024e+00   2.53662220e-01
C     4.930523701575000e+00   4.298163034419455e+00   6.879894832000001e+00 -7.76809600e-02   1.48274792e+00  -3.84399470e-01
C     6.164564178675000e+00   5.055391596547492e+00   6.872205255999999e+00 -8.48166350e-01  -8.12365900e-02   4.74883900e-02
C     6.087543811649999e+00   4.881947066245049e+00   1.021915954400000e+01  1.00492496e+00   1.07923566e+00  -3.92063320e-01
C     7.322155885274999e+00   5.591327432581091e+00   1.016377463200000e+01  1.95652240e-01   1.08358959e+00  -1.11879440e-01
C     7.385477606399999e+00   4.368092086631473e+00   6.845369192000000e+00  7.23269540e-01  -1.64618530e+00   8.03563200e-02
C     8.636357681700000e+00   5.009179432468412e+00   6.848707176000000e+00  1.04757537e+00   9.75962170e-01  -8.64798300e-02
C     8.548504342199999e+00   4.914595972815329e+00   1.018873607200000e+01  1.94148700e+00   1.23011240e-01  -1.27786200e-01
C     9.810968500125000e+00   5.619345292207647e+00   1.018352156000000e+01  5.40384400e-02   6.43193850e-01   1.58649260e-01
