72
Lattice="7.395 0 0 3.6975 6.40425786098592 0 0 0 13.6 " PBC="1 1 1" Properties=species:S:1:pos:R:3:force:R:3 Energy="-572.40207545"
C     3.707585522849999e+00   6.257928893434218e+00   1.316196494400000e+01 -2.92770573e+00   3.41550797e+00  -2.97535400e-01
C     1.103101575150000e+00   6.714647902294333e-01   1.307953480000000e+01  4.43496042e+00  -2.62265230e+00   3.46946860e-01
C     1.314881803650000e+00   8.293143762595692e-01   3.583244088000000e+00 -6.90224460e-01   1.04115880e-01   3.98592800e-01
C     2.580921259200000e+00   1.547001513338081e+00   3.531842344000000e+00 -3.06030314e+00   1.65719488e+00   1.50455290e-01
C     5.984706501300000e+00   6.320096945758596e+00   1.315527972800000e+01  6.10301166e+00  -4.10053810e-01   9.86069380e-01
C     3.666333033000000e+00   6.955395482915880e-01   1.321332371200000e+01  3.27428300e-02  -2.66915109e+00  -1.03558454e+00
C     3.729728408325000e+00   7.865471905685394e-01   3.668373424000000e+00  3.05250852e+00   5.87916517e+00   3.12906740e-01
C     4.935278538675000e+00   1.601448784514179e+00   3.824541136000000e+00  2.96194807e+00  -1.02997437e+00  -1.98193363e+00
C     8.701402585724999e+00   6.342775127309221e+00   1.320342196000000e+01 -4.15600111e+00  -6.75417060e-01  -1.20943600e-02
C     6.214211657399999e+00   6.709100534136001e-01   1.320842703200000e+01 -2.43013666e+00  -1.03567248e+00   3.43509420e-01
C     6.274851507825000e+00   8.850848951947002e-01   3.795292296000000e+00 -3.17018350e+00   7.15862800e-02  -3.66075610e-01
C     7.479051828825000e+00   1.568694720029837e+00   3.607812624000000e+00  7.93236870e-01   3.11174190e-01   4.05792210e-01
C     1.219749380775000e+00   2.054155013484374e+00   1.302920065600000e+01 -2.20445916e+00  -3.57375080e-01   1.21854493e+00
C     2.388396945150000e+00   2.764745656470798e+00   1.299380611200000e+01  3.90301953e+00  -1.28900788e+00  -2.74139660e-01
C     2.556837223200000e+00   3.055279553440514e+00   3.557345336000000e+00  1.03531240e-01  -3.83524965e+00   9.06891760e-01
C     3.865829537925000e+00   3.696536932323636e+00   3.827530280000000e+00 -7.40731464e+00   1.50606721e+00  -1.88162207e+00
C     3.696745894875000e+00   2.088827793623571e+00   1.300590766400000e+01 -8.15432160e-01  -8.39811910e-01   2.66743406e+00
C     4.921118444775000e+00   2.798318761492855e+00   1.334148739200000e+01 -9.29496110e-01  -3.01139619e+00  -1.66497765e+00
C     5.019191859150000e+00   3.075772153911257e+00   3.661221592000000e+00  2.06122600e-01  -6.11375097e+00   1.52663130e+00
C     6.212001476775000e+00   3.704566206573032e+00   3.712509912000000e+00  3.70460326e+00   1.76453609e+00  -1.20477820e-01
C     6.156822648975000e+00   2.143827175869780e+00   1.334153404000000e+01  2.63584690e-01  -4.39406347e+00   3.60326400e-02
C     7.417642898400000e+00   2.737709185318708e+00   1.332784264800000e+01 -1.17276820e-01  -1.61299971e+00  -4.13444300e-01
C     7.460019576150000e+00   3.000593211318503e+00   3.621390864000000e+00 -3.55594442e+00  -2.81874443e+00  -3.90595470e-01
C     8.597834649374999e+00   3.660831401561935e+00   3.556725312000000e+00  7.16115387e+00   3.35556256e+00   1.13272865e+00
C     2.442647404650000e+00   4.131346526746639e+00   1.298668569600000e+01  7.91687600e-02   3.16891366e+00   7.97706220e-01
C     3.710536645500000e+00   4.900482525513776e+00   1.306422228800000e+01 -9.90214270e-01  -3.37568051e+00   6.79326070e-01
C     3.763045582500000e+00   5.081479533067938e+00   3.835476488000000e+00 -7.08037510e-01   2.03065260e+00   2.02527200e-02
C     4.926257156325000e+00   5.782906579652803e+00   3.795957200000000e+00  5.39062841e+00   2.63225362e+00  -9.14361390e-01
C     4.932003071325000e+00   4.141505921202850e+00   1.325905942400000e+01 -8.33489800e-01   3.68132568e+00  -2.68931800e-02
C     6.133431006824999e+00   4.843700261921922e+00   1.333421152800000e+01  1.10348571e+00   1.66538748e+00   3.15053040e-01
C     6.281950966649999e+00   5.124268301107956e+00   3.783557400000000e+00 -3.32124295e+00  -1.12775210e-01  -9.40424750e-01
C     7.483274558700000e+00   5.862943856300731e+00   3.662902416000000e+00  7.54401700e-02  -5.02076128e+00   1.21759085e+00
C     7.474625625525000e+00   4.051321546273802e+00   1.344472390400000e+01 -3.54013010e+00   7.40004388e+00  -1.65044030e+00
C     8.582687914574999e+00   4.817024350487349e+00   1.307571238400000e+01  3.06029995e+00   2.91846586e+00   1.96815622e+00
C     8.689359828224999e+00   5.078067152352395e+00   3.769621344000000e+00  4.70475390e-01   2.90177441e+00  -1.41300396e+00
C     9.963269338575000e+00   5.877975738221988e+00   3.789064176000000e+00 -1.98997648e+00  -3.26894429e+00   3.02429800e-01
C     7.369074608999999e+00   6.152954781573601e-02   7.115563792000000e+00  3.32135656e+00   8.24490400e-01  -8.45089450e-01
C     1.293419553975000e+00   8.175636518103055e-01   6.903026527999999e+00 -2.04317896e+00  -1.12290642e+00   6.26232330e-01
C     1.174000065375000e+00   5.865255665303034e-01   1.019544087200000e+01 -4.82615470e-01   1.63369100e-01   5.20179750e-01
C     2.413259859525000e+00   1.304442232210517e+00   1.016636760800000e+01 -1.07202597e+00  -1.68544790e-01   2.44424850e-01
C     2.519414197125000e+00   8.393695734403980e-02   6.773580640000000e+00 -1.55688193e+00  -8.28717950e-01   7.62703750e-01
C     3.727921551000000e+00   8.018871172928617e-01   6.725697216000000e+00 -6.37712700e-02  -6.42675600e-02   3.88283220e-01
C     3.633917013525000e+00   5.602009926819306e-01   1.039645159200000e+01 -2.31316041e+00   3.64456143e+00  -2.20363666e+00
C     4.827005681475000e+00   1.226178358606602e+00   1.020652555200000e+01  2.47427874e+00   2.90748139e+00   1.22169966e+00
C     4.949465698275000e+00   6.043678929708420e-02   6.887840632000000e+00  5.45592460e-01   1.83431790e+00   7.83075160e-01
C     6.165946341150000e+00   7.808748753393588e-01   7.110942920000000e+00 -4.27630610e-01  -7.51044170e-01  -1.44456019e+00
C     6.058443488325000e+00   5.834084861446842e-01   1.034038504800000e+01  9.73357750e-01  -1.51144065e+00  -9.17828580e-01
C     7.293625494600000e+00   1.285332887394956e+00   1.024863564000000e+01  1.64654380e-01  -1.72713819e+00  -8.56702890e-01
C     8.639917301924999e+00   2.238797452697606e+00   6.900464831999999e+00  1.31752483e+00   4.61045900e-02  -1.28276717e+00
C     2.504022502950000e+00   2.983522661992673e+00   6.680115184000000e+00 -1.80323671e+00  -1.89658579e+00   2.17606680e+00
C     2.349314887800000e+00   2.771500739576369e+00   1.004417337600000e+01  1.60574731e+00  -3.78674816e+00   5.17184860e-01
C     3.579431984625000e+00   3.442127404579664e+00   1.004396611200000e+01  2.16384322e+00  -8.07322740e-01   9.02182240e-01
C     3.675668813775000e+00   2.234544128882466e+00   6.702513703999999e+00  3.58625055e+00   7.62472820e-01   3.67912770e-01
C     5.027413250400000e+00   2.996985180525336e+00   6.814866976000000e+00 -3.58772465e+00  -5.55181321e+00  -2.47752300e-02
C     4.918439569049999e+00   2.664928893464838e+00   1.019098428800000e+01 -5.36023026e+00   6.49566530e-01  -9.64409190e-01
C     6.083966813175000e+00   3.373111151240431e+00   1.025947524800000e+01  1.56155610e-01   2.21985062e+00  -5.81797180e-01
C     6.182337210749999e+00   2.161083256545814e+00   6.934203984000000e+00  8.20958330e-01   3.83523606e+00   2.27186240e-01
C     7.409760161175000e+00   2.942601823842681e+00   6.922742447999999e+00  2.71460850e-01  -6.75907310e-01   5.30077800e-02
C     7.250185046100000e+00   2.643183620156680e+00   1.014076601600000e+01  3.41163255e+00   2.49341433e+00   1.23258475e+00
C     8.527305280575000e+00   3.379305349442623e+00   1.018837961600000e+01 -1.46799271e+00   2.72568094e+00  -6.21253180e-01
C     9.896839461974999e+00   4.363986252874849e+00   6.976975031999999e+00  5.78319290e-01  -5.28881330e-01  -1.20207565e+00
C     3.705288894675000e+00   5.049421931625872e+00   7.025765576000000e+00  1.44035657e+00   7.34015130e-01  -2.37961940e-01
C     3.522069746100000e+00   4.838027818607584e+00   1.014302375200000e+01  5.53427352e+00   7.70120000e-03   4.20832500e-01
C     4.810771992599999e+00   5.575795890461597e+00   1.027393748800000e+01  1.52780920e+00  -1.88352902e+00  -9.73250600e-01
C     4.970140417425000e+00   4.340232988557267e+00   6.879449567999999e+00 -6.93241680e-01   1.97056922e+00   4.88197380e-01
C     6.185918978999999e+00   5.010681871362367e+00   6.874054856000000e+00  1.60130334e+00   3.81493835e+00  -4.88430090e-01
C     6.098392979174999e+00   4.833793515438288e+00   1.030235958400000e+01 -1.06792780e+00   1.50423680e+00   2.52165600e-01
C     7.334537518649999e+00   5.642036794614620e+00   1.041656952800000e+01 -3.20767910e-01  -7.19122623e+00  -7.01992780e-01
C     7.446070239749999e+00   4.386147738901329e+00   6.853692120000000e+00 -4.32884850e-01  -2.04014467e+00   4.21459710e-01
C     8.711794187624999e+00   5.079742634293727e+00   6.919966552000000e+00 -2.98655736e+00  -4.10763790e-01  -5.80237200e-02
C     8.617418864849999e+00   4.854764962269223e+00   1.033438758400000e+01 -5.32943881e+00  -1.52629541e+00  -3.95951870e-01
C     9.777666448725000e+00   5.539391206869320e+00   1.029595439200000e+01 -5.90368630e-01   2.31994613e+00  -2.25651080e-01
