72
Lattice="7.395 0 0 3.6975 6.40425786098592 0 0 0 13.6 " PBC="1 1 1" Properties=species:S:1:pos:R:3:force:R:3 Energy="-580.45083343"
C     7.402919638275000e+00   2.556201886498260e-02   1.357244245600000e+01  6.37871990e-01  -1.84847739e+00   4.25476000e-02
C     1.278714189750000e+00   6.869935785180469e-01   1.359598405600000e+01 -1.61753136e+00   1.07214400e+00  -3.39582960e-01
C     1.198821974475000e+00   7.606335139044643e-01   3.421902119999999e+00  3.60310949e+00  -2.49724931e+00  -3.77722550e-01
C     2.463343421400000e+00   1.449885041616211e+00   3.415636464000000e+00  3.22355270e-01  -1.24624484e+00  -2.24302790e-01
C     6.182915240925000e+00   6.384318779536098e+00   1.358404053600000e+01  2.73646190e-01   1.64220915e+00   1.08546750e-01
C     3.732839706675000e+00   7.438717778926435e-01   1.357576915200000e+01 -2.32120280e+00  -2.64711174e+00  -2.79997130e-01
C     3.711412731149999e+00   7.269471816034428e-01   3.400490824000000e+00 -2.78565065e+00  -1.34062739e+00   5.82260200e-02
C     4.890269721599999e+00   1.395269402500974e+00   3.415899896000000e+00  2.74394408e+00   1.35578844e+00  -1.32836790e-01
C     8.596845679050000e+00   6.393274173514629e+00   1.358936956000000e+01  1.45394167e+00   6.66738500e-02  -7.94547500e-02
C     6.137086059525000e+00   6.249167868681739e-01   1.433576000000000e-03  8.30957060e-01   4.04030253e+00  -1.90394980e-01
C     6.158835567974999e+00   6.908769283566150e-01   3.417173264000000e+00  6.11957880e-01   1.81700390e-01  -1.84317430e-01
C     7.432775065050000e+00   1.443892577536609e+00   3.391967840000000e+00 -3.79365814e+00  -1.98904613e+00   2.01179170e-01
C     1.257987742575000e+00   2.106251473727801e+00   1.356929256000000e+01 -8.33244750e-01   1.77534930e+00   4.19208440e-01
C     2.490819765750000e+00   2.834142322726915e+00   1.359258881600000e+01 -1.82623258e+00   1.29818272e+00  -7.36358510e-01
C     2.497821610575000e+00   2.830156248592273e+00   3.386809360000000e+00 -2.65947318e+00   3.29796570e+00   2.06040290e-01
C     3.674315417850000e+00   3.619437801096718e+00   3.438031584000000e+00  1.96328889e+00  -3.70340604e+00  -5.07619410e-01
C     3.705274215600000e+00   2.112296004423805e+00   1.351113188800000e+01 -5.90817900e-02   1.69667445e+00   1.25753776e+00
C     4.928441380500000e+00   2.792041756236533e+00   3.832412000000000e-02 -3.69455590e-01   2.94197000e+00  -8.42784640e-01
C     4.881967539975000e+00   2.820701258458083e+00   3.407755536000000e+00  2.06699817e+00   1.60875265e+00   5.05975170e-01
C     6.205011648825000e+00   3.501022881137582e+00   3.434979336000000e+00 -3.67084569e+00   1.84407318e+00  -3.68386020e-01
C     6.120944327474999e+00   2.112158505007551e+00   6.944432000000000e-03  2.46724283e+00  -9.12057550e-01   2.20933910e-01
C     7.374892107600000e+00   2.876146825349398e+00   1.359473652800000e+01  8.03634340e-01  -1.30474441e+00   7.25070600e-02
C     7.402317426449999e+00   2.810909468403036e+00   3.392268672000000e+00  1.20198720e+00   2.70659985e+00  -7.08871100e-02
C     8.603407817175000e+00   3.593877831594250e+00   3.363510792000000e+00  1.34370623e+00  -1.52731357e+00   7.36088800e-01
C     9.798915870299998e+00   4.310945356724807e+00   1.356899186400000e+01  4.01979237e+00  -2.22802391e+00  -4.31410600e-02
C     3.713790815249999e+00   5.009385393401189e+00   1.354581828000000e+01 -1.25526122e+00  -9.98670860e-01   5.06243460e-01
C     3.719825468024999e+00   4.995472591498389e+00   3.413102512000000e+00 -8.01444800e-02   5.16415960e-01  -2.13710500e-02
C     4.945885963649999e+00   5.707557475928708e+00   3.390380312000000e+00 -1.20691830e-01   2.53616350e-01   3.93046050e-01
C     4.942642183875000e+00   4.273058727863726e+00   1.453445600000000e-02 -1.05246920e+00  -1.11360375e+00  -1.35485730e-01
C     6.150920588549999e+00   4.992335337700511e+00   1.276536800000000e-02  7.18020640e-01  -5.28088020e-01   3.87487700e-02
C     6.173787148724999e+00   4.969784985136772e+00   3.414176504000000e+00  4.78325720e-01  -3.21721270e-01  -1.89513120e-01
C     7.413708573525000e+00   5.711335539768059e+00   3.387920480000000e+00 -1.73032904e+00   2.11710770e-01   5.57532840e-01
C     7.401509485725000e+00   4.330230434376046e+00   1.076671200000000e-02 -1.69467274e+00  -3.67549103e+00  -1.92777100e-01
C     8.605694018399999e+00   4.988474722977346e+00   1.356812880800000e+01 -1.71763940e-01   7.30643040e-01   3.13875670e-01
C     8.613412216875000e+00   5.031197078863356e+00   3.457537519999999e+00  9.09265400e-01  -2.94600578e+00  -9.62960800e-01
C     9.876056886750000e+00   5.645706050112929e+00   3.415831352000000e+00 -3.73224260e-01   3.59993398e+00   2.85601210e-01
C     3.708992347650000e+00   6.394989746110165e+00   6.826587592000000e+00 -5.91857450e-01   1.21082594e+00   3.44054880e-01
C     1.251931200600000e+00   7.343512722005461e-01   6.821645760000000e+00 -1.43936169e+00  -5.22178310e-01  -1.27520670e-01
C     1.289361732600000e+00   7.003182774215628e-01   1.019801399200000e+01 -5.12208641e+00  -7.75766830e-01   1.26283770e-01
C     2.445945574650000e+00   1.377389226896483e+00   1.017818056800000e+01  1.62878150e+00   2.78098732e+00   3.61276790e-01
C     2.458222309950000e+00   2.791846554456960e-02   6.766013736000001e+00  9.05996980e-01  -6.69663630e-01   3.53077630e-01
C     3.715155525525000e+00   6.779957883524826e-01   6.753877367999999e+00  3.94416820e-01   1.22368950e+00   1.22022000e-01
C     3.647198248650000e+00   6.967882504891308e-01   1.025206324800000e+01  3.26471110e+00  -5.37280800e-02  -8.04947370e-01
C     4.941980405324999e+00   1.411754666700979e+00   1.018463322400000e+01 -1.67549965e+00   4.14179830e-01   8.79452460e-01
C     4.993194329925000e+00   3.912168998938200e-03   6.803222384000000e+00 -2.80747969e+00  -1.44199760e-01   1.85880940e-01
C     6.166936087950000e+00   7.316292064397317e-01   6.867643136000001e+00  2.17033423e+00   5.84011320e-01  -8.50107540e-01
C     6.181550493674999e+00   7.215444856301683e-01   1.023131141600000e+01 -7.26382940e-01  -3.71834510e-01  -5.27626980e-01
C     7.367544694424999e+00   1.490850197230594e+00   1.020312405600000e+01  2.70255448e+00  -4.14825855e+00  -1.30728520e-01
C     8.614050257475000e+00   2.153048794847551e+00   6.836275144000000e+00  6.16054150e-01  -1.62859590e+00  -5.53340590e-01
C     2.451411921675000e+00   2.795013139755838e+00   6.760639016000000e+00  1.23900372e+00   1.84472631e+00   6.21291760e-01
C     2.466840812700000e+00   2.818884306460623e+00   1.018399511200000e+01 -8.38174000e-03   1.42495089e+00  -1.23363100e-02
C     3.701313268725000e+00   3.595484275635853e+00   1.017365775200000e+01 -1.04265702e+00  -3.14659972e+00   1.96005330e-01
C     3.698096813475000e+00   2.108090520414879e+00   6.754083408000000e+00 -3.15261480e-01  -3.32386950e-01   8.75852900e-02
C     4.903562012249999e+00   2.856519952456170e+00   6.792152936000000e+00  1.94266409e+00  -6.24487540e-01  -1.69685250e-01
C     4.918872213525000e+00   2.865904687881636e+00   1.021152287200000e+01  1.17436212e+00  -1.32959067e+00  -5.31320320e-01
C     6.173742335024999e+00   3.537993765167262e+00   1.018689816800000e+01 -1.04942724e+00   1.00095404e+00   4.61628500e-02
C     6.202494612675000e+00   2.186252310148507e+00   6.784709520000000e+00 -3.28594755e+00  -2.86513057e+00   5.65235970e-01
C     7.397189141849999e+00   2.821703845026066e+00   6.797381320000000e+00  1.36526190e-01   3.93188472e+00   6.33080200e-02
C     7.408575556124999e+00   2.851314763795298e+00   1.016520072800000e+01 -6.90150350e-01   1.16716515e+00   4.68656900e-01
C     8.636197062299999e+00   3.552585802658693e+00   1.021601100800000e+01  5.70903400e-01   3.96355340e-01  -3.57468290e-01
C     2.489842294650000e+00   4.230973979890257e+00   6.824458512000000e+00 -2.68865127e+00   8.25876980e-01  -3.87617170e-01
C     3.657880437075000e+00   4.982042990851127e+00   6.814077224000000e+00  2.67595790e+00  -9.24461090e-01   1.26255710e-01
C     3.681934227525000e+00   4.967097502368402e+00   1.016541574400000e+01  1.26069883e+00   1.01259041e+00   3.81647680e-01
C     4.942939684724999e+00   5.657594209935869e+00   1.021846621600000e+01 -1.53622728e+00   1.92633717e+00  -4.08394850e-01
C     4.942661854575000e+00   4.245062002288107e+00   6.818310904000001e+00 -1.96766506e+00   2.08610352e+00  -1.41056170e-01
C     6.146308659824999e+00   5.011871462259863e+00   6.813534991999999e+00 -5.89180490e-01  -9.57045990e-01  -3.82628590e-01
C     6.129293060625000e+00   4.972107937547752e+00   1.020480936800000e+01  2.00738231e+00  -1.03897585e+00   1.45065160e-01
C     7.363247238074999e+00   5.699272479662963e+00   1.023422970400000e+01  3.81207770e-01  -5.94658060e-01   1.60320090e-01
C     7.344521360249999e+00   4.305478554130354e+00   6.779867375999999e+00  2.58665197e+00  -1.00325657e+00   3.38077290e-01
C     8.616305843399999e+00   5.005795550700345e+00   6.818653351999999e+00  1.00173675e+00  -2.03479664e+00  -1.81712760e-01
C     8.612498490675000e+00   4.992900257286341e+00   1.024497384000000e+01  8.71673090e-01  -5.23483240e-01  -4.12437400e-01
C     9.883578747974999e+00   5.665522424996234e+00   1.019592176800000e+01 -1.98354143e+00   1.84657873e+00   3.65047630e-01
