72
Lattice="7.395 0 0 3.6975 6.40425786098592 0 0 0 13.6 " PBC="1 1 1" Properties=species:S:1:pos:R:3:force:R:3 Energy="-568.06036006"
C     3.739728297075000e+00   6.060388599103839e+00   2.218293280000000e-01 -2.18464114e+00   4.51998243e+00  -1.25866642e+00
C     1.223676939225000e+00   4.582776130955022e-01   2.611621600000000e-02  2.96580910e-01   1.74487800e-02   1.38878907e+00
C     1.536810042750000e+00   1.049337906531314e+00   3.265515176000000e+00 -3.07771979e+00   1.76239134e+00   9.50906070e-01
C     2.662531111125000e+00   1.961477204800113e+00   3.039589256000000e+00  4.83973410e-01  -6.12962771e+00   9.21227850e-01
C     6.161596713074999e+00   6.152360402401614e+00   2.763136480000000e-01 -2.33934792e+00  -4.88361680e-01  -2.86947150e-01
C     3.602589020400000e+00   5.301749499182137e-01   3.111821440000000e-01  4.07072960e+00  -9.30180930e-01  -1.38571501e+00
C     3.872664144825000e+00   1.150698159724113e+00   3.236172904000000e+00  6.57575960e-01  -1.72501574e+00   1.86979249e+00
C     5.095878120075000e+00   1.796096851952403e+00   3.583060624000000e+00  2.24465450e-01  -4.73504780e-01  -2.24916465e+00
C     8.632705217249999e+00   6.233969283928386e+00   4.300521280000000e-01 -2.07758089e+00  -3.06459847e+00  -1.51345159e+00
C     6.160457254499999e+00   4.930343530552440e-01   3.339409280000000e-01  9.43835920e-01  -3.35406076e+00   1.21475140e-01
C     6.347853173025000e+00   1.081432396498654e+00   3.709264135999999e+00  6.74442000e-02   2.95608458e+00  -9.47452660e-01
C     7.582530655425000e+00   1.731032666138576e+00   3.412240408000000e+00  3.01688535e+00   2.52794146e+00  -4.81481770e-01
C     1.199227479300000e+00   1.968773127481961e+00   1.357620516800000e+01 -2.77021020e-01  -3.32314425e+00  -2.03366590e-01
C     2.407819542900000e+00   2.655918743081604e+00   1.341768071200000e+01  1.81911476e+00  -1.41140371e+00   1.05088228e+00
C     2.657785406850000e+00   3.328604184859153e+00   3.089890216000000e+00  2.74740014e+00   5.71959500e-02   1.92129903e+00
C     3.933725658150000e+00   3.882881559233477e+00   3.575342080000000e+00 -1.88741730e+00   4.61411704e+00  -1.70291864e+00
C     3.689331446025000e+00   1.903326287260999e+00   1.350157911200000e+01 -1.25400983e+00   1.95123510e-01   3.11975069e+00
C     4.891854544050000e+00   2.572559001498486e+00   3.813472640000000e-01  2.18281400e-02   6.03535970e-01  -2.09281043e+00
C     5.129337130350000e+00   3.208885422042300e+00   3.422883632000000e+00  6.20119450e-01  -5.72751290e-01   1.93843145e+00
C     6.339849749399999e+00   3.936090182896872e+00   3.492320608000000e+00  2.80136954e+00  -2.63660827e+00  -2.83965630e-01
C     6.142469360700000e+00   1.855921906538700e+00   4.681041120000000e-01 -1.47439980e-01   1.55443437e+00  -1.41729588e+00
C     7.352077793099999e+00   2.594123546649835e+00   2.496893360000000e-01 -2.34337860e-01  -7.43050060e-01   1.98391687e+00
C     7.635084738900000e+00   3.263897228548757e+00   3.291795816000000e+00 -2.12574180e+00  -2.72186930e+00   3.40327920e-01
C     8.853163293374999e+00   3.998998759557602e+00   3.140524648000000e+00 -1.14035432e+00   2.98848460e-01   2.62737910e+00
C     2.475315260850000e+00   4.039429415810989e+00   4.240044799999999e-02 -3.26979707e+00  -3.96701370e-01  -8.58802990e-01
C     3.682858972275000e+00   4.682339989818090e+00   5.583071999999999e-02  1.65387073e+00   1.76025379e+00   1.30793846e+00
C     4.027989649200000e+00   5.423526334304880e+00   3.802429712000000e+00 -3.48668684e+00  -2.69091293e+00  -1.44635780e+00
C     5.279023762350000e+00   6.018410674151476e+00   3.627263344000000e+00 -3.72839006e+00   4.39198687e+00  -9.55825040e-01
C     4.907899993200000e+00   4.032102688648835e+00   3.157063200000000e-01 -1.44516446e+00  -3.03787506e+00  -4.47281020e-01
C     6.063768221100000e+00   4.700633304097130e+00   5.143520000000000e-01  3.97655107e+00   1.59938818e+00   2.50430620e-01
C     6.404496062924999e+00   5.299303008637038e+00   3.545721960000000e+00  1.33587164e+00  -2.93332650e-01  -8.99568140e-01
C     7.578655971225000e+00   5.999771145692525e+00   3.396034920000000e+00  2.69970093e+00   3.83251560e+00   6.87715700e-01
C     7.316553507225001e+00   3.898609071643486e+00   6.991626719999999e-01  2.06250942e+00   4.92283699e+00  -5.11988788e+00
C     8.620501766400000e+00   4.710441809265192e+00   2.135824240000000e-01 -1.75000639e+00   1.77956224e+00   3.24072543e+00
C     8.865069428249999e+00   5.345998181843920e+00   3.585974288000000e+00 -4.69423900e-01   2.08810282e+00  -1.47462104e+00
C     1.008405072735000e+01   6.152971176473723e+00   3.802971536000000e+00  1.13905238e+00  -5.68699296e+00  -1.15931117e+00
C     7.341103243350000e+00   2.186404667442996e-01   6.494553384000000e+00  3.54969092e+00  -2.19417852e+00   6.32050230e-01
C     1.153780545450000e+00   9.721877333692526e-01   6.422636312000000e+00  1.38446305e+00  -7.10865660e-01   5.52529790e-01
C     1.078937192475000e+00   3.444581964489666e-01   1.030053011200000e+01  9.83265900e-01   1.29540453e+00  -2.07223270e-01
C     2.221508286000000e+00   1.020536934253637e+00   9.828632687999999e+00  3.15234644e+00   7.63303310e-01   1.46371778e+00
C     2.401182752250000e+00   2.909166154194300e-01   6.631886184000000e+00  9.45905790e-01  -2.04666552e+00   3.59591890e-01
C     3.714610255200000e+00   9.182134166361158e-01   6.658249784000000e+00 -1.02169827e+00  -2.66666620e-01  -4.89910090e-01
C     3.527619545700000e+00   2.772442933992733e-01   9.852517416000000e+00  5.93539500e-01   2.43864804e+00   6.23840460e-01
C     4.896102453900000e+00   1.053720212099755e+00   1.002028552000000e+01 -5.98776645e+00  -2.26211742e+00  -1.44773700e-02
C     4.987022647799999e+00   1.699368542299428e-01   6.730644760000000e+00 -5.46254680e-01   3.71259315e+00  -2.87627640e-01
C     6.255333440625000e+00   9.269073888088015e-01   6.645453408000000e+00 -6.74922728e+00   3.44782348e+00  -4.86421380e-01
C     5.994798051075001e+00   3.932974511447982e-01   1.038100104000000e+01  3.21250760e+00  -2.74821504e+00   5.39208250e-01
C     7.304237800275000e+00   1.015586250800121e+00   1.059786024800000e+01 -3.02362492e+00   2.67126581e+00  -2.41055015e+00
C     8.545740202125000e+00   2.373360772893311e+00   6.317699528000000e+00 -1.91238390e-01   1.88386929e+00  -1.74628360e-01
C     2.416904707125000e+00   3.040217699592473e+00   6.285353831999999e+00 -3.99043950e-01  -3.10806340e-01   2.26970773e+00
C     2.294642025900000e+00   2.521750309425547e+00   9.821848191999999e+00  1.08638585e+00  -3.45481103e+00   3.97998180e-01
C     3.555798489000000e+00   3.139660517981988e+00   9.882915184000000e+00  7.07550790e-01   2.05599940e+00   2.14527612e+00
C     3.650220141449999e+00   2.325773358481373e+00   6.510470960000000e+00  8.86602450e-01   5.17740000e-01  -2.64078390e-01
C     4.888496955224999e+00   3.079193116332333e+00   6.585105312000000e+00 -1.54588011e+00  -9.28994940e-01   5.44730000e-02
C     4.774567070924999e+00   2.381104801497622e+00   1.019351960000000e+01 -1.20022076e+00   4.24870193e+00  -1.36895557e+00
C     5.926595371125000e+00   3.120105180649057e+00   1.040673305600000e+01  4.03440287e+00   2.44529359e+00  -9.54131470e-01
C     6.143388300374999e+00   2.438656280501041e+00   6.483238048000000e+00  3.25722690e-01  -1.46422707e+00   1.05083112e+00
C     7.310281400999999e+00   3.236895852729740e+00   6.355022552000000e+00  1.37799772e+00  -4.34375718e+00   8.50729400e-01
C     7.255295841524999e+00   2.411712543002763e+00   1.036249348000000e+01  4.89394220e-01   2.83323720e+00   4.08040700e-01
C     8.580405965475000e+00   3.243121239667710e+00   1.010853592000000e+01 -5.21246215e+00  -1.83116778e+00   8.55966600e-02
C     9.762949955025000e+00   4.457800689244102e+00   6.540602712000000e+00  3.16201030e+00  -1.52232297e+00  -1.42123856e+00
C     3.581333128200000e+00   5.169523733105332e+00   6.538961872000000e+00  5.87631560e-01   1.21994989e+00   9.74956340e-01
C     3.513061674749999e+00   4.570598946974861e+00   1.021186164800000e+01  2.19533730e-01   1.75423060e+00   5.02900200e-01
C     4.751479178399999e+00   5.397686434691352e+00   1.042345561600000e+01  8.98453460e-01  -5.99507516e+00  -1.84437464e+00
C     4.758785549324999e+00   4.465905661821404e+00   6.683904552000000e+00  5.10156926e+00   1.21664932e+00  -2.70732950e-01
C     6.108494438250000e+00   5.219716207486981e+00   6.790216432000000e+00 -2.89218324e+00   2.04273272e+00  -1.60619709e+00
C     5.991136416825000e+00   4.640037561119961e+00   1.027640248800000e+01 -5.62119220e-01  -1.75500301e+00   5.60966860e-01
C     7.267734786149999e+00   5.305763175668155e+00   1.008014279200000e+01 -2.63540715e+00  -6.70030600e-02   4.21182000e-02
C     7.339110142949998e+00   4.608947771125698e+00   6.572895776000000e+00  3.83342610e-01  -1.13483174e+00   2.48111230e-01
C     8.654424702000000e+00   5.204817726256949e+00   6.606607184000000e+00 -4.16352546e+00   8.95513110e-01   4.11791700e-01
C     8.511804510150000e+00   4.645969761133101e+00   1.007695400000000e+01 -2.03020076e+00  -1.02470768e+00   7.05617590e-01
C     9.621682641449999e+00   5.377262744035182e+00   1.026673900800000e+01  5.27580738e+00  -1.25014339e+00  -6.11542270e-01
