72
Lattice="7.395 0 0 3.6975 6.40425786098592 0 0 0 13.6 " PBC="1 1 1" Properties=species:S:1:pos:R:3:force:R:3 Energy="-580.52114199"
C     3.681811581450000e+00   6.341565683212361e+00   1.350793017600000e+01 -1.53310424e+00  -1.96720571e+00   1.61869230e-01
C     1.175298849225000e+00   5.988768182390994e-01   1.350904442400000e+01  2.09348191e+00   1.27327253e+00   1.39142810e-01
C     1.260752659125000e+00   8.346329202845634e-01   3.546127784000000e+00  1.48693626e+00  -5.58563510e-01   2.28382190e-01
C     2.536263519750000e+00   1.493914570574026e+00   3.595914120000000e+00 -3.74095520e-01   1.43036825e+00   2.13411550e-01
C     6.103870381724999e+00   6.309238334429231e+00   1.345866213600000e+01  1.83157423e+00  -3.81090050e-01  -8.83500400e-02
C     3.671364517050000e+00   6.471516656897293e-01   1.348966374400000e+01 -6.24815700e-02  -1.78167251e+00   3.76122160e-01
C     3.780424978725000e+00   8.248996011037781e-01   3.566889000000000e+00 -1.19496437e+00  -2.89031620e-01  -4.36852450e-01
C     4.961467450500000e+00   1.559934143575408e+00   3.463208992000000e+00  2.05762928e+00  -3.30761490e-01   4.97889680e-01
C     8.615852640825000e+00   6.285748541280008e+00   1.343087978400000e+01 -3.36712260e-01   2.21994626e+00   5.53411020e-01
C     6.151520064225000e+00   6.276312956047134e-01   1.342785786400000e+01 -1.06675880e+00   1.27483680e-01   1.26367610e-01
C     6.231682233975000e+00   8.488630531643263e-01   3.438307664000000e+00 -1.93067450e-01  -8.29671380e-01   2.51576960e-01
C     7.478780802075000e+00   1.598187352156395e+00   3.548383072000000e+00 -2.09071285e+00  -4.13729309e+00  -5.12052420e-01
C     1.209504754500000e+00   2.019809426879244e+00   1.354947355200000e+01  2.17187660e-01   8.91129360e-01  -2.46831890e-01
C     2.458818236025000e+00   2.717659439278985e+00   1.011296000000000e-02 -1.24025537e+00   2.05093267e+00   2.99580500e-01
C     2.562887146650000e+00   2.934675209846781e+00   3.631433512000000e+00 -2.55622161e+00   1.03769570e+00  -8.99533480e-01
C     3.745115924325000e+00   3.703934490577722e+00   3.433141840000000e+00  4.40886850e-01  -2.89674854e+00   1.25655043e+00
C     3.697892230800000e+00   2.072285787698927e+00   4.705192000000000e-02 -7.93002310e-01  -2.01856949e+00  -1.84136910e+00
C     4.881298847100000e+00   2.742432197405301e+00   1.335605530400000e+01  1.40917560e+00   1.38551144e+00   1.16842097e+00
C     4.963083479850000e+00   2.976625916703239e+00   3.492141768000000e+00  1.78588538e+00   6.65398310e-01  -9.22589560e-01
C     6.266669347050000e+00   3.675219399397947e+00   3.463698592000000e+00 -3.53540605e+00   7.43585490e-01   4.78901370e-01
C     6.117513158400000e+00   2.055723608362024e+00   1.333872890400000e+01  1.67985148e+00  -7.77538500e-02   4.19627100e-01
C     7.405181657850000e+00   2.783616955021703e+00   1.341604218400000e+01 -1.36228719e+00  -8.84013390e-01  -5.69915760e-01
C     7.437244492125000e+00   2.947124510743413e+00   3.581938352000000e+00  1.81746023e+00   2.90140457e+00   8.24429700e-02
C     8.663689712625001e+00   3.677663456325059e+00   3.645943080000000e+00  1.66767421e+00  -3.05231480e-01  -1.30196466e+00
C     2.424661137750000e+00   4.179293924492887e+00   1.359592693600000e+01  2.28288996e+00  -9.87567090e-01   9.76174200e-02
C     3.694380973875000e+00   4.909884808605778e+00   1.359107989600000e+01 -6.68515380e-01  -8.19867270e-01  -1.04351454e+00
C     3.741436689975000e+00   5.074800212332852e+00   3.436476560000000e+00  9.28988800e-02   1.29925825e+00  -1.48681330e-01
C     4.944347618775000e+00   5.803558774229416e+00   3.492781648000000e+00  1.60585845e+00   5.14816830e-01  -1.25371120e-01
C     4.924918291575000e+00   4.175492549154927e+00   1.338662076000000e+01 -1.11488352e+00  -2.43740970e-01   4.87780640e-01
C     6.156809892600000e+00   4.850863488380910e+00   1.332484983200000e+01 -3.30686360e-01   2.59387283e+00   2.67249340e-01
C     6.223042951275000e+00   5.119818814874564e+00   3.496992480000000e+00 -1.19135190e-01  -6.75921550e-01   1.98575300e-01
C     7.472550773399998e+00   5.821779079968852e+00   3.551945728000000e+00 -1.33675525e+00   1.67454640e-01  -8.00189500e-01
C     7.410601083600000e+00   4.214810273477403e+00   1.330990098400000e+01 -7.41457130e-01  -2.23171851e+00   1.27355987e+00
C     8.620339741950000e+00   4.880070362521755e+00   1.351262734400000e+01 -2.09814140e-01   8.82694150e-01  -9.49988670e-01
C     8.664024003600000e+00   5.118306449380925e+00   3.433215416000000e+00  1.19190541e+00  -2.37250034e+00   1.40145827e+00
C     9.923589395474998e+00   5.757868365038189e+00   3.411753255999999e+00 -8.12084410e-01   3.62098017e+00   5.04160300e-02
C     7.418525380725000e+00   7.496510442280861e-02   6.720436872000000e+00 -7.29560000e-02   4.99534160e-01   3.15381710e-01
C     1.264417325325000e+00   7.909168157064175e-01   6.855672823999999e+00  5.87684000e-02  -2.61563060e-01   1.66486360e-01
C     1.179425222250000e+00   6.212450337093000e-01   1.015125610400000e+01 -1.73088755e+00  -8.44731060e-01  -5.68282000e-01
C     2.425066420725000e+00   1.312283989789773e+00   1.021037639200000e+01 -2.08545719e+00   2.52669330e-01  -3.62517120e-01
C     2.490877927425000e+00   4.214571650829540e-02   6.983764832000000e+00  1.11937130e-01   2.71286633e+00  -5.94776460e-01
C     3.716952288674999e+00   7.912631579714863e-01   7.035953472000000e+00 -6.68997800e-02   8.37541990e-01  -4.35104190e-01
C     3.599458495049999e+00   6.244483154057148e-01   1.004138007200000e+01  2.95510447e+00  -1.16543724e+00   9.34346210e-01
C     4.869739020074999e+00   1.303891337949400e+00   1.013279478400000e+01 -1.07897253e+00   4.60210470e-01  -1.02029628e+00
C     4.949807606100000e+00   9.589133719325160e-02   6.849882216000000e+00 -1.32487064e+00  -4.86461980e-01  -5.30088700e-02
C     6.146456633774999e+00   7.727675331866490e-01   6.712042816000000e+00  2.51984867e+00   1.42746691e+00   1.16310466e+00
C     6.096969404699999e+00   5.721943104189312e-01   1.002186135200000e+01 -2.49120630e-01   1.64209329e+00   7.39700500e-01
C     7.290886904250000e+00   1.340878680921780e+00   1.009457212000000e+01  2.18549721e+00  -2.18129901e+00   5.87274670e-01
C     1.291670414625000e+00   2.233040793392409e+00   6.894319808000000e+00 -9.81275010e-01  -1.73857791e+00   6.15930560e-01
C     2.470704959025000e+00   2.956525192770950e+00   7.059885255999999e+00  1.99432109e+00   2.53413580e-01  -1.40110443e+00
C     2.400529404000000e+00   2.710187911846615e+00   1.027355424000000e+01 -6.35559200e-01   2.43398008e+00  -6.34271100e-01
C     3.630239849775000e+00   3.479591288379406e+00   1.027478449600000e+01 -6.24879300e-01  -1.86241632e+00  -6.47143730e-01
C     3.730201799250000e+00   2.255032182330127e+00   7.081177144000001e+00 -9.14097620e-01  -1.82947678e+00  -4.64567710e-01
C     4.963511761274999e+00   2.920685428764504e+00   6.976524871999999e+00  6.93453470e-01   9.95721410e-01  -3.42819350e-01
C     4.845230695950000e+00   2.749512232554688e+00   1.015691819200000e+01  1.35605193e+00  -5.18189610e-01   5.70253990e-01
C     6.119698454849999e+00   3.437560336171962e+00   1.011463280000000e+01 -2.15388827e+00   1.25907118e+00   1.97124290e-01
C     6.201102503924999e+00   2.204151314271106e+00   6.891171815999999e+00 -7.40344950e-01  -9.88138990e-01  -5.43263550e-01
C     7.440248304150000e+00   2.882492804462872e+00   6.904207688000001e+00 -5.20885190e-01   1.73363378e+00  -2.69055870e-01
C     7.314252737850000e+00   2.735995918256001e+00   1.017080338400000e+01 -3.78668270e-01  -2.14480150e-01  -8.92587610e-01
C     8.512482520724999e+00   3.431278976020296e+00   1.011888348000000e+01  3.07585849e+00   7.08032380e-01   8.75115520e-01
C     9.911456086199999e+00   4.367342532291539e+00   6.831237023999999e+00 -1.54646540e+00  -1.33149870e-01   8.90128030e-01
C     3.738283720799999e+00   5.057195355773761e+00   6.800592143999999e+00  7.26485160e-01   3.07787420e-01  -1.63009620e-01
C     3.633380099550000e+00   4.883403138312098e+00   1.019584955200000e+01 -3.36269960e-01  -5.78460180e-01  -5.40880950e-01
C     4.835307271500000e+00   5.563489596642978e+00   1.008798251200000e+01  2.45354037e+00   1.96497667e+00   6.28931800e-01
C     4.984762181175000e+00   4.356284620457570e+00   6.867245744000000e+00 -9.21464720e-01  -5.08403950e-01   3.65372600e-01
C     6.203543408550000e+00   5.069948154450380e+00   6.893850744000000e+00  1.05451040e-01  -2.05262466e+00   2.15011520e-01
C     6.110378795174999e+00   4.872353808183662e+00   1.007297763200000e+01 -6.73132890e-01  -2.63527250e-01  -1.61863270e-01
C     7.332413600700001e+00   5.601709823295987e+00   9.984361527999999e+00 -2.36322630e-01  -3.79660550e-01   4.63405700e-01
C     7.419626607150001e+00   4.318727170450494e+00   6.924778368000000e+00  1.15077184e+00   1.08584998e+00  -4.11990920e-01
C     8.659147518750000e+00   5.089849385750330e+00   6.834415208000000e+00 -3.81144530e-01  -1.92410997e+00   2.19581600e-01
C     8.565907402424999e+00   4.871542516797958e+00   1.002167054400000e+01 -1.83154500e-01  -3.21208410e-01   3.59057190e-01
C     9.821146053749999e+00   5.574271933261231e+00   1.006538067200000e+01 -1.59150240e+00  -2.87355630e-01   5.94594800e-02
