72
Lattice="7.395 0 0 3.6975 6.40425786098592 0 0 0 13.6 " PBC="1 1 1" Properties=species:S:1:pos:R:3:force:R:3 Energy="-581.70280515"
C     3.684360083325000e+00   6.250008811781335e+00   1.899340640000000e-01 -1.23978982e+00  -1.10612121e+00  -8.73438920e-01
C     1.158646048725000e+00   5.586852329316259e-01   1.570394720000000e-01  3.07531382e+00  -8.76276860e-01   1.57683900e-02
C     1.332879939525000e+00   9.002658041963586e-01   3.393257120000000e+00 -6.11730430e-01   6.67810440e-01  -7.06678000e-03
C     2.582800883325000e+00   1.579021841999402e+00   3.453612424000000e+00 -4.62590090e-01   1.65533603e+00  -4.49992530e-01
C     6.107955823425000e+00   6.237878763139023e+00   9.823538400000000e-02  1.48822584e+00  -6.03403200e-01  -1.23728200e-02
C     3.679172823600000e+00   5.395876719505273e-01   1.475391920000000e-01  3.12092080e-01  -3.94934890e-01  -6.54171970e-01
C     3.814375017000000e+00   9.113266619889433e-01   3.398553232000000e+00  1.17675240e-01  -1.05728770e-01   8.07814800e-02
C     5.023873781550000e+00   1.663254932226888e+00   3.366752216000000e+00  1.11577597e+00  -7.16093500e-01  -5.62646540e-01
C     8.642710282500000e+00   6.213615015427419e+00   1.013933040000000e-01 -6.32386240e-01   1.29626436e+00  -2.54731850e-01
C     6.191120954774999e+00   5.965541219984346e-01   8.512879199999999e-02 -2.32067461e+00  -1.98396627e+00   4.62706790e-01
C     6.269798541300000e+00   9.659721449458080e-01   3.295044584000000e+00  2.99854000e-02  -1.97597649e+00   3.10273440e-01
C     7.512419917574999e+00   1.686661662151666e+00   3.368411960000000e+00 -9.82018550e-01  -3.28748961e+00  -1.26511780e-01
C     1.203168052950000e+00   1.961839365582096e+00   1.887520880000000e-01  9.78503750e-01  -1.68561050e-01  -3.97837620e-01
C     2.463826388850000e+00   2.643629740759208e+00   2.516393040000000e-01 -8.06540200e-01   1.04067969e+00  -5.90828180e-01
C     2.590035929475000e+00   3.041838489171683e+00   3.414465503999999e+00 -1.45619771e+00  -9.60110260e-01   2.27289000e-01
C     3.808808837475000e+00   3.758401294740292e+00   3.352443792000000e+00 -2.38483150e-01  -7.87178910e-01  -4.12183300e-01
C     3.697640505000000e+00   1.993187823551325e+00   1.546589280000000e-01 -5.29544330e-01  -2.12973626e+00   5.78688890e-01
C     4.898631654825000e+00   2.707260205365916e+00   1.087446480000000e-01  1.32711793e+00  -1.32231829e+00  -5.55692850e-01
C     5.054786434500000e+00   3.075401219296006e+00   3.293533760000000e+00 -3.37941850e-01   3.89453310e-01   9.91640990e-01
C     6.289877593200000e+00   3.813936521241648e+00   3.351114664000000e+00 -1.78629549e+00  -1.14543705e+00  -2.08246700e-02
C     6.153770029950000e+00   2.006326030465957e+00   3.796902400000000e-02 -1.37511220e-01  -7.76224420e-01   2.03756620e-01
C     7.404401966025000e+00   2.662908670322901e+00   4.413363200000000e-02 -9.59309180e-01   1.25655965e+00   6.67450470e-01
C     7.462502595300000e+00   3.054733270245057e+00   3.423978704000000e+00  2.07018923e+00   1.83044093e+00  -2.28131000e-01
C     8.712317494799999e+00   3.739982585092354e+00   3.426502456000000e+00  1.24224733e+00   8.13491970e-01  -6.68145400e-02
C     2.455480465800000e+00   4.070216604621367e+00   2.421350800000000e-01  3.04147720e-01   1.62853630e-01  -9.06483480e-01
C     3.679096987875000e+00   4.793945710692739e+00   1.902382960000000e-01  3.76148150e-01   8.39137900e-01  -1.64892100e-01
C     3.768156377924999e+00   5.148814348506028e+00   3.268592584000000e+00  2.72300060e-01   1.28454563e+00   4.60148060e-01
C     4.974085612950000e+00   5.883544304473836e+00   3.332682856000000e+00  1.82842960e+00   5.89240940e-01   8.67088800e-02
C     4.921874176800000e+00   4.086740486496268e+00   7.561205600000000e-02 -4.73714060e-01   1.38790460e+00   2.15628510e-01
C     6.170831034450000e+00   4.769409653936928e+00   1.359073880800000e+01 -1.05954633e+00   2.34884145e+00   9.21846620e-01
C     6.259361792925000e+00   5.223935652778043e+00   3.378518528000000e+00 -4.18535030e-01  -4.75536900e-01  -2.32592310e-01
C     7.509517564949999e+00   5.893654322101948e+00   3.378997248000000e+00 -6.51345770e-01   9.61111060e-01   2.64185470e-01
C     7.396549548299999e+00   4.083888286215738e+00   6.100538400000000e-02  3.10499980e-01   1.42471260e-01  -7.07115730e-01
C     8.632100232299999e+00   4.779696300996817e+00   7.203675200000000e-02 -6.92822000e-03   1.12065356e+00   1.02121074e+00
C     8.722348553474999e+00   5.187006652594768e+00   3.372284152000000e+00  2.04349450e-01  -1.40968237e+00  -2.71068890e-01
C     9.949544736225000e+00   5.865910628754377e+00   3.260696424000000e+00  2.76526000e-02   2.45740526e+00   6.26952040e-01
C     7.399711835174999e+00   1.348883362820994e-01   6.640055024000000e+00  1.22066920e-01   3.13506310e-01   2.96456880e-01
C     1.246513623600000e+00   8.431301536557901e-01   6.710506968000000e+00  4.13444310e-01  -4.02361590e-01   1.45845300e-01
C     1.116343320975000e+00   5.638219600759746e-01   1.016623283200000e+01  2.66886420e-01  -1.06671603e+00   5.22574750e-01
C     2.391747952425000e+00   1.278474631695261e+00   1.025921249600000e+01 -2.15512670e+00  -1.37480676e+00  -2.03932490e-01
C     2.485775081625000e+00   8.256823935420060e-02   6.747713032000000e+00 -2.19451010e-01   2.97393014e+00   2.89611600e-02
C     3.701511306825000e+00   8.614105313339527e-01   6.792655184000000e+00 -6.29658290e-01   3.82078430e-01  -4.23218940e-01
C     3.591638652300000e+00   5.692154339179308e-01   1.022665627200000e+01  8.10170770e-01  -1.45190035e+00  -7.26460570e-01
C     4.818608141325000e+00   1.240793771639222e+00   1.015179289600000e+01  1.06001340e-01   6.64638370e-01   7.10410500e-01
C     4.903816215375000e+00   1.354287275603262e-01   6.652773200000000e+00  2.91005320e-01  -1.12100150e-01   6.50117990e-01
C     6.128345687174999e+00   8.098005385175707e-01   6.655173328000000e+00  1.67319816e+00   1.34805223e+00   6.71016400e-02
C     6.043650863100000e+00   5.084148187318200e-01   1.012867616000000e+01 -4.63189300e-02   1.61339537e+00   1.16492540e-01
C     7.259575956599999e+00   1.227451589111748e+00   1.016468107200000e+01  1.08951306e+00   6.23931310e-01  -2.16311140e-01
C     8.665938236324999e+00   2.282984270228462e+00   6.762688671999999e+00 -1.34191980e-01  -1.12729401e+00  -2.41959890e-01
C     2.467882509375000e+00   3.036037000061465e+00   6.766914736000000e+00  1.10233017e+00  -1.02454274e+00   5.99505760e-01
C     2.366977808325000e+00   2.657586091615455e+00   1.029543419200000e+01 -8.80193730e-01   2.22406401e+00  -4.68297790e-01
C     3.597564746475000e+00   3.399614660053412e+00   1.026023072800000e+01 -5.81172390e-01  -8.01804710e-01   1.93030200e-02
C     3.713564306400000e+00   2.333027973700024e+00   6.840592464000000e+00 -5.29167130e-01  -2.43306365e+00  -7.05643860e-01
C     4.963444947450000e+00   2.969696765869033e+00   6.780349632000000e+00 -4.38768900e-01   1.60558406e+00  -1.50478490e-01
C     4.812281607900000e+00   2.661940794832519e+00   1.023001751200000e+01  1.03432186e+00   9.37196070e-01  -4.08065720e-01
C     6.073859142300000e+00   3.384443037225651e+00   1.018056859200000e+01 -1.36824069e+00   6.79907970e-01  -3.27178580e-01
C     6.163773283425000e+00   2.236613600767346e+00   6.724386312000000e+00  9.01222870e-01   9.86510000e-02   1.81247430e-01
C     7.434588503924999e+00   2.950554375082915e+00   6.756902416000000e+00 -1.16268228e+00  -3.83776410e-01  -1.69363630e-01
C     7.274072818799999e+00   2.658369908734941e+00   1.015260223200000e+01 -5.36461180e-01  -2.49242410e-01   4.68087120e-01
C     8.465049918449999e+00   3.368811652726120e+00   1.021794016800000e+01  3.18928559e+00   3.30539700e-01  -3.49993420e-01
C     9.892236111450000e+00   4.439638149910564e+00   6.742797584000000e+00 -3.91726660e-01  -1.76069070e-01  -5.84056450e-01
C     3.732481086150000e+00   5.123070448717822e+00   6.676578504000000e+00  9.25207400e-02   3.42354080e-01   2.61827870e-01
C     3.589087525200000e+00   4.821684792974650e+00   1.019897333600000e+01 -3.82885040e-01  -5.01544420e-01   1.21023320e-01
C     4.788388547775000e+00   5.515896802654439e+00   1.017884084800000e+01  2.73179426e+00   1.35873622e+00  -2.86014520e-01
C     4.959492393900000e+00   4.428380105018469e+00   6.721676240000000e+00  3.21769960e-01  -1.53337704e+00   1.22052330e-01
C     6.200080662825000e+00   5.101642378301469e+00   6.723786416000000e+00  4.76634490e-01  -1.27404080e+00   1.70027700e-02
C     6.085227401850000e+00   4.831074203508353e+00   1.013466179200000e+01 -1.22662431e+00  -9.32988790e-01   5.10229320e-01
C     7.320077705400000e+00   5.537416197787874e+00   1.012738035200000e+01 -8.99197870e-01   6.12059000e-03   2.34728270e-01
C     7.450480876575000e+00   4.347897348193800e+00   6.744544776000000e+00 -8.31650470e-01   2.06896015e+00  -2.28134960e-01
C     8.660151722775000e+00   5.121739707977092e+00   6.678237024000000e+00 -1.10571736e+00  -6.87378020e-01   3.73541510e-01
C     8.537809619250000e+00   4.799826804728156e+00   1.012295164800000e+01 -9.58350100e-01   1.89886000e-03   5.73057430e-01
C     9.756921033374999e+00   5.536638144500463e+00   1.015843908000000e+01 -1.39281520e-01  -2.04826524e+00  -1.06808660e-01
