72
Lattice="7.395 0 0 3.6975 6.40425786098592 0 0 0 13.6 " PBC="1 1 1" Properties=species:S:1:pos:R:3:force:R:3 Energy="-576.64785216"
C     4.977256514999999e-02   2.082741507166320e-02   1.349846824800000e+01 -6.59160110e-01  -1.28919098e+00   2.83255550e-01
C     1.331529982275000e+00   6.724787763764071e-01   1.356807046400000e+01 -2.56283086e+00   2.24619819e+00  -8.29232400e-01
C     1.251843089175000e+00   7.875002722232647e-01   3.464064704000000e+00 -1.31052420e-01  -2.09123732e+00  -1.10193981e+00
C     2.468634950625000e+00   1.480489901205315e+00   3.447971688000000e+00 -3.97407810e-01   1.11813376e+00  -7.23023900e-01
C     6.242185056675000e+00   6.394957404607973e+00   1.354406524000000e+01 -2.14892326e+00   2.91156240e-01   2.54598450e-01
C     3.732790197150000e+00   7.279237028419356e-01   1.349559388800000e+01 -1.42756158e+00  -1.71946620e-01  -6.36964950e-01
C     3.642988423050000e+00   7.218345344686476e-01   3.404691456000000e+00  1.33786966e+00   1.10755283e+00   2.75691890e-01
C     4.892347605675000e+00   1.376848771575678e+00   3.454072784000000e+00  3.86873160e-01   7.29939210e-01  -3.64735630e-01
C     8.574681754800000e+00   6.371224826043278e+00   1.355581700000000e+01  1.64363076e+00   1.20693187e+00  -2.44746760e-01
C     6.116730397650000e+00   5.602501133397169e-01   1.359664188800000e+01  3.05221345e+00   5.12194045e+00  -4.97593970e-01
C     6.168118030800000e+00   6.517994917890456e-01   3.455607136000000e+00 -4.52715330e-01   2.81674008e+00  -3.87776480e-01
C     7.391068078499999e+00   1.419988685074159e+00   3.378837040000000e+00  6.30353860e-01  -7.30284850e-01   5.65301080e-01
C     1.292047300800000e+00   2.102102347188043e+00   1.350514884000000e+01 -2.24744694e+00   2.02202802e+00   9.74092510e-01
C     2.489055799425000e+00   2.852096979850318e+00   1.353536450400000e+01 -7.31277150e-01   1.15254251e+00  -1.83967684e+00
C     2.483898082725000e+00   2.913595274887697e+00   3.360350288000000e+00 -1.57289049e+00   6.60265180e-01   7.33313970e-01
C     3.688768686525000e+00   3.636215483710610e+00   3.518416696000000e+00  9.53017830e-01  -1.60536344e+00  -1.39185587e+00
C     3.719761057575000e+00   2.122707342384229e+00   1.332585528000000e+01 -9.66938780e-01   7.86548460e-01   3.40817683e+00
C     4.910084808975000e+00   2.764429862515722e+00   1.032560960000000e-01  7.94808250e-01   2.41267317e+00  -2.22960569e+00
C     4.843572995775000e+00   2.809865254158963e+00   3.454336216000000e+00  3.66579788e+00   1.91246990e-01   1.02047669e+00
C     6.177621086475000e+00   3.432946132426411e+00   3.513342944000000e+00 -1.09864730e+00   3.93240670e+00  -1.19873803e+00
C     6.111440865075000e+00   2.023356297009848e+00   3.659637600000000e-02  2.06943380e+00   2.01717527e+00   4.73514570e-01
C     7.352599584300000e+00   2.895027089861307e+00   1.358441712000000e+01  1.09908822e+00  -3.60749215e+00   2.63804650e-01
C     7.455131370225000e+00   2.824671385990654e+00   3.367463360000000e+00 -3.04817108e+00   2.78424280e-01   1.90261480e-01
C     8.594576745150000e+00   3.633234109549044e+00   3.299284792000000e+00  2.25143891e+00  -9.76935380e-01   1.84902997e+00
C     9.793909898999999e+00   4.332660786191338e+00   1.348019460800000e+01  2.28197666e+00  -1.52510570e+00  -1.16526550e-01
C     3.712064415525000e+00   5.035675832555168e+00   1.342192649600000e+01 -5.99221470e-01  -3.12395221e+00   1.51898032e+00
C     3.774617907075000e+00   5.050874929649149e+00   3.448837464000000e+00 -1.19206704e+00  -1.36273558e+00   1.40729610e-01
C     4.989655637549999e+00   5.751949357796242e+00   3.383680544000000e+00  5.93636100e-01  -1.25801264e+00   1.04178903e+00
C     4.932266407275000e+00   4.244908172014310e+00   4.710523200000000e-02 -9.15613280e-01   2.35255040e-01  -5.72234510e-01
C     6.143795616975000e+00   4.998369493498782e+00   5.033686400000000e-02 -5.58573410e-01  -6.56420970e-01   4.80777900e-02
C     6.215294803050000e+00   4.932031564839179e+00   3.444474448000000e+00 -1.47767255e+00   6.45635530e-01  -3.79120540e-01
C     7.395140394075000e+00   5.754466679433272e+00   3.381353040000000e+00 -4.93818440e-01  -3.34514043e+00   1.48235780e+00
C     7.350052265625000e+00   4.337409095096477e+00   3.212687200000000e-02  2.45473530e-01  -4.03357016e+00  -5.95204270e-01
C     8.547795346574999e+00   5.023908905333518e+00   1.349405328000000e+01  1.66418043e+00  -3.07726374e+00   7.96003880e-01
C     8.614743316875000e+00   5.048596935128347e+00   3.569194880000000e+00  6.95421080e-01  -1.70091034e+00  -2.64154800e+00
C     9.900051812999999e+00   5.661682239855643e+00   3.473070216000000e+00 -6.58015930e-01   1.53455797e+00   5.77700560e-01
C     2.189171430000000e-02   1.090452985822200e-02   6.917070703999999e+00  3.20129370e-01  -9.30775300e-02   5.80997870e-01
C     1.247634446775000e+00   7.669794930179383e-01   6.875766415999999e+00 -5.95969420e-01  -2.09874859e+00  -4.73103020e-01
C     1.243628797125000e+00   6.424586895724999e-01   1.019858872800000e+01 -1.50886008e+00   2.76044703e+00   1.05481110e-01
C     2.457698485125000e+00   1.366337591235217e+00   1.013416212800000e+01 -5.89204940e-01   6.49572830e-01   1.20025215e+00
C     2.473196889150000e+00   6.949196161307400e-02   6.689769008000000e+00 -9.81655800e-02  -1.98502195e+00   1.12936320e+00
C     3.776999910525000e+00   6.383757190164354e-01   6.632724488000000e+00 -5.37689100e-01   1.21138938e+00   6.04131640e-01
C     3.642483862200000e+00   6.612318108504108e-01   1.035735104800000e+01  1.92717341e+00   1.63163323e+00  -2.10518405e+00
C     4.914505133250000e+00   1.397694054526770e+00   1.018546445600000e+01  7.19827100e-02   3.55749470e-01   2.02824489e+00
C     5.053605896700000e+00   7.977015505258801e-03   6.819710208000000e+00 -1.76830013e+00  -1.42665970e-01   5.30387940e-01
C     6.252961753199999e+00   8.005137882373633e-01   7.012645792000000e+00 -1.82143860e+00  -1.78390691e+00  -2.35227549e+00
C     6.198170460375000e+00   7.349546173335366e-01   1.029193872000000e+01 -1.68663233e+00  -2.87082930e-01  -1.28629540e+00
C     7.391616713549999e+00   1.502514464198748e+00   1.020591219200000e+01  1.49281115e+00  -3.37350985e+00  -4.63632360e-01
C     8.602953098624999e+00   2.144699948130940e+00   6.909739215999999e+00  2.42826070e-01   8.64057150e-01  -1.72895050e+00
C     2.463832970399999e+00   2.734169680084643e+00   6.681929151999999e+00  2.09293200e-01   2.28653325e+00   1.66150671e+00
C     2.471785183650000e+00   2.802008318488579e+00   1.013903446400000e+01  3.79959600e-02   8.88827230e-01   2.73414800e-02
C     3.677645238450000e+00   3.565695574668427e+00   1.011049037600000e+01  7.69393270e-01  -1.49652758e+00   5.27355240e-01
C     3.695610096825000e+00   2.033564940209002e+00   6.632194632000000e+00  1.38166608e+00   2.53407439e+00   5.63426650e-01
C     4.904199239400000e+00   2.854223513672731e+00   6.761570344000000e+00  2.92975780e-01  -8.17691450e-01  -3.83725160e-01
C     4.928116924875000e+00   2.859667068811153e+00   1.021725268800000e+01 -7.87609790e-01  -2.18472979e+00  -1.29159929e+00
C     6.163088802224999e+00   3.526466869530205e+00   1.015295134400000e+01 -1.58065770e-01   5.23903040e-01   1.22150650e-01
C     6.182083525275000e+00   2.211447813336161e+00   6.770649568000000e+00  4.65110000e-03  -1.04940651e+00   1.35945005e+00
C     7.406551026974999e+00   2.910316551033692e+00   6.793257799999999e+00 -1.28503902e+00   1.00995231e+00   3.39260450e-01
C     7.421549418074999e+00   2.907320895377099e+00   1.009188992800000e+01  1.97864200e-02  -1.91785636e+00   1.46294369e+00
C     8.675178584625000e+00   3.558116583789168e+00   1.024298429600000e+01 -1.35967475e+00   1.02066223e+00  -9.26798320e-01
C     2.456280863625000e+00   4.163388757969842e+00   6.872628488000000e+00 -5.22366360e-01   2.14226739e+00  -1.03454958e+00
C     3.651472669575000e+00   4.952774892005141e+00   6.859818920000000e+00  4.75299490e-01   3.59775730e-01   4.35786930e-01
C     3.686704187400000e+00   4.969387729021717e+00   1.008869569600000e+01 -8.43590170e-01  -4.31220730e-01   1.17560189e+00
C     4.914486904575000e+00   5.637658779898946e+00   1.024938568000000e+01 -2.81145220e-01   6.36662200e-01  -1.04744512e+00
C     4.898265454424999e+00   4.262688441196185e+00   6.861720336000000e+00 -8.55294860e-01   8.69218850e-01  -5.76795330e-01
C     6.083701036874999e+00   5.057039027839399e+00   6.832422535999999e+00  1.23425594e+00  -1.07685252e+00  -1.05863569e+00
C     6.120349362750000e+00   4.913176661188396e+00   1.022552924000000e+01  4.53335230e-01   1.87097506e+00   4.61935170e-01
C     7.302941197949999e+00   5.681834261893390e+00   1.033635346400000e+01  2.64170527e+00  -1.85302978e+00   1.53660730e-01
C     7.316020142849999e+00   4.362884016054564e+00   6.741377743999999e+00  2.50343406e+00  -1.23240020e+00   9.78315810e-01
C     8.624222227875000e+00   4.993893301510113e+00   6.860978728000000e+00  8.04843160e-01  -1.00097004e+00  -5.06351530e-01
C     8.606844495524999e+00   5.001964331520757e+00   1.034822721600000e+01  5.87716530e-01  -7.65333340e-01  -1.14345928e+00
C     9.866087132624999e+00   5.672040166305513e+00   1.020372640000000e+01 -7.73473060e-01   1.91903694e+00   8.11784890e-01
