72
Lattice="7.395 0 0 3.6975 6.40425786098592 0 0 0 13.6 " PBC="1 1 1" Properties=species:S:1:pos:R:3:force:R:3 Energy="-582.76551626"
C     3.711024641549999e+00   6.355324590798784e+00   1.339256205600000e+01 -1.38281572e+00   1.22899230e-01  -1.24057280e-01
C     1.198495965900000e+00   6.721508143313965e-01   1.337197124800000e+01  1.33042270e+00   4.08809400e-01   2.44485210e-01
C     1.275322140225000e+00   7.798794615401791e-01   3.510637360000000e+00 -3.50254440e-01   9.27645200e-02   5.91953100e-02
C     2.510508879300000e+00   1.487794533677853e+00   3.496749720000000e+00 -1.12924285e+00   1.33631210e+00  -1.17680850e-01
C     6.111409658174999e+00   6.377037650689907e+00   1.340703259200000e+01  2.25947424e+00  -1.03760751e+00  -5.89281700e-02
C     3.680395623825000e+00   6.908303053593943e-01   1.337934136000000e+01  3.98051590e-01  -7.82679930e-01   3.22351950e-01
C     3.704118044325000e+00   7.633088285829006e-01   3.515489296000000e+00  1.24530513e+00   1.01066334e+00   1.77491470e-01
C     4.927616135475000e+00   1.485676197305500e+00   3.559206904000000e+00  1.56181497e+00   1.91469460e-01  -3.72926560e-01
C     8.648403914850000e+00   6.348483946808203e+00   1.341464369600000e+01 -1.65947921e+00   9.84045050e-01  -2.57316940e-01
C     6.181230068324999e+00   6.785726839005114e-01   1.340833139200000e+01 -1.00864270e+00  -1.11218045e+00   1.92491200e-01
C     6.206973875100000e+00   7.909953959503596e-01   3.561076632000000e+00 -1.05317695e+00  -6.80904130e-01  -2.08138500e-02
C     7.435846356449999e+00   1.500061121097739e+00   3.521059720000000e+00 -1.77308320e-01  -1.01042943e+00  -8.75624000e-03
C     1.232357412075000e+00   2.097861895931202e+00   1.336322821600000e+01 -4.58679540e-01  -3.64400970e-01   2.23622050e-01
C     2.454161752425000e+00   2.805534823079189e+00   1.333650054400000e+01  5.59158800e-02   4.42643580e-01   1.54467170e-01
C     2.502658901925000e+00   2.957501842094600e+00   3.493057728000000e+00 -3.58688300e-02  -1.79128310e+00   2.83276450e-01
C     3.765201188024999e+00   3.643758674788432e+00   3.563200408000000e+00 -2.00345667e+00  -5.71422910e-01  -4.93649800e-01
C     3.695446112700000e+00   2.127495485773258e+00   1.335556692800000e+01 -7.49009310e-01  -1.73751837e+00   3.15154820e-01
C     4.911949273349999e+00   2.807407235949717e+00   1.343508000800000e+01  8.75143080e-01  -5.12512160e-01  -4.10918900e-02
C     4.957815503700000e+00   2.922205351282417e+00   3.541672424000000e+00  3.03353650e-01  -1.05717016e+00   2.87840230e-01
C     6.193731093975000e+00   3.613165406906055e+00   3.553848096000000e+00  9.22660700e-02   1.21757870e-01  -2.58695060e-01
C     6.137949203924999e+00   2.082291992307126e+00   1.345669122400000e+01  1.20483865e+00   6.71462750e-01  -1.44698270e-01
C     7.401784838549999e+00   2.799673710328295e+00   1.343680748000000e+01 -1.13399803e+00  -4.90328610e-01   7.08821000e-02
C     7.410089053800000e+00   2.892099447423186e+00   3.509626064000000e+00  5.72668490e-01   1.03986336e+00   3.31939200e-02
C     8.627090193750000e+00   3.621696839014255e+00   3.496622015999999e+00  1.30916434e+00   6.52863290e-01   2.15912770e-01
C     9.831111629699999e+00   4.226521867911143e+00   1.334430504000000e+01  9.59166390e-01   2.15463860e-01   1.23803730e-01
C     3.691967911425000e+00   4.945560111270379e+00   1.335198781600000e+01  6.83468500e-02  -1.05232490e+00   5.77850480e-01
C     3.738886930950000e+00   5.040784060752039e+00   3.567051248000000e+00 -1.03344060e-01   8.73282130e-01   5.48928500e-02
C     4.942676607599999e+00   5.760981026485886e+00   3.553188496000000e+00  2.12580966e+00  -2.09139390e-01  -1.82025750e-01
C     4.937966103525000e+00   4.203086318825995e+00   1.344179664000000e+01 -1.01456913e+00   1.44096669e+00  -2.98195020e-01
C     6.159718678875000e+00   4.912030234988877e+00   1.345542084800000e+01 -5.87910240e-01   1.46905307e+00   9.15176200e-02
C     6.217888488374999e+00   5.027715468120345e+00   3.545366727999999e+00 -1.23332218e+00   1.10737148e+00  -4.94885400e-02
C     7.441396082099999e+00   5.771731726070310e+00   3.529633160000000e+00 -1.02387266e+00  -1.20638169e+00   7.89799900e-02
C     7.380713303699999e+00   4.204197905862755e+00   1.346537169600000e+01  3.35112330e-01   8.04662410e-01  -3.84220570e-01
C     8.602962305400000e+00   4.925869644096601e+00   1.337827607200000e+01  4.93026790e-01   4.23728120e-01   4.92058270e-01
C     8.651675906549999e+00   5.058571246532404e+00   3.555578152000000e+00  8.08513490e-01  -4.17187090e-01  -2.76012450e-01
C     9.910890146850001e+00   5.753507129478108e+00   3.576770216000000e+00 -9.51272940e-01   4.85683150e-01  -2.05872900e-01
C     7.398313107899999e+00   4.253003602247400e-02   6.921827439999999e+00  1.32484562e+00  -6.18793400e-01  -3.14115440e-01
C     1.246709406225000e+00   7.761328426069218e-01   6.850882359999999e+00  3.20651510e-01  -1.58879127e+00   8.10114900e-02
C     1.184213299875000e+00   6.580475497998403e-01   1.021516767200000e+01  1.23553614e+00  -9.16155920e-01   1.15890510e-01
C     2.455219644150000e+00   1.360197380926784e+00   1.020130464800000e+01 -2.08628373e+00  -1.61883700e-02  -5.58992300e-02
C     2.508941324175000e+00   3.596471107729500e-02   6.800874208000000e+00 -1.78540540e+00   4.18209500e-01   1.90899040e-01
C     3.733905178275000e+00   7.315567742833351e-01   6.768285616000000e+00 -2.92346290e-01   8.66910990e-01   3.02795440e-01
C     3.647495823450000e+00   6.377732704795452e-01   1.026204061600000e+01  5.45590800e-01   4.80254500e-01  -2.54408630e-01
C     4.879340281349999e+00   1.336977847459254e+00   1.023574256800000e+01  6.20121750e-01   8.89447990e-01   1.37121000e-02
C     4.958861378550000e+00   3.700188063772200e-02   6.857396624000001e+00  4.63913940e-01   8.59648500e-02   1.38637700e-02
C     6.192253757850000e+00   7.503497487606120e-01   6.917606407999999e+00 -7.42012240e-01   3.01576560e-01  -4.40076790e-01
C     6.115560804450000e+00   6.472706568007680e-01   1.025732944000000e+01  7.15595420e-01   3.03915200e-01  -1.71429620e-01
C     7.370008708425000e+00   1.362244501951734e+00   1.022742820800000e+01 -1.35249184e+00   2.78662300e-02  -2.39583110e-01
C     8.641253911200000e+00   2.176907537292088e+00   6.844043056000000e+00 -4.98663490e-01   7.25398170e-01  -3.23862670e-01
C     2.476727853750000e+00   2.870538744826553e+00   6.778705120000000e+00  2.09298500e-01   4.33452910e-01   4.70589170e-01
C     2.423735949300000e+00   2.781764587478277e+00   1.015908045600000e+01 -2.91423800e-02  -5.46342500e-02   3.02124090e-01
C     3.642481273950000e+00   3.502818058658318e+00   1.016889856800000e+01  1.08984985e+00  -9.51498610e-01   2.46089300e-02
C     3.708517107975000e+00   2.167655754259796e+00   6.757438256000000e+00  9.01142790e-01  -2.83169500e-02   2.61817970e-01
C     4.963752875250000e+00   2.889013747901081e+00   6.806526911999999e+00 -1.42107247e+00  -4.07922500e-02   1.12536130e-01
C     4.908816085800000e+00   2.765379806084095e+00   1.019623565600000e+01 -1.43433375e+00   4.65588970e-01   2.68157600e-02
C     6.136629159449999e+00   3.475575626573451e+00   1.022228713600000e+01 -9.86739060e-01   8.59379910e-01  -1.77794900e-01
C     6.176740970550000e+00   2.174022034870686e+00   6.851707336000000e+00  6.56623940e-01   6.29027720e-01   8.88575800e-02
C     7.403687830875000e+00   2.925719175442464e+00   6.841706304000000e+00  3.24911270e-01  -1.93809287e+00   1.68410450e-01
C     7.341791532975000e+00   2.782249581926014e+00   1.019740974400000e+01  1.34525074e+00  -3.03797440e-01   3.31797150e-01
C     8.578882188749999e+00   3.489640401515268e+00   1.021230990400000e+01  4.34189980e-01   5.91830500e-01  -1.92857800e-01
C     9.872329104224999e+00   4.298913997696118e+00   6.864639167999999e+00  4.00765070e-01  -3.69521530e-01  -3.05549220e-01
C     3.710665170600000e+00   4.992064949933662e+00   6.878275480000000e+00 -7.97659280e-01   1.90837529e+00   1.53217090e-01
C     3.635547795900000e+00   4.910565517173716e+00   1.018995381600000e+01  7.60581490e-01   3.53325390e-01   2.61844110e-01
C     4.866939088200000e+00   5.613824757889748e+00   1.023328069600000e+01  9.97039450e-01   6.43249720e-01  -2.88078890e-01
C     4.927793282700000e+00   4.327923684737454e+00   6.851972400000000e+00  9.42557260e-01  -1.56864532e+00  -2.01628110e-01
C     6.150718705050000e+00   5.023033251156321e+00   6.835896792000000e+00  1.51460324e+00   3.87667440e-01  -4.64744500e-02
C     6.127407705374999e+00   4.911067290777048e+00   1.024374100000000e+01 -7.12048920e-01   9.78130700e-02   7.45822800e-02
C     7.342817293424998e+00   5.645660131584073e+00   1.029452421600000e+01  8.36527890e-01  -1.56110329e+00  -3.44213440e-01
C     7.411699167150000e+00   4.318469335029049e+00   6.830356152000000e+00 -2.93938120e-01   8.80793960e-01   9.06885800e-02
C     8.667559590074999e+00   5.028783057905607e+00   6.861073656000000e+00 -1.17139835e+00  -3.91742000e-01  -3.39695200e-02
C     8.613654698924998e+00   4.928719602886880e+00   1.027210937600000e+01 -1.89483679e+00  -4.78379410e-01  -2.42275700e-01
C     9.822095238974999e+00   5.641302546450971e+00   1.024719376800000e+01 -4.80320100e-02  -3.70285020e-01  -1.18877110e-01
