72
Lattice="7.395 0 0 3.6975 6.40425786098592 0 0 0 13.6 " PBC="1 1 1" Properties=species:S:1:pos:R:3:force:R:3 Energy="-582.96207757"
C     3.694671671325000e+00   6.298318562437302e+00   1.353062313600000e+01 -5.63117440e-01  -2.40092710e-01  -2.63709300e-01
C     1.246150787925000e+00   5.791759121250102e-01   1.354943656000000e+01 -1.01389837e+00   1.34043735e+00  -8.49287500e-02
C     1.294427381550000e+00   8.737268798374116e-01   3.505103384000000e+00  5.62015950e-01  -9.43599310e-01  -2.43535600e-01
C     2.527260329100000e+00   1.576189943216288e+00   3.559574648000000e+00  4.27616900e-02   2.30098260e-01  -6.50246210e-01
C     6.172947224625000e+00   6.299419198193122e+00   1.351437453600000e+01 -1.11476863e+00  -2.76587970e-01  -1.27464000e-03
C     3.687625937175000e+00   6.061106836622838e-01   1.350525927200000e+01 -3.59193570e-01  -1.78055060e-01  -8.54179000e-02
C     3.755831833950000e+00   8.618827172659704e-01   3.501504008000000e+00 -4.92847840e-01  -7.19529650e-01   2.04836190e-01
C     4.980282659925000e+00   1.534743699751462e+00   3.492893032000000e+00  6.56130040e-01   8.34519690e-01  -4.14779140e-01
C     8.582748590550001e+00   6.282724899016567e+00   1.350706358400000e+01  8.41305610e-01   5.65932750e-01  -2.70052400e-01
C     6.113979420674999e+00   5.561043170140458e-01   1.351579927200000e+01  1.55467999e+00   1.44241494e+00   1.82724760e-01
C     6.230594096699999e+00   8.261236469085601e-01   3.436739448000000e+00 -2.17323560e-01   8.35442930e-01   2.55714270e-01
C     7.460915147625000e+00   1.557640202452534e+00   3.461230192000000e+00 -1.38268950e-01  -4.56383740e-01   8.08869200e-02
C     1.225460391375000e+00   2.014120716749942e+00   1.356997065600000e+01 -6.01263270e-01   7.47745640e-01  -2.34597870e-01
C     2.451579270525000e+00   2.739821757858986e+00   1.358780501600000e+01 -3.23750410e-01   3.27113260e-01  -6.18510720e-01
C     2.530990736850000e+00   2.996326694732171e+00   3.507555600000000e+00 -3.41733390e-01   6.29530640e-01   2.50981840e-01
C     3.756208609200000e+00   3.725176069005191e+00   3.518366920000000e+00  4.78868390e-01  -1.02428291e+00  -7.45672010e-01
C     3.685383070649999e+00   2.008450835138748e+00   1.349964968000000e+01 -6.98585630e-01   1.01189722e+00   9.76271980e-01
C     4.903308437700000e+00   2.707786571319430e+00   1.357120444800000e+01  4.54500680e-01   1.09477284e+00  -6.08815870e-01
C     4.963956644474999e+00   2.965678414274776e+00   3.470117112000000e+00  1.28996792e+00   3.23873030e-01   6.62005460e-01
C     6.236188118399999e+00   3.646881967304176e+00   3.502398616000000e+00 -7.84895430e-01   1.55363653e+00  -4.18624540e-01
C     6.119408829674999e+00   1.985187176334562e+00   1.353817576000000e+01  1.05471850e+00   1.01131539e+00  -5.69213100e-02
C     7.364856131250000e+00   2.755201519067197e+00   1.351084887200000e+01  1.37417290e-01  -1.29365265e+00   6.18615100e-01
C     7.478992299074999e+00   2.963074058773429e+00   3.485182784000000e+00 -7.29645900e-01   7.85971250e-01  -5.87888500e-02
C     8.685761199374999e+00   3.713765666818608e+00   3.475621304000000e+00  4.09332990e-01  -3.34011290e-01   4.53181980e-01
C     2.420104449675000e+00   4.188237662722113e+00   1.355325272000000e+01  1.01931821e+00  -8.98707230e-01  -4.32577340e-01
C     3.677803565400000e+00   4.891721372676138e+00   1.350523656000000e+01  5.30280000e-04  -1.13966603e+00   5.63360740e-01
C     3.786224026799999e+00   5.139887261347239e+00   3.429259176000000e+00 -3.74109290e-01  -5.12259250e-01   4.42343960e-01
C     5.010806151000000e+00   5.846884283120681e+00   3.449461160000000e+00  3.11848490e-01  -2.90161810e-01   2.05453140e-01
C     4.915194495149999e+00   4.156715457237143e+00   1.354817706400000e+01 -5.95802780e-01  -1.60470350e-01  -2.31182600e-01
C     6.133520005650000e+00   4.885500532761249e+00   1.349755283200000e+01  1.85900220e-01  -4.69472690e-01   4.42511220e-01
C     6.240791173125000e+00   5.103936127296607e+00   3.486079704000000e+00 -2.61057430e-01  -2.03660920e-01  -8.43833300e-02
C     7.463694928124999e+00   5.843290533822542e+00   3.481427960000000e+00 -4.23154710e-01  -2.91758620e-01   3.46964790e-01
C     7.363201389075000e+00   4.191833781595661e+00   1.352213619200000e+01 -6.14471800e-02  -1.61213875e+00  -5.11768630e-01
C     8.587997857349999e+00   4.893251349878892e+00   1.347214422400000e+01  1.57297620e-01  -1.23344329e+00   8.30737660e-01
C     8.690631657299999e+00   5.146062374861009e+00   3.516231856000000e+00  2.57405430e-01  -1.10653751e+00  -7.57348420e-01
C     9.939594615824999e+00   5.818027401671886e+00   3.442469808000000e+00 -2.50073870e-01   7.19895480e-01   2.15496320e-01
C     7.441940317125000e+00   9.713664513412860e-02   6.921745568000000e+00 -2.24873030e-01  -1.42925300e-02   3.60923900e-02
C     1.275337078125000e+00   8.212437945469758e-01   6.930797864000000e+00 -5.38578980e-01  -4.88729550e-01  -1.01459630e-01
C     1.162322842725000e+00   5.758021490843622e-01   1.006676447200000e+01 -8.77504060e-01   3.78767570e-01   3.47162020e-01
C     2.382127316250000e+00   1.280126481925091e+00   1.012241200000000e+01  6.51941000e-03   6.92143440e-01   5.88666800e-02
C     2.497905987524999e+00   1.131609948959490e-01   6.864897296000000e+00  2.68843010e-01  -1.90871400e-01   2.21636250e-01
C     3.750691754325000e+00   7.822439135420910e-01   6.850903031999999e+00 -7.91785500e-02   5.36875990e-01   1.80522800e-01
C     3.597114095175000e+00   5.755313770620414e-01   1.016404785600000e+01  1.10178489e+00   2.79683430e-01  -6.12404850e-01
C     4.843759645575000e+00   1.303531930998297e+00   1.008567350400000e+01  1.51078200e-01  -3.15106010e-01   5.53533720e-01
C     4.998978403125000e+00   1.036760328349746e-01   6.880479224000000e+00 -4.95066360e-01  -4.53735630e-01   1.36334660e-01
C     6.220246716899999e+00   8.310084305486966e-01   6.940548928000000e+00 -1.50136800e-01  -3.31739690e-01  -5.85428790e-01
C     6.101311526850000e+00   5.929827876028056e-01   1.006160653600000e+01 -7.38603300e-01   3.17545810e-01   1.76549500e-02
C     7.325417523974999e+00   1.333681511896134e+00   1.004892657600000e+01  2.54849400e-01  -1.56071111e+00  -1.55542040e-01
C     8.653144627500000e+00   2.230133708622019e+00   6.978743984000000e+00 -7.23478000e-02   1.21522030e-01  -8.64934790e-01
C     2.496862331175000e+00   2.897273127135387e+00   6.904564552000000e+00  2.27379990e-01   1.20826829e+00   4.75571390e-01
C     2.393110629075000e+00   2.708357767077963e+00   1.011637509600000e+01 -3.26171270e-01   6.39359030e-01   2.67478600e-02
C     3.614941813275000e+00   3.447093778464937e+00   1.008887698400000e+01  1.38631280e-01  -9.45081550e-01   1.20885110e-01
C     3.734060177475000e+00   2.194973244246783e+00   6.883433552000000e+00  1.54044100e-01   6.66380020e-01  -9.07989900e-02
C     4.956233010675000e+00   2.937785181506175e+00   6.898489976000000e+00  6.83741600e-02   1.32546130e-01  -5.92215500e-02
C     4.851109055400000e+00   2.739308200421192e+00   1.009548740000000e+01 -3.22766300e-02  -9.82643390e-01  -3.59710980e-01
C     6.090310983675000e+00   3.427431297898007e+00   1.003751345600000e+01 -3.11486120e-01   2.67344900e-01   5.50400200e-02
C     6.202439187150000e+00   2.261976447212882e+00   6.900425528000000e+00 -1.60615520e-01  -1.05963525e+00   2.18713180e-01
C     7.427052259425000e+00   2.956632271962369e+00   6.917237983999999e+00 -1.13480060e-01   6.23805130e-01   1.01922890e-01
C     7.330301034074999e+00   2.744129005525308e+00   1.000654040800000e+01 -2.90319840e-01  -4.86229200e-01   9.07377380e-01
C     8.554435538925000e+00   3.439465026502105e+00   1.011369916000000e+01  3.60350220e-01   1.06035590e-01  -5.27896210e-01
C     9.889245832274998e+00   4.331612857477706e+00   6.935954712000000e+00 -2.66514700e-02   6.53887160e-01  -5.92785330e-01
C     3.727570658249999e+00   5.066784451067539e+00   6.899119656000000e+00 -3.69536360e-01   2.18202700e-02   3.14110240e-01
C     3.626281639050000e+00   4.852603397156315e+00   1.003529611200000e+01 -8.03672960e-01   1.88237580e-01   5.20481660e-01
C     4.847450231250000e+00   5.551492372308683e+00   1.007547024000000e+01  9.54394000e-02   6.65169530e-01  -3.18446770e-01
C     4.955530152900000e+00   4.359481561938703e+00   6.920643016000000e+00 -5.02298500e-02   4.28198850e-01  -3.87567060e-01
C     6.176588115900000e+00   5.110451627115634e+00   6.893309056000001e+00 -1.35134600e-01  -1.26019099e+00  -2.08892320e-01
C     6.070261215975000e+00   4.840918124222381e+00   1.005551156000000e+01  1.83823660e-01   2.69846460e-01   4.82159030e-01
C     7.283780605050000e+00   5.562623997150621e+00   1.012712467200000e+01  1.03575418e+00  -4.94835800e-02  -1.29366100e-01
C     7.394051258475001e+00   4.388881524454027e+00   6.882876768000000e+00  1.48527201e+00  -8.63000900e-02   1.48409970e-01
C     8.661648803549999e+00   5.082670084604112e+00   6.899012352000000e+00  5.48058200e-02  -5.92986820e-01  -3.46572000e-03
C     8.535179550524999e+00   4.864936780985682e+00   1.011151554400000e+01  5.41274620e-01  -3.55384500e-02  -2.11193000e-02
C     9.789664910174999e+00   5.562903030665581e+00   1.006404787200000e+01 -4.85091570e-01   5.96307230e-01   2.00724640e-01
