72
Lattice="7.395 0 0 3.6975 6.40425786098592 0 0 0 13.6 " PBC="1 1 1" Properties=species:S:1:pos:R:3:force:R:3 Energy="-574.4864314"
C     3.670900887525000e+00   6.167762386384600e+00   1.354853501600000e+01  1.48388548e+00   2.55441848e+00   7.40810870e-01
C     1.212583884600000e+00   6.082844809077036e-01   6.010751199999999e-02 -1.54890110e-01  -3.12422493e+00  -9.35119980e-01
C     1.454651296950000e+00   9.856315514689645e-01   3.733589368000000e+00 -1.92525106e+00   6.45766860e-01  -4.93321670e-01
C     2.596264590075000e+00   1.829749946155131e+00   3.887089576000000e+00  6.39582860e-01  -2.69985206e+00  -6.65880790e-01
C     6.109915794225000e+00   6.203872025817266e+00   1.346656482400000e+01  1.42746315e+00   1.75428911e+00   9.08964160e-01
C     3.666292249575000e+00   5.486258089406094e-01   1.347474821600000e+01  1.39596460e-01  -2.86646930e-01   1.94569420e-01
C     3.785512295025000e+00   1.014516099311715e+00   3.754655495999999e+00  2.23600608e+00   1.59228900e-01  -1.01453467e+00
C     5.076914049299999e+00   1.686368411184257e+00   3.539523216000000e+00 -1.79985191e+00   8.13726610e-01   1.75228359e+00
C     8.660843044349999e+00   6.270551429505964e+00   1.334502516000000e+01 -3.33299347e+00  -2.29945718e+00   1.30264945e+00
C     6.181622631900001e+00   5.453604699855312e-01   1.346977170400000e+01 -2.73939610e-01  -1.45406510e+00  -4.71166700e-02
C     6.289847902275000e+00   1.021415534389450e+00   3.483022152000000e+00  1.85521426e+00  -2.74497320e-01   1.22171850e-01
C     7.564821294300000e+00   1.622583411835386e+00   3.669973736000000e+00  2.72357200e-01   4.44817850e+00   2.07838380e-01
C     1.212284239200000e+00   2.052211641436757e+00   1.079330000000000e-01 -1.24646085e+00  -4.30376444e+00  -4.93071360e-01
C     2.410140685500000e+00   2.731377935998312e+00   1.501023840000000e-01  1.85778837e+00  -3.10060564e+00  -1.96022890e-01
C     2.580391925100000e+00   3.261562108047844e+00   3.852874831999999e+00  3.48347411e+00  -4.25322061e+00  -8.67063660e-01
C     3.886770624975000e+00   3.792541112540380e+00   3.569484696000000e+00 -1.76878438e+00   4.11465370e+00   7.88641470e-01
C     3.628332272550000e+00   1.956895150429019e+00   1.006349680000000e-01  2.43357074e+00   2.67778990e-01  -1.47244774e+00
C     4.951567172400000e+00   2.666770629940217e+00   1.350486800000000e+01 -2.21878008e+00  -1.74425304e+00   4.56745060e-01
C     5.110513749450000e+00   3.104978259541158e+00   3.664920248000000e+00 -1.85004229e+00  -6.46989420e-01  -1.41417234e+00
C     6.274228663950000e+00   3.857938511890664e+00   3.619285584000000e+00  3.22144294e+00  -3.61207561e+00   6.50172730e-01
C     6.204109532775000e+00   1.966501857431912e+00   1.346017568000000e+01 -6.13888616e+00  -3.76983985e+00   6.56310200e-02
C     7.324762474875000e+00   2.594168056241962e+00   1.350345047200000e+01  5.90851889e+00   4.11614224e+00  -5.32187700e-02
C     7.549134280800000e+00   3.165316231139462e+00   3.775540880000000e+00 -1.03916417e+00  -2.99340715e+00  -5.94041120e-01
C     8.767157927400000e+00   3.872392281454898e+00   3.815825848000000e+00 -9.42051660e-01   1.19009182e+00  -1.02940528e+00
C     2.470175624925000e+00   4.066955492476477e+00   3.110700800000000e-02 -2.77265479e+00   3.33056030e+00  -1.77343100e-01
C     3.686996696625000e+00   4.737293389492865e+00   3.459214400000000e-02  3.55337550e-01   2.03469844e+00  -1.18154638e+00
C     3.902311735125000e+00   5.286551362726835e+00   3.407408192000000e+00  1.33244660e-01  -1.77254360e-01   7.39297020e-01
C     5.183803856625000e+00   5.971836157162676e+00   3.499669504000000e+00 -2.70940183e+00   2.78602150e-01   6.04629220e-01
C     4.911705977850000e+00   4.047804263814512e+00   1.345694826400000e+01  9.43297640e-01   1.35609282e+00   1.03675374e+00
C     6.150145851374999e+00   4.787949019802949e+00   1.341012332800000e+01 -7.14254500e-01  -1.32284302e+00  -1.02447934e+00
C     6.331328379975000e+00   5.197758633030764e+00   3.612732016000000e+00  6.02754030e-01   3.64824738e+00   9.29398200e-02
C     7.536289535550001e+00   5.950537580840253e+00   3.692693216000000e+00  1.18572644e+00   7.95071180e-01  -6.60790480e-01
C     7.366896115949999e+00   3.965415407722969e+00   1.329887668800000e+01 -6.75789740e-01   5.38070176e+00   1.76480398e+00
C     8.551381699724999e+00   4.770381500067183e+00   1.346704653600000e+01  2.97680408e+00   6.76347170e-01  -8.72367260e-01
C     8.818867464900000e+00   5.243357269206857e+00   3.571712240000000e+00 -1.24159910e+00   3.86578951e+00   4.88932340e-01
C     1.004383915770000e+01   6.059645641149501e+00   3.415108240000000e+00 -3.72958360e-01  -5.34329669e+00   5.16974050e-01
C     7.428021522074999e+00   1.689515591581818e-01   6.961987560000000e+00 -2.99949800e-02  -4.40641300e-01   6.23317200e-02
C     1.227652491225000e+00   8.949857497611030e-01   7.047025368000000e+00  1.22077875e+00   1.21006287e+00  -8.69229250e-01
C     1.064962787025000e+00   4.129965640666867e-01   9.825100495999999e+00  2.15674106e+00   3.20017980e-01   1.10682070e-01
C     2.264311655250000e+00   1.136713502048124e+00   1.000933942400000e+01  2.41115314e+00  -2.77699710e-01   1.28994860e-01
C     2.482406030550000e+00   2.318390017679736e-01   6.910007543999999e+00 -2.19435900e-01  -2.95324675e+00   9.46708900e-02
C     3.782405655525000e+00   8.638497850676695e-01   6.864486440000000e+00 -1.57320319e+00  -3.10358340e-01   6.82704930e-01
C     3.564982043700000e+00   3.607784869664976e-01   1.004485160800000e+01 -1.60817731e+00   2.87794102e+00  -4.67426560e-01
C     4.811956264875000e+00   1.122944667862017e+00   9.929134784000000e+00 -2.27460751e+00  -1.01995161e+00   4.29177360e-01
C     5.024667265050000e+00   1.517044444431516e-01   6.924942655999999e+00 -4.79170410e-01   1.37747168e+00  -4.10854320e-01
C     6.265998620550000e+00   9.188224615586016e-01   6.988748824000000e+00 -2.93144272e+00  -7.17877970e-01  -6.75040540e-01
C     6.002965643699999e+00   5.004937764402576e-01   9.745653376000000e+00  1.89102852e+00  -3.86332847e+00   2.80889700e-01
C     7.290690862800000e+00   1.092044187730096e+00   9.651792024000001e+00 -3.09023848e+00   4.00092079e+00   1.38111427e+00
C     8.580301548074999e+00   2.337068612111633e+00   7.119277952000000e+00  2.03251766e+00   4.01383780e-01  -6.44106920e-01
C     2.512336257750000e+00   2.986105627272768e+00   7.120461968000000e+00 -3.06890483e+00   2.54498910e-01  -1.48765148e+00
C     2.300100312375000e+00   2.608154827323045e+00   1.004174849600000e+01  1.30024087e+00  -4.07707755e+00  -7.83578300e-02
C     3.560391153750000e+00   3.199320406758076e+00   9.992041448000000e+00 -5.18350880e-01   3.46613814e+00  -5.97509340e-01
C     3.700966923899999e+00   2.273223861036929e+00   6.933753144000000e+00  2.10681576e+00   9.12622870e-01   5.52540980e-01
C     4.937614545224999e+00   3.032136038513782e+00   6.957343567999999e+00 -5.52280030e-01  -1.64021909e+00  -3.51689590e-01
C     4.787050311600000e+00   2.488441380040216e+00   9.902860672000001e+00 -1.04507992e+00   2.84281142e+00  -3.95349440e-01
C     5.933077606274999e+00   3.252858145232897e+00   9.648831439999999e+00  3.63434774e+00   1.19344440e-01   2.02980347e+00
C     6.199668724349999e+00   2.330026298041042e+00   6.993842160000000e+00 -5.15523930e-01   2.06946681e+00  -5.08582430e-01
C     7.389792773775000e+00   3.153915819595141e+00   7.038796688000000e+00  8.62530980e-01  -3.66237710e+00  -3.92788760e-01
C     7.255779548474999e+00   2.550647409613704e+00   9.699036383999999e+00  2.42982720e-01   5.54122620e-01   7.76219000e-01
C     8.538466738950000e+00   3.305766729415551e+00   9.906560144000000e+00 -4.03842436e+00  -3.76339950e-01  -1.14678010e-01
C     9.836059402349999e+00   4.414760041742451e+00   6.987109751999999e+00  1.90477167e+00  -8.37605890e-01   3.21101350e-01
C     3.639703009425000e+00   5.154434853289121e+00   6.949198528000000e+00  1.58153779e+00  -1.80711850e-01  -2.45042770e-01
C     3.482895251250000e+00   4.661994495150393e+00   9.770857440000000e+00  2.57603890e+00   9.06257050e-01   8.57958390e-01
C     4.794934416899999e+00   5.438939974037170e+00   9.719874984000000e+00 -2.45202458e+00  -2.93611814e+00   1.14462813e+00
C     4.881292894125000e+00   4.441045997915928e+00   6.959230568000001e+00  2.85053670e-01  -2.82472120e-01  -5.42199140e-01
C     6.097605337725000e+00   5.123326426904486e+00   6.898684183999999e+00  2.95415463e+00   4.33507048e+00   4.65693100e-02
C     5.981988062325000e+00   4.705160409935786e+00   9.785760048000000e+00  5.25748470e-01  -1.18823341e+00   5.58900400e-02
C     7.241310713324999e+00   5.378170931842309e+00   9.955647711999999e+00 -4.86578810e-01  -3.40279770e-01  -2.23127550e-01
C     7.440702985724998e+00   4.552165507533845e+00   6.939597335999999e+00 -4.70835933e+00  -2.86259936e+00   4.03507400e-02
C     8.657999703824999e+00   5.131428581608329e+00   6.954192311999999e+00  8.59163000e-01   3.09437598e+00  -2.90621380e-01
C     8.499792146099999e+00   4.712072205231191e+00   9.951757704000000e+00 -1.70922460e+00  -2.65257970e-01  -3.21910730e-01
C     9.653343298650000e+00   5.448875539681174e+00   9.814745320000000e+00  2.83756380e+00  -4.44396500e-01   3.91286920e-01
