72
Lattice="7.395 0 0 3.6975 6.40425786098592 0 0 0 13.6 " PBC="1 1 1" Properties=species:S:1:pos:R:3:force:R:3 Energy="-578.34255524"
C     3.705352565625000e+00   6.299518848445423e+00   1.314717494400000e+01 -1.43333204e+00  -5.10784000e-01  -1.93531950e-01
C     1.167342605700000e+00   6.305866684793676e-01   1.309748720800000e+01  2.09840597e+00  -7.52776000e-02   6.19184630e-01
C     1.331009004525000e+00   8.618335966081844e-01   3.649661048000000e+00 -4.36661270e-01   2.62321910e-01   1.84620890e-01
C     2.551102548600000e+00   1.573058901548534e+00   3.606011440000000e+00 -1.39823154e+00   2.61618301e+00  -1.72278590e-01
C     6.065928485474999e+00   6.342220774748859e+00   1.319643387200000e+01  4.08455221e+00  -1.76249290e+00  -2.16181870e-01
C     3.667170442800000e+00   6.551920833478020e-01   1.315168280000000e+01  2.49497820e-01  -5.82656290e-01   1.09452592e+00
C     3.714924801525000e+00   8.532946715182890e-01   3.652622312000000e+00  2.60188966e+00   2.42396810e-01   6.02310060e-01
C     4.948092372824999e+00   1.565442765973687e+00   3.752386335999999e+00  2.13150198e+00   6.55086480e-01  -8.65668240e-01
C     8.652481332975000e+00   6.300869122172625e+00   1.325768364800000e+01 -2.28139141e+00   1.33408770e+00  -1.02952074e+00
C     6.200347696274999e+00   6.392352985064046e-01   1.319509699200000e+01 -2.34878611e+00  -2.87604301e+00   4.35851770e-01
C     6.255576070575000e+00   8.996097520211802e-01   3.762519832000000e+00 -1.54083182e+00  -2.74313416e+00   1.30316540e-01
C     7.489938341099999e+00   1.568484212073979e+00   3.663960632000000e+00 -8.78101740e-01  -1.23150648e+00   1.03871050e-01
C     1.236428063775000e+00   2.036118573988098e+00   1.308287332800000e+01 -1.43144369e+00   5.18056180e-01   7.25290220e-01
C     2.440691316225000e+00   2.755604154758856e+00   1.307445193600000e+01  5.46994800e-02   1.19645487e+00   2.92471030e-01
C     2.557033079775000e+00   3.098613644037312e+00   3.603101176000000e+00 -7.14898920e-01  -3.41272007e+00   5.93395950e-01
C     3.816521526674999e+00   3.758371835154136e+00   3.768040344000000e+00 -1.82293768e+00  -2.23212864e+00  -1.16607801e+00
C     3.688441790550000e+00   2.120405588066766e+00   1.313896924800000e+01 -7.36451850e-01  -3.59677099e+00   7.57397600e-02
C     4.921614649275000e+00   2.748070826238138e+00   1.322468229600000e+01  4.03204730e-01  -4.84747660e-01   2.21171680e-01
C     4.993646571150000e+00   3.000094831971837e+00   3.707115336000000e+00 -4.63633100e-02  -9.61378180e-01   7.17843500e-01
C     6.239341716150000e+00   3.665175601796109e+00   3.736313720000000e+00 -6.23159380e-01  -3.02826500e-02  -3.39794390e-01
C     6.121184591025000e+00   2.007044267984956e+00   1.325293643200000e+01  2.41213646e+00   2.18898406e+00  -4.54253000e-02
C     7.400884940999999e+00   2.746821931912859e+00   1.322459090400000e+01 -1.16994192e+00  -1.45978679e+00  -1.77502800e-02
C     7.411383437624999e+00   2.927872158849838e+00   3.646025632000000e+00  3.52709746e+00   3.23263070e+00  -2.10024510e-01
C     8.668065703875000e+00   3.724400449335767e+00   3.612132800000000e+00  4.02049010e-01  -3.16252800e-02   6.09693670e-01
C     9.795103045274999e+00   4.186760328518969e+00   1.308367668000000e+01  2.42411548e+00  -4.07945970e-01   2.07607380e-01
C     3.702151381049999e+00   4.873968641803061e+00   1.306810536000000e+01 -7.21300790e-01  -3.72550060e-01   1.40331276e+00
C     3.785465447700000e+00   5.120278576546333e+00   3.784925424000000e+00  7.56739380e-01   2.50323375e+00   3.39843980e-01
C     4.989919639049999e+00   5.869530891680056e+00   3.773354272000000e+00  2.84061035e+00  -2.19953251e+00  -5.59357920e-01
C     4.955802621675000e+00   4.130948886376112e+00   1.323708984800000e+01 -1.64834508e+00   2.15565192e+00  -6.21232030e-01
C     6.158192129025000e+00   4.850858300932043e+00   1.326749278400000e+01 -6.57009400e-01   1.97291282e+00   3.33214220e-01
C     6.292201139174999e+00   5.059830003414787e+00   3.751989896000000e+00 -1.74274957e+00   3.68178804e+00  -2.64136910e-01
C     7.510186886400000e+00   5.858329204257130e+00   3.709662752000000e+00 -2.91064131e+00  -1.22194782e+00   6.56634000e-02
C     7.379556873599999e+00   4.129367098727271e+00   1.330203964000000e+01  1.98551900e-02   2.07014800e+00  -6.94454950e-01
C     8.583932603999999e+00   4.878308807354783e+00   1.316055136000000e+01  6.39685520e-01   6.67129620e-01   9.96274070e-01
C     8.702035006125000e+00   5.166006450646041e+00   3.750668520000000e+00  1.40283501e+00  -1.62753789e+00  -4.14662590e-01
C     9.971241999000000e+00   5.813091704181763e+00   3.825441184000000e+00 -1.58931527e+00   2.53420594e+00  -8.12826810e-01
C     7.380287647499999e+00   8.820187286590681e-02   6.974894640000000e+00  4.49364153e+00  -1.30461166e+00  -5.81486820e-01
C     1.259715732225000e+00   8.678986849719186e-01   6.881536216000000e+00  2.27576200e-02  -3.86542322e+00   4.92139510e-01
C     1.122112899975000e+00   5.889921024025039e-01   1.023915875200000e+01  3.36487740e+00  -2.27415826e+00  -2.76936220e-01
C     2.446015827150000e+00   1.299947531916634e+00   1.015462278400000e+01 -4.59852641e+00  -6.19952010e-01  -8.38334800e-02
C     2.557492679025000e+00   9.559385941565461e-02   6.846903952000000e+00 -3.76879831e+00   3.53171830e-01   2.84440290e-01
C     3.780957196875000e+00   7.588104778620366e-01   6.818303832000000e+00 -7.66346580e-01   1.56412839e+00   4.09076960e-01
C     3.586306080825000e+00   5.505975518505463e-01   1.020197784800000e+01  1.28308886e+00   5.35434100e-01   1.91562980e-01
C     4.823614334475000e+00   1.227179087939805e+00   1.022972348000000e+01  9.66631420e-01   1.48729107e+00  -2.82203930e-01
C     4.997554089149999e+00   9.241920475187401e-02   6.946482336000000e+00  8.79158670e-01  -6.84756570e-01  -1.37659940e-01
C     6.240021686399999e+00   8.000802199802413e-01   7.006848247999999e+00 -3.01460991e+00   1.22327205e+00  -6.11953640e-01
C     6.064330832700000e+00   5.576549799696876e-01   1.025935176000000e+01  1.28613788e+00   1.05007339e+00  -5.46686900e-02
C     7.347482503125000e+00   1.269931351710021e+00   1.027189844000000e+01 -3.31645625e+00   1.42320348e+00  -9.50804880e-01
C     8.638725264900000e+00   2.239017182784782e+00   6.916912808000000e+00 -8.90106580e-01   1.36550982e+00  -8.89945450e-01
C     2.482676798475000e+00   2.881338693153921e+00   6.831373839999999e+00  4.15940450e-01   1.85061384e+00   5.51606820e-01
C     2.375006227050000e+00   2.699653035752072e+00   1.008752623200000e+01 -2.94161970e-01   4.35251500e-01   6.20344640e-01
C     3.576049585575000e+00   3.424764180669632e+00   1.015977432800000e+01  1.95665251e+00  -1.39763128e+00  -3.32679750e-01
C     3.710320415700000e+00   2.188123826422935e+00   6.807465311999999e+00  2.05467469e+00   5.43646250e-01   5.32912980e-01
C     4.995979323899999e+00   2.919782108193350e+00   6.898079527999999e+00 -3.48736078e+00   1.18032840e+00  -2.04886510e-01
C     4.863144787650000e+00   2.646392409514854e+00   1.021292557600000e+01 -1.59339375e+00   1.92378778e+00  -4.93611500e-02
C     6.103273309424999e+00   3.387222293009155e+00   1.025725858400000e+01 -2.11691704e+00   3.71782190e-01  -5.13076240e-01
C     6.184615684200000e+00   2.237615931165014e+00   6.918025967999999e+00  1.89866623e+00   4.32261310e-01   2.00648390e-01
C     7.398229026750000e+00   3.036365090191633e+00   6.868116008000000e+00  8.20026930e-01  -4.61886236e+00   6.44898900e-01
C     7.300655625300000e+00   2.719344847820000e+00   1.018214741600000e+01  9.83103050e-01  -1.97386790e+00   6.65085840e-01
C     8.506984375200000e+00   3.407527953192964e+00   1.016925896800000e+01  2.09733317e+00   1.13459653e+00  -2.08212170e-01
C     9.873934743600000e+00   4.334415424759821e+00   6.916251576000000e+00  1.17830338e+00  -1.43228474e+00  -4.63497510e-01
C     3.719353149374999e+00   5.002679046697933e+00   6.905562927999999e+00 -2.61639526e+00   4.17404008e+00   6.83877600e-01
C     3.574233151725000e+00   4.833674396242092e+00   1.017098208800000e+01  9.25660700e-01   7.54591100e-02   3.80198330e-01
C     4.801390584675000e+00   5.505604391762476e+00   1.026221279200000e+01  1.61836483e+00   1.85095635e+00  -6.28975870e-01
C     4.917561153975000e+00   4.404808785666689e+00   6.937119144000000e+00  2.63644773e+00  -4.01935567e+00  -3.77047220e-01
C     6.126624796725000e+00   5.090774993138836e+00   6.914671120000000e+00  3.30196042e+00   6.52224500e-01  -3.61152280e-01
C     6.080871488025000e+00   4.812614634695268e+00   1.026781667200000e+01 -1.76788810e+00   4.71773080e-01   3.81187600e-02
C     7.255470178649999e+00   5.578308793160704e+00   1.030117543200000e+01  2.51845575e+00  -2.81517265e+00  -6.10727610e-01
C     7.432481520525000e+00   4.385643915935483e+00   6.864610744000000e+00 -1.52000496e+00   2.19285514e+00   4.22880010e-01
C     8.698051319625000e+00   5.074438756019233e+00   6.916299992000000e+00 -1.66271204e+00   3.64493560e-01   3.51119900e-02
C     8.569502444699999e+00   4.843477073535501e+00   1.026832191200000e+01 -2.88025057e+00   2.96570340e-01  -5.88436800e-01
C     9.771181255575000e+00   5.582911213071793e+00   1.021545640000000e+01 -3.44348430e-01  -1.89738061e+00  -4.67678200e-02
