72
Lattice="7.395 0 0 3.6975 6.40425786098592 0 0 0 13.6 " PBC="1 1 1" Properties=species:S:1:pos:R:3:force:R:3 Energy="-575.8955014"
C     3.693843246450000e+00   6.181838496862829e+00   1.356711547200000e+01  6.24735040e-01   1.04910768e+00  -5.42658000e-03
C     1.267430676900000e+00   5.214172553798208e-01   5.609877600000000e-02 -2.12717462e+00   1.17349402e+00  -6.49681180e-01
C     1.426233458175000e+00   1.005640054088069e+00   3.712126936000000e+00 -1.03192460e-01   1.02286957e+00  -4.16867750e-01
C     2.588784436650000e+00   1.839018764513330e+00   3.863665344000000e+00  1.70812464e+00  -4.21122083e+00  -1.27002780e+00
C     6.186614700600000e+00   6.237998586803584e+00   1.348268504000000e+01 -1.97430695e+00  -1.08226038e+00   1.02858911e+00
C     3.701271450000000e+00   5.234645685325057e-01   1.351089388800000e+01 -2.03965773e+00   5.95473700e-01  -3.02611130e-01
C     3.829872607575000e+00   1.073640335960392e+00   3.705656872000000e+00 -1.08949231e+00  -3.02032610e+00  -4.24412700e-02
C     5.086226868600000e+00   1.670745096049630e+00   3.590205656000000e+00 -1.28713903e+00   5.06535010e-01   3.84270810e-01
C     8.568609313574999e+00   6.259163186051576e+00   1.341575114400000e+01  3.21125782e+00  -3.10208017e+00   2.62770280e-01
C     6.132086891625000e+00   5.088497318830927e-01   1.350032587200000e+01  7.40794060e-01  -1.64828285e+00   2.50637560e-01
C     6.287742656700000e+00   9.889070731940400e-01   3.490053896000000e+00  3.09632096e+00   3.80922230e-01   3.83609160e-01
C     7.575763416975000e+00   1.663679598565585e+00   3.633672072000000e+00 -1.57236947e+00   1.65601140e+00   1.00067880e-01
C     1.191143672025000e+00   2.037194233138264e+00   1.178395120000000e-01  1.66326703e+00  -4.39102853e+00  -7.40884560e-01
C     2.422735701600000e+00   2.690308198853075e+00   1.382197920000000e-01  7.30714570e-01   4.39251030e-01  -9.90211600e-01
C     2.591355973950000e+00   3.215281610537397e+00   3.776385304000000e+00  1.84942643e+00  -2.69953920e-01  -2.15720060e-01
C     3.848257169175000e+00   3.858327186300187e+00   3.638524416000000e+00  1.87817390e+00   9.64145490e-01  -7.49835000e-01
C     3.637451971425000e+00   1.891918638905295e+00   5.313791999999999e-03  2.20950072e+00   3.96564308e+00   7.70192660e-01
C     4.969617110250000e+00   2.605279379586483e+00   1.359994750400000e+01 -3.78617795e+00   1.74172449e+00  -6.76439760e-01
C     5.060989249575000e+00   3.040672145730219e+00   3.634637264000000e+00  8.88491630e-01   5.37283317e+00  -1.38016520e-01
C     6.343443127799999e+00   3.857076626867865e+00   3.642404223999999e+00 -2.25088825e+00  -5.16854312e+00   2.62191500e-02
C     6.146228867774999e+00   1.890881661472604e+00   1.354626871200000e+01  7.51133100e-01   1.19264991e+00  -2.67465480e-01
C     7.368916392974999e+00   2.631993140185009e+00   1.350632442400000e+01 -1.14374134e+00   7.51688420e-01   7.64446300e-01
C     7.544562728774999e+00   3.118886450378299e+00   3.737880984000000e+00  1.80274722e+00   1.25656800e-01  -7.02231980e-01
C     8.797448291100000e+00   3.862734916772331e+00   3.714837960000000e+00 -2.80320116e+00   2.42178125e+00  -3.54264900e-02
C     2.424302813025000e+00   4.146952102086995e+00   6.114151999999999e-03  4.59771160e-01  -3.05811962e+00  -1.71484800e-01
C     3.690046690425000e+00   4.750529453467598e+00   1.357206056800000e+01 -5.63115690e-01   2.68460997e+00  -2.30477910e-01
C     3.937279510275000e+00   5.347754805732340e+00   3.415103208000000e+00 -2.15106085e+00  -2.90092418e+00   1.37680635e+00
C     5.166503106225000e+00   6.006362920222665e+00   3.506671192000000e+00 -6.94751580e-01  -5.48537520e-01   5.98576840e-01
C     4.915890882299999e+00   4.103541288481034e+00   1.351907918400000e+01  5.26009160e-01  -3.01331164e+00   8.14241180e-01
C     6.121175901899999e+00   4.812932862268331e+00   1.348433784800000e+01  1.17095230e+00  -7.27275900e-01  -6.79709640e-01
C     6.326441246325000e+00   5.188794593304122e+00   3.621012648000000e+00  1.38432477e+00   4.51599136e+00  -1.55055270e-01
C     7.563662497799999e+00   5.939327055541480e+00   3.648648528000000e+00 -1.28208503e+00   3.61971668e+00   2.10484560e-01
C     7.334701761600000e+00   4.022947417782493e+00   1.343223257600000e+01  1.04935680e+00   2.71960017e+00   1.71762310e-01
C     8.596060145175000e+00   4.789091795575487e+00   1.342118828800000e+01 -1.49935714e+00   8.20009740e-01   6.07097530e-01
C     8.812229786849999e+00   5.355865734269450e+00   3.620107840000000e+00 -2.77890980e-01  -4.13638525e+00  -2.63368420e-01
C     1.004185600357500e+01   6.014471863439840e+00   3.459761528000000e+00  8.74609180e-01  -4.66710240e-01   1.79925440e-01
C     7.442428091325000e+00   1.948265541047826e-01   7.013222703999999e+00 -9.49894040e-01  -1.35838863e+00  -2.34273980e-01
C     1.239270960600000e+00   9.434605381421221e-01   7.050250743999999e+00  1.22083666e+00  -2.72255160e+00  -1.12209816e+00
C     1.095856804575000e+00   4.091809072336986e-01   9.801699656000000e+00 -1.54804511e+00  -9.37011440e-01   1.90912550e-01
C     2.271541524900000e+00   1.098705000159967e+00   9.970422072000000e+00  2.19352819e+00   9.84072780e-01   4.52673760e-01
C     2.508844893375000e+00   2.196061647870090e-01   6.858295856000000e+00 -2.33301605e+00  -4.83039000e-03   6.67557950e-01
C     3.750726436875000e+00   8.461540520895462e-01   6.808926359999999e+00  1.31778840e+00   9.77481220e-01   7.91403240e-01
C     3.491617062150000e+00   3.444439149539388e-01   1.008441958400000e+01  2.22522886e+00   2.41893994e+00  -1.28876353e+00
C     4.835779922925000e+00   1.155085204443370e+00   9.902225280000000e+00 -4.41911194e+00  -2.11867655e+00   1.31412470e+00
C     5.032402767824999e+00   1.651496074370142e-01   6.927099616000000e+00 -1.48379521e+00   1.54231584e+00  -3.51842850e-01
C     6.255299201775000e+00   9.108904679860986e-01   7.047655184000000e+00 -1.86225178e+00   1.75958273e+00  -1.33708249e+00
C     6.007653297225000e+00   4.856848907776867e-01   9.771094760000000e+00  1.58931681e+00  -3.17068759e+00   4.08009320e-01
C     7.279983198599999e+00   1.145492586807769e+00   9.688584784000000e+00 -5.81241110e-01   4.92966580e-01   8.26218730e-01
C     8.611970894400001e+00   2.301634045499990e+00   7.125959631999999e+00 -4.02477570e-01   2.83779733e+00  -1.34510631e+00
C     2.486167090575000e+00   2.906476686105993e+00   7.027036632000000e+00 -2.56387490e-01   4.12944974e+00  -3.20982900e-01
C     2.315621677875000e+00   2.547814294021597e+00   9.980591879999999e+00 -3.59308430e-01   5.22658020e-01  -1.70635400e-01
C     3.565441864799999e+00   3.250032522622485e+00   9.897953928000000e+00 -1.59754648e+00  -3.85584690e-01   5.32323900e-01
C     3.743647277325000e+00   2.273990899000821e+00   6.879444127999999e+00 -2.32943936e+00  -1.78480713e+00   2.72463480e-01
C     4.914973088850000e+00   2.970154542220866e+00   6.915881927999999e+00  9.39102870e-01   4.54062091e+00  -8.42312200e-02
C     4.782498541199999e+00   2.535860298427857e+00   9.899957888000001e+00 -9.65371700e-02   3.73447090e-01  -8.35540190e-01
C     5.960576098650000e+00   3.213320882950979e+00   9.687846984000000e+00  3.00538696e+00   2.74655006e+00   1.20305204e+00
C     6.166943445975000e+00   2.434668989557405e+00   6.969792463999999e+00  1.31053901e+00  -4.72528374e+00   3.51735400e-02
C     7.364068378875000e+00   3.155823007585849e+00   7.010557240000000e+00  1.75757233e+00  -3.48844761e+00   5.01077300e-02
C     7.281391428450000e+00   2.579968343587035e+00   9.667365247999999e+00 -1.33239125e+00  -2.79005140e-01   1.77005507e+00
C     8.492808936674999e+00   3.336805413432091e+00   9.926895544000001e+00  2.88633910e-01  -4.62370629e+00  -7.31726820e-01
C     9.860692849875001e+00   4.421651215327547e+00   7.015713136000000e+00 -1.44247430e+00  -2.01948500e+00  -5.32882110e-01
C     3.638395536450000e+00   5.122908805249435e+00   6.952858832000000e+00  3.22323639e+00   1.84856158e+00   1.98189180e-01
C     3.533590231725000e+00   4.638891711303650e+00   9.750524488000000e+00 -4.62075220e-01   2.18412009e+00   9.83838460e-01
C     4.804016327325000e+00   5.371627829671904e+00   9.750111863999999e+00 -3.64711085e+00   1.77735534e+00   4.96844800e-01
C     4.903815475875000e+00   4.444411179251044e+00   6.962711351999999e+00 -9.69189870e-01  -3.37025810e-01  -9.09438890e-01
C     6.087840092324999e+00   5.224917553593138e+00   6.892208544000000e+00  2.41746043e+00  -1.89100432e+00  -1.58449880e-01
C     5.972434757624999e+00   4.714133799878904e+00   9.793254191999999e+00  1.45355322e+00  -4.46726033e+00   3.16592770e-01
C     7.187916225075000e+00   5.347924646650786e+00   9.999797120000000e+00  1.70101750e+00   1.63102831e+00  -3.06555570e-01
C     7.382807678625000e+00   4.511477464157064e+00   6.914262984000000e+00 -6.27891430e-01   2.08092525e+00   8.23330900e-02
C     8.648392045874999e+00   5.186526845595896e+00   6.962524623999999e+00  2.34726120e-01  -1.61828848e+00  -2.02945620e-01
C     8.485462780650000e+00   4.692004335141724e+00   9.958625295999999e+00 -2.52138527e+00   1.36697125e+00   1.98943380e-01
C     9.637842676125000e+00   5.393831007417052e+00   9.841075464000001e+00  4.46137481e+00   1.76533367e+00  -9.92110600e-02
