72
Lattice="7.395 0 0 3.6975 6.40425786098592 0 0 0 13.6 " PBC="1 1 1" Properties=species:S:1:pos:R:3:force:R:3 Energy="-579.11661066"
C     3.702768863550000e+00   6.219810366396027e+00   1.351999269600000e+01 -7.63250000e-03   1.22553727e+00   9.10832000e-03
C     1.269054877725000e+00   5.460414347237850e-01   1.357831085600000e+01 -2.24258993e+00   1.74447720e+00  -3.32502660e-01
C     1.377245243700000e+00   9.444014517069133e-01   3.640295408000000e+00 -2.46164090e-01   9.39937280e-01  -3.68640400e-01
C     2.551086575400000e+00   1.750302245485794e+00   3.751748632000000e+00  1.58805802e+00  -3.44184811e+00  -9.34695650e-01
C     6.182189865374999e+00   6.280080773073909e+00   1.346431538400000e+01 -1.57107572e+00  -1.87005173e+00   4.65305190e-01
C     3.692066227950000e+00   5.578971890019528e-01   1.347729712800000e+01 -9.26452540e-01   7.44819580e-01  -1.62908010e-01
C     3.795028144050000e+00   9.967791869555521e-01   3.635644888000000e+00 -1.13306687e+00  -2.79157165e+00   1.87701300e-02
C     5.042832306075001e+00   1.614127934225406e+00   3.551597431999999e+00 -1.02118116e+00   8.66842330e-01   1.88828660e-01
C     8.576092351049999e+00   6.282497675947694e+00   1.342559387200000e+01  2.51074281e+00  -2.17293990e+00   1.80160330e-01
C     6.128649658649999e+00   5.456982305450677e-01   1.348215994400000e+01  1.04602878e+00  -1.39000927e+00   1.00696730e-01
C     6.246541894875000e+00   9.313410565252795e-01   3.472183224000000e+00  2.69145826e+00   6.05978000e-03   2.80946660e-01
C     7.527499542750000e+00   1.622794368089295e+00   3.569513800000000e+00 -1.29004469e+00   4.33019310e-01   6.64551300e-02
C     1.203947412000000e+00   2.051762190620142e+00   2.890231200000000e-02  1.52879970e+00  -3.63195210e+00  -4.92497820e-01
C     2.436091441350000e+00   2.720979086340716e+00   5.991425600000000e-02  3.60961210e-01   3.48617900e-01  -8.04461890e-01
C     2.560321229550000e+00   3.130192975502393e+00   3.682433240000000e+00  9.44886250e-01   3.06325860e-01  -1.35340520e-01
C     3.806726553374999e+00   3.796479603039123e+00   3.585741048000000e+00  1.60684197e+00   6.82161630e-01  -5.36624060e-01
C     3.657535312425000e+00   1.943461258928990e+00   1.354409135200000e+01  1.27239888e+00   2.97651481e+00   7.30638000e-01
C     4.949944635450000e+00   2.652934999344630e+00   1.355300438400000e+01 -2.39085908e+00   1.44098847e+00  -5.88702530e-01
C     5.020252191225000e+00   3.001029021065876e+00   3.575629448000000e+00  9.10613820e-01   4.16142743e+00   4.15836200e-02
C     6.292050429075000e+00   3.797196495663972e+00   3.591652016000000e+00 -1.76985185e+00  -4.47325947e+00  -1.16181200e-01
C     6.137296225424999e+00   1.930559241044234e+00   1.349926180800000e+01  1.04884683e+00   1.44146514e+00  -5.69291600e-02
C     7.380075595875000e+00   2.667485921500600e+00   1.347504306400000e+01 -1.72144393e+00   1.19651761e+00   4.96114590e-01
C     7.501020081375000e+00   3.047003779306087e+00   3.641949576000000e+00  1.63708169e+00   1.31895059e+00  -3.55711400e-01
C     8.759598203774999e+00   3.805466441923747e+00   3.635491208000000e+00 -2.38949803e+00   1.12245638e+00   9.74167300e-02
C     2.425299511125000e+00   4.176346236727665e+00   1.357644928800000e+01  1.26097444e+00  -2.80196929e+00  -2.03128910e-01
C     3.688083243975000e+00   4.803887552509446e+00   1.353032352800000e+01 -1.87987210e-01   1.67405389e+00   1.70462200e-02
C     3.874747168425000e+00   5.269286764387846e+00   3.429235240000000e+00 -1.66342056e+00  -2.19297189e+00   9.26877290e-01
C     5.108964496950000e+00   5.941309301434307e+00   3.495137168000000e+00 -8.97401860e-01  -5.43428930e-01   4.18776460e-01
C     4.922754514575000e+00   4.141487348855057e+00   1.350175985600000e+01 -4.58003420e-01  -2.83117833e+00   3.63836000e-01
C     6.120572358975000e+00   4.837123217184859e+00   1.344229154400000e+01  1.32685339e+00   3.81960720e-01  -1.57481360e-01
C     6.279554062275000e+00   5.144474695294935e+00   3.580362112000000e+00  1.31629894e+00   3.49782308e+00  -1.33762910e-01
C     7.519378908375000e+00   5.880800015938248e+00   3.596565288000000e+00 -1.17062760e+00   3.28986392e+00   2.17497090e-01
C     7.329443177100000e+00   4.083692572095537e+00   1.341914040000000e+01  2.04070589e+00   1.12474687e+00   2.03335030e-01
C     8.619738158699999e+00   4.835031778695519e+00   1.343338857600000e+01 -2.85719762e+00   4.83851070e-01   3.33179760e-01
C     8.763117743100000e+00   5.274431112599048e+00   3.586353184000000e+00 -3.16418670e-01  -3.36951027e+00  -3.80743820e-01
C     9.986261724675000e+00   5.942157673473022e+00   3.458668632000000e+00  1.15680044e+00   1.10454080e-01   1.86341500e-01
C     7.445333291024999e+00   1.472287007525334e-01   6.973346960000000e+00 -8.65610190e-01  -1.10520897e+00  -5.00018000e-02
C     1.244508913050000e+00   8.861991720197617e-01   7.015483568000000e+00  1.37268389e+00  -1.98209090e+00  -6.73549310e-01
C     1.121789960325000e+00   4.829994573718315e-01   9.925541936000000e+00 -1.41833240e+00  -6.77284480e-01   1.37988360e-01
C     2.313116362800000e+00   1.175895392061390e+00   1.004696994400000e+01  1.34706629e+00   9.08447270e-01   1.60842360e-01
C     2.516444771850000e+00   1.611466260616212e-01   6.887489887999999e+00 -2.12280452e+00   4.20041120e-01   4.77760240e-01
C     3.746294206650000e+00   8.100242392446204e-01   6.859387799999999e+00  1.46636401e+00   9.82852950e-01   4.56330300e-01
C     3.527250424275000e+00   4.376307980954910e-01   1.009665550400000e+01  2.44313493e+00   1.56427001e+00  -7.47934080e-01
C     4.856179511100000e+00   1.219407200813802e+00   9.979939352000001e+00 -4.18838985e+00  -1.56570386e+00   8.37381910e-01
C     5.024857501425000e+00   1.195131220969686e-01   6.922291744000000e+00 -1.30998967e+00   1.46975188e+00  -1.92645900e-01
C     6.251445075674999e+00   8.587966975309723e-01   6.997014360000000e+00 -1.50125463e+00   1.69196271e+00  -7.37836350e-01
C     6.034668119625000e+00   5.438771798225767e-01   9.882598440000001e+00  1.54470959e+00  -2.40724894e+00   2.16396690e-01
C     7.298454244724999e+00   1.218134738819599e+00   9.841728400000001e+00 -2.59069340e-01   4.94329100e-02   4.12255490e-01
C     8.630627739900000e+00   2.259145637153606e+00   7.083637112000000e+00 -3.89006600e-01   2.12613256e+00  -1.04395645e+00
C     2.497913086725000e+00   2.889255508635296e+00   7.015033000000001e+00 -2.87700080e-01   3.37206016e+00  -2.35099990e-01
C     2.338592396625000e+00   2.619059357181267e+00   1.005515809600000e+01  1.67103670e-01   5.12215370e-01  -2.01726890e-01
C     3.587869309875000e+00   3.330994702190555e+00   9.993307608000000e+00 -1.22551698e+00  -8.48045230e-01   3.25464430e-01
C     3.749705224350000e+00   2.244429933442897e+00   6.915686088000000e+00 -1.91955295e+00  -1.88940681e+00   1.37749280e-01
C     4.931973713174999e+00   2.937454721800599e+00   6.941953263999999e+00  1.16475259e+00   3.74041082e+00  -9.99454800e-02
C     4.805916583499999e+00   2.606620815437839e+00   9.984629448000000e+00  2.98903700e-01   6.13228750e-01  -6.29905230e-01
C     6.005460753674999e+00   3.294483259619752e+00   9.823347183999999e+00  1.95514353e+00   2.26280153e+00   8.85673320e-01
C     6.189309697425000e+00   2.364563243871028e+00   6.962601599999999e+00  4.11140010e-01  -3.96616258e+00  -1.78557300e-02
C     7.386193701224999e+00   3.082314551613297e+00   6.990661392000000e+00  1.54937085e+00  -2.86605933e+00   1.05103900e-01
C     7.304139224925001e+00   2.640838188800612e+00   9.814134815999999e+00 -1.17174167e+00   1.06939200e-01   1.20065334e+00
C     8.525461559175000e+00   3.387899607320428e+00   9.996576504000000e+00 -1.71920700e-02  -3.08254036e+00  -4.56116850e-01
C     9.879259439399998e+00   4.383289390533253e+00   6.988629008000000e+00 -1.50035924e+00  -1.63208751e+00  -3.28567900e-01
C     3.660328773674999e+00   5.090420709594020e+00   6.939675672000000e+00  2.96367593e+00   1.28151986e+00   2.51046200e-01
C     3.573647024025000e+00   4.719328677684621e+00   9.878032240000000e+00 -9.68950180e-01   2.17630176e+00   6.37447930e-01
C     4.820649826875000e+00   5.449398959676071e+00   9.888603519999998e+00 -2.40839700e+00   1.46749761e+00   2.14125280e-01
C     4.924166626800000e+00   4.402618977776620e+00   6.972097936000000e+00 -7.26321130e-01  -2.36804920e-01  -6.98955700e-01
C     6.126907507575000e+00   5.169682366572524e+00   6.919183328000001e+00  1.42227826e+00  -1.99305781e+00  -2.04935080e-01
C     6.006475162799999e+00   4.788742827564696e+00   9.896839135999999e+00  1.06015738e+00  -4.04841116e+00   2.51383280e-01
C     7.228461900824999e+00   5.431090723476218e+00   1.002837534400000e+01  1.51311348e+00   1.55347166e+00  -1.43460930e-01
C     7.393306397100000e+00   4.447399982351727e+00   6.922045176000000e+00 -4.08286800e-02   2.06512709e+00   1.12632440e-01
C     8.657804845574999e+00   5.137660052591267e+00   6.947517296000000e+00  1.31463070e-01  -1.62368858e+00  -1.25668610e-01
C     8.517287015250000e+00   4.763861133012182e+00   1.000380204800000e+01 -1.99021586e+00   9.98996810e-01   4.02903100e-02
C     9.681870102749999e+00   5.481267251255797e+00   9.918583496000000e+00  3.54051484e+00   6.14956690e-01   1.71780330e-01
