72
Lattice="7.395 0 0 3.6975 6.40425786098592 0 0 0 13.6 " PBC="1 1 1" Properties=species:S:1:pos:R:3:force:R:3 Energy="-576.42315234"
C     3.641972756775000e+00   6.096986371070595e+00   4.151020560000000e-01  2.31441150e-01   4.56976468e+00  -1.26139241e+00
C     1.229502905100000e+00   4.026769350788185e-01   4.114840480000000e-01 -2.91327782e+00   2.33260545e+00  -5.45657990e-01
C     1.464873627300000e+00   1.091515324116017e+00   3.431080216000000e+00  8.20511430e-01   1.19726317e+00  -2.51864100e-01
C     2.740643238975000e+00   1.803676291129713e+00   3.517629936000000e+00 -2.23057220e-01  -1.41273629e+00  -6.90511180e-01
C     6.137054261025000e+00   6.137973237119123e+00   3.025092880000000e-01 -2.67528000e-01  -3.54099970e-01  -4.19649560e-01
C     3.654712714875000e+00   4.428036452541702e-01   2.526840560000000e-01  5.75703590e-01  -6.21693350e-01   9.58225860e-01
C     4.021474358400000e+00   1.137988845958364e+00   3.377277664000000e+00 -1.85983124e+00  -3.35986780e-01   7.20799000e-02
C     5.247321323400000e+00   1.848095903433780e+00   3.236882824000000e+00 -2.67756071e+00   1.74182013e+00   9.46732450e-01
C     8.574122397000000e+00   6.139854231695185e+00   3.220399760000000e-01  6.01829760e-01  -1.00262574e+00  -9.35188410e-01
C     6.081108830550000e+00   4.518123226580964e-01   2.323278480000000e-01  2.25755524e+00   3.84518560e-01   8.17443670e-01
C     6.399818873325000e+00   1.132755350477751e+00   3.171939696000000e+00  2.61086831e+00  -6.88005750e-01   8.59561830e-01
C     7.639145703150000e+00   1.802678571797704e+00   3.377286368000000e+00  2.36511380e-01   3.56626595e+00  -2.76624560e-01
C     1.179759550200000e+00   1.892460503162830e+00   3.977302320000000e-01  1.73872326e+00  -1.68914786e+00  -2.34121670e-01
C     2.442249923400000e+00   2.578460909371948e+00   5.265403200000000e-01  2.77282530e-01  -2.33438079e+00  -9.32434490e-01
C     2.728157225175000e+00   3.167167509959053e+00   3.452376999999999e+00  7.82233850e-01   3.23464903e+00  -4.70429310e-01
C     3.935394672675000e+00   3.914163861219011e+00   3.188884208000000e+00 -9.42293900e-02   1.54517231e+00   1.61539920e+00
C     3.686176221375000e+00   1.822151806544870e+00   4.212341600000000e-01 -4.56114270e-01   2.10958456e+00  -1.33013959e+00
C     4.885899720299999e+00   2.584063226062718e+00   1.682926560000000e-01 -3.56756100e-02   7.04021210e-01   1.00370837e+00
C     5.211949559400000e+00   3.311148995806252e+00   3.317862936000000e+00 -1.64984067e+00  -2.54423614e+00  -9.90175210e-01
C     6.361862445900000e+00   4.057705374551229e+00   3.368896392000000e+00  3.64915168e+00  -1.21681009e+00  -1.13676700e-01
C     6.138781067475000e+00   1.895652705493147e+00   1.012649200000000e-01 -6.51960000e-01  -9.12116240e-01   1.53705350e-01
C     7.399197660825000e+00   2.607017303041952e+00   1.269802080000000e-01 -1.53549507e+00  -1.79581496e+00   3.65797100e-02
C     7.660167839400001e+00   3.390107090962192e+00   3.464390152000000e+00 -1.42643681e+00  -4.79874783e+00   5.95227700e-02
C     8.944426393424999e+00   3.985540595920283e+00   3.544242280000000e+00 -1.91620242e+00  -3.21505886e+00  -1.07067135e+00
C     2.494832958300000e+00   3.944080135003008e+00   5.217536640000000e-01 -2.84844385e+00   3.43506217e+00  -8.77517040e-01
C     3.662126756999999e+00   4.755494738629035e+00   4.604847120000000e-01 -4.79760000e-01  -3.26006925e+00  -5.15775190e-01
C     3.909015857250000e+00   5.391748662973874e+00   3.120089560000000e+00  1.42627152e+00  -9.11541140e-01   1.11462064e+00
C     5.182183870949999e+00   6.112183354759482e+00   3.227773272000000e+00 -3.31077377e+00   1.15550900e-01   3.51562680e-01
C     4.846263518624999e+00   4.061058579924146e+00   2.546126720000000e-01  2.33325335e+00  -2.06970740e+00  -5.07751080e-01
C     6.089540165850000e+00   4.743223283973174e+00   1.312100800000000e-01  1.50239828e+00  -1.56544087e+00  -1.28423080e-01
C     6.357541362525000e+00   5.445365814246158e+00   3.325561352000000e+00  2.12947767e+00   2.34786900e-02   5.95920120e-01
C     7.600136523524999e+00   6.130572220565793e+00   3.422013640000000e+00  2.62583533e+00  -1.77286135e+00  -1.00964599e+00
C     7.373626971000000e+00   3.980538294148416e+00   1.695335200000000e-02  3.88008310e-01   2.90522949e+00   2.34802606e+00
C     8.628041153774999e+00   4.685897170803850e+00   3.642836160000000e-01 -9.76310000e-01  -2.91359350e-01  -1.19452022e+00
C     8.859263317949999e+00   5.303444321982207e+00   3.338155360000000e+00  1.04328830e+00   6.81587518e+00   2.10143400e-02
C     1.011399870255000e+01   6.121373977129211e+00   3.172350144000000e+00 -2.10841220e+00  -2.01408473e+00   4.79943360e-01
C     7.335862554749999e+00   2.666630504778240e-01   6.319439376000000e+00 -1.73948088e+00   1.09831883e+00  -2.86630120e-01
C     1.168708203375000e+00   9.421064859027823e-01   6.360595560000000e+00 -5.66811760e-01   2.40552122e+00   4.64225580e-01
C     1.054865617050000e+00   3.053550147648000e-01   1.034974742400000e+01  1.58810084e+00  -5.66960600e-02   9.93255100e-02
C     2.260478678850000e+00   9.679178865688333e-01   1.046538251200000e+01  3.36098878e+00   3.10085382e+00  -6.29537530e-01
C     2.368943953950000e+00   3.044821144184821e-01   6.423871463999999e+00  2.17282868e+00  -4.05543322e+00  -1.80480810e-01
C     3.579974075100000e+00   1.018433263631784e+00   6.453457312000000e+00  1.33445641e+00  -1.12150986e+00   2.21741500e-02
C     3.578475811125000e+00   3.152225031477522e-01   1.031591783200000e+01 -2.13273658e+00  -9.99564060e-01   7.60470480e-01
C     4.782693177600001e+00   1.047143935873636e+00   1.037041792800000e+01  7.79098490e-01  -1.38430889e+00  -8.52115180e-01
C     4.813149226275000e+00   2.267481931524810e-01   6.347037720000000e+00 -3.60433090e-01   2.14397186e+00   2.22487810e-01
C     6.036494647650000e+00   9.755071883032477e-01   6.285841120000000e+00  1.40163315e+00  -2.53494789e+00   8.62872990e-01
C     6.020508765224999e+00   2.925966443838438e-01   1.025596168800000e+01 -1.26771618e+00  -1.79822290e-01   7.25724360e-01
C     7.248344911275000e+00   9.683007971462827e-01   1.030928511200000e+01 -1.60897488e+00   1.87173768e+00   3.36164210e-01
C     8.597548795649999e+00   2.384641168645336e+00   6.395351448000000e+00 -7.46450510e-01   1.11345280e-01   4.18599880e-01
C     2.411198983950000e+00   3.193042440863075e+00   6.458521544000000e+00 -8.15197730e-01  -2.25574223e+00  -2.16609300e-02
C     2.303998216875000e+00   2.478682635955726e+00   1.052689286400000e+01  2.43725370e-01  -3.66688377e+00  -3.88809710e-01
C     3.553551629175000e+00   3.097840650113609e+00   1.053918318400000e+01 -1.05265733e+00   3.93007992e+00  -8.45769590e-01
C     3.611812692975000e+00   2.442570690990230e+00   6.520547064000000e+00  4.00129310e-01   2.41402530e-01  -3.35706990e-01
C     4.837746438300000e+00   3.156490907638068e+00   6.494670208000000e+00  1.62976251e+00  -3.65739016e+00  -1.17875710e-01
C     4.758314672699999e+00   2.452793103343784e+00   1.040464219200000e+01  1.41264948e+00  -6.47260570e-01   4.54944810e-01
C     5.984045684100000e+00   3.165380017547748e+00   1.035387733600000e+01  1.68899065e+00  -1.48687412e+00  -1.69334750e-01
C     6.103673194049999e+00   2.339304018317666e+00   6.416857535999999e+00 -2.27767199e+00   2.63176542e+00   1.25097740e-01
C     7.328454576525000e+00   3.004244086596753e+00   6.420675463999999e+00  1.46197017e+00   3.22194218e+00  -1.21003800e-02
C     7.240792693574999e+00   2.382304575165115e+00   1.037638248000000e+01  3.77274300e-02   2.71339338e+00  -5.56472280e-01
C     8.505631681799999e+00   3.171730479641724e+00   1.038061602400000e+01 -2.50668903e+00  -1.90437371e+00   1.35057410e-01
C     9.793470266249999e+00   4.596494435546614e+00   6.371028120000000e+00  5.61775940e-01  -9.84895340e-01   2.10880410e-01
C     3.630544080075000e+00   5.296373829177031e+00   6.337192544000000e+00  1.04133775e+00  -2.12426292e+00   7.00058600e-01
C     3.531034076025000e+00   4.585223902351693e+00   1.043157957600000e+01  1.85687403e+00  -9.23339030e-01  -2.37650470e-01
C     4.819546492875000e+00   5.348212197828700e+00   1.034067772000000e+01 -1.94318315e+00  -4.61948380e+00   7.79874200e-02
C     4.892184250125000e+00   4.513494549212649e+00   6.445906047999999e+00 -9.74256400e-01   2.51705944e+00  -5.02339590e-01
C     6.147922248824999e+00   5.170812589999657e+00   6.385410392000000e+00 -1.16637440e+00   3.56035591e+00   6.86088400e-01
C     6.036247173974999e+00   4.569201473867230e+00   1.028284630400000e+01 -1.05490390e-01   1.36959443e+00   4.01906510e-01
C     7.303294383149999e+00   5.255698786443705e+00   1.024344166400000e+01 -2.93073424e+00   2.08359058e+00  -2.96636400e-02
C     7.379930136225000e+00   4.513314461481627e+00   6.418494023999999e+00 -3.05083324e+00  -3.49315798e+00   4.04765600e-02
C     8.533844383275000e+00   5.213311245158617e+00   6.342088544000000e+00  1.84658964e+00   2.31467985e+00   3.89767080e-01
C     8.473476077249998e+00   4.562683412345058e+00   1.025227160000000e+01  1.27421626e+00  -6.23101000e-01   6.46517280e-01
C     9.688393306199998e+00   5.255264962016270e+00   1.032171075200000e+01  1.33267238e+00   1.45850313e+00  -2.71527050e-01
