72
Lattice="7.395 0 0 3.6975 6.40425786098592 0 0 0 13.6 " PBC="1 1 1" Properties=species:S:1:pos:R:3:force:R:3 Energy="-579.58537027"
C     3.639634088025000e+00   6.185165957119150e+00   3.218792240000000e-01  1.34794614e+00   6.59985500e-02  -1.22775316e+00
C     1.178584373775000e+00   5.187202302672390e-01   2.817214160000000e-01  2.37626140e-01  -1.78779394e+00   1.38540770e-01
C     1.401196206675000e+00   1.015394507319793e+00   3.435693744000000e+00  7.69093490e-01   1.32648131e+00  -1.49356000e-02
C     2.676063998100000e+00   1.717195818733996e+00   3.521540072000000e+00 -1.25439910e-01  -3.19845930e-01  -8.39953710e-01
C     6.096115282200000e+00   6.172490329749744e+00   2.052811200000000e-01  1.87759179e+00   3.41233800e-02  -3.49199350e-01
C     3.696618811800000e+00   4.909268398786752e-01   2.274496640000000e-01 -2.06921731e+00  -6.46251150e-01  -8.15924700e-02
C     3.937300475100000e+00   1.047793968046426e+00   3.403327104000000e+00 -1.91024126e+00  -5.26692320e-01   3.37489880e-01
C     5.130707201999999e+00   1.801138091612059e+00   3.329402672000000e+00  3.78889580e-01  -6.34082600e-01  -2.36136730e-01
C     8.594481719399999e+00   6.189825503010350e+00   2.087665280000000e-01  1.95224111e+00  -9.95545620e-01  -6.72151590e-01
C     6.171585620250000e+00   5.349407424473113e-01   1.540329200000000e-01 -2.49392032e+00  -3.09798860e-01   7.43137530e-01
C     6.331112926650000e+00   1.101673245592920e+00   3.236103136000000e+00  2.39538776e+00  -2.65463398e+00   8.76116410e-01
C     7.609002832724999e+00   1.802319997400122e+00   3.408454168000000e+00 -2.55736925e+00  -8.22691280e-01  -6.49644270e-01
C     1.182122178750000e+00   1.928900986556544e+00   3.279184400000000e-01  1.21583178e+00  -9.16575430e-01  -8.95919970e-01
C     2.448788101725000e+00   2.591019851163144e+00   4.069970000000000e-01 -2.98673470e-01   6.01461660e-01  -5.13431120e-01
C     2.690111614050000e+00   3.130888221735675e+00   3.451379440000000e+00 -2.22880380e+00   6.74048460e-01   2.79583220e-01
C     3.862323087749999e+00   3.868207227028544e+00   3.289665648000000e+00  2.03338361e+00  -5.20650480e-01   3.01092540e-01
C     3.683721894825000e+00   1.911927333652136e+00   3.028371840000000e-01  7.46464330e-01  -2.79066620e-01  -2.51458590e-01
C     4.912934657100000e+00   2.655778489834470e+00   1.588165840000000e-01 -1.11276624e+00  -1.09623040e-01  -8.18052000e-02
C     5.159467244400000e+00   3.200970143582812e+00   3.302628896000000e+00 -1.54102892e+00   1.42429923e+00   3.30803670e-01
C     6.370450814024999e+00   3.981747482074963e+00   3.372507056000000e+00 -1.97988877e+00  -2.68381081e+00  -2.11303240e-01
C     6.160311794849999e+00   2.010031918319225e+00   6.803603999999999e-02 -1.62758745e+00  -4.28326893e+00   1.69215410e-01
C     7.382350852500000e+00   2.610621299152667e+00   6.098756799999999e-02  1.11587213e+00   1.49395897e+00   9.70470850e-01
C     7.539026018324999e+00   3.239874537103004e+00   3.476199168000000e+00  3.21321967e+00  -1.32237461e+00   3.46838200e-02
C     8.828639698575000e+00   3.879519515984712e+00   3.515935512000000e+00 -2.68872650e-01  -5.68016250e-01  -8.90014520e-01
C     2.472869068800000e+00   4.006548290850706e+00   4.172500400000000e-01 -1.14501082e+00   2.92286250e-01  -1.31888389e+00
C     3.688196165625000e+00   4.721813145478830e+00   3.427084400000000e-01 -2.30894008e+00   2.96040863e+00  -1.58630880e-01
C     3.841490781150000e+00   5.270692691115852e+00   3.194145640000000e+00  7.76736970e-01   1.08407251e+00   8.03506140e-01
C     5.075324309175000e+00   6.012615781426855e+00   3.292905304000000e+00 -6.52913780e-01   5.02285930e-01   2.67107560e-01
C     4.860359719725000e+00   4.079405497841474e+00   1.478606960000000e-01  3.06690984e+00  -2.02117018e+00  -1.25141900e-01
C     6.126606124349999e+00   4.725724417881668e+00   2.815689600000000e-02  5.03984070e-01   1.97045525e+00   9.44696410e-01
C     6.306938634674999e+00   5.362846055123957e+00   3.376631256000000e+00  1.51264096e+00   2.80893840e-01   3.60516800e-02
C     7.573298219774999e+00   6.019876032392422e+00   3.421086800000000e+00  4.63182120e-01   8.50995370e-01  -4.34455530e-01
C     7.405599290475000e+00   4.004507958339088e+00   5.349696000000000e-02 -1.15435345e+00   1.91818599e+00  -4.92056800e-02
C     8.629587818025000e+00   4.696569482272068e+00   1.874507040000000e-01  7.88916000e-03   2.37706514e+00   7.54555770e-01
C     8.798520418199999e+00   5.277726615608648e+00   3.362228720000000e+00  4.79010630e-01   7.25579470e-01   2.47066300e-01
C     1.003108244992500e+01   5.980298231158251e+00   3.220172368000000e+00 -7.35011810e-01   2.78748335e+00   4.19519640e-01
C     7.366930354799999e+00   1.818213636259020e-01   6.460419152000000e+00 -1.48531397e+00   2.32444394e+00  -3.34729800e-02
C     1.199586839325000e+00   8.864992115005026e-01   6.524509424000000e+00  4.45011810e-01   7.69289520e-01   2.95062410e-01
C     1.092233550375000e+00   4.239888322575906e-01   1.023824673600000e+01 -3.65177370e-01  -1.02173654e+00   3.99941770e-01
C     2.333935728150000e+00   1.127219574026146e+00   1.036622749600000e+01  1.11236400e-02  -2.69855900e-01  -3.97056030e-01
C     2.418720660300000e+00   1.593859674907500e-01   6.569999247999999e+00  8.84307910e-01   1.06461204e+00   9.71772000e-03
C     3.633226542375000e+00   9.349487030629746e-01   6.620834960000000e+00  3.08198220e-01  -1.60746480e-01  -3.48725960e-01
C     3.589905708000000e+00   4.507490877681792e-01   1.028335181600000e+01 -9.18459460e-01  -2.62137193e+00  -2.68444430e-01
C     4.793343197775000e+00   1.114439941509094e+00   1.025289026400000e+01  7.98119370e-01   3.24828630e-01   1.53855700e-02
C     4.853774250374999e+00   1.745308205206566e-01   6.471897960000000e+00 -1.12119082e+00   8.97435210e-01   6.14037310e-01
C     6.051122918999999e+00   8.748413487902088e-01   6.446464600000000e+00  3.12842847e+00   4.29767790e-01   5.47189780e-01
C     6.036201140099999e+00   3.757289707703532e-01   1.016739386400000e+01 -1.93275223e+00   7.13569280e-01   5.28093580e-01
C     7.214227450200000e+00   1.073813058794877e+00   1.021961528000000e+01  3.02838975e+00   1.40221571e+00   2.53152900e-02
C     8.622293833724999e+00   2.354791371057926e+00   6.576486312000000e+00  6.42205690e-01  -2.45172996e+00   1.68592400e-02
C     2.419699573425000e+00   3.132715548630868e+00   6.604144904000000e+00  1.36384877e+00  -2.26186243e+00   5.38536630e-01
C     2.341887682575000e+00   2.527030555988539e+00   1.043065464000000e+01 -8.81082770e-01   1.41855537e+00  -8.36862510e-01
C     3.594589146375000e+00   3.242503997295163e+00   1.038856413600000e+01 -2.72085788e+00   1.10115368e+00  -1.67089060e-01
C     3.670457890050000e+00   2.414040682862609e+00   6.685815488000000e+00 -1.89258240e+00  -2.93552893e+00  -6.76979180e-01
C     4.889151301799999e+00   3.042268663172139e+00   6.627707448000000e+00  2.01092404e+00   9.27141200e-01  -1.71079280e-01
C     4.759897720350000e+00   2.523284641523646e+00   1.031854494400000e+01  3.20198818e+00   9.24115580e-01  -2.57985960e-01
C     6.033062813024999e+00   3.256153648242495e+00   1.024854016800000e+01 -2.30505770e-01  -8.81666700e-02  -2.83735170e-01
C     6.126606494099999e+00   2.279882752189442e+00   6.561150816000000e+00 -7.88811930e-01   5.39580240e-01   8.84771100e-02
C     7.392038857124999e+00   2.946629205440521e+00   6.590326352000000e+00 -1.43458303e+00   3.15125045e+00  -1.02019500e-01
C     7.267747801350000e+00   2.498708173900739e+00   1.023896168800000e+01 -1.96603341e+00   1.33542906e+00   9.39599000e-02
C     8.449134880124999e+00   3.247918669230636e+00   1.028916445600000e+01  2.67243384e+00  -1.03664743e+00  -1.70786800e-02
C     9.854604139650000e+00   4.515594057066894e+00   6.559028400000000e+00 -1.48830929e+00  -6.40306700e-02  -4.77323680e-01
C     3.655880829075000e+00   5.221307985778085e+00   6.488340632000000e+00  2.70080875e+00  -2.27264080e+00   6.13281920e-01
C     3.551020616475000e+00   4.701458620807549e+00   1.029449538400000e+01  1.30891639e+00  -1.58919965e+00   7.01457000e-02
C     4.780233526650000e+00   5.398068256544964e+00   1.023985140000000e+01  1.34585464e+00   3.96520100e-01  -1.62064170e-01
C     4.931592426975000e+00   4.472212831132246e+00   6.563413448000000e+00 -1.21917828e+00  -1.03963050e-01  -1.41780500e-01
C     6.173481883125000e+00   5.134121572038459e+00   6.534139039999999e+00  9.48201000e-03   4.78471810e-01   4.45116390e-01
C     6.055837305450000e+00   4.701221599224151e+00   1.018959559200000e+01 -2.17668880e-01  -1.08719946e+00   5.22139040e-01
C     7.334088161475000e+00   5.387652819859511e+00   1.017692365600000e+01 -3.29873434e+00   1.42190757e+00   7.43934800e-02
C     7.431784874549999e+00   4.417588290098584e+00   6.579345712000000e+00 -2.68192869e+00  -9.11807910e-01  -2.46639550e-01
C     8.592137948100000e+00   5.159053796185489e+00   6.487940520000000e+00  6.55220510e-01   6.44760140e-01   5.46074050e-01
C     8.500603340624998e+00   4.659976321370971e+00   1.016284724800000e+01  6.92143700e-01  -1.16518070e-01   8.62716730e-01
C     9.733933638899998e+00   5.391177531257918e+00   1.023051323200000e+01 -5.07141390e-01  -1.18462374e+00  -3.92329740e-01
