72
Lattice="7.395 0 0 3.6975 6.40425786098592 0 0 0 13.6 " PBC="1 1 1" Properties=species:S:1:pos:R:3:force:R:3 Energy="-580.26952208"
C     3.644585299350000e+00   6.158323727107953e+00   2.784317120000000e-01  1.19407479e+00   2.30376594e+00  -5.46031170e-01
C     1.239408803400000e+00   4.767429457406617e-01   2.678103840000000e-01 -2.63862640e+00   7.84233350e-01  -9.20592500e-02
C     1.390771142400000e+00   1.025584386043417e+00   3.429274816000000e+00  1.24479399e+00   6.65315060e-01  -7.20817000e-02
C     2.653278154350000e+00   1.744575430022225e+00   3.463396400000000e+00  2.30027340e-01  -2.05768119e+00  -3.47246200e-01
C     6.140693414474999e+00   6.174568959723365e+00   2.167083840000000e-01  3.59096110e-01   5.20255640e-01  -3.47734920e-01
C     3.685079025224999e+00   4.872800633254555e-01   1.842809520000000e-01 -8.12206060e-01  -5.44665050e-01   7.03525140e-01
C     3.934590503399999e+00   1.053330961307025e+00   3.387814808000000e+00 -1.64089436e+00  -1.14420790e-01   1.44095980e-01
C     5.166064878524999e+00   1.773752524364020e+00   3.309118680000000e+00 -2.05568638e+00   5.19760210e-01   6.21719720e-01
C     8.594601444449999e+00   6.197135835272382e+00   2.309757360000000e-01  7.98249520e-01  -1.72112372e+00  -5.02878740e-01
C     6.112438450575000e+00   4.960968051213174e-01   1.870329120000000e-01  1.30102374e+00   7.92491560e-01   3.31371520e-01
C     6.335105265299999e+00   1.043869438829818e+00   3.289212224000000e+00  1.64621389e+00   3.72659800e-02   5.82876700e-01
C     7.572474047025000e+00   1.730020537226381e+00   3.415259608000000e+00 -6.77064100e-02   2.97238734e+00  -4.59604140e-01
C     1.196789384775000e+00   1.929033234481353e+00   2.725697040000000e-01  6.42531490e-01  -1.10679115e+00  -4.76947510e-01
C     2.429985315900000e+00   2.621732814624924e+00   3.364180320000000e-01  1.23185397e+00  -1.58455372e+00  -2.32840860e-01
C     2.651204929125000e+00   3.107576146742067e+00   3.417957032000000e+00  5.73384610e-01   2.88180205e+00  -1.07418640e-01
C     3.865597039124999e+00   3.848480383670122e+00   3.274251136000000e+00  5.07537210e-01   1.31481902e+00   1.03596310e+00
C     3.678172280100000e+00   1.874520767960241e+00   3.000383040000000e-01  4.97678390e-01   2.00039826e+00  -1.11458585e+00
C     4.924127211450000e+00   2.632105662995609e+00   1.376226160000000e-01 -1.54510547e+00   6.12754270e-01   6.75832380e-01
C     5.138476943625000e+00   3.210758347253457e+00   3.369011720000000e+00 -1.35177099e+00  -1.31006127e+00  -7.85407840e-01
C     6.313843605000000e+00   3.950397294956113e+00   3.399567112000000e+00  2.23471913e+00  -8.90100710e-01  -1.96303460e-01
C     6.160270234950000e+00   1.957143251378515e+00   9.971696800000000e-02 -1.29874963e+00  -1.95670080e+00   2.52237700e-02
C     7.380589659300000e+00   2.643434667064791e+00   9.217862400000000e-02  4.22890180e-01  -9.76720360e-01   2.98434330e-01
C     7.589018436825000e+00   3.270435015185138e+00   3.434497216000000e+00 -8.29681090e-01  -3.69236447e+00   4.04652220e-01
C     8.859434623125001e+00   3.897845299851103e+00   3.489697848000000e+00 -1.75811627e+00  -1.95674141e+00  -8.71742240e-01
C     2.492597486775000e+00   4.002992582844255e+00   3.503753040000000e-01 -2.42889392e+00   2.10978305e+00  -5.95720890e-01
C     3.676509995025000e+00   4.770919073471951e+00   3.039833920000000e-01 -1.18710840e+00  -3.45603770e-01  -1.44224590e-01
C     3.859912983300000e+00   5.314223584556687e+00   3.257307168000000e+00  4.06068600e-01  -7.71782850e-01   5.04082320e-01
C     5.119790370225000e+00   6.024968826327852e+00   3.318888920000000e+00 -3.04109645e+00   4.64752830e-01   1.73875050e-01
C     4.862932514175000e+00   4.100482422799363e+00   1.766827680000000e-01  2.51403731e+00  -2.54057816e+00  -2.63579010e-01
C     6.095869916100000e+00   4.781388434008587e+00   1.086871200000000e-01  2.11264639e+00  -1.29320239e+00  -1.52865130e-01
C     6.296956087200000e+00   5.347879112377402e+00   3.369017296000000e+00  2.28193583e+00  -1.81656740e-01   4.51946130e-01
C     7.545460666649999e+00   6.033856079002752e+00   3.435105408000000e+00  1.78370462e+00  -7.46970710e-01  -7.97075610e-01
C     7.392371003550000e+00   4.023318992823531e+00   4.022852800000000e-02 -8.45537610e-01   2.55004803e+00   1.26458890e+00
C     8.632171039425000e+00   4.725878312198043e+00   2.546398720000000e-01 -4.17272460e-01   7.52410750e-01  -6.73223160e-01
C     8.794417117575000e+00   5.254991820418541e+00   3.373623616000000e+00  8.01747810e-01   4.40429942e+00   4.14408950e-01
C     1.003776227947500e+01   6.043108886716301e+00   3.304858480000000e+00 -9.78614420e-01  -1.92871821e+00  -1.25417790e-01
C     7.375538541525001e+00   1.940389584731598e-01   6.472698184000000e+00 -1.32936996e+00   7.69732380e-01  -6.27944800e-02
C     1.207909726950000e+00   8.718290420631793e-01   6.522113239999999e+00 -2.40412310e-01   2.27339262e+00   3.07468750e-01
C     1.084334174400000e+00   4.012368736564188e-01   1.025964402400000e+01  5.35129610e-01   7.62715860e-01  -7.69909700e-02
C     2.289140515650000e+00   1.095450740570987e+00   1.030538408800000e+01  2.83336528e+00   1.82006995e+00  -4.30144580e-01
C     2.417571440325000e+00   2.229089686505682e-01   6.598716328000000e+00  1.39733510e+00  -3.23716171e+00  -2.42623090e-01
C     3.630747257700000e+00   9.376193426331731e-01   6.627103744000000e+00  1.18806355e+00  -1.22357033e+00  -8.07432000e-02
C     3.599443409250000e+00   4.152957566810052e-01   1.018948434400000e+01 -2.27930710e+00  -5.25631100e-01   7.99398200e-01
C     4.804740075975000e+00   1.144601690496865e+00   1.025485600800000e+01  2.64167970e-01  -1.04951461e+00  -6.63305760e-01
C     4.865678869275000e+00   1.702379183919414e-01   6.541557840000000e+00 -4.57530800e-02   1.32236022e+00  -8.18353600e-02
C     6.100783634775000e+00   9.046336361420358e-01   6.459885216000000e+00  6.08693920e-01  -1.62981580e+00   8.43036840e-01
C     6.026884623299999e+00   4.078244213763721e-01   1.018881481600000e+01 -3.76221560e-01  -6.82859850e-01   5.04774280e-01
C     7.253154064649999e+00   1.093314280148891e+00   1.023825326400000e+01 -2.72925660e-01   9.66645080e-01   2.06798890e-01
C     8.628170011649999e+00   2.319953040853048e+00   6.546005448000000e+00 -6.12573840e-01  -2.11237470e-01   3.57764570e-01
C     2.452897946925000e+00   3.093835555333123e+00   6.615005728000000e+00 -7.63222390e-01  -1.52514089e+00  -2.47841600e-01
C     2.323208023500000e+00   2.577628868190776e+00   1.034598920000000e+01  5.95910670e-01  -2.97036600e+00  -2.88131490e-01
C     3.569239677975000e+00   3.220605277968679e+00   1.035520469600000e+01 -5.62232740e-01   2.70647799e+00  -5.59258170e-01
C     3.660398101799999e+00   2.346020163535449e+00   6.664384472000000e+00  2.95600900e-02   8.49006830e-01  -2.43328600e-01
C     4.879149638250000e+00   3.068018903175627e+00   6.640347424000000e+00  1.58402347e+00  -2.52690425e+00  -9.90194400e-02
C     4.784734826175000e+00   2.549638610915596e+00   1.027856053600000e+01  8.16153280e-01  -6.26474600e-02   3.70346210e-01
C     6.005002411575000e+00   3.272601447534019e+00   1.025421286400000e+01  1.51298383e+00  -1.34871256e+00  -6.31878000e-02
C     6.141451475925000e+00   2.291222579454409e+00   6.576787280000000e+00 -1.80641564e+00   1.43892915e+00  -9.66887500e-02
C     7.362911837850000e+00   2.964747427309668e+00   6.565979768000000e+00  1.41895345e+00   2.50318909e+00   8.42185400e-02
C     7.265246960250000e+00   2.511598536036190e+00   1.027577838400000e+01 -3.06118990e-01   1.69964152e+00  -5.16698730e-01
C     8.524019053500000e+00   3.268316678812786e+00   1.024849583200000e+01 -2.50557864e+00  -1.14970658e+00   2.67981090e-01
C     9.836895702900000e+00   4.505467644538661e+00   6.532990384000001e+00  1.81626310e-01  -6.19074840e-01   2.00843030e-01
C     3.672027219975000e+00   5.215150804186323e+00   6.504205712000000e+00  8.08266740e-01  -1.91529581e+00   5.01163620e-01
C     3.558122515650000e+00   4.687495097182498e+00   1.029018717600000e+01  1.32187352e+00  -8.07728180e-01  -1.09515440e-01
C     4.834358086275000e+00   5.433720696009006e+00   1.024126620800000e+01 -1.95677699e+00  -3.14182146e+00   9.16807600e-02
C     4.927713379725000e+00   4.442302513308059e+00   6.597376592000000e+00 -9.27813580e-01   1.98887922e+00  -3.35557260e-01
C     6.178678497525000e+00   5.119657683746807e+00   6.566369272000000e+00 -1.26341817e+00   2.80566293e+00   4.80001930e-01
C     6.038609321849999e+00   4.679302770527985e+00   1.020691804800000e+01  4.01730050e-01   8.57912230e-01   1.31577060e-01
C     7.300666274099999e+00   5.367624464041040e+00   1.016093250400000e+01 -2.03161646e+00   1.58688903e+00  -1.93819200e-02
C     7.402326374400000e+00   4.451243433663827e+00   6.587443696000000e+00 -1.94505021e+00  -2.85804356e+00  -1.28702370e-01
C     8.575334955150000e+00   5.149773258035406e+00   6.524125496000000e+00  1.73494107e+00   1.79300338e+00   2.76843430e-01
C     8.480419464600001e+00   4.664219846671585e+00   1.016537956800000e+01  1.71844616e+00  -1.12655310e-01   4.64635050e-01
C     9.716640394424999e+00   5.361135734019866e+00   1.022130168000000e+01  3.18429320e-01   1.41822981e+00  -2.48848750e-01
