72
Lattice="7.395 0 0 3.6975 6.40425786098592 0 0 0 13.6 " PBC="1 1 1" Properties=species:S:1:pos:R:3:force:R:3 Energy="-579.76831043"
C     3.702816894075000e+00   6.391143284796871e+00   1.344067124000000e+01 -4.43052300e-02  -7.08209370e-01   4.86337520e-01
C     1.199214907800000e+00   7.161867475470709e-01   1.343152347200000e+01  1.31460602e+00  -1.34355846e+00   6.48767450e-01
C     1.226820183975000e+00   7.504623996563694e-01   3.394228840000000e+00  1.77674168e+00  -9.23345600e-01   6.25976290e-01
C     2.484310317000000e+00   1.467544782665161e+00   3.392890600000000e+00  1.91620730e-01  -1.26513232e+00   3.44593900e-01
C     6.088987315650000e+00   6.374296564283248e+00   1.349566352000000e+01  3.37827900e+00   5.78287920e-01  -3.50018810e-01
C     3.709791044625000e+00   7.302970567622731e-01   1.337579679200000e+01 -9.53140870e-01  -2.44714140e+00   1.69586960e+00
C     3.724630258350000e+00   7.360198375433904e-01   3.471453856000000e+00 -1.53553066e+00  -1.73202530e-01  -3.24206500e-02
C     4.901361223275000e+00   1.456769682858290e+00   3.488498327999999e+00  2.93341010e+00   3.44911690e-01   4.98369470e-01
C     8.663565957299999e+00   6.391646979677560e+00   1.344685121600000e+01 -1.56719080e+00  -6.79758700e-01   3.17719410e-01
C     6.198748268699999e+00   6.853143821071548e-01   1.350157802400000e+01 -2.27311803e+00   1.38789731e+00   3.75973030e-01
C     6.182728184399999e+00   7.577077287011232e-01   3.499082800000000e+00  1.05246080e-01  -6.42692420e-01   2.52980010e-01
C     7.454541138300000e+00   1.478169446454901e+00   3.431825088000000e+00 -3.33796460e+00  -1.50038874e+00  -3.39120200e-02
C     1.257685028250000e+00   2.112242464828096e+00   1.346170377600000e+01 -1.94222795e+00   9.30587400e-01  -4.51871590e-01
C     2.455552086375000e+00   2.818917544558916e+00   1.327442633600000e+01  2.75377680e-01   6.74259970e-01   1.88344320e+00
C     2.520605827424999e+00   2.866277287603930e+00   3.433293480000000e+00 -2.42650156e+00   1.42315230e+00  -2.05875920e-01
C     3.744699881624999e+00   3.610305905771565e+00   3.480376544000000e+00 -1.01909927e+00  -2.13112149e+00   7.06581070e-01
C     3.690193961850000e+00   2.131339577511144e+00   1.346432368000000e+01  2.29826460e-01  -3.60039740e-01  -1.63237063e+00
C     4.929696459900001e+00   2.819151748268856e+00   1.352828638400000e+01 -1.01229818e+00   1.14595985e+00   1.04793999e+00
C     4.951244010900000e+00   2.885323614522149e+00   3.585650744000000e+00  7.21691200e-02  -4.26841100e-02  -1.67934910e+00
C     6.196880402625000e+00   3.584607540256743e+00   3.472729400000000e+00 -2.04362485e+00   7.36575300e-01   3.44443770e-01
C     6.124153831425000e+00   2.152488294199643e+00   7.925631200000000e-02  2.47811426e+00  -2.60321837e+00  -1.43087969e+00
C     7.395656528100000e+00   2.829902704023595e+00   2.178733600000000e-02  1.98128670e-01  -8.76271700e-01  -3.83656320e-01
C     7.373813768700000e+00   2.866403003185722e+00   3.391885696000000e+00  2.31088247e+00   1.07861176e+00   4.60160560e-01
C     8.586337199175000e+00   3.591394260396143e+00   3.432684472000000e+00  3.02857896e+00  -1.83836030e-01  -5.60916030e-01
C     9.820914035624998e+00   4.249505532561689e+00   1.334021592800000e+01  2.66374761e+00  -7.73619330e-01   5.95008640e-01
C     3.711953675400000e+00   4.963916571531918e+00   1.343760049600000e+01 -1.20532411e+00  -1.15379580e-01  -4.81433800e-02
C     3.710128774275000e+00   4.986453090898680e+00   3.538955824000000e+00 -2.24773530e-01   1.65087325e+00  -8.06139800e-02
C     4.911165662175000e+00   5.697245019709644e+00   3.503516400000000e+00  1.68913081e+00   1.71116394e+00  -4.59690680e-01
C     4.933231011075000e+00   4.251283994969412e+00   1.359658993600000e+01 -9.08880340e-01  -4.85436290e-01  -6.13449220e-01
C     6.142347380175000e+00   4.944495339358576e+00   5.906017600000000e-02  1.00686210e+00   1.02467633e+00  -1.00789895e+00
C     6.179286995100000e+00   5.024074327314042e+00   3.468235824000000e+00 -5.88803000e-02  -8.82675690e-01   4.18498350e-01
C     7.431181960200000e+00   5.710953525786709e+00   3.524045600000000e+00 -1.44633617e+00   1.24871084e+00  -1.21542570e+00
C     7.409120974350000e+00   4.216110209737827e+00   1.358137004000000e+01 -1.43332210e+00   1.34586387e+00   5.39931030e-01
C     8.622220401374999e+00   4.905528888579719e+00   1.348857356800000e+01 -2.08147690e-01   3.22360022e+00  -6.84431420e-01
C     8.635996398974999e+00   5.026879200128986e+00   3.434375904000000e+00  6.84323960e-01  -1.34058982e+00   1.29401992e+00
C     9.886824006749999e+00   5.716737979571019e+00   3.576035952000000e+00 -6.58779780e-01   9.66797840e-01  -1.30255612e+00
C     7.391559217425000e+00   7.903494625026001e-04   7.091051151999999e+00  4.98501050e-01   1.54454023e+00  -1.64076304e+00
C     1.269343097850000e+00   7.275517435454268e-01   6.875556703999999e+00 -1.84177650e+00   2.99128920e-01  -7.01454000e-03
C     1.273261634400000e+00   6.863468765593440e-01   1.020763667200000e+01 -4.57045729e+00  -7.76420380e-01  -4.79985410e-01
C     2.447557425825000e+00   1.375077866192230e+00   1.022699396000000e+01  8.97783150e-01   1.53106408e+00  -6.60276730e-01
C     2.471538856200000e+00   1.340667340412400e-02   6.718997992000000e+00  5.23201800e-01  -1.38214960e-01   7.27388000e-03
C     3.708665636550000e+00   7.223686495741717e-01   6.597039855999999e+00  3.13019000e-02   4.30956350e-01   1.21728761e+00
C     3.663861439125000e+00   6.648158256766027e-01   1.029940131200000e+01  1.32712560e+00   1.04790345e+00   1.09387148e+00
C     4.915108824075000e+00   1.381996514043546e+00   1.035663759200000e+01 -8.35268740e-01   9.92993150e-01  -2.28319709e+00
C     4.943072831700000e+00   1.104939417101520e-02   6.864435032000000e+00 -1.28887694e+00   7.78252420e-01  -1.12303565e+00
C     6.141123729525000e+00   7.059816266897394e-01   6.946055567999999e+00  2.09558391e+00   1.66103999e+00   6.05119270e-01
C     6.134164442925000e+00   6.990839848042051e-01   1.025053732800000e+01  2.22743400e-02  -1.12559074e+00   6.61526290e-01
C     7.320253447574999e+00   1.431170199084826e+00   1.014834475200000e+01  3.49414589e+00  -3.27980816e+00   5.23583130e-01
C     8.625009129824999e+00   2.177657539930072e+00   6.780649103999999e+00  1.04867702e+00  -2.01334158e+00   7.49674150e-01
C     2.470985821125000e+00   2.867154286675279e+00   6.744651808000000e+00  4.38048190e-01   1.68952190e-01  -9.46159230e-01
C     2.436726782775000e+00   2.821943044057137e+00   1.010112160800000e+01  6.21216680e-01  -3.24902730e-01   4.82484180e-01
C     3.680863801275000e+00   3.546877495500340e+00   1.007705124000000e+01 -5.15073780e-01  -1.72632102e+00   2.21332840e-01
C     3.700847753475000e+00   2.163053654561600e+00   6.565227824000000e+00  3.04372390e-01  -3.54550060e-01   1.43121951e+00
C     4.943632818075000e+00   2.900071275479578e+00   6.700755632000000e+00  1.40497150e-01  -2.56511504e+00   5.89632800e-01
C     4.928692588650000e+00   2.807379441470604e+00   1.008670302400000e+01 -6.01083310e-01   6.18968800e-02   1.32776678e+00
C     6.158193497100000e+00   3.513053599740485e+00   1.015064777600000e+01 -7.81146120e-01   1.05510475e+00   5.66739720e-01
C     6.193607227725000e+00   2.163175079290625e+00   6.897818544000000e+00 -2.25458198e+00  -1.27130498e+00  -1.09839458e+00
C     7.397206483124999e+00   2.833558574622976e+00   6.863362671999999e+00  4.56106860e-01   2.81537070e+00  -1.64281160e-01
C     7.367654621100000e+00   2.781305402189715e+00   1.018629895200000e+01  2.08525640e-01   2.98768696e+00  -3.68068000e-01
C     8.605596589274999e+00   3.520688691918598e+00   1.015928527200000e+01  2.48704800e-01   5.06907770e-01   7.79168390e-01
C     2.502845736600000e+00   4.288874875202517e+00   6.842454983999999e+00 -2.37191611e+00   1.93793570e-01   6.02349650e-01
C     3.672249994350000e+00   5.011015405111716e+00   6.980387407999999e+00  2.75769483e+00  -1.16863169e+00  -8.38576600e-01
C     3.628903647225000e+00   4.935047265822874e+00   1.015304287200000e+01  3.06677347e+00   8.67728480e-01  -2.18832850e-01
C     4.907453704950000e+00   5.651112652683499e+00   1.017040408800000e+01 -1.24744310e-01   7.19812810e-01   7.04949920e-01
C     4.944300660524999e+00   4.266016862091184e+00   6.819108271999999e+00 -8.07042420e-01   2.32038836e+00   6.59338200e-02
C     6.183087618375000e+00   4.973676340297666e+00   6.744965560000000e+00 -1.25049904e+00   1.39006237e+00   8.11984430e-01
C     6.131130089550000e+00   4.965375589557583e+00   1.029436604800000e+01  1.12080938e+00  -1.05847826e+00  -5.87828580e-01
C     7.393782302325000e+00   5.689182315234218e+00   1.044727520000000e+01 -1.04643613e+00  -1.81170596e+00  -1.46557442e+00
C     7.391287340249999e+00   4.316749791793639e+00   6.803264000000000e+00  1.53597890e+00  -2.14196141e+00  -2.86709200e-02
C     8.641425918900000e+00   5.024729995233749e+00   6.864373831999999e+00 -3.71271900e-02  -1.88493850e+00  -1.37237510e-01
C     8.637714294449999e+00   4.961215383651727e+00   1.034713989600000e+01 -1.33507124e+00  -9.07075470e-01  -4.37584740e-01
C     9.856385114475000e+00   5.653374444431915e+00   1.029191288000000e+01 -1.24621220e+00   1.14599182e+00  -3.60925960e-01
