72
Lattice="7.395 0 0 3.6975 6.40425786098592 0 0 0 13.6 " PBC="1 1 1" Properties=species:S:1:pos:R:3:force:R:3 Energy="-581.29117621"
C     1.104412867642500e+01   6.366929554339154e+00   1.341381137600000e+01  1.50308181e+00  -2.11138380e-01  -2.22980610e-01
C     1.209127794375000e+00   6.775426230663091e-01   1.336716405600000e+01 -2.58882320e-01  -9.42783330e-01   1.01796400e-01
C     1.247308364250000e+00   7.495469109952825e-01   3.448251712000000e+00  4.69133960e-01   5.72389440e-01   1.86790630e-01
C     2.481879617475000e+00   1.474714029126538e+00   3.424282120000000e+00  1.31063254e+00  -2.11861582e+00   4.35896600e-01
C     6.152341278974999e+00   6.349874887572817e+00   1.339416100800000e+01 -4.85520600e-01   1.00568910e+00   4.66511970e-01
C     3.682498761825000e+00   6.637805133509550e-01   1.341983808000000e+01 -2.94622690e-01   4.69575000e-02  -7.99930250e-01
C     3.766533840975000e+00   7.882997797745070e-01   3.531369744000000e+00 -1.79056220e+00  -1.50239396e+00  -3.52544450e-01
C     4.991325021824999e+00   1.507316056529283e+00   3.597853208000000e+00 -1.31104578e+00  -3.78373320e-01  -7.47743070e-01
C     8.609170999500000e+00   6.388790424501686e+00   1.337784359200000e+01  9.66148680e-01  -1.11363536e+00   4.65226860e-01
C     6.148008955199999e+00   7.004829949337220e-01   1.342915176800000e+01 -4.13315300e-01   5.37888100e-02   3.56393900e-02
C     6.173703548250000e+00   7.857446730161028e-01   3.585122248000000e+00  1.85459477e+00  -7.46009430e-01  -5.47180580e-01
C     7.428006066525000e+00   1.484935737011727e+00   3.474120680000000e+00 -9.89460710e-01   9.78260300e-02   3.70223290e-01
C     8.592159171750000e+00   2.093513084631368e+00   1.333005564000000e+01  1.38931036e+00  -2.15247070e-01   6.97563410e-01
C     2.454966550275000e+00   2.795535599112056e+00   1.327093399200000e+01 -2.66856620e-01  -1.17734060e-01   9.77985400e-02
C     2.501900877450000e+00   2.848481456075455e+00   3.466277832000000e+00 -9.01791070e-01   2.49966096e+00   1.88348390e-01
C     3.689056425975000e+00   3.595617612284498e+00   3.583201520000000e+00  2.22128227e+00   2.05774040e-01  -6.97620230e-01
C     3.679723085550000e+00   2.077167241124976e+00   1.330217196800000e+01  9.64484940e-01   9.24639090e-01   1.47686585e+00
C     4.927366628175000e+00   2.815602572605423e+00   1.351376471200000e+01 -7.88840680e-01   4.36279700e-01  -9.96922060e-01
C     4.981414612575000e+00   2.905063778736920e+00   3.519147152000000e+00 -8.10189590e-01   1.83492425e+00   7.78837310e-01
C     6.206908281450000e+00   3.668348271139952e+00   3.523477392000000e+00 -1.31689331e+00  -1.85861350e+00   2.91613600e-02
C     6.179355509774999e+00   2.140913494713794e+00   1.353523000000000e+01 -1.76328223e+00  -1.88698164e+00   1.49064800e-02
C     7.396664466600000e+00   2.791263895076857e+00   1.355335866400000e+01  5.66523320e-01   2.17278442e+00  -5.07129790e-01
C     7.409878703024999e+00   2.925284070163455e+00   3.482980128000000e+00  1.57172538e+00  -1.03799240e-01  -2.20691790e-01
C     8.687570755874999e+00   3.611539365835401e+00   3.463765504000000e+00 -1.27626757e+00  -8.95610340e-01   3.27240010e-01
C     2.482793306700000e+00   4.217220708050751e+00   1.327608526400000e+01 -7.03907300e-01  -4.67829610e-01   5.56452860e-01
C     3.690717379950000e+00   4.916633807666382e+00   1.337163546400000e+01 -4.87718050e-01   2.07954531e+00   3.44462200e-02
C     3.698516109975000e+00   5.034355530754751e+00   3.612355976000000e+00  3.19226640e-01  -2.61546410e-01  -5.75833980e-01
C     4.963893232350000e+00   5.737146300008324e+00   3.561873592000000e+00 -2.63999878e+00   1.07386687e+00  -1.50012960e-01
C     4.908618935100000e+00   4.264684584328569e+00   1.348024574400000e+01  1.12543419e+00  -2.03030267e+00   2.49338220e-01
C     6.155388758475000e+00   4.952848284800216e+00   1.352663765600000e+01  6.47403840e-01  -5.09627400e-01   2.21507900e-02
C     6.157945690649999e+00   5.075035953064678e+00   3.557741776000000e+00  2.33562582e+00  -1.31123635e+00  -4.82732600e-01
C     7.418025145950000e+00   5.716290962372391e+00   3.504090864000000e+00  6.33077640e-01   2.63612603e+00   5.68550620e-01
C     7.418379329475000e+00   4.239217860820543e+00   1.358024708800000e+01 -3.60354700e-01  -2.11384890e-01  -1.15818346e+00
C     8.657387989425001e+00   4.933317603860046e+00   1.334729976000000e+01 -1.37484419e+00   8.98214330e-01   9.95957280e-01
C     8.664468184275000e+00   5.020848566672539e+00   3.542975712000000e+00 -7.06985150e-01   2.04470400e-02  -5.74688430e-01
C     9.861580582649999e+00   5.758220535177911e+00   3.546161648000000e+00  1.04418359e+00   2.52907890e-01   6.27250560e-01
C     2.606064555000000e-02   2.654001308278321e-02   7.053039151999999e+00 -1.38541141e+00   1.22919658e+00  -5.71324730e-01
C     1.248566401650000e+00   7.138745542892965e-01   6.876367264000000e+00 -3.19435260e-01   1.73732704e+00  -1.80234880e-01
C     1.215805923075000e+00   6.543045172509847e-01   1.017620081600000e+01 -1.87394981e+00   3.05871490e-01   4.73450900e-01
C     2.410996176075000e+00   1.379093079700136e+00   1.020838467200000e+01  1.66404196e+00  -1.05316730e-01   2.19945420e-01
C     2.453173965300000e+00   1.931690681280360e-02   6.741250856000000e+00  1.69795629e+00   4.56647010e-01   3.21883200e-01
C     3.677472195450000e+00   7.835752947086064e-01   6.685124608000000e+00  5.45273100e-01  -8.55177960e-01   2.35086830e-01
C     3.671334863100000e+00   6.846492358858153e-01   1.039629220000000e+01  8.39783100e-02  -1.08273685e+00  -1.70950728e+00
C     4.915729893150000e+00   1.383035604881331e+00   1.023062012800000e+01 -1.55624389e+00  -7.60873650e-01   9.81436040e-01
C     4.912103939774999e+00   3.913264127032260e-02   6.807243903999999e+00 -6.39515480e-01   9.10080300e-02   6.37239690e-01
C     6.126458926874999e+00   7.230343721787186e-01   6.995458383999999e+00  1.93129858e+00   8.23003630e-01  -8.60387940e-01
C     6.124216171274999e+00   6.436427087656567e-01   1.030587804000000e+01 -3.30682540e-01  -1.36540610e-01  -6.60054280e-01
C     7.325529558225000e+00   1.342984593033884e+00   1.018961830400000e+01  2.30834861e+00   4.38896780e-01  -3.85028400e-02
C     1.261108839300000e+00   2.176147479969263e+00   6.806662912000000e+00  3.25368210e-01  -1.26788744e+00   2.24883900e-02
C     2.478641605800000e+00   2.931861178943096e+00   6.674700616000000e+00  2.76889410e-01  -7.32435500e-01   1.30062102e+00
C     2.423777361300000e+00   2.796306095375193e+00   1.011586509600000e+01  6.29220500e-02   3.07238390e-01   2.34604870e-01
C     3.680851895325000e+00   3.493542707957102e+00   1.007382586400000e+01 -1.89048063e+00   9.01874750e-01   7.59796090e-01
C     3.722414235675000e+00   2.214663647377982e+00   6.655987015999999e+00 -1.72963141e+00  -1.36675865e+00   2.24249380e-01
C     4.935674023274999e+00   2.873141243093121e+00   6.732343672000000e+00  1.82231618e+00   8.90943170e-01   4.76482140e-01
C     4.869997697175000e+00   2.791930258107191e+00   1.014615569600000e+01  2.22461911e+00   1.38825950e-01  -4.25033700e-02
C     6.114608993999999e+00   3.514689247197929e+00   1.021182574400000e+01  4.77595820e-01  -4.15697410e-01  -2.12262560e-01
C     6.177983367525000e+00   2.153281269407869e+00   6.869241408000001e+00 -9.19234020e-01  -8.96385600e-01   1.76487780e-01
C     7.417321326825000e+00   2.823823718420305e+00   6.892797831999999e+00 -3.72763300e-02   2.05941860e+00  -4.84413970e-01
C     7.362081749100000e+00   2.766773884935060e+00   1.018175723200000e+01 -1.37820085e+00   7.89327200e-01   3.36338560e-01
C     8.574689926274999e+00   3.502704254996146e+00   1.019987909600000e+01  6.20789810e-01  -1.00930163e+00  -2.85488000e-01
C     9.896047679324999e+00   4.333608296141725e+00   6.909126128000000e+00 -1.17975322e+00  -4.69720300e-02  -7.36720340e-01
C     3.720647902950000e+00   5.048417167610217e+00   6.988155863999999e+00  1.35964981e+00  -2.24667619e+00  -9.29934540e-01
C     3.677569957350000e+00   4.930183296020783e+00   1.016545572800000e+01 -3.69197890e-01  -8.05961800e-02   2.40617570e-01
C     4.915515142349999e+00   5.652075596895328e+00   1.021521350400000e+01 -6.05964810e-01  -3.45105270e-01  -1.61268190e-01
C     4.979112586050000e+00   4.291451180054439e+00   6.801777383999999e+00 -9.40885900e-01   1.13809071e+00   5.84324720e-01
C     6.227876027475000e+00   5.003544005764505e+00   6.792552504000001e+00 -1.78600787e+00  -4.00602320e-01   1.96569800e-02
C     6.132646545224999e+00   4.946330671576094e+00   1.027404261600000e+01  6.88063140e-01  -1.09192049e+00  -1.28592200e-02
C     7.393456108875000e+00   5.615225305041152e+00   1.038765973600000e+01 -2.17153600e+00   2.20859294e+00  -2.96873060e-01
C     7.432575510975000e+00   4.279010204693024e+00   6.827511032000000e+00 -2.18481790e-01  -6.27655680e-01   2.63495800e-02
C     8.622873527774999e+00   5.016692971832343e+00   6.868209168000000e+00  1.18158937e+00   3.48328000e-03  -2.50963000e-03
C     8.571168279375000e+00   4.901815956042807e+00   1.032705582400000e+01  1.88780439e+00   4.65680450e-01  -3.43736570e-01
C     9.822697968449999e+00   5.626512745476823e+00   1.030203481600000e+01  1.47300300e-01  -5.40539980e-01  -3.89639020e-01
