72
Lattice="7.395 0 0 3.6975 6.40425786098592 0 0 0 13.6 " PBC="1 1 1" Properties=species:S:1:pos:R:3:force:R:3 Energy="-582.7459063"
C     3.691352980200000e+00   6.306005272933767e+00   1.353330546400000e+01 -4.30297140e-01  -6.92122190e-01  -3.06010210e-01
C     1.237681959975000e+00   5.845470351070351e-01   1.354828015200000e+01 -5.67968440e-01   6.72990760e-01  -5.98243000e-02
C     1.290170043075000e+00   8.777526603707863e-01   3.499184528000000e+00  7.21721620e-01  -1.25726256e+00  -2.23085280e-01
C     2.534897108625000e+00   1.561616606157808e+00   3.550066344000000e+00 -5.21619740e-01   1.06579048e+00  -6.44027450e-01
C     6.168628359750000e+00   6.289777780112627e+00   1.351942843200000e+01 -9.01818050e-01   4.85835560e-01  -4.39424100e-02
C     3.687654814650000e+00   6.066024666233533e-01   1.350696090400000e+01 -3.18393680e-01  -2.78182710e-01  -6.44979900e-02
C     3.753676043550000e+00   8.501730441095893e-01   3.497375184000000e+00  9.76265600e-02   4.85032890e-01   2.18294410e-01
C     4.979871386999999e+00   1.541724276776284e+00   3.496664040000000e+00  7.68301850e-01   6.05488240e-01  -5.03507070e-01
C     8.587946609999999e+00   6.276654174905915e+00   1.351278415200000e+01  4.06340420e-01   8.45116760e-01  -3.19972270e-01
C     6.118820816250000e+00   5.499897237370536e-01   1.351992007200000e+01  1.28142462e+00   1.99048847e+00   2.12459820e-01
C     6.241509116700000e+00   8.265089270614177e-01   3.439538872000000e+00 -9.96433760e-01   1.02072133e+00   2.66360030e-01
C     7.456922476200000e+00   1.559800550756448e+00   3.458408464000000e+00  3.52145020e-01  -9.28969900e-02   8.88713700e-02
C     1.228583336850000e+00   1.997878686263460e+00   1.356672637600000e+01 -9.01538930e-01   1.77598010e+00  -2.12525590e-01
C     2.453239817775000e+00   2.736548413581583e+00   1.357977340000000e+01 -3.28312930e-01   2.12488480e-01  -5.89451420e-01
C     2.532855644925000e+00   2.996315999621545e+00   3.499352080000000e+00 -1.91463010e-01   2.94988550e-01   3.06475190e-01
C     3.760840060725000e+00   3.729828442127588e+00   3.520728832000000e+00 -4.49078300e-02  -1.29518740e+00  -7.80086220e-01
C     3.689288222250000e+00   2.016977592138709e+00   1.349630625600000e+01 -1.04240339e+00   3.12257840e-01   9.83521510e-01
C     4.897174581000000e+00   2.711177113515671e+00   1.357833547200000e+01  8.97732050e-01   8.99694720e-01  -6.08364130e-01
C     4.967683354725000e+00   2.981768855977712e+00   3.468403104000000e+00  1.05628243e+00  -7.36101070e-01   7.23475800e-01
C     6.231915176474999e+00   3.633995767936334e+00   3.502378080000000e+00 -1.01792330e-01   2.77078191e+00  -4.45332290e-01
C     6.120506802300000e+00   1.989883738836193e+00   1.354894029600000e+01  9.52484280e-01   7.79406570e-01  -8.32264300e-02
C     7.360638947624999e+00   2.761543463498219e+00   1.351993421600000e+01  5.06252510e-01  -1.74834739e+00   6.08429640e-01
C     7.485804388199999e+00   2.972075307238237e+00   3.479453375999999e+00 -1.44585603e+00   2.83216300e-02  -4.48410000e-02
C     8.680906492800000e+00   3.714933611324536e+00   3.468313344000000e+00  9.59798260e-01  -3.82215030e-01   4.78208550e-01
C     2.425146434625000e+00   4.177598141054138e+00   1.354768664800000e+01  5.76149460e-01  -3.34115270e-01  -4.58871980e-01
C     3.678049042425000e+00   4.895059464000506e+00   1.350212800800000e+01 -3.25697700e-02  -1.43911681e+00   6.24707400e-01
C     3.779801432325000e+00   5.132109482304005e+00   3.434616760000000e+00 -1.15623000e-02   2.83700300e-02   4.03484910e-01
C     5.004209478225000e+00   5.847501077195178e+00   3.451374272000000e+00  5.48575380e-01  -2.80927930e-01   1.88122160e-01
C     4.910718116775000e+00   4.145517420241197e+00   1.355647564800000e+01 -2.54118820e-01   6.97756820e-01  -3.03431440e-01
C     6.138937212900000e+00   4.888769265972993e+00   1.350724582400000e+01 -1.59409670e-01  -1.07645559e+00   5.05744630e-01
C     6.246249311700000e+00   5.115178994097572e+00   3.484855160000000e+00 -7.63550650e-01  -6.43836130e-01  -7.52366000e-02
C     7.461139105199999e+00   5.861433091871558e+00   3.478314512000000e+00 -4.88989300e-02  -1.83809356e+00   3.58525440e-01
C     7.373927171025000e+00   4.197255113959308e+00   1.353670804800000e+01 -9.69803890e-01  -1.86782278e+00  -5.97424890e-01
C     8.576691974625000e+00   4.890703672059606e+00   1.347185264000000e+01  1.39410224e+00  -1.18986041e+00   8.91960370e-01
C     8.688322457624999e+00   5.136262259270743e+00   3.516299040000000e+00  3.55578070e-01  -1.40111380e-01  -7.96221740e-01
C     9.944548378424999e+00   5.818040210187606e+00   3.446019951999999e+00 -7.50931240e-01   4.10949040e-01   2.32839910e-01
C     7.438260047474999e+00   9.571003265323501e-02   6.933786191999999e+00  1.23821700e-02   1.57051400e-01  -2.14064500e-02
C     1.280250020325000e+00   8.154519118235489e-01   6.930832680000000e+00 -1.04166445e+00   6.02380600e-02  -5.53633900e-02
C     1.155308167575000e+00   5.745671519986398e-01   1.006291635200000e+01 -2.63988950e-01   5.89277300e-01   4.08989590e-01
C     2.386374560550000e+00   1.283205777189336e+00   1.011777535200000e+01 -2.24561650e-01   4.56376830e-01   5.37331900e-02
C     2.491250191725000e+00   1.170729717671514e-01   6.861639144000000e+00  8.58149430e-01  -7.93999280e-01   1.99144400e-01
C     3.754858688924999e+00   7.878087012818022e-01   6.844229783999999e+00 -7.06878520e-01   2.38856900e-01   1.80171560e-01
C     3.608230259175000e+00   5.815880118054007e-01   1.016698341600000e+01  5.08973800e-02   2.15881200e-02  -6.20020200e-01
C     4.826426357174999e+00   1.297589548215160e+00   1.008637132000000e+01  1.57896652e+00   1.87993160e-01   5.06192560e-01
C     4.990924619550000e+00   1.108469444033952e-01   6.880599311999999e+00 -8.27999600e-02  -9.34594240e-01   1.82351760e-01
C     6.213122484825000e+00   8.387625138378487e-01   6.948519616000000e+00 -6.79673300e-02  -1.20379621e+00  -6.14953560e-01
C     6.105675094500000e+00   5.830955100630660e-01   1.006637360800000e+01 -1.13047570e+00   6.77650490e-01   9.03067000e-03
C     7.324361481000000e+00   1.331025858289327e+00   1.004965295200000e+01  1.58308800e-02  -1.46277613e+00  -1.85075860e-01
C     8.652957349125000e+00   2.236624744176023e+00   6.974470048000001e+00  2.19223660e-01  -3.55393980e-01  -8.71515140e-01
C     2.494802010225000e+00   2.912629897057881e+00   6.892869367999999e+00  2.49437520e-01   3.17476400e-01   5.55413340e-01
C     2.394596580375000e+00   2.708300641097852e+00   1.010559505600000e+01 -4.50541350e-01   3.91308400e-01   8.27067000e-02
C     3.610780203075000e+00   3.443591417926460e+00   1.007933740000000e+01  5.11188870e-01  -4.78112520e-01   1.13717380e-01
C     3.728287307700000e+00   2.188997751450510e+00   6.873547304000000e+00  5.96985210e-01   1.72691279e+00  -7.74754000e-02
C     4.960514087100000e+00   2.951153621490875e+00   6.892284568000000e+00 -2.70733020e-01  -9.93279680e-01  -4.28472600e-02
C     4.851562553775000e+00   2.742937813563347e+00   1.008843403200000e+01 -2.66397670e-01  -1.17908842e+00  -3.13215680e-01
C     6.097217137200000e+00   3.436072370900769e+00   1.004067940000000e+01 -7.60682820e-01  -6.11220360e-01  -3.39660000e-03
C     6.200706131924999e+00   2.245977138099295e+00   6.901437504000000e+00 -6.87643600e-02   2.03285700e-01   2.09650720e-01
C     7.433850630824999e+00   2.944917347314543e+00   6.918687200000000e+00 -6.23544500e-01   1.11400968e+00   5.88041700e-02
C     7.324255177875000e+00   2.745507457987094e+00   1.000539828000000e+01  1.35785710e-01  -7.67503230e-01   9.38360940e-01
C     8.551826324099999e+00   3.428825696961866e+00   1.011102825600000e+01  2.02295990e-01   7.52766050e-01  -5.42896530e-01
C     9.885223174124999e+00   4.329824404427722e+00   6.939559392000000e+00  4.87640580e-01   1.17347778e+00  -6.40252370e-01
C     3.740521891500000e+00   5.069746804583261e+00   6.907076335999999e+00 -1.25221008e+00  -1.29315600e-02   2.78733150e-01
C     3.621104399550000e+00   4.862288043977364e+00   1.003197948000000e+01 -2.57937740e-01  -6.43279160e-01   5.38120230e-01
C     4.841860424700000e+00   5.554681564637805e+00   1.007565792000000e+01  5.11899990e-01   2.50589000e-01  -3.43904180e-01
C     4.957560154350000e+00   4.361664773443177e+00   6.917969936000000e+00  1.89241940e-01   4.48104890e-01  -3.56533720e-01
C     6.179235304050000e+00   5.101891183719331e+00   6.890914640000000e+00 -1.34287840e-01  -4.56794660e-01  -2.08530790e-01
C     6.073777575450000e+00   4.824019529220092e+00   1.005768116800000e+01  1.90113400e-02   1.88875262e+00   5.29840530e-01
C     7.287575423250000e+00   5.568951660086615e+00   1.013370149600000e+01  7.92627490e-01  -5.71867240e-01  -1.71959950e-01
C     7.397939216699999e+00   4.393059342068998e+00   6.882725536000000e+00  1.35075101e+00  -8.15924960e-01   1.43384890e-01
C     8.660074888724999e+00   5.076846244633964e+00   6.901506728000000e+00  1.07884920e-01   3.90065200e-02  -1.03854100e-02
C     8.527839236549999e+00   4.866184778714860e+00   1.011546539200000e+01  1.04745272e+00  -3.45601790e-01  -3.49135300e-02
C     9.802082039549999e+00   5.558098364291274e+00   1.006817642400000e+01 -1.50302679e+00   8.86333440e-01   1.97250540e-01
