72
Lattice="7.395 0 0 3.6975 6.40425786098592 0 0 0 13.6 " PBC="1 1 1" Properties=species:S:1:pos:R:3:force:R:3 Energy="-575.97942126"
C     3.656562832950000e+00   6.221753162060437e+00   3.554992400000000e-01 -1.87997167e+00  -1.95126648e+00  -1.72288577e+00
C     1.111440583875000e+00   5.216503063233463e-01   3.133690240000000e-01  4.83811925e+00  -1.97262248e+00  -1.20043390e-01
C     1.430933239500000e+00   1.041270462905072e+00   3.445389184000000e+00 -1.65504861e+00  -1.02762680e-01  -4.19923840e-01
C     2.699244513000000e+00   1.678181720276662e+00   3.601304888000000e+00 -2.16796629e+00   2.86861570e+00  -1.00592292e+00
C     6.081907490550000e+00   6.169396432777578e+00   1.724437840000000e-01  1.53793025e+00  -5.90509800e-02   1.63341930e-01
C     3.659327490675000e+00   4.738800503495059e-01   2.967658720000000e-01  8.24722010e-01  -2.23824890e-01  -1.79790976e+00
C     3.896693827575000e+00   1.023096267822229e+00   3.444666752000000e+00  1.91384434e+00   1.12592966e+00  -9.48153400e-02
C     5.098270883250000e+00   1.816981585131913e+00   3.351114392000000e+00  2.32351032e+00  -1.46481899e+00  -1.34207229e+00
C     8.646325254299999e+00   6.157774113698408e+00   1.418163120000000e-01 -1.45459136e+00   1.84099236e+00  -6.81644300e-02
C     6.179545154550000e+00   5.800856369540233e-01   1.194940880000000e-01 -2.52831141e+00  -3.29063009e+00   9.07840480e-01
C     6.384351639225000e+00   1.118499216311077e+00   3.166629440000000e+00 -1.93449718e+00  -2.10669700e+00   8.71791380e-01
C     7.596455588324999e+00   1.849371823727228e+00   3.369587544000000e+00  1.22813000e-03  -5.05359493e+00  -1.80477570e-01
C     1.195712007225000e+00   1.905844697621865e+00   3.990263120000000e-01  1.08746720e-01   5.10754710e-01  -1.30050363e+00
C     2.462958992325000e+00   2.570187184600035e+00   5.217317680000000e-01 -1.07312144e+00   1.84290916e+00  -1.20564080e+00
C     2.679418813800000e+00   3.178163940917566e+00   3.528588952000000e+00 -6.60521090e-01  -1.93208689e+00   4.01702000e-02
C     3.915942568875000e+00   3.876864566846272e+00   3.325043192000000e+00 -1.94355564e+00  -3.34663760e-01  -5.69198230e-01
C     3.705283940025000e+00   1.948678551637218e+00   3.105108480000000e-01 -1.91809283e+00  -2.83630680e+00   1.33727030e+00
C     4.875158150024999e+00   2.671716318072602e+00   1.873851520000000e-01  2.11154614e+00  -2.55020349e+00  -1.33426472e+00
C     5.150698992900000e+00   3.233011286082178e+00   3.197662872000000e+00  1.33317410e-01  -9.07954520e-01   2.02104808e+00
C     6.394358849025000e+00   3.952858002953660e+00   3.313240160000000e+00 -1.59732484e+00  -2.26192950e-01   4.18038960e-01
C     6.119426614650000e+00   1.966830459902708e+00   1.442320800000000e-02  1.23000304e+00  -4.43750020e-01   5.73399410e-01
C     7.410480064425000e+00   2.608247176721386e+00   4.359588800000000e-02 -1.16196453e+00   8.64831380e-01   1.64229991e+00
C     7.557234615900000e+00   3.182620663962340e+00   3.554520888000000e+00  4.74537310e-01   2.75333269e+00  -1.17769322e+00
C     8.785651565249999e+00   3.846176964245617e+00   3.536203456000000e+00  2.85341265e+00   2.26821000e+00  -3.69887120e-01
C     2.410296017475000e+00   4.015188979597997e+00   4.926143040000000e-01  1.45288704e+00  -7.33501100e-02  -1.97442983e+00
C     3.654028344600000e+00   4.730120172391614e+00   4.038868160000000e-01  1.17261481e+00   1.22529599e+00  -1.30923347e+00
C     3.829800506325000e+00   5.244518297114297e+00   3.102125592000000e+00  4.21509370e-01   2.26310325e+00   1.14452908e+00
C     5.005281420450000e+00   6.014288637622466e+00   3.255521896000000e+00  4.19121096e+00   1.14281738e+00   6.58287100e-01
C     4.931011216950000e+00   4.013118931329909e+00   9.577609600000001e-02 -1.91867567e+00   3.73753080e+00   1.04176986e+00
C     6.183200724899999e+00   4.704946699850998e+00   1.351545818400000e+01 -2.24928602e+00   2.68626275e+00   2.02699220e+00
C     6.361166465475000e+00   5.386567810492869e+00   3.386321256000000e+00 -1.60087403e+00  -1.83390472e+00  -8.75514220e-01
C     7.625180208674999e+00   6.033042546126796e+00   3.383350472000000e+00 -1.76491437e+00   3.15828570e-01   4.89974320e-01
C     7.398099947025000e+00   4.024995051148071e+00   6.644184800000000e-02  4.92123700e-01   2.72008800e-01  -1.38840014e+00
C     8.627651178450000e+00   4.728503865792907e+00   9.638510399999999e-02  3.02618230e-01   7.18767630e-01   2.24495948e+00
C     8.817523016925000e+00   5.313670833060791e+00   3.347868208000000e+00 -1.41623210e-01  -2.06999775e+00  -2.56327310e-01
C     1.000963524907500e+01   5.975048789075566e+00   3.076235816000000e+00  1.18663675e+00   2.91035577e+00   1.55432458e+00
C     7.315629169199999e+00   2.244896035329948e-01   6.438432575999999e+00  2.30252880e+00  -1.30553726e+00   4.40933530e-01
C     1.198544551050000e+00   9.226036634843029e-01   6.538340352000001e+00  1.11389970e-01  -1.67040418e+00  -2.51147600e-02
C     1.096442007900000e+00   4.260333915793957e-01   1.021730912800000e+01  8.03285730e-01  -9.74912600e-01   1.10655551e+00
C     2.387276085000000e+00   1.149540205860446e+00   1.046889471200000e+01 -3.39361643e+00  -1.95478260e+00  -5.08635870e-01
C     2.443943341425000e+00   1.225687216071318e-01   6.518890040000000e+00 -7.59324500e-01   3.87076637e+00   5.53687080e-01
C     3.636010538024999e+00   9.304293463763299e-01   6.593312912000000e+00 -1.05842598e+00   7.78113450e-01  -5.09617450e-01
C     3.563808198375000e+00   4.240339182329250e-01   1.044635679200000e+01  1.37260790e+00  -5.10965590e-01  -1.62247008e+00
C     4.794592693949999e+00   1.079440224006144e+00   1.025898483200000e+01  5.33837400e-02   1.80114368e+00   1.25938781e+00
C     4.804520777250000e+00   2.049792881328192e-01   6.364536568000000e+00  2.12083556e+00  -6.31436710e-01   1.45010328e+00
C     6.065535995849999e+00   8.517851238981083e-01   6.437866951999999e+00  1.69285280e-01   1.94398743e+00  -2.48286000e-02
C     5.998997153924999e+00   3.588328093860510e-01   1.014446412800000e+01  1.35869736e+00   1.32432170e+00   3.77799040e-01
C     7.242901155974999e+00   1.082928303049593e+00   1.018155676800000e+01 -1.86932410e-01   2.85009940e-01  -2.93840110e-01
C     8.631836674499999e+00   2.335137664324265e+00   6.634283456000000e+00 -8.27101030e-01  -1.99128910e-01  -3.26433340e-01
C     2.412187732425000e+00   3.125718640748504e+00   6.609167792000000e+00  1.04506769e+00  -1.30916151e+00   1.12284087e+00
C     2.341342449225000e+00   2.518331652537301e+00   1.056123191200000e+01 -1.14664004e+00   2.51957124e+00  -1.36684659e+00
C     3.561205528125000e+00   3.290106717883385e+00   1.045174375200000e+01  6.62073070e-01  -2.82610363e+00   2.67609890e-01
C     3.637077525600000e+00   2.426009856547477e+00   6.697699712000000e+00  1.40589976e+00  -2.81401667e+00  -1.14840301e+00
C     4.946541012750000e+00   3.042130203117206e+00   6.596665856000000e+00 -3.13777853e+00   1.27932191e+00  -7.47160100e-02
C     4.813779502125000e+00   2.516103098887178e+00   1.038080533600000e+01 -5.57961190e-01   1.24727694e+00  -9.74777680e-01
C     6.057040693799999e+00   3.237015740436878e+00   1.022552597600000e+01 -2.46529661e+00   1.51156368e+00  -2.42906190e-01
C     6.095054580375000e+00   2.272335398344011e+00   6.536752960000000e+00  2.12376579e+00   7.83946380e-01   5.22648200e-01
C     7.382875601699999e+00   3.001032543407699e+00   6.630901135999999e+00 -1.01561901e+00  -1.98855680e+00  -5.24668860e-01
C     7.212215714399999e+00   2.504920047854625e+00   1.017559466400000e+01  2.14595364e+00  -5.42704740e-01   9.68861680e-01
C     8.427263723925000e+00   3.192421035722919e+00   1.036437150400000e+01  3.02761965e+00   1.66527368e+00  -7.76670380e-01
C     9.839842462500000e+00   4.530923416765746e+00   6.587132120000001e+00  4.52113230e-01  -6.31137440e-01  -9.90334830e-01
C     3.708486936375000e+00   5.177925286864130e+00   6.478513272000000e+00 -1.83073882e+00   2.06509812e+00   2.47160980e-01
C     3.566656308675000e+00   4.673796581747694e+00   1.030637199200000e+01 -1.85579530e-01   1.36907560e-01   7.38826000e-03
C     4.761542072549999e+00   5.366402147385879e+00   1.022888912000000e+01  3.42400270e+00   1.69783809e+00  -2.45598870e-01
C     4.908994933874999e+00   4.506014504117327e+00   6.495514360000000e+00  1.71032564e+00  -2.57883894e+00   4.96830250e-01
C     6.167413583099999e+00   5.147500643091207e+00   6.485590847999999e+00  2.83073440e-01  -1.21345114e+00   1.11778710e-01
C     6.070287320324999e+00   4.698113676927271e+00   1.017826529600000e+01 -1.40192306e+00  -6.67590850e-01   7.20276570e-01
C     7.292233792575001e+00   5.450876165794059e+00   1.021251621600000e+01 -2.21633490e-01  -3.10944967e+00   2.02237980e-01
C     7.404674545724999e+00   4.362494445048941e+00   6.551720032000000e+00 -5.34998050e-01   4.29836418e+00  -3.94262920e-01
C     8.620122107099998e+00   5.185453171765667e+00   6.440606128000000e+00 -2.49346022e+00  -6.51354060e-01   7.41917900e-01
C     8.538254835225001e+00   4.650033711043321e+00   1.019424108000000e+01 -2.43108800e+00   2.93691300e-02   1.06553407e+00
C     9.746110541699998e+00   5.383413137113612e+00   1.023495104800000e+01 -8.23217810e-01  -1.60913576e+00  -2.39811060e-01
