72
Lattice="7.395 0 0 3.6975 6.40425786098592 0 0 0 13.6 " PBC="1 1 1" Properties=species:S:1:pos:R:3:force:R:3 Energy="-581.76997493"
C     7.400399237399999e+00   2.060339413172040e-02   1.357932065600000e+01  5.50483950e-01  -1.50781127e+00   3.33140500e-02
C     1.268303175975000e+00   6.924052404523254e-01   1.359724219200000e+01 -1.25542278e+00   8.10977960e-01  -2.62314880e-01
C     1.204569035700000e+00   7.501695329444317e-01   3.416694000000000e+00  2.85894269e+00  -1.95522465e+00  -3.00860650e-01
C     2.463466622099999e+00   1.444184995950497e+00   3.411879600000000e+00  2.91953360e-01  -1.04178673e+00  -1.75414570e-01
C     6.177512343000000e+00   6.388031135689804e+00   1.358795543200000e+01  2.77198950e-01   1.34014351e+00   9.03074800e-02
C     3.725778627900000e+00   7.378150791067056e-01   1.358206731200000e+01 -1.88275974e+00  -2.14186429e+00  -2.28682160e-01
C     3.710057930175000e+00   7.241225836742898e-01   3.400322592000000e+00 -2.24814810e+00  -1.08428988e+00   4.61523900e-02
C     4.898188953149999e+00   1.401297218083963e+00   3.412014784000000e+00  2.17184289e+00   1.04398781e+00  -1.06396690e-01
C     8.603427598800000e+00   6.395999953745002e+00   1.359209336800000e+01  1.16115339e+00   3.07488500e-02  -6.02842700e-02
C     6.142928553225000e+00   6.435194908444302e-01   1.218152000000000e-03  5.75645520e-01   3.26679463e+00  -1.48981940e-01
C     6.159193818749999e+00   6.959816982542424e-01   3.413000376000000e+00  5.56522340e-01   1.03308750e-01  -1.45133900e-01
C     7.426266762525000e+00   1.440280768231305e+00   3.393823016000000e+00 -3.09991501e+00  -1.64041733e+00   1.68144780e-01
C     1.252260278100000e+00   2.112011527289664e+00   1.357669055200000e+01 -6.79670250e-01   1.44219767e+00   3.22616980e-01
C     2.485774379100000e+00   2.836152106928540e+00   1.359498432000000e+01 -1.49275242e+00   1.07879319e+00  -5.66945860e-01
C     2.491786033425000e+00   2.831583629584109e+00   3.389960208000000e+00 -2.24575758e+00   2.72989325e+00   1.63492040e-01
C     3.678557892375000e+00   3.606822758006668e+00   3.428866408000000e+00  1.62384012e+00  -2.96331569e+00  -3.95700760e-01
C     3.703330254975000e+00   2.116685418718470e+00   1.353249762400000e+01 -1.86001900e-02   1.32987782e+00   9.79311100e-01
C     4.929085374074999e+00   2.803364420090434e+00   2.932840000000000e-02 -2.80562280e-01   2.39496819e+00  -6.51651010e-01
C     4.892441817975000e+00   2.825803146439673e+00   3.405450880000000e+00  1.64631453e+00   1.36410353e+00   3.82288600e-01
C     6.197265386325000e+00   3.513982281172764e+00   3.426473080000000e+00 -3.02520587e+00   1.40117991e+00  -2.82867830e-01
C     6.129518016524999e+00   2.118630391830552e+00   5.036896000000000e-03  1.95555151e+00  -8.09104790e-01   1.72150840e-01
C     7.379295386399999e+00   2.869626650422131e+00   1.359600676800000e+01  6.56705300e-01  -1.00634027e+00   5.53570000e-02
C     7.399439292449999e+00   2.817742939624813e+00   3.394250872000000e+00  1.06532286e+00   2.16752746e+00  -4.94816700e-02
C     8.608355072175000e+00   3.586097426805294e+00   3.372135640000000e+00  1.11642206e+00  -1.27416246e+00   5.62113950e-01
C     9.811131375000000e+00   4.302259646044761e+00   1.357679377600000e+01  3.25266807e+00  -1.79450043e+00  -2.71078300e-02
C     3.710748660150000e+00   5.002999707888983e+00   1.355905393600000e+01 -1.06699776e+00  -7.55942030e-01   3.79860720e-01
C     3.714279772649999e+00   4.991474733529284e+00   3.409828447999999e+00 -5.36461100e-02   4.18033370e-01  -1.64368800e-02
C     4.942038751875000e+00   5.703563460514320e+00   3.392512792000000e+00 -1.32385960e-01   2.55250090e-01   2.99015130e-01
C     4.940273861175000e+00   4.273129302785343e+00   1.098295200000000e-02 -8.41376360e-01  -9.71164810e-01  -1.03590870e-01
C     6.153246907649999e+00   4.989888655027676e+00   9.534687999999999e-03  6.00485370e-01  -4.01502260e-01   2.78432800e-02
C     6.170508168749999e+00   4.972938890005086e+00   3.410760184000000e+00  4.48444570e-01  -3.07838160e-01  -1.50420170e-01
C     7.410336046799999e+00   5.706386649506744e+00   3.390531000000000e+00 -1.38805587e+00   2.59942270e-01   4.41267700e-01
C     7.401135187800000e+00   4.317786897311488e+00   8.219568000000000e-03 -1.33609808e+00  -2.92482100e+00  -1.57893930e-01
C     8.611357331250000e+00   4.986015616044263e+00   1.357588257600000e+01 -1.92069150e-01   6.36599090e-01   2.48860330e-01
C     8.616302404724999e+00   5.020926186277802e+00   3.443811720000000e+00  6.93478550e-01  -2.40069410e+00  -7.47427630e-01
C     9.872262845024999e+00   5.654650684938256e+00   3.411646903999999e+00 -2.60513640e-01   2.95033731e+00   2.23663620e-01
C     3.706604465174999e+00   6.396321127276681e+00   6.819681376000000e+00 -5.06744640e-01   1.02115802e+00   2.53985450e-01
C     1.248184523850000e+00   7.289912926271976e-01   6.816316055999999e+00 -1.17355319e+00  -3.76631350e-01  -1.01864400e-01
C     1.279118585325000e+00   7.036394615051802e-01   1.019842607200000e+01 -4.18179005e+00  -5.70066890e-01   9.28846700e-02
C     2.449546643850000e+00   1.386816038296088e+00   1.018336842400000e+01  1.26987348e+00   2.19365991e+00   2.94554750e-01
C     2.459190056625000e+00   2.135775166504980e-02   6.774279000000000e+00  7.55689950e-01  -4.81306020e-01   2.73949480e-01
C     3.710399838000000e+00   6.855116332492429e-01   6.765366648000000e+00  3.36433290e-01   9.63247750e-01   8.83310300e-02
C     3.657269314275000e+00   7.005545304940183e-01   1.023960034400000e+01  2.66083774e+00  -5.39358700e-02  -6.29197850e-01
C     4.940372103750000e+00   1.414300423242907e+00   1.018784840000000e+01 -1.42760799e+00   3.34316900e-01   6.78768710e-01
C     4.979516131200000e+00   3.021785028662400e-03   6.802257600000000e+00 -2.28041795e+00  -1.03947790e-01   1.56444930e-01
C     6.164050485000000e+00   7.260751778532253e-01   6.851289408000000e+00  1.83274103e+00   5.30686400e-01  -6.51428170e-01
C     6.177311716649999e+00   7.193491700783389e-01   1.022384596800000e+01 -5.64068680e-01  -3.11056330e-01  -4.07916900e-01
C     7.372100643000000e+00   1.477057923460720e+00   1.020244500800000e+01  2.34441401e+00  -3.32913508e+00  -1.07488190e-01
C     8.616954495824999e+00   2.149769046312287e+00   6.827593040000000e+00  4.93830530e-01  -1.35401122e+00  -4.33511880e-01
C     2.453855932200000e+00   2.806487840691335e+00   6.770053480000000e+00  1.00964185e+00   1.47415521e+00   4.81947460e-01
C     2.466374077275000e+00   2.824659345985878e+00   1.018802098400000e+01 -1.03500000e-04   1.15523140e+00  -9.48720000e-03
C     3.701264424750000e+00   3.588413014319733e+00   1.018012156000000e+01 -9.16346660e-01  -2.48523810e+00   1.50964710e-01
C     3.698261315250000e+00   2.115132065974528e+00   6.765543312000000e+00 -3.11544360e-01  -3.46317240e-01   5.92510000e-02
C     4.908615311549999e+00   2.854405138425641e+00   6.794244207999999e+00  1.62776149e+00  -4.70034770e-01  -1.29979650e-01
C     4.920676075874999e+00   2.862016791019987e+00   1.020902305600000e+01  1.01133533e+00  -1.06407124e+00  -4.13142020e-01
C     6.171741617775000e+00   3.542230950252595e+00   1.019015074400000e+01 -8.55985590e-01   8.00582350e-01   3.61068000e-02
C     6.194953376550000e+00   2.175528700574830e+00   6.788131008000000e+00 -2.62821401e+00  -2.30941268e+00   4.37367110e-01
C     7.396599945224999e+00   2.824785381780563e+00   6.797988832000000e+00  7.10290700e-02   3.22031871e+00   5.09196300e-02
C     7.405756545149999e+00   2.849205393383950e+00   1.017357016800000e+01 -5.94682650e-01   9.24785350e-01   3.72220860e-01
C     8.633506650374999e+00   3.553636933501255e+00   1.021225577600000e+01  5.13205630e-01   3.03406580e-01  -2.77507810e-01
C     2.485789760700000e+00   4.239991815382924e+00   6.818606024000000e+00 -2.24786991e+00   6.69126390e-01  -2.99476110e-01
C     3.665659459425000e+00   4.982617708951483e+00   6.810452144000000e+00  2.22818397e+00  -8.17549930e-01   9.85974800e-02
C     3.684878509799999e+00   4.969865742828387e+00   1.017380721600000e+01  1.01234434e+00   7.92998810e-01   2.96547210e-01
C     4.940822644124999e+00   5.664896600918155e+00   1.021413284800000e+01 -1.20247841e+00   1.56415623e+00  -3.15474560e-01
C     4.941066235425000e+00   4.249556382369098e+00   6.813818824000000e+00 -1.62722884e+00   1.70175114e+00  -1.09134500e-01
C     6.150868749599999e+00   5.004910098008621e+00   6.810425759999999e+00 -5.13441260e-01  -7.84601680e-01  -2.98529820e-01
C     6.136124857424999e+00   4.975209903884821e+00   1.020349479200000e+01  1.58741888e+00  -8.82194250e-01   1.13175340e-01
C     7.371010767900000e+00   5.697991435963227e+00   1.022552420800000e+01  2.35093600e-01  -4.11347580e-01   1.25921880e-01
C     7.355208540300000e+00   4.297263428317860e+00   6.784670352000000e+00  2.06989999e+00  -8.30567740e-01   2.61630840e-01
C     8.618283118499999e+00   5.001233413571195e+00   6.814103879999999e+00  8.45806950e-01  -1.68675492e+00  -1.38763400e-01
C     8.615572592174999e+00   4.990327154563350e+00   1.023398626400000e+01  7.15576170e-01  -4.11094190e-01  -3.10291960e-01
C     9.879167445600000e+00   5.670960088217424e+00   1.019668527200000e+01 -1.58356938e+00   1.45164724e+00   2.77051730e-01
