72
Lattice="7.395 0 0 3.6975 6.40425786098592 0 0 0 13.6 " PBC="1 1 1" Properties=species:S:1:pos:R:3:force:R:3 Energy="-580.53316977"
C     3.683107703100000e+00   6.315882944086717e+00   1.349734393600000e+01  2.36959370e-01  -9.50739450e-01   5.93147190e-01
C     1.156997518350000e+00   6.718705640074428e-01   1.353322060000000e+01  2.79979742e+00  -3.82995976e+00  -1.73825280e-01
C     1.309772228400000e+00   8.315823801381096e-01   3.536564128000000e+00 -6.95328060e-01  -1.02206400e-02  -1.94582500e-02
C     2.537306843325000e+00   1.550654181808532e+00   3.586208344000000e+00 -9.64693780e-01   7.23781560e-01   2.07815410e-01
C     6.092541722400000e+00   6.285465409040017e+00   1.346950038400000e+01  1.85544747e+00   1.51795082e+00   2.36516780e-01
C     3.660626422425000e+00   6.352535152245282e-01   1.348280594400000e+01  6.45389650e-01  -6.27700910e-01   4.72008290e-01
C     3.723903144975000e+00   7.980471883225843e-01   3.559327536000000e+00  1.87274541e+00   2.96808388e+00  -5.81176250e-01
C     4.960772986049999e+00   1.562181781913953e+00   3.443943776000000e+00  1.14684530e+00  -8.63220950e-01   9.87515990e-01
C     8.650357932675000e+00   6.302439702370212e+00   1.343486499200000e+01 -2.29005036e+00   1.16391690e-01   8.11726820e-01
C     6.204638940824999e+00   6.223107662597827e-01   1.346838613600000e+01 -3.17183381e+00   2.95395230e-01  -2.60789420e-01
C     6.240493894125000e+00   8.612363355201607e-01   3.433442672000000e+00 -1.65854585e+00  -8.44546760e-01   6.58571400e-02
C     7.458180624525000e+00   1.544441155088232e+00   3.514875256000000e+00  6.83204900e-01   9.17126360e-01  -4.27559300e-02
C     1.216794264825000e+00   2.027561204635567e+00   1.356760520800000e+01 -7.20705670e-01   2.07516931e+00  -2.31674310e-01
C     2.436903079575000e+00   2.769249706981157e+00   2.318664000000000e-03  4.32790500e-01  -1.33569361e+00   3.03032150e-01
C     2.539750484100000e+00   3.012874528531468e+00   3.611752136000000e+00 -4.74236480e-01  -1.64820177e+00  -9.32246470e-01
C     3.792735620100000e+00   3.689522540817313e+00   3.430995352000000e+00 -2.05545065e+00  -2.37814680e-01   1.36913469e+00
C     3.675443857875000e+00   2.098282015246818e+00   3.186167200000000e-02 -1.12663900e-01  -2.91283091e+00  -1.70972784e+00
C     4.899351964799999e+00   2.768588723527427e+00   1.341624020000000e+01  6.14687150e-01  -1.78812880e+00   9.13426720e-01
C     5.012070289275000e+00   2.995323467738402e+00   3.519488648000000e+00 -1.84316341e+00  -2.44103870e+00  -1.23373508e+00
C     6.205699014075000e+00   3.647174962101271e+00   3.466146320000000e+00  1.90410894e+00   3.12963778e+00   5.02824900e-01
C     6.159768077474999e+00   2.063770750490849e+00   1.340403352000000e+01 -1.04277970e+00  -1.68903276e+00   2.84098530e-01
C     7.369454896874999e+00   2.729540234205385e+00   1.345818899200000e+01  1.06766221e+00   2.73912800e-01  -3.78578420e-01
C     7.436580864824999e+00   2.988881809012500e+00   3.547584208000000e+00 -3.33368000e-03  -1.94497279e+00  -1.89281200e-02
C     8.643625894425000e+00   3.692730497621966e+00   3.604629271999999e+00  2.57409988e+00  -2.90610200e-01  -8.76531970e-01
C     2.462024818950000e+00   4.145812592485965e+00   1.357822830400000e+01 -1.39669545e+00   2.22226873e+00   1.84930620e-01
C     3.689041599000000e+00   4.867519554138041e+00   1.358353339200000e+01 -2.09602510e-01   4.30483150e-01  -9.60264250e-01
C     3.758228220675000e+00   5.080465034580335e+00   3.431200984000000e+00  5.37090550e-01   1.78829815e+00  -1.84548720e-01
C     4.998553264574999e+00   5.797704514034433e+00   3.468086768000000e+00 -4.71925700e-02   1.07753375e+00   1.41200770e-01
C     4.901872180800000e+00   4.133530762932371e+00   1.343451180000000e+01  7.05447380e-01   2.79023462e+00   4.17775290e-01
C     6.153048130049999e+00   4.862143948175514e+00   1.339977209600000e+01 -7.24817560e-01  -4.24171400e-02  -3.90926230e-01
C     6.236501481525000e+00   5.125068513127563e+00   3.491640608000000e+00 -1.01388934e+00  -2.00097201e+00   7.18264000e-02
C     7.441311298424999e+00   5.829293900184355e+00   3.546554960000000e+00  1.15036097e+00  -1.96898457e+00  -8.62627720e-01
C     7.394870957249999e+00   4.122622646689748e+00   1.334249855200000e+01 -1.45949317e+00   2.06097652e+00   1.46865561e+00
C     8.570712636450001e+00   4.850007111019871e+00   1.352882072800000e+01  2.80662558e+00   1.43037497e+00  -1.15139265e+00
C     8.688705999300000e+00   5.076847461442958e+00   3.441241728000000e+00 -1.38002620e-01   2.54697787e+00   1.06447986e+00
C     9.939424715700000e+00   5.825236354531995e+00   3.422709280000000e+00 -9.82681780e-01  -8.91893720e-01  -6.80196400e-02
C     7.419419103449999e+00   6.049218612757321e-02   6.785605080000000e+00  6.41764080e-01   1.54189804e+00   2.67795340e-01
C     1.274682953400000e+00   7.779359614074048e-01   6.893391879999999e+00 -1.22012185e+00   1.46294387e+00  -1.98902110e-01
C     1.148352911250000e+00   5.993177513927604e-01   1.013643400800000e+01  7.14115570e-01   3.48626780e-01  -6.59875630e-01
C     2.405871478050000e+00   1.327795678709901e+00   1.018660522400000e+01 -4.59974600e-01  -1.33465455e+00  -3.78523840e-01
C     2.481141966225000e+00   7.834552789163100e-02   6.942816863999999e+00  1.57995487e+00  -3.89881430e-01  -2.78756540e-01
C     3.770975167050000e+00   7.987537700922780e-01   6.966367711999999e+00 -2.31026170e+00  -5.75523100e-01  -8.03226600e-02
C     3.659367275775000e+00   6.080504052829206e-01   1.006654687200000e+01 -3.63387402e+00  -1.16028967e+00   8.92678970e-01
C     4.816221626925000e+00   1.275654580789189e+00   1.013604436800000e+01  4.28680602e+00   2.13180961e+00  -9.48367650e-01
C     4.974172171424999e+00   8.837549229649140e-02   6.874357455999999e+00  3.46788540e-01  -5.31100780e-01  -4.43503970e-01
C     6.188168796825000e+00   8.087872568389614e-01   6.780016976000000e+00  5.80219240e-01  -1.38387788e+00   7.71193410e-01
C     6.105210059925000e+00   5.921464555688682e-01   1.001907416800000e+01 -1.38088862e+00   9.50015200e-01   5.86437330e-01
C     7.310980339424999e+00   1.299781725680638e+00   1.005314162400000e+01  6.41405980e-01   7.67741400e-01   8.24421650e-01
C     8.641934768850000e+00   2.262103123433353e+00   6.919589424000000e+00  1.48202078e+00  -2.18469665e+00   6.38483990e-01
C     2.488837609950000e+00   2.969028929859393e+00   7.047636416000000e+00  2.55719970e-01  -2.82721125e+00  -1.46461838e+00
C     2.395412914425000e+00   2.734719741792238e+00   1.023261715200000e+01 -5.18772880e-01  -4.54322550e-01  -5.33027660e-01
C     3.621900545250000e+00   3.410541156516094e+00   1.021950212800000e+01  4.96151120e-01   2.10403323e+00  -5.53579330e-01
C     3.730143045975000e+00   2.204607937856524e+00   7.006914208000000e+00  5.75045600e-01   1.79022613e+00  -2.10545200e-02
C     4.975629060375000e+00   2.963832707159525e+00   6.956286711999999e+00 -9.83775980e-01  -2.86563025e+00  -1.94286380e-01
C     4.855802366100000e+00   2.708203616591273e+00   1.013052263200000e+01 -3.31831210e-01   6.32523270e-01   3.76531260e-01
C     6.101998522350000e+00   3.455070473757302e+00   1.005776752800000e+01 -8.13531250e-01  -1.82887053e+00   6.95374230e-01
C     6.202769928525000e+00   2.188698352395555e+00   6.903815327999999e+00 -6.14230100e-02   2.90180528e+00  -3.44301830e-01
C     7.442350517775000e+00   2.941876349512301e+00   6.914065375999999e+00 -1.34916618e+00   6.62552420e-01  -2.59818120e-01
C     7.318328603025000e+00   2.726436090420643e+00   1.012490447200000e+01  4.58323710e-01   2.65043830e-01  -8.82630470e-01
C     8.548676423849999e+00   3.435706943947278e+00   1.009879464800000e+01  1.11775350e-01   9.25214890e-01   8.30342710e-01
C     9.874538730224998e+00   4.328639488638466e+00   6.849125104000000e+00  1.46846051e+00   1.88188712e+00   7.65610630e-01
C     3.728327795325000e+00   5.071101112992915e+00   6.838877639999999e+00 -1.20579725e+00  -8.61706620e-01  -2.12983270e-01
C     3.583909952925000e+00   4.892280400344737e+00   1.014056949600000e+01  2.34577864e+00  -2.04521807e+00  -3.32971060e-01
C     4.812367722674999e+00   5.590710318293700e+00   1.006093728000000e+01  2.04382015e+00  -1.13356489e+00   8.16786160e-01
C     4.929215932800000e+00   4.354482142082873e+00   6.890752935999999e+00  1.79964312e+00   3.62719180e-01   1.05742140e-01
C     6.186783232650000e+00   5.038623648405547e+00   6.892503527999999e+00 -3.95162800e-01   2.14638663e+00   1.79112030e-01
C     6.097566329099999e+00   4.831236999743154e+00   1.007341500800000e+01 -4.93209570e-01   3.07683959e+00  -3.71412530e-01
C     7.358093662575000e+00   5.586339028048779e+00   1.003212228000000e+01 -2.03319802e+00  -6.95510190e-01   2.33123200e-01
C     7.438983167549999e+00   4.405142127288303e+00   6.908880920000001e+00 -6.12984500e-01  -2.86328676e+00  -9.25127900e-02
C     8.676970023374999e+00   5.050537681430241e+00   6.860838920000000e+00 -7.36167470e-01   1.66115209e+00  -4.93680400e-02
C     8.556877996499999e+00   4.888819987695244e+00   1.005442383200000e+01  8.83007630e-01  -1.08532589e+00   8.65820900e-02
C     9.814343689049998e+00   5.613731127639835e+00   1.005460743200000e+01 -2.25679231e+00  -1.36016365e+00   1.70734420e-01
