72
Lattice="7.395 0 0 3.6975 6.40425786098592 0 0 0 13.6 " PBC="1 1 1" Properties=species:S:1:pos:R:3:force:R:3 Energy="-574.80965268"
C     7.413856029824999e+00   4.013298634805460e-02   1.354648699200000e+01  7.14159670e-01  -2.74104892e+00   8.00885500e-02
C     1.313917643550000e+00   6.693851996171341e-01   1.359039663200000e+01 -2.77227071e+00   1.98513601e+00  -6.05333790e-01
C     1.186890585675000e+00   7.934643013979683e-01   3.440770623999999e+00  5.59760108e+00  -4.09185855e+00  -6.52969960e-01
C     2.463446433750000e+00   1.468327511060810e+00   3.429358184000000e+00  3.41822240e-01  -1.62882016e+00  -3.83113720e-01
C     6.203728468425000e+00   6.374142669966872e+00   1.356941156000000e+01  1.37742520e-01   2.43669514e+00   1.41567630e-01
C     3.754103289675000e+00   7.601847035136354e-01   1.355135892000000e+01 -3.59751686e+00  -3.95481023e+00  -4.53457160e-01
C     3.709092254100000e+00   7.339484443811520e-01   3.401204552000000e+00 -4.09932820e+00  -1.83931345e+00   9.13909900e-02
C     4.867793062800000e+00   1.376429100558112e+00   3.430344320000000e+00  4.27693857e+00   2.25980583e+00  -2.00254210e-01
C     8.575476902175000e+00   6.383110680333388e+00   1.357887512000000e+01  2.28122694e+00   2.87648880e-01  -1.43350830e-01
C     6.117377718975000e+00   5.636421285152659e-01   1.854496000000000e-03  1.87615366e+00   6.32347577e+00  -3.07446920e-01
C     6.158389649475001e+00   6.719686131952795e-01   3.432475304000000e+00  6.70853630e-01   6.22704720e-01  -3.38542730e-01
C     7.448021521425000e+00   1.453177278454302e+00   3.385318392000000e+00 -5.50109722e+00  -2.98366392e+00   3.04903030e-01
C     1.278267494775000e+00   2.088316349590872e+00   1.354240563200000e+01 -1.24193483e+00   2.69271417e+00   7.67290220e-01
C     2.505639641550000e+00   2.829144311807814e+00   1.358170405600000e+01 -2.68209546e+00   1.83185622e+00  -1.32895476e+00
C     2.515482719325000e+00   2.832291171992482e+00   3.375279688000000e+00 -3.72459245e+00   4.69046714e+00   3.53628310e-01
C     3.662537549250000e+00   3.657718740114239e+00   3.471519680000000e+00  2.84112782e+00  -5.73006772e+00  -9.02744570e-01
C     3.712422370500000e+00   2.100421357584950e+00   1.343318688800000e+01 -2.64479080e-01   2.75947540e+00   2.17982740e+00
C     4.924509495975000e+00   2.755953314897383e+00   7.036068799999999e-02 -6.02408460e-01   4.48800170e+00  -1.48364699e+00
C     4.847093829224999e+00   2.804757090004670e+00   3.417828240000000e+00  3.40970316e+00   2.15962274e+00   9.26210530e-01
C     6.225963273750000e+00   3.456850088931439e+00   3.466305032000000e+00 -5.30424717e+00   3.28052553e+00  -6.59726280e-01
C     6.094795126799999e+00   2.085896885013942e+00   1.467113600000000e-02  3.92561257e+00  -9.84180470e-01   3.72187330e-01
C     7.359854966699999e+00   2.897850727151781e+00   1.359015849600000e+01  1.18255145e+00  -2.27029053e+00   1.55958460e-01
C     7.415836558725000e+00   2.792222036095292e+00   3.384464176000000e+00  1.23807912e+00   4.24886920e+00  -1.50285130e-01
C     8.587092857249999e+00   3.620225268643183e+00   3.332780232000000e+00  2.01998379e+00  -2.17350698e+00   1.34348839e+00
C     9.762436779000000e+00   4.338241584575699e+00   1.353929585600000e+01  6.03458795e+00  -3.42216326e+00  -1.04788280e-01
C     3.722940094125000e+00   5.031174151620217e+00   1.349705806400000e+01 -1.64479778e+00  -1.87876766e+00   9.57952880e-01
C     3.740743038975000e+00   5.012195261537264e+00   3.425397048000000e+00 -2.15697200e-01   6.40334920e-01  -3.62912400e-02
C     4.960291867350000e+00   5.722956642038236e+00   3.383335104000000e+00  1.31907500e-02   1.05464860e-01   7.23582060e-01
C     4.949003991450000e+00   4.270797064200467e+00   2.758909600000000e-02 -1.67263118e+00  -1.33187036e+00  -2.76385250e-01
C     6.143836363424999e+00   5.000136684412670e+00   2.509825600000000e-02  9.38753320e-01  -9.61816290e-01   8.60998300e-02
C     6.187032887849999e+00   4.957582632423221e+00   3.426623768000000e+00  3.59217460e-01  -1.86520560e-01  -3.24536290e-01
C     7.422051871350000e+00   5.730366368382256e+00   3.379292912000000e+00 -2.62640794e+00  -2.84190460e-01   9.52489160e-01
C     7.398259383225000e+00   4.368399683136489e+00   2.007455200000000e-02 -2.68211371e+00  -5.91177034e+00  -2.81984820e-01
C     8.583918960224999e+00   4.999768311500563e+00   1.353943457600000e+01  1.04383320e-01   6.53248040e-01   4.98755310e-01
C     8.605119094125000e+00   5.063069917466161e+00   3.507187856000000e+00  1.55107130e+00  -4.46227827e+00  -1.71465550e+00
C     9.889145001450000e+00   5.620139612310023e+00   3.432346648000000e+00 -8.12625850e-01   5.35892085e+00   4.78428130e-01
C     3.716715870525000e+00   6.392586804518515e+00   6.853696336000000e+00 -7.91996360e-01   1.67464316e+00   6.20671410e-01
C     1.262730673725000e+00   7.532391577793083e-01   6.841598184000000e+00 -2.12955208e+00  -1.09282188e+00  -1.97045890e-01
C     1.315885453050000e+00   6.843153178809949e-01   1.019684004000000e+01 -7.53335129e+00  -1.22680563e+00   2.40612460e-01
C     2.437385788200000e+00   1.349459233687765e+00   1.015917103200000e+01  2.54574790e+00   4.42641406e+00   5.48157740e-01
C     2.456569305600000e+00   5.080446526275120e-02   6.735578024000000e+00  1.23858633e+00  -1.32347214e+00   6.39086200e-01
C     3.734030153775000e+00   6.526791166061165e-01   6.710704712000000e+00  4.79556500e-01   1.98200330e+00   2.38078690e-01
C     3.616794593550000e+00   6.822503289766164e-01   1.029733819200000e+01  4.95025903e+00   1.59491170e-01  -1.39489207e+00
C     4.944654104549999e+00   1.403142412858587e+00   1.017469597600000e+01 -2.16956484e+00   6.46394430e-01   1.57827078e+00
C     5.038067929425000e+00   6.703528829797801e-03   6.807093216000000e+00 -4.19243659e+00  -2.72748810e-01   2.37363170e-01
C     6.182835596774999e+00   7.539167282608963e-01   6.927433224000000e+00  2.72023799e+00   4.94805890e-01  -1.52891109e+00
C     6.195825801674999e+00   7.290740996813275e-01   1.025825954400000e+01 -1.30753625e+00  -4.97553690e-01  -9.49412770e-01
C     7.354689928950000e+00   1.533012564809326e+00   1.020549195200000e+01  3.47115268e+00  -6.48835468e+00  -1.88641540e-01
C     8.604728896950000e+00   2.161666044011074e+00   6.867927239999999e+00  9.85582420e-01  -2.19887707e+00  -9.51876080e-01
C     2.445219311700000e+00   2.756138461992116e+00   6.726466704000000e+00  1.87006127e+00   2.97458712e+00   1.08915021e+00
C     2.468438095725000e+00   2.800395406146538e+00   1.016872965600000e+01 -1.38046700e-02   2.16750520e+00  -2.39067400e-02
C     3.699587164800000e+00   3.613959727008431e+00   1.014969278400000e+01 -1.20873777e+00  -5.04124511e+00   3.55785340e-01
C     3.696934060650000e+00   2.080926412403639e+00   6.710943936000000e+00 -1.35839890e-01  -3.08911500e-02   1.88785580e-01
C     4.888663305750000e+00   2.862807908993433e+00   6.783794104000000e+00  2.66935861e+00  -1.15843795e+00  -3.29978840e-01
C     4.914537375450000e+00   2.877597902095316e+00   1.021966492000000e+01  1.46114128e+00  -2.18506810e+00  -9.50279070e-01
C     6.178783358624999e+00   3.524498456834356e+00   1.017471610400000e+01 -1.55577537e+00   1.64360084e+00   8.77693800e-02
C     6.222293800799999e+00   2.219519035474541e+00   6.773203784000001e+00 -4.96284272e+00  -4.36813729e+00   1.02769203e+00
C     7.400617944525000e+00   2.819199075734442e+00   6.795189951999999e+00  2.59245320e-01   5.76828939e+00   1.03403250e-01
C     7.417908896549999e+00   2.862968527780561e+00   1.013452144000000e+01 -8.66872800e-01   1.71657804e+00   8.14272290e-01
C     8.647481166750000e+00   3.549569269121476e+00   1.022935464800000e+01  5.47573740e-01   7.38692020e-01  -6.21869340e-01
C     2.499330523349999e+00   4.198426260594165e+00   6.845611816000000e+00 -3.69856019e+00   1.38007899e+00  -7.12334360e-01
C     3.634330726800000e+00   4.978318978948115e+00   6.828106712000000e+00  3.75537898e+00  -1.11316354e+00   2.34609210e-01
C     3.674153282474999e+00   4.959591968326796e+00   1.013456088000000e+01  1.84077128e+00   1.61049524e+00   6.82212290e-01
C     4.946656966350000e+00   5.634573272504577e+00   1.023386604000000e+01 -2.45929931e+00   2.86062721e+00  -7.29719440e-01
C     4.944468822825000e+00   4.232904415336998e+00   6.834976480000000e+00 -2.88274604e+00   3.14086381e+00  -2.55410830e-01
C     6.127726355924999e+00   5.036138988483603e+00   6.824424919999999e+00 -6.72939850e-01  -1.43233973e+00  -6.59375690e-01
C     6.108883082475000e+00   4.957764705474181e+00   1.021010847200000e+01  3.14678785e+00  -1.32126227e+00   2.61686920e-01
C     7.335119763974999e+00   5.702337685559915e+00   1.026757024000000e+01  1.01723686e+00  -1.35475681e+00   2.67365190e-01
C     7.310329838249999e+00   4.334531085656772e+00   6.762524656000000e+00  4.07353394e+00  -1.50212258e+00   6.25911390e-01
C     8.610696181274999e+00   5.018657798143790e+00   6.835384752000000e+00  1.37132961e+00  -2.89773896e+00  -3.39970700e-01
C     8.602863988874999e+00   5.001310584878408e+00   1.028544757600000e+01  1.30456602e+00  -8.57364010e-01  -7.87045360e-01
C     9.895193113125000e+00   5.649650624656639e+00   1.019405952000000e+01 -3.10046191e+00   3.03202564e+00   7.12828560e-01
