72
Lattice="7.395 0 0 3.6975 6.40425786098592 0 0 0 13.6 " PBC="1 1 1" Properties=species:S:1:pos:R:3:force:R:3 Energy="-580.63397197"
C     1.103501241622500e+01   6.378511398508650e+00   1.341410010400000e+01  1.71510002e+00  -6.78877760e-01  -9.28612600e-02
C     1.226692435350000e+00   6.556023401063137e-01   1.336839784800000e+01 -1.02312725e+00   3.00687700e-01   1.40296680e-01
C     1.243180845000000e+00   7.482512015450472e-01   3.434592144000000e+00  2.73158790e-01   7.42247220e-01   2.61512420e-01
C     2.477711721525000e+00   1.453421152593610e+00   3.410133632000000e+00  1.60753620e+00  -1.30335811e+00   5.57476830e-01
C     6.187355198924999e+00   6.351025988880574e+00   1.339881506400000e+01 -2.41253554e+00   6.67162640e-01   4.28167440e-01
C     3.684720996299999e+00   6.441904649404224e-01   1.341721056000000e+01 -3.29426560e-01   1.48311615e+00  -6.38184690e-01
C     3.772996664250000e+00   7.981510013424948e-01   3.531935368000000e+00 -1.97479412e+00  -2.22188354e+00  -4.36214770e-01
C     5.009368932749999e+00   1.504561136925647e+00   3.591672824000000e+00 -2.35169180e+00  -1.29063150e-01  -5.85663890e-01
C     8.582029759574999e+00   6.384139716486332e+00   1.337346724800000e+01  2.71458573e+00  -8.27739000e-01   5.83700570e-01
C     6.123714864225000e+00   7.007875173949650e-01   1.343673852800000e+01  4.04330290e-01  -1.44865000e-01  -2.14949600e-02
C     6.171382553549999e+00   7.793346513240289e-01   3.582954816000000e+00  2.25085169e+00  -9.60372850e-01  -5.58757190e-01
C     7.415718867300000e+00   1.486199873470712e+00   3.467307488000000e+00 -4.52331830e-01  -1.45288280e-01   3.29665910e-01
C     8.585791263299999e+00   2.089914275969520e+00   1.333529667200000e+01  1.95260963e+00  -3.09192800e-01   6.11836020e-01
C     2.469597964500000e+00   2.786588402583586e+00   1.325288461600000e+01 -1.05427955e+00   2.93070710e-01   4.02908400e-01
C     2.495368430250000e+00   2.832768481330788e+00   3.464887368000000e+00 -6.28781450e-01   2.44663041e+00   5.11943900e-02
C     3.663142608149999e+00   3.590009723889389e+00   3.571898288000000e+00  3.45126329e+00   3.04193980e-01  -3.77995580e-01
C     3.681713745600000e+00   2.065129029540377e+00   1.331672859200000e+01  9.71427860e-01   1.18635657e+00   1.10442500e+00
C     4.918234542674999e+00   2.814893749345478e+00   1.351634585600000e+01 -2.69470270e-01   3.65039950e-01  -7.37633900e-01
C     4.972916204625000e+00   2.896931780191449e+00   3.530442360000000e+00 -4.13009040e-01   2.39308476e+00   4.21972840e-01
C     6.210495152250000e+00   3.668575494208826e+00   3.513417200000000e+00 -1.55055429e+00  -2.22582040e+00   1.55130990e-01
C     6.174524762999999e+00   2.119011253045487e+00   1.355702672000000e+01 -1.38750011e+00  -2.58477780e-01  -6.28364700e-02
C     7.401917061150000e+00   2.805192515496572e+00   1.357664825600000e+01 -1.28361750e-01   1.63537662e+00  -6.63181260e-01
C     7.418100464024999e+00   2.918070826450580e+00   3.471979224000000e+00  1.42119455e+00   4.63882130e-01  -1.33953820e-01
C     8.715885212549999e+00   3.611975944093718e+00   3.463029744000000e+00 -2.86694956e+00  -1.03082783e+00   1.44559840e-01
C     2.487908465175000e+00   4.222076480402781e+00   1.326683740000000e+01 -1.01171583e+00  -7.53148350e-01   6.68065600e-01
C     3.682041750825000e+00   4.922629025576863e+00   1.338128221600000e+01  1.75946640e-01   2.01254087e+00  -6.38812900e-02
C     3.688110975225000e+00   5.037711489958547e+00   3.616480040000000e+00  5.01826920e-01  -6.33883710e-01  -6.78464090e-01
C     4.959483963599999e+00   5.755921278521014e+00   3.560189232000000e+00 -2.45264537e+00  -3.31338820e-01  -1.17426790e-01
C     4.909356216599999e+00   4.269388511726738e+00   1.349238959200000e+01  9.75129050e-01  -1.90916837e+00   2.28898890e-01
C     6.166419362325000e+00   4.966672900072283e+00   1.354822316800000e+01  7.72934000e-03  -8.94824620e-01  -1.48511480e-01
C     6.157166072774999e+00   5.070200674337800e+00   3.552465792000000e+00  2.05822214e+00  -6.00067760e-01  -4.43346240e-01
C     7.418487037649999e+00   5.717651867167641e+00   3.508898192000000e+00  5.03490830e-01   2.63007095e+00   3.57086530e-01
C     7.411844109150000e+00   4.279922619310338e+00   1.358885534400000e+01  4.94987620e-01  -1.81159837e+00  -9.64934880e-01
C     8.666143484550000e+00   4.961636911904073e+00   1.335965726400000e+01 -1.82224417e+00  -4.27813630e-01   7.32198650e-01
C     8.665634486700000e+00   5.025369268253335e+00   3.526153736000000e+00 -9.68816940e-01  -7.04219590e-01  -3.15064660e-01
C     9.850601632875000e+00   5.742239542241803e+00   3.548376000000000e+00  1.62660558e+00   1.31260920e+00   5.29495360e-01
C     3.549441007500000e-02   3.721315710452341e-02   7.077440543999999e+00 -2.12924411e+00   2.86371580e-01  -7.01917550e-01
C     1.235949718200000e+00   7.121306748740184e-01   6.882524120000000e+00  8.06896200e-01   1.67990810e+00  -3.94687660e-01
C     1.200060858825000e+00   6.541075222792111e-01   1.017530484800000e+01 -4.98275200e-01   4.01236190e-01   3.95439590e-01
C     2.415519549675000e+00   1.386054507993956e+00   1.021390436800000e+01  1.07035565e+00  -6.45632810e-01   1.19510740e-01
C     2.450501190450000e+00   1.460824026381720e-02   6.732424728000000e+00  1.41261401e+00   9.67279260e-01   3.33442030e-01
C     3.667902806625000e+00   7.865794680281539e-01   6.667393607999999e+00  7.39404490e-01  -8.22292610e-01   3.02632160e-01
C     3.666548560275000e+00   6.979423617980814e-01   1.040094312800000e+01  5.06531950e-01  -1.51479624e+00  -1.48521470e+00
C     4.917387334500000e+00   1.399212247895062e+00   1.024734200800000e+01 -1.61368562e+00  -1.36260531e+00   7.24168120e-01
C     4.898774526225000e+00   4.928467082999460e-02   6.806144752000000e+00 -3.07054460e-01  -4.43336120e-01   6.04148770e-01
C     6.125217047550000e+00   7.262767838906581e-01   6.997776095999999e+00  1.66383683e+00   6.03387430e-01  -7.00630410e-01
C     6.128032915650000e+00   6.318417749347705e-01   1.030625992800000e+01 -2.85882960e-01   7.61374880e-01  -6.26038690e-01
C     7.342760388899999e+00   1.335818292531122e+00   1.017639012800000e+01  1.06000866e+00   1.04933981e+00   1.94493300e-01
C     1.271922104100000e+00   2.164045225806064e+00   6.792649336000000e+00 -3.30698560e-01  -8.11406720e-01   3.11887480e-01
C     2.473959868275000e+00   2.929757828534137e+00   6.672793080000000e+00  6.38665920e-01  -3.38315650e-01   1.07692960e+00
C     2.431942365675000e+00   2.784092086912336e+00   1.010971313600000e+01 -3.31227680e-01   1.30128993e+00   1.98183860e-01
C     3.683901926100000e+00   3.495675517952218e+00   1.006104485600000e+01 -2.27484759e+00   1.22887137e+00   7.86689660e-01
C     3.724337046600000e+00   2.218688659400413e+00   6.633106240000000e+00 -2.35857145e+00  -1.75343263e+00   3.41705300e-01
C     4.930816765425000e+00   2.851097531368687e+00   6.718926592000000e+00  2.33793892e+00   2.45167770e+00   5.97306080e-01
C     4.857360196800000e+00   2.805406801964567e+00   1.012973764000000e+01  3.33782277e+00  -3.30655000e-01   1.86890300e-01
C     6.116283554775000e+00   3.529079806737085e+00   1.020390823200000e+01  3.72624290e-01  -8.61331480e-01  -1.14557210e-01
C     6.168551895449999e+00   2.152181338120414e+00   6.878257392000000e+00 -3.11769440e-01  -1.09745069e+00   3.53834700e-02
C     7.425961681799999e+00   2.817846560516988e+00   6.899953472000000e+00 -3.87093680e-01   1.51685698e+00  -5.80961200e-01
C     7.368091665600000e+00   2.787898713741742e+00   1.018694454400000e+01 -1.86077211e+00  -4.50106370e-01   7.28075100e-02
C     8.569044509325000e+00   3.504542277001966e+00   1.019031788800000e+01  1.25992683e+00  -1.17301907e+00  -1.45983720e-01
C     9.892269795675000e+00   4.340024337836187e+00   6.905974327999999e+00 -8.20280680e-01  -2.93792790e-01  -5.89001130e-01
C     3.740129512800000e+00   5.044070853970950e+00   7.005473560000000e+00  5.42110590e-01  -1.71559065e+00  -1.07171884e+00
C     3.706891760925000e+00   4.939695860433134e+00   1.016470908800000e+01 -1.82004670e+00  -5.16357610e-01   1.37193150e-01
C     4.924694814675000e+00   5.651188415053983e+00   1.020436845600000e+01 -6.27760240e-01   7.95842300e-02   4.09008600e-02
C     4.987193768099999e+00   4.302070976608205e+00   6.796449856000000e+00 -1.20902733e+00   1.89337040e-01   5.89429600e-01
C     6.227168880600000e+00   5.015324830225710e+00   6.779784824000000e+00 -1.21428799e+00  -1.56546778e+00   1.75352760e-01
C     6.140247717825000e+00   4.947738327453722e+00   1.028404881600000e+01  2.39579860e-01  -1.11094006e+00  -2.00194910e-01
C     7.380108170849999e+00   5.605811622370159e+00   1.040635429600000e+01 -1.20385545e+00   2.89201172e+00  -3.68147590e-01
C     7.437081654224999e+00   4.248369289132168e+00   6.828140032000000e+00 -6.44940090e-01   8.89042980e-01  -7.10375500e-02
C     8.611321391550000e+00   5.011623169182631e+00   6.869519392000000e+00  1.51782057e+00   2.33975440e-01  -1.72689200e-02
C     8.559008791800000e+00   4.892147768164457e+00   1.033529307200000e+01  2.36118948e+00   1.07235269e+00  -3.27653030e-01
C     9.824290962375001e+00   5.624919173993520e+00   1.031096498400000e+01  3.18591650e-01  -7.90966050e-01  -5.05812680e-01
