72
Lattice="7.395 0 0 3.6975 6.40425786098592 0 0 0 13.6 " PBC="1 1 1" Properties=species:S:1:pos:R:3:force:R:3 Energy="-574.13316979"
C     3.665060575350000e+00   6.141379725917437e+00   3.516671680000000e-01 -5.24533540e-01   1.88393340e+00   2.30285400e-01
C     1.254451305675000e+00   3.769222761374070e-01   3.933608240000000e-01 -2.30388807e+00   3.82888808e+00  -1.00893314e+00
C     1.459706962650000e+00   1.113385352367288e+00   3.425825176000000e+00  3.78132700e-02   6.75081710e-01  -4.59283650e-01
C     2.699048619450000e+00   1.815183269524825e+00   3.432839240000000e+00  8.14205880e-01  -8.51900240e-01   4.42445400e-02
C     6.196227202274999e+00   6.140408648298124e+00   3.039840720000000e-01 -4.35273224e+00   7.93913630e-01   1.45229330e-01
C     3.634565000399999e+00   4.236928915018800e-01   2.006720800000000e-01  4.41900952e+00   1.56164867e+00   1.62754206e+00
C     3.990167662875000e+00   1.148090986349307e+00   3.368241824000000e+00 -7.02746290e-01  -9.30797140e-01  -4.28543470e-01
C     5.259052936274999e+00   1.820529095688303e+00   3.216319352000000e+00 -3.51407096e+00   1.00867684e+00   2.00255644e+00
C     8.601614381775001e+00   6.107579013571035e+00   3.365144560000000e-01 -2.85089862e+00   3.45301500e-02  -3.89697340e-01
C     6.049676050274999e+00   3.991367253763891e-01   3.124855680000000e-01  5.15963589e+00   1.83287846e+00  -5.19733860e-01
C     6.445921447875000e+00   1.057809522871101e+00   3.261328552000000e+00 -2.58714760e+00   5.90792508e+00  -1.58667700e-02
C     7.587920538150000e+00   1.757861447208267e+00   3.379603944000000e+00  5.11364998e+00   5.23841848e+00   1.50866570e-01
C     1.222118258100000e+00   1.852296456164154e+00   3.184380160000000e-01 -5.77295120e-01   4.17251920e-01   3.96830050e-01
C     2.424062327625000e+00   2.590795317882572e+00   4.490767600000000e-01  1.45056020e+00  -1.49776242e+00  -7.58014200e-01
C     2.688744019725000e+00   3.178134545373989e+00   3.405945920000000e+00  2.95323350e+00   3.10638714e+00  -8.15111650e-01
C     3.948309041850000e+00   3.917389749945673e+00   3.187406024000000e+00 -2.01700097e+00   2.67171829e+00   2.03987720e+00
C     3.668430439875000e+00   1.831266346331222e+00   4.075411360000000e-01 -4.81216570e-01   1.25225605e+00  -2.15065380e+00
C     4.881755044650000e+00   2.551357065427170e+00   1.604768720000000e-01  1.21290615e+00   1.04245647e+00   1.43642510e+00
C     5.149772029650000e+00   3.284043230584116e+00   3.388636520000000e+00  1.55767244e+00  -2.86641097e+00  -1.82688697e+00
C     6.332172999899999e+00   4.005165739663889e+00   3.417706927999999e+00  4.67584075e+00   4.16159920e-01  -5.16387480e-01
C     6.133323668400000e+00   1.778698981007348e+00   1.302405360000000e-01 -6.38830150e-01   4.37702477e+00   2.30458320e-01
C     7.393853664074999e+00   2.627095035688523e+00   1.691094720000000e-01 -1.57005070e+00  -2.54331848e+00  -8.83021780e-01
C     7.699028860199999e+00   3.343063590170304e+00   3.422659776000000e+00 -4.12439585e+00  -3.78585546e+00   4.70212130e-01
C     8.954480302650000e+00   3.977404434607204e+00   3.499630200000000e+00 -3.19623105e+00   1.02713260e-01  -1.12594583e+00
C     2.464963628925000e+00   3.994421380294746e+00   4.284492320000000e-01 -1.93770256e+00   1.17949526e+00   4.50555350e-01
C     3.616123238475000e+00   4.801442663028812e+00   4.145761440000000e-01  3.03349220e+00  -5.04517732e+00  -6.50108270e-01
C     3.965007173700000e+00   5.453903394441903e+00   3.209229672000000e+00 -1.43488260e+00  -3.01257691e+00   5.67893030e-01
C     5.198413307699999e+00   6.137734166173210e+00   3.270912880000000e+00 -1.98933576e+00  -7.96264470e-01   4.09275920e-01
C     4.902167130375000e+00   4.049632103050333e+00   2.939464560000000e-01 -1.63966353e+00  -8.81169550e-01  -4.12481410e-01
C     6.086622172799999e+00   4.802708720765155e+00   2.433590800000000e-01  2.39234743e+00  -5.38117176e+00  -1.50660842e+00
C     6.376940000475000e+00   5.418961443344850e+00   3.333098744000000e+00  6.78850180e-01  -7.88733500e-01   8.35471540e-01
C     7.597249071824999e+00   6.114068832316045e+00   3.432318360000000e+00  2.63337261e+00  -4.21632680e-01  -9.74977320e-01
C     7.350877769475000e+00   4.060087182091941e+00   1.911806400000000e-02  8.94615870e-01  -9.63392220e-01   3.80195248e+00
C     8.624761914975000e+00   4.714463234903222e+00   4.573873120000000e-01 -1.93051227e+00  -1.33266151e+00  -3.15112960e+00
C     8.862486317774998e+00   5.384252543191322e+00   3.380784968000000e+00  8.01998410e-01   1.96249653e+00   3.94279710e-01
C     1.009537509757500e+01   6.173121725532162e+00   3.285502144000000e+00  3.06684620e-01  -8.27143727e+00  -5.12670700e-02
C     7.326445318049999e+00   2.988242087694864e-01   6.309798743999999e+00  8.76595890e-01  -2.79793364e+00   1.37385290e-01
C     1.174855999650000e+00   9.546517225821577e-01   6.351079504000000e+00 -1.55972840e-01   9.15180810e-01   4.92047590e-01
C     1.060843291350000e+00   2.779774528390860e-01   1.038751190400000e+01  1.47186908e+00   1.77801095e+00  -5.30614260e-01
C     2.258935712100000e+00   9.638314577135244e-01   1.037504954400000e+01  3.12750462e+00   2.27975289e+00  -8.55387070e-01
C     2.403111405225000e+00   3.331829881458078e-01   6.468405344000000e+00 -2.21777010e-01  -5.18235923e+00  -4.08816090e-01
C     3.603426725999999e+00   9.989723891022877e-01   6.467094712000000e+00  1.55379793e+00  -2.19699724e+00   3.69014450e-01
C     3.539965572150000e+00   2.451738193989084e-01   1.018458671200000e+01 -5.85477690e-01   3.32276629e+00   1.85744710e+00
C     4.824628041075000e+00   1.082866822174137e+00   1.034067826400000e+01 -2.56523124e+00  -3.11492235e+00  -1.35550747e+00
C     4.830820909875000e+00   2.534121926674338e-01   6.439890088000000e+00  1.67438411e+00   5.15271320e-01  -7.19908310e-01
C     6.124553679074999e+00   9.805982530890546e-01   6.306050720000000e+00 -2.90376181e+00  -3.57658140e-01   1.34185494e+00
C     5.984319262124999e+00   3.317223050130990e-01   1.028975048000000e+01  2.42537432e+00  -1.15090294e+00   2.26039600e-01
C     7.285363209000000e+00   1.025846832530520e+00   1.034402209600000e+01 -3.70751956e+00   3.41281470e-01   6.19025740e-01
C     8.603335050375000e+00   2.331711322326586e+00   6.352884904000000e+00 -1.74813624e+00   3.89212058e+00   8.13934940e-01
C     2.439636308550000e+00   3.099763272365760e+00   6.479691712000000e+00 -2.75624044e+00   1.54623790e-01  -1.21295770e+00
C     2.280183469800000e+00   2.498423440596283e+00   1.039194972000000e+01  2.99616146e+00  -5.83755530e+00   4.06596860e-01
C     3.501835805925000e+00   3.114423066905351e+00   1.048579420800000e+01  3.41430984e+00   2.61194649e+00  -1.25587275e+00
C     3.607289356350000e+00   2.349670078175020e+00   6.496425560000000e+00  2.16388175e+00   4.40816187e+00   3.40531030e-01
C     4.848459168074999e+00   3.129144918703604e+00   6.524630736000000e+00  1.58414700e-01  -2.79993555e+00  -2.86412880e-01
C     4.804313680274999e+00   2.477388207357063e+00   1.035425704800000e+01 -2.84188121e+00  -1.17973145e+00   1.01300128e+00
C     5.979795851550000e+00   3.167204462526905e+00   1.036154787200000e+01  2.81894370e+00  -7.14901110e-01   4.35021300e-02
C     6.092660523075000e+00   2.401231975014873e+00   6.437081144000000e+00 -7.37422490e-01  -5.53243400e-02  -3.53791420e-01
C     7.296834665774999e+00   3.090965423130585e+00   6.372813936000000e+00  2.54143988e+00  -5.84142030e-01   3.20538260e-01
C     7.244210144925001e+00   2.447201225593324e+00   1.041857308000000e+01  1.27190010e+00   2.22494760e-01  -1.28618053e+00
C     8.566274601149999e+00   3.190352524476718e+00   1.032453506400000e+01 -7.21446959e+00  -4.63175570e-01   5.02731040e-01
C     9.774079171200000e+00   4.554030875720726e+00   6.322399143999999e+00  2.12571923e+00  -9.23973810e-01   1.46280959e+00
C     3.674227084575000e+00   5.246084394331381e+00   6.360245632000000e+00 -2.95093640e+00   7.79404250e-01   9.34734400e-02
C     3.575525538900000e+00   4.546825060946969e+00   1.043032089600000e+01 -1.28295131e+00   1.11583074e+00  -7.50890800e-01
C     4.859196042524999e+00   5.331211454913545e+00   1.033896194400000e+01 -3.92170652e+00  -4.51609247e+00   5.17546620e-01
C     4.866691577550000e+00   4.507244569924497e+00   6.498516832000000e+00  6.53847720e-01   1.70706921e+00  -4.81992750e-01
C     6.128038240050000e+00   5.215375913850103e+00   6.449502160000000e+00 -2.24829248e+00   2.52665411e+00   5.78805180e-01
C     6.022451283824999e+00   4.558945439159912e+00   1.029416558400000e+01 -7.16438910e-01   1.16166649e+00  -4.35666000e-03
C     7.214471374274999e+00   5.243677546142435e+00   1.019386708000000e+01  2.00792998e+00   1.04828934e+00   1.33048010e-01
C     7.294649184450000e+00   4.509686257276200e+00   6.422996439999999e+00  2.02057535e+00  -2.44958480e-01   7.50827700e-02
C     8.536120046624999e+00   5.240759382005948e+00   6.386734352000000e+00  1.38763400e-01   2.65719290e-01   1.20799580e-01
C     8.462960609100000e+00   4.565081806913629e+00   1.024844442400000e+01  5.53402970e-01   4.43629680e-01  -8.40631100e-02
C     9.666541709775000e+00   5.242074944655549e+00   1.028134880800000e+01  2.74341267e+00   2.66663057e+00   5.45806780e-01
