72
Lattice="7.395 0 0 3.6975 6.40425786098592 0 0 0 13.6 " PBC="1 1 1" Properties=species:S:1:pos:R:3:force:R:3 Energy="-580.63682773"
C     1.103743549890000e+01   6.342453569522070e+00   1.348815183200000e+01  1.51623529e+00  -1.88911840e-01  -7.12303590e-01
C     1.191919703325000e+00   6.620398360646070e-01   1.346771851200000e+01  5.79576410e-01  -2.04847520e+00  -1.29016000e-01
C     1.276498388925000e+00   7.902744686430594e-01   3.601435040000000e+00 -5.88281620e-01   2.02664810e-01  -2.64951810e-01
C     2.513312064975000e+00   1.489231457013901e+00   3.626321000000000e+00  2.25751610e-01  -2.83877860e-01  -4.69577480e-01
C     6.148554040650000e+00   6.312174238359991e+00   1.341275452000000e+01 -6.85947410e-01   1.42672516e+00   3.03968050e-01
C     3.675671808750000e+00   6.137670379764923e-01   1.352337025600000e+01  4.11363070e-01   9.28929720e-01  -1.05410829e+00
C     3.762831608175000e+00   8.001563666061966e-01   3.543913296000000e+00  2.84829680e-01   7.08642440e-01   4.65382400e-02
C     5.011170909375000e+00   1.553058724464647e+00   3.522894632000000e+00 -1.12222315e+00  -8.52390370e-01  -7.72691470e-01
C     8.623906202550000e+00   6.349401548874384e+00   1.345070124000000e+01 -4.08816200e-01  -6.30837870e-01  -2.70760360e-01
C     6.152226545550000e+00   6.760472928985777e-01   1.337120869600000e+01 -6.16636130e-01  -2.88820530e-01   4.29733320e-01
C     6.215258308724999e+00   8.251311790679958e-01   3.486969824000000e+00 -2.28963020e-01  -2.58042320e-01   2.32172000e-03
C     7.433169588299999e+00   1.510566409520969e+00   3.584866704000000e+00  8.34517340e-01   1.60688494e+00  -7.14963300e-02
C     1.215097703925000e+00   2.052126528849798e+00   1.346956865600000e+01 -4.21266000e-01   1.15937948e+00   1.13647570e-01
C     2.454619761750000e+00   2.771938406558522e+00   2.670604800000000e-02 -1.28790160e-01  -1.04670928e+00  -1.12406665e+00
C     2.514696224100000e+00   2.897039563851233e+00   3.594712152000000e+00  1.59776310e-01   7.19506870e-01   1.20371880e-01
C     3.736339575300000e+00   3.613112443693553e+00   3.524094424000000e+00  9.60745900e-02   1.32055786e+00  -9.14275190e-01
C     3.674248197300000e+00   2.054027504710382e+00   1.348995750400000e+01  7.55449310e-01   1.94270690e-01   7.51803490e-01
C     4.908332120024999e+00   2.800422047859236e+00   1.334051866400000e+01 -1.47489790e-01  -8.61633020e-01  -1.63062690e-01
C     5.017364480700000e+00   2.966751319594062e+00   3.408216032000000e+00 -1.96635707e+00  -7.45947870e-01   1.57109249e+00
C     6.196601906924999e+00   3.687348359316422e+00   3.513677096000000e+00  1.63390669e+00   8.28682700e-01   1.26129600e-02
C     6.166422911925000e+00   2.102514589266492e+00   1.322833688800000e+01 -1.69075268e+00  -1.25975916e+00   9.71191770e-01
C     7.373926431525000e+00   2.768716488471734e+00   1.327016464000000e+01  1.79851738e+00   1.00824075e+00   9.62311450e-01
C     7.436056152599999e+00   2.983945471096590e+00   3.638467568000000e+00 -1.89989480e-01  -1.73425331e+00  -7.50702300e-01
C     8.694979917300000e+00   3.645130915120095e+00   3.613480016000000e+00 -3.15073910e-01  -4.83422730e-01   4.44659000e-02
C     2.482736845875000e+00   4.166587684770912e+00   7.036503999999999e-03 -1.79771091e+00   1.29539890e+00  -9.86488790e-01
C     3.680183276400000e+00   4.885433928479505e+00   1.350505296000000e+01  1.05324360e-01   1.60644282e+00  -7.39793000e-03
C     3.695579592450000e+00   5.056572861909769e+00   3.457230432000000e+00  1.28690821e+00   1.38828130e-01   2.96652410e-01
C     4.957335642149999e+00   5.776079832901779e+00   3.522119160000000e+00 -1.21799339e+00   7.69645180e-01  -1.75517610e-01
C     4.899212827875000e+00   4.214272636030057e+00   1.331277711200000e+01  9.94842650e-01  -8.38811900e-02   3.36086380e-01
C     6.160584633375000e+00   4.934508795822006e+00   1.321324605600000e+01 -3.22633010e-01  -1.46095164e+00   1.36967437e+00
C     6.188140769775000e+00   5.139211676185588e+00   3.531677104000000e+00  6.47889830e-01  -2.58283310e+00  -2.57997360e-01
C     7.434712998749999e+00   5.787439705493846e+00   3.505073056000000e+00  1.13123955e+00   1.70135400e-02   6.72152450e-01
C     7.405560392775000e+00   4.200726605974899e+00   1.331820609600000e+01 -8.13379660e-01   4.10115650e-01  -6.24923420e-01
C     8.624397489374999e+00   4.911442324117330e+00   1.341697528000000e+01  8.94332290e-01  -1.68640330e-01   1.08783823e+00
C     8.695078603574999e+00   5.040689341778291e+00   3.545899712000000e+00 -1.28503945e+00   1.99713359e+00  -7.86925760e-01
C     9.882718524600000e+00   5.810783097308390e+00   3.422284960000000e+00  5.82017740e-01  -1.45081859e+00   8.94712050e-01
C     7.426856439824999e+00   5.796922874362620e-02   6.600344656000000e+00 -5.57785840e-01   1.01703582e+00   9.38666000e-01
C     1.270676416350000e+00   7.365584356294165e-01   6.794573600000000e+00 -8.86007300e-01   1.96935970e+00   3.57635790e-01
C     1.173912138825000e+00   6.178165142639490e-01   1.017440888000000e+01 -1.04704720e-01   9.62117290e-01   6.32081720e-01
C     2.393972997000000e+00   1.359165270730067e+00   1.021515570400000e+01  1.19830079e+00  -1.26480784e+00  -2.84923470e-01
C     2.463773070900000e+00   5.378974602161160e-02   6.991463656000000e+00  1.89909937e+00  -6.64076710e-01  -2.46041860e-01
C     3.708325725374999e+00   8.192703865299954e-01   7.120164264000000e+00 -8.08053640e-01  -1.60028741e+00  -1.38989607e+00
C     3.670142752125000e+00   6.389734924450878e-01   1.007587048800000e+01 -2.26828862e+00  -7.01601300e-01  -3.46049110e-01
C     4.853361165675000e+00   1.348691939553559e+00   1.006217297600000e+01  1.96822497e+00  -9.17840300e-02   1.40941251e+00
C     4.882035500024999e+00   8.118735327442740e-02   6.806948648000000e+00  1.52476298e+00  -5.51975930e-01   7.38711390e-01
C     6.140900548424999e+00   7.632842362327182e-01   6.685139975999999e+00  6.48667640e-01  -5.87602790e-01   2.72978000e-01
C     6.106203171449999e+00   6.051118115638596e-01   1.011767240000000e+01 -9.86388800e-01   1.84414240e-01  -2.55177580e-01
C     7.316538976049999e+00   1.295231436428530e+00   1.023827556800000e+01  7.36611990e-01   1.44269014e+00  -6.11744660e-01
C     8.656559194800000e+00   2.206412849849208e+00   6.886295808000000e+00  1.46518803e+00  -1.43365459e+00  -2.84096980e-01
C     2.498336302575000e+00   2.965737973872874e+00   6.962649880000001e+00 -2.90440180e-01  -1.65103965e+00   7.65598930e-01
C     2.407191596475000e+00   2.765374490550072e+00   1.031548072800000e+01 -3.81060480e-01  -3.91275240e-01  -3.89817970e-01
C     3.647812107600000e+00   3.435894076361947e+00   1.033727486400000e+01 -4.40511760e-01   2.35453918e+00  -4.31861320e-01
C     3.725374047449999e+00   2.226502750585714e+00   7.163443679999999e+00 -2.99933340e-01   8.17548330e-01  -1.67408951e+00
C     4.959709880849999e+00   2.919397084210807e+00   6.989744751999999e+00  1.28517260e-01  -1.11270319e+00  -3.64694570e-01
C     4.862040972975000e+00   2.754682582052801e+00   1.028686129600000e+01  8.28292460e-01   2.65486400e-01  -6.96873760e-01
C     6.101298918374999e+00   3.511384201844119e+00   1.024752016800000e+01  2.29623550e-01  -2.42300814e+00  -7.02470060e-01
C     6.175900011150000e+00   2.156823272302499e+00   6.810586784000001e+00  1.27119710e-01   1.31380155e+00   5.98058520e-01
C     7.441518950025000e+00   2.852242484588898e+00   6.842942000000000e+00 -1.28915594e+00   1.63218329e+00   4.59202500e-02
C     7.328372713875000e+00   2.740644961164310e+00   1.021817844000000e+01 -4.02610200e-01   3.21646580e-01   2.78516900e-01
C     8.553211296674998e+00   3.459341025026086e+00   1.023525160800000e+01  7.79611600e-02  -2.55172500e-02  -7.66768090e-01
C     9.889101149100000e+00   4.363654576360280e+00   6.844644312000001e+00  6.83388950e-01   4.61852290e-01  -7.46430790e-01
C     3.759543014700000e+00   5.080811953228612e+00   6.701835743999999e+00 -9.44823300e-01  -2.18649547e+00   9.16735460e-01
C     3.647828043825000e+00   4.909338781580634e+00   1.026730667200000e+01  1.33689780e-01  -1.14416064e+00  -1.78346480e-01
C     4.882440819975000e+00   5.629913470443062e+00   1.021626301600000e+01  1.75360810e-01  -1.55485302e+00  -6.34338120e-01
C     4.974254034075000e+00   4.320777621689529e+00   6.852505792000001e+00  3.23263340e-01   1.09354017e+00   1.09747600e-01
C     6.237138191025000e+00   5.005898851379627e+00   6.920439968000000e+00 -1.69043639e+00   1.32371033e+00  -3.25266260e-01
C     6.123025317449999e+00   4.891427161070050e+00   1.009410264800000e+01 -2.46308900e-01   1.37123336e+00   5.62226650e-01
C     7.374348575100000e+00   5.589805332615504e+00   9.938028096000000e+00 -1.90890216e+00   1.09028995e+00   1.13667851e+00
C     7.453973646000000e+00   4.306263716143990e+00   6.908240631999999e+00 -9.01447250e-01  -1.28314193e+00  -2.55479890e-01
C     8.632908357900000e+00   5.029770018084412e+00   6.807569079999999e+00  7.32334060e-01   1.43728966e+00   2.54525740e-01
C     8.548120504724999e+00   4.864276245830001e+00   1.000732104800000e+01  2.02432814e+00   1.55821200e-01   1.00207379e+00
C     9.808911802725000e+00   5.594475381489596e+00   1.010753863200000e+01 -5.41154150e-01  -4.44343430e-01   9.05716500e-02
