72
Lattice="7.395 0 0 3.6975 6.40425786098592 0 0 0 13.6 " PBC="1 1 1" Properties=species:S:1:pos:R:3:force:R:3 Energy="-584.1580807"
C     0.000000000000000e+00   0.000000000000000e+00   0.000000000000000e+00  1.32000000e-06   1.00000000e-08   4.77000000e-06
C     1.232499987675000e+00   7.115841995508246e-01   0.000000000000000e+00 -1.80000000e-06  -1.15000000e-06   5.28000000e-06
C     1.232499987675000e+00   7.115841995508246e-01   3.400000000000000e+00  2.37000000e-06   1.58000000e-06  -6.38000000e-06
C     2.464999975350000e+00   1.423168399101649e+00   3.400000000000000e+00 -1.63000000e-06  -4.60000000e-07  -6.96000000e-06
C     2.464999975350000e+00   0.000000000000000e+00   0.000000000000000e+00  1.08000000e-06   4.40000000e-07   4.86000000e-06
C     3.697499963025000e+00   7.115841995508246e-01   0.000000000000000e+00 -5.00000000e-07  -5.70000000e-07   4.94000000e-06
C     3.697499963025000e+00   7.115841995508246e-01   3.400000000000000e+00  5.20000000e-07   1.18000000e-06  -6.92000000e-06
C     4.930000024649999e+00   1.423168399101649e+00   3.400000000000000e+00 -2.34000000e-06  -4.40000000e-07  -5.84000000e-06
C     4.930000024650000e+00   0.000000000000000e+00   0.000000000000000e+00  9.10000000e-07   1.36000000e-06   3.65000000e-06
C     6.162500012325000e+00   7.115841995508246e-01   0.000000000000000e+00 -1.30000000e-06  -4.70000000e-07   4.80000000e-06
C     6.162500012325000e+00   7.115841995508246e-01   3.400000000000000e+00  1.08000000e-06   9.50000000e-07  -6.77000000e-06
C     7.395000000000000e+00   1.423168399101649e+00   3.400000000000000e+00 -1.90000000e-06  -4.00000000e-07  -6.95000000e-06
C     1.232499987675000e+00   2.134752598652474e+00   0.000000000000000e+00  6.30000000e-07   4.20000000e-07   5.87000000e-06
C     2.464999975350000e+00   2.846336798203299e+00   0.000000000000000e+00 -1.34000000e-06  -7.50000000e-07   5.10000000e-06
C     2.464999975350000e+00   2.846336798203299e+00   3.400000000000000e+00  1.16000000e-06   2.90000000e-07  -6.49000000e-06
C     3.697500000000000e+00   3.557921061796701e+00   3.400000000000000e+00 -1.47000000e-06  -7.50000000e-07  -6.37000000e-06
C     3.697499963024999e+00   2.134752598652474e+00   0.000000000000000e+00  1.87000000e-06   9.70000000e-07   4.84000000e-06
C     4.929999950700000e+00   2.846336798203299e+00   0.000000000000000e+00 -1.40000000e-06  -1.05000000e-06   4.83000000e-06
C     4.929999950700000e+00   2.846336798203299e+00   3.400000000000000e+00  1.06000000e-06   7.70000000e-07  -6.92000000e-06
C     6.162500049299998e+00   3.557921061796701e+00   3.400000000000000e+00 -1.27000000e-06  -2.09000000e-06  -7.38000000e-06
C     6.162500012324999e+00   2.134752598652474e+00   0.000000000000000e+00  7.50000000e-07   3.40000000e-07   5.77000000e-06
C     7.395000000000000e+00   2.846336798203299e+00   0.000000000000000e+00 -1.00000000e-06  -6.90000000e-07   5.69000000e-06
C     7.395000000000000e+00   2.846336798203299e+00   3.400000000000000e+00  1.06000000e-06   1.00000000e-06  -6.27000000e-06
C     8.627500024649999e+00   3.557921061796701e+00   3.400000000000000e+00 -6.80000000e-07  -1.29000000e-06  -6.36000000e-06
C     2.465000012325000e+00   4.269505261347526e+00   0.000000000000000e+00  1.26000000e-06   1.01000000e-06   5.02000000e-06
C     3.697500000000000e+00   4.981089460898351e+00   0.000000000000000e+00 -1.85000000e-06  -0.00000000e+00   6.31000000e-06
C     3.697500000000000e+00   4.981089460898351e+00   3.400000000000000e+00  7.30000000e-07   1.23000000e-06  -7.09000000e-06
C     4.929999987675000e+00   5.692673660449176e+00   3.400000000000000e+00 -1.12000000e-06  -2.80000000e-07  -5.95000000e-06
C     4.929999987675000e+00   4.269505261347526e+00   0.000000000000000e+00  1.28000000e-06   6.10000000e-07   5.37000000e-06
C     6.162499975350000e+00   4.981089460898351e+00   0.000000000000000e+00 -1.93000000e-06  -1.70000000e-07   5.22000000e-06
C     6.162499975350000e+00   4.981089460898351e+00   3.400000000000000e+00  1.12000000e-06   1.22000000e-06  -5.73000000e-06
C     7.395000036974999e+00   5.692673660449176e+00   3.400000000000000e+00 -1.77000000e-06  -1.35000000e-06  -6.98000000e-06
C     7.395000036975000e+00   4.269505261347526e+00   0.000000000000000e+00  1.29000000e-06   1.00000000e-06   4.97000000e-06
C     8.627500024650001e+00   4.981089460898351e+00   0.000000000000000e+00 -1.05000000e-06   7.00000000e-08   5.05000000e-06
C     8.627500024650001e+00   4.981089460898351e+00   3.400000000000000e+00  1.13000000e-06  -1.30000000e-07  -6.15000000e-06
C     9.860000012324999e+00   5.692673660449176e+00   3.400000000000000e+00 -7.10000000e-07  -5.20000000e-07  -6.49000000e-06
C     0.000000000000000e+00   0.000000000000000e+00   6.800000000000000e+00  2.16000000e-06   1.07000000e-06  -4.48000000e-06
C     1.232499987675000e+00   7.115841995508246e-01   6.800000000000000e+00 -8.20000000e-07  -7.00000000e-08  -5.35000000e-06
C     1.232499987675000e+00   7.115841995508246e-01   1.020000000000000e+01  4.20000000e-07   1.14000000e-06   6.01000000e-06
C     2.464999975350000e+00   1.423168399101649e+00   1.020000000000000e+01 -5.80000000e-07  -8.40000000e-07   6.73000000e-06
C     2.464999975350000e+00   0.000000000000000e+00   6.800000000000000e+00  1.94000000e-06   2.27000000e-06  -5.07000000e-06
C     3.697499963025000e+00   7.115841995508246e-01   6.800000000000000e+00 -1.94000000e-06   6.00000000e-07  -4.85000000e-06
C     3.697499963025000e+00   7.115841995508246e-01   1.020000000000000e+01  1.37000000e-06   1.96000000e-06   7.13000000e-06
C     4.930000024649999e+00   1.423168399101649e+00   1.020000000000000e+01 -2.69000000e-06  -7.40000000e-07   6.77000000e-06
C     4.930000024650000e+00   0.000000000000000e+00   6.800000000000000e+00  9.00000000e-07   2.19000000e-06  -4.49000000e-06
C     6.162500012325000e+00   7.115841995508246e-01   6.800000000000000e+00 -1.92000000e-06   9.30000000e-07  -4.16000000e-06
C     6.162500012325000e+00   7.115841995508246e-01   1.020000000000000e+01  1.02000000e-06   8.10000000e-07   6.37000000e-06
C     7.395000000000000e+00   1.423168399101649e+00   1.020000000000000e+01 -2.33000000e-06  -1.37000000e-06   6.72000000e-06
C     1.232499987675000e+00   2.134752598652474e+00   6.800000000000000e+00  2.54000000e-06   5.30000000e-07  -5.33000000e-06
C     2.464999975350000e+00   2.846336798203299e+00   6.800000000000000e+00 -2.54000000e-06  -2.09000000e-06  -4.47000000e-06
C     2.464999975350000e+00   2.846336798203299e+00   1.020000000000000e+01  1.57000000e-06   1.73000000e-06   6.36000000e-06
C     3.697500000000000e+00   3.557921061796701e+00   1.020000000000000e+01 -2.04000000e-06  -1.56000000e-06   6.50000000e-06
C     3.697499963024999e+00   2.134752598652474e+00   6.800000000000000e+00  1.51000000e-06  -7.00000000e-08  -6.02000000e-06
C     4.929999950700000e+00   2.846336798203299e+00   6.800000000000000e+00 -1.77000000e-06  -2.37000000e-06  -4.69000000e-06
C     4.929999950700000e+00   2.846336798203299e+00   1.020000000000000e+01  6.60000000e-07   1.00000000e-07   5.58000000e-06
C     6.162500049299998e+00   3.557921061796701e+00   1.020000000000000e+01 -2.70000000e-06  -1.29000000e-06   6.47000000e-06
C     6.162500012324999e+00   2.134752598652474e+00   6.800000000000000e+00  1.10000000e-06   2.90000000e-07  -5.55000000e-06
C     7.395000000000000e+00   2.846336798203299e+00   6.800000000000000e+00 -4.80000000e-07  -7.30000000e-07  -4.24000000e-06
C     7.395000000000000e+00   2.846336798203299e+00   1.020000000000000e+01  1.05000000e-06   2.90000000e-07   6.17000000e-06
C     8.627500024649999e+00   3.557921061796701e+00   1.020000000000000e+01  3.70000000e-07  -1.00000000e-06   6.61000000e-06
C     2.465000012325000e+00   4.269505261347526e+00   6.800000000000000e+00  1.06000000e-06   7.60000000e-07  -4.56000000e-06
C     3.697500000000000e+00   4.981089460898351e+00   6.800000000000000e+00 -3.20000000e-07  -6.90000000e-07  -5.39000000e-06
C     3.697500000000000e+00   4.981089460898351e+00   1.020000000000000e+01  1.00000000e-06   1.07000000e-06   6.54000000e-06
C     4.929999987675000e+00   5.692673660449176e+00   1.020000000000000e+01 -2.25000000e-06  -1.66000000e-06   6.75000000e-06
C     4.929999987675000e+00   4.269505261347526e+00   6.800000000000000e+00  1.99000000e-06   1.24000000e-06  -5.50000000e-06
C     6.162499975350000e+00   4.981089460898351e+00   6.800000000000000e+00 -1.09000000e-06  -6.10000000e-07  -5.09000000e-06
C     6.162499975350000e+00   4.981089460898351e+00   1.020000000000000e+01  7.10000000e-07   7.60000000e-07   6.32000000e-06
C     7.395000036974999e+00   5.692673660449176e+00   1.020000000000000e+01 -4.40000000e-07  -3.80000000e-07   6.75000000e-06
C     7.395000036975000e+00   4.269505261347526e+00   6.800000000000000e+00  1.76000000e-06   1.22000000e-06  -5.16000000e-06
C     8.627500024650001e+00   4.981089460898351e+00   6.800000000000000e+00 -9.20000000e-07  -3.40000000e-07  -5.00000000e-06
C     8.627500024650001e+00   4.981089460898351e+00   1.020000000000000e+01  2.34000000e-06   1.30000000e-06   6.48000000e-06
C     9.860000012324999e+00   5.692673660449176e+00   1.020000000000000e+01 -1.05000000e-06  -1.65000000e-06   6.60000000e-06
