72
Lattice="7.395 0 0 3.6975 6.40425786098592 0 0 0 13.6 " PBC="1 1 1" Properties=species:S:1:pos:R:3:force:R:3 Energy="-580.80694584"
C     3.692988495375000e+00   6.220535392428357e+00   5.789003200000000e-02 -5.55204890e-01   2.15774334e+00  -6.41443740e-01
C     1.222893882675000e+00   5.649949639456122e-01   1.357059897600000e+01 -4.08477750e-01  -1.50678300e-02   5.22355430e-01
C     1.341035737125000e+00   8.831103344113050e-01   3.317126224000000e+00 -1.16443126e+00   5.68400930e-01   4.57169930e-01
C     2.536348784100000e+00   1.644111196546619e+00   3.190510496000000e+00  8.33307790e-01  -1.40159924e+00   4.04823090e-01
C     6.143072940600000e+00   6.257966166214963e+00   1.060344400000000e-01 -4.20304250e-01  -5.00764350e-01  -1.40556440e-01
C     3.654773169000000e+00   5.819412066263796e-01   1.161729680000000e-01  1.51436714e+00  -4.10775600e-01  -8.70861510e-01
C     3.778900277625000e+00   9.134635707090896e-01   3.287938448000000e+00  4.74659100e-02  -9.51500360e-01   7.63505070e-01
C     5.026184829975000e+00   1.608232686780120e+00   3.481289104000000e+00 -1.28436517e+00  -2.59195880e-01  -1.20901609e+00
C     8.625374812575000e+00   6.272530153056968e+00   1.644807120000000e-01 -1.19148483e+00  -9.03044650e-01  -7.42305210e-01
C     6.142292842049999e+00   5.822354182324680e-01   1.113272880000000e-01  9.14665420e-01  -1.99051115e+00   1.18916880e-01
C     6.237174722324999e+00   8.869924674408799e-01   3.560396224000000e+00  3.24287540e-01   7.79948310e-01  -4.24392160e-01
C     7.464275805374999e+00   1.576033999537398e+00   3.414450680000000e+00  1.47388360e+00   1.68414597e+00  -2.31297740e-01
C     1.200840069975000e+00   2.023289180387475e+00   1.351717600000000e+01  5.90672180e-01  -2.29746930e+00   1.78673830e-01
C     2.407746332400000e+00   2.719399412096968e+00   1.341909252800000e+01  2.32918600e+00  -8.04636930e-01   4.45988070e-01
C     2.539504341525000e+00   3.054163739593567e+00   3.216881032000000e+00  1.25336563e+00  -4.46678150e-01   9.82677590e-01
C     3.785899866974999e+00   3.717736690947279e+00   3.463050280000000e+00 -3.33979250e-01   2.00265141e+00  -9.89782310e-01
C     3.676673387550000e+00   1.987241213958000e+00   1.347754056800000e+01  1.16559000e-02   4.09844530e-01   1.75931541e+00
C     4.933063921050000e+00   2.695204766327674e+00   1.385455120000000e-01 -1.12658798e+00  -3.57084920e-01  -1.04045576e+00
C     5.013871415475000e+00   3.026532569056597e+00   3.386725992000000e+00  5.25685500e-02  -2.05756820e-01   1.24015799e+00
C     6.226922442224999e+00   3.756814831983214e+00   3.433347472000000e+00  1.36491203e+00  -1.81130903e+00  -3.29997740e-01
C     6.168411538350000e+00   1.970116100355203e+00   1.946146400000000e-01 -1.06245553e+00   8.36227470e-01  -4.41172440e-01
C     7.388686555725000e+00   2.675996539770754e+00   1.252424000000000e-01 -7.34164620e-01   6.70051660e-01   5.48999180e-01
C     7.490179381124999e+00   3.052841900771263e+00   3.336679624000000e+00 -9.94439020e-01  -1.75579175e+00   2.20104610e-01
C     8.728744488975000e+00   3.743951367730775e+00   3.262396288000000e+00 -1.15699683e+00   8.04459550e-01   9.37053750e-01
C     2.472421560374999e+00   4.119225123852439e+00   1.351027427200000e+01 -1.79340149e+00   3.26773050e-01  -2.83122800e-02
C     3.679662927224999e+00   4.825058620057876e+00   1.356126624800000e+01  8.10995150e-01  -4.45226700e-02   7.01128120e-01
C     3.818725199700000e+00   5.189523077635697e+00   3.577469936000000e+00 -1.38938778e+00  -1.32654570e+00  -5.89808920e-01
C     5.059927438500000e+00   5.869242956246670e+00   3.490706696000000e+00 -1.41042345e+00   7.16375570e-01  -3.93212960e-01
C     4.908172092225000e+00   4.126505228017373e+00   1.283089280000000e-01 -1.93892200e-01  -9.46513850e-01  -3.46883040e-01
C     6.111952894874999e+00   4.815382042601732e+00   2.353549360000000e-01  2.02696906e+00   6.48152340e-01   9.92323100e-02
C     6.245282341499999e+00   5.136205069248053e+00   3.422859288000000e+00  4.47099860e-01   1.08300685e+00  -2.81103630e-01
C     7.460857577550000e+00   5.841290548135443e+00   3.333505112000000e+00  1.20891027e+00   1.91046957e+00   7.36313620e-01
C     7.373416287450000e+00   4.064951279979190e+00   3.060678640000000e-01  5.36445080e-01   2.53781441e+00  -2.29399695e+00
C     8.629076231925000e+00   4.812718767928072e+00   4.602430400000000e-02 -1.18986584e+00   7.67973600e-01   1.51582882e+00
C     8.713461353400000e+00   5.159267826483171e+00   3.447842216000000e+00  4.05686800e-02   4.40836200e-01  -7.42993420e-01
C     9.938521120650000e+00   5.900917775196445e+00   3.564604880000000e+00  6.73100580e-01  -1.93921313e+00  -1.67285300e-01
C     7.413233444775000e+00   1.144877009542266e-01   6.927097576000000e+00  1.29788645e+00  -2.86794900e-01  -3.14285500e-01
C     1.248366071100000e+00   8.370368865574717e-01   6.786061224000000e+00  3.98933290e-01  -5.19838110e-01   1.63311090e-01
C     1.130684370525000e+00   5.564865231231306e-01   1.011013582400000e+01  1.40879010e-01   3.08559520e-01   5.83811510e-01
C     2.336569938075000e+00   1.263468430848024e+00   9.936036240000000e+00  1.62189912e+00   2.77268300e-01   8.43185220e-01
C     2.497934421300000e+00   1.318657186999152e-01   6.800655656000000e+00 -2.66842990e-01  -4.92883510e-01   1.40652820e-01
C     3.734566217325000e+00   8.263301842245451e-01   6.785617456000000e+00  1.40250900e-01  -9.30544800e-02  -8.78342100e-02
C     3.608095152525000e+00   5.390333834327442e-01   1.006915032000000e+01 -4.46113350e-01   1.18919473e+00  -5.94615040e-01
C     4.876919749950000e+00   1.273734520240182e+00   1.007096401600000e+01 -2.60696694e+00  -6.38428730e-01   8.55111220e-01
C     4.974171912600000e+00   9.689193844129801e-02   6.906283864000000e+00  1.96087730e-01   1.51037711e+00   2.51165900e-02
C     6.232502672250000e+00   8.272123707447601e-01   6.956639767999999e+00 -2.42655811e+00   8.70679140e-01  -1.08240486e+00
C     6.051699618074999e+00   5.815614981778603e-01   1.027169008800000e+01  1.26025467e+00  -1.32669405e+00  -4.60509330e-01
C     7.304175645300000e+00   1.263171209240741e+00   1.026226447200000e+01 -2.50038220e-01   5.68828040e-01  -9.11131860e-01
C     8.650213360424999e+00   2.240348051610669e+00   6.705265528000000e+00 -1.47066680e-01   1.42046168e+00  -1.99790380e-01
C     2.512580995275000e+00   2.955858765698038e+00   6.608190496000001e+00 -1.55074714e+00   4.07596430e-01   1.58252703e+00
C     2.352444562725000e+00   2.719407673589607e+00   9.894354415999999e+00  5.88482040e-01  -1.50475896e+00   7.73713630e-01
C     3.590819545125000e+00   3.398889057637875e+00   9.944205215999999e+00  8.49796580e-01   3.37253940e-01   9.24287210e-01
C     3.720043324725000e+00   2.251092859277863e+00   6.684168392000000e+00  8.50546760e-01  -4.67057730e-01   6.97863200e-02
C     4.959071396550000e+00   2.960751042319871e+00   6.744019543999999e+00 -6.52225050e-01   2.30567640e-01   2.76143090e-01
C     4.840531543200000e+00   2.673621904998845e+00   1.008946545600000e+01 -1.16113727e+00   8.17856310e-01  -4.81888920e-01
C     6.026371114499999e+00   3.380149366585992e+00   1.022995889600000e+01  2.27135726e+00   1.35435992e+00  -6.31304600e-01
C     6.186731874375000e+00   2.274289849757726e+00   6.796843168000000e+00  7.79135120e-01  -8.48321940e-01   4.59573700e-01
C     7.407377566125000e+00   3.010643221050465e+00   6.758470224000000e+00  7.16226960e-01  -2.09445187e+00   1.99277160e-01
C     7.303278927599999e+00   2.677431669914601e+00   1.018021499200000e+01 -1.68877800e-02   1.09036767e+00   4.87937360e-01
C     8.569423170299999e+00   3.432371862624104e+00   1.010045956000000e+01 -2.22207156e+00  -1.34254305e+00  -4.25341250e-01
C     9.877238718674999e+00   4.387875927884849e+00   6.843715704000000e+00  5.62084000e-01  -1.04095295e+00  -9.84630230e-01
C     3.702232873950000e+00   5.089102393113540e+00   6.876385760000000e+00  5.54516090e-01   2.75485190e-01   1.30203310e-01
C     3.597917524950000e+00   4.809730477168016e+00   1.012255833600000e+01 -2.89252460e-01   1.07311164e+00   3.98787560e-01
C     4.849576404675000e+00   5.556451253212260e+00   1.021238810400000e+01 -1.28994254e+00  -1.15908912e+00  -7.70701000e-01
C     4.930209894750000e+00   4.375424193370231e+00   6.826360200000000e+00  1.33338391e+00   6.62461620e-01  -1.37645630e-01
C     6.199237337025000e+00   5.102713554471134e+00   6.869483352000000e+00 -1.48519284e+00   2.56957150e-01  -4.32171450e-01
C     6.055086602025000e+00   4.845842870431563e+00   1.018932345600000e+01  3.20365810e-01  -1.41249719e+00   3.30205280e-01
C     7.295422109850000e+00   5.536420463775802e+00   1.017559452800000e+01  2.34005110e-01   6.09710000e-03  -1.49543130e-01
C     7.415028839849999e+00   4.404104637514983e+00   6.831299855999999e+00  5.66789460e-01   3.84932780e-01  -7.65114200e-02
C     8.670381448124999e+00   5.100006858929182e+00   6.886421879999999e+00 -1.00623104e+00  -2.06192440e-01  -1.35094190e-01
C     8.553410185199999e+00   4.832904028064112e+00   1.015630129600000e+01 -1.73216861e+00   1.82402190e-01   2.91493360e-01
C     9.726614104874999e+00   5.546588311852388e+00   1.021816293600000e+01  2.72282020e+00   1.64099950e-01  -3.97797720e-01
