2
Lattice="2.68794 0.0 0.0 -1.3439699999999994 2.3278243238483443 0.0 0.0 0.0 30.0" Properties=species:S:1:pos:R:3:forces:R:3 Energy=-22.85911026 dipole="_JSON [[0.0, 0.0, 0.0]]" pbc="T T T"
C 0.00000000 0.00000000 0.00000000 0.00000000 -0.00000000 0.00000000
C 0.00000000 1.55188288 0.00000000 -0.00000000 0.00000000 -0.00000000
