2
Lattice="2.5893 0.0 0.0 -1.2946499999999994 2.242399578019047 0.0 0.0 0.0 30.0" Properties=species:S:1:pos:R:3:forces:R:3 Energy=-23.736943634999996 dipole="_JSON [[0.0, 0.0, 0.0]]" pbc="T T T"
C 0.00000000 0.00000000 0.00000000 -0.00000000 0.00000000 -0.00000000
C 0.00000000 1.49493305 0.00000000 0.00000000 -0.00000000 0.00000000
