2
Lattice="2.4117480000000002 0.0 0.0 -1.2058739999999997 2.0886350355263126 0.0 0.0 0.0 30.0" Properties=species:S:1:pos:R:3:forces:R:3 Energy=-24.091717455 dipole="_JSON [[0.0, 0.0, 0.0]]" pbc="T T T"
C 0.00000000 0.00000000 0.00000000 0.00000000 -0.00000000 -0.00000000
C 0.00000000 1.39242336 0.00000000 -0.00000000 0.00000000 0.00000000
