2
Lattice="2.1355560000000002 0.0 0.0 -1.0677779999999997 1.849445747204281 0.0 0.0 0.0 30.0" Properties=species:S:1:pos:R:3:forces:R:3 Energy=-18.957788145 dipole="_JSON [[0.0, 0.0, 0.0]]" pbc="T T T"
C 0.00000000 0.00000000 0.00000000 0.00000000 -0.00000000 0.00000000
C 0.00000000 1.23296383 0.00000000 -0.00000000 0.00000000 0.00000000
