2
Lattice="2.7076680000000004 0.0 0.0 -1.3538339999999995 2.344909273014204 0.0 0.0 0.0 30.0" Properties=species:S:1:pos:R:3:forces:R:3 Energy=-22.642778805 dipole="_JSON [[0.0, 0.0, 0.0]]" pbc="T T T"
C 0.00000000 0.00000000 0.00000000 -0.00000000 0.00000000 -0.00000000
C 0.00000000 1.56327285 0.00000000 0.00000000 -0.00000000 0.00000000
