2
Lattice="2.6287560000000005 0.0 0.0 -1.3143779999999996 2.2765694763507662 0.0 0.0 0.0 30.0" Properties=species:S:1:pos:R:3:forces:R:3 Energy=-23.430693555000005 dipole="_JSON [[0.0, 0.0, 0.0]]" pbc="T T T"
C 0.00000000 0.00000000 0.00000000 -0.00000000 -0.00000000 0.00000000
C 0.00000000 1.51771298 0.00000000 0.00000000 0.00000000 -0.00000000
