2
Lattice="2.1158280000000005 0.0 0.0 -1.0579139999999998 1.8323607980384218 0.0 0.0 0.0 30.0" Properties=species:S:1:pos:R:3:forces:R:3 Energy=-18.178212315000003 dipole="_JSON [[0.0, 0.0, 0.0]]" pbc="T T T"
C 0.00000000 0.00000000 0.00000000 -0.00000000 0.00000000 0.00000000
C 0.00000000 1.22157387 0.00000000 0.00000000 -0.00000000 -0.00000000
