2
Lattice="1.9974600000000002 0.0 0.0 -0.9987299999999997 1.729851103043265 0.0 0.0 0.0 30.0" Properties=species:S:1:pos:R:3:forces:R:3 Energy=-11.808156825 dipole="_JSON [[0.0, 0.0, 0.0]]" pbc="T T T"
C 0.00000000 0.00000000 0.00000000 -0.00000000 0.00000000 0.00000000
C 0.00000000 1.15323407 0.00000000 0.00000000 -0.00000000 -0.00000000
