2
Lattice="2.6090280000000003 0.0 0.0 -1.3045139999999995 2.259484527184907 0.0 0.0 0.0 30.0" Properties=species:S:1:pos:R:3:forces:R:3 Energy=-23.592031305 dipole="_JSON [[0.0, 0.0, 0.0]]" pbc="T T T"
C 0.00000000 0.00000000 0.00000000 0.00000000 -0.00000000 0.00000000
C 0.00000000 1.50632302 0.00000000 -0.00000000 0.00000000 -0.00000000
