2
Lattice="2.0763720000000006 0.0 0.0 -1.0381859999999998 1.798190899706703 0.0 0.0 0.0 30.0" Properties=species:S:1:pos:R:3:forces:R:3 Energy=-16.39536255 dipole="_JSON [[0.0, 0.0, 0.0]]" pbc="T T T"
C 0.00000000 0.00000000 0.00000000 0.00000000 -0.00000000 0.00000000
C 0.00000000 1.19879393 0.00000000 -0.00000000 0.00000000 -0.00000000
