2
Lattice="2.9641320000000007 0.0 0.0 -1.4820659999999997 2.5670136121703764 0.0 0.0 0.0 30.0" Properties=species:S:1:pos:R:3:forces:R:3 Energy=-19.086916275 dipole="_JSON [[0.0, 0.0, 0.0]]" pbc="T T T"
C 0.00000000 0.00000000 0.00000000 -0.00000000 0.00000000 0.00000000
C 0.00000000 1.71134241 0.00000000 0.00000000 -0.00000000 -0.00000000
