2
Lattice="2.0961000000000003 0.0 0.0 -1.0480499999999997 1.8152758488725622 0.0 0.0 0.0 30.0" Properties=species:S:1:pos:R:3:forces:R:3 Energy=-17.325517635 dipole="_JSON [[0.0, 0.0, 0.0]]" pbc="T T T"
C 0.00000000 0.00000000 0.00000000 -0.00000000 0.00000000 -0.00000000
C 0.00000000 1.21018390 0.00000000 0.00000000 -0.00000000 0.00000000
