2
Lattice="2.1947400000000004 0.0 0.0 -1.0973699999999997 1.9007005947018594 0.0 0.0 0.0 30.0" Properties=species:S:1:pos:R:3:forces:R:3 Energy=-20.89659192 dipole="_JSON [[0.0, 0.0, 0.0]]" pbc="T T T"
C 0.00000000 0.00000000 0.00000000 -0.00000000 0.00000000 -0.00000000
C 0.00000000 1.26713373 0.00000000 0.00000000 -0.00000000 0.00000000
