2
Lattice="2.3328360000000004 0.0 0.0 -1.1664179999999997 2.020295238862875 0.0 0.0 0.0 30.0" Properties=species:S:1:pos:R:3:forces:R:3 Energy=-23.514275954999995 dipole="_JSON [[0.0, 0.0, 0.0]]" pbc="T T T"
C 0.00000000 0.00000000 0.00000000 0.00000000 0.00000000 -0.00000000
C 0.00000000 1.34686349 0.00000000 -0.00000000 -0.00000000 0.00000000
