2
Lattice="2.5103880000000003 0.0 0.0 -1.2551939999999995 2.1740597813556097 0.0 0.0 0.0 30.0" Properties=species:S:1:pos:R:3:forces:R:3 Energy=-24.128518094999997 dipole="_JSON [[0.0, 0.0, 0.0]]" pbc="T T T"
C 0.00000000 0.00000000 0.00000000 0.00000000 -0.00000000 0.00000000
C 0.00000000 1.44937319 0.00000000 -0.00000000 0.00000000 -0.00000000
