2
Lattice="2.5301160000000005 0.0 0.0 -1.2650579999999996 2.1911447305214695 0.0 0.0 0.0 30.0" Properties=species:S:1:pos:R:3:forces:R:3 Energy=-24.06139143 dipole="_JSON [[0.0, 0.0, 0.0]]" pbc="T T T"
C 0.00000000 0.00000000 0.00000000 -0.00000000 -0.00000000 0.00000000
C 0.00000000 1.46076315 0.00000000 0.00000000 0.00000000 -0.00000000
