2
Lattice="2.9049480000000005 0.0 0.0 -1.4524739999999996 2.515758764672798 0.0 0.0 0.0 30.0" Properties=species:S:1:pos:R:3:forces:R:3 Energy=-19.991104575 dipole="_JSON [[0.0, 0.0, 0.0]]" pbc="T T T"
C 0.00000000 0.00000000 0.00000000 -0.00000000 0.00000000 0.00000000
C 0.00000000 1.67717251 0.00000000 0.00000000 -0.00000000 -0.00000000
