2
Lattice="2.2539240000000005 0.0 0.0 -1.1269619999999998 1.9519554421994376 0.0 0.0 0.0 30.0" Properties=species:S:1:pos:R:3:forces:R:3 Energy=-22.308982260000004 dipole="_JSON [[0.0, 0.0, 0.0]]" pbc="T T T"
C 0.00000000 0.00000000 0.00000000 0.00000000 0.00000000 -0.00000000
C 0.00000000 1.30130363 0.00000000 -0.00000000 -0.00000000 0.00000000
