2
Lattice="2.313108 0.0 0.0 -1.1565539999999996 2.0032102896970154 0.0 0.0 0.0 30.0" Properties=species:S:1:pos:R:3:forces:R:3 Energy=-23.277548805000002 dipole="_JSON [[0.0, 0.0, 0.0]]" pbc="T T T"
C 0.00000000 0.00000000 0.00000000 0.00000000 -0.00000000 0.00000000
C 0.00000000 1.33547353 0.00000000 -0.00000000 0.00000000 -0.00000000
