2
Lattice="2.4314760000000004 0.0 0.0 -1.2157379999999998 2.1057199846921724 0.0 0.0 0.0 30.0" Properties=species:S:1:pos:R:3:forces:R:3 Energy=-24.153995834999996 dipole="_JSON [[0.0, 0.0, 0.0]]" pbc="T T T"
C 0.00000000 0.00000000 0.00000000 -0.00000000 0.00000000 0.00000000
C 0.00000000 1.40381332 0.00000000 0.00000000 -0.00000000 -0.00000000
