2
Lattice="2.8063080000000005 0.0 0.0 -1.4031539999999996 2.430334018843501 0.0 0.0 0.0 30.0" Properties=species:S:1:pos:R:3:forces:R:3 Energy=-21.408633720000005 dipole="_JSON [[0.0, 0.0, 0.0]]" pbc="T T T"
C 0.00000000 0.00000000 0.00000000 -0.00000000 0.00000000 0.00000000
C 0.00000000 1.62022268 0.00000000 0.00000000 -0.00000000 -0.00000000
