2
Lattice="2.3722920000000003 0.0 0.0 -1.1861459999999997 2.054465137194594 0.0 0.0 0.0 30.0" Properties=species:S:1:pos:R:3:forces:R:3 Energy=-23.87261592 dipole="_JSON [[0.0, 0.0, 0.0]]" pbc="T T T"
C 0.00000000 0.00000000 0.00000000 -0.00000000 0.00000000 -0.00000000
C 0.00000000 1.36964342 0.00000000 0.00000000 -0.00000000 0.00000000
