2
Lattice="2.8260360000000007 0.0 0.0 -1.4130179999999997 2.4474189680093605 0.0 0.0 0.0 30.0" Properties=species:S:1:pos:R:3:forces:R:3 Energy=-21.136926825000003 dipole="_JSON [[0.0, 0.0, 0.0]]" pbc="T T T"
C 0.00000000 0.00000000 0.00000000 0.00000000 -0.00000000 -0.00000000
C 0.00000000 1.63161265 0.00000000 -0.00000000 0.00000000 0.00000000
