2
Lattice="2.8457640000000004 0.0 0.0 -1.4228819999999995 2.46450391717522 0.0 0.0 0.0 30.0" Properties=species:S:1:pos:R:3:forces:R:3 Energy=-20.85867516 dipole="_JSON [[0.0, 0.0, 0.0]]" pbc="T T T"
C 0.00000000 0.00000000 0.00000000 -0.00000000 0.00000000 -0.00000000
C 0.00000000 1.64300261 0.00000000 0.00000000 -0.00000000 0.00000000
