2
Lattice="2.4709320000000004 0.0 0.0 -1.2354659999999997 2.139889883023891 0.0 0.0 0.0 30.0" Properties=species:S:1:pos:R:3:forces:R:3 Energy=-24.192897225000003 dipole="_JSON [[0.0, 0.0, 0.0]]" pbc="T T T"
C 0.00000000 0.00000000 0.00000000 -0.00000000 0.00000000 -0.00000000
C 0.00000000 1.42659326 0.00000000 0.00000000 -0.00000000 0.00000000
