2
Lattice="2.0171880000000004 0.0 0.0 -1.0085939999999998 1.7469360522091246 0.0 0.0 0.0 30.0" Properties=species:S:1:pos:R:3:forces:R:3 Energy=-13.09492941 dipole="_JSON [[0.0, 0.0, 0.0]]" pbc="T T T"
C 0.00000000 0.00000000 0.00000000 0.00000000 -0.00000000 0.00000000
C 0.00000000 1.16462403 0.00000000 -0.00000000 0.00000000 -0.00000000
