2
Lattice="2.9444040000000005 0.0 0.0 -1.4722019999999996 2.549928663004517 0.0 0.0 0.0 30.0" Properties=species:S:1:pos:R:3:forces:R:3 Energy=-19.391442270000002 dipole="_JSON [[0.0, 0.0, 0.0]]" pbc="T T T"
C 0.00000000 0.00000000 0.00000000 -0.00000000 0.00000000 0.00000000
C 0.00000000 1.69995244 0.00000000 0.00000000 -0.00000000 -0.00000000
