72
Lattice="7.395 0 0 3.6975 6.40425786098592 0 0 0 13.6 " PBC="1 1 1" Properties=species:S:1:pos:R:3:force:R:3 Energy="-563.16820878"
C     1.095769147942500e+01   6.301661456955065e+00   1.346714010400000e+01  3.65539674e+00   4.79883500e-02  -1.61619271e+00
C     1.206496986150000e+00   6.013628870977729e-01   1.345645050400000e+01 -1.00747647e+00  -2.62167444e+00  -8.36905370e-01
C     1.334525290050000e+00   9.018479761006717e-01   3.875207120000000e+00 -1.82872885e+00  -4.32904200e-02  -7.31647840e-01
C     2.588189693775000e+00   1.564363392353962e+00   3.975120336000000e+00  8.08405470e-01  -2.06532992e+00  -1.32749653e+00
C     6.177982997775000e+00   6.212718995710228e+00   1.325270332800000e+01 -3.06499478e+00   1.41783640e+00   8.73272340e-01
C     3.653366233275000e+00   4.813644503401734e-01   1.349120476000000e+01  2.49087879e+00   2.48295837e+00  -2.26909716e+00
C     3.879656006400000e+00   9.307972709903868e-01   3.728850720000000e+00  1.28531300e-01   4.96994350e-01   4.34247480e-01
C     5.167562809725000e+00   1.717828623453142e+00   3.691555576000000e+00 -4.04301357e+00  -1.25361507e+00  -2.11847844e+00
C     8.642512946924999e+00   6.279463658786518e+00   1.330102331200000e+01 -1.98247164e+00  -2.22922560e-01  -3.77803240e-01
C     6.105911438700000e+00   6.643633648587937e-01   1.313876579200000e+01  1.38507856e+00  -1.70945244e+00   1.46868214e+00
C     6.298127418225000e+00   9.362259682505731e-01   3.547217824000000e+00 -7.44298560e-01   1.49475500e+00   4.11919870e-01
C     7.461252248699999e+00   1.602265647604222e+00   3.816822183999999e+00  4.03656653e+00   3.95779028e+00   6.65768500e-01
C     1.207985303850000e+00   2.004402959915756e+00   1.346985724800000e+01 -8.51487250e-01   1.55545670e-01  -6.25035750e-01
C     2.453369341200000e+00   2.702104969916352e+00   2.056555280000000e-01 -5.38658600e-02  -3.29592386e+00  -2.74815264e+00
C     2.579581802850000e+00   2.908927787716751e+00   3.895596376000000e+00  2.08592832e+00   4.33034853e+00  -1.08698970e-01
C     3.798904677000000e+00   3.645035747848295e+00   3.685496640000000e+00 -4.65828070e-01   3.90490107e+00  -2.41905707e+00
C     3.639469549275000e+00   1.941366682353298e+00   1.343059024000000e+01  2.05640562e+00   1.49137031e+00   1.80758120e+00
C     4.902106787175000e+00   2.751963590335760e+00   1.313390311200000e+01 -9.06069690e-01  -1.33011293e+00  -3.93101390e-01
C     5.129619767249999e+00   3.126787831598231e+00   3.397441432000000e+00 -3.93126565e+00  -2.92544726e+00   3.60261096e+00
C     6.224714960775000e+00   3.865825931828461e+00   3.631963912000000e+00  5.76448166e+00   2.28501707e+00   1.29507801e+00
C     6.190337824275000e+00   2.065611590370128e+00   1.287740031200000e+01 -4.81089899e+00  -2.47022421e+00   1.74834539e+00
C     7.378333148999999e+00   2.663589891231469e+00   1.294440751200000e+01  4.53750452e+00   3.69806808e+00   3.24821434e+00
C     7.534751338575000e+00   3.192993320205289e+00   4.030908488000000e+00 -3.41027332e+00  -4.10241262e+00  -3.15289437e+00
C     8.833126540875000e+00   3.747422603576052e+00   3.933908800000000e+00 -1.72840546e+00  -1.61021833e+00   3.50095890e-01
C     2.500442953200000e+00   4.049064109420731e+00   1.953682160000000e-01 -2.35491192e+00   4.17526929e+00  -3.04098778e+00
C     3.655743577875000e+00   4.808139467387857e+00   1.355254021600000e+01  1.46685711e+00   1.91771906e+00  -9.08545170e-01
C     3.701302545975000e+00   5.181784492650566e+00   3.457371600000000e+00  2.15549357e+00  -9.79620150e-01   1.42622602e+00
C     4.983149738400000e+00   5.901948988797062e+00   3.649160296000000e+00 -2.93770950e+00   1.99986493e+00  -5.64708500e-01
C     4.878437943450000e+00   4.173223840808022e+00   1.308172059200000e+01  1.52838500e-01  -5.14097000e-02   1.09913891e+00
C     6.169145122350000e+00   4.893890494813320e+00   1.280182960000000e+01 -6.95552720e-01  -1.93343029e+00   3.28330995e+00
C     6.204340367700000e+00   5.358831161828945e+00   3.674504848000000e+00  2.67259395e+00  -6.07425636e+00  -6.64312360e-01
C     7.489236000975000e+00   5.911104451791139e+00   3.619768656000000e+00  2.31238999e+00  -4.29533200e-02   1.80869502e+00
C     7.415331628124999e+00   4.145381649974565e+00   1.305837796000000e+01 -7.41849400e-02  -1.37922790e-01  -1.65342155e+00
C     8.659850635349999e+00   4.846937678312730e+00   1.325669900800000e+01  1.22885210e-01  -1.64535373e+00   2.78227747e+00
C     8.804435198025001e+00   5.082989336858433e+00   3.744414832000000e+00 -2.57869740e+00   6.52311902e+00  -2.43278047e+00
C     9.897907891574999e+00   5.980555810409380e+00   3.407139728000000e+00  1.78113325e+00  -5.95593821e+00   1.88638225e+00
C     7.453696888125000e+00   1.317880350520734e-01   6.491666376000000e+00 -2.00877922e+00   2.57426890e+00   7.88168940e-01
C     1.281260879850000e+00   7.512816963643993e-01   6.817319464000000e+00 -2.98285780e-01   4.28518024e+00   9.63960090e-01
C     1.101539899050000e+00   4.697106863549101e-01   9.960560032000000e+00 -7.51686180e-01   4.33835032e+00   1.89759072e+00
C     2.263953515400000e+00   1.237579794832181e+00   1.017638387200000e+01  3.89466133e+00  -7.53798490e-01  -1.06154242e+00
C     2.441396725275000e+00   1.367056084924530e-01   7.191948736000000e+00  3.52411298e+00  -2.44740580e+00  -4.62221690e-01
C     3.701214027824999e+00   9.520178434520755e-01   7.444361607999999e+00 -1.91894441e+00  -2.79505029e+00  -3.21891314e+00
C     3.647943257925000e+00   5.153277667936399e-01   9.890814336000000e+00 -4.72677095e+00  -1.05487147e+00  -2.71940230e-01
C     4.777405493774999e+00   1.274460570953770e+00   9.836184088000000e+00  3.05648132e+00  -1.08987275e+00   2.59728473e+00
C     4.732118735625000e+00   1.888739245090698e-01   6.810306352000000e+00  4.22997994e+00  -7.37257080e-01   1.18907590e+00
C     6.054397498950000e+00   8.426138423871169e-01   6.576651960000000e+00  1.15332030e+00  -2.26064659e+00   9.64678800e-01
C     6.020129475675001e+00   4.876107792013458e-01   9.867810616000000e+00 -1.07397639e+00  -1.25249130e+00   8.87576800e-02
C     7.214670595575000e+00   1.144134307758242e+00   1.009615475200000e+01  1.23606392e+00   2.00014947e+00  -1.29281341e+00
C     8.672632634025000e+00   2.275121506683425e+00   7.008413608000000e+00  4.27145802e+00  -2.85728271e+00  -3.95838370e-01
C     2.552209173375000e+00   3.116401726413776e+00   7.146863375999999e+00 -1.82604154e+00  -2.89572253e+00   1.50909859e+00
C     2.317212453300000e+00   2.679315290236385e+00   1.037927547200000e+01 -6.75251200e-02  -3.56733313e+00  -1.02743646e+00
C     3.567623241900000e+00   3.263266665319862e+00   1.034968785600000e+01  1.09740590e-01   5.22420454e+00  -2.69527480e-01
C     3.740437107825000e+00   2.362286530201798e+00   7.553084359999999e+00 -5.52881540e-01   1.12741321e+00  -3.99268586e+00
C     4.953691977749999e+00   3.004692704859846e+00   7.180337600000001e+00  1.11206630e+00  -2.71800970e+00  -6.17218990e-01
C     4.779810828450000e+00   2.645717400736410e+00   1.021355144800000e+01  1.49305252e+00   1.45144850e-01  -9.61257350e-01
C     5.998340810700000e+00   3.461189870227690e+00   1.011799036800000e+01  1.50799808e+00  -5.81740303e+00  -1.03533000e+00
C     6.161427515474999e+00   2.162516081156832e+00   6.840975848000000e+00  2.01026580e-01   3.55267008e+00   1.56619688e+00
C     7.483393470299999e+00   2.823448621037445e+00   6.948143984000000e+00 -3.90814322e+00   3.98161105e+00  -7.23941800e-02
C     7.234867080074999e+00   2.595814462852611e+00   1.006604013600000e+01  2.59102500e-01   1.45101991e+00   1.04675520e+00
C     8.510473558050000e+00   3.339008798348824e+00   1.018920146400000e+01 -3.42147446e+00  -3.45169100e-02  -2.37302134e+00
C     9.902531615325000e+00   4.499222276316168e+00   6.954797376000000e+00  1.08898958e+00   7.65577640e-01  -1.99629165e+00
C     3.818379742275000e+00   5.218743208590312e+00   6.658998599999999e+00 -1.70232201e+00  -6.43724979e+00   2.38514863e+00
C     3.603369081975000e+00   4.782563807453633e+00   1.023155159200000e+01 -5.60332250e-01  -8.23017940e-01  -1.23730271e+00
C     4.883786377200000e+00   5.552027127839993e+00   1.005059067200000e+01 -2.11895171e+00  -5.55845141e+00  -5.67059430e-01
C     5.023818134174999e+00   4.348797786848915e+00   6.912934128000000e+00  5.23160780e-01   4.18313458e+00  -7.01681300e-02
C     6.354628989675000e+00   5.010252722043169e+00   7.055025840000001e+00 -7.03803809e+00   3.53079582e+00  -8.72891250e-01
C     6.080725288875000e+00   4.781075457926969e+00   9.824965855999999e+00 -3.78101130e-01   2.65347635e+00   1.27738979e+00
C     7.348898571674999e+00   5.430674062459847e+00   9.580211007999999e+00 -3.98550901e+00   3.18744510e+00   2.45118268e+00
C     7.497717585299999e+00   4.318525692498218e+00   7.062765464000000e+00 -1.88320750e-01  -2.76590876e+00  -8.35798980e-01
C     8.583454480274998e+00   5.105083386049648e+00   6.852087319999999e+00  2.63132277e+00   2.03101432e+00   2.60590460e-01
C     8.448950485799999e+00   4.677622549435836e+00   9.676196815999999e+00  5.41464154e+00  -1.05526270e-01   3.42843154e+00
C     9.719492608950000e+00   5.419404297775869e+00   9.908060767999999e+00  7.05562260e-01   1.00434069e+00  -9.27272000e-03
