72
Lattice="7.395 0 0 3.6975 6.40425786098592 0 0 0 13.6 " PBC="1 1 1" Properties=species:S:1:pos:R:3:force:R:3 Energy="-575.80674937"
C     3.724390919175000e+00   6.213957451095194e+00   1.358364069600000e+01 -1.37537644e+00  -8.59299490e-01  -7.57481440e-01
C     1.279399040700000e+00   4.634717864328552e-01   4.019724800000000e-02 -1.84371839e+00   3.63575291e+00  -1.87861060e-01
C     1.396969557450000e+00   1.040647584785609e+00   3.684351792000000e+00  7.59114320e-01  -2.74210230e-01  -5.19363290e-01
C     2.612196932700000e+00   1.774021054896090e+00   3.818396384000000e+00  8.90933690e-01  -9.99799320e-01  -1.51275916e+00
C     6.218885408325000e+00   6.249991904540584e+00   1.351641712000000e+01 -3.84041082e+00  -2.46537296e+00   6.59825630e-01
C     3.699740352225000e+00   5.126532206261466e-01   1.353791940000000e+01 -6.52540480e-01   1.29859003e+00  -5.41513030e-01
C     3.852005916525000e+00   1.071651685809705e+00   3.660003984000000e+00 -2.00827049e+00  -3.54956472e+00   5.18691590e-01
C     5.073946731600000e+00   1.669387905723938e+00   3.643378800000000e+00  1.39295133e+00   1.32701167e+00  -8.89051790e-01
C     8.538652464375000e+00   6.195497562069216e+00   1.348511032800000e+01  4.26362781e+00   2.03723720e-01  -4.46056870e-01
C     6.102081753075000e+00   4.488030259322610e-01   1.353285489600000e+01  1.71767438e+00   8.77086100e-01   5.54020820e-01
C     6.338138879175000e+00   9.682968265064095e-01   3.504156688000000e+00 -1.92767320e-01   1.41451070e+00   7.57579440e-01
C     7.560737146725000e+00   1.727986673015203e+00   3.602857736000000e+00 -1.93070140e-01  -3.17362195e+00   2.23987000e-02
C     1.198693042650000e+00   1.945534765496322e+00   1.119571040000000e-01  1.61377751e+00  -1.47438210e-01  -1.10445627e+00
C     2.447916748875000e+00   2.657086303332061e+00   1.089111120000000e-01 -6.21034110e-01   1.07223113e+00  -1.33956489e+00
C     2.634362262000000e+00   3.166982875204949e+00   3.702869824000000e+00 -1.31259129e+00   2.72442488e+00   2.21587830e-01
C     3.843981195300000e+00   3.935200887650433e+00   3.687160872000000e+00  1.93508232e+00  -2.72690834e+00  -1.64028898e+00
C     3.684324439425000e+00   1.902002270991022e+00   1.353299320800000e+01 -5.83455430e-01   2.61385770e+00   2.04712591e+00
C     4.920639655500000e+00   2.579829371191473e+00   7.302003200000000e-02 -5.77403050e-01   2.72052821e+00  -1.39907123e+00
C     5.032998878775000e+00   3.073634732850482e+00   3.604837080000000e+00  2.59571444e+00   3.44570695e+00   1.20287322e+00
C     6.367292039775000e+00   3.771294090493730e+00   3.663605400000000e+00 -3.63835321e+00   2.25090009e+00  -6.34375560e-01
C     6.098462011499999e+00   1.840007325756600e+00   1.895921600000000e-02  2.59339046e+00   3.09774599e+00  -5.59177230e-01
C     7.397864527199999e+00   2.682877594628431e+00   1.352457222400000e+01 -2.56935052e+00  -1.63059766e+00   1.85538074e+00
C     7.569423461625000e+00   3.081725744145649e+00   3.690619760000000e+00  9.36954080e-01   3.88378180e+00  -6.12661910e-01
C     8.778910579049999e+00   3.894455077867754e+00   3.623310504000000e+00  3.83329110e-01  -3.56268210e-01   1.10813760e+00
C     9.787351865100000e+00   4.167720277773452e+00   1.357998202400000e+01  3.35153809e+00  -4.23496761e+00  -4.18893850e-01
C     3.684637100025000e+00   4.807893287715719e+00   1.351157103200000e+01 -9.81690600e-02  -4.40026920e-01   8.56235250e-01
C     3.930926761575000e+00   5.350853698025636e+00   3.447859216000000e+00 -1.99008923e+00  -2.77667233e+00   1.39177445e+00
C     5.136620244000000e+00   6.029129992872387e+00   3.524520104000000e+00  7.30620860e-01  -2.04493670e-01   5.41994200e-01
C     4.926359355224999e+00   4.103008518269661e+00   1.359010355200000e+01 -1.49377877e+00  -2.43367108e+00   1.30657170e-01
C     6.115028734199999e+00   4.821652771685350e+00   1.353868861600000e+01  1.26492270e+00   4.09267700e-02   4.35362600e-02
C     6.346439655749999e+00   5.257224152580800e+00   3.625700568000000e+00  4.04877210e-01  -9.52275180e-01  -2.78081320e-01
C     7.567049001074999e+00   5.993539930879901e+00   3.612262000000000e+00 -1.40110240e+00   2.46245325e+00   6.26217270e-01
C     7.325807610224999e+00   4.122983910875631e+00   1.355584637600000e+01  2.39602786e+00  -2.24885755e+00  -1.31621486e+00
C     8.610001716825000e+00   4.818912966130264e+00   1.339139708000000e+01 -3.56863085e+00  -1.05951477e+00   1.84974686e+00
C     8.799730720874999e+00   5.387260495023007e+00   3.658573808000000e+00  1.21738640e-01  -5.55377196e+00  -1.12252634e+00
C     1.005464014680000e+01   5.962395704693829e+00   3.503823760000000e+00  5.33628090e-01   2.94840592e+00   3.78382400e-02
C     7.438649985824999e+00   1.949160856296654e-01   7.054799399999999e+00 -8.52663560e-01  -3.14532730e-01  -5.72404920e-01
C     1.269814824900000e+00   9.415306790785898e-01   7.032437056000000e+00 -9.33787790e-01  -2.38318508e+00  -7.43573470e-01
C     1.099359853050000e+00   3.916476502774837e-01   9.785386048000001e+00 -2.10646382e+00   2.50412300e-01   7.95945890e-01
C     2.313953661675000e+00   1.081775536634793e+00   9.942970471999999e+00 -1.36273700e+00   1.18038388e+00   1.44468880e-01
C     2.493287218425000e+00   2.100489626973738e-01   6.823586479999999e+00 -9.31654610e-01   2.62952095e+00   6.52233130e-01
C     3.742471953000000e+00   8.471896846280869e-01   6.773953823999999e+00  9.90241390e-01   1.07138223e+00   7.46897100e-01
C     3.467488988925000e+00   3.739945056141294e-01   1.009631496000000e+01  4.47318180e+00   2.23933010e-01  -1.37931264e+00
C     4.779936987150000e+00   1.145123061129247e+00   9.901934919999999e+00 -1.17645062e+00  -1.47125684e+00   1.17669259e+00
C     5.012475831074999e+00   2.038354236364446e-01   6.922452904000000e+00 -1.22119101e+00  -2.75732430e-01  -1.44589860e-01
C     6.211664782425000e+00   9.332997347491818e-01   7.075550280000000e+00  3.59432260e-01   1.11211393e+00  -1.55760700e+00
C     6.038609247899999e+00   4.165649525037001e-01   9.802193200000000e+00 -1.15441343e+00   8.74967460e-01   6.89386960e-01
C     7.256981531775000e+00   1.201542203300439e+00   9.737551448000000e+00  9.77737460e-01  -3.71534094e+00   1.95687710e-01
C     8.633319963600000e+00   2.316836088552586e+00   7.106454919999999e+00 -1.89198988e+00   8.65094980e-01  -1.66342580e+00
C     2.457404016225000e+00   2.909624635014497e+00   6.935999456000000e+00  2.19770220e+00   4.22512327e+00   5.39995050e-01
C     2.324893417950000e+00   2.500379685202199e+00   9.922455279999999e+00 -7.78394710e-01   2.97713584e+00  -3.50553400e-02
C     3.542792273925000e+00   3.289096638333707e+00   9.822684592000000e+00 -3.49131890e-01  -3.13619060e+00   1.12630976e+00
C     3.744196134225000e+00   2.247907381418298e+00   6.835841304000000e+00 -2.62763142e+00   2.39239670e-01   6.67625200e-02
C     4.909365386400000e+00   2.990747689540011e+00   6.876727391999999e+00  5.96540780e-01   3.52883658e+00   9.91465200e-02
C     4.776425878125000e+00   2.585493617055750e+00   9.881587280000000e+00  5.81538000e-01  -2.18823138e+00  -9.09907260e-01
C     6.036421178325000e+00   3.225592913990047e+00   9.746310256000001e+00 -1.55035658e+00   1.81557423e+00   3.79973120e-01
C     6.159122346075000e+00   2.446027068957272e+00   6.948401568000000e+00  1.00486908e+00  -5.72443978e+00   3.30699480e-01
C     7.372873235624999e+00   3.096924969324787e+00   6.985297552000000e+00  1.13170835e+00   3.50264080e-01   5.22962100e-02
C     7.281243972150000e+00   2.600036085591344e+00   9.672020119999999e+00 -1.19397213e+00  -1.53844844e+00   2.05769475e+00
C     8.454333195375000e+00   3.289106244720497e+00   9.931699743999999e+00  2.67117241e+00  -1.25553593e+00  -9.24816060e-01
C     9.862158760724999e+00   4.394640745462367e+00   7.031071072000000e+00 -8.51524380e-01   3.56372980e-01  -1.35675894e+00
C     3.690319196175000e+00   5.125797189586874e+00   6.959812920000000e+00 -2.39718820e-01   1.25224175e+00   4.75740820e-01
C     3.569491847475000e+00   4.657186242391683e+00   9.751103848000000e+00 -3.44834108e+00   1.19864076e+00   9.53478290e-01
C     4.754122595100000e+00   5.338836172193925e+00   9.787464128000000e+00  1.61699453e+00   2.67608695e+00   1.04174620e-01
C     4.909036419825000e+00   4.442796537759380e+00   6.948731096000000e+00  2.47730330e-01   8.07133610e-01  -9.57170100e-01
C     6.122422292175000e+00   5.280532641190007e+00   6.883726223999999e+00 -3.30375450e-01  -6.34126372e+00  -1.47759400e-01
C     5.986733211975000e+00   4.647672076914867e+00   9.806690992000000e+00 -9.70396000e-02  -5.26926570e-01   8.70093240e-01
C     7.168762287674999e+00   5.348904241933051e+00   1.003328426400000e+01  1.50740284e+00   1.64012697e+00  -5.73752480e-01
C     7.318072107450000e+00   4.505111439716488e+00   6.893352984000001e+00  3.42686847e+00   1.39159603e+00   3.33176630e-01
C     8.644928930399999e+00   5.210345113130757e+00   6.965936864000000e+00 -3.41760340e-01  -3.00551369e+00  -2.40221860e-01
C     8.432303971050001e+00   4.694884842241995e+00   9.967853576000000e+00  1.39498228e+00   5.81943100e-02   2.07387860e-01
C     9.700455438599999e+00   5.373502804245576e+00   9.863931760000000e+00  3.35242000e-01   1.16004948e+00   4.17967900e-02
