72
Lattice="7.395 0 0 3.6975 6.40425786098592 0 0 0 13.6 " PBC="1 1 1" Properties=species:S:1:pos:R:3:force:R:3 Energy="-582.65379589"
C     3.688558446675000e+00   6.271819536604823e+00   1.350758038400000e+01  1.58790010e-01   1.41817771e+00   3.40124160e-01
C     1.223900157300000e+00   6.283236599219580e-01   1.354939603200000e+01 -4.94502540e-01  -4.75884350e-01  -2.48938980e-01
C     1.328806144950000e+00   8.339502904392661e-01   3.526104231999999e+00 -1.14854617e+00   9.78087140e-01  -2.19934050e-01
C     2.512853279175000e+00   1.616270542735048e+00   3.582107808000000e+00  6.54217560e-01  -1.88601510e+00  -2.85650620e-01
C     6.141002673375000e+00   6.307530703113440e+00   1.348798183200000e+01  3.02928000e-02  -3.68340470e-01   2.32386920e-01
C     3.671286388875000e+00   6.066755392055359e-01   1.349178643200000e+01  2.29644370e-01   5.60273750e-01   1.30239150e-01
C     3.730195735350000e+00   8.541701976103296e-01   3.532742800000000e+00  6.35387680e-01  -5.97535170e-01  -2.30027510e-01
C     4.990410223350000e+00   1.538817768389101e+00   3.459081664000000e+00 -1.00727010e+00   1.36763490e-01   4.87032340e-01
C     8.611433869499999e+00   6.318135962001865e+00   1.346588400800000e+01 -1.57407600e-01  -1.08658609e+00   3.64641820e-01
C     6.158601959925000e+00   6.158113411279830e-01   1.349781680800000e+01 -3.24826000e-01  -1.44977101e+00  -1.30037920e-01
C     6.205278793200000e+00   8.473053455250384e-01   3.431778576000000e+00  1.17114726e+00  -2.56495600e-01   8.33738700e-02
C     7.458884147850000e+00   1.523584984898777e+00   3.481978896000000e+00  1.30387170e-01   1.29425080e+00   1.00046700e-01
C     1.206301018650000e+00   2.077083601517324e+00   1.357598988000000e+01  7.53070980e-01  -2.42479752e+00  -1.96692350e-01
C     2.431678623000000e+00   2.774363314754632e+00   3.348592000000000e-03  5.90278600e-01  -8.14862980e-01  -2.33079860e-01
C     2.511162597300000e+00   3.028392173411405e+00   3.562454584000000e+00  1.20079692e+00  -1.19745875e+00  -3.19487040e-01
C     3.773729212950000e+00   3.676614374845012e+00   3.473829368000000e+00 -1.71757500e-01   1.49688691e+00   3.08015090e-01
C     3.657238514099999e+00   2.034152274697343e+00   1.356203233600000e+01  1.01528920e+00   3.17951470e-01  -2.58641800e-01
C     4.929072247950000e+00   2.740891973389970e+00   1.350225149600000e+01 -1.10827699e+00  -3.46370500e-01   9.88893300e-02
C     5.000141932425000e+00   2.946025924350109e+00   3.503318928000000e+00 -6.73966580e-01   1.17468524e+00  -5.17813330e-01
C     6.207127802024999e+00   3.701635105835667e+00   3.485045288000000e+00  6.94249050e-01  -2.56683542e+00   1.17219590e-01
C     6.158711073150000e+00   2.017149866675144e+00   1.347497887200000e+01 -1.07606569e+00  -6.83004600e-02   1.47998690e-01
C     7.369658555174999e+00   2.700357824329565e+00   1.348480487200000e+01 -1.45815920e-01   1.91029836e+00  -2.44530300e-02
C     7.442722819049999e+00   2.973422122666195e+00   3.514946112000000e+00  6.94046090e-01  -2.31845450e-01  -6.41918300e-02
C     8.693249154524999e+00   3.699381703665048e+00   3.536472328000000e+00 -1.26708168e+00   3.54700900e-01  -2.00442730e-01
C     2.450631527325000e+00   4.179517753305094e+00   1.356723216000000e+01 -8.77873640e-01  -2.21709060e-01  -4.03484900e-02
C     3.678496476900000e+00   4.849854561597646e+00   1.354483459200000e+01  1.91896000e-01   1.41275653e+00  -2.48331870e-01
C     3.788476913549999e+00   5.135530444725081e+00   3.421856424000000e+00 -4.13276440e-01  -7.40664510e-01   2.23049430e-01
C     5.039773475250000e+00   5.825327551163921e+00   3.450294976000000e+00 -1.39279454e+00  -2.60565500e-02   2.27529610e-01
C     4.904609957700000e+00   4.169095784276623e+00   1.349337804000000e+01  4.45032350e-01  -9.02421880e-01   1.82035140e-01
C     6.129419736975000e+00   4.872790962825186e+00   1.345731437600000e+01  3.88637680e-01  -2.04057100e-02  -1.69215830e-01
C     6.223636141200000e+00   5.076864624854022e+00   3.489155888000000e+00  6.33859980e-01   1.57978722e+00  -2.43790000e-04
C     7.447454066099999e+00   5.791586462458197e+00   3.513871168000000e+00  4.23929880e-01   1.64698956e+00  -1.53393280e-01
C     7.343900180249999e+00   4.111659453829528e+00   1.342357427200000e+01  1.16919340e+00   2.17473045e+00   7.58928280e-01
C     8.602590891525001e+00   4.866561285034449e+00   1.350518991200000e+01 -7.03028340e-01   3.92042510e-01  -4.09817000e-01
C     8.705312581049998e+00   5.116015390174089e+00   3.483318088000000e+00 -6.61082950e-01   3.41421040e-01   7.57971900e-02
C     9.926120038424999e+00   5.852460918737433e+00   3.431385264000000e+00  4.74633560e-01  -1.52548038e+00   5.77900400e-02
C     7.439074680675000e+00   8.936712758353380e-02   6.855985488000000e+00 -1.93134740e-01  -4.34000540e-01   1.77637000e-01
C     1.255370578125000e+00   8.093425059954236e-01   6.921768279999999e+00  8.92328010e-01  -8.27680500e-02  -2.37333900e-01
C     1.147784531550000e+00   5.873864909144232e-01   1.010139007200000e+01  7.50127580e-01  -9.68363900e-02  -1.61596060e-01
C     2.374412815275000e+00   1.301656892382046e+00   1.015247085600000e+01  6.75907440e-01  -1.81272970e-01  -5.58104000e-02
C     2.512333817400000e+00   1.023458044348740e-01   6.895912911999999e+00 -8.98279360e-01  -3.37553730e-01   1.02777100e-01
C     3.754213955850000e+00   7.868141840787228e-01   6.898807263999999e+00  2.17785750e-01  -7.56710000e-02   8.62369500e-02
C     3.618367731900000e+00   5.672456122853521e-01   1.011970478400000e+01  1.06113060e-01   9.99422760e-01   1.30902810e-01
C     4.874628668025000e+00   1.304200407433724e+00   1.010799708800000e+01 -1.85938525e+00  -6.05029200e-01  -6.37278300e-02
C     5.003100006374999e+00   7.181254444864500e-02   6.883034391999999e+00 -3.88015980e-01   1.00742757e+00  -1.92194820e-01
C     6.238580622750000e+00   8.077091000282305e-01   6.869124992000000e+00 -1.32655424e+00   5.69886890e-01   9.66509600e-02
C     6.079057642425000e+00   6.305118027049842e-01   1.003636357600000e+01  1.16816026e+00  -1.58624312e+00   1.99708060e-01
C     7.340196579375000e+00   1.292722312241560e+00   1.004156244800000e+01 -1.10120638e+00   1.39695928e+00   3.31264350e-01
C     8.641891840874999e+00   2.226778325801429e+00   6.961916431999999e+00  2.23989580e-01   6.87029570e-01  -2.17153710e-01
C     2.510559793875000e+00   2.903074616245604e+00   6.985587912000000e+00 -7.89422530e-01   7.73632860e-01  -6.91511630e-01
C     2.381042913450000e+00   2.738558517996101e+00   1.017607800800000e+01  6.58483680e-01  -9.56658940e-01  -2.77000450e-01
C     3.626412419625000e+00   3.413615136246315e+00   1.014990480800000e+01 -3.20600860e-01   9.61519990e-01  -1.25717750e-01
C     3.745231138425000e+00   2.208293972510426e+00   6.937053048000000e+00 -3.68354550e-01  -3.21539220e-01   6.59612200e-02
C     4.958108456624999e+00   2.925034432192072e+00   6.929665527999999e+00  1.33617160e-01   8.30052970e-01  -1.95121670e-01
C     4.856333918699999e+00   2.696862316346999e+00   1.011700899200000e+01 -1.65659280e-01   1.30945614e+00  -1.73887420e-01
C     6.065969971424999e+00   3.424114404667157e+00   1.002935359200000e+01  1.19305936e+00   5.23915140e-01   6.05399270e-01
C     6.202396739850000e+00   2.255078677242191e+00   6.903527280000000e+00  1.07802080e-01  -6.91722030e-01  -9.44992300e-02
C     7.411493881949999e+00   3.004293719595168e+00   6.915132840000000e+00  8.73610230e-01  -2.23047785e+00   8.97537000e-03
C     7.334717143200000e+00   2.727057879816270e+00   1.005441336000000e+01 -2.25956130e-01   3.73800860e-01   4.12132200e-02
C     8.579317495424998e+00   3.465348859324552e+00   1.010643526400000e+01 -1.26751193e+00  -9.45952320e-01   8.65188300e-02
C     9.883845781424998e+00   4.341191577873751e+00   6.892457696000000e+00  3.35759600e-02  -6.29823960e-01   2.84710980e-01
C     3.691523952600000e+00   5.061603662629114e+00   6.868537608000000e+00  1.35131601e+00   3.19011450e-01   9.41389300e-02
C     3.605927973825000e+00   4.845321691926917e+00   1.007824001600000e+01  1.86545030e-01   8.15480690e-01   4.45282900e-02
C     4.851672258600000e+00   5.577949001954130e+00   1.006263320000000e+01 -7.75982340e-01  -6.01323710e-01   2.63654640e-01
C     4.931690410725000e+00   4.359493409815745e+00   6.915428232000000e+00  4.10591300e-01  -2.45457470e-01  -2.27286130e-01
C     6.166205018250000e+00   5.075845195087868e+00   6.896366880000000e+00  6.72877540e-01   5.78989190e-01  -9.93144000e-02
C     6.071169987525000e+00   4.874549828203857e+00   1.006234828000000e+01  3.59058960e-01  -1.37524652e+00  -2.48019000e-02
C     7.318589091900000e+00   5.553578495263999e+00   1.008441373600000e+01 -2.78309630e-01   6.39056440e-01   2.84431300e-02
C     7.430027933474999e+00   4.399070570624129e+00   6.891245936000001e+00 -9.82585380e-01  -1.44354830e-01   9.51805800e-02
C     8.672099824275000e+00   5.065232123004853e+00   6.883901800000000e+00 -9.31802700e-02   3.46051840e-01  -6.35549900e-02
C     8.567799745949999e+00   4.872358355206742e+00   1.008752024800000e+01 -9.88665700e-01   1.00380160e-01  -5.88376100e-02
C     9.753923396175001e+00   5.604474093116099e+00   1.005158945600000e+01  1.91174513e+00  -7.11664680e-01   2.66928980e-01
