72
Lattice="7.395 0 0 3.6975 6.40425786098592 0 0 0 13.6 " PBC="1 1 1" Properties=species:S:1:pos:R:3:force:R:3 Energy="-579.36422093"
C     1.107862509427500e+01   6.391755788018601e+00   1.341926633600000e+01 -1.00238949e+00   2.41821900e-02   4.61715850e-01
C     1.226530780650000e+00   6.373771030883256e-01   1.339126067200000e+01 -2.41966940e-01   2.15453991e+00   5.61040310e-01
C     1.225811949675000e+00   7.726568676108283e-01   3.394927608000000e+00  5.02637340e-01  -1.49574706e+00   7.48282970e-01
C     2.516236787475000e+00   1.384229422589013e+00   3.385419168000000e+00 -2.34397284e+00   3.67766987e+00   5.25869670e-01
C     6.150385190549999e+00   6.369597376035895e+00   1.344962004000000e+01  7.11509690e-01  -1.76684040e-01   4.91356400e-02
C     3.697902694725000e+00   6.828392004868434e-01   1.337795361600000e+01 -1.59436410e-01  -6.08908510e-01   9.39059890e-01
C     3.726465586425000e+00   7.342237634265534e-01   3.504982888000000e+00  1.54030163e+00   2.62762742e+00  -2.17305140e-01
C     4.948560402375000e+00   1.481235997246005e+00   3.531071088000000e+00  8.26992710e-01  -1.90497200e-01   2.76067450e-01
C     8.629114648950001e+00   6.365536308041711e+00   1.339863649600000e+01 -1.42256336e+00   8.26990600e-01   5.69360970e-01
C     6.104320737225000e+00   6.806969762326734e-01   1.347048393600000e+01  2.77750320e+00   9.63541950e-01   1.91381330e-01
C     6.224968165575000e+00   7.331814064172598e-01   3.539071016000000e+00 -2.74059247e+00   1.94003812e+00  -1.41401300e-02
C     7.401813198375000e+00   1.488430028185300e+00   3.449003247999999e+00  1.53265421e+00  -3.19031670e-01  -1.46218170e-01
C     1.254265025625000e+00   2.076038618762309e+00   1.340085832800000e+01 -1.91099339e+00   1.34857772e+00   8.56640700e-02
C     2.467512944250000e+00   2.780704298546975e+00   1.322178658400000e+01  2.33989100e-01   1.02403746e+00   1.90319935e+00
C     2.485281058650000e+00   2.854897113514446e+00   3.453736184000000e+00  9.53464690e-01  -4.65662580e-01  -2.95552730e-01
C     3.729214455825000e+00   3.595487605849940e+00   3.508728600000000e+00 -2.50005460e+00   2.72316790e-01   5.85692740e-01
C     3.715453026375000e+00   2.087171908711290e+00   1.342616072000000e+01 -1.71927263e+00   3.45962130e-01  -1.53493703e+00
C     4.897448528775000e+00   2.818057708898632e+00   1.350497340000000e+01  1.30217158e+00  -4.15901800e-02   1.02322495e+00
C     4.932169680674999e+00   2.941543071933266e+00   3.587040664000000e+00  1.62787264e+00  -3.30776273e+00  -1.25171039e+00
C     6.178997665724999e+00   3.581040240543566e+00   3.481554711999999e+00  1.63727545e+00   2.68829702e+00   3.47509360e-01
C     6.106807786650000e+00   2.091631769842415e+00   4.739627200000000e-02  2.16940425e+00   1.60644085e+00  -1.05347882e+00
C     7.404683160900000e+00   2.888298648468433e+00   2.813840000000000e-02 -9.36935800e-02  -3.61120546e+00  -1.00388730e+00
C     7.461665666175000e+00   2.900468723722370e+00   3.418401072000000e+00 -3.92792711e+00  -9.40049350e-01   4.24546450e-01
C     8.641570823924999e+00   3.580420948808504e+00   3.456968088000000e+00  1.89608897e+00   1.27217680e+00  -5.18948150e-01
C     2.447991623250000e+00   4.224765051894988e+00   1.328124605600000e+01  5.53632190e-01   7.90350200e-01   1.08258995e+00
C     3.682550083125000e+00   5.001930132783785e+00   1.341884337600000e+01  5.07915060e-01  -3.23654946e+00  -2.51292050e-01
C     3.684708461775000e+00   5.008264456147954e+00   3.586395208000000e+00  5.43828410e-01   2.69873560e-01  -4.28961620e-01
C     4.869295652849999e+00   5.754543338399856e+00   3.539317312000000e+00  3.55231956e+00  -7.10463100e-01  -5.27223960e-01
C     4.942850870774999e+00   4.227781777559940e+00   1.355870060800000e+01 -1.08593895e+00   2.00358453e+00  -4.22661150e-01
C     6.178146944924999e+00   4.967476506348556e+00   2.998528000000000e-02 -9.62849550e-01  -3.80135510e-01  -8.63925310e-01
C     6.210055482525000e+00   5.041776528592605e+00   3.503176943999999e+00 -2.26966837e+00  -8.78925400e-02   2.16400930e-01
C     7.439225982375000e+00   5.793573127288947e+00   3.536508232000000e+00 -7.23282490e-01  -5.01977976e+00  -9.68361090e-01
C     7.426087285874999e+00   4.300764572047344e+00   1.358110742400000e+01 -1.46042401e+00  -1.80908282e+00   4.29694620e-01
C     8.620040059575000e+00   4.976162345113760e+00   1.344659866400000e+01  1.84581487e+00  -1.27288203e+00  -8.78030010e-01
C     8.632448425874999e+00   5.018647423246057e+00   3.448176232000000e+00  1.05360425e+00   7.10825860e-01   1.32800982e+00
C     9.882381867225000e+00   5.733721495032531e+00   3.578787504000000e+00 -1.14475476e+00  -8.87868080e-01  -8.52524440e-01
C     7.379330142900000e+00   4.947007409504160e-02   7.126068160000000e+00  2.23908680e+00  -1.38829722e+00  -1.73691936e+00
C     1.250560241550000e+00   7.544296452729037e-01   6.883194736000000e+00 -3.83840770e-01  -2.04679438e+00  -3.33029900e-02
C     1.203577255275000e+00   6.693724551439926e-01   1.019425984800000e+01  1.01616554e+00   3.29136890e-01  -1.61380960e-01
C     2.456946783375000e+00   1.374002847467851e+00   1.023576201600000e+01 -1.27179337e+00   6.24896970e-01  -7.18495340e-01
C     2.482072146300000e+00   3.336118812946920e-02   6.716413719999999e+00 -1.22159305e+00  -1.36961562e+00   2.95389130e-01
C     3.675424815750000e+00   7.533196593006084e-01   6.609621487999999e+00  5.32558740e-01   9.01522400e-02   7.72854180e-01
C     3.664128324675000e+00   6.684781645764222e-01   1.034352719200000e+01 -1.23600650e-01   1.35114789e+00   3.63120240e-01
C     4.879778472074999e+00   1.391584200400594e+00   1.034332428000000e+01  2.23113470e+00   4.32495590e-01  -1.82643148e+00
C     4.878152496450000e+00   4.604059401101160e-02   6.839348199999999e+00  2.10178843e+00  -6.12389860e-01  -2.13345330e-01
C     6.162628056750000e+00   7.356627361251168e-01   6.969414112000000e+00 -1.75577123e+00  -9.82052870e-01   1.32099380e-01
C     6.134161041224999e+00   6.492952348380499e-01   1.027251914400000e+01 -1.43614980e-01   5.86991700e-01   3.17284260e-01
C     7.375161914175000e+00   1.393285683628839e+00   1.014142901600000e+01 -1.51044288e+00  -9.30225520e-01   8.15430190e-01
C     1.269240677100000e+00   2.127865908047880e+00   6.762677656000000e+00 -6.95750310e-01   2.12794514e+00   9.66526330e-01
C     2.478788396550000e+00   2.898917164170628e+00   6.718533824000000e+00 -5.55716900e-01  -1.63685780e-01  -5.27608140e-01
C     2.438530238400000e+00   2.807511113012206e+00   1.009592260000000e+01  8.30144900e-02  -7.72716070e-01   3.85555000e-01
C     3.636393894825000e+00   3.554624726233581e+00   1.005558078400000e+01  2.62742760e+00  -1.85254432e+00   4.28424530e-01
C     3.662834606400000e+00   2.168525516519763e+00   6.564442968000000e+00  2.82086163e+00   1.34721350e+00   1.31943528e+00
C     4.976908913024999e+00   2.892273066853771e+00   6.695199624000000e+00 -2.21240925e+00  -1.69581725e+00   4.95279310e-01
C     4.939540092300000e+00   2.832735563445388e+00   1.007928476800000e+01 -3.07972655e+00  -1.28269351e+00   1.18629762e+00
C     6.144268416299999e+00   3.526487427197936e+00   1.016541724000000e+01 -3.18538690e-01   2.59769720e-01   4.29627120e-01
C     6.157550538824999e+00   2.127347483374113e+00   6.909490200000000e+00  9.98368540e-01   1.80143539e+00  -9.71835130e-01
C     7.427459095349999e+00   2.827478180082956e+00   6.891807615999999e+00 -7.08031510e-01   4.31423800e-02  -4.11592650e-01
C     7.328059387724999e+00   2.810101955529469e+00   1.020088835200000e+01  2.62718381e+00  -8.79908440e-01  -6.45924410e-01
C     8.603761667924999e+00   3.480535532158285e+00   1.015269471200000e+01 -1.25087507e+00   1.94635779e+00   9.89826910e-01
C     9.872869271999999e+00   4.330140070297642e+00   6.863651672000000e+00  1.17910209e+00  -7.07199660e-01   4.70447430e-01
C     3.768540770025000e+00   4.990187669827160e+00   7.014779767999999e+00 -3.05404894e+00   1.85920457e+00  -8.24471510e-01
C     3.686093619225000e+00   4.939355025829824e+00   1.016357784000000e+01 -4.46464500e-02   2.95501180e-01  -2.83640330e-01
C     4.928970270900000e+00   5.652494563444529e+00   1.016856482400000e+01 -5.93531770e-01  -2.35145420e-01   7.46845280e-01
C     4.965838117350000e+00   4.307243823766885e+00   6.804542128000000e+00  1.78083810e-01  -9.22322720e-01   8.08329100e-02
C     6.189172926900000e+00   4.979650167986895e+00   6.741945407999999e+00  8.02176490e-01   1.32204069e+00   8.02102760e-01
C     6.150433590824999e+00   4.929950501247572e+00   1.030602736800000e+01 -4.40435210e-01   1.64105524e+00  -6.50795420e-01
C     7.337639314424999e+00   5.699289130733399e+00   1.045716362400000e+01  2.09701225e+00  -3.53769110e+00  -1.21514621e+00
C     7.410429593549999e+00   4.238392416024968e+00   6.820052111999999e+00  3.48469680e-01   1.37712382e+00  -2.27177540e-01
C     8.632201913549999e+00   5.016143294380218e+00   6.870868920000000e+00 -6.41483280e-01   5.18043000e-03  -1.84117610e-01
C     8.615921784074999e+00   4.924605891893088e+00   1.035164924800000e+01 -1.21421104e+00  -2.24591220e-01  -3.90979070e-01
C     9.852543485925001e+00   5.601938775514482e+00   1.031407285600000e+01 -6.95142500e-01   2.17364002e+00  -4.83510660e-01
