64
Lattice="9.86 0 0 4.93 8.53901048131456 0 0 0 30 " PBC="1 1 1" Properties=species:S:1:pos:R:3:force:R:3 Energy="-515.76760939"
C     5.051601309400000e+00   6.784749848121045e+00  -8.673179999999903e-02 -8.40075870e-01  -1.82742830e-01  -3.15939000e-03
C     6.286973428800000e+00   7.498085462763896e+00  -1.734387000000019e-01 -9.53316000e-01  -6.35989320e-01  -5.83771440e-01
C     9.766764037200000e+00   1.802619097589710e+00   3.676118400000000e+00 -2.48334350e-01  -8.90119750e-01   1.18449970e-01
C     1.100033823490000e+01   2.481099923084983e+00   3.770466900000000e+00  1.02085369e+00  -9.05863100e-02  -7.32928190e-01
C     7.505250970399999e+00   6.779012657759742e+00  -2.426934000000003e-01 -1.09841091e+00  -4.20854920e-01   2.66334580e-01
C     8.701335377499998e+00   7.489513235533129e+00  -2.475251999999983e-01  1.52832904e+00  -2.86371290e-01   7.15161850e-01
C     2.408139598500000e+00   1.768613769204682e+00   3.728814300000000e+00 -9.88511870e-01  -4.55232900e-02   3.79048630e-01
C     3.637839703600000e+00   2.453782518488101e+00   3.650849700000000e+00 -9.51234810e-01   2.00801723e+00  -3.60441630e-01
C     9.928855535200000e+00   6.763238543700039e+00  -8.552219999999977e-02 -5.10795840e-01  -9.67195500e-01  -5.68435390e-01
C     1.113335855820000e+01   7.455745120859235e+00  -2.413109999999818e-02  1.56546215e+00   8.54461830e-01  -4.42404400e-02
C     4.848759072300000e+00   1.753243379560473e+00   3.533499300000000e+00  5.58998860e-01   9.22057220e-01   5.23925690e-01
C     6.086342346000000e+00   2.462376349415383e+00   3.478921500000000e+00 -1.65093030e-01   3.82771760e-01   6.77730700e-02
C     1.239565306250000e+01   6.752790295866815e+00  -6.554699999998803e-03  8.49879020e-01   2.00647077e+00   5.11198000e-02
C     1.366822725770000e+01   7.499010493769194e+00  -3.289410000000004e-02 -9.28627800e-01  -4.40379660e-01  -2.69070250e-01
C     7.321833672800000e+00   1.756825579846938e+00   3.472170600000000e+00 -9.65787440e-01  -1.21199342e+00   3.93189870e-01
C     8.512917038599999e+00   2.471046519096355e+00   3.563576400000000e+00  1.61252811e+00   1.34496385e+00  -4.20159160e-01
C     1.328306316900000e+00   3.641518230566216e-01  -2.855691000000000e-01 -1.10307405e+00   2.96802790e-01   1.19301013e+00
C     2.531454033600000e+00   1.064965747341496e+00  -2.377602000000003e-01  1.07607713e+00   1.24069957e+00  -6.63215570e-01
C     1.101147919680000e+01   3.876856945779418e+00   3.648130800000000e+00  1.04510910e-01   1.54022908e+00  -2.92486000e-01
C     1.225374217440000e+01   4.617202646031976e+00   3.594213600000000e+00 -1.14783595e+00  -5.58107500e-02   3.55921200e-02
C     3.776265081700000e+00   3.643835718010488e-01  -2.286338999999984e-01 -3.79183170e-01   7.20917420e-01   3.29886470e-01
C     4.991459056199999e+00   1.104075269240944e+00  -1.317108000000005e-01  6.17459240e-01  -1.23749152e+00  -3.51870470e-01
C     3.586644562300000e+00   3.912833931684278e+00   3.599172000000000e+00  2.86882591e+00  -9.52199510e-01  -2.44951800e-02
C     4.880816298700000e+00   4.628645176245491e+00   3.534701700000000e+00 -2.03614706e+00  -1.97320094e+00   3.00514760e-01
C     6.221269001700000e+00   3.539118416890056e-01  -7.260330000000081e-02 -6.59531230e-01   3.63789780e-01  -2.61316710e-01
C     7.428418843100000e+00   1.074383678170202e+00  -1.615196999999995e-01  2.31234248e+00   5.85585410e-01   2.17301840e-01
C     6.085575139400000e+00   3.903547672397173e+00   3.513629100000000e+00 -1.42748800e-01  -1.56948322e+00  -5.76499490e-01
C     7.300706453600000e+00   4.585270845561807e+00   3.431383200000000e+00  6.64141770e-01   1.37460038e+00   5.57179980e-01
C     8.716779440600000e+00   3.933676204634176e-01  -1.249487999999985e-01 -1.54321610e+00  -1.32324080e+00   1.23925390e-01
C     9.929488103499999e+00   1.077107964073742e+00  -1.928030999999990e-01  8.70300950e-01   4.71734770e-01  -5.15443830e-01
C     8.550536044499999e+00   3.913717206928329e+00   3.468383700000000e+00 -4.60282110e-01  -1.22074980e+00   2.38703590e-01
C     9.787946866800000e+00   4.602669420975226e+00   3.498997800000000e+00 -3.26434470e-01   3.65590590e-01   2.51210620e-01
C     2.552407667500000e+00   2.516524861962311e+00  -2.424317999999985e-01  9.30755000e-02  -1.23615211e+00   3.33108990e-01
C     3.768688361900000e+00   3.209043393736180e+00  -2.153567999999986e-01  1.12169756e+00   1.12727476e+00   6.59672970e-01
C     1.225995855930000e+01   6.042303465900302e+00   3.516387900000000e+00 -1.24327664e+00   5.65503300e-01   9.78065200e-02
C     1.349144786000000e+01   6.749176842801993e+00   3.570439800000000e+00  7.41096500e-02  -6.81893360e-01  -3.23050010e-01
C     5.023665513700000e+00   2.516706572105326e+00  -1.864836000000025e-01 -9.78503190e-01  -5.39509300e-01  -1.81454930e-01
C     6.251240788800000e+00   3.195860613186841e+00  -2.375553000000004e-01  3.53713760e-01   1.43409607e+00   3.00328920e-01
C     4.877284643899999e+00   6.002722590622358e+00   3.570075000000000e+00 -1.29495674e+00   2.46938451e+00   1.88509700e-02
C     6.071459809900000e+00   6.752726253288215e+00   3.592714800000000e+00  3.99477450e-01   6.50897100e-02   3.26314300e-01
C     7.496264221299999e+00   2.518558683478437e+00  -2.521766999999997e-01 -1.11456118e+00  -1.19463246e+00   1.73748460e-01
C     8.729771568200000e+00   3.229451031052646e+00  -2.687844000000013e-01 -9.74102250e-01  -6.02011520e-01   1.29305150e-01
C     7.279199575099999e+00   6.011419060455609e+00   3.514454100000000e+00  9.43241860e-01   1.02508060e+00  -3.64668800e-01
C     8.520503618399999e+00   6.745194077533911e+00   3.480667500000000e+00  3.84753000e-02  -5.65498930e-01   3.40146110e-01
C     9.915520526100000e+00   2.494665336693930e+00  -2.276774999999986e-01  2.70320712e+00   7.42570370e-01   4.92735300e-02
C     1.121586817210000e+01   3.235129558411951e+00  -1.960905000000004e-01 -2.78613725e+00  -1.40778496e+00  -1.79757620e-01
C     9.753538671299999e+00   6.043960546274050e+00   3.459703800000000e+00  5.66718030e-01  -7.26639560e-01  -1.21304980e-01
C     1.097510048030000e+01   6.764401471537310e+00   3.458016600000000e+00  1.29440421e+00  -6.54063630e-01   2.35197300e-01
C     3.778339182000000e+00   4.646546272425658e+00  -8.036129999999986e-02 -2.14674920e-01  -4.77459790e-01  -6.03318300e-01
C     5.011055066700000e+00   5.345095480351026e+00  -1.210076999999998e-01  3.82112690e-01   5.75814450e-01   2.69524650e-01
C     1.347283972290000e+01   8.174124472822308e+00   3.554145000000000e+00  1.32810514e+00  -4.62344400e-01   2.25971750e-01
C     9.777439262000000e+00   3.897564729314256e-01   3.655535100000000e+00 -3.00745770e-01  -1.36720011e+00   2.16670290e-01
C     6.232403505300000e+00   4.630618029226790e+00  -2.002109999999995e-01  9.62752090e-01   2.16698450e-01  -1.07566850e-01
C     7.480579870000000e+00   5.358193895476822e+00  -2.181348000000014e-01  9.63705000e-03  -6.54546010e-01  -3.13498480e-01
C     6.067333104100000e+00   8.187701328705298e+00   3.733670400000000e+00  7.09092500e-01   1.25976460e-01  -7.95100180e-01
C     2.402154923600000e+00   3.594409363649104e-01   3.726414600000000e+00 -4.38904230e-01  -1.29708381e+00  -3.47344690e-01
C     8.726824118400000e+00   4.642930513828007e+00  -2.564400000000013e-01 -1.21077722e+00  -2.89749520e-01   4.24313720e-01
C     9.945093279000000e+00   5.302004132474650e+00  -1.281261000000029e-01 -5.96815360e-01   2.67264083e+00  -1.81015020e-01
C     8.566418285999999e+00   8.155829215918384e+00   3.584687100000000e+00 -1.33028414e+00   9.37040940e-01   3.34359590e-01
C     4.848765333399999e+00   3.602323318561968e-01   3.577061700000000e+00 -2.80863750e-01  -1.17846734e+00  -8.23752340e-01
C     1.115230760480000e+01   4.628604103605081e+00  -1.191240000000029e-01  2.39397638e+00   4.12278460e-01   2.41248750e-01
C     1.241352485480000e+01   5.369592108225945e+00  -3.864420000000024e-02 -8.29537950e-01  -1.58714366e+00  -1.76586730e-01
C     1.098357658000000e+01   8.185672203644936e+00   3.465615300000000e+00  1.21746513e+00  -9.86051060e-01   3.86769810e-01
C     7.324349599700000e+00   2.899577272375784e-01   3.501029100000000e+00 -1.19786669e+00   2.54666330e+00  -3.03554240e-01
