64
Lattice="9.86 0 0 4.93 8.53901048131456 0 0 0 30 " PBC="1 1 1" Properties=species:S:1:pos:R:3:force:R:3 Energy="-516.07544476"
C     4.936097719799999e+00   8.500813607540653e+00  -2.920404000000012e-01  6.44926320e-01   5.72370340e-01  -5.77071300e-02
C     1.247623120100000e+00   6.925635323590984e-01  -2.892420000000016e-01 -3.01878600e-02   2.92435600e-02  -9.57866800e-02
C     9.844647339100000e+00   2.590061197804080e-02   3.574822200000000e+00  4.67463660e-01  -4.51638150e-01  -4.83788000e-03
C     1.235189117800000e+00   7.230740145348720e-01   3.621052200000000e+00  7.63707300e-02   3.07215940e-01  -1.09454660e-01
C     7.425881569300000e+00   8.516522739730606e+00  -3.147236999999983e-01 -1.44038118e+00   6.25224030e-01   2.43923000e-03
C     3.700681230399999e+00   7.033012526475936e-01  -2.599613999999981e-01  8.26393920e-01  -8.51482790e-01   9.12416550e-01
C     2.484631358599999e+00   1.095111016039040e-02   3.511462200000000e+00 -1.21491754e+00   6.69859270e-01   1.74690430e-01
C     3.685795637700000e+00   7.653092412205240e-01   3.509389500000000e+00 -2.14355000e-03  -4.12743940e-01   1.11333770e-01
C     9.864534515399999e+00   8.509672147792816e+00  -1.425993000000005e-01  2.09806130e-01   1.47627420e-01  -2.17288100e-01
C     6.177513131800001e+00   6.666308137016528e-01  -1.330385999999990e-01  6.15284600e-02   4.36248480e-01  -7.43728150e-01
C     4.901983697400000e+00   5.378005424471680e-02   3.462218100000000e+00  1.22765851e+00  -1.19016048e+00   9.00137700e-02
C     6.168108220099999e+00   7.255012282638120e-01   3.472841700000000e+00 -1.29003543e+00   1.08675841e+00   4.69182310e-01
C     1.234938476600000e+01   8.482110954446728e+00  -1.770938999999991e-01 -4.97772670e-01   1.19967471e+00   5.35661390e-01
C     8.645604931999999e+00   6.806008056271424e-01  -3.002648999999984e-01 -2.49195350e-01  -4.49839890e-01   6.13539160e-01
C     7.386456014199999e+00   3.666873114384480e-02   3.518928000000000e+00 -4.02049610e-01  -1.47874550e+00   3.02279180e-01
C     8.596455888600000e+00   7.228834238209584e-01   3.605850900000000e+00  1.47034265e+00   7.64985070e-01  -3.19349860e-01
C     1.242557643700000e+00   2.124882121615854e+00  -1.670780999999977e-01 -1.29518470e-01  -1.54530550e-01   5.41236700e-01
C     2.472171178000000e+00   2.827576506788633e+00   4.401540000000000e-02 -4.07698010e-01  -4.30711030e-01  -8.61448110e-01
C     1.109924428930000e+01   2.156014841485305e+00   3.724266000000000e+00 -8.49998140e-01  -5.09015930e-01  -2.11232540e-01
C     2.451292825199999e+00   2.887060790814200e+00   3.699177000000000e+00  1.91932520e-01  -1.67903900e-01  -3.15992840e-01
C     3.703630455000000e+00   2.106339233408010e+00  -9.078930000000085e-02 -7.45605860e-01   6.34184740e-01  -1.66496340e-01
C     4.911429084399999e+00   2.822650351642721e+00  -1.469942999999994e-01  1.82015366e+00  -2.41994420e-01   1.28266140e-01
C     3.678142404300000e+00   2.177997499284807e+00   3.594344400000000e+00  6.94392130e-01   3.43100890e-01   1.02490220e-01
C     4.939627008200000e+00   2.881507018398008e+00   3.564933300000000e+00 -7.52953590e-01  -4.89246690e-01  -2.96125250e-01
C     6.163689609000000e+00   2.098459605317275e+00  -2.358375000000024e-01 -1.01137790e-01   1.61640000e-01   4.25332500e-02
C     7.398753011800000e+00   2.821968084705370e+00  -3.275547000000003e-01  6.56725700e-02  -2.07751760e-01   7.33227510e-01
C     6.163178318700000e+00   2.161180772045495e+00   3.538761600000000e+00  1.86000000e-03  -6.47869750e-01  -4.24375670e-01
C     7.392412243000000e+00   2.855998773951523e+00   3.530402400000000e+00 -2.37332700e-02   9.74905910e-01   1.78996300e-02
C     8.648789071100000e+00   2.098422119061268e+00  -2.758980000000015e-01 -7.40690580e-01   9.74698940e-01  -4.13562100e-01
C     9.858297868199999e+00   2.851666080033971e+00  -1.735821000000008e-01  6.02038660e-01  -1.08602591e+00   1.26754260e-01
C     8.627864031200000e+00   2.153116786718498e+00   3.614851500000000e+00 -8.64007200e-01  -5.29899150e-01   1.23111890e-01
C     9.838025018000000e+00   2.849151683008031e+00   3.718135800000000e+00  1.31573546e+00   3.14516810e-01  -2.38396450e-01
C     2.458020894800000e+00   4.249765097132755e+00   1.552311000000000e-01  1.52566505e+00  -5.03595310e-01  -3.18937460e-01
C     3.706690407400000e+00   4.943808183837723e+00   5.543190000000000e-02  2.60886380e-01   3.67819470e-01   3.79537880e-01
C     1.229530705370000e+01   4.305014629690976e+00   3.649885200000000e+00  6.15642170e-01   2.46100830e-01   5.72079800e-02
C     3.686248606100000e+00   5.014254593347199e+00   3.569659500000000e+00  5.99971000e-03  -6.13846650e-01  -9.08355100e-02
C     4.953920064199999e+00   4.245229345545988e+00  -1.067133000000027e-01 -1.13172460e+00   1.05421310e-01   8.04563300e-02
C     6.165209626599999e+00   4.975315766267246e+00  -2.308523999999998e-01  5.38177600e-01  -7.20127010e-01  -5.18616970e-01
C     4.935680888299999e+00   4.288256480063556e+00   3.503013900000000e+00 -4.98744520e-01   1.14604999e+00   2.32448010e-01
C     6.166288655700000e+00   5.026905649713948e+00   3.422174100000000e+00 -2.77315090e-01  -1.71214213e+00   2.60552360e-01
C     7.402604081300000e+00   4.253648041368326e+00  -2.899799999999999e-01  4.07381900e-01  -1.38697400e-01   1.37426510e-01
C     8.656401188299998e+00   4.971320107093340e+00  -1.915620000000011e-01 -1.48465813e+00  -1.40478940e-01   1.01542050e-01
C     7.383076992199999e+00   4.293342912436177e+00   3.451783200000000e+00  7.00875610e-01  -4.92582960e-01   3.36429470e-01
C     8.637192330700000e+00   4.979368636811369e+00   3.498893700000000e+00 -8.25216580e-01   2.95416740e-01   6.53690600e-02
C     9.870381199600001e+00   4.261133935685827e+00  -4.430069999999731e-02  4.71931470e-01   2.41651060e-01  -7.69539400e-02
C     1.112378923100000e+01   4.972801540021515e+00   1.389297000000000e-01 -2.04924437e+00  -1.00980658e+00  -5.26127230e-01
C     9.853786770299999e+00   4.274249941173212e+00   3.670902000000000e+00 -7.91057040e-01  -1.47890760e-01  -6.03467640e-01
C     1.105000507620000e+01   4.999609421863056e+00   3.616083000000000e+00  1.43902531e+00   3.14848290e-01   3.59707570e-01
C     3.702433796100000e+00   6.370931895288760e+00   7.213290000000000e-02  7.55469410e-01   2.57083580e-01  -1.42473802e+00
C     4.939841561800000e+00   7.084100059936099e+00  -2.272826999999999e-01 -1.06547910e+00  -2.22595920e-01   4.57306550e-01
C     1.355023806070000e+01   6.434373839891597e+00   3.542686500000000e+00  2.40059240e-01  -6.66582800e-02  -1.57780400e-02
C     4.937836974500000e+00   7.136683371862044e+00   3.477552900000000e+00 -4.67382700e-01   2.01175950e-01   4.80881560e-01
C     6.160026964100000e+00   6.388693037087161e+00  -3.549498000000000e-01 -2.28863770e-01  -1.94010200e-01   1.00444912e+00
C     7.381746237300000e+00   7.102252715365007e+00  -3.391184999999979e-01  6.07391590e-01  -1.21153610e-01   9.94963700e-02
C     6.174023382000000e+00   6.416849143293389e+00   3.445684200000000e+00 -5.63207900e-01   1.47487800e+00  -2.15445470e-01
C     7.398894108400000e+00   7.136758258983954e+00   3.444485400000000e+00  4.40098120e-01  -5.33397010e-01  -1.95733670e-01
C     8.590325729400000e+00   6.393077050457697e+00  -1.818984000000015e-01  1.97485717e+00  -1.59156020e-01  -2.06873390e-01
C     9.865095105700000e+00   7.088490221394181e+00  -7.733969999999957e-02 -1.36533195e+00  -6.05890700e-02  -9.58126000e-02
C     8.626137643800000e+00   6.400993737853915e+00   3.424738500000000e+00  2.77186040e-01   7.42031200e-01   4.59910880e-01
C     9.846248356600000e+00   7.144969713021941e+00   3.482762700000000e+00 -4.84944700e-02   1.99972400e-01  -2.25067500e-01
C     1.107395619940000e+01   6.364224246386406e+00   7.282799999999999e-02  1.27970084e+00   1.55439576e+00   8.56822800e-02
C     1.233366664420000e+01   7.092990536087456e+00   4.755719999999999e-02 -3.16044180e-01  -8.06743110e-01  -2.48766530e-01
C     1.108280929620000e+01   6.424767196931283e+00   3.545138400000000e+00 -5.35705060e-01   3.84533680e-01   1.64774020e-01
C     1.231242435880000e+01   7.138532153021069e+00   3.577689300000000e+00  1.90173590e-01   1.70924720e-01  -5.85525580e-01
