64
Lattice="9.86 0 0 4.93 8.53901048131456 0 0 0 30 " PBC="1 1 1" Properties=species:S:1:pos:R:3:force:R:3 Energy="-514.99692706"
C     4.936289348899999e+00   7.816969941903522e+00  -1.736943000000011e-01  2.26837646e+00  -6.26793960e-01   1.09288270e-01
C     1.272604268200000e+00   2.001971007036000e-02  -1.791444000000020e-01 -5.59704500e-01  -2.75093661e+00  -3.59318660e-01
C     9.831642442800000e+00   6.952889283340000e-01   3.491810100000000e+00 -1.31573813e+00   1.32062812e+00  -2.81434400e-02
C     1.189074489400000e+00   1.418030092240362e+00   3.538527000000000e+00  7.60469020e-01   6.33604950e-01  -6.92503840e-01
C     7.422363915700000e+00   7.813072054399612e+00  -2.430738000000012e-01  6.45473960e-01   1.67734840e-01   7.01768970e-01
C     8.696505703000000e+00   8.526513979722939e+00  -1.285533000000001e-01 -6.43602260e-01  -7.79275050e-01  -5.82687300e-01
C     2.432312177300000e+00   7.195012071599352e-01   3.318751200000000e+00 -8.86118960e-01   1.52887700e-01   8.63364700e-01
C     3.619505132200000e+00   1.482186068899536e+00   3.427552500000000e+00  2.97463680e-01   1.38031620e-01   1.68435100e-02
C     9.955022989200000e+00   7.806759590902272e+00  -1.627754999999986e-01 -1.91492151e+00   1.13947307e+00   2.53345840e-01
C     1.116834242980000e+01   8.529685368215212e+00  -1.722444000000003e-01 -9.23488200e-02  -3.08107300e-01   2.51536030e-01
C     4.843335776500000e+00   7.715285441135272e-01   3.459293100000000e+00  1.53807842e+00  -8.66698300e-01  -2.30840790e-01
C     6.130620155000000e+00   1.414584259951262e+00   3.460694700000000e+00 -2.36038591e+00   2.31524359e+00  -7.19730400e-02
C     1.241030236030000e+01   7.826084310909665e+00  -1.069119000000001e-01 -2.12535707e+00  -2.10592771e+00  -1.44558050e-01
C     1.359996800600000e+01   8.495547428997430e+00  -1.129175999999994e-01  3.66447670e-01   2.26796047e+00  -3.09470250e-01
C     7.311539044000000e+00   7.390120775957919e-01   3.482157900000000e+00  3.28815550e+00  -1.10449003e+00   4.47282500e-01
C     8.591975751100000e+00   1.431489707509462e+00   3.513373800000000e+00 -4.77157700e-01   1.14044598e+00  -2.49945770e-01
C     1.266416477300000e+00   1.396290710849434e+00  -9.862200000000243e-02 -1.51351700e-01   9.91573220e-01   1.21304854e+00
C     2.505205974100000e+00   2.078384989409529e+00   5.796270000000000e-02  2.62475000e-02   1.09619000e+00  -5.58427530e-01
C     1.105361644910000e+01   2.870338931981321e+00   3.679738500000000e+00  2.66447900e-01  -1.33803700e+00  -5.49093030e-01
C     2.417204389500000e+00   3.594110071331780e+00   3.706961400000000e+00 -7.07232440e-01   5.94706310e-01   2.98394190e-01
C     3.740172847500000e+00   1.398254512479625e+00  -1.629540000000063e-02  1.19312147e+00   4.32333100e-02  -1.89137870e-01
C     5.018338550099999e+00   2.119878261474573e+00  -5.591250000000159e-02 -2.33122011e+00   3.22113800e-01   8.29874700e-02
C     3.613017202900000e+00   2.933824767098025e+00   3.562318500000000e+00  1.80729448e+00  -2.82321224e+00  -6.04145290e-01
C     4.883704588500000e+00   3.574680236105379e+00   3.446646600000000e+00  1.22898550e-01  -9.98559300e-02   7.82005460e-01
C     6.195275330199999e+00   1.416508269792616e+00  -2.022830999999989e-01  1.68427892e+00  -1.01191621e+00   2.02059380e-01
C     7.456544049400000e+00   2.100217275234479e+00  -2.427551999999977e-01 -9.33951110e-01  -7.00021010e-01   6.03706020e-01
C     6.143982673500000e+00   2.849269435962550e+00   3.420722400000000e+00 -1.17691905e+00   4.71159940e-01  -1.85940670e-01
C     7.336020043599999e+00   3.611469965027725e+00   3.399202200000000e+00  1.43811376e+00  -1.25900600e+00   7.16035970e-01
C     8.663527897699998e+00   1.399281755440369e+00  -1.283679000000006e-01  6.36111970e-01  -8.44809830e-01  -3.17797300e-02
C     9.878784384599999e+00   2.086490815887879e+00  -7.875000000002075e-03  9.46049820e-01   1.93382536e+00  -7.81430840e-01
C     8.612621802300000e+00   2.895505616008605e+00   3.503939700000000e+00 -1.46997282e+00  -1.59871748e+00  -4.21432440e-01
C     9.842664098699998e+00   3.574779288626947e+00   3.576866400000000e+00 -7.83036780e-01   4.23569640e-01   8.95959600e-01
C     2.520083333700000e+00   3.508620743230003e+00   1.071006000000000e-01 -1.37398074e+00   3.75188220e-01   2.28803190e-01
C     3.729591095500000e+00   4.215289098490070e+00   1.884480000000000e-02  1.33088199e+00   4.88680370e-01   2.06121280e-01
C     1.230159378970000e+01   5.012546620470990e+00   3.812516100000000e+00 -1.19753470e+00   5.52832400e-02  -5.65606380e-01
C     3.620926599100000e+00   5.727574325430558e+00   3.629271300000000e+00  2.19656389e+00  -1.13484997e+00  -2.20580340e-01
C     5.014471113000000e+00   3.552176784056701e+00  -1.552200000000070e-02 -1.81328637e+00  -1.30293844e+00  -5.78699250e-01
C     6.209461158700000e+00   4.231481111722665e+00  -1.809705000000008e-01  1.49181099e+00   2.48992760e-01   1.03087230e-01
C     4.875016597400000e+00   4.977536592112885e+00   3.493549800000000e+00  2.79703940e-01   1.92143466e+00  -5.36738100e-01
C     6.117566895400000e+00   5.724374672813597e+00   3.324953100000000e+00 -1.09864180e+00  -1.88493350e-01   8.98253360e-01
C     7.461563085200000e+00   3.473627622112648e+00  -2.296602000000014e-01 -8.98841200e-02   3.33124858e+00   1.27728010e-01
C     8.701554269499999e+00   4.239543816198091e+00  -1.628240999999981e-01 -1.60356870e+00   4.68151510e-01   7.64025100e-02
C     7.333579989399999e+00   5.025875076539116e+00   3.414745200000000e+00  1.03164113e+00  -2.30345000e-02  -1.01137127e+00
C     8.608589062300000e+00   5.719325812087088e+00   3.420195300000000e+00 -6.27265090e-01  -5.06287460e-01   6.60567020e-01
C     9.918034579600000e+00   3.571668270938768e+00  -7.089000000028989e-04 -9.60893280e-01  -2.69190032e+00   1.69839450e-01
C     1.111039131510000e+01   4.252490493107657e+00   1.448151000000000e-01  2.33067827e+00   9.77429530e-01  -6.64149810e-01
C     9.802716210100000e+00   4.988207366559217e+00   3.654654300000000e+00  1.53965153e+00   1.17577765e+00  -3.30212810e-01
C     1.107476994520000e+01   5.726614113702082e+00   3.803163300000000e+00 -1.95391211e+00  -1.54904436e+00  -8.75919050e-01
C     3.735618858600000e+00   5.639821561820846e+00  -6.757890000000089e-02 -1.93096450e-01   2.68175890e-01   1.65940790e-01
C     4.930472293999999e+00   6.393120257850726e+00  -1.777130999999983e-01  1.69085139e+00  -1.01029243e+00   1.66623750e-01
C     1.350484104310000e+01   7.132622560038175e+00   3.526032900000000e+00 -1.57444400e-02   4.55961220e-01   3.19620990e-01
C     4.865809181500000e+00   7.833118747743089e+00   3.404652300000000e+00  1.33121618e+00  -1.12523060e-01   6.61982000e-02
C     6.200429990300000e+00   5.658607470266952e+00  -2.096252999999990e-01 -1.82210575e+00   1.31560230e-01  -1.16885010e-01
C     7.384130878300000e+00   6.367705686349207e+00  -2.486354999999989e-01  2.18871380e+00   1.15807332e+00  -1.03022380e-01
C     6.122074591600000e+00   7.154589762228709e+00   3.310679100000000e+00 -6.58626780e-01  -1.25592030e+00  -3.84818810e-01
C     7.365363255699999e+00   7.808887768484202e+00   3.209220300000000e+00  5.14783800e-02   2.01642077e+00   9.75458430e-01
C     8.651268861100000e+00   5.675463306174262e+00  -1.957325999999995e-01 -2.98245030e-01  -1.08133740e-01   3.44363170e-01
C     9.865561089300000e+00   6.412676555822337e+00  -9.457349999999920e-02  1.68024026e+00  -1.29363212e+00   1.75250140e-01
C     8.609646892400001e+00   7.139247380538874e+00   3.352757700000000e+00 -2.06268550e-01  -2.11803390e-01  -6.52702400e-02
C     9.813699559899998e+00   7.880620750702700e+00   3.486928800000000e+00  1.50759700e-01  -1.08937810e+00  -1.30289990e-01
C     1.112435647680000e+01   5.708586554776705e+00   7.480860000000000e-02 -2.53796140e-01  -1.36167896e+00  -6.69287190e-01
C     1.239038678720000e+01   6.362898650399491e+00  -3.632999999999953e-02 -1.31913894e+00   1.46407362e+00   2.56430600e-01
C     1.104916234200000e+01   7.097441922250680e+00   3.626397600000000e+00  3.54558660e-01   3.42335523e+00   2.12699550e-01
C     1.229876806160000e+01   7.862099722361685e+00   3.589496100000000e+00 -1.64844482e+00  -1.07077150e+00  -3.57135760e-01
