64
Lattice="9.86 0 0 4.93 8.53901048131456 0 0 0 30 " PBC="1 1 1" Properties=species:S:1:pos:R:3:force:R:3 Energy="-515.99547142"
C     4.974547282800000e+00   7.356432330251804e+00  -1.862910000000007e-01  5.25192720e-01  -3.35325730e-01   6.11205000e-03
C     6.216057350800000e+00   8.064599964971951e+00  -1.876040999999979e-01  2.31558880e-01  -3.88248780e-01  -5.56042040e-01
C     9.821491474200000e+00   1.176295828957850e+00   3.613689000000000e+00 -3.14195300e-02   1.08356476e+00   4.99031700e-02
C     1.200397516200000e+00   1.915759278647614e+00   3.633428100000000e+00 -5.54960260e-01   6.39694120e-01   7.41084000e-03
C     7.453639145500000e+00   7.325785394688561e+00  -2.221340999999981e-01 -9.79890550e-01   1.10898530e-01   4.46061770e-01
C     8.652475626499999e+00   8.036702420003056e+00  -2.435571000000003e-01  1.54459796e+00   3.80827440e-01   6.64446740e-01
C     2.443338073000000e+00   1.192724885121370e+00   3.559391700000000e+00 -1.29537339e+00   1.24594078e+00   6.57940700e-02
C     3.659476635500000e+00   1.917642215848559e+00   3.488370300000000e+00 -1.78648750e-01  -5.86751180e-01   2.54876470e-01
C     9.911974475699999e+00   7.334457272171630e+00  -1.971114000000007e-01 -8.85009100e-01   4.33087060e-01  -1.96636430e-01
C     1.111883803200000e+01   8.046775463715788e+00  -2.157581999999998e-01  1.26741022e+00   5.61640350e-01  -1.50054500e-01
C     4.866492923199999e+00   1.193038437586195e+00   3.512796600000000e+00  1.31627621e+00  -8.05530900e-01   2.83915480e-01
C     6.130559318800000e+00   1.862708797458309e+00   3.575276400000000e+00 -2.97672075e+00   3.27605412e+00   3.21507930e-01
C     1.237223063250000e+01   7.331886859236940e+00  -2.868768000000017e-01 -6.73696820e-01   1.72442700e-02   7.65864860e-01
C     1.358994467510000e+01   8.047407948222043e+00  -2.243427000000011e-01  7.94109240e-01   2.18890410e-01  -3.01947270e-01
C     7.324290981999999e+00   1.242839825287861e+00   3.652084500000000e+00  1.47258107e+00  -3.10032341e+00  -3.64192150e-01
C     8.559589693700000e+00   1.879965539907655e+00   3.662793300000000e+00  1.49489844e+00   1.79666685e+00  -1.84164800e-02
C     1.310223471300000e+00   9.445473407009640e-01  -2.632292999999990e-01 -8.40068930e-01   3.39280490e-01   4.16886620e-01
C     2.537053576900000e+00   1.663319743316431e+00  -1.964958000000010e-01 -4.32193040e-01  -9.29813250e-01  -3.53376110e-01
C     1.103014600090000e+01   3.382022398534780e+00   3.701090700000000e+00  3.65913200e-02  -2.74015496e+00  -6.12416320e-01
C     2.431764700800000e+00   4.035974233305414e+00   3.623196900000000e+00 -9.63177520e-01   6.88005300e-01  -2.22348520e-01
C     3.758671440000000e+00   9.260085512181504e-01  -1.673060999999976e-01 -1.49100652e+00  -4.39480830e-01  -1.02149670e-01
C     4.947772304899999e+00   1.621055740165462e+00  -8.904119999999693e-02  2.08312816e+00   1.99505733e+00  -3.83379080e-01
C     3.646373484300000e+00   3.321906569294113e+00   3.505608300000000e+00  5.39931510e-01   7.09436910e-01   3.93284670e-01
C     4.887181125900000e+00   4.047527599874959e+00   3.540761100000000e+00 -5.11102810e-01  -5.41910950e-01   1.84027190e-01
C     6.195788000899999e+00   9.462233776779784e-01  -1.609989000000027e-01  5.91822740e-01  -6.83082010e-01  -1.96361500e-01
C     7.451611239299999e+00   1.659289501150081e+00  -2.362584000000005e-01 -6.38286220e-01  -5.97624570e-01   1.90565470e-01
C     6.114787953000000e+00   3.314004995946445e+00   3.637325700000000e+00 -9.19832640e-01  -1.92979880e-01  -7.81531750e-01
C     7.311540670899999e+00   4.038066888603749e+00   3.654763200000000e+00  1.03824305e+00   1.90424060e-01  -1.33365700e-02
C     8.699313436599999e+00   9.319774903238800e-01  -2.606585999999993e-01 -9.88938740e-01   6.99859080e-01   2.75513400e-02
C     9.916862620000000e+00   1.664873757833687e+00  -2.850222000000002e-01  6.98358990e-01  -2.60699660e-01   2.53923730e-01
C     8.555352457300000e+00   3.324605067386002e+00   3.676435800000000e+00 -7.20280890e-01  -9.33788220e-01   2.84056000e-02
C     9.752560066299999e+00   4.030837249990752e+00   3.686009700000000e+00  2.20603078e+00   7.91560320e-01   1.87953260e-01
C     2.514378337700000e+00   3.063631388810793e+00  -2.158427999999972e-01  5.73024350e-01   8.99615240e-01   5.24076860e-01
C     3.756757318200000e+00   3.785849879885673e+00  -1.413575999999992e-01 -8.40464020e-01  -1.43020610e-01   7.40358000e-03
C     1.226329355640000e+01   5.458504384068736e+00   3.600641400000000e+00  1.44271533e+00   2.74818650e-01  -1.63281910e-01
C     3.641543957700000e+00   6.208310710202401e+00   3.549978000000000e+00 -5.11583760e-01  -6.22656240e-01   2.42575040e-01
C     4.973084847600000e+00   3.090174305157139e+00  -9.337290000000209e-02 -3.25119630e-01  -1.42853995e+00  -3.31488800e-02
C     6.179849606699999e+00   3.806306360342085e+00  -1.286489999999993e-01  1.84882643e+00  -7.85099250e-01  -2.82120750e-01
C     4.863404524700000e+00   5.465597313123949e+00   3.559383600000000e+00  9.39188440e-01   9.92070170e-01  -1.64260660e-01
C     6.132297833999999e+00   6.196600567400443e+00   3.569575200000000e+00 -1.56505420e+00  -1.41671979e+00   2.60355560e-01
C     7.422242193999999e+00   3.073593425387285e+00  -2.267255999999982e-01  8.74383360e-01   4.30905150e-01   5.69612870e-01
C     8.694160847099999e+00   3.777414618383006e+00  -1.976030999999985e-01 -1.52011545e+00   8.07933080e-01  -8.62457000e-03
C     7.325788272300001e+00   5.470931974531223e+00   3.604843500000000e+00  1.19774322e+00  -4.94294460e-01  -6.55999000e-02
C     8.584255814800001e+00   6.171944003859234e+00   3.574538100000000e+00 -8.95686190e-01   1.11016930e-01   4.67722920e-01
C     9.924588225800001e+00   3.108793959069198e+00  -2.422113000000010e-01 -5.73154530e-01  -2.16007560e+00   3.50826400e-02
C     1.114686311000000e+01   3.779289528914099e+00  -2.082716999999974e-01  3.37628060e-01   7.35473960e-01  -3.52331180e-01
C     9.802272165000000e+00   5.451438694456956e+00   3.664677600000000e+00 -6.81514120e-01   2.00858230e-01  -6.76848590e-01
C     1.103845660050000e+01   6.141529841721675e+00   3.592398900000000e+00  2.31026800e-02   8.28127110e-01   4.99939550e-01
C     3.756039214400000e+00   5.193929633993901e+00  -1.507944000000023e-01  8.52142090e-01   1.16291750e+00  -5.03004590e-01
C     5.029905809100000e+00   5.933099768673677e+00  -1.667640000000006e-01 -1.78448851e+00  -3.40886210e-01   1.90560550e-01
C     1.350487382760000e+01   7.645772430861364e+00   3.575724600000000e+00 -1.81933350e-01  -9.15601520e-01  -3.11790280e-01
C     4.898616803199999e+00   8.305337213390818e+00   3.541522800000000e+00 -2.09527970e-01   1.11513300e-01   6.98971770e-01
C     6.260554199700000e+00   5.223504923741904e+00  -1.551732000000001e-01 -2.13151001e+00  -7.17152930e-01   2.79212740e-01
C     7.471274149900000e+00   5.893755423986030e+00  -1.455618000000030e-01 -1.68944540e-01   1.66065814e+00  -2.76378610e-01
C     6.129019729099999e+00   7.586256637887128e+00   3.604004100000000e+00 -5.13327940e-01   1.52897430e+00  -6.28359210e-01
C     7.335982723499999e+00   8.335677769258039e+00   3.584754000000000e+00  8.04696330e-01  -1.48265027e+00  -2.41888690e-01
C     8.671446660899999e+00   5.207331696332365e+00  -1.298421000000012e-01  1.85157179e+00  -6.27826710e-01  -3.97273810e-01
C     9.923646546499999e+00   5.929929404862663e+00  -1.758873000000030e-01 -1.13100827e+00  -8.89321800e-01  -1.26474910e-01
C     8.563304892400000e+00   7.599162242156285e+00   3.552802200000000e+00  4.65937460e-01   2.33794000e-03   2.17430130e-01
C     9.803104694100000e+00   8.300448715281123e+00   3.579192000000000e+00  3.16427790e-01  -2.03697370e-01  -4.36572250e-01
C     1.112432679820000e+01   5.205267390548825e+00  -2.379794999999980e-01  1.40753469e+00  -1.35380300e-01   4.59267430e-01
C     1.237703437520000e+01   5.902215277838880e+00  -2.413910999999977e-01  4.39166200e-02   3.78276940e-01   4.29961900e-02
C     1.106110669670000e+01   7.568997931465370e+00   3.596911800000000e+00 -9.12206220e-01   1.52311355e+00  -1.16882490e-01
C     1.226417928020000e+01   8.361169874974717e+00   3.606144300000000e+00  2.29567750e-01  -1.93592996e+00   2.27537000e-03
