64
Lattice="9.86 0 0 4.93 8.53901048131456 0 0 0 30 " PBC="1 1 1" Properties=species:S:1:pos:R:3:force:R:3 Energy="-515.81144853"
C     4.999279564500000e+00   8.403414323791687e+00  -5.302499999999988e-01 -2.53360024e+00  -1.05093477e+00   1.24256460e-01
C     1.265299881600000e+00   5.766497953071856e-01  -5.282253000000026e-01  5.84346040e-01  -3.44371500e-02  -3.25505600e-01
C     9.847274437499999e+00   1.329435979928056e-01   3.866670600000000e+00 -1.52498865e+00   9.45944510e-01   1.68158690e-01
C     1.183588336100000e+00   8.605465329060600e-01   3.891566700000000e+00  1.18194187e+00  -1.46124940e+00  -1.09073030e-01
C     7.414995734900000e+00   8.402959023752894e+00  -5.439737999999998e-01  1.10537735e+00  -3.71652190e-01   2.57545800e-01
C     3.730996589200000e+00   5.583773375612433e-01  -4.920738000000000e-01 -3.23294360e-01   1.03259766e+00   2.68064190e-01
C     2.416969524300000e+00   1.270361397625320e-01   3.851498100000000e+00  1.33556405e+00   1.21479142e+00   3.91366400e-02
C     3.669637020399999e+00   8.684822622956480e-01   3.837328200000000e+00 -4.02254550e-01  -1.06634179e+00  -1.36268480e-01
C     9.896824339199998e+00   8.397629571142010e+00  -4.318361999999993e-01 -1.04948700e+00  -4.68275890e-01  -1.82124820e-01
C     6.176120505399999e+00   5.526005261913136e-01  -4.569347999999991e-01  1.32531598e+00   1.09056438e+00   1.10532190e-01
C     4.909794197799999e+00   1.249506572330016e-01   3.789754200000000e+00 -1.03222195e+00   1.31583266e+00   2.90503250e-01
C     6.125934337900000e+00   8.539542460352904e-01   3.814423800000000e+00  5.71900460e-01  -2.67151700e-01  -1.79638400e-02
C     1.234168568360000e+01   8.372319260958452e+00  -4.389087000000025e-01  1.01190590e+00   1.05530280e+00  -1.18764230e-01
C     8.664347263700000e+00   5.590432949885784e-01  -5.259752999999989e-01 -6.59201000e-03   3.73238100e-01   3.08958740e-01
C     7.361865913699999e+00   1.501953024259688e-01   3.818960100000000e+00  4.05317920e-01  -9.02259920e-01   4.33715930e-01
C     8.601041084399998e+00   8.422186569821024e-01   3.901066200000000e+00 -2.79244490e-01   9.13660760e-01  -5.29933050e-01
C     1.291424247400000e+00   1.995438664018800e+00  -4.944404999999996e-01 -2.23514681e+00   1.40651980e-01   6.61173550e-01
C     2.469355112700000e+00   2.684958209921988e+00  -3.620885999999999e-01  2.43359598e+00   2.12363592e+00  -4.80880000e-02
C     1.104136806130000e+01   2.249040187896101e+00   3.914197200000000e+00  1.22651695e+00   1.42482541e+00  -1.90052000e-03
C     2.429616108200000e+00   2.988117759702275e+00   3.901473900000000e+00 -3.45193340e-01   5.12449900e-02  -3.17325040e-01
C     3.725755210400000e+00   2.008371336951179e+00  -4.153358999999988e-01 -6.18287800e-01  -1.62678781e+00  -1.82348920e-01
C     4.941512092300000e+00   2.696919143461743e+00  -4.345259999999982e-01  9.08826270e-01   1.02982244e+00   2.83542070e-01
C     3.662916296500000e+00   2.289751798941807e+00   3.845964600000000e+00  5.19993050e-01  -4.19394180e-01   4.58901900e-02
C     4.922424069000000e+00   2.986379729509176e+00   3.808176899999999e+00 -1.15023819e+00  -1.92421670e-01   2.81354150e-01
C     6.204911261700000e+00   2.003771798956127e+00  -4.837568999999995e-01 -1.65994898e+00  -9.97433090e-01  -1.94543730e-01
C     7.401092050299999e+00   2.714692410655025e+00  -5.566230000000019e-01  1.77753810e+00  -7.28584800e-02   6.19227540e-01
C     6.143288283000000e+00   2.270699644148936e+00   3.846798600000001e+00 -2.55727210e-01   3.10782440e-01  -3.59707830e-01
C     7.367287089600000e+00   2.999203273887621e+00   3.855504900000000e+00 -5.86991000e-02  -1.14338913e+00   1.83980400e-01
C     8.652649113199999e+00   1.992078904955339e+00  -5.242223999999993e-01  7.59197590e-01   6.97527970e-01  -1.25461490e-01
C     9.923573976900000e+00   2.745599359087385e+00  -4.534334999999992e-01 -1.45240925e+00  -1.71901474e+00  -3.90085510e-01
C     8.588411262499999e+00   2.300401482032254e+00   3.891678000000000e+00  2.68663040e-01  -2.13847691e+00   7.30627900e-02
C     9.826874196100000e+00   2.955727499759434e+00   3.903463200000000e+00 -2.04477690e-01   1.66211480e+00   2.42534300e-02
C     2.500874525400000e+00   4.143238208911401e+00  -2.532519000000022e-01 -6.95033160e-01  -9.40767530e-01  -3.84662140e-01
C     3.724463501100000e+00   4.860370865344394e+00  -3.240821999999994e-01 -1.44973400e-01  -1.52315464e+00   6.70425900e-01
C     1.230170367940000e+01   4.422240983433873e+00   3.853086300000000e+00 -1.04728606e+00  -8.25219430e-01   1.09857150e-01
C     3.665931238000000e+00   5.114284746225055e+00   3.820915800000000e+00  3.16631350e-01   3.83559370e-01  -1.86696230e-01
C     4.930493690200001e+00   4.132293246838557e+00  -3.825518999999993e-01  2.06817208e+00   6.83544800e-02  -5.45055730e-01
C     6.213367740000000e+00   4.854146012094580e+00  -4.805051999999996e-01 -1.66331094e+00  -3.71080360e-01   1.73587140e-01
C     4.889627145400000e+00   4.398366422472423e+00   3.803335200000000e+00  1.11181758e+00   2.37896690e-01  -1.96478900e-02
C     6.144940720399999e+00   5.096218590972309e+00   3.795477900000000e+00 -1.06564133e+00   1.13615011e+00   2.59035280e-01
C     7.440361423000000e+00   4.144087840454162e+00  -5.168799000000028e-01 -6.57916270e-01  -3.80950240e-01  -1.58413960e-01
C     8.663982443700000e+00   4.844557813396902e+00  -4.826060999999982e-01  1.89130800e-01   7.30482590e-01   5.12932280e-01
C     7.375215564900000e+00   4.390009549085961e+00   3.849365100000000e+00 -7.69960840e-01   1.30809883e+00  -4.99542820e-01
C     8.577099476099999e+00   5.122051915547767e+00   3.808061700000000e+00  1.62345689e+00  -7.42380560e-01   3.84675630e-01
C     9.899796586899999e+00   4.159128538903738e+00  -3.831845999999999e-01  7.37963100e-02  -7.00782530e-01   1.07023000e-03
C     1.112943644740000e+01   4.855958331678854e+00  -2.470703999999984e-01 -1.24331900e-01  -1.40099730e-01  -3.25263250e-01
C     9.826478218500000e+00   4.396145169676260e+00   3.872396700000000e+00 -2.52513180e-01   8.20313300e-02  -3.49107610e-01
C     1.104933642030000e+01   5.115830734072459e+00   3.834912300000000e+00  3.01736950e-01   6.39019180e-01  -1.73402650e-01
C     3.734955872200000e+00   6.252294384673938e+00  -2.991324000000013e-01 -4.96927690e-01   9.75881190e-01  -8.39686100e-01
C     4.936457166100000e+00   6.944768769763625e+00  -4.868904000000001e-01  1.43831214e+00   2.07023981e+00   3.46421980e-01
C     1.352445573830000e+01   6.536061500093726e+00   3.801564000000000e+00  2.44212910e-01   4.94714720e-01   2.62785960e-01
C     4.899628094100000e+00   7.279216705574413e+00   3.818817600000000e+00  2.80873000e-03  -1.90389679e+00  -2.38924100e-02
C     6.176377999300000e+00   6.281315151081371e+00  -5.213900999999979e-01  1.12246380e+00  -1.12755111e+00   1.08458910e-01
C     7.438563797100000e+00   6.974539005120887e+00  -5.379027000000001e-01 -1.31985963e+00   7.04900520e-01   1.46474220e-01
C     6.118465190700000e+00   6.540813971766474e+00   3.813163800000000e+00  1.54915117e+00  -1.99295940e-01  -8.67532600e-02
C     7.403158657000001e+00   7.256132430032887e+00   3.825549300000000e+00 -2.30100574e+00  -5.15256900e-01  -1.60807970e-01
C     8.660552445499999e+00   6.283244113548802e+00  -4.403325000000002e-01 -5.82254210e-01  -1.28152649e+00  -4.19291400e-01
C     9.874501841499999e+00   6.969028610877934e+00  -3.884346000000001e-01  1.02020729e+00   7.29765700e-01   2.37526680e-01
C     8.614992146300001e+00   6.534116484286591e+00   3.788109899999999e+00 -5.75909600e-01   2.36095800e-01   2.02538950e-01
C     9.828238573599998e+00   7.255122435873312e+00   3.801342000000000e+00  1.79394340e-01   2.77368500e-02  -5.01353390e-01
C     1.110028944930000e+01   6.265130822958207e+00  -2.753915999999990e-01  1.47001869e+00   5.85938430e-01  -1.80138900e-01
C     1.237864002690000e+01   6.975034780069357e+00  -3.208215000000010e-01 -1.86728626e+00  -6.48252540e-01   2.14962950e-01
C     1.104729431570000e+01   6.563825067988188e+00   3.761721600000000e+00  7.09824830e-01  -1.58658885e+00   7.37079190e-01
C     1.229220795710000e+01   7.238943487326751e+00   3.826689300000000e+00 -9.79304800e-02   1.09912567e+00  -6.34605410e-01
