64
Lattice="9.86 0 0 4.93 8.53901048131456 0 0 0 30 " PBC="1 1 1" Properties=species:S:1:pos:R:3:force:R:3 Energy="-515.18210886"
C     4.960468336700000e+00   8.453982514634458e+00  -4.504017000000005e-01 -1.05899490e+00  -2.22000081e+00  -1.91103900e-02
C     1.226614861800000e+00   6.215836054748319e-01  -4.661009999999983e-01  1.77255290e+00  -1.27842698e+00   3.16304990e-01
C     9.860005866699998e+00   9.433292508559919e-02   3.874326600000000e+00 -1.07931847e+00   1.61523406e+00  -1.70349100e-01
C     1.205476057100000e+00   8.633994163074280e-01   3.881897700000000e+00  3.54355740e-01  -2.57310057e+00  -1.11698020e-01
C     7.393792297899999e+00   8.433509383107609e+00  -4.644722999999971e-01  1.00416687e+00  -4.63723940e-01  -1.36434660e-01
C     3.724274977900000e+00   5.846649374942376e-01  -4.964718000000019e-01  1.13492870e-01   7.69252740e-01   6.78807610e-01
C     2.447625299600000e+00   1.340752730517200e-01   3.841414800000000e+00 -3.83322800e-01   5.39327720e-01  -8.40402700e-02
C     3.670605469600000e+00   8.441819462716640e-01   3.802014900000000e+00  1.38346700e-01  -4.74110730e-01   3.88527550e-01
C     9.910101322199999e+00   8.437203102870942e+00  -4.208586000000025e-01 -2.16529319e+00  -1.67027696e+00   8.33918100e-02
C     6.173718461500000e+00   5.664794068749817e-01  -3.855200999999973e-01  2.34476357e+00   1.82245890e+00  -6.69323620e-01
C     4.893083864199999e+00   1.014603517431504e-01   3.809198400000000e+00  6.39586300e-02   1.50686627e+00  -4.63955500e-02
C     6.111186785199999e+00   8.508821662349009e-01   3.816481200000000e+00  1.33493770e-01  -4.50770600e-02   2.59632830e-01
C     1.234839403320000e+01   8.393949599185550e+00  -4.286730000000034e-01  4.00501040e-01   1.57330353e+00   3.10749820e-01
C     8.649997808500000e+00   5.938800668240440e-01  -4.781477999999986e-01 -2.23307780e-01  -6.64321860e-01   2.49714550e-01
C     7.346310629800000e+00   1.517841561059824e-01   3.809515199999999e+00  3.01316380e-01  -1.72762861e+00  -3.60024830e-01
C     8.604417099099999e+00   7.965232524697448e-01   3.815153400000000e+00  1.80018230e-01   1.35938011e+00   4.46597920e-01
C     1.283791966500000e+00   2.011307304924518e+00  -3.999227999999988e-01 -2.13502362e+00   4.67584250e-01  -8.51059460e-01
C     2.482337528200000e+00   2.679108048452035e+00  -3.927084000000001e-01  2.67787868e+00   3.28404228e+00  -1.46355240e-01
C     1.105493542130000e+01   2.236413723879535e+00   3.859472999999999e+00  8.14184520e-01   2.00141076e+00  -4.48824970e-01
C     2.457091491200000e+00   2.957457076332159e+00   3.754546800000000e+00 -1.79740040e+00   1.23222560e+00   3.68291920e-01
C     3.765927512600000e+00   2.027657204460888e+00  -4.521485999999975e-01 -1.62539174e+00  -1.66629655e+00   1.75958690e-01
C     4.996872048299999e+00   2.710570801076538e+00  -4.291784999999990e-01 -2.69721310e-01   1.83999890e-01  -1.97310410e-01
C     3.643448219500000e+00   2.262507232104319e+00   3.835533300000000e+00  2.24836209e+00   3.47886230e-01  -9.68070500e-02
C     4.892713128200000e+00   3.030524022767842e+00   3.917620800000000e+00 -7.81501590e-01  -2.09067396e+00  -8.58874650e-01
C     6.244846726700001e+00   2.026372510334172e+00  -4.440351000000007e-01 -2.39219466e+00  -2.11040182e+00   4.12136840e-01
C     7.427972825999999e+00   2.722612769825749e+00  -4.279637999999970e-01  1.34907630e+00  -7.14357120e-01  -6.08104920e-01
C     6.113422195100000e+00   2.286875177091305e+00   3.877363200000000e+00 -4.34426160e-01  -7.07606310e-01  -1.32313620e-01
C     7.344721000599999e+00   2.950165444503077e+00   3.831622500000000e+00  1.34371072e+00   7.59200630e-01  -2.12811960e-01
C     8.659260440399999e+00   1.991325422670584e+00  -4.967766000000005e-01 -4.79644000e-03   1.06720402e+00   3.28278620e-01
C     9.884691559899998e+00   2.717482446939260e+00  -4.907391000000025e-01  5.15210900e-02  -9.61187990e-01   6.82189900e-01
C     8.605792421199999e+00   2.243374810612936e+00   3.845616300000000e+00 -7.72213430e-01  -6.90375880e-01  -6.64581800e-02
C     9.828081454500001e+00   2.940444378802330e+00   3.875764200000000e+00  2.10310700e-02   1.71731101e+00  -4.19417160e-01
C     2.513968605400000e+00   4.172997685115459e+00  -3.883350000000014e-01 -1.39140309e+00  -2.07456223e+00   9.66482600e-02
C     3.746268348800000e+00   4.855334471573186e+00  -3.462110999999979e-01 -2.79270880e-01  -4.16303840e-01  -8.07225300e-01
C     1.233057163950000e+01   4.414601899268360e+00   3.696295800000000e+00 -2.06580187e+00  -1.43321504e+00   5.46073900e-01
C     3.650632955000000e+00   5.137625106690877e+00   3.754348500000000e+00  1.27112026e+00  -4.86055950e-01   3.14600400e-01
C     4.962296430000000e+00   4.113827295115137e+00  -4.307628000000001e-01  7.96940700e-01   1.25013287e+00   4.85587080e-01
C     6.209033678399999e+00   4.825322582219338e+00  -4.438865999999990e-01 -1.73715047e+00   1.20091935e+00  -1.13050860e-01
C     4.888868763500000e+00   4.419238240398582e+00   3.850181400000000e+00  4.36694770e-01   5.73434340e-01  -7.80660000e-04
C     6.153470014800000e+00   5.098919821547552e+00   3.855703500000000e+00 -1.22180994e+00   6.00861540e-01  -3.43942060e-01
C     7.408250558199999e+00   4.117785126472618e+00  -4.491390000000024e-01  7.38533780e-01   9.41203560e-01   4.18497060e-01
C     8.627592092400000e+00   4.826288344304627e+00  -3.854645999999988e-01  4.33883280e-01   1.78994305e+00  -5.58678240e-01
C     7.360854721400000e+00   4.381760096451338e+00   3.764712600000000e+00  7.62692060e-01   2.22495430e-01   1.25261092e+00
C     8.597855614200000e+00   5.123130307181286e+00   3.850009500000000e+00  1.76711750e-01  -1.28132561e+00  -4.87282900e-01
C     9.829366951999999e+00   4.107613286408632e+00  -4.282973999999982e-01  2.42665493e+00   1.61282723e+00  -6.00051100e-02
C     1.111324371450000e+01   4.856826663654566e+00  -4.306164000000017e-01 -5.70074000e-01  -7.52419520e-01   4.04949070e-01
C     9.841785967100000e+00   4.405976303222094e+00   3.840958200000000e+00 -7.61710080e-01  -1.24139965e+00  -9.19607400e-02
C     1.106357657740000e+01   5.103492632439802e+00   3.764785499999999e+00  6.81348830e-01  -3.03591800e-02   4.05374700e-01
C     3.742898595200000e+00   6.270459934008670e+00  -4.027041000000011e-01  3.35565800e-02   5.21492970e-01   4.76570670e-01
C     4.959926874800000e+00   6.976450291836626e+00  -4.029747000000015e-01  5.35915190e-01   1.65625572e+00  -6.10285840e-01
C     1.349905396260000e+01   6.540199419182229e+00   3.809372100000000e+00  1.34043194e+00   4.03069060e-01  -3.68308040e-01
C     4.904146340500000e+00   7.243423223004768e+00   3.861275400000000e+00 -5.45229690e-01  -1.08415050e+00   5.52244100e-02
C     6.182136781600000e+00   6.277833198777941e+00  -4.650227999999998e-01  1.16513695e+00  -8.17229300e-01   5.71882500e-01
C     7.435578435600000e+00   6.992306209616729e+00  -4.425561000000009e-01 -1.19030489e+00   7.59879280e-01  -9.84122000e-02
C     6.114514978899999e+00   6.525385346070791e+00   3.881327100000000e+00  1.97740875e+00   3.15571290e-01  -3.10681260e-01
C     7.383831134299999e+00   7.266462839521485e+00   3.847329900000000e+00 -1.31705195e+00  -1.28052837e+00   1.28356370e-01
C     8.669097910300000e+00   6.308518389108134e+00  -3.998418000000008e-01 -9.94539970e-01  -2.19117957e+00   1.19035030e-01
C     9.887690429599999e+00   6.989515831772073e+00  -3.713307000000015e-01  5.00670270e-01   8.48338690e-01  -4.72896070e-01
C     8.608091871799999e+00   6.533047485564600e+00   3.849125700000001e+00 -8.75075750e-01   2.29389330e-01  -2.25297760e-01
C     9.821949323300000e+00   7.236082577255532e+00   3.813575400000000e+00  7.88023150e-01  -2.27608400e-01   4.63717890e-01
C     1.109493187040000e+01   6.263565366166908e+00  -4.096043999999992e-01  2.08935048e+00   1.08126831e+00   4.31683010e-01
C     1.240186244680000e+01   7.019786282363254e+00  -3.850533000000027e-01 -2.56461258e+00  -2.82463280e+00  -3.14657730e-01
C     1.105798295010000e+01   6.520841226253754e+00   3.852052800000000e+00 -4.13279200e-02   5.13184000e-02  -1.15126801e+00
C     1.228669025180000e+01   7.222279864545346e+00   3.767323800000000e+00 -8.21289060e-01   1.91617698e+00   7.11383780e-01
