64
Lattice="9.86 0 0 4.93 8.53901048131456 0 0 0 30 " PBC="1 1 1" Properties=species:S:1:pos:R:3:force:R:3 Energy="-515.32078616"
C     4.920062056700000e+00   8.391103120042043e+00  -4.918890000000005e-01  2.26040240e+00   1.61599273e+00  -9.63895400e-02
C     1.256270586600000e+00   5.710541817396416e-01  -4.782224999999976e-01 -5.27539660e-01   8.49831400e-01  -6.19430170e-01
C     9.805501561500000e+00   1.335703613620376e-01   3.863784300000000e+00  1.71836670e+00  -9.35061310e-01   1.62480360e-01
C     1.218772316400000e+00   8.309024187335872e-01   3.896617800000000e+00 -9.31588410e-01   1.43073949e+00  -2.31437690e-01
C     7.430109931700001e+00   8.413157163969158e+00  -5.108609999999985e-01 -1.03927870e+00   2.87877930e-01   4.68973400e-02
C     3.715079541900000e+00   6.073607734490296e-01  -5.295218999999989e-01  3.88516690e-01  -1.44380155e+00   8.77806770e-01
C     2.453076647100000e+00   1.368209918715640e-01   3.841885800000000e+00 -7.56090480e-01  -5.58703090e-01   1.39831460e-01
C     3.686076056100000e+00   8.330372567436920e-01   3.821588700000000e+00 -4.41506630e-01   9.52279330e-01  -1.49194300e-02
C     9.866317252700000e+00   8.408022315407115e+00  -4.214775000000017e-01  1.46785274e+00   5.44213910e-01  -1.33119160e-01
C     6.215105466400000e+00   5.857566499841056e-01  -3.994208999999991e-01 -1.63867232e+00  -1.33916926e+00  -6.49397680e-01
C     4.917958376400000e+00   1.683932146104208e-01   3.780151800000000e+00 -2.10640160e-01  -1.89632596e+00   4.75091300e-01
C     6.140259340299998e+00   8.732607779503607e-01   3.805934100000000e+00 -7.02229360e-01  -5.07390990e-01   2.36517410e-01
C     1.236627016390000e+01   8.438039498947459e+00  -4.579584000000025e-01 -8.65957720e-01  -1.94081222e+00   6.45779690e-01
C     8.647561994100000e+00   5.904497755340185e-01  -5.229642000000005e-01  3.62942180e-01  -3.70669170e-01   4.41934990e-01
C     7.345535535200000e+00   1.100319812431840e-01   3.796699800000000e+00  1.59460050e-01   1.67881035e+00   4.77768270e-01
C     8.572359379699998e+00   8.202678496916904e-01   3.878608200000000e+00  7.80843230e-01  -4.16647970e-01  -4.14039170e-01
C     1.246258989100000e+00   2.018622845982943e+00  -4.941789000000014e-01  1.75048191e+00  -6.28880600e-01   1.18062152e+00
C     2.535750972300000e+00   2.756341263491015e+00  -3.242094000000009e-01 -2.30806749e+00  -3.03179475e+00  -1.41794887e+00
C     1.108613113020000e+01   2.302415919994591e+00   3.897508500000000e+00 -1.53621015e+00  -2.09345350e+00  -1.66185520e-01
C     2.432915165600000e+00   2.983908198315845e+00   3.839940300000000e+00  7.29976720e-01  -4.78092520e-01  -1.01440270e-01
C     3.733328331300000e+00   2.003350825739463e+00  -4.374927000000000e-01  6.36470650e-01   1.04855266e+00   1.87865900e-01
C     4.997398572300000e+00   2.687558850953776e+00  -4.406390999999985e-01 -1.03819913e+00   2.02435390e-01   2.16549860e-01
C     3.672565489700000e+00   2.256492694682626e+00   3.843980100000000e+00 -1.01606805e+00   5.91693240e-01  -8.03677700e-02
C     4.853396131700000e+00   3.002739705077913e+00   3.856165200000000e+00  1.88654634e+00   4.03703150e-01   7.45677100e-02
C     6.204862799800000e+00   1.963063347344299e+00  -4.667451000000007e-01  1.08401709e+00   2.02751846e+00  -1.72177500e-02
C     7.461243473300000e+00   2.697699096678986e+00  -5.093753999999997e-01 -1.86086266e+00   7.41108320e-01   2.61819580e-01
C     6.091422464499999e+00   2.290577521255223e+00   3.898058400000000e+00  1.23845847e+00  -3.80267710e-01  -9.93712940e-01
C     7.366704659400000e+00   2.938918201459240e+00   3.824811000000000e+00 -4.76330240e-01   1.22171818e+00   5.67261120e-01
C     8.670772089000000e+00   2.006139751952336e+00  -5.030241000000011e-01 -5.24524290e-01  -7.68513610e-01  -2.69018110e-01
C     9.872933608499999e+00   2.696547696505863e+00  -4.729494000000010e-01  1.12574839e+00   1.49181891e+00   7.70360600e-02
C     8.600271412800000e+00   2.213900025018282e+00   3.875002200000000e+00 -8.85485500e-02   2.29746497e+00  -1.06714660e-01
C     9.833465655400000e+00   3.000356552643050e+00   3.886661700000000e+00 -6.59227200e-02  -2.01753425e+00   1.64993160e-01
C     2.484459301600000e+00   4.126997010978442e+00  -3.199427999999997e-01  9.33255970e-01   1.49984632e+00   2.13077880e-01
C     3.734376794400000e+00   4.831836651754112e+00  -3.527538000000021e-01  7.27048400e-02   1.04456452e+00   5.21946970e-01
C     1.226959927290000e+01   4.380969981811623e+00   3.764491500000001e+00  1.66032070e+00   1.44870754e+00   4.44077290e-01
C     3.658222837900000e+00   5.123219027500173e+00   3.793009500000000e+00 -1.28059350e-01   3.98954000e-02  -4.97887900e-02
C     4.982904816000000e+00   4.109925992007035e+00  -3.968223000000002e-01 -1.61832755e+00   1.63956590e-01  -1.68121230e-01
C     6.167664520100000e+00   4.836655471538291e+00  -4.536810000000031e-01  1.83052524e+00   6.96832300e-02  -3.09781020e-01
C     4.907062632700001e+00   4.450813451791107e+00   3.833089200000000e+00 -8.35995360e-01  -1.30579707e+00  -2.39539140e-01
C     6.146981346000000e+00   5.140774293755901e+00   3.806933100000000e+00  4.47571190e-01  -1.42482879e+00   4.32015420e-01
C     7.415824073500000e+00   4.133612267787402e+00  -4.934352000000004e-01  2.77058220e-01  -9.79428700e-02   1.69807160e-01
C     8.641535019799999e+00   4.878231145054467e+00  -4.451111999999995e-01  8.75995500e-02  -1.62960413e+00   1.44957060e-01
C     7.375791931199999e+00   4.380988340684155e+00   3.808249200000000e+00 -1.20559140e-01  -1.51753530e-01   2.97011700e-02
C     8.612565550999999e+00   5.082156719294055e+00   3.819659100000000e+00 -1.11848619e+00   1.43323639e+00   1.92741780e-01
C     9.873737987300000e+00   4.132503904227098e+00  -3.996624000000004e-01 -3.55511850e-01   6.71966800e-02  -7.65775000e-02
C     1.110268266850000e+01   4.818058702174318e+00  -3.213501000000001e-01  5.43184650e-01   1.11552327e+00  -2.25125670e-01
C     9.835624058699999e+00   4.399562140109937e+00   3.890156100000000e+00  1.46881780e-01   2.56331600e-01  -8.27435990e-01
C     1.106731657400000e+01   5.110343822108325e+00   3.789709800000000e+00 -4.90780610e-01  -8.35373300e-02   3.90358810e-01
C     3.737563398499999e+00   6.291247215731078e+00  -3.054716999999982e-01  7.21417700e-02  -1.12433190e+00  -1.06834216e+00
C     4.985999229099999e+00   7.007361765944540e+00  -4.608254999999986e-01 -1.35850310e+00  -2.11712282e+00   3.49195650e-01
C     1.354263797270000e+01   6.546673782318270e+00   3.808756500000000e+00 -1.07177271e+00  -4.43745070e-01  -1.02413210e-01
C     4.912116572900000e+00   7.224734744668241e+00   3.821494800000000e+00 -1.33350880e-01   1.58316875e+00   4.54629500e-01
C     6.210956378400001e+00   6.252304460706304e+00  -5.241480000000003e-01 -1.29110592e+00   1.11529515e+00   7.05199030e-01
C     7.407965160499999e+00   6.996072852529561e+00  -4.973847000000013e-01  1.25953990e+00  -7.00723660e-01   5.42871600e-02
C     6.161342978299999e+00   6.545319666036351e+00   3.871172700000000e+00 -2.09130798e+00  -4.82456130e-01  -7.19731900e-01
C     7.335272557000000e+00   7.245170389939082e+00   3.838039200000000e+00  2.50386134e+00   8.80781270e-01  -8.57437100e-02
C     8.642823968300000e+00   6.274663261917451e+00  -4.075664999999979e-01  7.90660090e-01   1.17738375e+00  -3.68412330e-01
C     9.905862557500001e+00   6.994133472469343e+00  -3.732882000000011e-01 -9.48144220e-01  -7.09934860e-01  -1.97675670e-01
C     8.565295872900000e+00   6.528006480727733e+00   3.806163300000000e+00  1.44919371e+00   5.36549700e-02   2.61708420e-01
C     9.821761293100000e+00   7.258119372381477e+00   3.829739100000000e+00 -2.57676600e-02  -2.85688510e-01  -6.33739740e-01
C     1.115077802300000e+01   6.260952770520448e+00  -3.506400000000021e-01 -2.14725688e+00  -2.69158630e-01   4.09863810e-01
C     1.233295361830000e+01   6.980729104598049e+00  -3.405251999999983e-01  2.38023145e+00   1.01929986e+00  -2.43109830e-01
C     1.106432790940000e+01   6.528444617355460e+00   3.798767100000000e+00 -4.30983950e-01   6.70723460e-01   1.08625080e-01
C     1.229025602220000e+01   7.262544373002318e+00   3.816710700000000e+00  1.32732490e-01  -1.42484151e+00  -4.50983530e-01
