64
Lattice="9.86 0 0 4.93 8.53901048131456 0 0 0 30 " PBC="1 1 1" Properties=species:S:1:pos:R:3:force:R:3 Energy="-514.60393557"
C     4.962759356999999e+00   7.203855753973278e+00  -1.764659999999978e-01  1.83239450e+00   2.36618300e-02   5.84341000e-02
C     6.227360411099999e+00   7.897783990987291e+00  -1.186262999999990e-01 -6.91045640e-01   5.79964400e-01   2.09468310e-01
C     9.776486588799999e+00   1.350719292769246e+00   3.333526500000000e+00  7.08832740e-01  -5.68690360e-01   1.13508694e+00
C     1.102587090210000e+01   2.054415816211959e+00   3.419567100000000e+00  3.30824190e-01   5.56672590e-01  -7.36780300e-02
C     7.449836439299999e+00   7.176879568235177e+00  -2.460579000000003e-01  2.71336730e-01   1.47465091e+00   5.10080120e-01
C     8.691176816700001e+00   7.936264700154991e+00  -1.434885000000001e-01 -6.75822880e-01  -5.91077950e-01  -5.57863510e-01
C     2.419034306900000e+00   1.335648366222570e+00   3.398691000000000e+00 -1.24729326e+00  -4.94245010e-01   3.76631680e-01
C     3.650341394800000e+00   2.004904327916090e+00   3.526123500000000e+00 -1.88137730e-01   1.97565346e+00   1.23097970e-01
C     9.905903821599999e+00   7.212150377973341e+00  -1.625067000000016e-01  8.12720760e-01  -1.14718239e+00   4.95370240e-01
C     1.115573153910000e+01   7.913935529310210e+00  -5.580540000000056e-02 -1.60029295e+00   8.52683390e-01  -8.20210120e-01
C     4.912882990699999e+00   1.360211854549548e+00   3.492576300000000e+00 -1.47011744e+00  -1.53320788e+00  -1.98006200e-02
C     6.114640940399999e+00   2.061786433887981e+00   3.397281000000000e+00  7.75830850e-01  -1.34822216e+00   8.29757690e-01
C     1.238216709680000e+01   7.249551243875740e+00  -6.926610000000011e-02  8.21098000e-02  -1.60366534e+00   1.89149400e-02
C     1.361660670670000e+01   7.923867764740128e+00  -1.360773000000002e-01 -4.35718030e-01  -4.17375210e-01   5.11992510e-01
C     7.340546670999998e+00   1.281491997786000e+00   3.481944600000000e+00 -1.78035210e-01   2.98096702e+00  -4.07178860e-01
C     8.538791256200000e+00   2.054387381307061e+00   3.370790700000000e+00  1.31574224e+00  -4.21926890e-01   1.71300160e-01
C     1.292621695100000e+00   7.892456246178504e-01   1.322229000000000e-01 -2.74437100e-02  -1.07546246e+00  -1.32615788e+00
C     2.518020079400000e+00   1.515301547002443e+00   7.579619999999999e-02  1.04606630e-01   5.68364060e-01  -3.78899000e-02
C     1.104172474680000e+01   3.489661322090944e+00   3.574764900000000e+00 -5.95762200e-02  -7.34858880e-01  -2.34586380e-01
C     2.425065964700000e+00   4.166502999134476e+00   3.680455500000000e+00 -1.05856755e+00   3.39520010e-01   2.13752720e-01
C     3.734596721700000e+00   8.273635966203609e-01  -1.144512000000013e-01  1.44814078e+00   8.34402700e-02   2.37731300e-02
C     5.019192919100000e+00   1.575613858874255e+00  -2.604681000000006e-01 -2.30061428e+00  -3.87485374e+00   1.17491764e+00
C     3.620333668000000e+00   3.456373355976341e+00   3.682615200000000e+00  1.28574682e+00  -1.48587682e+00  -4.46710930e-01
C     4.861508298800000e+00   4.136666928006413e+00   3.675915600000000e+00  1.13059120e+00   2.41768302e+00  -1.58705768e+00
C     6.203169147600000e+00   8.003073149639568e-01  -1.449957000000026e-01  1.07031289e+00   2.95879300e-01  -5.73176910e-01
C     7.461808155500000e+00   1.481994368114260e+00  -1.547105999999978e-01 -1.31329991e+00   1.63710066e+00   4.01302200e-01
C     6.087737733200000e+00   3.463735690812197e+00   3.399321600000000e+00  1.41838179e+00   4.88218810e-01   6.48451270e-01
C     7.369003124000001e+00   4.172848423212269e+00   3.347434800000000e+00 -1.58382946e+00   1.22471191e+00  -4.89228680e-01
C     8.664863730499999e+00   7.820033482693433e-01  -7.405800000000085e-02  1.20920350e+00   4.00084750e-01   1.24123280e-01
C     9.903835095000000e+00   1.468878191846666e+00   7.107329999999999e-02  2.61242130e-01   4.90232890e-01  -2.22489260e-01
C     8.607374507499999e+00   3.491398071432471e+00   3.366762900000000e+00 -1.00732793e+00  -5.70466810e-01   3.54097440e-01
C     9.824140856200000e+00   4.223634871162907e+00   3.550217100000000e+00 -7.13154490e-01  -9.04746290e-01  -4.82820960e-01
C     2.531228141000000e+00   2.967074222275363e+00   1.260192000000000e-01 -7.14570750e-01  -1.84175521e+00  -3.07903360e-01
C     3.740677482300000e+00   3.638309697378356e+00   1.475400000000000e-03  1.71207705e+00   1.85510181e+00  -6.61632000e-01
C     1.227576335050000e+01   5.581039099066632e+00   3.733254300000000e+00 -1.10841005e+00   3.67171370e-01   4.04511560e-01
C     1.347628949040000e+01   6.303670707468534e+00   3.680917200000000e+00  2.13537582e+00  -2.14009000e-01  -1.39366130e-01
C     4.979526780000000e+00   2.931019275204821e+00  -2.481711000000004e-01  9.77508800e-02   2.29413983e+00   6.33553610e-01
C     6.236153756299999e+00   3.638862000576202e+00  -2.999988000000009e-01 -1.69564066e+00  -2.53067730e-01   2.60588040e-01
C     4.909615682500000e+00   5.622380889085760e+00   3.576915300000000e+00 -1.98013188e+00  -1.39258788e+00  -9.00658000e-03
C     6.091106599400000e+00   6.352515384436021e+00   3.306573900000000e+00  6.46536860e-01  -1.64389122e+00   6.27168310e-01
C     7.434815074399999e+00   2.944075251448531e+00  -1.639626000000014e-01  1.66576897e+00  -1.11705541e+00  -3.47504440e-01
C     8.678708452300000e+00   3.658661745736597e+00  -8.447190000000049e-02  6.56886420e-01  -1.79339624e+00  -2.19920830e-01
C     7.345906764200000e+00   5.617858543745448e+00   3.252165600000000e+00 -1.10646847e+00  -8.54910870e-01   9.46202360e-01
C     8.547998622799998e+00   6.319707652270813e+00   3.409447500000000e+00  3.89657030e-01   7.60262580e-01   1.57929410e-01
C     9.918610107799999e+00   2.876374902319319e+00   1.952850000000000e-02 -6.84827120e-01   2.33546825e+00   4.72842530e-01
C     1.114396850980000e+01   3.636496609283137e+00   1.004193000000000e-01  2.67102940e-01  -5.70602300e-02   7.85799400e-02
C     9.768887831899999e+00   5.640758035100188e+00   3.625632000000000e+00  9.11639680e-01  -9.33360600e-01  -3.07312110e-01
C     1.101680818170000e+01   6.301901851447602e+00   3.764808900000000e+00  6.05489100e-01   4.57184400e-01  -8.76637300e-01
C     3.797631455199999e+00   5.112454323938561e+00  -3.181500000000170e-03 -2.42639677e+00  -1.88335455e+00  -5.02141780e-01
C     4.995945898500000e+00   5.776435397298166e+00  -2.028266999999992e-01  1.03772440e-01   4.77118720e-01  -1.47434770e-01
C     1.349785799390000e+01   7.711478152532555e+00   3.625648500000000e+00  1.30457186e+00   1.16681245e+00   1.14707700e-02
C     4.890989846700000e+00   8.451271549587267e+00   3.455716800000000e+00 -2.42641547e+00   5.02743460e-01  -4.07125790e-01
C     6.194241114799999e+00   5.031605777252454e+00  -3.501212999999979e-01  1.96621820e+00   2.07731777e+00   5.11268270e-01
C     7.449630316000000e+00   5.781338240945467e+00  -3.487548000000018e-01  3.13226230e-01  -1.46885663e+00   7.15422260e-01
C     6.091249668000000e+00   7.767583635501290e+00   3.325992600000000e+00 -6.75339290e-01  -1.22763030e+00   8.49873000e-02
C     7.287966446200000e+00   8.439554746357135e+00   3.343580700000000e+00  2.42421043e+00   1.56172386e+00  -1.06076040e-01
C     8.725023978199999e+00   5.068887609348764e+00  -1.741530000000004e-01 -2.89340360e+00  -7.11387470e-01  -7.71053180e-01
C     9.913980887099999e+00   5.736304438965099e+00  -1.500273000000014e-01  2.36640434e+00   2.71527922e+00   8.10071050e-01
C     8.517661374799999e+00   7.737346999391610e+00   3.432242100000000e+00  2.00961577e+00   9.57279840e-01   1.02140800e-02
C     9.812814822100000e+00   8.468595323268881e+00   3.541197600000000e+00 -6.73435860e-01  -1.22780475e+00  -2.65581480e-01
C     1.118812139260000e+01   5.058018473688981e+00   4.428780000000000e-02 -1.69199360e+00   6.46921790e-01  -7.34719250e-01
C     1.239103730070000e+01   5.825033638423199e+00  -7.385700000000384e-03  8.20269550e-01  -1.08052380e+00   4.86777490e-01
C     1.104449170930000e+01   7.717458875472746e+00   3.646704300000000e+00 -3.74967790e-01   9.69391680e-01   7.51542410e-01
C     1.230015728630000e+01   8.445572784773123e+00   3.700425000000000e+00 -1.46881096e+00  -1.09091900e+00  -1.23659055e+00
