64
Lattice="9.86 0 0 4.93 8.53901048131456 0 0 0 30 " PBC="1 1 1" Properties=species:S:1:pos:R:3:force:R:3 Energy="-515.63802374"
C     5.006080105100000e+00   7.228012187670674e+00  -2.162828999999995e-01 -1.22318810e+00   1.18296733e+00   3.83368200e-01
C     6.216680354900000e+00   7.953074425405710e+00  -1.565181000000031e-01  5.41692100e-01   4.80377910e-01  -2.87603180e-01
C     9.815443941800000e+00   1.273377888467485e+00   3.439909500000000e+00 -1.04589738e+00  -2.87331780e-01  -3.21536060e-01
C     1.101551016200000e+01   2.003009009149949e+00   3.435777900000000e+00  8.41135090e-01   3.83570920e-01   5.86102110e-01
C     7.452306615800000e+00   7.240281806439282e+00  -2.445699000000019e-01  1.16100250e-01   6.32416280e-01  -4.63610000e-02
C     8.679831210500000e+00   7.948402561991892e+00  -2.330787000000001e-01 -1.23085150e-01   1.12584579e+00   7.32243980e-01
C     2.380993046500000e+00   1.310135169150007e+00   3.419293800000000e+00  1.37573342e+00  -1.06860236e+00  -1.82698310e-01
C     3.649761183100000e+00   1.993810018549950e+00   3.535246200000000e+00 -9.69825600e-01   6.76151940e-01  -1.41170620e-01
C     9.915213436399998e+00   7.283461191513707e+00  -1.704903000000009e-01 -3.39021500e-02  -1.45660295e+00  -5.51318530e-01
C     1.116190380050000e+01   7.985202110776290e+00  -2.018219999999999e-01 -8.11686500e-01  -1.35580800e+00   3.45380360e-01
C     4.880878120899999e+00   1.284817515417436e+00   3.506361600000000e+00 -6.69638620e-01   4.05709350e-01   1.89216010e-01
C     6.079997781099999e+00   2.023504598274359e+00   3.498207000000000e+00  1.84667603e+00  -1.23024689e+00   9.47278000e-03
C     1.234967243150000e+01   7.226499075013619e+00  -1.310429999999982e-01  1.76226332e+00   3.13466680e-01   1.19562500e-01
C     1.361474863900000e+01   7.940689871556041e+00  -1.470938999999980e-01 -3.04954050e-01   4.21173310e-01  -6.26337300e-02
C     7.343865201899999e+00   1.311552132549058e+00   3.510460800000000e+00 -4.12940780e-01  -1.08394560e-01   1.31536820e-01
C     8.592996507599999e+00   1.998802009466662e+00   3.474826200000000e+00 -9.62081950e-01   1.38475030e-01  -1.58229750e-01
C     1.306281640500000e+00   8.579713381255016e-01  -2.905379999999980e-02 -2.31316000e-01  -1.14818182e+00   3.34230810e-01
C     2.529286016800000e+00   1.553639313134709e+00   7.202159999999999e-02  4.32399890e-01  -2.49690920e-01  -7.75224660e-01
C     1.103264201060000e+01   3.424332426952237e+00   3.630741900000000e+00 -9.54222180e-01  -3.75095130e-01  -4.55221900e-02
C     2.385680096100000e+00   4.123067443745651e+00   3.788481000000000e+00  1.79574765e+00   1.69545500e-02  -4.61075430e-01
C     3.743339682300000e+00   8.290719110569895e-01  -1.061222999999991e-01  7.71111130e-01   5.94663440e-01  -1.23637600e-02
C     4.996983614199999e+00   1.554269662888342e+00  -1.749234000000008e-01 -1.07615332e+00  -5.43560600e-01  -9.60211100e-02
C     3.663472449800000e+00   3.433629872343070e+00   3.665444400000000e+00 -9.75676940e-01  -1.48604817e+00  -3.78642000e-01
C     4.904985968800000e+00   4.091263130701947e+00   3.531558300000000e+00 -1.94339394e+00   3.08002418e+00   7.64192580e-01
C     6.230552438200000e+00   8.437729276696719e-01  -2.557155000000009e-01 -9.54153500e-02   7.27561490e-01   5.99455350e-01
C     7.451894171999999e+00   1.545774372142000e+00  -1.765878000000001e-01  6.53450880e-01   1.22792478e+00  -4.29706810e-01
C     6.112621365899999e+00   3.419757993647996e+00   3.461632500000000e+00  5.35309150e-01   2.98401290e-01  -5.53578720e-01
C     7.347440043500000e+00   4.135367717561881e+00   3.363396300000000e+00 -1.93729520e-01   6.04720930e-01   6.90361820e-01
C     8.686379236499999e+00   8.528298291352840e-01  -1.149768000000009e-01  8.23979760e-01  -8.49760040e-01   5.24167600e-02
C     9.957322242599998e+00   1.572825957342640e+00  -7.787699999997955e-03 -2.14924093e+00  -6.39355900e-01  -2.56077700e-02
C     8.550211551899999e+00   3.430265416823846e+00   3.455680800000000e+00  1.42098657e+00  -7.59749760e-01   3.66107600e-02
C     9.784794476900000e+00   4.124266491597252e+00   3.601792800000000e+00  3.74087470e-01   1.26863319e+00   3.04209300e-02
C     2.525487649000000e+00   2.973625521895829e+00   1.093338000000000e-01 -8.37232140e-01   1.85657720e-01  -1.09425110e-01
C     3.726730906700000e+00   3.680513073554918e+00  -4.789859999999990e-02  1.49999713e+00   4.50910620e-01  -4.18198000e-03
C     1.228249038480000e+01   5.537593040694915e+00   3.878996400000000e+00 -4.35689660e-01   8.86837890e-01  -4.23055260e-01
C     3.644551800000000e+00   6.293401522685077e+00   3.771133800000000e+00 -6.38271800e-02  -1.92583042e+00  -3.74035540e-01
C     4.953474688000000e+00   2.963189655627801e+00  -1.777532999999991e-01  1.68980081e+00   9.98090480e-01  -8.57336800e-02
C     6.234146013799999e+00   3.702834986240791e+00  -2.945700000000002e-01 -1.49473004e+00  -3.46107100e-01   1.23724450e-01
C     4.853451643500000e+00   5.562638043822860e+00   3.560733900000000e+00  1.35227855e+00  -7.22687750e-01  -1.30314940e-01
C     6.101236418300000e+00   6.259964721617807e+00   3.376476900000000e+00  3.59866780e-01  -6.53352050e-01   1.09895410e-01
C     7.467253537700000e+00   3.000144187452412e+00  -2.516268000000004e-01 -1.05275980e+00  -1.19898212e+00   2.32065080e-01
C     8.671252813300001e+00   3.703528268501661e+00  -1.863221999999993e-01  1.53972416e+00  -9.38806860e-01   4.55766020e-01
C     7.386326897500000e+00   5.568837877771968e+00   3.364375800000000e+00 -2.21899809e+00  -4.91642520e-01  -7.16633700e-02
C     8.580243485000000e+00   6.304105855442595e+00   3.460105200000000e+00  7.01886170e-01  -1.19672859e+00   1.14926010e-01
C     9.907015832399999e+00   2.983424890322677e+00   5.963670000000000e-02  2.46972400e-01   5.26251050e-01  -8.28077740e-01
C     1.114611276400000e+01   3.689333785990653e+00   1.121856000000000e-01 -4.22699300e-01   5.02928350e-01  -4.52863130e-01
C     9.798557409999999e+00   5.573105248259349e+00   3.676677900000000e+00  6.18756580e-01  -5.04698510e-01  -4.40396650e-01
C     1.106122289680000e+01   6.262930576127825e+00   3.809003100000000e+00 -1.36827186e+00   6.53091960e-01   6.47303700e-02
C     3.771631276100000e+00   5.112809461384424e+00  -9.143219999999985e-02 -1.36664008e+00  -6.19341080e-01   7.00579700e-02
C     4.980807988400000e+00   5.824084698188557e+00  -2.596685999999977e-01  5.46797010e-01  -4.47508320e-01   2.56482300e-01
C     1.348269203210000e+01   7.688220962028807e+00   3.668926800000000e+00  2.06746980e-01   1.24669546e+00  -7.21154030e-01
C     4.849800978499999e+00   8.372209363893575e+00   3.410717100000000e+00  6.82799060e-01   6.11171480e-01   6.11272900e-01
C     6.217064648400000e+00   5.128605862261481e+00  -3.406911000000008e-01  9.99527170e-01  -3.56907450e-01   2.49942720e-01
C     7.488125432200000e+00   5.845532130811173e+00  -3.336380999999982e-01 -1.69857301e+00  -1.44359643e+00  -7.12209600e-02
C     6.097648709400000e+00   7.663862324563245e+00   3.317713200000000e+00 -1.00298590e-01   1.07354255e+00   1.31319200e-01
C     7.335262844899999e+00   8.406959891723194e+00   3.290425800000000e+00 -4.51121550e-01   3.49934090e-01   4.98277060e-01
C     8.706237572300001e+00   5.099612591467794e+00  -2.867531999999997e-01 -1.09202914e+00   1.22794285e+00   5.82216760e-01
C     9.884563084100000e+00   5.836805347490718e+00  -1.397574000000006e-01  2.21503240e+00   5.02399340e-01  -1.61633490e-01
C     8.571550268099999e+00   7.702169094087468e+00   3.393666900000000e+00 -5.31188200e-02   9.37734330e-01   4.15501190e-01
C     9.801135849300000e+00   8.409101646331786e+00   3.557876400000000e+00 -2.48365360e-01  -1.83340680e-01  -1.07496280e-01
C     1.113926238110000e+01   5.127837436708386e+00  -2.946749999999909e-02 -8.67421120e-01  -1.33575169e+00   6.68074440e-01
C     1.236526266910000e+01   5.786045541252776e+00  -1.166130000000010e-02  9.09593040e-01   1.93846032e+00  -8.00321220e-01
C     1.101269853370000e+01   7.718741264066632e+00   3.761082900000000e+00  1.28537168e+00  -8.30284650e-01  -8.23342250e-01
C     1.225693055330000e+01   8.440523497096091e+00   3.647405700000000e+00 -2.08796810e-01  -8.60823730e-01   5.52505610e-01
