64
Lattice="9.86 0 0 4.93 8.53901048131456 0 0 0 30 " PBC="1 1 1" Properties=species:S:1:pos:R:3:force:R:3 Energy="-516.29597585"
C     4.994544299499999e+00   7.819982504800866e+00  -1.302725999999979e-01 -1.09835626e+00   1.09207854e+00   1.19714110e-01
C     1.279914817300000e+00   3.872159465334160e-02  -1.229165999999999e-01 -1.01579390e-01  -1.21662142e+00   2.06032900e-01
C     9.824832091499999e+00   6.896758097949720e-01   3.528708300000000e+00 -1.21290465e+00  -3.40327030e-01  -4.76449390e-01
C     1.173677458500000e+00   1.395873665577591e+00   3.481776600000000e+00  1.61930126e+00  -2.12219850e-01   2.36725750e-01
C     7.426396754299999e+00   7.851209495346017e+00  -1.140726000000001e-01  9.95327350e-01   1.35230446e+00   5.14876000e-02
C     3.741693851100000e+00   4.310876745775601e-02  -9.406740000000013e-02 -5.94381870e-01  -7.87433450e-01   5.59950580e-01
C     2.425594707200000e+00   6.795187422191168e-01   3.428195700000000e+00  2.13257520e-01  -9.18868600e-02  -1.93771790e-01
C     3.672459297500000e+00   1.383158566632242e+00   3.408099600000000e+00 -8.80913130e-01   8.83371800e-01   1.33806470e-01
C     9.895982098000001e+00   7.825756669077546e+00  -4.873830000000012e-02 -6.44589040e-01   1.84628759e+00  -4.09879320e-01
C     6.180737253199999e+00   6.241504320251200e-03  -7.695359999999951e-02  1.35668621e+00   3.63528820e-01  -9.14851300e-02
C     4.905462453300000e+00   6.961881715276488e-01   3.413079600000000e+00 -8.15806310e-01  -7.09723370e-01   3.25340800e-02
C     6.119771295600001e+00   1.421498979857757e+00   3.423258300000000e+00 -5.17441660e-01  -7.15394330e-01   2.29725240e-01
C     1.235622987380000e+01   7.861644080762472e+00  -1.056831000000003e-01  5.13792490e-01  -1.39982347e+00   7.07242580e-01
C     1.361442089260000e+01   8.531397952157080e+00  -1.089774000000006e-01 -4.13088330e-01   1.91886618e+00  -1.76374470e-01
C     7.325485225200000e+00   7.018007777260480e-01   3.458872200000000e+00  1.31818855e+00  -1.41632713e+00   4.94190000e-03
C     8.564377857599998e+00   1.365589125619118e+00   3.517752900000000e+00  6.00278300e-01   1.84924375e+00  -3.01823100e-01
C     1.293606561200000e+00   1.443408885287970e+00  -5.163269999999898e-02 -8.66177830e-01   1.14492163e+00  -6.48443330e-01
C     2.498091047400000e+00   2.176849087765352e+00  -3.077160000000134e-02  1.16229752e+00   3.98438500e-02   3.57686480e-01
C     1.105937818940000e+01   2.810382696846525e+00   3.539768100000000e+00 -3.51053910e-01  -2.23233340e-01   1.18091970e-01
C     2.421227417400000e+00   3.532197719676226e+00   3.536949600000000e+00  1.57898300e-01  -1.02241670e-01  -7.10484390e-01
C     3.725942057399999e+00   1.469003032179883e+00  -1.023029999999991e-02  8.16802550e-01  -1.05132191e+00  -5.64787220e-01
C     4.992479023900000e+00   2.126999625434684e+00  -2.621249999999975e-02 -6.91180740e-01   1.33933076e+00  -1.39778520e-01
C     3.652512369600000e+00   2.816304671394615e+00   3.429663900000000e+00  4.60629160e-01   2.55244070e-01   5.33863740e-01
C     4.895157767299999e+00   3.543142767139175e+00   3.451151100000000e+00 -1.02484244e+00   2.58061110e-01  -3.72277070e-01
C     6.227238689400000e+00   1.430203305580650e+00  -8.821890000000110e-02 -9.73408910e-01   1.71259140e-01   1.11749570e-01
C     7.434266661200000e+00   2.179137713354202e+00  -1.278927000000003e-01  7.73947160e-01  -6.74453120e-01   2.14088700e-01
C     6.109217200900000e+00   2.826326822604886e+00   3.458251200000000e+00  2.35931990e-01   3.29964390e-01  -1.28132200e-01
C     7.342032375800001e+00   3.522243795159690e+00   3.484594200000000e+00  4.96900900e-01  -2.55514370e-01  -4.63837800e-01
C     8.677313607400000e+00   1.471774111860853e+00  -1.089537000000007e-01  6.57829540e-01  -1.13595185e+00  -4.36458940e-01
C     9.931558309100000e+00   2.184685423072953e+00  -1.245620999999986e-01 -1.48264423e+00  -2.60783790e-01   8.20259000e-01
C     8.568378355399998e+00   2.816723253688344e+00   3.477089100000000e+00  5.22494870e-01  -1.51576621e+00   8.94934840e-01
C     9.819191826399999e+00   3.485977934530291e+00   3.578369100000000e+00 -4.86547600e-01   1.58151584e+00  -6.10231610e-01
C     2.536080986500000e+00   3.606824316376080e+00   6.656100000000000e-03 -1.64338994e+00  -1.29475107e+00  -5.41774300e-02
C     3.736236341100000e+00   4.311490102898378e+00   7.993500000000001e-03  1.05664410e+00  -1.05549643e+00   1.21261680e-01
C     1.226193839800000e+01   4.954911800725286e+00   3.489735600000000e+00  4.00037330e-01   6.71889900e-01   7.54352700e-02
C     3.636986468500000e+00   5.688631826576098e+00   3.455463600000000e+00  7.08041430e-01  -1.68469305e+00  -1.49702900e-01
C     4.967732888900000e+00   3.558829612511774e+00  -2.819129999999959e-02  5.80849170e-01   1.12366768e+00   4.51694480e-01
C     6.201962628700000e+00   4.309687517786050e+00   1.200900000000000e-03  2.32105200e-01  -3.61348020e-01  -9.02569920e-01
C     4.882194677399999e+00   4.979849639271707e+00   3.409751700000000e+00  5.40477850e-01  -4.35935220e-01   5.73698410e-01
C     6.147672827799999e+00   5.680074628003775e+00   3.419976600000000e+00 -9.43287490e-01  -8.16119640e-01  -5.44668410e-01
C     7.438667475000000e+00   3.600520391889221e+00  -1.089923999999982e-01 -3.53556620e-01   1.46514820e-01   5.49597430e-01
C     8.666884537500000e+00   4.324027419645533e+00  -8.300159999999934e-02 -2.25600080e-01  -1.08683320e-01   1.84138960e-01
C     7.379503038000001e+00   4.917566267610797e+00   3.423921600000000e+00 -1.49108372e+00   1.91231222e+00   5.39054530e-01
C     8.577278385800000e+00   5.662559409707200e+00   3.484053300000000e+00  8.67749630e-01  -1.58155624e+00  -4.32551230e-01
C     9.892025871600000e+00   3.626615949476520e+00  -4.681829999999820e-02  6.29250050e-01  -2.05171095e+00  -4.35356010e-01
C     1.114121397090000e+01   4.265579088371401e+00  -1.936199999999388e-03 -3.68376200e-02   2.21456389e+00  -1.25091100e-01
C     9.808918988199999e+00   4.924530342997866e+00   3.549972000000000e+00  2.14203740e-01   7.39742230e-01  -2.97999160e-01
C     1.103060084270000e+01   5.678829042545058e+00   3.476972700000000e+00 -1.64001650e-01  -9.07163650e-01   6.31677550e-01
C     3.729171207400000e+00   5.719503850455595e+00   2.294130000000000e-02  3.21734720e-01  -1.93241420e-01  -5.15032780e-01
C     4.949978627800000e+00   6.406501399613515e+00  -9.722550000000041e-02  1.99331356e+00   7.02668980e-01   5.55636820e-01
C     1.354779016780000e+01   7.076867688839748e+00   3.468933000000000e+00 -1.52469370e+00   1.78318064e+00  -2.11195510e-01
C     4.895451348800000e+00   7.816867388387657e+00   3.457268700000000e+00  6.50021710e-01  -7.88724750e-01  -7.99884600e-02
C     6.235120379000000e+00   5.745324281125229e+00  -5.278170000000060e-02 -2.16922283e+00  -1.44855302e+00  -6.67735000e-03
C     7.442128433600000e+00   6.448220443115652e+00  -8.165280000000052e-02 -2.89640700e-02  -3.28955500e-02   2.28936000e-03
C     6.125520563000000e+00   7.100851207574925e+00   3.371270100000000e+00  6.62787350e-01  -1.28242090e-01   5.89053010e-01
C     7.381392707000000e+00   7.790517197507845e+00   3.381071100000000e+00 -1.63139951e+00   5.98039320e-01  -1.07130350e-01
C     8.666876649499999e+00   5.745710500569239e+00  -5.086439999999826e-02 -6.29571590e-01  -8.80935740e-01  -3.08641220e-01
C     9.872954659600001e+00   6.432965330112922e+00  -6.748590000000121e-02  1.81830433e+00  -8.40552460e-01   3.24428320e-01
C     8.576142661700001e+00   7.061108518048385e+00   3.384809100000000e+00  7.25054420e-01   1.03013598e+00   6.55277680e-01
C     9.795115924899999e+00   7.799786720334409e+00   3.455481900000000e+00  5.79420150e-01   4.12079930e-01  -4.27365280e-01
C     1.112229184210000e+01   5.698434098266509e+00  -3.109440000000063e-02  2.92533540e-01   4.10383860e-01   3.40161730e-01
C     1.236799526950000e+01   6.413070033425255e+00   8.014500000000001e-03 -1.17923432e+00   9.75109970e-01  -6.49080200e-01
C     1.101787744940000e+01   7.104891696553851e+00   3.482747700000000e+00  1.87416652e+00  -3.35816090e-01  -3.86710960e-01
C     1.230912224480000e+01   7.804123427586886e+00   3.446385300000000e+00 -1.84393318e+00  -6.72545000e-02   4.34786830e-01
