64
Lattice="9.86 0 0 4.93 8.53901048131456 0 0 0 30 " PBC="1 1 1" Properties=species:S:1:pos:R:3:force:R:3 Energy="-515.37290791"
C     4.989126870400000e+00   6.763677790399130e+00  -1.645071000000016e-01 -1.14613470e-01   6.34133310e-01  -4.42113700e-02
C     6.199136900600000e+00   7.482336282614794e+00  -2.626685999999978e-01  1.71504231e+00  -4.77734620e-01   1.17269887e+00
C     9.837298237399999e+00   1.755638315829798e+00   3.722607600000000e+00 -3.05128653e+00   1.25727290e-01  -3.94631850e-01
C     1.099354188480000e+01   2.509854101585230e+00   3.695941800000000e+00  1.86699626e+00  -3.53351520e-01   3.75687450e-01
C     7.441726490699999e+00   6.760584021512121e+00  -1.481978999999995e-01  1.05214261e+00   9.75619800e-02  -6.13030770e-01
C     8.697762655799998e+00   7.460504423740368e+00  -1.139630999999994e-01  7.25110120e-01   1.47939300e-01  -7.90495330e-01
C     2.369515316300000e+00   1.795704292293111e+00   3.764297700000000e+00  4.78800190e-01  -7.74707030e-01  -5.68764200e-01
C     3.612913771500000e+00   2.463276104949660e+00   3.697821900000000e+00 -4.23923820e-01   1.53856119e+00  -2.64979010e-01
C     9.995330767799999e+00   6.802823346922803e+00  -1.906785000000006e-01 -2.91113357e+00  -1.84524992e+00   4.20383690e-01
C     1.119795891180000e+01   7.499231056409893e+00  -1.379403000000003e-01  4.74602260e-01  -9.03203940e-01   1.90329680e-01
C     4.827462754100000e+00   1.724985915299847e+00   3.646192800000000e+00  7.20666230e-01   1.75805210e+00  -1.14315523e+00
C     6.044319666900000e+00   2.501083598531118e+00   3.531933600000000e+00  7.62211520e-01  -2.00555250e-01   6.77011800e-02
C     1.239121754150000e+01   6.731432010513610e+00  -4.310279999999977e-02  1.68263262e+00   1.91949549e+00  -6.96787010e-01
C     1.363368540990000e+01   7.473355890683082e+00  -1.258134000000020e-01 -5.21141030e-01   4.50595810e-01   1.76414390e-01
C     7.313527017199999e+00   1.820992998780155e+00   3.552535800000000e+00 -3.91137300e-01  -2.21012229e+00  -2.42078160e-01
C     8.578763991999999e+00   2.456403823925251e+00   3.608234400000000e+00 -7.94939230e-01   1.65401239e+00   3.43487920e-01
C     1.327691250100000e+00   3.571810872413784e-01  -2.531162999999985e-01 -4.84710860e-01   5.53345480e-01  -8.25003620e-01
C     2.556812474600000e+00   1.071018027189510e+00  -3.126242999999995e-01  7.03137100e-01  -1.96938030e-01   9.89657960e-01
C     1.099922928070000e+01   3.917275071034926e+00   3.619139100000000e+00 -4.39960080e-01   2.33194970e-01  -8.04981100e-02
C     1.224319394640000e+01   4.630438112275977e+00   3.575571600000000e+00 -6.63048350e-01  -6.06409490e-01  -1.45994000e-02
C     3.802872094500000e+00   3.370611291879832e-01  -1.842030000000001e-01 -1.03311618e+00   4.59529060e-01  -3.98631060e-01
C     5.036535919599999e+00   1.033249471495842e+00  -2.070983999999996e-01 -1.14168100e-02   1.37804533e+00   2.89352590e-01
C     3.579116156500000e+00   3.926455361201974e+00   3.575841900000000e+00  2.64891783e+00  -1.38082220e+00   1.62970490e-01
C     4.857383417099999e+00   4.659612751652258e+00   3.491525700000000e+00 -2.71987979e+00  -9.57065560e-01   1.58514740e-01
C     6.298142048000000e+00   3.683483197570176e-01  -1.722713999999996e-01 -1.93294844e+00  -3.30580650e-01   3.35857780e-01
C     7.479235754799999e+00   1.083786409560255e+00  -1.423740000000002e-01  1.85778182e+00  -1.46858010e-01  -3.68388660e-01
C     6.059816628899999e+00   3.947246997819725e+00   3.468425400000000e+00 -6.46421600e-01  -1.92002008e+00   9.61642590e-01
C     7.271538700199999e+00   4.604075796001282e+00   3.610706700000000e+00  1.89195505e+00   1.16576500e+00  -6.50733310e-01
C     8.736379395100000e+00   3.813191620662424e-01  -1.833129000000007e-01 -1.38282972e+00  -1.43825105e+00   2.73422300e-02
C     9.945421863500000e+00   1.071145856176396e+00  -2.983323000000020e-01  3.06337500e-01   4.59770130e-01   3.25096740e-01
C     8.513942034899999e+00   3.914620634237113e+00   3.620542800000000e+00  8.13260210e-01  -1.65404001e+00  -1.28443330e-01
C     9.749620800300001e+00   4.602277395004089e+00   3.586058100000000e+00  5.07444940e-01   1.18154065e+00  -3.97270900e-02
C     2.560628343900000e+00   2.510179523274623e+00  -2.807118000000024e-01 -1.58290030e-01  -1.01436946e+00  -1.61780380e-01
C     3.778592288200000e+00   3.212818575659493e+00  -2.023614000000009e-01  9.77275280e-01  -2.62307770e-01  -5.76315700e-02
C     1.227090823720000e+01   6.031524075240664e+00   3.530154300000000e+00 -1.53189932e+00   1.29965666e+00  -3.24724610e-01
C     1.344211231470000e+01   6.805214867587937e+00   3.558258300000000e+00  1.38001948e+00  -1.95790774e+00   1.54221160e-01
C     5.004277697099999e+00   2.481783727044221e+00  -1.803323999999975e-01  4.92389260e-01  -2.89694120e-01  -4.04472500e-02
C     6.237635024099999e+00   3.202645967084564e+00  -1.446477000000002e-01  9.01747000e-03   5.78563340e-01  -3.06135280e-01
C     4.810169448000000e+00   6.055940863367595e+00   3.542930400000000e+00  1.28731099e+00   1.25681765e+00   3.90887560e-01
C     6.082004093900000e+00   6.743436151446395e+00   3.653860500000000e+00 -2.29648210e-01  -1.50294210e-01  -5.01687420e-01
C     7.482229645199999e+00   2.482632419295829e+00  -1.823565000000009e-01 -1.29160848e+00   9.15999590e-01  -1.18052800e-01
C     8.691248597500000e+00   3.188843681324902e+00  -3.038504999999994e-01  2.54511900e-01   7.09705740e-01   3.94434050e-01
C     7.327815241800000e+00   6.032743445937208e+00   3.632084700000000e+00 -7.71661570e-01   4.02272830e-01   1.72970160e-01
C     8.562972856900000e+00   6.772437021959409e+00   3.620842500000000e+00 -4.73530700e-01  -2.12967521e+00  -5.52565840e-01
C     9.895157161100000e+00   2.492207638697577e+00  -3.435626999999997e-01  3.25861868e+00   2.04782000e-02   1.00226540e-01
C     1.120752419640000e+01   3.207165067600894e+00  -3.115592999999990e-01 -2.74202179e+00   2.99020160e-01   2.03936810e-01
C     9.786028258700000e+00   6.038174512772802e+00   3.507798600000000e+00 -2.15666810e-01  -2.16297930e-01   5.78023800e-01
C     1.102734014070000e+01   6.729796960786900e+00   3.469801500000000e+00 -3.64915560e-01   6.22603760e-01  -8.81608000e-02
C     3.819557087900000e+00   4.632696765938040e+00  -1.615734000000018e-01 -1.37854548e+00  -3.87396270e-01   6.84304470e-01
C     5.004974552599999e+00   5.357864460452504e+00  -1.055486999999999e-01  1.13639948e+00  -2.79330540e-01  -5.50813320e-01
C     1.344797462700000e+01   8.203640160277162e+00   3.644421300000000e+00  1.01616589e+00  -7.50433000e-02  -2.98436680e-01
C     9.773800724799999e+00   3.390014485393536e-01   3.764400600000000e+00  6.54615800e-01   1.20950900e-02  -6.86988210e-01
C     6.234193095300000e+00   4.660934590474562e+00  -1.587651000000001e-01  6.87943850e-01  -1.73184172e+00   9.64997400e-02
C     7.489444650899999e+00   5.334336668706646e+00  -2.015996999999992e-01 -7.57936250e-01   2.46441440e-01   2.39357890e-01
C     6.076009706900000e+00   8.157270515497304e+00   3.704383500000000e+00  6.34839690e-01   8.72827570e-01   4.78387370e-01
C     2.396798478600000e+00   3.680892461790544e-01   3.713104800000000e+00 -9.83753760e-01  -1.03305777e+00   1.05917600e-01
C     8.715044327099999e+00   4.606910320530117e+00  -2.694003000000009e-01  2.72973100e-02   1.22201030e+00   2.16485800e-02
C     9.953898751999999e+00   5.340946118988480e+00  -2.565950999999984e-01  3.45230400e-02   6.91903220e-01   4.75436880e-01
C     8.555325194399998e+00   8.156301252417718e+00   3.613557300000000e+00 -9.13696800e-01   1.61472340e+00  -6.48618200e-02
C     4.835742097499999e+00   3.222415057197336e-01   3.488262000000000e+00  6.93525370e-01   2.14268710e-01   8.26555340e-01
C     1.117193304740000e+01   4.635521555994930e+00  -1.990943999999999e-01  1.68668222e+00  -5.75898830e-01  -3.20224410e-01
C     1.245554570980000e+01   5.339266324846855e+00  -9.094229999999826e-02 -2.22070574e+00  -8.02496040e-01  -4.10213740e-01
C     1.100639917690000e+01   8.171106274178047e+00   3.422645100000000e+00  5.92817260e-01  -6.17832880e-01   3.19679760e-01
C     7.316495666000000e+00   3.423205619129296e-01   3.499223400000000e+00 -1.48194690e+00   2.15057115e+00   4.65779520e-01
