64
Lattice="9.86 0 0 4.93 8.53901048131456 0 0 0 30 " PBC="1 1 1" Properties=species:S:1:pos:R:3:force:R:3 Energy="-512.71847626"
C     4.960881174899999e+00   8.184929395123280e+00   1.217469000000000e-01  1.25537616e+00   3.94563620e+00  -3.87476470e-01
C     1.319261492400000e+00   4.041298477119904e-01   1.236840000000000e-01 -1.39500483e+00   7.40120700e-02  -5.39175900e-01
C     1.149825822700000e+00   1.053946410487370e+00   3.331334100000000e+00  2.09205046e+00  -1.59927138e+00   3.47866090e-01
C     2.418856777600000e+00   1.782912256863338e+00   3.294286200000000e+00 -1.26308766e+00  -4.26239275e+00   5.94095480e-01
C     7.493077765099999e+00   8.265921567965661e+00   1.346856000000000e-01 -1.07957756e+00  -1.29583678e+00  -7.85843690e-01
C     3.750134011100000e+00   4.346534799639032e-01  -4.164510000000021e-02  9.11493140e-01  -1.04163664e+00   1.92682281e+00
C     3.613094110900000e+00   1.024138945044415e+00   3.473479200000000e+00  1.42817927e+00   4.24770390e-01  -4.45562250e-01
C     4.894580267099999e+00   1.668949512925895e+00   3.412823100000000e+00  1.29571600e-01  -6.08669630e-01  -9.51791800e-02
C     9.924661584199999e+00   8.237374887420078e+00   1.271796000000000e-01  2.88888220e-01  -5.56223630e-01  -1.45658079e+00
C     6.202136066099999e+00   4.454488385731384e-01   1.050525000000000e-01 -1.90126970e-01  -2.40156617e+00  -6.17641630e-01
C     6.152817430700000e+00   9.327710205677864e-01   3.456614700000000e+00 -1.68560587e+00   2.01162009e+00   4.92243600e-02
C     7.342957933999999e+00   1.714960177705174e+00   3.479094600000000e+00  5.99637040e-01  -8.32101420e-01   4.43369010e-01
C     1.236409455490000e+01   8.251634607971154e+00  -7.858499999997548e-03 -3.68222760e-01   1.30154971e+00   1.03771665e+00
C     8.664716471399998e+00   3.843318103536912e-01   8.000760000000000e-02  8.94239370e-01   2.14771840e+00   3.23259590e-01
C     8.593455145500000e+00   9.761386054331912e-01   3.508272300000000e+00 -1.10719545e+00   1.14865250e-01  -6.74561370e-01
C     9.805611007500001e+00   1.725771162703588e+00   3.418536900000000e+00 -5.77401050e-01  -1.84080610e+00  -6.19987020e-01
C     1.291256134400000e+00   1.818399188956751e+00  -5.521380000000065e-02 -5.43753200e-01   1.37223976e+00  -5.07290090e-01
C     2.519709836900000e+00   2.614571829656186e+00  -1.543790999999999e-01 -5.45828760e-01  -3.08422588e+00   2.61280640e-01
C     2.427001482700000e+00   3.123730310810710e+00   3.183359100000000e+00 -1.16188462e+00   3.26049755e+00  -3.13653550e-01
C     3.660596534300000e+00   3.804300888340753e+00   3.214959600000000e+00 -3.80049300e-02   1.94763892e+00  -3.50796650e-01
C     3.702020563500000e+00   1.830658219352362e+00  -4.347899999999782e-02  2.54487297e+00   2.23023348e+00  -2.42134840e-01
C     5.013087804300000e+00   2.541361427844439e+00   3.891780000000000e-02 -3.65109204e+00   7.37909130e-01  -1.06075676e+00
C     4.886402531000000e+00   3.059640511482755e+00   3.281121300000000e+00  1.05764150e-01   3.15802999e+00   7.28801840e-01
C     6.081878230999999e+00   3.891502714994294e+00   3.410833800000000e+00  5.79094150e-01  -2.34399932e+00  -7.50509200e-02
C     6.178072785399999e+00   1.826059876818778e+00   7.189859999999999e-02  1.71813554e+00   9.49007920e-01   7.98724110e-01
C     7.390289730099999e+00   2.559451663106739e+00   1.506639000000000e-01  2.10593080e+00   4.46948780e-01  -9.51474010e-01
C     7.309996299100000e+00   3.170438185795681e+00   3.525807900000000e+00  5.83460100e-01  -9.60480790e-01  -8.02013840e-01
C     8.552267066099999e+00   3.850752422231114e+00   3.442367100000000e+00  8.00321600e-01   2.69326310e-01  -4.88582190e-01
C     8.680868433199999e+00   1.897937339094597e+00   1.343844000000000e-01 -2.68522689e+00  -3.63483817e+00  -8.16782930e-01
C     9.856513602600000e+00   2.543485677481549e+00  -1.168823999999979e-01  3.01700194e+00  -3.04270000e-02   2.00629104e+00
C     9.825115911600001e+00   3.085942713123670e+00   3.262533900000000e+00 -2.11043990e+00   4.26405084e+00   1.00266570e+00
C     1.101063927270000e+01   3.847920032454899e+00   3.148095600000000e+00  1.63697956e+00   7.33694100e-01   5.99878870e-01
C     2.549007298599999e+00   4.025838769426073e+00  -2.603414999999991e-01 -1.22326939e+00  -2.35470441e+00   5.18808210e-01
C     3.724529119400000e+00   4.702148551506806e+00  -1.515699000000019e-01  3.09611444e+00   2.05876822e+00   3.91724790e-01
C     3.638696093900000e+00   5.306782989689781e+00   3.206201700000000e+00  3.97297960e-01  -2.86071502e+00   3.14548830e-01
C     4.882246935400000e+00   5.935205915608569e+00   3.425188200000000e+00 -9.13416110e-01   3.01538576e+00  -1.56335420e-01
C     5.002999200200000e+00   3.968161681578494e+00  -6.849300000000014e-02 -2.15390141e+00   5.88813320e-01   3.14214800e-01
C     6.188521476700000e+00   4.707196899892687e+00   5.903100000000000e-03  1.70116485e+00   5.06425100e-02  -3.97155960e-01
C     6.092087028500000e+00   5.294928964561236e+00   3.443328300000000e+00  1.81204764e+00  -7.70374710e-01   8.57806500e-01
C     7.350740136199999e+00   6.035514354837968e+00   3.628304700000000e+00 -1.30984395e+00  -1.07806692e+00  -1.16409913e+00
C     7.429291946099999e+00   3.984332774235414e+00   2.286150000000000e-02 -7.17603050e-01  -4.97594990e-01   1.07133463e+00
C     8.661216812300001e+00   4.680638527937372e+00   7.956540000000001e-02  1.25556890e+00  -1.31749008e+00  -4.31954390e-01
C     8.549206374200001e+00   5.303890058329262e+00   3.442519500000000e+00  1.42169201e+00  -1.23025362e+00   1.05426611e+00
C     9.827258933300000e+00   5.978875183714233e+00   3.421541400000000e+00 -1.88332433e+00   1.52040854e+00  -4.40048300e-01
C     9.917233257400000e+00   3.944382074413581e+00   4.273739999999999e-02 -2.08949850e-01   9.44887260e-01  -2.07737806e+00
C     1.116266780260000e+01   4.629026272283213e+00  -2.062832999999991e-01 -1.59869558e+00   2.18513007e+00   5.43421570e-01
C     1.105098501230000e+01   5.334812974711220e+00   3.249176700000000e+00 -6.94938770e-01  -3.36227622e+00  -8.50896350e-01
C     1.226785153860000e+01   6.022025792323341e+00   3.153272400000000e+00  8.27728490e-01  -3.86510700e-01   1.65987922e+00
C     3.737366395700000e+00   6.200902093929743e+00  -9.341700000000230e-03  7.79579000e-02  -4.31948346e+00  -1.15437446e+00
C     4.970335583800000e+00   6.826099664810026e+00   9.386700000000001e-03  1.83931376e+00  -8.20347830e-01   6.34828430e-01
C     4.924386455500000e+00   7.385654617306566e+00   3.537760500000000e+00 -2.54107995e+00  -5.80045490e-01  -1.80346203e+00
C     6.093523088200000e+00   8.139765800183618e+00   3.404850000000000e+00  8.93181120e-01   7.94272860e-01   1.76369897e+00
C     6.243475200700000e+00   6.122236972223372e+00   1.388910000000000e-02 -2.64444420e-01   4.97379640e-01   5.15614230e-01
C     7.517634538799999e+00   6.829708250638874e+00   1.282062000000000e-01 -1.89810614e+00  -5.03352930e-01  -4.99997720e-01
C     7.320383907700000e+00   7.449875832005807e+00   3.638172000000000e+00  9.66801100e-01   1.86814700e-01  -8.83668580e-01
C     8.569442200099999e+00   8.168493166190958e+00   3.613142400000000e+00 -4.81574620e-01  -1.55608387e+00  -8.36418340e-01
C     8.710590910200001e+00   6.067672268305648e+00   5.848740000000000e-02  6.09270260e-01   1.64489751e+00   2.76831180e-01
C     9.989297384499999e+00   6.749593119562894e+00   1.631910000000000e-02 -2.91241313e+00   2.38861045e+00   6.42092000e-03
C     9.797234641699998e+00   7.419511793859765e+00   3.444035700000000e+00 -7.07381360e-01  -7.71128570e-01   9.42588600e-01
C     1.103478981440000e+01   8.064276165694549e+00   3.420120600000000e+00  5.50528590e-01   2.00168181e+00   3.41048770e-01
C     1.115974120670000e+01   6.063891279855209e+00  -2.065896000000009e-01  1.38563387e+00   4.69442570e-01   1.56108135e+00
C     1.238156327040000e+01   6.866056085768880e+00  -3.887549999999962e-02 -1.19649409e+00  -1.78515630e+00  -1.05831218e+00
C     1.227375067800000e+01   7.424407293958055e+00   3.408972300000000e+00 -1.32883840e-01  -2.44389410e+00  -1.35057855e+00
C     1.350606792290000e+01   8.047611005891257e+00   3.415269300000000e+00  1.70230713e+00   3.31154656e+00   1.40845570e+00
