96
Atoms. Timestep: 0
1 0 0 0
1 1.42375 0 0
1 2.13562 1.233 0
1 3.55936 1.233 0
1 4.27124 0 0
1 5.69498 0 0
1 6.40686 1.233 0
1 7.8306 1.233 0
1 8.54247 0 0
1 9.96622 0 0
1 10.6781 1.233 0
1 12.1018 1.233 0
1 12.8137 0 0
1 14.2375 0 0
1 14.9493 1.233 0
1 16.3731 1.233 0
1 0 2.466 0
1 1.42375 2.466 0
1 2.13562 3.699 0
1 3.55936 3.699 0
1 4.27124 2.466 0
1 5.69498 2.466 0
1 6.40686 3.699 0
1 7.8306 3.699 0
1 8.54247 2.466 0
1 9.96622 2.466 0
1 10.6781 3.699 0
1 12.1018 3.699 0
1 12.8137 2.466 0
1 14.2375 2.466 0
1 14.9493 3.699 0
1 16.3731 3.699 0
1 0 4.932 0
1 1.42375 4.932 0
1 2.13562 6.165 0
1 3.55936 6.165 0
1 4.27124 4.932 0
1 5.69498 4.932 0
1 6.40686 6.165 0
1 7.8306 6.165 0
1 8.54247 4.932 0
1 9.96622 4.932 0
1 10.6781 6.165 0
1 12.1018 6.165 0
1 12.8137 4.932 0
1 14.2375 4.932 0
1 14.9493 6.165 0
1 16.3731 6.165 0
1 0 7.398 0
1 1.42375 7.398 0
1 2.13562 8.631 0
1 3.55936 8.631 0
1 4.27124 7.398 0
1 5.69498 7.398 0
1 6.40686 8.631 0
1 7.8306 8.631 0
1 8.54247 7.398 0
1 9.96622 7.398 0
1 10.6781 8.631 0
1 12.1018 8.631 0
1 12.8137 7.398 0
1 14.2375 7.398 0
1 14.9493 8.631 0
1 16.3731 8.631 0
1 0 9.864 0
1 1.42375 9.864 0
1 2.13562 11.097 0
1 3.55936 11.097 0
1 4.27124 9.864 0
1 5.69498 9.864 0
1 6.40686 11.097 0
1 7.8306 11.097 0
1 8.54247 9.864 0
1 9.96622 9.864 0
1 10.6781 11.097 0
1 12.1018 11.097 0
1 12.8137 9.864 0
1 14.2375 9.864 0
1 14.9493 11.097 0
1 16.3731 11.097 0
1 0 12.33 0
1 1.42375 12.33 0
1 2.13562 13.563 0
1 3.55936 13.563 0
1 4.27124 12.33 0
1 5.69498 12.33 0
1 6.40686 13.563 0
1 7.8306 13.563 0
1 8.54247 12.33 0
1 9.96622 12.33 0
1 10.6781 13.563 0
1 12.1018 13.563 0
1 12.8137 12.33 0
1 14.2375 12.33 0
1 14.9493 13.563 0
1 16.3731 13.563 0
