64
Lattice="9.86 0 0 4.93 8.53901048131456 0 0 0 30 " PBC="1 1 1" Properties=species:S:1:pos:R:3:force:R:3 Energy="-514.8264009"
C     5.171795695400000e+00   6.618687954151873e+00  -1.762836000000014e-01  1.56792020e-01   1.77191450e-01  -7.03211510e-01
C     6.395904243800000e+00   7.341131789713321e+00  -1.636296000000002e-01  6.58712430e-01  -2.71948510e-01   4.49839340e-01
C     9.601275177600000e+00   1.856094992281130e+00   3.606271200000000e+00 -1.53130842e+00   1.84254315e+00   3.79390670e-01
C     1.079455530210000e+01   2.577265917550324e+00   3.513630300000000e+00  1.89590376e+00  -4.83639660e-01  -7.78753300e-02
C     7.635010788900000e+00   6.629808734450502e+00  -1.267116000000001e-01  8.42350590e-01   5.45311490e-01   6.32226900e-02
C     8.896784142900000e+00   7.361464112957354e+00  -1.836576000000001e-01 -1.95919070e-01   2.00112450e-01  -1.05620900e-02
C     2.189906049300000e+00   1.839836801717315e+00   3.419704200000000e+00 -1.42964850e-01   2.01085219e+00   3.19503380e-01
C     3.393085761700000e+00   2.600466067464065e+00   3.414825000000000e+00  9.59143890e-01   1.10032310e+00   6.99947870e-01
C     1.016775391890000e+01   6.672867207136531e+00  -2.805579000000016e-01 -3.12978996e+00  -1.13001382e+00   2.83341500e-01
C     1.134968350720000e+01   7.373100137148345e+00  -3.442730999999988e-01  1.85060072e+00  -1.64629480e-01  -6.52126320e-01
C     4.637455969199999e+00   1.930003031249093e+00   3.546023100000000e+00  1.45662075e+00   2.23671660e-01   3.85348700e-02
C     5.917772285700000e+00   2.617382018005154e+00   3.677046600000000e+00 -7.70133580e-01   1.07643187e+00   2.38281460e-01
C     1.257982982660000e+01   6.620936446391467e+00  -4.845407999999978e-01  1.14421836e+00   1.30467292e+00   6.00267120e-01
C     1.385107553470000e+01   7.337913009712885e+00  -3.975693000000007e-01 -2.21416321e+00   6.88135310e-01   4.48981210e-01
C     7.145370928999999e+00   1.921351988951595e+00   3.748315500000000e+00 -6.57125200e-02  -1.97885014e+00  -3.52140410e-01
C     8.387614235899999e+00   2.591742102017068e+00   3.788550900000000e+00 -1.45076400e-01   1.99375145e+00  -3.90610270e-01
C     1.473987077400000e+00   2.179155474496000e-01  -1.730175000000003e-01 -9.35507430e-01   7.68888720e-01  -7.12060490e-01
C     2.691794346300000e+00   9.209014544401672e-01  -1.949049000000009e-01  1.18124555e+00   1.33979155e+00   4.55958290e-01
C     1.082568992830000e+01   3.996926790012156e+00   3.574466400000000e+00  2.88066940e-01  -7.57352300e-02  -3.05638160e-01
C     1.204651342050000e+01   4.718916350216069e+00   3.498416700000000e+00  7.08763910e-01   1.41625153e+00   1.62053730e-01
C     3.962706835700000e+00   2.684727229688504e-01  -1.799768999999998e-01 -2.67274330e-01  -1.39413476e+00   2.43938720e-01
C     5.216403124199999e+00   9.690195470059103e-01  -1.398170999999984e-01 -1.25296980e+00   3.84668740e-01  -3.57675850e-01
C     3.422563119100000e+00   4.051932021480543e+00   3.507954300000000e+00  9.36319710e-01  -1.62215107e+00   2.69327100e-01
C     4.703124259400000e+00   4.741853071656501e+00   3.733266600000000e+00 -1.77507201e+00  -1.14412891e+00  -1.28754543e+00
C     6.427653000099999e+00   2.549995306730872e-01  -2.742113999999987e-01 -2.48517070e-01  -2.30883600e-02   4.73672250e-01
C     7.643989403499999e+00   9.657288685372328e-01  -2.509875000000008e-01  1.05887262e+00  -1.45096980e+00  -4.64883290e-01
C     5.951748218799999e+00   4.073307128684394e+00   3.753043800000000e+00 -1.59965966e+00  -2.48062431e+00   4.88612200e-02
C     7.144927130399999e+00   4.768332030814352e+00   3.809397300000000e+00  1.82142405e+00   1.23104250e-01  -2.27223850e-01
C     8.877781359300000e+00   2.498737334621528e-01  -3.495182999999997e-01  4.36360690e-01  -7.22272720e-01   4.63345580e-01
C     1.009269314060000e+01   9.778341967442048e-01  -2.599026000000002e-01  5.51421200e-01  -8.60809040e-01   5.10266700e-02
C     8.410670662699999e+00   4.082963468685701e+00   3.830592600000000e+00 -1.34935186e+00  -2.85156315e+00  -4.84341770e-01
C     9.632610947800000e+00   4.731132856339490e+00   3.703492800000000e+00 -2.00891790e-01   1.66376496e+00   1.49316390e-01
C     2.709345244900000e+00   2.366030779559647e+00  -2.052531000000002e-01 -3.58496580e-01  -2.29961960e-01  -4.05367480e-01
C     3.927972077000000e+00   3.092036151002199e+00  -1.571993999999997e-01  1.07686996e+00  -1.31879916e+00  -5.71874570e-01
C     1.209171111820000e+01   6.173287019427527e+00   3.522863400000000e+00 -1.68311803e+00  -8.96780440e-01   5.90695960e-01
C     1.330831379090000e+01   6.858461062897444e+00   3.493825500000000e+00  1.94095840e-01  -9.99324830e-01   7.03512270e-01
C     5.195526546199999e+00   2.402366574684877e+00  -9.976349999999812e-02  6.50985970e-01  -6.34724240e-01  -1.55870430e-01
C     6.472807510999999e+00   3.083129109170510e+00  -1.206890999999999e-01 -1.87075545e+00   3.90812700e-02   2.60536700e-01
C     4.660312385899999e+00   6.116856029379296e+00   3.661263000000000e+00  1.17280477e+00   2.55744124e+00  -4.76680210e-01
C     5.907397248600000e+00   6.865698130449559e+00   3.657705900000000e+00 -9.39704120e-01   6.07894300e-01  -4.09212490e-01
C     7.705050608699999e+00   2.343792122225954e+00  -1.459460999999997e-01 -1.72306423e+00   1.95199263e+00   4.62224500e-02
C     8.908920915500000e+00   3.085992324774559e+00  -1.487823000000006e-01 -1.63119099e+00   9.59634230e-01  -1.79247780e-01
C     7.135101098100000e+00   6.170378376287726e+00   3.691044900000000e+00  8.88022020e-01   1.32404369e+00   9.72894690e-01
C     8.385340421300000e+00   6.909664726900135e+00   3.758646900000000e+00  8.22718270e-01  -1.85731615e+00  -5.33687890e-01
C     1.008277136770000e+01   2.408333720598406e+00  -2.634024000000004e-01  3.17730677e+00  -1.40127792e+00   1.37832270e-01
C     1.135616142860000e+01   3.097602902714320e+00  -3.201483000000032e-01 -1.16439285e+00  -1.97053340e-01   2.57285210e-01
C     9.636922232800000e+00   6.182553895160843e+00   3.721414200000000e+00 -7.74079380e-01  -5.89489210e-01   2.47169990e-01
C     1.085746067240000e+01   6.898780306411594e+00   3.701050500000000e+00 -2.04125330e-01  -8.76472250e-01  -6.45379750e-01
C     3.945018291499999e+00   4.475682465913058e+00  -3.355443000000022e-01 -2.04659690e-01   1.18180276e+00   8.19173020e-01
C     5.144282006299999e+00   5.199952454255759e+00  -1.322541000000008e-01  8.39205100e-01  -5.92691400e-02  -8.74585160e-01
C     1.327384801300000e+01   8.255319447163588e+00   3.533814000000000e+00  4.67201210e-01   1.76074738e+00   3.22295550e-01
C     9.549239964299998e+00   4.819590856824744e-01   3.532691400000000e+00  2.02382703e+00  -2.53256303e+00  -7.34309300e-02
C     6.387020383799999e+00   4.514295444353094e+00  -1.064529000000007e-01  7.16378070e-01  -1.06002166e+00   5.74163420e-01
C     7.616218614899999e+00   5.198803957346199e+00  -6.489630000000091e-02  7.51184660e-01   1.18011280e+00  -3.35084660e-01
C     5.891305432799999e+00   8.307410485135362e+00   3.539043300000000e+00  6.55837110e-01  -6.59293430e-01   4.06237790e-01
C     2.261117434300000e+00   4.534932695661368e-01   3.553043700000000e+00 -2.14651618e+00  -8.08391550e-01  -2.77851090e-01
C     8.859600505300000e+00   4.507676088819103e+00  -1.127468999999977e-01  7.51851210e-01   5.30397100e-01  -4.68383800e-01
C     1.010182995890000e+01   5.232493769293991e+00  -2.871722999999982e-01 -7.47587900e-02   9.05490500e-02   1.17390910e-01
C     8.446190375999999e+00   8.305782949737873e+00   3.679082400000000e+00 -3.01836552e+00   4.18231270e-01  -5.64285860e-01
C     4.671426183499999e+00   5.228942480225464e-01   3.614556000000000e+00  1.32133220e+00  -9.90051310e-01   7.97471950e-01
C     1.131607909890000e+01   4.516759888167727e+00  -4.183734000000001e-01  1.63877395e+00  -1.52226080e-01   3.33912010e-01
C     1.260730861130000e+01   5.210666863045644e+00  -4.855800000000023e-01 -2.18657042e+00  -1.87524580e-01   3.68283290e-01
C     1.081356809360000e+01   8.303701651323479e+00   3.733886700000000e+00  1.19311928e+00   1.25603376e+00  -8.44207320e-01
C     7.135103119400000e+00   4.409707253071120e-01   3.664835100000000e+00 -4.66658950e-01   1.38677627e+00   4.96690100e-02
