64
Lattice="9.86 0 0 4.93 8.53901048131456 0 0 0 30 " PBC="1 1 1" Properties=species:S:1:pos:R:3:force:R:3 Energy="-515.86408448"
C     9.850774145899999e+00   2.172074073104936e-01   7.912920000000001e-02 -9.17991630e-01   7.09176800e-02  -7.37542000e-02
C     1.204604679600000e+00   9.221858070064640e-01   5.848410000000000e-02  6.70039510e-01   1.73164430e-01  -1.32093440e-01
C     1.249272895300000e+00   5.043328301619607e-01   3.432019800000000e+00 -2.07714990e-01  -5.15665390e-01  -2.06779700e-01
C     2.462992602600000e+00   1.246368485978616e+00   3.386125800000000e+00  1.66210740e-01  -2.44442337e+00   5.40157010e-01
C     2.437109165899999e+00   2.184993595961176e-01   8.579190000000000e-02  1.15980194e+00   1.68904110e-01  -3.82571640e-01
C     3.695407116400000e+00   9.202054396959424e-01  -3.376590000000235e-02 -1.48924161e+00   4.66618400e-01   1.00606126e+00
C     3.675906402800000e+00   5.313156763282367e-01   3.401780100000000e+00  1.66733619e+00  -2.02447810e+00  -5.27649270e-01
C     4.955360413000000e+00   1.175771021373749e+00   3.324601500000000e+00 -4.62033920e-01   6.37602740e-01   5.60832970e-01
C     4.897970282999999e+00   2.189544034645968e-01   1.148004000000000e-01  9.16433070e-01  -2.00389310e-01  -5.66952510e-01
C     6.144847543399999e+00   9.382152374795200e-01   1.081338000000000e-01 -1.00854666e+00  -4.53401490e-01  -2.15829490e-01
C     6.212678624600001e+00   4.664846055005136e-01   3.327881100000000e+00 -2.05527725e+00   1.01489825e+00  -1.66751010e-01
C     7.380344786199998e+00   1.247450549386641e+00   3.363347700000000e+00  2.50770038e+00  -2.70223147e+00   3.69294300e-02
C     7.340860071100000e+00   2.270721845576184e-01   7.587570000000000e-02  2.06855807e+00  -1.16393990e-01   2.60020130e-01
C     8.613219219699999e+00   9.302216135988777e-01   5.818680000000000e-02 -8.68118910e-01  -2.28148640e-01   1.11372000e-01
C     8.659305796400000e+00   4.741198471113104e-01   3.374671200000000e+00 -7.20448500e-01   2.03412917e+00   3.37376060e-01
C     9.894778980800000e+00   1.228095003551416e+00   3.448792800000000e+00 -1.14026205e+00  -1.57851359e+00  -5.41148580e-01
C     1.107395624870000e+01   2.342197718189129e+00  -1.895820000000015e-02  9.24723980e-01  -3.14480880e-01  -5.15729580e-01
C     2.443228824200000e+00   3.061825131923958e+00  -9.591209999999961e-02  3.41567710e-01   3.85400260e-01   1.42403170e-01
C     2.486236122900000e+00   2.614632115070175e+00   3.385224300000000e+00 -4.76962760e-01   2.64853159e+00  -2.45078450e-01
C     3.712866366300000e+00   3.329308695918805e+00   3.340968600000000e+00  6.95059250e-01  -1.83718250e-01  -3.24388260e-01
C     3.664850680599999e+00   2.345363043983960e+00  -7.977419999999924e-02  1.46043614e+00   3.65588480e-01   3.73060930e-01
C     4.932820058599999e+00   3.078260848515653e+00   2.787930000000000e-02 -1.40783210e+00  -1.93411093e+00  -4.89308560e-01
C     4.952894032600000e+00   2.612568321627264e+00   3.345305400000000e+00 -4.17887600e-01  -4.87902870e-01   6.70541100e-02
C     6.166906138200000e+00   3.318818606934230e+00   3.377918100000000e+00  1.72169450e-01   1.84716207e+00  -3.85058610e-01
C     6.164305464599999e+00   2.340728581436045e+00   9.667380000000000e-02 -6.07317170e-01   1.20505796e+00   5.87230400e-02
C     7.384695264699999e+00   3.058710015510750e+00   1.343079000000000e-01  2.55429150e-01   7.31291500e-01  -6.55780720e-01
C     7.396431228299999e+00   2.643357858665524e+00   3.380915100000000e+00  5.59246090e-01   2.72733680e-01   3.42741100e-02
C     8.653468281999999e+00   3.347510194487659e+00   3.367200900000000e+00 -5.86922710e-01  -4.27339680e-01  -3.71056770e-01
C     8.607783007300000e+00   2.350339664681809e+00   4.990740000000000e-02  6.00311580e-01  -3.84435140e-01  -3.88263000e-03
C     9.870406391900000e+00   3.033292113795143e+00  -4.753889999999927e-02 -1.89127602e+00   6.75812530e-01   9.66158630e-01
C     9.863184336300000e+00   2.629514414875348e+00   3.380342100000000e+00  1.48660570e+00   9.32884240e-01   4.04746550e-01
C     1.112577942270000e+01   3.355280950194774e+00   3.375766800000000e+00 -1.05625901e+00  -1.29731270e-01  -3.43362910e-01
C     1.232633341710000e+01   4.511176912335693e+00  -1.014206999999985e-01 -1.35610400e+00  -9.84478690e-01  -4.94901600e-02
C     3.670183806700000e+00   5.219880284573355e+00  -3.094709999999878e-02  8.79106650e-01  -1.63565820e-01   1.18130600e-02
C     3.743868572700000e+00   4.745844119764747e+00   3.252755100000000e+00 -1.34671991e+00   3.71302420e-01   9.48007990e-01
C     4.944564353900000e+00   5.475785718868265e+00   3.356340600000000e+00  6.56265250e-01  -5.71402290e-01  -2.65362960e-01
C     4.884365159200000e+00   4.459824754940755e+00   1.344210000000000e-02  1.65292182e+00   2.28057825e+00   5.23858870e-01
C     6.152426777500001e+00   5.195325847597486e+00   1.383285000000000e-01 -1.34095417e+00   2.31639110e-01  -6.34534770e-01
C     6.182690272699999e+00   4.781561946701539e+00   3.346627800000000e+00 -6.60344380e-01  -1.99625732e+00   4.44734270e-01
C     7.402504347400001e+00   5.443101546184702e+00   3.362838600000000e+00  1.22672188e+00   1.53949694e+00  -6.14812180e-01
C     7.385227113099999e+00   4.512208766362097e+00   1.148124000000000e-01 -1.01247680e+00  -1.52664459e+00   3.84321080e-01
C     8.586303046599998e+00   5.207561481104382e+00   1.175163000000000e-01  2.50274639e+00  -1.34383189e+00  -3.30950050e-01
C     8.672867930599999e+00   4.751331373289300e+00   3.270386100000000e+00 -1.54238026e+00   4.35137620e-01   1.16901009e+00
C     9.872482266999999e+00   5.484230202502251e+00   3.302991000000000e+00  4.83640400e-01   2.31219700e-02  -5.28124140e-01
C     9.835830970800000e+00   4.436942768557500e+00   3.971429999999999e-02  5.01799690e-01   2.36736339e+00  -9.25448120e-01
C     1.107754040800000e+01   5.203293171325850e+00  -9.010860000000065e-02 -5.84871620e-01  -5.08042060e-01   6.36585910e-01
C     1.111525047100000e+01   4.787454290883264e+00   3.298668000000000e+00  5.70828380e-01  -7.55597840e-01   1.33709920e-01
C     1.236789888800000e+01   5.477893573605253e+00   3.271463700000000e+00 -5.70866780e-01   2.63866540e-01   3.47791060e-01
C     1.354885189260000e+01   6.651102891835001e+00   4.954230000000000e-02 -1.15302159e+00  -8.35694810e-01  -2.17762220e-01
C     4.902630710600000e+00   7.338519194066860e+00   9.328350000000001e-02  1.10597322e+00   1.69014060e-01   6.69941600e-02
C     4.941572090399999e+00   6.873600130747750e+00   3.412557300000000e+00 -2.39225700e-01   9.46989930e-01  -5.38239780e-01
C     6.161965292200000e+00   7.588951634984720e+00   3.383449800000000e+00  2.44952760e-01   1.31332741e+00   5.53662530e-01
C     6.138540347899999e+00   6.623750306514942e+00   1.332312000000000e-01  1.22857616e+00   1.71136740e-01   2.26847350e-01
C     7.419781137999999e+00   7.355239430487749e+00   1.716348000000000e-01 -1.45913272e+00  -1.60044742e+00  -4.76905340e-01
C     7.387970263700000e+00   6.895593633090563e+00   3.359565600000000e+00  6.79715760e-01  -1.03290315e+00   3.79390110e-01
C     8.621963511399999e+00   7.601710282883516e+00   3.390201900000000e+00 -2.97174390e-01   1.39899084e+00  -6.17011420e-01
C     8.663107368700000e+00   6.604969606865230e+00   1.297557000000000e-01 -2.32543875e+00   1.08462262e+00   2.27703030e-01
C     9.849379843299999e+00   7.327346838144933e+00   1.198320000000000e-01  1.10093580e+00   5.06974150e-01  -7.11262380e-01
C     9.852734264599999e+00   6.902657871070561e+00   3.266464500000000e+00  2.93450170e-01   9.36120300e-02   6.68633340e-01
C     1.110656484630000e+01   7.590616315077796e+00   3.268263300000000e+00 -2.73914440e-01   6.45406760e-01   6.65102100e-01
C     1.108916253790000e+01   6.634828135590856e+00  -4.024829999999824e-02 -8.49227390e-01  -7.24069890e-01   9.63857610e-01
C     1.229344740840000e+01   7.346491726591617e+00   6.279570000000000e-02  8.52442170e-01   8.90672000e-03  -6.61241650e-01
C     1.232628643420000e+01   6.917116123615298e+00   3.349486200000000e+00  1.28397152e+00  -1.66109854e+00  -8.79118040e-01
C     1.358045970020000e+01   7.603522260907372e+00   3.360694200000000e+00 -5.33800480e-01   3.37056170e-01   4.22685910e-01
