64
Lattice="9.86 0 0 4.93 8.53901048131456 0 0 0 30 " PBC="1 1 1" Properties=species:S:1:pos:R:3:force:R:3 Energy="-515.92164761"
C     4.978703913700000e+00   7.061808716907745e+00   4.886400000000000e-02 -1.01978900e-01   9.31346340e-01  -2.09357760e-01
C     6.190166174000000e+00   7.789040973376062e+00  -2.913120000000191e-02  1.16786089e+00   5.99235400e-01   8.04865310e-01
C     9.802189981900000e+00   1.459872695224143e+00   3.387918000000000e+00 -6.52635140e-01  -2.27965840e+00   1.23040770e-01
C     1.100038827440000e+01   2.150157848806968e+00   3.423501900000000e+00  1.08833850e+00   9.54394140e-01   9.19670800e-02
C     7.458665428400000e+00   7.114485104047922e+00  -7.039800000001151e-03 -1.23511418e+00  -7.42372700e-02  -2.29940520e-01
C     8.678362464900001e+00   7.825800644981519e+00   9.602699999999999e-03  5.04777970e-01  -7.92300330e-01  -4.42594790e-01
C     2.363098033900000e+00   1.478057542722561e+00   3.506089200000000e+00  1.37993694e+00  -1.49443753e+00  -3.83199210e-01
C     3.637426717500000e+00   2.141115805219591e+00   3.473823600000000e+00 -8.20048110e-01   1.02708757e+00   3.78312070e-01
C     9.908679608800000e+00   7.126047095018052e+00  -2.459940000000316e-02  1.17563190e+00  -1.17805271e+00   8.09269070e-01
C     1.118166186010000e+01   7.815310129046420e+00   5.036610000000000e-02 -1.27219261e+00  -2.95126430e-01  -7.53025940e-01
C     4.860176114200000e+00   1.433317995043334e+00   3.531002400000000e+00  8.06738650e-01   7.39239110e-01  -1.45186526e+00
C     6.073807821000000e+00   2.199978534672319e+00   3.394464000000000e+00  1.31197493e+00  -8.79882150e-01   7.66693780e-01
C     1.239058773400000e+01   7.090858003610180e+00   2.466420000000000e-02 -3.78028660e-01  -7.26926500e-02   4.77055620e-01
C     1.361040486530000e+01   7.791532571244021e+00   9.179430000000000e-02  7.18181580e-01  -9.27292800e-02  -5.13726860e-01
C     7.362638641899999e+00   1.451475432318111e+00   3.433394700000000e+00 -1.84713450e+00   2.48958770e-01  -9.66922890e-01
C     8.584454493799999e+00   2.156063770015356e+00   3.355665600000000e+00 -5.97991540e-01   2.77750070e-01   2.51214380e-01
C     1.284383960900000e+00   6.890012279670520e-01   1.058970000000000e-02  6.92723610e-01  -1.01237874e+00  -8.22993400e-01
C     2.520074410400000e+00   1.393569413599563e+00  -8.968439999999944e-02  1.11388810e-01   6.02483780e-01   8.74685650e-01
C     1.102746417950000e+01   3.555720046455377e+00   3.383664900000000e+00  1.89076710e-01   1.48955606e+00  -3.27101690e-01
C     1.226768549620000e+01   4.293035678839106e+00   3.393059700000000e+00 -4.11068160e-01  -6.32063030e-01   2.47428620e-01
C     3.753137071300000e+00   6.772088544941719e-01  -3.773849999999968e-02  6.97778330e-01   1.75141309e+00  -1.38961410e-01
C     5.018126313600000e+00   1.401990927295358e+00  -3.576479999999904e-02 -2.39182710e-01  -1.70932442e+00  -1.31342510e-01
C     3.652244719900000e+00   3.582644741960284e+00   3.423814200000000e+00 -8.75069940e-01  -3.75867030e-01   9.24779100e-02
C     4.859937600799999e+00   4.319522664666809e+00   3.426497100000000e+00 -2.76294100e-01  -6.88517520e-01  -3.71583270e-01
C     6.289791712600000e+00   6.913792569956273e-01  -6.554399999998850e-03 -2.41391900e+00  -3.60074670e-01   2.83179740e-01
C     7.489625335400000e+00   1.375080406547848e+00  -1.673399999997827e-03  1.83296590e-01   2.15950518e+00  -4.88189700e-02
C     6.071483621800000e+00   3.644730435528583e+00   3.361273200000000e+00  2.43576842e+00  -2.01421521e+00   9.14711100e-01
C     7.382227306699999e+00   4.304216061430886e+00   3.430392300000000e+00 -1.84260958e+00   4.90427300e-02  -1.19740916e+00
C     8.711526180500000e+00   6.732701505201673e-01   5.540940000000000e-02 -5.81474450e-01  -4.76811010e-01  -2.15227300e-01
C     9.927750623599998e+00   1.371959227437198e+00  -4.785599999998169e-03 -3.11208760e-01   8.62179750e-01   3.17806580e-01
C     8.586752366799999e+00   3.581898347054227e+00   3.329883000000000e+00 -3.78693460e-01  -3.75877730e-01   3.39637770e-01
C     9.803171446300000e+00   4.283276016810991e+00   3.300795900000000e+00  7.24568600e-01   6.71502320e-01   3.49202890e-01
C     2.520843983400000e+00   2.848117608838903e+00  -4.445009999999883e-02  2.57646480e-01  -1.60968621e+00  -6.80510000e-02
C     3.755498344100000e+00   3.524395198850126e+00  -4.970099999999888e-02  5.55737710e-01   9.34625110e-01  -4.52130260e-01
C     1.225442162700000e+01   5.717502135618873e+00   3.405801000000000e+00  3.57854100e-01   9.90593000e-03  -3.62809230e-01
C     1.350174160140000e+01   6.415753075908175e+00   3.404485500000000e+00 -7.22914500e-01  -3.24257780e-01   1.40194290e-01
C     5.006132461700000e+00   2.786459719695652e+00  -7.556399999999996e-02 -1.48531234e+00   1.47279889e+00   4.61988340e-01
C     6.208484279199999e+00   3.511174675874466e+00  -2.524979999999744e-02  3.28963010e-01   1.15907387e+00  -8.06655120e-01
C     4.866580578600000e+00   5.709521576424266e+00   3.427230900000000e+00  1.11896500e-02   9.14823700e-01   2.99198630e-01
C     6.100078213400000e+00   6.401828853078859e+00   3.488856300000000e+00  1.19544024e+00  -2.11185460e-01  -6.51141990e-01
C     7.434025140499999e+00   2.846878342247940e+00  -4.757940000000005e-02  6.87125740e-01  -2.35332554e+00   4.14593820e-01
C     8.652833051500000e+00   3.521461877970036e+00  -1.027260000000041e-02  1.80354491e+00   7.32582140e-01  -1.28714110e-01
C     7.385203498400000e+00   5.719816890579792e+00   3.393858300000000e+00 -1.30894706e+00   1.21862430e-01   7.14280400e-01
C     8.600382682899999e+00   6.451828089653346e+00   3.370686300000000e+00 -9.10021380e-01  -4.98354930e-01  -2.55735500e-02
C     9.897131626100000e+00   2.782006454950122e+00  -1.898609999999934e-02  6.53570210e-01   1.73128968e+00   2.76465070e-01
C     1.115460971760000e+01   3.536869583090043e+00   2.119320000000000e-02 -1.34816053e+00  -3.93489870e-01  -3.44074120e-01
C     9.814491663000000e+00   5.720685307945608e+00   3.307541100000000e+00  2.71104110e-01   1.77077600e-01   3.47438710e-01
C     1.103467948100000e+01   6.456072063252011e+00   3.364314000000000e+00  1.43172400e-02  -1.08255937e+00  -2.66558240e-01
C     3.751607637399999e+00   4.988905089105538e+00  -7.432139999999876e-02 -8.85587430e-01  -2.49175371e+00   8.13472300e-01
C     4.964055158199999e+00   5.653962333955936e+00   2.232300000000000e-03  1.52489936e+00   1.77103710e-01  -6.52053670e-01
C     1.346786037360000e+01   7.816479204971237e+00   3.389346600000000e+00  1.78027941e+00   1.37558392e+00   1.29630860e-01
C     9.800548735600000e+00   6.065429924153600e-03   3.435150000000000e+00 -8.80762220e-01   1.26625000e-03  -6.49625300e-02
C     6.206061627900000e+00   4.937039224840123e+00  -7.744710000000055e-02  5.18738870e-01   1.18268990e+00   8.46257930e-01
C     7.447651315400000e+00   5.715500079221733e+00  -2.723939999999914e-02  5.51620350e-01  -2.77468816e+00  -2.46604200e-02
C     6.093582741200000e+00   7.806503420587872e+00   3.496175400000000e+00 -1.44993390e-01   1.87201861e+00  -1.45089910e-01
C     2.371384772300000e+00   4.877884119668560e-02   3.495697200000000e+00  8.54797110e-01  -1.13339282e+00   1.20094730e-01
C     8.719601027500000e+00   4.958206065578366e+00   6.111000000000000e-03 -2.24685492e+00   2.46865890e-01  -2.01998840e-01
C     9.930105339500001e+00   5.663353110731316e+00   1.775100000000000e-02 -1.61489300e-01   1.43333901e+00  -2.89483300e-02
C     8.552145048600000e+00   7.861457588773589e+00   3.445218300000000e+00  8.12275410e-01   8.67392460e-01  -2.27811820e-01
C     4.896866603900000e+00   1.484976617524400e-02   3.407676300000000e+00 -2.52256064e+00   1.01014196e+00   7.49125940e-01
C     1.115440029120000e+01   4.959651805442734e+00   4.520250000000000e-02 -7.29027700e-02  -2.55848300e-01  -3.87377550e-01
C     1.237098240580000e+01   5.673736462084891e+00  -3.770100000000554e-03  6.12092870e-01  -3.76965900e-02  -1.76002100e-02
C     1.102497955810000e+01   7.878275426084263e+00   3.356249400000000e+00  9.51093100e-01  -1.38533876e+00   1.15303000e-01
C     7.334234939899999e+00   6.426203116933600e-03   3.364245600000000e+00 -1.64165800e-02   1.54612781e+00   5.07800720e-01
