64
Lattice="9.86 0 0 4.93 8.53901048131456 0 0 0 30 " PBC="1 1 1" Properties=species:S:1:pos:R:3:force:R:3 Energy="-511.66350939"
C     4.981611677000000e+00   8.165144251670807e+00  -7.703939999999996e-01  2.55217736e+00   9.11711580e-01   1.55439550e-01
C     1.351574635100000e+00   3.663702579793256e-01  -8.513213999999998e-01 -3.32919041e+00   1.78747087e+00   1.79134483e+00
C     9.770431316300000e+00   4.006943476255720e-01   4.151007300000000e+00  1.87537232e+00  -3.74687093e+00  -1.03991745e+00
C     1.200829433500000e+00   1.003124440253135e+00   4.112827500000000e+00 -2.14146388e+00   2.59444577e+00   9.39590980e-01
C     7.477208538799999e+00   8.236802602937708e+00  -8.102367000000008e-01 -2.31837619e+00  -3.68676826e+00  -6.38920300e-02
C     3.709725315400000e+00   3.455459169514352e-01  -6.453803999999970e-01  4.09203499e+00   1.79653037e+00  -1.06720316e+00
C     2.412677712800000e+00   3.192351763000400e-01   3.999056400000000e+00 -1.43208610e-01   9.96730320e-01  -5.80860140e-01
C     3.586033883200000e+00   1.118355739587486e+00   3.977529600000000e+00  2.65041220e+00  -2.72719823e+00   5.61723120e-01
C     9.908244782800001e+00   8.189657189055742e+00  -7.594902000000019e-01 -7.38099500e-02   1.04784950e-01   1.74294590e+00
C     6.212857287799999e+00   3.437129329617984e-01  -6.779177999999995e-01  1.57832142e+00   2.99011340e-01  -4.06989500e-01
C     4.863637270000000e+00   4.071244786873264e-01   3.960803700000000e+00 -1.08441252e+00  -1.71829473e+00  -8.58751820e-01
C     6.100125393499999e+00   1.062237106542612e+00   3.961711500000000e+00 -7.28235290e-01   1.43873423e+00   2.77921560e-01
C     1.242649997390000e+01   8.173480631432117e+00  -6.427988999999990e-01 -1.79543118e+00  -2.23217650e-01   3.04341240e-01
C     8.714019330799999e+00   3.424069766989872e-01  -7.313763000000009e-01 -5.53396880e-01   7.55793240e-01  -2.69241530e-01
C     7.317753013199999e+00   3.520429084652481e-01   4.091800800000000e+00 -2.40937680e-01  -3.63972610e-01  -1.13765320e+00
C     8.539402576200001e+00   1.038448704196904e+00   4.075586400000001e+00  6.45844900e-01   1.20261920e+00   1.55576580e+00
C     1.334938596600000e+00   1.800238079907467e+00  -5.550231000000032e-01 -2.03945883e+00  -6.68617530e-01  -1.79783889e+00
C     2.560472358700000e+00   2.495377148607543e+00  -5.606214000000023e-01 -1.46190738e+00   3.60358430e-01   1.17963609e+00
C     1.100532877530000e+01   2.448794284735999e+00   4.292093400000001e+00  1.77945965e+00  -2.00099800e-01  -3.05145490e-01
C     2.376635123700000e+00   3.214972541053073e+00   4.243605899999999e+00  1.03990690e-01  -6.10472930e-01   4.93221500e-02
C     3.773514486800000e+00   1.780616629285894e+00  -6.007823999999999e-01 -9.93272180e-01  -8.97107710e-01  -5.15688300e-02
C     4.971123742900000e+00   2.470588742744523e+00  -6.427329000000022e-01  2.66118517e+00   8.91775970e-01  -8.89574500e-02
C     3.670803606300000e+00   2.476112799404244e+00   4.135451700000000e+00 -3.22127743e+00   2.46266189e+00  -2.52432280e-01
C     4.866396837500000e+00   3.186423896535080e+00   4.033358400000000e+00  9.19078350e-01   1.34285473e+00  -7.65962530e-01
C     6.243029380799999e+00   1.764679761686442e+00  -7.080759000000008e-01 -5.97674280e-01   7.74430950e-01  -1.57271860e-01
C     7.476799299500000e+00   2.523435995484404e+00  -7.690568999999989e-01 -5.18124930e-01  -2.45684899e+00   3.14471200e-02
C     6.077281942700000e+00   2.498361874330723e+00   3.902876700000000e+00  2.59255120e+00  -9.57389270e-01   1.51215201e+00
C     7.403674433600000e+00   3.161986017052262e+00   4.075125300000000e+00 -4.27200602e+00   1.01915934e+00  -1.41882140e+00
C     8.721723146000000e+00   1.776087196566883e+00  -8.115539999999974e-01 -7.32292410e-01   1.46183744e+00   1.27701551e+00
C     9.894151983399999e+00   2.555046985330840e+00  -5.947247999999981e-01  2.74395272e+00  -2.15511708e+00  -1.12875881e+00
C     8.568066582200000e+00   2.450037137711363e+00   4.226021700000000e+00  8.53899100e-02  -3.46418170e-01  -4.63576050e-01
C     9.774117033600000e+00   3.149698893312171e+00   4.356121200000000e+00  1.44859393e+00   1.13844795e+00  -1.14054756e+00
C     2.496576797900000e+00   3.895214537459846e+00  -3.708483000000022e-01  1.16712633e+00   1.39701975e+00  -7.83373130e-01
C     3.769041645700000e+00   4.577436047276091e+00  -4.110603000000026e-01 -1.26683498e+00   1.16598195e+00  -9.85903420e-01
C     1.218340251200000e+01   4.629994083731016e+00   4.226783699999999e+00  3.24686960e+00   9.18722770e-01  -1.08342323e+00
C     3.690328624800000e+00   5.347081398018360e+00   3.990947400000000e+00 -3.65966310e+00  -1.68346287e+00   1.25861185e+00
C     4.996324571800000e+00   3.910607043141198e+00  -6.335856000000000e-01  6.85900690e-01  -2.06243100e-01   8.54174880e-01
C     6.259961810900000e+00   4.656449731390257e+00  -6.843182999999975e-01 -1.45232887e+00  -1.66472883e+00  -6.01713490e-01
C     4.894405005599999e+00   4.642344225368450e+00   3.941837100000000e+00 -1.36783234e+00  -1.85715821e+00   1.62555940e-01
C     6.085683402199999e+00   5.324180967372467e+00   3.816084000000000e+00  2.22458895e+00  -7.67466930e-01   5.58313900e-02
C     7.460440425600000e+00   3.915443026336441e+00  -7.254968999999996e-01  2.06426789e+00   1.31499659e+00   2.59392520e-01
C     8.761238180599999e+00   4.643771606360287e+00  -6.450849000000005e-01 -5.04698335e+00   1.69756895e+00  -1.05193598e+00
C     7.343248951900000e+00   4.567409711950686e+00   3.901152600000000e+00  1.26619960e-01   1.47526262e+00   7.26863190e-01
C     8.552255973599999e+00   5.315688067549059e+00   4.002959100000000e+00  1.03477498e+00  -8.27382060e-01  -6.52557000e-02
C     9.955317951100000e+00   3.981046963002710e+00  -6.577719000000002e-01 -1.06754603e+00  -1.78956341e+00   1.31994664e+00
C     1.111896907140000e+01   4.694605701989403e+00  -4.438341000000001e-01  2.91001896e+00  -4.17800912e+00   2.45542420e-01
C     9.815780907299999e+00   4.591570671323636e+00   4.176210599999999e+00 -2.77529497e+00   3.63436760e-01   5.19066770e-01
C     1.096486925130000e+01   5.386399698724044e+00   4.181505300000000e+00  1.86106831e+00  -2.52931758e+00   7.48320200e-02
C     3.713618733600000e+00   6.008711254842296e+00  -5.403957000000013e-01  3.55445907e+00   8.12869190e-01   9.86266260e-01
C     5.020139380500000e+00   6.780325530621043e+00  -6.214520999999991e-01 -2.12264885e+00  -2.13856368e+00  -1.37752142e+00
C     1.352022328400000e+01   6.722850561151525e+00   4.040414700000000e+00 -8.14608390e-01   3.17431612e+00  -4.46241100e-02
C     4.896525102800000e+00   7.475760390644146e+00   4.045219200000000e+00 -1.01228104e+00  -2.79029850e-01  -9.03107540e-01
C     6.256522889399999e+00   6.059935412470139e+00  -8.086053000000000e-01 -4.11210380e+00  -8.56111170e-01   1.37272618e+00
C     7.391036575799999e+00   6.750731625830192e+00  -8.230892999999995e-01  3.54768188e+00   3.61946242e+00  -7.48027000e-02
C     6.107967938900000e+00   6.731025724394972e+00   3.801177600000000e+00  3.94882290e-01   2.01090179e+00   1.04384664e+00
C     7.366969104599999e+00   7.472244196908691e+00   3.824159400000001e+00 -7.33103030e-01  -1.86648481e+00   5.54543800e-01
C     8.594611181199999e+00   6.101116327531826e+00  -6.945573000000032e-01  4.93800373e+00  -2.01402712e+00   3.94451660e-01
C     9.911023478699999e+00   6.795130637771476e+00  -6.084933000000028e-01 -1.23074446e+00  -1.33695455e+00  -2.05330360e-01
C     8.585224510499998e+00   6.737701181227816e+00   3.928905000000000e+00 -4.40126140e-01   6.53766820e-01  -9.23751140e-01
C     9.804704725599999e+00   7.485888340194264e+00   3.894708000000001e+00 -1.49381368e+00   9.29551910e-01   1.18707825e+00
C     1.114316620160000e+01   6.029391884323808e+00  -4.050177000000019e-01 -6.95948080e-01   4.56301865e+00  -9.85383510e-01
C     1.240096740530000e+01   6.743768489734276e+00  -4.717131000000023e-01 -1.01552466e+00   5.47929120e-01  -3.20172970e-01
C     1.097964066520000e+01   6.774010505420558e+00   4.056909600000000e+00  1.87201619e+00   1.25195057e+00  -4.54408110e-01
C     1.222912421940000e+01   7.498311063420777e+00   4.052861399999999e+00  1.26726185e+00  -2.55117679e+00   4.41195650e-01
