52
Lattice="8.88768389401873 1.33226762955019e-15 0 4.44384194700937 7.69696003302603 0 0 0 30 " PBC="1 1 1" Properties=species:S:1:pos:R:3:force:R:3 Energy="-414.57060148"
C     1.202942233471161e+01   6.127263629939484e+00  -2.087408999999987e-01 -1.29637841e+00  -3.13059636e+00  -1.96613360e+00
C     8.246354134607232e+00   5.765979486723327e+00  -3.728355000000008e-01 -1.78584073e+00   1.80255212e+00   9.62755690e-01
C     9.603565544864885e+00   5.431440124462613e+00  -4.615571999999979e-01  8.25143810e-01  -7.40524730e-01  -6.60240000e-01
C     9.988866549004616e+00   4.040317276486913e+00  -5.305178999999995e-01 -1.13119019e+00   3.57093690e-01   2.64654631e+00
C     5.844471472202308e+00   5.215317645597844e+00  -3.493746000000009e-01 -9.03054640e-01   2.59334198e+00   2.33053080e+00
C     7.157867978403544e+00   4.773456106006826e+00  -2.166290999999987e-01  2.04934700e+00   2.43193098e+00  -1.90176550e+00
C     7.462903909425227e+00   3.441315447589018e+00  -3.155594999999991e-01  2.96633719e+00  -2.71330083e+00   8.86331390e-01
C     8.908008558566976e+00   3.045515364692731e+00  -3.690497999999991e-01 -1.06935930e-01   1.73883746e+00  -7.13217140e-01
C     9.254259834893492e+00   1.681239051484069e+00  -3.214697999999991e-01 -1.35278300e-02   1.23689790e-01   4.35831270e-01
C     3.475336058817251e+00   4.707315666651434e+00  -2.858400000000003e-01  1.59825320e-01   2.14294788e+00   8.60586950e-01
C     4.790295819748488e+00   4.281749822957531e+00  -2.912160000000021e-01  1.91377470e+00  -6.30658860e-01  -4.09942330e-01
C     5.148743086963460e+00   2.895402399893244e+00  -3.185618999999988e-01 -7.53103560e-01  -1.21293138e+00  -4.85151600e-02
C     6.461573625421424e+00   2.402496468653673e+00  -2.073011999999999e-01  1.77947693e+00   3.35277892e+00  -1.23875453e+00
C     6.877097954119135e+00   1.068185883264207e+00  -2.987345999999995e-01  1.90990445e+00   1.66997209e+00   3.71679300e-01
C     8.266604585743497e+00   6.985449196346785e-01  -2.751539999999970e-01 -1.09927252e+00   6.66025620e-01   8.76405900e-02
C     2.502477603527435e+00   3.756415290628364e+00  -2.369906999999998e-01 -3.50845438e+00  -3.51110300e+00  -1.80383451e+00
C     2.799607717479589e+00   2.336107571428513e+00  -2.464160999999976e-01 -1.67144241e+00  -1.13154115e+00  -9.43441470e-01
C     4.132396172289108e+00   1.902756098725063e+00  -4.376096999999994e-01 -9.37532700e-01   3.95661510e-01   1.99981493e+00
C     4.448089724981280e+00   5.278481285661634e-01  -3.676583999999998e-01  2.19977681e+00  -8.79531770e-01  -4.18419660e-01
C     5.894001242534361e+00   1.772700719037354e-01  -3.769539000000002e-01 -4.54864775e+00  -5.13844372e+00  -6.25863670e-01
C     1.064153868299449e+01   6.423154323771160e+00  -4.676732999999977e-01  6.08916640e-01   2.38365166e+00   1.72650863e+00
C     1.703175838512282e+00   1.265535553585405e+00  -2.550972000000016e-01  3.12266666e+00   4.00718835e+00   6.05369570e-01
C     6.573895866767545e+00   7.656805220432291e+00  -1.048626000000006e-01 -1.63411224e+00  -2.48696071e+00  -1.25982389e+00
C     7.890873709624315e+00   7.205149376172697e+00  -2.814216000000016e-01  1.81213468e+00  -5.51959630e-01   4.25759800e-02
C     4.188065294638493e+00   7.050304936103569e+00  -2.183768999999991e-01 -1.62586720e-01   1.89987630e-01   3.80613060e-01
C     5.544443751123400e+00   6.656382911454602e+00  -1.558644000000022e-01  2.18668650e-01  -1.71923796e+00  -7.67598060e-01
C     1.265602009768375e+00   1.606821686160417e+00   3.801116100000000e+00  3.00911559e+00   4.59481380e-01   1.67329625e+00
C     3.745636653340988e+00   1.071580396576637e+00   3.711716400000000e+00 -2.19351730e+00  -1.41092706e+00   1.97169738e+00
C     5.080368489643185e+00   1.459171440692129e+00   3.667661100000000e+00  1.46872206e+00  -3.53440040e-01  -1.02862960e-01
C     6.129855709829521e+00   4.502885562798639e-01   3.593927100000000e+00 -3.85926190e-01   1.96718929e+00  -1.12245540e+00
C     7.474429856190770e+00   9.031946177571298e-01   3.516405900000000e+00  8.74035540e-01  -2.70939310e-01   9.23156660e-01
C     1.291196152477187e+01   7.582123002714006e+00   3.561157200000000e+00  1.03470642e+00  -9.85146090e-01   1.24083365e+00
C     9.847965251283916e-01   2.154854784526854e-01   3.783449700000000e+00 -1.92013863e+00   2.11279422e+00  -5.73849750e-01
C     6.484285793535566e+00   7.024032594554769e+00   3.897000000000000e+00 -3.10264190e-01  -3.78923707e+00  -2.10777060e-01
C     7.859863380765963e+00   7.314727378548594e+00   3.805821300000000e+00 -2.59267430e-01   4.82936069e+00  -5.14435040e-01
C     8.879800207480303e+00   6.403360821358012e+00   3.631694700000000e+00  6.21084360e-01   2.12747942e+00  -4.99458230e-01
C     1.026129352604794e+01   6.791365807983917e+00   3.450630600000000e+00 -2.55547877e+00  -2.14413250e-01   4.19655490e-01
C     1.119761062325491e+01   5.777290939183415e+00   3.369854100000000e+00  2.35836559e+00  -3.16008000e-03   2.15127550e+00
C     3.634079648324378e+00   6.202902656759098e+00   3.661083900000000e+00  2.26824329e+00  -3.98463320e-01  -1.47008394e+00
C     4.706596501707239e+00   5.218672134718119e+00   3.818733600000000e+00  1.29999180e+00   1.91138740e-01  -3.28870790e-01
C     6.125173459109815e+00   5.600545030257724e+00   3.920645400000000e+00 -9.30988520e-01   1.08971014e+00  -1.74392840e-01
C     7.205154944898510e+00   4.649996328338424e+00   3.877329300000000e+00 -4.26315728e+00  -9.91880300e-02  -1.28947379e+00
C     8.463748926310153e+00   5.129015712170270e+00   3.626540700000000e+00  3.92096105e+00  -5.91725276e+00   1.18644187e+00
C     9.529395911067049e+00   4.071001284616107e+00   3.702758700000000e+00  1.38416050e-01  -1.13531921e+00   2.99587160e-01
C     1.093255918045976e+01   4.404327836884896e+00   3.646554600000000e+00 -2.91641124e+00   6.29000960e-01  -1.45786743e+00
C     3.028521970707973e+00   3.423844810743323e+00   3.658261500000000e+00  1.12363179e+00  -1.79180364e+00   2.31287213e+00
C     4.441642067962756e+00   3.816474053985652e+00   3.724156500000000e+00 -2.31002041e+00   5.35687240e-01  -5.97653200e-02
C     5.445820497835615e+00   2.838178426915005e+00   3.719488200000000e+00  9.30427570e-01   4.39963890e-01  -3.95966330e-01
C     6.814948515156104e+00   3.278144744037837e+00   3.679356600000000e+00  1.36408312e+00  -1.14146708e+00   1.36222078e+00
C     7.875559827135161e+00   2.277696650244048e+00   3.695718000000000e+00 -3.08722884e+00  -2.01582640e-01  -5.04176660e-01
C     9.206226614556041e+00   2.628790865046087e+00   3.874136099999999e+00 -4.15944520e-01   2.43716706e+00  -1.75519405e+00
C     2.656960524151307e+00   2.014312219828669e+00   3.976269600000000e+00  1.13009131e+00   8.85970290e-01  -3.64047151e+00
