64
Lattice="9.86 0 0 4.93 8.53901048131456 0 0 0 30 " PBC="1 1 1" Properties=species:S:1:pos:R:3:force:R:3 Energy="-515.14570368"
C     4.928344407400000e+00   8.252863115408912e+00  -1.714254000000004e-01  8.82038780e-01   1.74244313e+00   1.89838190e-01
C     1.242296353700000e+00   4.516888058715032e-01  -1.901742000000013e-01 -8.76069400e-02  -6.42966200e-01   1.73891650e-01
C     9.849062597800000e+00   2.761133441562496e-01   3.730944900000000e+00 -1.60179900e-01  -1.07661211e+00   2.10008800e-02
C     1.216161388400000e+00   9.867489236853247e-01   3.671035500000000e+00 -5.10508930e-01  -4.48605390e-01  -3.37574530e-01
C     7.418347888400000e+00   8.301898553870522e+00  -1.295603999999990e-01 -8.91280740e-01  -1.60536115e+00   1.95998390e-01
C     3.703940552000000e+00   4.492740590978640e-01  -1.586342999999992e-01  1.05147534e+00   2.74174080e-01  -1.24891949e+00
C     2.429094662100000e+00   2.897348590640504e-01   3.776215200000000e+00  8.93045850e-01  -5.85599130e-01   6.08530740e-01
C     3.673278367700000e+00   1.002057917844183e+00   3.796670400000000e+00  6.53828000e-02  -1.14744359e+00  -5.66887580e-01
C     9.881860606000000e+00   8.288322039547950e+00  -2.902358999999990e-01  2.15428600e-02   2.79700490e-01   3.09994130e-01
C     6.186856221300000e+00   4.731847400736456e-01  -2.914946999999977e-01  1.77317810e-01  -1.14379912e+00   7.78317890e-01
C     4.893287226700000e+00   2.609057934418936e-01   3.825938700000000e+00  1.05308438e+00   3.14495900e-01  -2.54676000e-03
C     6.145406851900000e+00   9.657476543602888e-01   3.776553600000000e+00  4.54656200e-02   8.89193570e-01  -5.77940150e-01
C     1.235235583050000e+01   8.270057523081755e+00  -2.374988999999985e-01 -5.61372170e-01   3.47136010e-01  -9.77203130e-01
C     8.640303752299999e+00   4.439053270387736e-01  -1.539612000000012e-01  1.77611990e-01   3.92875740e-01  -4.06530700e-01
C     7.400896230700000e+00   2.772769551143592e-01   3.670665300000000e+00 -1.30003195e+00  -1.24230855e+00   3.46831370e-01
C     8.626632714399998e+00   9.812535581008159e-01   3.644332200000000e+00 -2.49137350e-01  -1.85260560e-01   1.17015390e-01
C     1.230101850800000e+00   1.848158665160808e+00  -3.409922999999999e-01  1.18523255e+00   8.25656310e-01  -1.91227600e-02
C     2.487894574900000e+00   2.567598562225497e+00  -5.229954000000028e-01 -6.29013470e-01  -1.01767452e+00   6.96969670e-01
C     1.107312066300000e+01   2.374888380520656e+00   3.442023000000000e+00 -2.61613050e-01   1.33847812e+00   3.81942920e-01
C     2.439407877000000e+00   3.103344191800653e+00   3.434497800000000e+00  7.75129870e-01   3.89901410e-01   3.92595270e-01
C     3.720735188600000e+00   1.853166794807328e+00  -3.700317000000020e-01 -3.84432500e-02   8.36633540e-01   2.17408590e-01
C     4.963459860700000e+00   2.578212893812556e+00  -3.324195000000003e-01 -4.26603170e-01  -2.34065780e-01   3.55632990e-01
C     3.697153568900000e+00   2.390258855554970e+00   3.626216700000000e+00 -9.40671680e-01   1.47144427e+00  -5.83641500e-02
C     4.919873829300000e+00   3.132072070148622e+00   3.715366500000000e+00 -3.94593620e-01  -1.59454420e+00   1.62423870e-01
C     6.189794008300000e+00   1.878062536032082e+00  -1.831403999999992e-01  1.66394000e-01   1.46056760e-01  -5.41416670e-01
C     7.427561417500000e+00   2.593088533189555e+00  -1.396842000000014e-01 -1.33913520e-01  -9.00344740e-01   1.54305110e-01
C     6.149030253999999e+00   2.421054369900566e+00   3.755072400000000e+00 -3.82317300e-02  -1.19682510e+00   2.41631620e-01
C     7.383573591099999e+00   3.114896192128521e+00   3.752749200000000e+00  1.56737910e-01   8.19588900e-02   1.99356310e-01
C     8.668054820900000e+00   1.890651086842118e+00  -1.749366000000023e-01 -1.61317784e+00  -1.77093257e+00   5.27576100e-01
C     9.869922808200000e+00   2.560612029240866e+00  -2.603814000000000e-01  8.86321600e-01   1.38602419e+00  -1.06236185e+00
C     8.619510491299998e+00   2.395245808455500e+00   3.615091200000000e+00 -6.16767510e-01   6.32259620e-01  -3.65281000e-02
C     9.826446863700001e+00   3.101922019605209e+00   3.461785200000000e+00  9.31890120e-01   7.53369900e-01   3.46240270e-01
C     2.479786401100000e+00   3.970305058599079e+00  -6.539496000000007e-01  5.54729250e-01   1.51580721e+00   3.11374590e-01
C     3.735443104100000e+00   4.711406461279117e+00  -5.726310000000012e-01 -5.77399080e-01  -2.73009140e-01   5.60487200e-01
C     1.230576580220000e+01   4.557280481548995e+00   3.424000200000000e+00  4.37170950e-01  -9.73028550e-01   3.62555380e-01
C     3.708841070600000e+00   5.239914084011006e+00   3.583075200000000e+00 -1.86720066e+00   3.31208000e-01   1.04784160e-01
C     4.973141542600000e+00   4.000369292087168e+00  -3.345222000000021e-01 -1.75361463e+00  -3.43327450e-01  -7.14806740e-01
C     6.171806804699999e+00   4.679553390485574e+00  -1.678512000000012e-01  1.03751453e+00   1.78165535e+00   8.32979660e-01
C     4.891384296000000e+00   4.519670922230464e+00   3.784309200000000e+00  7.80537110e-01   8.22144990e-01  -6.34153290e-01
C     6.120828977800000e+00   5.225106756717848e+00   3.900462000000000e+00  6.24120240e-01   4.46238400e-02   3.36591770e-01
C     7.412619918600000e+00   3.985122376534499e+00  -8.778719999999751e-02  3.18032570e-01   8.92229180e-01  -7.79500930e-01
C     8.654692844700001e+00   4.701973587182072e+00  -2.406527999999994e-01 -9.70705520e-01   2.25447590e-01   2.88061830e-01
C     7.365078301699999e+00   4.533033534340512e+00   3.914724600000000e+00  9.82281790e-01  -6.84608000e-03  -1.34956408e+00
C     8.611612779200000e+00   5.259294392976623e+00   3.768374400000000e+00 -1.28140290e-01  -2.68001970e-01   3.19767150e-01
C     9.845445555400000e+00   3.987328002941483e+00  -4.360640999999994e-01  1.92747166e+00   3.24661510e-01   4.39746060e-01
C     1.110623271220000e+01   4.717722340380649e+00  -6.153845999999987e-01 -7.04961350e-01  -5.79517890e-01   5.47344190e-01
C     9.844719415700000e+00   4.552460807863769e+00   3.516542100000000e+00 -8.32807550e-01  -6.46127050e-01   5.14555030e-01
C     1.107017000870000e+01   5.268824355622828e+00   3.498540000000000e+00  1.23821620e-01  -2.93279610e-01  -7.32711840e-01
C     3.692282778200000e+00   6.142937668379512e+00  -4.883246999999997e-01  2.50586970e+00  -3.70577810e-01   7.12696100e-01
C     4.950776301800000e+00   6.872445656530854e+00  -2.122473000000014e-01 -7.91933200e-01  -2.68581666e+00  -1.86222290e-01
C     1.353597236620000e+01   6.666941390033725e+00   3.641229600000000e+00 -2.48511950e-01  -4.84338810e-01   4.61937560e-01
C     4.882513746999999e+00   7.367395565807077e+00   3.850255800000000e+00  1.39417834e+00   6.68415300e-01  -8.67957960e-01
C     6.174263916699999e+00   6.122905064403327e+00  -4.689600000000027e-02 -2.25804670e-01   3.32678580e-01  -1.22119450e+00
C     7.410876522700001e+00   6.848579036849150e+00  -7.060410000000061e-02  1.59811320e-01  -8.81346000e-03  -7.36157200e-02
C     6.133225561400000e+00   6.629059094720462e+00   3.916062300000000e+00  1.30671310e-01   2.28270284e+00   2.93172800e-02
C     7.381935056300000e+00   7.412187372230441e+00   3.923817300000001e+00 -5.02416970e-01  -1.38855931e+00  -2.22822380e-01
C     8.636921082099999e+00   6.120452831373681e+00  -2.141271000000025e-01  1.06537055e+00   1.40429674e+00  -2.64478980e-01
C     9.897346574100000e+00   6.881315041326325e+00  -3.820208999999970e-01 -1.36795212e+00  -1.50214506e+00   6.49535660e-01
C     8.638380756500000e+00   6.688850868513414e+00   3.885434100000000e+00 -1.63352086e+00  -6.84921290e-01  -3.10690010e-01
C     9.853454932000000e+00   7.369104904924963e+00   3.801260100000000e+00 -3.43342720e-01   1.46945108e+00  -5.37107940e-01
C     1.111276851180000e+01   6.152450296834442e+00  -5.110178999999988e-01  1.73063530e-01  -3.94972480e-01  -5.68710650e-01
C     1.236160510210000e+01   6.855616376946137e+00  -4.933692000000001e-01 -1.33394617e+00   5.78635230e-01   7.46770860e-01
C     1.105931419800000e+01   6.694247437746669e+00   3.553886100000000e+00  2.49271850e-01  -1.11508366e+00   9.75929990e-01
C     1.228702554110000e+01   7.354867556581345e+00   3.617885700000000e+00  1.28323565e+00   2.09247814e+00  -3.04872960e-01
