52
Lattice="8.88768389401873 1.33226762955019e-15 0 4.44384194700937 7.69696003302603 0 0 0 30 " PBC="1 1 1" Properties=species:S:1:pos:R:3:force:R:3 Energy="-419.16322811"
C     1.270162773051121e+01   7.021694258097654e+00  -1.969487999999977e-01  1.81142884e+00  -6.71553780e-01   2.78710640e-01
C     9.000696527641191e+00   6.809855291428783e+00  -2.678648999999993e-01  3.10529220e-01  -5.29596110e-01  -2.34755760e-01
C     1.035797628414472e+01   6.408751387315023e+00  -3.116364000000011e-01 -2.54633180e-01   3.80025770e-01  -4.33061200e-02
C     1.067727041534167e+01   5.045020942511688e+00  -3.396596999999986e-01  1.39847073e+00  -4.67200010e-01   2.46184840e-01
C     6.599368412247214e+00   6.220145925405506e+00  -1.247454000000019e-01  2.23464240e-01  -1.63487620e-01  -7.42361290e-01
C     7.991272541042770e+00   5.855808706023850e+00  -3.143004000000005e-01 -1.75320877e+00  -2.10740466e+00   1.02029336e+00
C     8.311406291700168e+00   4.435674938120675e+00  -3.196839000000011e-01  5.67399190e-01   1.18449710e+00  -3.87937000e-01
C     9.704193722940911e+00   4.043290689116103e+00  -3.332373000000004e-01 -2.19045099e+00   2.75267670e-01   3.01605480e-01
C     9.996310338886316e+00   2.680215178641721e+00  -2.141184000000003e-01  3.11428840e-01  -1.61411465e+00   1.60194600e-02
C     4.174250855588539e+00   5.648240166718822e+00  -2.092208999999983e-01  4.15028510e-01  -8.91601950e-01   2.68246620e-01
C     5.555082530015385e+00   5.245619499661551e+00  -1.505492999999980e-01  3.76372300e-02  -6.19003890e-01  -8.02844150e-01
C     5.892007604104148e+00   3.843441200116360e+00  -2.960427000000010e-01  4.79965090e-01   7.92052610e-01   1.13856548e+00
C     7.290784356654975e+00   3.471765468133301e+00  -3.120563999999995e-01 -1.09441666e+00  -1.20522128e+00   2.31216350e-01
C     7.618811259375248e+00   2.051887701120725e+00  -2.506665000000012e-01 -1.18035861e+00   1.47643870e+00  -3.32587540e-01
C     8.951479863808943e+00   1.682318088310675e+00  -1.983168000000006e-01  1.92820674e+00  -7.44022230e-01   4.35268520e-01
C     3.158722940973532e+00   4.638477519775128e+00  -2.693154000000000e-01  7.13737700e-02   7.37584480e-01  -1.22132180e-01
C     3.487928128417533e+00   3.267875613905011e+00  -2.285613000000026e-01  4.98001850e-01  -8.82342060e-01   6.74697760e-01
C     4.862107060383346e+00   2.864591084045153e+00  -1.783617000000000e-01  2.81823820e-01  -3.82753210e-01  -8.68476430e-01
C     5.229292787268214e+00   1.466557366567317e+00  -1.990613999999979e-01 -9.90159010e-01   4.22148220e-01  -2.07961800e-02
C     6.574787430506364e+00   1.082668868104656e+00  -2.605283999999983e-01  6.96374300e-01  -1.41692060e-01   2.94424790e-01
C     1.136867583115552e+01   7.394337190078084e+00  -2.668602000000000e-01 -8.79586220e-01   7.02933700e-01   2.03420500e-02
C     2.473458825824389e+00   2.248454051819670e+00  -1.400174999999990e-01  3.53778650e-01   1.36114576e+00  -4.96457690e-01
C     2.852810725463806e+00   8.984593709770736e-01  -1.113825000000013e-01 -1.16198458e+00  -1.81189646e+00  -1.59650000e-02
C     4.214061765729185e+00   4.500707323110149e-01  -1.806843000000029e-01 -4.93013960e-01   2.71319141e+00   1.43007640e-01
C     4.283559233590679e-01   2.746137563119463e-01  -9.288749999999979e-02 -8.07085060e-01   1.43971439e+00  -6.29752220e-01
C     6.225470750906834e+00   7.587076920128514e+00  -8.807609999999855e-02  1.44425421e+00   7.55038880e-01   1.49214230e-01
C     6.050465455683831e-01   7.047171118827354e-01   3.707873700000000e+00 -4.78506420e-01  -1.82130808e+00  -6.78504550e-01
C     2.983511137827668e+00   1.151209681415004e-01   3.628924800000000e+00  2.67844330e-01  -6.81070950e-01  -1.64360140e-01
C     4.354588446395281e+00   5.211462315288418e-01   3.562379700000000e+00  9.92202900e-02  -1.01296282e+00   8.54344200e-02
C     9.827209846380811e+00   7.212083567463724e+00   3.482483100000000e+00  8.34752000e-03   3.84006630e-01   2.26175190e-01
C     1.120856340612559e+01   7.609816972780347e+00   3.545215800000000e+00 -1.11412936e+00  -3.21494550e-01   2.82851100e-02
C     1.219725726871679e+01   6.594094877563825e+00   3.608294400000000e+00  8.06791460e-01   5.70090530e-01  -5.02100000e-02
C     4.677718107088317e+00   6.969731465178322e+00   3.706240200000000e+00  3.92508820e-01   1.96821818e+00  -1.15536940e-01
C     5.700308351799407e+00   6.014322902696081e+00   3.727379400000000e+00  6.42985520e-01  -7.48602400e-01  -1.74705910e-01
C     7.081612540460692e+00   6.412842860358170e+00   3.673313400000000e+00 -2.85154870e-01   6.34305080e-01  -4.75701760e-01
C     8.108630718158478e+00   5.451059521639882e+00   3.553031700000000e+00  1.27169750e-01  -1.47579004e+00   4.92852940e-01
C     9.478826812847991e+00   5.825668257211973e+00   3.463300200000000e+00  4.06644850e-01  -5.80197000e-03   5.93698690e-01
C     1.051605476182510e+01   4.821193036960888e+00   3.564420300000000e+00 -5.60444110e-01   3.94695170e-01  -8.64372780e-01
C     1.187969125699586e+01   5.218399816272258e+00   3.580725300000000e+00 -5.26915170e-01  -1.48947140e-01   3.29446130e-01
C     4.009880295707638e+00   4.230641238662328e+00   3.656809500000000e+00 -7.20752670e-01   9.53943400e-02   1.98440910e-01
C     5.357588772622197e+00   4.610674791663563e+00   3.708804900000000e+00  4.78675500e-01   1.52269354e+00  -1.16675010e-01
C     6.374631591682773e+00   3.660050197718368e+00   3.693132900000000e+00  1.86457635e+00  -9.10577360e-01   1.41975700e-02
C     7.783599363010914e+00   4.032308358666897e+00   3.647338500000000e+00 -1.14379756e+00   1.27125931e+00  -5.18166520e-01
C     8.801615916705623e+00   3.061893187153366e+00   3.597932700000000e+00  3.53011750e-01  -6.76097920e-01   2.88972000e-02
C     1.018116554323702e+01   3.437711961811773e+00   3.556366500000000e+00 -4.30457810e-01   6.02715240e-01   1.00457921e+00
C     2.321451790751285e+00   2.468270609681237e+00   3.709194300000000e+00 -1.38338822e+00  -3.12073150e-01  -1.27307699e+00
C     3.650647666513930e+00   2.858712915670241e+00   3.696282900000000e+00  1.48489153e+00   3.25297010e-01  -1.49872820e-01
C     4.698349662105077e+00   1.895047131437416e+00   3.646943700000000e+00 -8.62711740e-01  -6.78870470e-01   1.44190200e-02
C     6.043153155100001e+00   2.272358038767240e+00   3.662777400000000e+00  1.08922370e+00   4.26531090e-01  -2.95229960e-01
C     7.085574311108787e+00   1.297887800831503e+00   3.603894900000000e+00  4.35522350e-01  -4.72023610e-01   2.05164820e-01
C     8.471876088837639e+00   1.662235642018000e+00   3.641406900000000e+00 -8.50376530e-01   1.13998418e+00   4.34899800e-02
C     1.966749658417498e+00   1.091712873109506e+00   3.630316200000000e+00 -9.64812400e-02  -5.45253600e-02   1.05275278e+00
