52
Lattice="8.88768389401873 1.33226762955019e-15 0 4.44384194700937 7.69696003302603 0 0 0 30 " PBC="1 1 1" Properties=species:S:1:pos:R:3:force:R:3 Energy="-415.34993941"
C     1.315447260044078e+01   7.502087318386056e+00  -2.813840999999968e-01  2.18187677e+00  -2.72866020e-01  -4.34425800e-02
C     9.447647307868891e+00   7.385506775714067e+00  -2.396111999999988e-01  1.57898110e-01  -2.88273435e+00  -5.81804860e-01
C     1.077462752797461e+01   7.003831999925634e+00  -3.672018000000001e-01 -6.32252980e-01  -4.80320272e+00   2.86838540e-01
C     1.106873427406027e+01   5.584736167082506e+00  -3.528359999999999e-01  3.10386383e+00  -5.85113010e-01   8.03292070e-01
C     7.056685609147623e+00   6.698951949505321e+00  -1.075791000000024e-01 -5.37403740e-01   3.26345437e+00  -8.94469080e-01
C     8.474511779033016e+00   6.433390510915057e+00  -2.756378999999995e-01 -3.79037922e+00  -5.27528581e+00   1.02266530e+00
C     8.765267868271998e+00   4.983281163083849e+00  -2.870480999999998e-01  7.47263630e-01   8.94413200e-02   5.23100030e-01
C     1.014948308394206e+01   4.559554815867515e+00  -2.206641000000005e-01 -3.24290861e+00   2.19532244e+00  -7.57648240e-01
C     1.041299851100127e+01   3.211409868459328e+00  -1.611729000000004e-01  2.36982926e+00  -1.78774280e+00  -2.27399010e-01
C     4.624854562701587e+00   6.115698716585608e+00  -3.549030000000002e-01  1.66751520e-01   2.72249910e-01   1.61438334e+00
C     5.997376697101527e+00   5.753178133710233e+00  -1.854309000000001e-01  1.58275606e+00  -2.33030719e+00  -7.22701370e-01
C     6.404421686465019e+00   4.294876988288696e+00  -2.553434999999986e-01 -3.33559210e-01   2.29052306e+00   5.12509430e-01
C     7.794949068582476e+00   3.922661853346734e+00  -2.396151000000017e-01 -1.31342340e+00   2.32437178e+00  -4.79030490e-01
C     8.133176232827257e+00   2.563148034156635e+00  -2.856093000000008e-01 -2.14911561e+00  -4.11725280e-01   2.37342650e-01
C     9.470864734445513e+00   2.206244769680754e+00  -2.364779999999982e-01 -1.26842217e+00  -7.82594190e-01   5.83579500e-01
C     3.580683820384183e+00   5.094422571981039e+00  -2.788950000000021e-01 -2.35080280e-01   3.72459735e+00  -1.32056529e+00
C     3.933414973751219e+00   3.778759103777853e+00  -3.046707000000026e-01  9.88011970e-01  -3.38679092e+00   1.26117410e+00
C     5.395082043984907e+00   3.338047336076115e+00  -2.491275000000002e-01 -3.00503734e+00  -3.07304140e-01  -7.35861910e-01
C     5.699915113569996e+00   1.926162092358692e+00  -2.963592000000013e-01 -1.07076885e+00   1.62771985e+00   7.91549920e-01
C     7.058680757547870e+00   1.591557382907322e+00  -2.894244000000015e-01  8.11838650e-01  -1.40165306e+00  -2.78755780e-01
C     7.355873529657695e+00   1.500791751449550e-01  -3.356268000000000e-01  2.61371301e+00   5.03351327e+00   2.29335620e-01
C     2.858066636281338e+00   2.738806362630088e+00  -1.752026999999998e-01  3.28237701e+00   4.33951541e+00  -7.36807850e-01
C     3.285078651943985e+00   1.450300540318353e+00  -2.030595000000019e-01 -1.63594379e+00  -3.65295527e+00   9.68243560e-01
C     4.615400507792932e+00   9.390872357082265e-01  -2.004105000000003e-01  7.91684670e-01   7.14321094e+00  -5.17020420e-01
C     9.173615795238148e-01   8.365416378333405e-01  -1.531227000000008e-01 -4.01625006e+00  -8.77282710e-01  -7.49085680e-01
C     2.203110945310181e+00   4.775741256470133e-01  -1.046331000000009e-01  4.46122133e+00  -3.54988264e+00  -2.04896500e-01
C     1.643790468579623e-01   2.460391770485728e-01   3.689909100000000e+00 -4.22646700e-01  -3.08302295e+00   3.35329460e-01
C     6.928984123433551e+00   7.348681055298532e+00   3.566938800000000e+00  2.02824399e+00  -2.06322014e+00   3.48356000e-02
C     3.861341765309458e+00   7.860297218796629e-02   3.556371300000000e+00  7.03648470e-01  -5.61025230e+00  -3.04923840e-01
C     9.397459267467983e+00   6.633067357101326e+00   3.507556500000000e+00 -1.52458044e+00   3.39111167e+00   1.83012487e+00
C     1.075753091264203e+01   7.048076435266084e+00   3.755255700000000e+00 -1.92657953e+00   3.94964660e-01  -1.37596271e+00
C     1.177191880276183e+01   6.083368251736395e+00   3.775829100000000e+00  1.79896376e+00   9.49403320e-01  -1.73348570e-01
C     4.265628555994632e+00   6.532936372557452e+00   3.815664900000000e+00 -5.27298110e-01   1.01419280e-01  -1.12424681e+00
C     5.258289480748803e+00   5.548395816966464e+00   3.672321300000000e+00 -1.13894520e-01  -2.11739851e+00   1.09151868e+00
C     6.613666429067152e+00   5.912759282981822e+00   3.622699500000000e+00  1.31172725e+00   6.34866420e-01  -4.23659940e-01
C     7.651660807451375e+00   4.888055451167094e+00   3.606398700000000e+00 -7.82992490e-01   7.37584400e-01   3.46940810e-01
C     9.032695610415686e+00   5.289241481844373e+00   3.610429500000000e+00  8.55129000e-02  -1.06709217e+00  -9.93331390e-01
C     1.009510170128402e+01   4.295774992615396e+00   3.559467600000000e+00 -2.61311670e-01   1.08143550e+00   3.09957090e-01
C     1.148348639665132e+01   4.724742661733758e+00   3.605612700000000e+00 -2.40216320e+00  -8.06495270e-01   5.44101390e-01
C     3.559491048369899e+00   3.706290762672997e+00   3.654512400000000e+00  6.03717230e-01   2.05057237e+00   3.31789720e-01
C     4.903884952468529e+00   4.107886579502274e+00   3.757161600000000e+00  1.00152809e+00   8.84114460e-01  -1.72376288e+00
C     5.899220181286424e+00   3.094441783849828e+00   3.595196400000000e+00  8.89652880e-01   1.10795786e+00   2.24450170e+00
C     7.278052971693050e+00   3.500095284067720e+00   3.675992100000000e+00  1.17809603e+00   7.30444300e-02  -1.06267473e+00
C     8.338998505039108e+00   2.521686126836632e+00   3.636268200000000e+00  3.39488360e-01   5.43708400e-02  -5.85832800e-02
C     9.767724619756741e+00   2.922232694074619e+00   3.561783300000000e+00 -2.65607326e+00   9.14412140e-01   4.17593010e-01
C     1.904421220641921e+00   1.979332769215532e+00   3.596669100000000e+00 -2.57293063e+00  -4.34914490e-01  -4.74846310e-01
C     3.195150089574606e+00   2.379699458497618e+00   3.629078700000000e+00  2.16875950e+00  -8.64959500e-01  -9.19869600e-02
C     4.205507548346169e+00   1.385146235482005e+00   3.640309500000000e+00  2.34286180e-01   7.86558330e-01   3.96460410e-01
C     5.553472434916078e+00   1.726887258394789e+00   3.761681100000000e+00  1.64947437e+00   4.69326210e-01  -1.67206169e+00
C     6.592317764625371e+00   7.499368290285857e-01   3.711523800000000e+00  9.80681040e-01  -5.55874580e-01   7.54149250e-01
C     7.991434693753013e+00   1.110895852653075e+00   3.688382400000000e+00 -1.21705623e+00   3.57346491e+00  -7.14486800e-02
C     1.515113113566888e+00   6.354844958048914e-01   3.588034200000000e+00 -5.61394010e-01  -6.09946650e-01   3.51301450e-01
