64
Lattice="9.86 0 0 4.93 8.53901048131456 0 0 0 30 " PBC="1 1 1" Properties=species:S:1:pos:R:3:force:R:3 Energy="-514.18248965"
C     4.896091213500000e+00   8.364110966354344e+00   1.851930000000000e-01 -6.73500000e-04  -9.16585380e-01  -3.95405840e-01
C     1.187019024500000e+00   5.276846329018264e-01   1.494966000000000e-01  8.81995800e-01   4.79268850e-01   7.59215700e-02
C     1.255366671100000e+00   8.494273750194232e-01   3.390350100000000e+00 -4.86568350e-01   1.47566486e+00  -1.86077680e-01
C     2.455294851300000e+00   1.619487807061124e+00   3.240690900000000e+00  1.14231071e+00  -5.92011270e-01   7.52170800e-02
C     7.340881960300001e+00   8.357322965363371e+00   2.530305000000000e-01  1.80839833e+00   1.18747282e+00  -8.47674630e-01
C     3.673280783400000e+00   5.823516341651008e-01   1.231359000000000e-01 -2.64928060e-01  -1.53647596e+00   3.21895520e-01
C     3.707021308999999e+00   9.013417408643648e-01   3.381760200000000e+00 -2.77713750e-01  -9.83971020e-01   3.93416610e-01
C     4.964463362200000e+00   1.540477965501675e+00   3.451798800000000e+00 -1.13113173e+00   3.21080577e+00  -9.35319800e-01
C     9.867802168699999e+00   8.418101421817287e+00   1.209666000000000e-01 -1.40092918e+00  -1.96303326e+00  -4.27870420e-01
C     6.167358810800000e+00   5.539022129488848e-01   1.103484000000000e-01 -4.53012280e-01  -7.39852000e-03  -5.29870500e-02
C     6.213166448099999e+00   8.754358346998263e-01   3.509870700000000e+00 -1.52516942e+00   9.86694390e-01   1.01004400e-01
C     7.406856797900000e+00   1.649947482124541e+00   3.505889400000000e+00 -2.85847660e-01  -2.36328894e+00  -2.21687100e-02
C     1.229631109750000e+01   8.401654092171340e+00   9.140130000000000e-02  1.47395084e+00  -1.62368915e+00  -4.41738280e-01
C     8.615253732099999e+00   5.430898617087945e-01   1.506588000000000e-01 -3.98971710e-01   3.55949110e-01   2.53623160e-01
C     8.598362221000000e+00   8.584395320701199e-01   3.458749500000000e+00  1.93340588e+00   1.83677819e+00  -5.86388400e-02
C     9.872954610300001e+00   1.550979325980084e+00   3.381071400000000e+00 -5.31265680e-01   6.17712420e-01  -3.31739280e-01
C     1.245098960100000e+00   1.954739092977871e+00  -4.729319999999859e-02 -1.18019083e+00  -1.41891760e-01   5.12964160e-01
C     2.451795044300000e+00   2.675084210543545e+00  -1.574807999999983e-01  1.21531069e+00   8.78481840e-01  -3.02946550e-01
C     2.481013724600000e+00   3.037200333501734e+00   2.993322600000000e+00 -5.04717160e-01  -9.16196200e-01   5.78567840e-01
C     3.726509746900000e+00   3.722833604955265e+00   3.051483600000000e+00 -1.11221290e+00   3.99847160e-01   9.46391300e-02
C     3.680891569500000e+00   1.985156243769098e+00  -3.006630000000143e-02  1.54245951e+00  -8.30554710e-01  -3.95424700e-02
C     5.005691867600000e+00   2.625827867880818e+00  -1.277909999999949e-02 -3.42297806e+00   1.21355299e+00  -2.58361000e-01
C     4.900010563500000e+00   3.040061328963058e+00   3.295391100000000e+00  2.19154284e+00  -2.36089430e+00   6.52751970e-01
C     6.121536777899999e+00   3.766755371600822e+00   3.442054800000000e+00  6.16433770e-01   4.32540200e-02   2.03634300e-01
C     6.219714769899999e+00   1.950374292380914e+00   1.014042000000000e-01 -1.03359633e+00   4.11341140e-01   4.57070190e-01
C     7.413583437800000e+00   2.672775347499857e+00   2.094171000000000e-01  1.17107130e-01   6.69165740e-01  -2.42508780e-01
C     7.364112909099999e+00   3.051216179913502e+00   3.523784700000000e+00  3.33653680e-01  -3.31119560e-01  -3.33914880e-01
C     8.622408936899999e+00   3.686823231519428e+00   3.428304900000000e+00  1.04933331e+00   1.05094546e+00  -2.75258000e-01
C     8.619903067199999e+00   1.970555475139451e+00   2.040438000000000e-01  1.65030700e+00  -3.79704270e-01  -7.35312540e-01
C     9.872055230399999e+00   2.668179139718893e+00   2.038170000000000e-02 -1.03335951e+00  -5.20396200e-02   1.79327440e-01
C     9.870430844700000e+00   2.978431874724706e+00   3.235170900000000e+00  2.08130750e-01   4.80190660e-01   1.70903090e-01
C     1.111103916640000e+01   3.744173872996357e+00   2.980227300000000e+00 -1.62040070e+00  -4.74011970e-01   1.24644114e+00
C     2.488091134000000e+00   4.118612727368339e+00  -3.372353999999973e-01 -2.31699820e+00  -1.82800019e+00   4.16256440e-01
C     3.693963415200000e+00   4.811566919456897e+00  -2.877932999999970e-01  1.47622547e+00  -4.65347200e-02   1.19283476e+00
C     3.733874427400000e+00   5.142214141703039e+00   3.073361100000000e+00 -1.82320024e+00   8.86536090e-01   1.82448670e-01
C     4.872699152300000e+00   5.876988906128340e+00   3.358721700000000e+00  3.34022464e+00  -5.03982330e-01   3.03437950e-01
C     4.904242820599999e+00   4.037512792213700e+00  -4.634940000000043e-02  1.49814659e+00   2.01099359e+00   3.88770600e-02
C     6.136847583100000e+00   4.791348335832458e+00   1.939041000000000e-01 -5.74948960e-01  -3.16939000e-01  -6.41341230e-01
C     6.154861901699999e+00   5.195613783030871e+00   3.489716100000000e+00  6.46130500e-02  -7.19442130e-01   1.01488400e-01
C     7.441832978699999e+00   5.856999936495708e+00   3.626563200000000e+00 -1.36465881e+00   4.11001260e-01  -6.57587670e-01
C     7.385378661299999e+00   4.099180074268479e+00   2.234514000000000e-01 -6.82075950e-01   4.21971000e-03  -3.17960760e-01
C     8.572620719000000e+00   4.830266498507049e+00   8.979360000000000e-02  2.51784893e+00  -4.38348160e-01   1.75797190e-01
C     8.664053435700000e+00   5.112652172811384e+00   3.475282800000000e+00 -8.03190850e-01   7.80577490e-01   1.13019820e-01
C     9.877328555599998e+00   5.859284548749632e+00   3.342742800000000e+00 -6.02521670e-01  -2.35409500e-01   3.70259800e-02
C     9.826630900600000e+00   4.087527996737785e+00  -5.939249999999774e-02 -7.14529200e-02   1.82874200e-01  -3.05935720e-01
C     1.106210817690000e+01   4.754483890568411e+00  -2.834325000000000e-01  9.13859590e-01   2.48831911e+00   2.32022570e-01
C     1.107437973570000e+01   5.175705250876961e+00   3.075983400000000e+00  1.93638654e+00  -2.96324240e-01  -1.61012750e-01
C     1.235837230390000e+01   5.896966775047348e+00   3.053315100000000e+00 -1.52426639e+00  -1.49282994e+00   4.92542680e-01
C     3.746131639900000e+00   6.249705442086507e+00  -1.163117999999983e-01 -3.87721161e+00  -1.24994040e+00  -6.17814440e-01
C     4.904425477100000e+00   6.895883105545835e+00   1.238199000000000e-01  2.28610997e+00   2.90152495e+00   4.10510440e-01
C     4.926943843699999e+00   7.269874344988455e+00   3.479319300000000e+00  3.31795640e-01   1.38142689e+00  -4.56242380e-01
C     6.183173955000000e+00   7.996655570923219e+00   3.550293000000000e+00 -7.23513310e-01  -9.11425180e-01  -1.74522500e-02
C     6.140590734900000e+00   6.213689432903752e+00   2.342046000000000e-01  1.05573468e+00  -3.64305300e-02  -1.27564340e-01
C     7.400672803099999e+00   6.955495816289019e+00   2.855169000000000e-01 -7.75037380e-01  -8.42414160e-01  -3.04246810e-01
C     7.413196777900000e+00   7.319353299654396e+00   3.620108100000000e+00 -5.19215290e-01  -2.50877619e+00  -2.92362220e-01
C     8.610931305299999e+00   7.991017860034009e+00   3.513896100000000e+00  1.18324013e+00   1.54641043e+00   1.95483200e-02
C     8.660420765200000e+00   6.259797783962924e+00   1.364853000000000e-01 -2.80013106e+00  -1.08129513e+00   2.02615030e-01
C     9.851227212900000e+00   6.930144689635367e+00   1.999560000000000e-02  2.41889197e+00   2.05238326e+00  -2.86287920e-01
C     9.837730154700001e+00   7.274938148983305e+00   3.454566000000000e+00  9.09357600e-01   9.65244850e-01   3.30203700e-02
C     1.107525564880000e+01   8.021297618146614e+00   3.455761800000000e+00  1.15561302e+00  -2.25266653e+00  -7.08723210e-01
C     1.110507110560000e+01   6.213750657608894e+00  -2.206878000000003e-01 -8.10906200e-01   7.60426990e-01   8.42182880e-01
C     1.232759357440000e+01   6.994756734844279e+00  -1.162448999999981e-01  2.23125770e-01  -2.04401099e+00  -1.38202820e-01
C     1.231912477110000e+01   7.281642809231990e+00   3.278859300000000e+00  5.99477750e-01   8.92016230e-01   2.72861380e-01
C     1.358694274880000e+01   7.994812340121006e+00   3.370008000000000e+00 -2.20105359e+00  -2.94917670e-01   5.13398300e-01
