64
Lattice="9.86 0 0 4.93 8.53901048131456 0 0 0 30 " PBC="1 1 1" Properties=species:S:1:pos:R:3:force:R:3 Energy="-513.28799154"
C     4.910742138200000e+00   8.361434925860015e+00   1.813065000000000e-01  6.63589070e-01   1.00962640e-01  -3.85398900e-01
C     1.217349617000000e+00   5.373537814188545e-01   1.790640000000000e-01  3.00562690e-01   1.13570177e+00  -3.35180990e-01
C     1.239305174800000e+00   8.630424002792592e-01   3.338939100000000e+00  9.34179580e-01   8.93004000e-03   1.77646730e-01
C     2.503868711600000e+00   1.595367066427534e+00   3.220346400000000e+00 -1.54515519e+00   1.92156800e-02   7.09684190e-01
C     7.384945215700000e+00   8.367068367243986e+00   2.429352000000000e-01 -9.14937450e-01   8.60155000e-02  -9.70163310e-01
C     3.666526486200000e+00   5.253313670036432e-01   3.997920000000000e-02  5.08104850e-01   3.97397020e-01   1.50471270e+00
C     3.727461779200000e+00   8.610943104283519e-01   3.427115400000000e+00 -7.51513380e-01   2.99487133e+00  -8.95901040e-01
C     4.945678484600000e+00   1.636837453944493e+00   3.414341100000000e+00  2.44295930e-01  -3.81120035e+00   5.59240590e-01
C     9.809871957199999e+00   8.331779796364025e+00   1.306995000000000e-01  2.49291571e+00   2.17309404e+00  -6.43200370e-01
C     6.153153656700000e+00   4.992142057198296e-01   1.525389000000000e-01  2.52999460e-01   9.16745840e-01  -1.30176008e+00
C     6.184267083899999e+00   9.194035412217656e-01   3.504628800000000e+00 -9.31734190e-01  -2.32142576e+00  -6.73726890e-01
C     7.394342042200001e+00   1.604366329572406e+00   3.444547200000000e+00 -4.33633910e-01   1.21901276e+00   9.48953100e-01
C     1.233679561660000e+01   8.333514923293560e+00   9.039300000000000e-03 -1.42977973e+00   2.19448940e-01   1.04418564e+00
C     8.601771907600000e+00   5.421856658890672e-01   1.063560000000000e-01  1.15878089e+00  -1.35006151e+00   4.44310040e-01
C     8.620371860899999e+00   9.065439622190952e-01   3.453838500000000e+00 -1.15263664e+00  -1.48039638e+00  -3.28645750e-01
C     9.836505591999998e+00   1.539962209268683e+00   3.385507500000000e+00  2.49447802e+00   1.94542471e+00  -7.86395260e-01
C     1.245642936300000e+00   1.985551258393903e+00  -2.546700000000257e-02  1.82461150e-01  -4.86015980e-01   3.73692410e-01
C     2.499464298900000e+00   2.720650419827340e+00  -1.085097000000026e-01 -1.61047743e+00  -2.08007462e+00  -4.93336390e-01
C     2.450835567700000e+00   3.051695218401430e+00   3.066477900000000e+00  8.89995100e-01  -1.53179187e+00   2.00034080e-01
C     3.703203467700000e+00   3.750350566227064e+00   3.110763300000000e+00 -3.11723610e-01  -1.12434470e+00   2.55593170e-01
C     3.735471993900000e+00   1.970210755286373e+00  -2.043660000000003e-02 -2.84990688e+00  -1.05322792e+00  -4.08475920e-01
C     4.901515248800000e+00   2.658699984185045e+00  -2.591250000000045e-02  4.15302969e+00   3.97680090e-01   1.04801000e-02
C     4.939248877200000e+00   2.983393637544320e+00   3.351342000000000e+00 -1.61965800e+00   4.53959339e+00  -7.03092530e-01
C     6.110436439199999e+00   3.765611400366816e+00   3.453561600000000e+00  2.18347316e+00   1.45062600e-02  -5.68618900e-02
C     6.207487088100000e+00   1.943250025157241e+00   7.899900000000000e-02 -1.67758071e+00   8.07526100e-02   9.95461730e-01
C     7.430792687399999e+00   2.678049552712935e+00   2.309055000000000e-01 -1.09204262e+00  -1.06653920e-01  -9.33914120e-01
C     7.340274239199999e+00   3.030970613015946e+00   3.525154500000000e+00  2.08151882e+00   5.02786040e-01  -8.68997680e-01
C     8.664062753400000e+00   3.698153559135235e+00   3.416668800000000e+00 -2.44548721e+00  -2.25795400e-02  -2.89743660e-01
C     8.658433876600000e+00   1.933707424775526e+00   2.211507000000000e-01 -7.35131770e-01   2.22582736e+00  -1.20765755e+00
C     9.860406034800000e+00   2.696739226510930e+00  -1.657649999999933e-02  6.00021350e-01  -9.52452380e-01   1.14593038e+00
C     9.864834801699999e+00   2.975377129115591e+00   3.246312000000000e+00 -3.45633930e-01   4.74067030e-01   5.64111030e-01
C     1.105931799410000e+01   3.746317079236732e+00   3.068677200000000e+00  1.09746043e+00  -1.59090763e+00   5.34871560e-01
C     2.420230029100000e+00   4.095818778183132e+00  -3.421944000000003e-01  2.94018488e+00   9.44653420e-01   6.00174200e-01
C     3.741874436999999e+00   4.800433074472235e+00  -2.578967999999975e-01 -3.05941658e+00  -1.57476960e-01   1.44201140e-01
C     3.667898357299999e+00   5.161213183850724e+00   3.077730600000000e+00  2.82892914e+00  -7.30663300e-02   1.08077506e+00
C     4.936688531000000e+00   5.886301807128143e+00   3.395937900000000e+00 -1.63368426e+00   1.04082867e+00  -6.33493220e-01
C     4.923543819900001e+00   4.087055020947298e+00  -9.006269999999716e-02  2.26277400e-01  -3.40937900e-01   8.28974160e-01
C     6.114534304499999e+00   4.805490303429015e+00   2.009922000000000e-01  1.32828504e+00  -4.50884300e-01  -1.60842056e+00
C     6.175335254999999e+00   5.234945233812694e+00   3.435954900000000e+00 -5.06865650e-01  -2.50817278e+00   8.69451480e-01
C     7.433171165899999e+00   5.890079550754599e+00   3.604260300000000e+00 -1.54856670e-01  -1.79003767e+00  -1.17544477e+00
C     7.357488911800001e+00   4.126153356743018e+00   1.807980000000000e-01  1.93763477e+00  -1.12320220e+00   4.93474840e-01
C     8.631836132200000e+00   4.837361049974253e+00   9.913590000000000e-02 -1.40301305e+00   5.35096100e-02   1.46980150e-01
C     8.653441955800000e+00   5.118245480846098e+00   3.390346800000000e+00 -4.94468470e-01   6.37854860e-01   1.67732060e+00
C     9.859173929199999e+00   5.834557282201648e+00   3.418929600000000e+00  9.42662390e-01   1.25405796e+00  -1.09799188e+00
C     9.860636660199999e+00   4.119130703744056e+00  -2.594550000000240e-02 -4.71668850e-01   8.10046600e-02  -1.05631738e+00
C     1.107418140180000e+01   4.828347782852194e+00  -3.148370999999983e-01 -6.62471910e-01  -1.26420221e+00   5.53239210e-01
C     1.112724200580000e+01   5.149936481220731e+00   3.164724600000000e+00 -3.70276748e+00  -2.15337730e-01  -6.32579000e-02
C     1.230227225630000e+01   5.829933493416833e+00   3.045346500000000e+00  1.80939194e+00   2.98639061e+00   1.80449868e+00
C     3.677887819100000e+00   6.194180697220515e+00  -8.098020000000261e-02  2.64855787e+00   1.31500686e+00   1.21184340e-01
C     4.971783623399999e+00   6.943882164305487e+00   1.440708000000000e-01 -2.62811753e+00  -7.84934600e-01  -8.50772760e-01
C     4.924141188000000e+00   7.326752779185840e+00   3.528866400000000e+00 -4.60098330e-01  -1.27688714e+00  -1.50702682e+00
C     6.192574133899999e+00   7.971709449536633e+00   3.483549900000000e+00 -9.40496290e-01   1.32068246e+00   8.48408730e-01
C     6.187157148499999e+00   6.214502005141029e+00   1.480065000000000e-01 -1.93873461e+00   4.45686750e-01   1.11676912e+00
C     7.375672871699999e+00   6.929888519320968e+00   2.677011000000000e-01  1.12840528e+00   1.28693971e+00  -5.99126690e-01
C     7.421129838100001e+00   7.278905714812733e+00   3.624260700000000e+00 -5.20771900e-02   1.08047738e+00  -8.68578660e-01
C     8.631769133499999e+00   8.025483697254224e+00   3.522322500000000e+00  1.54947200e-02  -1.64841558e+00   3.62036250e-01
C     8.596369317800001e+00   6.270458055426364e+00   1.197261000000000e-01  2.81296131e+00  -1.24812247e+00  -8.20964700e-02
C     9.915694209999998e+00   6.962256407056350e+00   1.960440000000000e-02 -3.75038798e+00  -1.99870430e+00  -4.39104320e-01
C     9.825280968000000e+00   7.289717212151775e+00   3.464682000000000e+00  2.20428986e+00  -1.01251130e+00   1.07025920e-01
C     1.110270125460000e+01   7.971389151253528e+00   3.431112000000000e+00 -9.53822560e-01   1.67469721e+00   4.02453310e-01
C     1.107691627000000e+01   6.225636960197054e+00  -2.984808000000001e-01  8.07628720e-01   1.19725109e+00   1.76251768e+00
C     1.232451824040000e+01   6.903487521328798e+00  -9.785279999999830e-02  7.21577500e-02   6.67630240e-01  -9.45467690e-01
C     1.233467897040000e+01   7.280680377360790e+00   3.359271900000000e+00 -1.31490371e+00  -1.03791590e+00  -1.38406645e+00
C     1.351779018110000e+01   8.026521016247333e+00   3.376627500000000e+00  2.00372196e+00  -5.20207870e-01   1.20241241e+00
