52
Lattice="8.88768389401873 1.33226762955019e-15 0 4.44384194700937 7.69696003302603 0 0 0 30 " PBC="1 1 1" Properties=species:S:1:pos:R:3:force:R:3 Energy="-413.61388139"
C     1.270983915044363e+01   6.882547229222510e+00  -2.262507000000014e-01  2.27259219e+00   3.75000070e-01   1.35355190e-01
C     8.956594284817978e+00   6.784686770917884e+00  -1.299849000000002e-01  5.70653330e-01  -3.56329641e+00  -7.56448570e-01
C     1.030505408156180e+01   6.351332912156826e+00   9.772170000000001e-02  2.04718952e+00  -1.23751138e+00  -2.32384340e-01
C     1.072492702061213e+01   4.925433659373581e+00   1.035570000000000e-01 -8.17058960e-01   1.15580626e+00  -1.54012345e+00
C     6.535502582231363e+00   6.059465573272031e+00  -4.344533999999989e-01  3.81485779e+00   3.71108759e+00  -5.68409490e-01
C     7.985066093564930e+00   5.757633672962798e+00  -2.943620999999972e-01 -3.03861316e+00  -2.29892716e+00   1.35160485e+00
C     8.237267632280679e+00   4.306734694002113e+00  -6.005310000000108e-02  3.65634402e+00   4.65750084e+00  -1.74692083e+00
C     9.691649157043472e+00   3.993292237366027e+00  -1.522646999999999e-01 -2.10070254e+00  -2.59448277e+00   1.27835594e+00
C     9.929920228913847e+00   2.553126977045577e+00  -3.351108000000025e-01  2.16990398e+00   1.23896160e+00   4.31230760e-01
C     4.222866975177782e+00   5.476334337168795e+00  -2.252559000000005e-01 -1.60484853e+00   3.16121698e+00   9.55100530e-01
C     5.548211728162732e+00   5.141232865917089e+00  -2.179821000000004e-01  8.21035530e-01  -8.51488160e-01  -1.25664521e+00
C     5.910410531208546e+00   3.789448103080315e+00  -2.064765000000008e-01 -1.64577666e+00  -2.16356450e-01   1.61368196e+00
C     7.207486539078303e+00   3.400151335652575e+00  -1.388892000000013e-01  3.19983577e+00  -1.43217806e+00   9.89994800e-02
C     7.604842131089246e+00   2.038442651340321e+00  -1.168890000000005e-01 -2.30522134e+00  -2.17863071e+00  -3.17797970e-01
C     8.919922053476622e+00   1.566611766358893e+00  -3.631112999999999e-01  8.96096040e-01   7.46714600e-01   7.13572630e-01
C     3.254440585641247e+00   4.509171131267937e+00  -5.024549999999905e-02 -4.23721920e+00   1.99874304e+00   4.54487500e-02
C     3.525399492420052e+00   3.196894248508351e+00  -1.959741000000008e-01 -2.04149210e-01  -4.35355289e+00   8.27980970e-01
C     4.921573575623835e+00   2.830304359834715e+00  -5.186249999999859e-02 -3.10606426e+00  -2.40873443e+00  -2.32892553e+00
C     5.193518393101209e+00   1.402035828815035e+00  -1.604703000000001e-01 -9.96089110e-01   9.83421610e-01   2.32281350e-01
C     6.517797246168215e+00   1.083840576330023e+00  -2.682390000000012e-02  3.70593684e+00  -3.53358564e+00  -4.10959690e-01
C     1.137910695015751e+01   7.282968489951209e+00   1.257600000000000e-02 -1.33964196e+00   2.60791485e+00  -4.83656490e-01
C     2.412518554731907e+00   2.114403488058789e+00  -3.197226000000022e-01  1.84168895e+00   3.70217733e+00  -6.17229210e-01
C     2.809743408954672e+00   8.171112779944079e-01  -5.767116000000030e-01  5.43976360e-01  -2.64035838e+00   2.79921710e-01
C     4.185244428311029e+00   3.730112315178645e-01  -4.142652000000027e-01 -4.17474850e-01   4.39858857e+00   1.10287554e+00
C     4.832360381791616e-01   2.006110262251101e-01  -4.228343999999993e-01 -4.13935303e+00  -1.03655072e+00  -1.77148450e-01
C     6.236646880014672e+00   7.481507340597043e+00  -6.735545999999992e-01  3.12295210e-01  -3.63682590e-01   1.78428910e+00
C     5.780598489470609e-01   7.932816436807283e-01   3.520416300000000e+00  8.18213700e-01  -2.23439035e+00  -7.13188580e-01
C     2.970070249093625e+00   1.939756309224477e-01   3.743103900000000e+00  4.74490760e-01  -1.76838944e+00   5.28669800e-02
C     4.330863218680267e+00   5.906417757613106e-01   3.823248000000000e+00  1.84909154e+00  -2.05565320e+00  -1.14987377e+00
C     9.889836910929283e+00   7.239156854673246e+00   3.805797300000000e+00 -2.49504762e+00   3.55681828e+00   1.32265530e-01
C     6.795317885675091e+00   3.251503795073200e-03   3.659734200000000e+00 -2.82514277e+00   1.71033080e-01  -7.03524000e-01
C     1.217613746557116e+01   6.720600881103301e+00   3.546563100000000e+00  3.50010847e+00  -1.71818247e+00  -2.41784220e-01
C     4.702280910208317e+00   7.015982497998593e+00   3.436576800000000e+00  4.43833840e-01   3.89027852e+00   1.15325460e-01
C     5.812379601618630e+00   6.136539005562836e+00   3.384936000000000e+00 -3.24294949e+00  -2.92588260e+00   1.00377601e+00
C     7.114947531997290e+00   6.426381274263738e+00   3.744298200000000e+00 -3.01372740e-01   5.37359986e+00  -1.65868529e+00
C     8.143175145771950e+00   5.546375057080188e+00   3.707232000000000e+00 -7.12287590e-01  -3.12353638e+00   1.40000018e+00
C     9.478150326840963e+00   5.906116806475933e+00   3.844131900000000e+00  4.61611510e-01   1.08704692e+00   3.69531500e-02
C     1.047626842284611e+01   4.963532764856477e+00   3.855778200000000e+00  1.90757870e+00  -2.71432652e+00  -1.40925901e+00
C     1.182294477304728e+01   5.369369452723084e+00   3.616515900000000e+00  1.64926401e+00  -1.98308573e+00  -9.59473300e-02
C     4.036341908117427e+00   4.377122469841259e+00   3.412558500000000e+00 -1.62665481e+00  -5.67399400e-01   1.81263152e+00
C     5.410171021329578e+00   4.719284670406886e+00   3.351068700000000e+00 -3.90051030e-01   1.56070190e+00  -3.71459700e-01
C     6.400383789121439e+00   3.740302628440763e+00   3.392323800000000e+00  6.40408690e-01  -1.46792277e+00   1.96199004e+00
C     7.748483146389224e+00   4.144571291610058e+00   3.720230700000000e+00  1.30281840e-01   3.75861700e-01  -2.28952962e+00
C     8.756257666488521e+00   3.180569612041524e+00   3.644062500000000e+00  2.52576723e+00  -2.04038878e+00   9.08508800e-02
C     1.018219464823348e+01   3.559074702720002e+00   3.719950500000000e+00 -2.73768730e-01  -4.22135310e-01   1.21212105e+00
C     2.398047494804818e+00   2.572937335801190e+00   3.804037200000000e+00 -3.96934701e+00  -3.41728180e-01  -2.09151245e+00
C     3.729313978729909e+00   2.975962862956040e+00   3.692443800000000e+00  2.85746420e-01   2.85348810e-01  -1.38659185e+00
C     4.706341245283562e+00   1.920748897339193e+00   3.578272500000000e+00 -1.08902900e-01   1.50102487e+00   1.47077440e+00
C     6.064987350379089e+00   2.303459299099661e+00   3.532710600000000e+00 -1.51074890e-01   2.27877556e+00  -1.75244081e+00
C     7.072966998237176e+00   1.361945981589979e+00   3.400770000000000e+00  1.50437423e+00  -2.57758730e-01   2.00439736e+00
C     8.453806894284611e+00   1.749019789991454e+00   3.484720800000000e+00 -7.25665310e-01   1.99454918e+00   1.50619100e-02
C     1.961157438882155e+00   1.161115592004013e+00   3.558213000000000e+00  6.63255590e-01   1.54838392e+00   2.11063687e+00
