64
Lattice="9.86 0 0 4.93 8.53901048131456 0 0 0 30 " PBC="1 1 1" Properties=species:S:1:pos:R:3:force:R:3 Energy="-510.80509426"
C     5.007451236700000e+00   8.377168479619939e+00  -5.967908999999985e-01 -1.82997501e+00  -1.09348639e+00   4.67126510e-01
C     1.283477679000000e+00   5.690594688915136e-01  -6.661797000000007e-01  5.68071860e-01  -1.93530443e+00   8.17251390e-01
C     1.183165835100000e+00   8.991776994384184e-01   3.831869100000000e+00  4.85870550e-01  -2.37125967e+00  -6.40803250e-01
C     2.420950893700000e+00   1.552848003033527e+00   3.811578300000000e+00  3.13446090e-01   1.09373932e+00   7.04024460e-01
C     7.459692791099999e+00   8.336878524911738e+00  -6.603263999999989e-01 -1.26138432e+00   1.96931109e+00   9.08862500e-01
C     3.727716758800000e+00   4.889985605320816e-01  -3.552770999999986e-01  8.24583180e-01   1.06515125e+00  -1.15869652e+00
C     3.679937959600000e+00   9.029147973749904e-01   3.755010300000000e+00 -3.07023092e+00  -3.63667118e+00  -5.76755100e-01
C     4.834419477100000e+00   1.600403630978953e+00   3.766895400000000e+00  2.19571678e+00   1.68313195e+00  -1.58910700e-02
C     9.908194250299999e+00   8.341092697363825e+00  -3.766829999999999e-01 -9.38033820e-01   1.53331327e+00  -2.92071200e-02
C     6.169350580100000e+00   5.262488836797192e-01  -4.867622999999988e-01  1.58308916e+00   8.59708430e-01   1.34860267e+00
C     6.040819859899999e+00   8.903895206326120e-01   3.685661700000000e+00  4.33293647e+00  -4.59635390e-01  -6.00227930e-01
C     7.380107702500000e+00   1.520250672086547e+00   3.709960200000000e+00 -9.44245360e-01   3.09780215e+00  -1.60857950e-01
C     1.235644043410000e+01   8.256428750015045e+00  -3.149385000000002e-01  9.19607910e-01   8.65880111e+00  -2.28951606e+00
C     8.699946941600000e+00   5.416405354600240e-01  -5.326586999999989e-01 -1.48522308e+00  -8.22923440e-01   3.03956810e-01
C     8.639274417599999e+00   9.128115105213105e-01   3.810384900000000e+00 -1.39656900e+00  -2.39933589e+00  -8.69227130e-01
C     9.851506793200000e+00   1.652435664388309e+00   3.843180600000000e+00 -7.99873100e-01  -1.55128955e+00   2.94624470e-01
C     1.251699194800000e+00   1.949453189320437e+00  -3.722253000000002e-01  6.40487060e-01   4.69060000e-02  -8.56483000e-01
C     2.471673100100000e+00   2.604958782438012e+00  -2.555580000000006e-01  1.17107179e+00   3.14588957e+00   2.57649072e+00
C     2.404712016000000e+00   2.956062314360355e+00   3.962687700000000e+00  6.29464460e-01   2.10984231e+00  -5.22277200e-02
C     3.643866776499999e+00   3.720369246530737e+00   3.988314300000000e+00 -2.61771380e-01   1.01419956e+00  -4.01349930e-01
C     3.741861964100000e+00   1.924913524832698e+00  -2.190332999999995e-01 -2.17280487e+00   5.26793000e-01  -8.53934970e-01
C     4.884829417300000e+00   2.753263804114023e+00  -2.977154999999989e-01  3.20523781e+00  -2.70469459e+00  -5.91752450e-01
C     4.857369859599999e+00   3.038870051610993e+00   3.833949300000000e+00  2.21796583e+00  -1.01431034e+00  -4.20863600e-01
C     6.201018139300000e+00   3.676644389466849e+00   3.659701800000000e+00 -2.56608213e+00  -1.40308545e+00   2.11174780e-01
C     6.148981299099999e+00   2.042397158961359e+00  -5.252148000000005e-01  9.27149300e-02  -2.28365723e+00   2.35657510e-01
C     7.407543349699999e+00   2.723009919203173e+00  -6.379782000000027e-01  4.14052420e-01  -2.13262003e+00   8.42526040e-01
C     7.460337635099999e+00   2.990016750242922e+00   3.617364000000000e+00 -3.20330674e+00  -1.56126724e+00   1.34751055e+00
C     8.589181821500000e+00   3.749937619680252e+00   3.831334800000000e+00  1.39519569e+00   1.36916234e+00  -1.06903299e+00
C     8.659133394300000e+00   1.975761453658793e+00  -5.864489999999982e-01  5.60192150e-01   6.61830410e-01   4.04225480e-01
C     9.935885370099999e+00   2.718372724171905e+00  -3.756366000000000e-01 -2.15875025e+00  -1.00594690e+00  -3.33216090e-01
C     9.830718511500001e+00   3.047921146549479e+00   3.892670700000000e+00 -5.04421940e-01   3.53248060e-01   1.48525540e-01
C     1.104490213180000e+01   3.719897978542346e+00   3.962006100000000e+00  1.08033417e+00   5.67278430e-01  -6.01832560e-01
C     2.479774371900000e+00   4.110020348072839e+00   1.437330000000000e-01  9.90442720e-01  -1.99699948e+00  -1.61495569e+00
C     3.714049960699999e+00   4.779492432121607e+00   2.852700000000000e-02  1.20303073e+00   1.70047021e+00  -7.02977020e-01
C     3.661859797500000e+00   5.190009801233057e+00   3.977155800000000e+00 -6.12813590e-01  -8.84119730e-01  -1.09235098e+00
C     4.900761994100000e+00   5.862005162878664e+00   3.744552900000000e+00 -4.01071290e-01  -2.48611578e+00   2.28454120e-01
C     4.956856224299999e+00   4.147553910198098e+00  -2.718018000000022e-01  4.82580500e-02  -5.97423370e-01   4.64016610e-01
C     6.235936639100000e+00   4.804897696101704e+00  -4.720461000000000e-01 -1.87964829e+00   1.47459099e+00   2.08710350e-01
C     6.152556288600000e+00   5.035343131359340e+00   3.607860300000000e+00 -2.01791398e+00   4.21660143e+00   7.73412510e-01
C     7.308543083000000e+00   5.827569297585236e+00   3.623604900000000e+00  1.48098870e+00   7.33782510e-01  -6.31893230e-01
C     7.462890191900000e+00   4.107722329572462e+00  -5.618349000000009e-01  1.81716830e-01   5.58085240e-01   5.59748000e-03
C     8.729477543000000e+00   4.781361365345365e+00  -4.440588000000005e-01 -1.47885059e+00   2.52141190e+00   4.52648700e-02
C     8.544981167000000e+00   5.227460620346765e+00   3.740545800000000e+00  2.70657389e+00  -2.91332874e+00   5.27467600e-02
C     9.857942513799999e+00   5.890605639190272e+00   3.716292600000000e+00 -2.15623043e+00  -5.65822010e-01  -1.81033430e-01
C     9.944336622600000e+00   4.133414589694791e+00  -2.142380999999993e-01  1.02047485e+00   1.20537450e-01   5.74811270e-01
C     1.119171043260000e+01   4.926720940746405e+00   1.455624000000000e-01 -3.77645958e+00  -3.97383435e+00  -1.26559005e+00
C     1.103632082590000e+01   5.147320896920602e+00   3.798896100000000e+00  1.23157310e+00   9.57459700e-02   1.11220953e+00
C     1.225440037870000e+01   5.917212768895427e+00   3.866629200000000e+00  1.24601368e+00  -3.49688698e+00  -3.61437320e-01
C     3.731153708299999e+00   6.203279696007794e+00  -1.143086999999987e-01 -8.88409000e-02   6.55137860e-01   2.54644560e-01
C     4.933424575200000e+00   6.898709091064190e+00  -4.274487000000029e-01  2.64802890e-01   2.17890647e+00  -2.09166040e-01
C     4.856991284899999e+00   7.272676335887362e+00   3.721884000000000e+00  2.33796793e+00   6.11856400e-02   1.07039960e-01
C     6.117927968599999e+00   7.964435664239454e+00   3.736277700000000e+00  1.53967560e-01   1.50054801e+00  -7.56394000e-01
C     6.156355198700000e+00   6.255859165379023e+00  -5.351378999999987e-01  1.88647846e+00  -2.21600293e+00  -3.79197220e-01
C     7.407401020599999e+00   6.936768485454808e+00  -6.907272000000013e-01  7.00774380e-01  -4.07857100e-01   7.75076820e-01
C     7.366418768700000e+00   7.241698172107599e+00   3.554903100000000e+00 -1.29503802e+00   1.79436204e+00   1.30058249e+00
C     8.603626721500000e+00   7.965541551486719e+00   3.616224000000000e+00  8.79538220e-01   1.11377498e+00   1.60954990e-01
C     8.663035538599999e+00   6.252651486092211e+00  -4.905980999999997e-01 -5.47058640e-01  -1.87327640e+00   2.07087430e-01
C     9.869572728900000e+00   6.949826084110510e+00  -2.811750000000011e-01 -2.07402410e-01  -4.28238460e-01   3.71507010e-01
C     9.904577454399998e+00   7.300128656849829e+00   3.615494400000000e+00 -3.15158260e+00  -5.09184620e-01  -2.21535880e-01
C     1.108646602510000e+01   8.014060550594499e+00   3.564271800000000e+00 -6.86958330e-01   4.71706840e-01   7.86874100e-01
C     1.103971877910000e+01   6.294912842149931e+00   9.753570000000000e-02  4.15448925e+00   4.45832190e-01  -1.08228503e+00
C     1.239613679410000e+01   6.977675554450401e+00  -6.637890000000013e-02 -2.57407285e+00  -4.62959554e+00   1.22847219e+00
C     1.229300025740000e+01   7.259390404091426e+00   3.649263000000000e+00  3.91571280e-01   3.57201548e+00   3.08642750e-01
C     1.352562730350000e+01   7.996760515362019e+00   3.717399000000000e+00  8.15670000e-04   3.99182370e-01   3.72293290e-01
