64
Lattice="9.86 0 0 4.93 8.53901048131456 0 0 0 30 " PBC="1 1 1" Properties=species:S:1:pos:R:3:force:R:3 Energy="-515.79875681"
C     5.141830465200000e+00   6.682446696043518e+00  -2.370021000000015e-01  3.89637340e-01  -7.92185900e-02  -1.31328080e-01
C     6.383488383900000e+00   7.371494717788001e+00  -3.160026000000009e-01  2.19403820e-01  -9.22324500e-02   6.04842510e-01
C     9.658443901299998e+00   1.884598977774313e+00   3.883059300000000e+00 -3.83489360e-01  -1.31354750e-01  -6.50179120e-01
C     1.089487725250000e+01   2.609277984719006e+00   3.833457600000000e+00 -7.95700420e-01   9.35720760e-01  -7.72843100e-02
C     7.623271423599999e+00   6.632191716105154e+00  -2.375772000000005e-01 -9.37945030e-01   8.98630000e-04  -1.71067690e-01
C     8.835255524400001e+00   7.344701266874171e+00  -2.475525000000012e-01  1.27632804e+00   7.43179280e-01  -3.44386910e-01
C     2.248968731100000e+00   1.877531751140646e+00   3.812018400000000e+00  3.94783200e-01   9.43455520e-01  -2.84260680e-01
C     3.483438414000000e+00   2.607807823284664e+00   3.702024900000000e+00 -4.50765330e-01  -8.27949290e-01  -1.22359850e-01
C     1.008057199610000e+01   6.632132540762528e+00  -3.096036000000026e-01  6.13069350e-01   1.50386970e+00   2.98760790e-01
C     1.134202771020000e+01   7.365157320380058e+00  -2.987991000000001e-01 -1.62116356e+00  -1.76455500e-01   3.64326610e-01
C     4.710991652000001e+00   1.897306989340963e+00   3.649698600000000e+00 -2.37491200e-02  -1.90169132e+00  -1.00135470e-01
C     5.949091293900000e+00   2.563928837081612e+00   3.658671000000000e+00 -8.45190880e-01   1.95854926e+00  -3.79272160e-01
C     1.256261870360000e+01   6.672828183858637e+00  -2.228726999999999e-01 -8.95269180e-01  -1.78502628e+00  -4.80761250e-01
C     1.374571231420000e+01   7.384904977576527e+00  -2.608746000000011e-01  2.10675826e+00  -6.79298580e-01   6.69397900e-02
C     7.172207729099999e+00   1.884060166213025e+00   3.657701700000000e+00  3.17699550e-01  -5.69562620e-01   2.64627360e-01
C     8.413388374500000e+00   2.566508984488249e+00   3.771940799999999e+00  3.18287890e-01   1.55188268e+00   4.60809200e-02
C     1.453100540800000e+00   2.585829264210192e-01  -3.839225999999982e-01  5.68135740e-01  -6.07108100e-02  -7.37291400e-02
C     2.701232781999999e+00   9.767094382837792e-01  -3.837462000000009e-01 -2.32229030e-01  -6.21238460e-01   3.67750850e-01
C     1.086973513990000e+01   4.077607972092855e+00   3.728522400000000e+00 -9.35521210e-01  -2.19953800e+00   2.94672150e-01
C     1.209726851000000e+01   4.750166481479620e+00   3.659276100000000e+00  3.89812400e-01  -9.90150090e-01  -2.65900480e-01
C     3.953328102300000e+00   2.632774182126088e-01  -2.725922999999995e-01 -2.25318816e+00  -9.89390250e-01  -1.43939220e-01
C     5.138413186400000e+00   9.721357734904816e-01  -2.290785000000000e-01  2.14984398e+00   1.31087700e-01  -2.75857820e-01
C     3.458744339800000e+00   4.010327144548525e+00   3.615556800000000e+00  2.09046350e-01   5.88972100e-01   4.16524570e-01
C     4.684002909300000e+00   4.721189605586054e+00   3.606098700000000e+00  5.79030810e-01   1.14600306e+00   1.89005660e-01
C     6.400440533999999e+00   2.460589305302128e-01  -2.770284000000025e-01 -1.22939519e+00   5.00247000e-03   4.65782260e-01
C     7.619872878800000e+00   9.397319365209776e-01  -2.681544000000002e-01 -3.67441420e-01   1.27952168e+00  -4.80785910e-01
C     5.914321975900000e+00   4.006588680370275e+00   3.654736200000000e+00  6.86550920e-01  -3.47218840e-01   2.01496030e-01
C     7.164506132400000e+00   4.702078702401081e+00   3.734242800000000e+00 -7.37824990e-01   9.53743680e-01  -1.22070150e-01
C     8.829178510600000e+00   2.322643298799824e-01  -3.404436000000004e-01  1.26472182e+00   1.55083488e+00   2.07585280e-01
C     1.008181711690000e+01   9.680128830604232e-01  -4.119494999999986e-01 -4.43071310e-01  -5.58437940e-01  -4.50488000e-02
C     8.410289179299999e+00   4.028595588959542e+00   3.756621900000000e+00 -1.08624107e+00  -1.68252893e+00   3.63381000e-02
C     9.595111445099999e+00   4.760467858332587e+00   3.728829900000000e+00  2.11944031e+00  -4.33308410e-01  -1.71919590e-01
C     2.664206510000000e+00   2.389096610838538e+00  -4.047780000000003e-01  1.88059708e+00   3.37100570e-01   1.95702850e-01
C     3.939598545300000e+00   3.112677586425607e+00  -2.809691999999977e-01 -1.32758042e+00  -3.75915440e-01  -2.46351450e-01
C     1.211059992020000e+01   6.134407196909993e+00   3.604240200000000e+00  6.85626210e-01   1.58374707e+00  -2.12115110e-01
C     1.334644901710000e+01   6.898582115978352e+00   3.625497000000000e+00 -1.01120515e+00  -1.08539146e+00   8.12935200e-02
C     5.163747421099999e+00   2.409187621646406e+00  -2.119782000000008e-01 -1.07072772e+00  -1.11149260e+00  -1.13148340e-01
C     6.372982751099999e+00   3.107174364951457e+00  -2.050701000000004e-01  1.17985842e+00  -5.10196980e-01  -1.25854150e-01
C     4.693714664200000e+00   6.188491410708006e+00   3.652762200000000e+00  9.07802780e-01  -9.92203110e-01   3.15512490e-01
C     5.936365731400000e+00   6.909353138407720e+00   3.792669300000000e+00 -4.35880400e-02  -2.87841241e+00  -7.05421420e-01
C     7.608488424200000e+00   2.374484997665581e+00  -2.934426000000023e-01  4.97623310e-01   3.68438270e-01  -7.78399500e-02
C     8.857562492600000e+00   3.085146877346934e+00  -4.366686000000009e-01 -1.14752663e+00   2.79785100e-01   6.62809800e-01
C     7.153752372700000e+00   6.138095280926409e+00   3.780703500000000e+00 -2.04288030e-01   3.93751600e-02  -4.03516600e-02
C     8.375975491900000e+00   6.846697038939358e+00   3.756495300000000e+00  7.18009390e-01   5.48337160e-01  -4.69341270e-01
C     1.008636942960000e+01   2.391739946922726e+00  -4.782098999999995e-01 -7.09333130e-01  -9.94028090e-01  -2.60598500e-02
C     1.129870050380000e+01   3.084755449106531e+00  -4.862685000000013e-01  9.15185640e-01   1.13975373e+00   3.69527430e-01
C     9.622834856399999e+00   6.168538988040228e+00   3.647747400000000e+00 -1.85278490e-01  -5.34517040e-01   3.83408530e-01
C     1.088705092680000e+01   6.822052686183135e+00   3.574099500000000e+00 -9.15017560e-01   8.15325890e-01   1.62010860e-01
C     3.935912630800000e+00   4.530898354769987e+00  -2.703525000000013e-01  1.24383076e+00   2.32762400e-02   6.22040760e-01
C     5.182812322700000e+00   5.271877734990266e+00  -1.805810999999977e-01 -1.29198139e+00  -1.03240977e+00  -3.30621650e-01
C     1.333695299900000e+01   8.305133984941394e+00   3.704529000000000e+00 -7.74591060e-01   4.60143200e-01  -2.16084550e-01
C     9.635687218499999e+00   4.519104785835640e-01   3.845828100000000e+00  6.10378630e-01   6.88961440e-01  -4.03744570e-01
C     6.385331710899999e+00   4.519124681730058e+00  -1.854392999999988e-01 -2.73312920e-01   8.02560600e-02  -8.38985000e-03
C     7.614689131700001e+00   5.179269092290894e+00  -2.183558999999988e-01  5.48801910e-01   2.17343293e+00  -3.96725520e-01
C     5.958017354700000e+00   8.289037181675649e+00   3.805237800000000e+00 -1.10237903e+00   1.22518996e+00   5.79274590e-01
C     2.240148566700000e+00   4.682850558602216e-01   3.812086500000000e+00  7.07077640e-01  -4.60722190e-01  -5.68555800e-02
C     8.838538657899999e+00   4.511223022992286e+00  -3.690509999999989e-01  1.33517570e+00  -3.74565460e-01   1.99855060e-01
C     1.010464513680000e+01   5.240834247780331e+00  -3.699212999999979e-01 -1.03394185e+00  -1.29927804e+00  -1.20014140e-01
C     8.392385243400000e+00   8.266244940292539e+00   3.734774100000000e+00  1.86856470e-01   8.73485070e-01  -1.46136270e-01
C     4.704008947900000e+00   4.359741233247400e-01   3.612487200000000e+00 -8.33488300e-02   1.06072690e-01   3.47845380e-01
C     1.132828602540000e+01   4.515214583441162e+00  -4.098702000000003e-01  5.16031350e-01   2.19292130e-01   3.20923790e-01
C     1.258933713440000e+01   5.217564590321283e+00  -2.647772999999987e-01 -2.00648935e+00   1.00082777e+00  -5.08378350e-01
C     1.087598618270000e+01   8.234993955127941e+00   3.556524300000000e+00 -6.02962390e-01   1.92166409e+00   1.32697290e-01
C     7.141314426399999e+00   4.742460536862048e-01   3.604796100000000e+00  1.45412593e+00  -1.33686469e+00   3.42213400e-01
