64
Lattice="9.86 0 0 4.93 8.53901048131456 0 0 0 30 " PBC="1 1 1" Properties=species:S:1:pos:R:3:force:R:3 Energy="-516.4579885"
C     4.907155119500000e+00   8.390990405103706e+00  -2.944049999999976e-02  3.01945110e-01   8.62803410e-01   2.00592590e-01
C     1.212534880400000e+00   5.781292642629504e-01  -4.457969999999989e-02  5.86394900e-02   1.02416260e-01   2.03564120e-01
C     1.252666559400000e+00   8.349104594726896e-01   3.389990400000000e+00  8.02512080e-01   1.13919873e+00   1.16129710e-01
C     2.508017454500000e+00   1.577347961122534e+00   3.390432000000000e+00 -1.29378560e+00  -8.60108290e-01   7.56521700e-02
C     7.369732616099999e+00   8.394194754176432e+00  -3.214260000000024e-02 -4.74817970e-01  -1.06713081e+00   3.62410510e-01
C     3.658376456700000e+00   5.237223612588968e-01   5.337630000000000e-02  1.23692068e+00   2.27985673e+00  -9.13396830e-01
C     3.732029572100000e+00   8.533601016860920e-01   3.361581900000000e+00 -9.16990700e-02   1.33460297e+00   3.13240300e-02
C     4.945845956699999e+00   1.633324248862706e+00   3.360460200000000e+00  3.17787940e-01  -3.37746353e+00   5.43087500e-02
C     9.846407940699999e+00   8.387568823604370e+00   1.417140000000000e-02 -7.72568850e-01  -1.91194100e-02   4.54755810e-01
C     6.138088611999999e+00   5.596634833197408e-01   6.091800000000000e-03  6.23839310e-01  -3.74736300e-01   2.46079880e-01
C     6.176452343699999e+00   8.802415897979704e-01   3.335179800000000e+00 -2.90616380e-01  -7.73331520e-01   1.73931360e-01
C     7.407823127200000e+00   1.568620153120821e+00   3.385956300000000e+00 -1.14794250e-01   1.39898190e-01  -1.41646460e-01
C     1.230982403030000e+01   8.366483957366736e+00   3.476850000000000e-02 -5.07589130e-01   4.67952770e-01  -3.59968320e-01
C     8.590428569199998e+00   5.459935522225183e-01  -2.239319999999978e-02  9.65111690e-01   3.31984820e-01  -1.24342280e-01
C     8.640025059399999e+00   8.994064595291775e-01   3.413401500000000e+00 -5.61461200e-02  -1.63450012e+00  -2.89584880e-01
C     9.881319686399999e+00   1.566608533031942e+00   3.385536900000000e+00  3.31974820e-01  -2.97728480e-01   5.58088980e-01
C     1.238996162400000e+00   2.006965303485543e+00   1.509120000000000e-02 -1.30940698e+00  -4.60521230e-01  -2.82289550e-01
C     2.464620390000000e+00   2.706231361340707e+00   1.936350000000000e-02 -2.22882270e-01  -8.22585050e-01   2.17422080e-01
C     2.476019831800000e+00   2.998938735342950e+00   3.421607100000000e+00  1.16848500e-02  -9.99533200e-02  -7.56236600e-02
C     3.703134053299999e+00   3.717510215041823e+00   3.398638800000000e+00  3.73681190e-01  -8.79544600e-02   2.86891220e-01
C     3.698063548300000e+00   1.987850130795329e+00   7.701899999999999e-03 -1.04865630e+00  -1.16135630e+00   4.21691410e-01
C     4.908658325799999e+00   2.689189716565352e+00   3.003720000000000e-02  5.61195250e-01   6.53530820e-01  -3.18534200e-02
C     4.943774222800000e+00   3.007079657154373e+00   3.404043600000000e+00  1.64970990e-01   1.46358837e+00  -2.63286100e-01
C     6.195935654399999e+00   3.698976890525717e+00   3.382226400000000e+00 -5.63903010e-01   8.96999710e-01   3.89745000e-02
C     6.141172228399999e+00   1.979299763431390e+00   2.415450000000000e-02  2.91190510e-01   7.78273600e-02  -3.38427870e-01
C     7.374178588700000e+00   2.693008618222323e+00  -6.756299999999271e-03  5.35877130e-01  -5.47516730e-01  -1.71289960e-01
C     7.420783949300001e+00   2.967789364403063e+00   3.371266500000000e+00 -4.69502320e-01   1.71718736e+00   2.99675550e-01
C     8.642638698900001e+00   3.700076458905226e+00   3.406485600000000e+00  1.56885190e-01  -1.23690670e-01  -8.34799700e-02
C     8.629697399599999e+00   1.969603887811560e+00  -6.945419999999913e-02 -1.26520652e+00   7.48696900e-01   8.98662600e-01
C     9.833208555899999e+00   2.717942528823922e+00   2.764740000000000e-02  1.13353637e+00  -7.68242720e-01  -7.09112510e-01
C     9.872156739099999e+00   2.975643717022777e+00   3.438002400000000e+00 -7.82307400e-02   7.50324860e-01  -3.17119810e-01
C     1.108630141240000e+01   3.694725487987935e+00   3.438423900000000e+00  8.10187090e-01   1.86203970e-01  -3.68961960e-01
C     2.422385080000000e+00   4.099555534559285e+00   8.792040000000001e-02  6.39118560e-01   1.47927253e+00  -1.63896260e-01
C     3.656708292600000e+00   4.811599367696721e+00   1.055913000000000e-01  5.94326030e-01   3.99906750e-01  -5.97790060e-01
C     3.704784765200000e+00   5.132678970260442e+00   3.399443400000000e+00  1.12458592e+00  -2.75308540e-01  -1.20327060e-01
C     4.955881464699999e+00   5.865836275320621e+00   3.363439200000000e+00 -9.26276110e-01  -1.17500520e-01   3.47230760e-01
C     4.903116759300000e+00   4.129704645811545e+00   3.799440000000000e-02  3.52017780e-01  -7.15412540e-01  -4.97260200e-02
C     6.149296375400000e+00   4.831193322704549e+00  -2.541330000000031e-02 -4.89858600e-01   4.32415790e-01   5.99508860e-01
C     6.178853303000000e+00   5.150494078605075e+00   3.379207500000000e+00  6.13355670e-01  -8.99787430e-01  -2.66403750e-01
C     7.430005366400000e+00   5.850768593597928e+00   3.337947600000000e+00 -6.70954380e-01  -7.62510990e-01   3.54766320e-01
C     7.377677212499999e+00   4.107908309220716e+00   7.782300000000001e-03  3.90302810e-01   7.07660610e-01  -1.26378580e-01
C     8.629992607999998e+00   4.839963057247719e+00   4.912050000000000e-02 -1.79517536e+00  -1.56714100e-01  -4.41804800e-01
C     8.650931451900000e+00   5.131617315087464e+00   3.373125600000000e+00  1.08946970e-01  -4.42320600e-01  -2.18550790e-01
C     9.880182039599999e+00   5.844088354919214e+00   3.331067700000000e+00  1.03220200e-02  -2.14750430e-01   4.43968450e-01
C     9.841782614700000e+00   4.142116609884853e+00   1.542300000000000e-02  2.19860000e-04  -4.82639120e-01   5.70622860e-01
C     1.106496397800000e+01   4.848989474445917e+00   7.299330000000000e-02  3.28035620e-01  -6.83980550e-01   9.46835200e-02
C     1.110945979160000e+01   5.120935439927507e+00   3.354120900000000e+00 -9.48634240e-01  -6.66699140e-01   4.71991200e-01
C     1.233289549360000e+01   5.790533901331379e+00   3.382495500000000e+00  5.10531620e-01   2.34260359e+00  -3.57785580e-01
C     3.676571509100000e+00   6.229187907705162e+00   4.326090000000000e-02  1.51841390e+00   8.97441210e-01   4.90563970e-01
C     4.950191603800000e+00   7.000103863206855e+00   4.215960000000000e-02 -2.11712859e+00  -1.97777973e+00  -5.77071900e-01
C     4.949548337400000e+00   7.302699069784519e+00   3.379904100000000e+00 -6.82801300e-01  -1.13999335e+00   2.09415800e-01
C     6.194758518300000e+00   7.954417099413584e+00   3.406230300000000e+00 -3.08263510e-01   1.00817479e+00  -4.92576630e-01
C     6.156637441199999e+00   6.281742357775684e+00  -4.092299999999938e-03 -6.51901790e-01  -1.86510612e+00  -3.28715600e-02
C     7.370621642999999e+00   6.939575087419374e+00  -1.528109999999927e-02 -6.54509500e-02   2.36809016e+00   1.61034600e-02
C     7.417071116999999e+00   7.249442456882226e+00   3.344065500000000e+00  7.49172420e-01   9.29011780e-01   2.07439770e-01
C     8.656362882200000e+00   7.982410793640483e+00   3.343245900000000e+00 -4.67912090e-01  -4.51267120e-01   1.55466200e-01
C     8.572252152200001e+00   6.259563644295562e+00   4.050180000000000e-02  2.42409891e+00  -3.54417340e-01   1.82163000e-02
C     9.828549163599998e+00   6.983024817565596e+00   6.858900000000000e-02  2.50712210e-01  -1.04579801e+00  -1.81352950e-01
C     9.875668328800000e+00   7.266275920582078e+00   3.358005900000000e+00  1.79130800e-01  -2.37619770e-01  -5.93383120e-01
C     1.110416817610000e+01   7.963884300332761e+00   3.311972100000000e+00  6.34623550e-01   7.44606070e-01   3.48927960e-01
C     1.107284497740000e+01   6.259871731793680e+00   1.071798000000000e-01 -1.86024930e-01   1.82825060e-01  -4.47691870e-01
C     1.233265510680000e+01   6.940009381492388e+00   6.206460000000000e-02 -1.24528273e+00   7.28896070e-01   1.13382270e-01
C     1.235205441030000e+01   7.236524897998396e+00   3.329867100000000e+00 -7.87349180e-01   8.95960430e-01   4.44514210e-01
C     1.355506038950000e+01   8.015568369065056e+00   3.399197400000000e+00  7.58880210e-01  -1.29002091e+00  -3.38038110e-01
