64
Lattice="9.86 0 0 4.93 8.53901048131456 0 0 0 30 " PBC="1 1 1" Properties=species:S:1:pos:R:3:force:R:3 Energy="-514.84303722"
C     9.854935016600001e+00   4.836302554235152e-01   1.776633000000000e-01 -1.15916950e-01  -8.82520690e-01  -1.06796920e+00
C     1.232798610100000e+00   1.144909244306828e+00   8.526270000000000e-02  2.00453480e-01   1.09831395e+00   5.77382460e-01
C     1.213478778200000e+00   2.675137067018416e-01   3.409445700000000e+00  1.20786230e+00  -1.14299740e+00   5.67052460e-01
C     2.497726621800000e+00   9.314572938054384e-01   3.450664500000000e+00 -1.89765157e+00   1.35814085e+00  -1.11922797e+00
C     2.501469921500000e+00   4.608252055246840e-01   1.361070000000000e-01 -1.88806494e+00   2.60544390e-01  -9.28720250e-01
C     3.711260616000000e+00   1.182312586522267e+00   2.889630000000000e-02  8.69487870e-01  -1.10238519e+00   3.68212720e-01
C     3.705917629900000e+00   2.051723551597720e-01   3.416163000000000e+00  5.97482020e-01   2.10791491e+00   1.17201680e-01
C     4.926415002600001e+00   1.035877949701795e+00   3.399339000000000e+00 -3.41166820e-01  -4.96195972e+00  -7.86203960e-01
C     4.965866834599999e+00   4.568812927542864e-01   2.731680000000000e-02  2.49663080e-01   2.12046481e+00   5.45741900e-02
C     6.222634513099999e+00   1.180328888997658e+00   8.853900000000001e-02 -1.45055407e+00  -5.80240230e-01  -5.90529800e-01
C     6.146769257400001e+00   3.161011886736704e-01   3.295444200000000e+00  7.72500850e-01  -3.20632438e+00   1.20487784e+00
C     7.411005047800000e+00   9.393546830379712e-01   3.364633500000000e+00 -5.90572730e-01   4.72395950e-01   2.77415520e-01
C     7.460086155800000e+00   5.006233986193440e-01   1.217889000000000e-01 -2.90613355e+00  -2.48379376e+00  -5.31052990e-01
C     8.619235890300001e+00   1.210825111025930e+00   9.087239999999999e-02  2.38133567e+00  -1.24064112e+00   6.89147780e-01
C     8.638886870300000e+00   2.254620687415096e-01   3.474734100000000e+00 -6.36467450e-01  -2.34887260e-01  -1.05301502e+00
C     9.835122776299999e+00   9.678784790354680e-01   3.411462900000000e+00  1.31092995e+00  -1.45908390e-01   8.36068500e-02
C     1.103042070050000e+01   2.568762941694550e+00   2.910990000000000e-02  1.99109362e+00   1.13262647e+00  -2.73052500e-02
C     2.454416867600000e+00   3.282603297246873e+00   3.221400000000000e-03 -1.06292128e+00   2.39799690e-01  -1.00855850e-01
C     2.462598547700000e+00   2.393561061687796e+00   3.285569400000000e+00  6.07582830e-01  -1.15326812e+00   5.80713490e-01
C     3.689706508100000e+00   3.117292921590047e+00   3.240191700000000e+00 -3.10596430e-01  -1.36870164e+00   8.77720910e-01
C     3.710699187600000e+00   2.592254186475554e+00   2.055000000000000e-04 -1.44365713e+00   7.43779600e-02   1.78115810e-01
C     4.906381208100000e+00   3.295501216406600e+00   2.235300000000000e-02  2.39036508e+00   1.11661029e+00   2.82030700e-02
C     4.940554982100000e+00   2.377392274563706e+00   3.320034300000000e+00 -1.67786247e+00   3.22530615e+00   3.37920740e-01
C     6.144679676899999e+00   3.085222276809473e+00   3.401468400000000e+00  1.41737205e+00  -6.90822300e-02  -1.10443698e+00
C     6.176059669200000e+00   2.577597828887682e+00   3.018300000000000e-02 -1.07119204e+00   8.66104440e-01   4.87631590e-01
C     7.394555905600000e+00   3.279588514206805e+00   7.785330000000000e-02 -9.13388630e-01   1.67506353e+00  -2.89852800e-02
C     7.378788828899999e+00   2.346354850051212e+00   3.374205000000000e+00  1.31460092e+00   2.00054485e+00  -8.76953700e-02
C     8.638258591100000e+00   3.102648347836638e+00   3.292102200000000e+00 -1.27458814e+00  -6.92434510e-01   5.86325160e-01
C     8.600238776199999e+00   2.583976128155823e+00   7.459050000000000e-02  1.13136789e+00   2.30602803e+00  -8.04917100e-02
C     9.822612901299999e+00   3.337329900803298e+00   3.535290000000000e-02  7.66973270e-01  -7.17802080e-01  -2.00534320e-01
C     9.880872929800001e+00   2.389919942229019e+00   3.323087100000000e+00 -1.93957637e+00   1.16290590e-01   2.54565400e-02
C     1.107968840900000e+01   3.106115783822251e+00   3.276028500000000e+00  1.61528231e+00  -1.16324974e+00  -1.99904190e-01
C     1.229830400070000e+01   4.709870293293766e+00  -1.241909999999891e-02  2.04500808e+00   1.56685180e-01  -8.85869400e-02
C     3.724294845800000e+00   5.454228047620353e+00   2.021670000000000e-02 -1.96866729e+00  -8.90848370e-01   1.03533190e-01
C     3.657828142100000e+00   4.513645198705043e+00   3.316974000000000e+00  2.82070759e+00  -1.72866980e-01  -6.61227750e-01
C     4.954812887199999e+00   5.176347299074952e+00   3.320902800000000e+00 -2.97528161e+00   2.84351920e+00  -2.73130900e-02
C     4.960846073300001e+00   4.751921675083784e+00   6.429450000000000e-02 -1.61510406e+00  -1.08359709e+00  -5.78875010e-01
C     6.164092833700000e+00   5.472190795456185e+00   4.521510000000000e-02  7.39526080e-01  -9.97292610e-01   1.06587550e-01
C     6.133841416999999e+00   4.518085227984328e+00   3.308447400000000e+00  2.42072798e+00  -1.42473785e+00   1.26057943e+00
C     7.370128297899999e+00   5.254452176303730e+00   3.440307000000000e+00  1.51982320e-01  -2.15620249e+00  -1.05008577e+00
C     7.385602236800000e+00   4.719648911925147e+00   1.092897000000000e-01  6.75687470e-01   6.64045510e-01  -7.44383630e-01
C     8.622973569799999e+00   5.457583366398364e+00   4.415460000000000e-02 -3.56211910e-01   9.16335940e-01  -8.03942100e-02
C     8.597077561599999e+00   4.527399751396121e+00   3.306576900000000e+00  9.70589770e-01  -3.30037750e-01   6.51342140e-01
C     9.864771106099999e+00   5.204423309362878e+00   3.320756700000000e+00 -2.40584720e-01   4.31944880e-01  -2.93469570e-01
C     9.881210437600000e+00   4.779694550499669e+00  -2.324370000000187e-02 -2.57813031e+00  -2.17721757e+00   3.34856120e-01
C     1.108340705870000e+01   5.431294058663273e+00  -4.955189999999732e-02  1.46559376e+00   1.53994021e+00   7.95784900e-02
C     1.111513860930000e+01   4.500590417922799e+00   3.225805500000000e+00 -1.23844225e+00   1.13085509e+00   6.34961270e-01
C     1.233693232550000e+01   5.221953556317898e+00   3.275761200000000e+00 -1.03052397e+00   4.76866750e-01  -2.73984600e-01
C     1.350602409520000e+01   6.871611395206958e+00   7.058639999999999e-02  3.11068946e+00  -4.19021400e-01  -1.32952490e-01
C     4.901560801999999e+00   7.604298798520423e+00   1.055199000000000e-01 -1.52379220e-01  -6.61716950e-01  -2.11649050e-01
C     4.959651238499999e+00   6.637829085433946e+00   3.346532100000000e+00 -8.64628950e-01  -1.02697202e+00   4.37441470e-01
C     6.167063355900000e+00   7.355822901073847e+00   3.421367100000000e+00 -2.91739720e-01   9.28958530e-01   1.25768860e-01
C     6.147728438200000e+00   6.887395585299029e+00  -3.924599999997724e-03 -1.75430224e+00  -2.39622700e-01   1.14705992e+00
C     7.340832660300000e+00   7.573172653689042e+00   8.858400000000001e-02  2.56628415e+00   1.52088351e+00  -2.42848410e-01
C     7.386540070699999e+00   6.630567681701963e+00   3.479437200000000e+00  4.49301060e-01   1.76107388e+00  -6.12319860e-01
C     8.634230830400000e+00   7.342406663977986e+00   3.397015500000000e+00  1.22630740e-01  -4.73017210e-01   7.52474170e-01
C     8.582678806400001e+00   6.911350071398573e+00   3.837540000000000e-02  2.10429924e+00  -1.46399397e+00  -2.14636870e-01
C     9.899246645399998e+00   7.626479049022433e+00  -2.383050000000253e-02 -2.20922130e+00  -2.73019749e+00   4.30527100e-01
C     9.863160918799998e+00   6.627007170502118e+00   3.384341700000000e+00  1.20541020e+00   4.48677660e-01  -4.05844370e-01
C     1.112371030170000e+01   7.358101450630330e+00   3.340305300000000e+00 -1.43593445e+00   1.19404662e+00  -4.66422980e-01
C     1.110675134820000e+01   6.866161457158203e+00  -3.002610000000061e-02 -4.48166750e-01   4.20662480e-01   1.26247950e-01
C     1.232795923250000e+01   7.572178542088960e+00   5.341590000000000e-02 -7.60534420e-01   1.60448901e+00   1.31777170e-01
C     1.236344221730000e+01   6.645845337692361e+00   3.267069900000000e+00 -1.86220597e+00  -8.85125500e-02   8.75264510e-01
C     1.356401410760000e+01   7.328809314469843e+00   3.387853800000000e+00  1.69547548e+00   1.18175477e+00  -1.95609350e-01
