76
Lattice="10.7446858958278 0 0 5.37234294791388 9.3051709414712 0 0 0 30 " PBC="1 1 1" Properties=species:S:1:pos:R:3:force:R:3 Energy="-604.06373473"
C     2.648747196776005e-01   1.070683675420502e-01   3.137433000000000e-01 -2.32288127e+00  -4.09893210e-01  -3.65034950e-01
C     1.268358053396042e+01   8.483661597269364e+00   3.872388000000000e-01 -5.53384950e-01   5.08193268e+00   9.90898640e-01
C     1.407287508253568e+01   8.404281789428088e+00   5.770653000000000e-01  5.44703120e-01  -1.56348537e+00  -2.36811908e+00
C     1.462746623569168e+01   7.070322446120114e+00   1.497087000000000e-01 -1.07381048e+00   1.77073406e+00   8.05681660e-01
C     8.467387383619080e+00   9.043722342426598e+00  -6.658529999999985e-02 -1.89206541e+00   1.51759124e+00   4.03549650e-01
C     9.868876506009684e+00   8.982261316161061e+00   1.788480000000000e-02 -6.46814200e-01  -3.34085153e+00   3.26983030e-01
C     1.038594136014907e+01   7.667918668970248e+00   5.471880000000000e-02  1.33370900e-02  -2.69398016e+00  -1.85117960e+00
C     1.180162469612444e+01   7.463059654571874e+00   4.202910000000000e-02 -1.12421123e+00   1.52325420e-01   1.22498659e+00
C     1.233070812612413e+01   6.196882619304110e+00  -1.409583000000012e-01  4.56992900e-02  -2.44126135e+00  -2.47372001e+00
C     1.372042268447122e+01   6.009197507547728e+00  -2.039040000000014e-01  2.09161031e+00  -1.28889408e+00   1.65723540e-01
C     6.181356607283800e+00   8.056745193231054e+00   1.989984000000000e-01 -1.91729680e-01   1.38975768e+00  -3.70291770e-01
C     7.607440584316651e+00   7.918905369804099e+00  -5.682299999996587e-03 -4.43565150e-01  -1.23920816e+00   3.81594470e-01
C     8.150136080819044e+00   6.584132010142294e+00  -9.177839999999904e-02 -1.91793045e+00   1.01060113e+00  -2.49199100e-01
C     9.527704094096759e+00   6.412213021716394e+00  -2.076494999999987e-01  9.74472430e-01   3.51326941e+00   1.19225987e+00
C     1.010386708451704e+01   5.163129957672244e+00  -3.681209999999986e-01 -1.09938733e+00  -1.43095366e+00  -4.84922150e-01
C     1.147014673078822e+01   5.067362813288534e+00  -5.791005000000027e-01  1.50569502e+00   3.24392720e-01   2.17978221e+00
C     1.201553076259651e+01   3.780010093564320e+00  -5.998260000000002e-01  2.07781567e+00  -3.19444022e+00   3.06654200e-02
C     5.275436090633606e+00   6.932135725920517e+00   7.758600000000000e-02  1.39848796e+00  -5.34772010e-01  -7.60463200e-02
C     5.838878125076301e+00   5.614513005973354e+00  -1.297746000000011e-01 -2.08833778e+00   4.29747450e-01  -7.19323800e-01
C     7.217650187855972e+00   5.487578191526114e+00  -1.241762999999985e-01  3.05768043e+00  -1.26433297e+00  -6.95396600e-02
C     7.848958022273965e+00   4.187387406611109e+00  -9.136499999999970e-02  6.46157380e-01  -1.37566022e+00   9.11583700e-02
C     9.295760493616923e+00   3.951719808695781e+00  -2.459631000000009e-01 -1.18563533e+00   2.18888042e+00   4.69576840e-01
C     9.923058679874185e+00   2.685167681987424e+00  -9.136739999999932e-02 -4.35064249e+00  -8.36413630e-01   1.08071863e+00
C     1.125648048570544e+01   2.509916046589362e+00  -3.750233999999999e-01  3.61153000e-02   2.45624652e+00   7.07799400e-01
C     3.560326187361716e+00   4.627530459778665e+00  -4.962969000000008e-01  1.26964650e+00   4.02776183e+00   9.43550060e-01
C     4.975995608968846e+00   4.458230318662117e+00  -3.931262999999987e-01  2.24874354e+00   2.16936130e-01   1.65082903e+00
C     5.652210696935602e+00   3.162071185160288e+00  -1.265301000000001e-01 -4.22492283e+00   7.44952920e-01  -7.57825780e-01
C     7.011137647198549e+00   3.033219877706244e+00   1.177182000000000e-01  6.55813100e-01  -4.60698200e-02  -1.99055550e-01
C     7.536084534297027e+00   1.722189220008106e+00   4.421625000000000e-01  3.32075069e+00   2.37876656e+00  -6.34961450e-01
C     9.015353309725711e+00   1.561498874407212e+00   4.366095000000000e-01 -6.62808860e-01   2.76439898e+00  -1.53555582e+00
C     9.533609212297112e+00   3.078992664922070e-01   5.280285000000000e-01  2.32442141e+00  -3.29716874e+00  -2.60463800e-02
C     2.709239241158710e+00   3.590627439473355e+00  -5.763326999999983e-01 -9.02446260e-01  -4.47588243e+00   6.06823100e-02
C     3.337999671720103e+00   2.174698845354921e+00  -4.156008000000000e-01 -2.21074436e+00   1.02853950e+00   1.38618491e+00
C     4.703441339937939e+00   2.024866610672204e+00  -7.409669999999835e-02  2.28432665e+00   1.41396465e+00  -9.77372070e-01
C     5.323399670086622e+00   7.626740496009465e-01   1.339722000000000e-01  9.33266860e-01   1.37176391e+00   6.77514180e-01
C     6.741228021431637e+00   6.292911238991235e-01   4.586277000000000e-01 -1.99260282e+00  -4.20586221e+00  -1.22185379e+00
C     1.015383562235900e+00   1.252976626720572e+00  -5.464410000000086e-02  3.61031614e+00  -2.11837814e+00  -1.44395730e-01
C     2.471234670809541e+00   1.018757471713764e+00  -1.349735999999986e-01  2.25803000e-02   1.99914590e+00  -1.27238132e+00
C     1.599212278971080e+01   9.195312137796462e+00   4.023389400000000e+00 -2.86481991e+00  -6.35193590e-01  -7.19740920e-01
C     1.166542145818626e+01   8.761078798692902e+00   3.537946500000000e+00 -7.76480900e-02  -2.67011769e+00   1.09636901e+00
C     1.311614874839477e+01   8.817014042247429e+00   3.784392900000000e+00 -3.32840343e+00   2.74059412e+00   7.00864100e-01
C     1.394972373690081e+01   7.736070113141646e+00   3.697376400000000e+00  7.42622740e-01  -1.72879288e+00  -9.03993160e-01
C     7.488850357846331e+00   8.221008445317780e+00   3.624625200000000e+00 -3.72923422e+00   2.90834800e-02  -1.65363812e+00
C     8.818497286903765e+00   8.402770815770850e+00   3.376962300000000e+00  1.71856806e+00  -1.63859758e+00   3.58392000e-02
C     9.644221616933541e+00   7.241142028599456e+00   3.238660500000000e+00  9.72996880e-01   9.14352390e-01   3.38934180e-01
C     1.105512061289479e+01   7.413222182586038e+00   3.498281700000000e+00  6.31055700e-01   5.13926700e-02  -1.61178324e+00
C     1.189363681382909e+01   6.238725832831973e+00   3.390982500000000e+00  1.95759019e+00   1.64444081e+00  -7.38300630e-01
C     1.338334303086446e+01   6.462138892826159e+00   3.335467800000000e+00 -1.32339893e+00  -5.19569250e-01   1.01409821e+00
C     4.628236167364927e+00   7.912721897611050e+00   3.708913500000000e+00  6.71989280e-01  -9.97271210e-01  -2.21427560e-01
C     5.460520074413222e+00   6.789852218111164e+00   3.251626800000000e+00 -4.93394410e-01   1.00489070e-01   1.24723655e+00
C     6.855067753648419e+00   6.981428473199526e+00   3.215552100000000e+00  1.24846958e+00  -2.24357336e+00   5.85102400e-01
C     7.697522204305648e+00   5.718011165529146e+00   3.008790000000000e+00 -8.59065240e-01   2.90708989e+00   8.11629750e-01
C     9.087531328216686e+00   5.972272635171911e+00   3.014880600000000e+00  1.26526485e+00  -2.46209248e+00   2.23281525e+00
C     9.975372460307534e+00   4.807829871256550e+00   3.306546000000000e+00 -2.51061151e+00  -1.93073340e-01  -1.18666205e+00
C     1.134112636909762e+01   4.915888588141745e+00   3.262648200000000e+00  2.33770733e+00   3.02532394e+00   9.27235890e-01
C     1.231034888038709e+01   3.883275623846611e+00   3.386122500000000e+00 -4.42277692e+00  -9.05496310e-01  -1.31707760e-01
C     3.505773429280525e+00   5.339251440449779e+00   3.136423800000000e+00 -9.29078670e-01   4.00909410e-01  -6.65775160e-01
C     4.912525836059244e+00   5.444682563164936e+00   3.058031700000000e+00 -1.53268050e-01   1.27281763e+00  -7.06456570e-01
C     5.701022354446705e+00   4.259467121746538e+00   2.847472500000000e+00  1.73731785e+00   2.51982546e+00   2.19040376e+00
C     7.132127806711492e+00   4.415614775946233e+00   3.129916500000000e+00 -4.45941700e-01  -4.67035500e-02  -1.02389716e+00
C     7.986341563958258e+00   3.320671124109511e+00   3.490268100000000e+00 -7.10815950e-01  -6.43687190e-01  -1.15559205e+00
C     9.380869741588548e+00   3.521066541059675e+00   3.516475200000000e+00 -4.02516840e-01   1.90829600e-02   4.43299070e-01
C     1.018017573633199e+01   2.399816333510188e+00   3.799529400000000e+00  2.45416995e+00  -9.26586490e-01   1.11822340e+00
C     1.164029028254732e+01   2.670846279497090e+00   3.769887000000000e+00  1.17533120e+00  -4.02827889e+00  -7.24430360e-01
C     2.876545443712194e+00   4.079432070175059e+00   3.049653900000000e+00  2.98012209e+00  -3.81425893e+00   2.21028214e+00
C     3.737942238376827e+00   2.804295830222843e+00   3.238379100000000e+00 -3.24186930e-01   2.99794804e+00  -1.95894745e+00
C     5.153068247494564e+00   3.007010933236640e+00   2.995570500000000e+00 -3.25441150e-01  -2.83950355e+00   2.08569325e+00
C     6.028318810371221e+00   1.903260867622301e+00   3.408429300000000e+00 -7.49313500e-01  -1.66642213e+00  -9.00372960e-01
C     7.464312879826791e+00   1.959392264180245e+00   3.589223100000000e+00 -1.77491907e+00   1.86297624e+00   1.18934961e+00
C     8.231212848172399e+00   8.283188668245270e-01   4.052061300000000e+00  1.98761972e+00   4.12500180e-01  -2.20986319e+00
C     9.678346631905081e+00   1.006091273030236e+00   4.099009200000000e+00  5.08183850e-01   2.19719602e+00  -8.94997950e-01
C     1.762758018746881e+00   1.460773190532994e+00   3.812612100000000e+00 -5.85174180e-01  -1.23435024e+00  -6.04151480e-01
C     3.143690999031330e+00   1.551376616406970e+00   3.470658900000000e+00  9.18078660e-01  -7.22712400e-01   1.99996610e-01
C     4.027172045030817e+00   3.358653994421206e-01   3.373793700000000e+00 -1.24795588e+00   3.71177553e+00   1.07064121e+00
C     5.400064776856295e+00   5.643485679263848e-01   3.479203200000000e+00  2.44665837e+00   9.65147080e-01  -4.52221610e-01
C     1.246577398533636e+00   4.760227687433920e-02   3.877021200000000e+00  1.29955429e+00   2.15502433e+00   6.26978200e-02
