76
Lattice="10.7446858958278 0 0 5.37234294791388 9.3051709414712 0 0 0 30 " PBC="1 1 1" Properties=species:S:1:pos:R:3:force:R:3 Energy="-608.17290319"
C     1.859276565164850e-01   6.720920256201320e-02   1.449561000000000e-01  2.44886575e+00   2.29838940e+00  -1.10853228e+00
C     1.271581394697927e+01   8.559955252116682e+00  -7.397850000000261e-02 -2.96631232e+00  -2.97602611e+00  -1.64214490e-01
C     1.408033672965893e+01   8.422246166341434e+00  -5.205060000000117e-02  3.77450360e-01   3.35579783e+00  -2.02859900e-01
C     1.460255306972964e+01   7.195054354399020e+00  -1.802181000000012e-01  3.69650084e+00  -3.81660863e+00   6.83797450e-01
C     8.404769180790483e+00   9.095819202968377e+00   2.649930000000000e-02  6.84577340e-01   4.20261800e-01  -5.32725450e-01
C     9.797623873591846e+00   8.955072537191475e+00  -5.915999999999144e-03  2.39925112e+00  -1.44048908e+00  -4.62381790e-01
C     1.043284062474026e+01   7.614494332742169e+00  -4.156199999999899e-02 -1.67104994e+00   1.16067482e+00  -1.22945613e+00
C     1.179037334456082e+01   7.393151487178715e+00  -2.038397999999972e-01  3.50771771e+00   9.59267950e-01   1.32348417e+00
C     1.239143590891548e+01   6.092961167522258e+00  -1.858314000000014e-01  1.26962860e-01  -9.67647720e-01  -6.02965970e-01
C     1.386481100923430e+01   5.974401658282983e+00  -1.579206000000006e-01 -2.19938546e+00   7.38913230e-01  -4.19513760e-01
C     6.179369216456306e+00   8.124981221406296e+00  -2.309879999999964e-02 -4.25195310e-01  -2.05421220e-01  -1.89127350e-01
C     7.587535677622895e+00   7.989152431522894e+00  -1.074950999999977e-01  3.53091930e-01  -2.32236186e+00   3.54475000e-01
C     8.191079189951861e+00   6.661618680955828e+00  -2.657082000000024e-01 -8.64004410e-01   1.74904541e+00   5.21156580e-01
C     9.623818908942036e+00   6.485800081492392e+00  -1.993554000000017e-01 -2.14453688e+00  -7.49898040e-01   5.51130980e-01
C     1.013644174876007e+01   5.166416730151671e+00  -9.712950000000120e-02 -2.20911320e-01  -1.60847386e+00  -5.52806350e-01
C     1.151370235657419e+01   4.901152733337741e+00  -1.857462000000005e-01  1.78859955e+00   3.08877295e+00   1.92066987e+00
C     1.213057223420778e+01   3.663257090211337e+00   1.088466000000000e-01 -3.45544490e-01  -2.41130280e-01  -1.71193086e+00
C     5.319330603812862e+00   7.037802455563875e+00  -1.395636000000025e-01 -1.03256800e+00  -2.12730952e+00   7.82848200e-02
C     5.895113930756869e+00   5.712265408577115e+00  -1.533099000000000e-01 -8.18946640e-01   1.36371630e-01  -1.22281096e+00
C     7.273253292707317e+00   5.593129537049816e+00  -3.295595999999996e-01  2.59918302e+00  -1.84948946e+00   6.61770030e-01
C     7.908159146369215e+00   4.275836871515896e+00  -2.927517000000002e-01 -2.53310703e+00  -2.95341067e+00   1.29230025e+00
C     9.247824635453529e+00   3.999457848014135e+00  -6.548099999999835e-03  1.27661084e+00   3.14459984e+00  -7.15589400e-01
C     9.801103701290852e+00   2.727336855653316e+00   2.083587000000000e-01  2.60345724e+00   6.60756300e-01  -8.14541610e-01
C     1.129542261198310e+01   2.532323735678267e+00   2.106492000000000e-01 -1.92240527e+00  -3.28535870e-01  -5.28759940e-01
C     3.741074636657254e+00   4.702311186882847e+00  -1.537046999999987e-01 -4.39186712e+00  -1.95535975e+00   1.12703740e-01
C     5.089022828037869e+00   4.514015190654256e+00  -1.789563000000030e-01  1.42360729e+00   7.88909520e-01   9.98794100e-02
C     5.640900034705819e+00   3.193932741820813e+00  -1.698639000000028e-01 -2.81918790e-01   1.37478850e+00   3.18347500e-02
C     7.051208395283143e+00   3.059306645281406e+00  -1.855641000000006e-01 -1.39304200e-01  -1.09246061e+00   2.56799950e-01
C     7.539603580099566e+00   1.666775531284765e+00  -1.918080000000089e-02  1.36945219e+00   2.53894650e+00  -6.61363500e-02
C     8.981607098655573e+00   1.641418847421556e+00   9.550889999999999e-02 -1.19426439e+00  -4.51059171e+00  -1.86484890e-01
C     9.572915690873639e+00   2.891250605519536e-01   3.385740000000000e-02 -1.73603932e+00   6.83433900e-02   8.87904990e-01
C     2.780038501554997e+00   3.492527023476439e+00  -9.182370000000262e-02  1.26933925e+00   2.07484072e+00   7.11317000e-03
C     3.288113599342429e+00   2.190383269284548e+00  -1.693785000000005e-01  2.76431494e+00   1.35503828e+00   1.56993923e+00
C     4.766905794228019e+00   2.108871460677499e+00  -7.484850000000165e-02 -2.77140800e-01  -3.24217614e+00  -1.28636528e+00
C     5.352205474579939e+00   7.333585738130236e-01  -1.039196999999987e-01 -3.07246204e+00   9.13753220e-01   1.26240392e+00
C     6.710137520651974e+00   4.500039289160922e-01   8.197800000000000e-03  1.27027434e+00   5.29199843e+00  -7.27878040e-01
C     1.104950941557723e+00   1.220608961812620e+00   8.400870000000001e-02 -3.80958443e+00   4.88993490e-01   1.20928722e+00
C     2.451107617734802e+00   1.074087134743516e+00   3.747600000000000e-03  2.02918255e+00  -2.39828210e-01  -4.07672760e-01
C     1.588921932114362e+01   9.183450278088989e+00   3.699222900000000e+00 -1.00441101e+00   1.04368706e+00  -9.96456300e-01
C     1.170933251818181e+01   8.688172226067746e+00   3.647096700000000e+00 -3.62328122e+00   1.28123373e+00   5.64128050e-01
C     1.304231432912545e+01   8.939288920139628e+00   3.763128000000000e+00  1.99937682e+00  -1.58181891e+00   2.48736850e-01
C     1.387227700795534e+01   7.766279350598357e+00   3.714388500000000e+00 -8.71825300e-02  -9.85742730e-01  -1.40511729e+00
C     7.356693031383800e+00   8.172106701321670e+00   3.576951900000000e+00 -1.38312140e-01   1.41166488e+00  -7.19151790e-01
C     8.773751364813794e+00   8.347219689672727e+00   3.532440300000000e+00  1.94229715e+00   1.25875319e+00   4.92124450e-01
C     9.736052256893339e+00   7.245005535573743e+00   3.481851900000000e+00 -2.43778732e+00   1.56135048e+00   3.38244600e-02
C     1.111529053159421e+01   7.382098805136182e+00   3.501664800000000e+00  5.68523780e-01   4.56491810e-01  -3.18432650e-01
C     1.190276786280063e+01   6.198829726323304e+00   3.324969300000000e+00 -7.16133100e-01   9.53361780e-01   2.37227030e-01
C     1.325175624722322e+01   6.452798827495134e+00   3.402811200000000e+00  3.78025198e+00  -5.46759300e-01   9.43397280e-01
C     4.553912005312286e+00   7.878331939902708e+00   3.646821300000000e+00 -8.55674110e-01   3.26479990e-01   4.43483450e-01
C     5.355939736441053e+00   6.723537149424776e+00   3.489160800000000e+00  4.69860520e-01  -9.84003400e-02   5.52208400e-01
C     6.746018056129287e+00   6.880228504762496e+00   3.524939100000000e+00  3.41699595e+00   5.49291920e-01  -1.25368620e-01
C     7.743021919834936e+00   5.815708667624360e+00   3.452617200000000e+00 -2.33710370e+00  -8.91418800e-01  -4.50181960e-01
C     9.161079670223916e+00   5.986503777504128e+00   3.391226700000000e+00 -1.35610497e+00  -1.72405136e+00   3.71183590e-01
C     9.946673565438923e+00   4.797882178263143e+00   3.347051700000000e+00  1.13911794e+00  -4.55108350e-01  -6.01770720e-01
C     1.135934172765703e+01   4.865276460675153e+00   3.218932800000000e+00  1.51781110e-01   1.96588512e+00   9.06740490e-01
C     1.222436592828151e+01   3.744677894246593e+00   3.243928800000000e+00 -1.88976044e+00   3.06890330e-01  -8.63258710e-01
C     3.391087284431971e+00   5.284018085939255e+00   3.339708000000000e+00  1.04665964e+00   8.24295100e-01  -5.91049240e-01
C     4.838909909977702e+00   5.422100960431163e+00   3.414296400000000e+00 -7.26957770e-01  -5.25958160e-01  -5.73079400e-01
C     5.757376351672173e+00   4.279245355631217e+00   3.360749700000000e+00 -1.32077330e+00   2.68838662e+00   3.69954690e-01
C     7.168590811611444e+00   4.482485921647997e+00   3.388821900000000e+00  8.31643600e-02   9.33632620e-01   2.88603640e-01
C     8.008412760499743e+00   3.362013254182255e+00   3.464944500000000e+00 -1.88137190e-01  -7.82511490e-01  -1.15961860e-01
C     9.418697858832093e+00   3.500625220693812e+00   3.396160500000000e+00 -1.37906872e+00  -2.70068850e-01   5.25552470e-01
C     1.022256126582345e+01   2.333861467990887e+00   3.462672300000000e+00 -5.85745590e-01  -5.68152470e-01   3.41265000e-03
C     1.158832903525835e+01   2.448524809105874e+00   3.319832700000000e+00  3.97298412e+00   6.14569840e-01  -2.78434400e-01
C     2.870460620640165e+00   3.984219886186210e+00   3.134374200000000e+00 -2.32764930e-01  -8.62080430e-01   1.72995698e+00
C     3.707788835377933e+00   2.851222830842067e+00   3.313821000000000e+00  8.52869820e-01   8.22787300e-02  -8.28426640e-01
C     5.131132756335996e+00   3.042854265594101e+00   3.423459300000000e+00 -6.45745890e-01  -1.98763498e+00   2.38464200e-01
C     5.941443404654784e+00   1.906038461147891e+00   3.645744900000000e+00  2.47191348e+00  -8.79295450e-01  -3.92125590e-01
C     7.411609819423283e+00   2.085250563401436e+00   3.616437900000000e+00 -1.28953396e+00  -8.18759890e-01   7.13517190e-01
C     8.224830289854081e+00   9.325079353226130e-01   3.812032800000000e+00  1.10021692e+00   2.05166950e-01  -1.38478304e+00
C     9.657087250106770e+00   1.033001176026750e+00   3.641335200000000e+00 -6.49705130e-01   1.26539540e-01   7.91676750e-01
C     1.779829390598519e+00   1.326794175580754e+00   3.306207600000000e+00 -2.94857698e+00   8.50775020e-01   7.07322260e-01
C     3.163286619941454e+00   1.522231332195540e+00   3.306131700000000e+00  1.19086204e+00   3.91999000e-01   1.15637443e+00
C     4.006526668308261e+00   4.060396016724554e-01   3.578517000000000e+00  8.10140700e-02  -1.70929014e+00  -6.22159680e-01
C     5.450479219163102e+00   5.621357052251433e-01   3.722712600000000e+00 -1.32134239e+00  -5.20928670e-01  -1.09174573e+00
C     1.157502018379174e+00   8.458177060357440e-02   3.517029000000000e+00  1.47125216e+00  -2.59781090e+00   3.24716000e-01
