76
Lattice="10.7446858958278 0 0 5.37234294791388 9.3051709414712 0 0 0 30 " PBC="1 1 1" Properties=species:S:1:pos:R:3:force:R:3 Energy="-612.44377251"
C     1.017932201731380e-01   6.691534526372800e-02  -1.006040999999982e-01  7.54013680e-01  -1.14680040e-01   7.79627160e-01
C     1.254248153361534e+01   8.516943774377301e+00  -2.556276000000004e-01  1.24295575e+00  -2.92389810e-01   6.88754560e-01
C     1.397793068632549e+01   8.315159932871179e+00  -1.934250000000013e-01 -1.11618128e+00   3.69864273e+00  -1.83270860e-01
C     1.452795481073970e+01   7.061998877662576e+00  -2.353959000000003e-01  1.15914032e+00  -9.04348380e-01   3.05941970e-01
C     8.339718703414704e+00   9.073836667139719e+00  -8.024939999999958e-02 -1.55230200e-01  -1.34104564e+00  -1.63063030e-01
C     9.779081285623352e+00   8.866818666979848e+00  -1.525533000000010e-01 -1.22284614e+00   3.70380210e-01   5.46102940e-01
C     1.034315752515129e+01   7.551366005947603e+00  -1.522328999999978e-01 -1.74747046e+00   4.18132500e-01  -2.18665180e-01
C     1.171483503300148e+01   7.348059838475697e+00  -2.187320999999969e-01  9.15469110e-01   1.53028326e+00   2.12536230e-01
C     1.227984358892497e+01   6.065939788577882e+00  -1.362416999999994e-01  2.46552610e-01   5.20243800e-02   3.72991180e-01
C     1.368775744252605e+01   5.928916586952622e+00  -1.627443000000000e-01  8.70478400e-02  -2.97491140e-01  -5.98374300e-02
C     6.043052460911596e+00   8.057480953097279e+00  -1.017135000000025e-01  7.93484630e-01   4.63093090e-01  -2.01961930e-01
C     7.475152065239280e+00   7.895972682970759e+00  -4.802880000000087e-02  3.46259990e-01   1.00762210e+00  -1.03875012e+00
C     8.064513827819123e+00   6.602051350028289e+00  -2.093474999999998e-01 -1.73934810e-01   4.22312500e-01   7.41143940e-01
C     9.473006067862201e+00   6.442510006935066e+00  -1.602959999999989e-01  4.61143840e-01  -1.38842290e+00  -1.16622540e-01
C     1.005606059237189e+01   5.108222842454878e+00  -1.243949999999998e-01 -1.74725727e+00   5.63383180e-01   3.47061360e-01
C     1.143660654907022e+01   4.938510575317397e+00   1.824060000000000e-02  4.42693120e-01   4.46440040e-01  -1.29789248e+00
C     1.199856699877416e+01   3.647789476764612e+00  -1.985910000000146e-02  3.80798100e-01  -9.89301300e-02   9.77744920e-01
C     5.210072566834128e+00   6.925945088745844e+00  -2.116202999999999e-01 -1.46479650e-01  -4.48927520e-01   4.85822900e-02
C     5.803326323264100e+00   5.637749134431047e+00  -2.578676999999985e-01  1.15901400e-02  -9.86865170e-01   1.57486740e-01
C     7.223100107438170e+00   5.470902394684540e+00  -2.664927000000006e-01 -1.67957460e-01  -8.14493350e-01  -2.44995400e-02
C     7.797768350879474e+00   4.143752017160202e+00  -2.619086999999993e-01 -1.65955947e+00   7.03738500e-02   4.92493650e-01
C     9.179339081995519e+00   3.966241179309617e+00  -1.483965000000005e-01  4.50340600e-01   1.02020090e+00   1.39714500e-02
C     9.697505588780231e+00   2.670256145556074e+00  -3.592919999999822e-02  2.35412866e+00   3.11758120e-01  -2.09408340e-01
C     1.114607351946342e+01   2.540585796955892e+00   1.170360000000000e-02 -7.80629190e-01  -2.02894186e+00  -1.76254310e-01
C     3.516438711951724e+00   4.651515933652156e+00  -8.972819999999970e-02  1.24717686e+00  -1.66843099e+00  -2.23542640e-01
C     4.978404030313330e+00   4.461525279691971e+00  -2.078364000000015e-01 -1.92416483e+00   1.74702289e+00   7.25252650e-01
C     5.522842476038992e+00   3.176505087167287e+00  -1.165395000000018e-01  2.62938860e-01  -2.28737890e-01  -1.13949527e+00
C     6.926008521558009e+00   2.988111479695534e+00  -1.923134999999974e-01  5.39012040e-01   7.72788420e-01   2.10412510e-01
C     7.466275504153285e+00   1.680955495176812e+00  -1.479852000000008e-01  6.43026600e-01   3.50562970e-01  -8.46009200e-02
C     8.884462459390212e+00   1.544547551454105e+00  -8.683259999999748e-02 -7.64524230e-01  -1.88674161e+00  -9.13910800e-02
C     9.444283964472046e+00   2.145147111276832e-01  -1.005555000000022e-01 -5.11637470e-01  -3.69892270e-01  -3.41418680e-01
C     2.669329663362616e+00   3.481123536489469e+00   1.538850000000000e-02  6.25498570e-01   1.13193417e+00  -1.07356317e+00
C     3.255417896212736e+00   2.201118924153154e+00  -1.067928000000009e-01 -1.25238980e-01  -2.07751500e-02   2.81143570e-01
C     4.678979558230562e+00   2.057086137258791e+00  -1.766997000000003e-01 -6.18119410e-01  -2.16261220e+00   1.15064320e+00
C     5.247745047302413e+00   6.947907804560398e-01  -1.147103999999999e-01 -1.36801289e+00   1.72402123e+00  -9.56051770e-01
C     6.627815766543386e+00   5.390811206524900e-01  -1.802709000000000e-01  8.96770210e-01  -9.00848050e-01   6.13499000e-02
C     9.725429952965741e-01   1.205683839831697e+00  -9.791999999997358e-04 -8.70103250e-01   9.84109250e-01  -6.23336350e-01
C     2.375317934248831e+00   1.076278874706724e+00  -9.474840000000029e-02  1.19563856e+00  -1.09911225e+00   5.15448000e-01
C     1.595896689168401e+01   9.242296272165257e+00   3.486141300000000e+00  9.01440210e-01   2.69503710e-01   7.40992130e-01
C     1.175194443820518e+01   8.788237987218897e+00   3.613294200000000e+00 -6.62262450e-01  -1.11836011e+00   5.17544070e-01
C     1.314215626061572e+01   8.942600909632301e+00   3.639907500000000e+00  9.28891120e-01  -1.05158570e+00  -1.55205310e-01
C     1.399664196586262e+01   7.791574992540198e+00   3.582819300000000e+00 -3.12576500e-01  -7.42940250e-01   2.47458190e-01
C     7.540227040498912e+00   8.252408186344553e+00   3.626525400000000e+00 -2.22586242e+00   7.32888260e-01  -1.19914049e+00
C     8.936605023253746e+00   8.421534506867943e+00   3.572558700000000e+00 -5.79185880e-01   1.03403391e+00   2.22640770e-01
C     9.757906571949933e+00   7.313469354333597e+00   3.562258800000000e+00  1.23325212e+00  -1.95139144e+00  -2.91276590e-01
C     1.117469215152835e+01   7.473920650093042e+00   3.576547500000000e+00  7.94182410e-01  -1.44485785e+00  -3.34258030e-01
C     1.203451205609030e+01   6.253388269837258e+00   3.516898200000000e+00 -6.49871610e-01   2.58598089e+00  -1.72419030e-01
C     1.344078750626192e+01   6.456674803398482e+00   3.528522300000000e+00 -2.51517430e-01   5.80903070e-01   3.60708600e-02
C     4.669442037791427e+00   7.938239467879812e+00   3.592213200000000e+00 -6.57352290e-01   1.25322460e-01  -7.39036690e-01
C     5.499402406513847e+00   6.789415991697497e+00   3.537115200000000e+00  7.77214810e-01   3.11524150e-01   8.47623530e-01
C     6.934577408563259e+00   6.959194604703780e+00   3.584247300000000e+00 -3.71756730e-01   3.28475050e-01   1.97153700e-01
C     7.775982210854917e+00   5.832446995214650e+00   3.595207800000000e+00  8.33011870e-01  -1.74305570e-01  -4.07185620e-01
C     9.194359508202563e+00   5.986310974362251e+00   3.487835400000000e+00  3.46985220e-01   3.35157700e-01   1.00814217e+00
C     1.005136446622900e+01   4.838119133183344e+00   3.480241200000000e+00 -4.50470650e-01   6.23331000e-02  -5.83162990e-01
C     1.147082654706511e+01   4.961963886464829e+00   3.421093200000000e+00 -8.60480110e-01   1.01080560e+00   5.26782850e-01
C     1.229082772015025e+01   3.832505494577458e+00   3.404229300000000e+00  1.46873742e+00   1.34523660e-01  -2.26434650e-01
C     3.531957799031389e+00   5.311588656072510e+00   3.495835500000000e+00  2.06836310e-01   4.34689880e-01  -2.10479100e-02
C     4.931891198350532e+00   5.488221644096615e+00   3.580086900000000e+00  1.29588269e+00  -4.00648280e-01  -7.66404120e-01
C     5.839515768461037e+00   4.357173091547307e+00   3.568581300000000e+00 -2.03914738e+00   1.12944270e-01   4.57177570e-01
C     7.221739669032941e+00   4.537658234237154e+00   3.627250800000000e+00  4.90352530e-01  -5.76462480e-01  -4.38159070e-01
C     8.063370056005068e+00   3.391750440317179e+00   3.577602900000000e+00  5.25926070e-01  -4.88512740e-01  -5.57909600e-01
C     9.475896388369302e+00   3.539428993185834e+00   3.448335000000000e+00  4.44845480e-01  -2.58320390e-01   9.43084100e-02
C     1.034715863128674e+01   2.387229880141616e+00   3.347059500000000e+00 -1.64840987e+00  -3.06732000e-03   1.47174734e+00
C     1.174582705873487e+01   2.544080260850700e+00   3.409459200000000e+00  3.18596310e-01  -9.23791480e-01  -9.41586680e-01
C     2.975862712189965e+00   4.015562772618540e+00   3.398448900000000e+00 -6.65373170e-01   1.47632390e-01   6.85014940e-01
C     3.834063070246208e+00   2.914665672414405e+00   3.487170600000000e+00  1.72512850e-01  -2.35208689e+00  -3.00900890e-01
C     5.252321853708377e+00   3.050807022989682e+00   3.574422300000000e+00  3.05801000e-03   4.23098450e-01   3.41966190e-01
C     6.093095029639404e+00   1.907648534875639e+00   3.707874600000000e+00  3.47864610e-01   7.97742510e-01  -1.24237731e+00
C     7.511076385311636e+00   2.079459769422056e+00   3.565481400000000e+00 -6.38060840e-01  -1.30513710e-01   1.37460280e+00
C     8.337167753811753e+00   9.188028143036340e-01   3.636374400000000e+00  5.61821530e-01   1.30539389e+00  -8.05892730e-01
C     9.744109428232603e+00   1.092683425815397e+00   3.517107300000000e+00  7.51789460e-01  -2.81312780e-01  -6.68217930e-01
C     1.859130276266322e+00   1.388306473338171e+00   3.381986400000000e+00 -2.03174030e-01   1.66426310e-01   7.73805560e-01
C     3.277906684971724e+00   1.549590674948456e+00   3.455193300000000e+00  7.88181100e-02   1.18985020e+00   1.61827360e-01
C     4.135017048366842e+00   4.165158283752544e-01   3.549614700000000e+00 -3.33698750e-01   9.85371330e-01   3.71259280e-01
C     5.540385217261063e+00   6.197714687689564e-01   3.678217500000000e+00 -6.32683830e-01  -8.02136990e-01  -5.33320050e-01
C     1.271476972468008e+00   9.276036449786861e-02   3.490562700000000e+00  7.34250740e-01  -3.35556890e-01  -3.53980600e-02
