64
Lattice="9.86 0 0 4.93 8.53901048131456 0 0 0 30 " PBC="1 1 1" Properties=species:S:1:pos:R:3:force:R:3 Energy="-505.2865305"
C     4.899543692500000e+00   8.077174597194903e+00   6.411720000000000e-02  5.15253077e+00  -2.92542050e-01  -5.09089940e-01
C     1.320163731700000e+00   3.012825044965736e-01  -8.110860000000031e-02 -2.63958581e+00  -1.57640263e+00   6.63756160e-01
C     9.833052521400001e+00   3.782699668139392e-01   3.558108000000000e+00 -7.49144960e-01   5.65164490e-01   1.25094150e+00
C     1.181759108900000e+00   1.159961470420553e+00   3.487759200000000e+00 -5.01351600e-01  -2.60056050e-01  -4.00613820e-01
C     7.392063691999999e+00   8.050582837708610e+00   1.521540000000000e-02  3.11555786e+00   9.09485010e-01  -3.71974930e-01
C     3.797502486400000e+00   2.492255371766160e-01  -2.370180000000133e-02 -9.34501900e-01   1.15534089e+00  -3.12555094e+00
C     2.397153833000000e+00   4.944734324914384e-01   3.866404200000000e+00 -1.78256205e+00  -2.05468943e+00   5.18359530e-01
C     3.558591038200000e+00   1.245738990126030e+00   3.814434600000000e+00  2.48747306e+00  -1.68952420e+00  -1.15671770e-01
C     9.989552265499999e+00   8.124965560269157e+00  -3.361362000000021e-01 -1.51455568e+00  -8.28520050e-01   2.39533408e+00
C     6.332014303200000e+00   2.081224978905072e-01  -1.864359000000029e-01 -2.72718046e+00   2.85584783e+00  -1.11533480e-01
C     4.815920835300000e+00   5.280659851098632e-01   3.909527400000000e+00  7.77906620e-01  -3.17898443e+00  -8.29992600e-02
C     6.060176321700000e+00   1.201859491582350e+00   3.839120400000000e+00 -9.69238570e-01  -8.32611110e-01  -8.50033100e-01
C     1.244557932040000e+01   8.053005184201577e+00  -1.471572000000023e-01 -2.53000260e+00  -3.42946597e+00  -2.19429664e+00
C     8.650886835400000e+00   2.034082809847088e-01   1.783200000000000e-03  2.56333432e+00   2.91956959e+00   5.46946910e-01
C     7.282268253599999e+00   4.929637354385744e-01   3.688029600000000e+00  1.55367024e+00   1.39096999e+00   1.73827530e-01
C     8.617246191600000e+00   1.151964260155509e+00   3.447445200000000e+00 -2.14124532e+00  -1.06944426e+00   1.52477174e+00
C     1.343498259800000e+00   1.681385642398862e+00  -3.694524000000001e-01 -7.94855670e-01   1.14277156e+00   2.15815934e+00
C     2.589481514000000e+00   2.394821163464329e+00  -5.982873000000026e-01 -5.98316960e-01   7.97697300e-02  -7.40528370e-01
C     1.100096109110000e+01   2.571472028159434e+00   3.051265200000000e+00  2.78149030e-01   9.62584350e-01   1.64003289e+00
C     2.403130176200000e+00   3.330250634164854e+00   3.177171900000000e+00 -7.68906160e-01  -1.19602651e+00   5.70100410e-01
C     3.824750300600000e+00   1.705060902855710e+00  -4.424504999999996e-01  4.73009460e-01  -2.00937591e+00   2.13570496e+00
C     5.126683089499999e+00   2.416474130069199e+00  -3.356372999999984e-01 -3.27090559e+00  -2.75055322e+00  -5.03523800e-01
C     3.584872720300000e+00   2.633076548487185e+00   3.542001900000000e+00 -8.70920060e-01  -4.56738210e-01  -3.35742010e-01
C     4.789252000300000e+00   3.300302189658875e+00   3.679663500000000e+00  1.65199891e+00   3.50489862e+00   1.01049754e+00
C     6.306450429100000e+00   1.669740908417182e+00  -8.576190000000139e-02  7.24993320e-01  -8.46570410e-01  -3.09539170e-01
C     7.559028297799999e+00   2.367022414846690e+00   3.332850000000000e-02 -2.50240351e+00  -2.30708638e+00  -6.76148500e-02
C     5.996260843700000e+00   2.572192549863737e+00   3.779679900000001e+00  2.86021116e+00   3.19229379e+00   1.41326270e-01
C     7.332670404400000e+00   3.311134863743908e+00   3.771339600000000e+00 -1.05183977e+00  -9.94458840e-01   9.25350780e-01
C     8.740488993800000e+00   1.635254321401501e+00   3.880620000000000e-02  1.15399242e+00   1.48535808e+00   5.93974620e-01
C     9.969849668399998e+00   2.439476601890328e+00  -4.467599999998129e-03  1.04437521e+00  -1.75419731e+00  -4.28511349e+00
C     8.590627839799998e+00   2.576715236764469e+00   3.487558500000000e+00 -1.40836603e+00   8.21572950e-01  -1.07709085e+00
C     9.719739577300000e+00   3.337863588958299e+00   3.096009600000000e+00  1.26027758e+00  -4.20461080e-01   1.33897418e+00
C     2.545612796400000e+00   3.801092867493522e+00  -9.476240999999987e-01 -8.96045290e-01   2.40482410e-01   1.42036344e+00
C     3.812437773500000e+00   4.476917036048257e+00  -8.530094999999989e-01 -1.16577443e+00   2.17115808e+00   1.10896298e+00
C     1.230077417720000e+01   4.735346687231160e+00   3.261812700000000e+00 -2.04791952e+00   2.68973330e-01  -7.94153570e-01
C     3.587206138600000e+00   5.538317148783619e+00   3.533638500000000e+00  1.13951351e+00  -2.57806541e+00   8.12941000e-01
C     4.956778576800000e+00   3.778361850815552e+00  -4.793687999999996e-01  4.45670751e+00   2.01553781e+00   2.02622270e-01
C     6.244480181200000e+00   4.526007892687882e+00  -2.395271999999977e-01 -7.53531080e-01  -3.40088584e+00   1.18322765e+00
C     4.826601483099999e+00   4.854166078769206e+00   3.852072900000000e+00 -4.83353980e-01  -3.73459695e+00  -1.51132738e+00
C     6.067243328799999e+00   5.473350136909054e+00   4.140128700000000e+00  1.12294544e+00  -4.91407985e+00   4.97640520e-01
C     7.457171441200000e+00   3.712414731318093e+00   3.826500000000000e-02  1.42119100e+00   6.05337178e+00  -2.06161871e+00
C     8.723063859500000e+00   4.511799406199685e+00  -1.956951000000018e-01 -1.03448727e+00   9.42630360e-01   4.25974390e-01
C     7.375877959699999e+00   4.676591549310481e+00   4.178898600000000e+00 -8.34384790e-01   5.82253520e-01  -3.49625914e+00
C     8.595171327800001e+00   5.451613061050957e+00   3.813336300000000e+00 -2.46509314e+00  -2.03510400e+00   1.13541152e+00
C     9.941682458500001e+00   3.833970192594141e+00  -4.969446000000026e-01 -2.16882615e+00  -1.50859246e+00   2.77021772e+00
C     1.107787870460000e+01   4.545573498180914e+00  -8.285477999999991e-01  4.55427050e+00  -7.54746700e-01  -3.25127500e-01
C     9.716663750300000e+00   4.814286508904673e+00   3.241783200000000e+00  9.72324690e-01  -3.68499879e+00   4.64439740e-01
C     1.101112744130000e+01   5.365279139422602e+00   3.235245300000000e+00  2.14880360e-01   3.09451258e+00   3.40364340e-01
C     3.858774399800000e+00   5.966414974231713e+00  -6.056804999999983e-01 -1.41104332e+00  -1.45547831e+00   6.56549420e-01
C     4.964242892600000e+00   6.665706649118317e+00  -1.575569999999971e-02  1.15977903e+00  -1.81251939e+00  -2.20289680e+00
C     1.342805476480000e+01   6.908216937673251e+00   3.659510100000000e+00 -1.76172950e-01   1.62034507e+00   1.77399893e+00
C     4.834368846000000e+00   7.491629629280597e+00   4.009682400000000e+00 -5.68803500e-02   3.16443907e+00  -2.38499578e+00
C     6.270904340300000e+00   5.899228417363081e+00  -4.952760000000112e-02 -5.71582368e+00  -1.49620540e-01  -1.92377600e-01
C     7.365804145600000e+00   6.605450950885988e+00  -1.094999999999402e-03  7.06260490e+00   3.31534361e+00   3.18805380e-01
C     6.069804118700000e+00   6.802420049457832e+00   4.250585100000000e+00 -3.93381100e-02   4.38397934e+00  -5.69721980e-01
C     7.307228695699999e+00   7.540247595519840e+00   4.250033400000000e+00  1.00588270e-01   2.10322734e+00  -1.33497248e+00
C     8.715631736599999e+00   5.981766065712237e+00  -1.590051000000017e-01 -1.43361614e+00  -1.37777190e+00  -3.04408310e-01
C     9.924739823299999e+00   6.718615638903969e+00  -3.524081999999993e-01  1.78364224e+00  -2.07648611e+00  -1.19506714e+00
C     8.520795375800001e+00   6.803232023964377e+00   4.088170499999999e+00  2.43742997e+00   2.77496232e+00  -9.04480130e-01
C     9.822228706400001e+00   7.498986840710165e+00   3.866344200000000e+00 -3.84600953e+00   2.53875261e+00  -1.32310330e-01
C     1.121408232890000e+01   5.942003053340754e+00  -7.095425999999989e-01 -2.98140552e+00   1.51477357e+00   7.23410620e-01
C     1.245335264860000e+01   6.629272911542881e+00  -6.335525999999980e-01  3.78950010e-01   1.43332744e+00   1.66423897e+00
C     1.095767450790000e+01   6.780810887976726e+00   3.477605100000000e+00  1.99261496e+00   2.95263801e+00   2.01745537e+00
C     1.216132173220000e+01   7.670589357019389e+00   3.731999100000000e+00  1.32851612e+00  -4.70305480e+00  -2.60518123e+00
