64
Lattice="9.86 0 0 4.93 8.53901048131456 0 0 0 30 " PBC="1 1 1" Properties=species:S:1:pos:R:3:force:R:3 Energy="-514.64647754"
C     1.473135257210000e+01   8.530039310199607e+00  -6.817560000000000e-02  1.25849758e+00  -1.47295010e-01   3.48485780e-01
C     1.183256793600000e+00   6.987422749523216e-01  -9.931139999999772e-02  7.92635040e-01   2.28387390e-01  -2.93970170e-01
C     1.269601355900000e+00   7.261295286549304e-01   3.677958900000000e+00  1.89402810e-01  -4.66556360e-01  -3.71919760e-01
C     2.495010635500000e+00   1.413538828898196e+00   3.467374500000000e+00 -2.74391780e-01   1.85715257e+00  -2.08169000e-02
C     7.374260722499999e+00   8.528418093669874e+00  -1.327499999998594e-03 -2.17541922e+00  -6.46890170e-01   2.50638940e-01
C     3.637924746099999e+00   7.012890348279816e-01  -1.368809999999954e-02  2.41323724e+00  -4.51309960e-01  -1.05397636e+00
C     3.727060132100000e+00   7.253502585585255e-01   3.601056600000000e+00 -2.31817490e-01   1.08017133e+00  -2.58593360e-01
C     4.957673174600000e+00   1.461450277410323e+00   3.594816000000000e+00 -7.08491810e-01   2.89947200e-02   8.84382600e-02
C     4.914655177800000e+00   4.152196314025760e-02  -7.404359999999954e-02 -4.08925100e-02  -2.49644222e+00   2.16071710e-01
C     6.162634934100000e+00   7.243221616967336e-01  -1.269185999999998e-01 -8.16515210e-01  -1.51399235e+00   6.60016690e-01
C     6.148627472999999e+00   7.217117008028928e-01   3.729651600000000e+00  2.15562000e+00   1.92443970e-01  -5.38239480e-01
C     7.407215554000000e+00   1.425548349407582e+00   3.812018700000000e+00 -1.38385690e-01   1.48997340e+00  -6.93065970e-01
C     1.230630046070000e+01   8.492092801527535e+00  -1.052040000000005e-01 -3.16644080e-01   1.75799311e+00  -2.90949720e-01
C     8.581278932900000e+00   7.023965444872375e-01  -2.505779999999902e-02  7.42271130e-01  -1.23400379e+00  -8.43398040e-01
C     8.665227367300000e+00   7.532921209918103e-01   3.735888000000000e+00 -1.25616688e+00  -9.74089220e-01   4.62259300e-02
C     9.904985411900000e+00   1.435492283281857e+00   3.647042100000000e+00 -1.79573340e-01   5.96885650e-01  -1.25956970e-01
C     1.107465364650000e+01   2.122478048605315e+00  -3.331806000000022e-01 -1.13650000e-04  -9.57034430e-01   9.29719030e-01
C     2.470684635100000e+00   2.806596414209588e+00  -4.408655999999986e-01 -1.04304093e+00  -3.49067660e-01   3.02888100e-01
C     2.474501786200000e+00   2.858513341757674e+00   3.190851000000000e+00  2.20108720e-01  -4.02355080e-01   6.56904120e-01
C     3.727813041700000e+00   3.591036369119399e+00   3.259049100000000e+00 -2.28072580e-01  -9.41738380e-01   2.46284170e-01
C     3.713915914000000e+00   2.073473094411118e+00  -2.622104999999983e-01 -1.63159496e+00   2.49098220e+00   6.04838200e-02
C     4.919176086399999e+00   2.824875617773809e+00  -2.081801999999975e-01  7.56890660e-01  -8.36458900e-02   1.47892510e-01
C     4.951472812200000e+00   2.900540814318347e+00   3.499984200000000e+00  2.68912900e-02  -1.11706719e+00   1.09971000e-03
C     6.182643832099999e+00   3.612303628620887e+00   3.661962000000000e+00 -4.32853380e-01  -2.29222772e+00   3.81178500e-01
C     6.164410818700000e+00   2.121417332723489e+00  -7.452059999999960e-02 -6.77127280e-01   3.54216560e-01  -3.12371210e-01
C     7.389874081799999e+00   2.795265061912523e+00  -4.832520000000073e-02  3.69582490e-01   1.94736093e+00  -3.15103200e-02
C     7.403359800999999e+00   2.889165315337101e+00   3.784403700000000e+00  6.64058010e-01  -1.63792748e+00  -2.00165200e-01
C     8.660663271899999e+00   3.553126065851762e+00   3.681286800000000e+00 -9.67277200e-02   1.30852177e+00   2.33589440e-01
C     8.623563937300000e+00   2.100287722070938e+00  -9.430169999999904e-02 -7.85387880e-01   4.27246530e-01   3.71973880e-01
C     9.828783683699999e+00   2.818320646378838e+00  -2.310282000000008e-01  8.72658560e-01   5.45406430e-01  -6.50229850e-01
C     9.905818581900000e+00   2.861312002442494e+00   3.491825700000000e+00 -1.40710706e+00  -2.99602050e-01   2.70318100e-02
C     1.106851387380000e+01   3.581559860678800e+00   3.158735700000000e+00  1.83985765e+00  -7.82507740e-01   8.05675450e-01
C     1.224459426360000e+01   4.223345227927426e+00  -5.406024000000009e-01  3.04842265e+00   7.79981120e-01   5.47467410e-01
C     3.664997397400000e+00   4.929385453576584e+00  -4.492958999999992e-01  3.63935260e-01   1.35347921e+00   5.45667250e-01
C     3.753512786600000e+00   5.004804043498459e+00   3.293435700000000e+00 -5.24792600e-01   4.07030390e-01  -1.06719630e-01
C     4.963022471100000e+00   5.728046874270521e+00   3.554259000000000e+00 -7.30047570e-01   3.25580500e-02   1.42014970e-01
C     4.930275734900000e+00   4.269383217540241e+00  -2.400453000000020e-01 -2.14231742e+00  -1.99398470e+00  -4.37859970e-01
C     6.128993205700001e+00   4.942813132946489e+00  -4.962360000000032e-02  1.26454737e+00   7.30226870e-01   2.30596280e-01
C     6.163256853600000e+00   4.972008949068761e+00   3.752810400000000e+00  7.05894530e-01   3.35773772e+00  -6.13071090e-01
C     7.409381549500000e+00   5.701567573552251e+00   3.824982000000000e+00  4.77381000e-01  -2.93275490e-01   2.82940560e-01
C     7.391824586999999e+00   4.236945139138712e+00  -2.183850000000120e-02 -7.43676920e-01  -4.54735120e-01  -1.72638280e-01
C     8.620410857200000e+00   4.951616255020635e+00  -9.206640000000021e-02 -1.10316263e+00   5.54981630e-01   4.26686900e-02
C     8.658164846500000e+00   5.009548915451880e+00   3.756910500000000e+00  4.17362700e-01  -9.76495030e-01  -1.64631965e+00
C     9.883080830299999e+00   5.710589892025419e+00   3.439661100000000e+00 -3.68918640e-01   6.42039770e-01   6.88336990e-01
C     9.816670969499999e+00   4.246190069615094e+00  -3.042750000000005e-01  1.23118289e+00   3.29488900e-01   3.89361770e-01
C     1.106832086430000e+01   4.988695627178463e+00  -4.260291000000009e-01 -1.69130013e+00  -1.49617424e+00   1.58825620e-01
C     1.109815495650000e+01   5.000230805655685e+00   3.151002900000000e+00  4.81297500e-02   4.81233730e-01   7.53364520e-01
C     1.236642930430000e+01   5.691377801566256e+00   3.208786200000000e+00 -3.48328050e-01   9.33203910e-01   1.30159100e-01
C     3.706639036800000e+00   6.382186054931086e+00  -3.503994000000006e-01 -1.03184340e+00  -4.57576250e-01   5.69597910e-01
C     4.921349378300000e+00   7.101915424451048e+00  -9.192780000000056e-02 -1.55703385e+00  -4.38633830e-01  -3.00050080e-01
C     4.911563722700000e+00   7.173719963577367e+00   3.652246800000000e+00  2.30728870e+00  -1.74343293e+00   5.20712140e-01
C     6.187579698800000e+00   7.843103156527038e+00   3.830207100000000e+00 -5.11603470e-01   8.41862000e-02  -8.26820390e-01
C     6.101064164099999e+00   6.365165843072036e+00   5.147010000000000e-02  1.66903988e+00   5.61641720e-01  -5.50429560e-01
C     7.342576795699999e+00   7.094814041775460e+00   8.955389999999999e-02  7.11719870e-01  -2.26704940e-01  -3.23048810e-01
C     7.431833311800000e+00   7.117653760056840e+00   3.837474300000000e+00 -1.18506081e+00   7.79645390e-01  -3.37581670e-01
C     8.632049601199999e+00   7.869553936950306e+00   3.712873800000000e+00  1.57368313e+00  -1.61773445e+00   7.06537000e-03
C     8.579368508600000e+00   6.380768408411196e+00  -2.328479999999900e-02  1.52921933e+00   6.08900510e-01   6.66742500e-02
C     9.871378341400000e+00   7.100219320799405e+00  -1.078575000000015e-01 -2.66205941e+00   1.38909195e+00   2.05983090e-01
C     9.892427913099999e+00   7.152819710746310e+00   3.565359600000000e+00 -4.82803210e-01  -7.25982590e-01  -1.30868190e-01
C     1.113502603210000e+01   7.842993942582999e+00   3.546831900000000e+00 -7.33992290e-01  -1.61509500e-01   1.02160700e-02
C     1.105781661190000e+01   6.395831991408859e+00  -2.783625000000001e-01  1.75786485e+00   1.27491490e-01  -5.35012080e-01
C     1.232468773380000e+01   7.111408840132396e+00  -3.018894000000003e-01 -4.62470780e-01  -1.30592430e+00   3.30098060e-01
C     1.237621939690000e+01   7.118976196609878e+00   3.407490600000000e+00 -1.72260430e+00   4.68261100e-02   3.84461510e-01
C     1.355041307570000e+01   7.845385719418447e+00   3.614576400000000e+00  1.07946627e+00   1.21844728e+00  -1.35430000e-01
