76
Lattice="10.7446858958278 0 0 5.37234294791388 9.3051709414712 0 0 0 30 " PBC="1 1 1" Properties=species:S:1:pos:R:3:force:R:3 Energy="-611.76755418"
C     1.358061680707420e-01   8.855731183597999e-02  -3.913125000000015e-01 -1.02494290e+00  -6.96309280e-01   3.41731600e-01
C     1.258336721240202e+01   8.577046803995854e+00  -2.294756999999983e-01 -1.20783212e+00  -4.66442860e-01  -4.79761010e-01
C     1.397618918763482e+01   8.399891144520049e+00  -2.728452000000026e-01  1.29198528e+00  -2.06621260e-01  -2.66661170e-01
C     1.457979426701399e+01   7.083792332417731e+00  -1.468697999999975e-01 -4.97050210e-01   6.64476900e-02  -5.22042470e-01
C     8.334268139151352e+00   9.037737070374572e+00  -2.353503000000003e-01 -3.31386630e-01   6.86330730e-01   6.91372990e-01
C     9.735676461503985e+00   8.869852617964835e+00  -1.686924000000012e-01  1.08866207e+00   4.53691730e-01  -6.55964790e-01
C     1.033965303839815e+01   7.562472844085006e+00  -1.709855999999981e-01 -1.16287754e+00   1.34623480e-01   2.77736270e-01
C     1.173492888499679e+01   7.402021641377269e+00  -1.541847000000018e-01  9.04290010e-01   1.37419924e+00  -1.77466020e-01
C     1.231785662221286e+01   6.127065735637871e+00  -1.270941000000008e-01  3.56447370e-01  -1.34042826e+00  -2.07220900e-01
C     1.374471518365224e+01   5.925848765145413e+00  -1.439558999999981e-01 -5.71818050e-01   9.85383610e-01   1.00302533e+00
C     6.066826367827654e+00   8.063181300815124e+00  -2.934248999999980e-01  6.31297450e-01   4.15414760e-01   3.65724090e-01
C     7.483924671489195e+00   7.896976152604929e+00  -2.394299999999987e-01 -6.28549800e-02   1.60252300e-02   4.61960700e-01
C     8.067627798963233e+00   6.605639144787625e+00  -5.886029999999920e-02  4.09133140e-01  -1.20121871e+00  -7.63674940e-01
C     9.497624990600865e+00   6.403418890764417e+00  -1.131450000000029e-01 -6.91352730e-01   1.45178408e+00   6.05633950e-01
C     1.006324814255783e+01   5.111331141755675e+00  -5.130929999999978e-02 -3.13065220e-01   4.66723160e-01  -6.67338520e-01
C     1.147581911909198e+01   4.968390502774541e+00  -1.266420000000004e-01 -4.37454900e-02   3.24521450e-01   5.89290060e-01
C     1.201814182871707e+01   3.672501870591936e+00  -9.191939999999832e-02  8.93882960e-01  -3.64708770e-01  -1.55783410e-01
C     5.254627555855659e+00   6.904084822863339e+00  -1.392734999999981e-01 -1.38668806e+00   2.09012112e+00  -5.56921160e-01
C     5.796005538972993e+00   5.641727281111316e+00  -7.124699999999962e-02  1.81652732e+00  -2.81090401e+00   7.53695750e-01
C     7.237188861930827e+00   5.433144616457883e+00  -1.199820000000074e-02 -1.14335785e+00   1.29100263e+00  -2.61643000e-02
C     7.768265699782114e+00   4.115739544459007e+00  -7.440000000258351e-05  2.20885360e+00   2.28025694e+00  -6.20427240e-01
C     9.207548610144814e+00   3.998953135542350e+00  -1.028079000000020e-01 -1.52291130e-01  -2.07194941e+00   5.89713000e-03
C     9.799669500616918e+00   2.664775772079252e+00  -2.918151000000009e-01 -3.91896765e+00   1.88453952e+00   2.77952890e-01
C     1.116037593203519e+01   2.538734347093961e+00  -2.257251000000018e-01  1.34765012e+00  -4.46614590e-01   1.94328940e-01
C     3.548191407723404e+00   4.626200657799630e+00   7.241400000000000e-03  8.92357260e-01  -6.73121100e-02  -4.50290930e-01
C     4.988436450985020e+00   4.453003790248538e+00   1.112160000000000e-02 -1.27701881e+00   5.81876440e-01  -6.30819170e-01
C     5.532585434872535e+00   3.141025586993580e+00  -1.234953000000019e-01 -7.45252110e-01   9.64963140e-01   1.11627396e+00
C     6.945137500759497e+00   3.030387104516980e+00  -1.322967000000013e-01 -1.63792565e+00  -2.00290664e+00  -9.03581300e-01
C     7.460580605732567e+00   1.743974207057706e+00  -4.051682999999997e-01  1.24898090e-01  -1.06916748e+00   1.06807243e+00
C     8.851936414850881e+00   1.572505588905300e+00  -4.311389999999982e-01  2.51692889e+00  -1.05201162e+00   8.70602700e-02
C     9.443121496904524e+00   2.427767485134888e-01  -4.460616000000002e-01  5.25149500e-02   2.97231400e-01   5.88919660e-01
C     2.702141731440606e+00   3.495881630652018e+00  -7.939200000002700e-03 -8.70636980e-01  -1.04637390e-01  -7.54665900e-02
C     3.245796298606433e+00   2.183858669524839e+00  -3.570359999999795e-02 -5.13628100e-02   1.78449000e-03  -1.49617720e-01
C     4.651133952592700e+00   1.993919659263371e+00  -1.069379999999995e-01  3.26085710e-01   2.45559990e+00  -3.27011390e-01
C     5.215887429672920e+00   7.548025263476724e-01  -2.412737999999983e-01 -3.49924990e-01  -3.24322730e+00   4.75738200e-01
C     6.611022144822265e+00   5.705607000459288e-01  -3.368660999999982e-01  1.17287805e+00   5.03918990e-01   8.68124300e-02
C     9.487546905014100e-01   1.235395250643117e+00  -2.525082000000012e-01  2.18231098e+00  -7.26425380e-01  -9.64272100e-02
C     2.392798517462970e+00   1.062829831992014e+00  -1.328343000000025e-01 -8.02726920e-01  -8.89884130e-01  -6.53766650e-01
C     1.596484074284839e+01   9.219673261420802e+00   3.363569100000000e+00  1.28814110e-01   8.04092430e-01  -4.50891970e-01
C     1.170806840588567e+01   8.766048690491955e+00   3.353609100000000e+00  1.32033925e+00  -6.24045460e-01  -1.22440000e-01
C     1.313807290390971e+01   8.914519671717860e+00   3.270699000000000e+00 -3.08514430e-01  -8.35488180e-01   5.92050290e-01
C     1.398464590011927e+01   7.732524284703249e+00   3.409563000000000e+00 -7.95115920e-01   2.04238513e+00  -6.29005590e-01
C     7.483960397569813e+00   8.252442708528740e+00   3.464210700000000e+00  1.44894789e+00  -4.42313410e-01   2.94494620e-01
C     8.914535116074568e+00   8.432728069198506e+00   3.550333500000000e+00 -1.41182284e+00  -7.44676660e-01  -6.13871080e-01
C     9.726396222568727e+00   7.301679795804326e+00   3.579233100000000e+00  1.31453438e+00  -1.37205469e+00   2.92643930e-01
C     1.116340394569210e+01   7.457508654847618e+00   3.478962300000000e+00 -5.90195190e-01  -8.35840720e-01   5.73480930e-01
C     1.200579870961916e+01   6.303383836677367e+00   3.638288100000000e+00  5.55928640e-01  -5.05371620e-01   9.22981300e-02
C     1.344561181650759e+01   6.459655901012529e+00   3.605976900000000e+00 -1.08516493e+00  -1.22799785e+00   3.86592270e-01
C     4.623831598273940e+00   7.942074128824186e+00   3.359574900000000e+00  1.85626190e+00  -1.27094509e+00   9.93132040e-01
C     5.502552157462002e+00   6.814675343472675e+00   3.573702300000000e+00  7.23285400e-02  -8.99127520e-01  -8.25314000e-01
C     6.939436800208393e+00   6.935945076799935e+00   3.514762500000000e+00 -1.94584860e+00   1.49228235e+00   3.75957240e-01
C     7.746990684465819e+00   5.818968269004641e+00   3.654003600000000e+00  1.68626904e+00  -1.06871565e+00   6.54575740e-01
C     9.169308917707866e+00   5.982573459402490e+00   3.734850600000000e+00  7.98896020e-01   2.62103080e-01  -9.73440510e-01
C     1.006398458332942e+01   4.846755913694723e+00   3.745197900000000e+00 -1.46007433e+00  -8.50562900e-01  -1.26990150e-01
C     1.146228457549804e+01   4.949903361357786e+00   3.795320400000000e+00  3.96584890e-01   2.96372221e+00  -7.17101440e-01
C     1.233822032699454e+01   3.847714703427179e+00   3.768398400000000e+00 -1.86832628e+00  -6.15200490e-01   2.02345140e-01
C     3.550071244245039e+00   5.306096092821756e+00   3.797600100000000e+00 -1.06074059e+00   2.93713480e-01  -5.84950640e-01
C     4.952013577486904e+00   5.477808878659626e+00   3.714180000000000e+00 -9.45044160e-01   2.12818106e+00   4.22758560e-01
C     5.765656045456424e+00   4.375986658360636e+00   3.785225100000000e+00  2.52624674e+00  -2.78616273e+00  -6.87180990e-01
C     7.206420648004734e+00   4.509410340711177e+00   3.744578700000000e+00 -7.74697330e-01   1.34122580e-01  -8.02678990e-01
C     8.062517948689770e+00   3.384260056865607e+00   3.561115200000000e+00 -1.04757400e-01  -6.06114940e-01   6.25478280e-01
C     9.487703562534522e+00   3.534313289358150e+00   3.600785700000000e+00 -2.66506190e-01  -1.19070360e-01   3.48852930e-01
C     1.031954349916143e+01   2.369025615921437e+00   3.564092100000000e+00  3.76765980e-01   7.20768510e-01  -7.77083310e-01
C     1.176844440766066e+01   2.562533903652070e+00   3.620532900000000e+00 -2.09469868e+00  -1.26203906e+00   6.31586090e-01
C     2.954744945351817e+00   3.988289037438272e+00   3.855347700000000e+00  2.60515182e+00   1.00825829e+00  -6.95304230e-01
C     3.820273501532436e+00   2.857309063998792e+00   3.717256800000000e+00  5.53546360e-01  -5.99118510e-01   1.87937640e-01
C     5.253725270857206e+00   3.028392448074282e+00   3.670273800000000e+00 -1.13234120e+00   6.24642060e-01   1.70452150e-01
C     6.092645095917341e+00   1.887825450067029e+00   3.474075000000000e+00 -4.88959690e-01   7.96463910e-01   4.18101840e-01
C     7.495300822579537e+00   2.065205364162489e+00   3.451238100000000e+00  4.33698780e-01   5.67939400e-02  -4.80259480e-01
C     8.337030651619671e+00   9.148151763490063e-01   3.294194700000000e+00 -5.20365910e-01   3.36317200e-02   3.27899870e-01
C     9.732472557338896e+00   1.066700317844507e+00   3.361499100000000e+00  1.71458465e+00   4.41655010e-01   4.17576350e-01
C     1.795600601732828e+00   1.394775986485916e+00   3.638189100000000e+00  3.01859901e+00  -7.58989270e-01  -1.14199701e+00
C     3.273356310493075e+00   1.538476020467464e+00   3.628516500000000e+00 -1.66994248e+00   5.25796990e-01   9.62609900e-02
C     4.113537615401299e+00   3.954132825623942e-01   3.514621800000000e+00 -4.18912360e-01   1.77087477e+00   1.36783120e-01
C     5.505568298240992e+00   5.945132336142922e-01   3.416786400000000e+00  3.26236800e-01  -8.73872500e-02   3.01867100e-02
C     1.289509725090548e+00   6.484047824752680e-02   3.421935900000000e+00 -2.14449043e+00   1.46845559e+00   7.34776620e-01
