76
Lattice="10.7446858958278 0 0 5.37234294791388 9.3051709414712 0 0 0 30 " PBC="1 1 1" Properties=species:S:1:pos:R:3:force:R:3 Energy="-611.8763867"
C     5.413791327987263e+00   9.293230544649791e+00  -1.241063999999987e-01 -2.40692814e+00   1.85531120e+00  -4.27215430e-01
C     1.251442667521957e+01   8.444985305619221e+00  -2.330729999999974e-01 -3.02203297e+00   2.79599883e+00  -4.24433960e-01
C     1.390439550655848e+01   8.403308840754601e+00  -2.290968000000007e-01 -1.67675900e-02  -4.64197006e+00  -2.63737500e-02
C     1.449045429896924e+01   7.052210116988824e+00  -2.073860999999972e-01 -1.98500667e+00  -5.88306960e-01   4.25490370e-01
C     8.175210148452432e+00   8.964103950002420e+00  -9.805199999999914e-02  2.27232345e+00   1.12795420e-01  -5.23484390e-01
C     9.614492575304267e+00   8.837099625928257e+00  -1.796316000000004e-01 -9.12337500e-01  -1.09982898e+00   1.63374580e-01
C     1.018300072914881e+01   7.544864203856696e+00  -2.331390000000013e-01  2.47344630e-01  -1.32714639e+00   9.79018180e-01
C     1.159119996160740e+01   7.352965431543556e+00  -1.772166000000013e-01  2.06224294e+00  -3.44085700e-01  -6.02689610e-01
C     1.221653616821932e+01   6.045144499509461e+00  -1.399554000000016e-01 -1.71988317e+00  -1.41410370e-01   8.03508360e-01
C     1.361556830328517e+01   5.854972487767655e+00  -1.255296000000001e-01  1.15312508e+00   2.20596772e+00  -4.95138060e-01
C     5.923594117543987e+00   8.033877270387457e+00  -1.514858999999973e-01  2.74930138e+00  -1.68298377e+00  -2.23373880e-01
C     7.359060515475006e+00   7.851838908564305e+00  -1.752479999999998e-01 -1.35146887e+00   7.80719200e-02   4.79523130e-01
C     7.927647589037488e+00   6.585490565099534e+00  -1.600010999999988e-01  1.08938095e+00  -1.93525413e+00  -3.30848800e-02
C     9.345984754983299e+00   6.366820257681757e+00  -1.192722000000010e-01  5.18937000e-03   2.24202858e+00  -7.41345840e-01
C     9.935161977582808e+00   5.097054869344399e+00  -8.129190000000008e-02 -1.66237100e-01  -1.10500924e+00   9.65232800e-01
C     1.134517883483167e+01   4.929276681986797e+00   1.452090000000000e-02  1.13083320e+00  -1.94290286e+00  -9.38951120e-01
C     1.193823419063649e+01   3.542351096016122e+00   4.248690000000000e-02 -1.35311692e+00   2.44394237e+00  -2.64319610e-01
C     5.128866594632827e+00   6.885454381814109e+00  -1.858778999999977e-01 -6.58767240e-01  -5.10966330e-01  -1.81690000e-01
C     5.689096720119435e+00   5.581069198046191e+00  -1.900497000000030e-01  8.84389470e-01  -4.63415000e-02   3.10791500e-01
C     7.117247920996018e+00   5.427587289217387e+00  -1.700078999999981e-01 -1.54998904e+00   1.36088080e-01   3.46892430e-01
C     7.642383860842907e+00   4.132068816734776e+00  -8.212860000000077e-02  1.64900247e+00  -1.36509746e+00  -3.30337960e-01
C     9.080600414853460e+00   3.950260385685552e+00  -1.571879999999837e-02 -3.45970110e-01  -7.10079320e-01  -9.24467560e-01
C     9.643517786283660e+00   2.613671866328481e+00  -1.090650000000011e-01 -3.88458570e-01   1.11179469e+00   6.74736410e-01
C     1.105722624899061e+01   2.422831650261474e+00   1.141500000000000e-03 -2.62889620e-01   7.22334180e-01  -4.43276850e-01
C     3.460923391184181e+00   4.575073954380056e+00  -9.624750000000049e-02 -9.23583130e-01  -1.02836275e+00   3.50560820e-01
C     4.868805977749291e+00   4.442623685961550e+00  -1.077948000000006e-01  6.19370000e-04  -1.59891802e+00  -1.83814480e-01
C     5.441334040929605e+00   3.087096910500554e+00  -9.372839999999982e-02 -2.57808359e+00   9.51363510e-01  -2.22340590e-01
C     6.815590971800377e+00   2.951835456889363e+00  -1.494831000000012e-01  9.01698090e-01  -2.46838550e-01   4.86900690e-01
C     7.379655445897261e+00   1.624879278282543e+00  -1.854386999999988e-01 -6.65918010e-01   4.93672290e-01  -8.31028880e-01
C     8.779699569204602e+00   1.491626159715333e+00  -2.247848999999995e-01  9.38291570e-01  -5.51454480e-01   5.22387730e-01
C     9.352846848633334e+00   1.765307241954750e-01  -2.304785999999979e-01  1.39584443e+00   2.10498994e+00   3.52948830e-01
C     2.595803186791191e+00   3.393669538771845e+00  -2.125290000000035e-02  1.08508400e-02   8.62706920e-01   3.82262340e-01
C     3.123117181916869e+00   2.082673775464732e+00   1.123500000000000e-02  5.57201260e-01   1.73649650e-01  -7.42972540e-01
C     4.529309414496191e+00   1.946148958795018e+00  -8.699310000000082e-02  1.13598146e+00   4.67335510e-01   2.86535640e-01
C     5.075017506031226e+00   6.416054940694100e-01  -1.570581000000004e-01  2.11283883e+00   7.23816920e-01  -6.68306780e-01
C     6.530363130856703e+00   4.790628611411994e-01  -2.994878999999990e-01 -3.03646910e-01  -5.63774200e-01   1.42507229e+00
C     8.517228704379981e-01   1.130604881998889e+00  -6.089580000000083e-02  1.40876423e+00  -4.40030900e-01   1.38939440e-01
C     2.276297702612765e+00   9.278761003838092e-01  -5.455230000000100e-02 -1.08453208e+00   2.38493661e+00   4.93889110e-01
C     1.611015810687782e+01   9.300377381190259e+00   3.519748500000000e+00 -1.85385174e+00   1.05205027e+00   3.29976740e-01
C     1.188059303376364e+01   8.772719009228584e+00   3.587608500000000e+00 -2.20044990e+00   1.32317293e+00  -4.14643150e-01
C     1.325877843669317e+01   8.958564116483291e+00   3.570383100000000e+00  1.25829121e+00   1.87721650e-01  -4.00085830e-01
C     1.411305811258793e+01   7.827818540299790e+00   3.534315600000000e+00 -5.98422700e-01  -7.78605800e-02   6.15316770e-01
C     7.540146885142098e+00   8.319183395733925e+00   3.507641400000000e+00  2.70606381e+00   1.27036611e+00   1.09140663e+00
C     9.007182513333056e+00   8.502667315862606e+00   3.565449600000000e+00 -5.78296470e-01  -1.41867584e+00  -3.64543960e-01
C     9.884517975061751e+00   7.321005053967646e+00   3.584676000000000e+00 -9.84778050e-01   2.71170074e+00  -3.72334880e-01
C     1.127497821461030e+01   7.486857070940668e+00   3.551909100000000e+00  1.21076164e+00  -3.11789650e-01   7.09528860e-01
C     1.212910284468752e+01   6.334583051270384e+00   3.596246400000000e+00 -8.62412840e-01   2.89333950e-01  -1.12255450e-01
C     1.352174753260297e+01   6.514864875975191e+00   3.609939600000000e+00  1.32371433e+00   7.38329950e-01  -8.84037540e-01
C     4.775568858405183e+00   8.000445373079097e+00   3.539714700000000e+00 -2.46928190e-01  -3.17743470e-01  -4.23946860e-01
C     5.582397100300352e+00   6.841693093400384e+00   3.513510300000000e+00  1.23489041e+00  -5.23683890e-01   5.47307890e-01
C     6.994018300324367e+00   7.036561704070736e+00   3.578643000000000e+00  4.77642240e-01  -1.10916441e+00  -8.11111640e-01
C     7.897493756251158e+00   5.915676724480642e+00   3.542142900000000e+00 -5.89386480e-01  -1.19846143e+00   1.84902000e-01
C     9.312823108549551e+00   6.065979986916343e+00   3.537359700000000e+00 -8.13522130e-01  -1.43066189e+00   1.00970030e-01
C     1.013830036452705e+01   4.905619959802617e+00   3.498982200000000e+00  4.57681030e-01  -8.94536950e-01  -3.65987360e-01
C     1.155321443471541e+01   5.033675116831033e+00   3.546576300000000e+00  4.30592900e-01   6.00961500e-02  -7.31643630e-01
C     1.242384983265745e+01   3.888631494136257e+00   3.395999100000000e+00 -1.77750132e+00   9.68600010e-01   9.54546980e-01
C     3.636956159008497e+00   5.403231376488775e+00   3.517166400000000e+00  5.84329570e-01  -1.86057879e+00   5.58558510e-01
C     5.079889522682293e+00   5.498273555004549e+00   3.529479600000000e+00 -1.25767174e+00   1.89488233e+00   4.36028530e-01
C     5.944966049927100e+00   4.390426422625329e+00   3.661098000000000e+00  4.72780700e-02  -4.01311390e-01  -1.17533847e+00
C     7.375672981791855e+00   4.561209994093131e+00   3.566745600000000e+00 -8.59098040e-01   1.20853636e+00   4.85664690e-01
C     8.217494731619862e+00   3.423012464814041e+00   3.542717400000000e+00 -1.39265091e+00  -6.29362580e-01  -8.13878100e-02
C     9.596424526388544e+00   3.572734898479667e+00   3.395421600000000e+00  5.30452650e-01   1.17811506e+00   9.59421800e-01
C     1.044357435106064e+01   2.440187096788506e+00   3.419476500000000e+00 -8.46007080e-01   1.09374320e-01  -1.10463570e-01
C     1.182437033659987e+01   2.601655912990241e+00   3.374547300000000e+00  2.19984427e+00  -4.21392840e-01   2.23564690e-01
C     3.060354248169199e+00   4.083247376363878e+00   3.498173100000000e+00  9.10621660e-01  -9.70523100e-02  -8.43121630e-01
C     3.894996237708537e+00   2.932230764442715e+00   3.440777100000000e+00  2.26589090e+00   6.71563360e-01   8.71028940e-01
C     5.358905162302595e+00   3.091258089893212e+00   3.598046100000000e+00 -1.42641133e+00   2.07755160e-01  -2.45800160e-01
C     6.193802553025776e+00   1.957785819469163e+00   3.614543100000000e+00  3.61480600e-01  -7.74678670e-01  -1.45813750e-01
C     7.614246859323436e+00   2.116194723258988e+00   3.627885600000000e+00  3.59353710e-01   3.38598700e-02  -9.38815130e-01
C     8.458790829047638e+00   9.658921901557604e-01   3.506643900000000e+00 -5.26133530e-01   4.81408940e-01   9.47321650e-01
C     9.863389194920554e+00   1.155650959256121e+00   3.505042500000000e+00  5.68216660e-01  -1.47453123e+00  -4.54683740e-01
C     1.964891132878323e+00   1.460701354613337e+00   3.433369800000000e+00 -1.10011668e+00   9.42148510e-01   1.54245090e-01
C     3.364232876068383e+00   1.628668157785893e+00   3.437158500000000e+00 -1.20728020e-01   1.66481700e-01   1.35987410e-01
C     4.207665684100236e+00   4.936308506614446e-01   3.529951200000000e+00  7.27882840e-01  -6.15646080e-01  -2.08451850e-01
C     5.640261048235346e+00   6.368384549968481e-01   3.543433500000000e+00 -8.77914000e-03  -2.64917510e-01   5.33065820e-01
C     1.374917836500481e+00   1.963430150057948e-01   3.563622900000000e+00  4.03730460e-01  -1.56549514e+00  -1.09761526e+00
