52
Lattice="8.88768389401873 1.33226762955019e-15 0 4.44384194700937 7.69696003302603 0 0 0 30 " PBC="1 1 1" Properties=species:S:1:pos:R:3:force:R:3 Energy="-416.1631959"
C     1.318497881994150e+01   7.504283953809017e+00  -3.474419999999974e-01  1.04129138e+00   7.78454600e-02   6.52312470e-01
C     9.394495447477457e+00   7.240653451581480e+00  -3.402908999999994e-01  1.46120840e+00   1.64920787e+00   5.27947030e-01
C     1.081142507217577e+01   6.860129217378332e+00  -5.316425999999979e-01 -1.39669981e+00   8.47662080e-01   4.01469330e-01
C     1.115016047862295e+01   5.499318691331979e+00  -4.942223999999982e-01  2.89490510e-01  -1.02214391e+00  -2.56310000e-02
C     7.013760717794443e+00   6.650880508668356e+00  -8.568449999999928e-02  6.13836300e-01   2.88803419e+00   3.55180970e-01
C     8.375008203021023e+00   6.255998519164446e+00  -1.940495999999996e-01  2.18427510e-01   3.20608870e-01  -5.87152950e-01
C     8.656697832647740e+00   4.866204474368326e+00  -3.143649000000011e-01  3.91801367e+00   2.06335910e+00  -2.13756300e-02
C     1.011877506951615e+01   4.461209218172200e+00  -3.753122999999974e-01 -1.38981759e+00   2.97519982e+00   1.39809560e-01
C     1.044386241529581e+01   3.145362254441898e+00  -1.727604000000014e-01  4.42404230e-01  -2.40762604e+00   2.72867130e-01
C     4.668281697042942e+00   6.119975840304678e+00  -2.926862999999997e-01 -1.99097718e+00   2.06340640e+00  -1.17610112e+00
C     5.975346795047592e+00   5.759656049210681e+00  -2.211086999999985e-01  1.18965531e+00  -2.50066365e+00   1.28291470e-01
C     6.273215653301657e+00   4.365476584467868e+00  -3.282962999999981e-01  1.87723839e+00   1.06408709e+00  -1.95272620e-01
C     7.626909629314451e+00   3.984552647130362e+00  -3.397025999999990e-01  6.45852330e-01  -3.28332908e+00   3.40004090e-01
C     8.026579085352859e+00   2.569157897517659e+00  -3.176972999999990e-01 -1.10023769e+00  -5.15570600e-02  -1.72484110e-01
C     9.370138479840151e+00   2.151044481433602e+00  -1.149543000000008e-01  1.65820155e+00   8.98967820e-01  -6.30220260e-01
C     3.697311430171264e+00   5.131680399732657e+00  -4.844429999999988e-01 -4.16727807e+00   2.25627924e+00   9.44474920e-01
C     3.960177212012749e+00   3.839285226548162e+00  -2.818688999999992e-01  3.12511600e-02  -6.22358149e+00  -1.93596940e-01
C     5.310784317613564e+00   3.391695917181219e+00  -3.759869999999985e-01 -1.64570751e+00   2.71997320e-01   1.14047409e+00
C     5.646336822277976e+00   2.046787387526446e+00  -3.193577999999988e-01 -8.33394800e-01  -3.49198572e+00  -5.62301100e-01
C     6.967031983365461e+00   1.603292399077861e+00  -4.554092999999995e-01  2.59661204e+00  -9.68588610e-01   5.25638900e-01
C     7.393714265871218e+00   1.845998869403044e-01  -5.325093000000010e-01 -1.66875260e+00   9.60503710e-01   7.16153530e-01
C     2.951819036359226e+00   2.720228287175278e+00  -1.159794000000005e-01 -4.86054010e-01   3.60446369e+00  -1.82710970e-01
C     3.318030450940479e+00   1.388119879019995e+00   4.100250000000000e-02 -1.87962919e+00  -1.83666816e+00  -6.12017590e-01
C     4.639707967749533e+00   9.772741635050654e-01  -1.813706999999987e-01  1.02112857e+00  -4.08414050e-01  -3.44896920e-01
C     9.184987142034080e-01   7.815657159710638e-01  -8.290889999999962e-02 -3.60693825e+00  -1.39823900e-02  -5.44017260e-01
C     2.217866011397676e+00   3.603246401788167e-01   5.534250000000000e-02  3.17598019e+00   2.76723600e-01  -4.41925080e-01
C     1.239317306957622e-01   1.847044116575118e-01   3.818090100000000e+00  1.65158769e+00  -1.55523580e+00  -3.20978820e-01
C     7.025156328722264e+00   7.263159516648400e+00   3.488482200000000e+00 -1.91175722e+00   9.28917830e-01   4.90007300e-01
C     8.372973146535969e+00   7.693265643124800e+00   3.453683100000000e+00  1.04752367e+00  -1.50442940e-01   1.03324314e+00
C     9.409868029564366e+00   6.696587058536103e+00   3.545379000000000e+00 -3.51243360e-01   3.24193506e+00  -5.03880910e-01
C     1.074559457549488e+01   7.157068006257293e+00   3.756790500000000e+00  1.00582480e-01  -1.79090942e+00   4.27273460e-01
C     1.172494845995598e+01   6.130670689296763e+00   3.883674600000000e+00  1.32257393e+00  -7.64199450e-01  -5.35207930e-01
C     4.245146710664233e+00   6.452555171693754e+00   3.927160800000000e+00 -9.55800690e-01   2.98096611e+00  -2.11351970e-01
C     5.303282891624019e+00   5.555639041202696e+00   3.870748500000000e+00 -6.61740800e-01  -2.50997917e+00  -9.62307560e-01
C     6.652642433546481e+00   5.892042222334675e+00   3.610983300000000e+00  4.78181470e-01   1.53199087e+00   2.96802240e-01
C     7.694471314328595e+00   4.960300580431079e+00   3.540851100000000e+00 -5.64327480e-01   1.11417930e-01  -5.99744710e-01
C     9.032683745424196e+00   5.391617284780998e+00   3.398570400000000e+00  6.70230820e-01  -2.88414989e+00   9.10527380e-01
C     1.002864408948006e+01   4.365189487858749e+00   3.477247500000000e+00  1.32812842e+00   3.80139210e-01   4.57720360e-01
C     1.138967293818721e+01   4.746564544023612e+00   3.734076600000000e+00  5.15318040e-01  -2.39599620e-01  -3.63989070e-01
C     3.570507554772406e+00   3.750555133139923e+00   3.780259500000000e+00 -5.91605500e-01  -8.39050000e-04  -4.66946160e-01
C     4.958965751257354e+00   4.136245566915208e+00   3.804993000000000e+00 -2.97978500e-01   1.37790193e+00   1.24532781e+00
C     6.032792649292804e+00   3.224679889368650e+00   3.891741600000000e+00 -2.10317429e+00  -2.01462405e+00  -1.79848217e+00
C     7.361287331225558e+00   3.600667227451714e+00   3.647270100000000e+00 -2.14675730e-01   1.58810600e-02   7.57335540e-01
C     8.341507587146099e+00   2.626372018387059e+00   3.617432700000000e+00  1.19948289e+00  -2.97639237e+00   2.72684160e-01
C     9.700238080788965e+00   2.991850389062764e+00   3.492402000000000e+00  4.16987530e-01  -1.11627499e+00  -9.42154600e-02
C     1.832060809084714e+00   1.957490797860000e+00   3.492424200000000e+00  3.80271430e-01  -2.64037930e-01   9.28236650e-01
C     3.211002651374629e+00   2.366160120956847e+00   3.640699500000000e+00  9.61186290e-01  -8.80788400e-01  -2.66350860e-01
C     4.303754761228398e+00   1.354609470198184e+00   3.655820400000000e+00 -1.28166242e+00   2.12589380e+00  -5.20294440e-01
C     5.678520147576081e+00   1.813981362948651e+00   3.769493400000000e+00 -1.02124193e+00  -1.01080030e-01   9.54842260e-01
C     6.668653903845161e+00   8.149866091477266e-01   3.889073100000001e+00  1.67801380e-01   3.44811470e-01  -1.08376398e+00
C     8.045957968159184e+00   1.181998983957409e+00   3.823702200000000e+00 -1.08700631e+00   2.03240406e+00  -2.17259260e-01
C     1.498334321705737e+00   5.188952555680683e-01   3.592656600000000e+00  8.15848140e-01   2.15094607e+00  -2.92501870e-01
