76
Lattice="10.7446858958278 0 0 5.37234294791388 9.3051709414712 0 0 0 30 " PBC="1 1 1" Properties=species:S:1:pos:R:3:force:R:3 Energy="-606.59631451"
C     5.430383916635197e+00   9.285185107751650e+00  -2.022371999999990e-01 -3.31021184e+00   3.39950161e+00  -7.69642090e-01
C     1.256287618309242e+01   8.408511454878864e+00  -4.702538999999994e-01 -4.33792505e+00   4.37575869e+00  -3.77839260e-01
C     1.394651720028767e+01   8.451716666277216e+00  -4.418514000000009e-01 -1.35114864e+00  -7.85156262e+00  -8.07075400e-02
C     1.452788695804824e+01   7.077559263663572e+00  -3.795179999999974e-01 -2.33387025e+00  -1.30018358e+00   8.60687680e-01
C     8.159925241801957e+00   8.974519693094109e+00  -1.531395000000018e-01  3.75243206e+00  -8.91417720e-01  -8.77954250e-01
C     9.614034045833485e+00   8.858259677697527e+00  -2.880086999999989e-01 -1.43760648e+00  -1.75998326e+00   2.88416520e-01
C     1.017674211078235e+01   7.560077320878212e+00  -3.658952999999983e-01  1.32849873e+00  -1.30918777e+00   1.54942524e+00
C     1.160227015776674e+01   7.346646941320167e+00  -3.035123999999989e-01  2.63062551e+00   1.20486820e-01  -1.14319535e+00
C     1.225882934713547e+01   6.055071535023381e+00  -1.918638000000001e-01 -2.36404540e+00  -8.04376330e-01   1.39019156e+00
C     1.365225426041755e+01   5.810969357961199e+00  -1.961811000000004e-01  8.12769860e-01   5.14965827e+00  -9.28626840e-01
C     5.930373584559450e+00   8.054562107076821e+00  -2.493227999999981e-01  3.63316167e+00  -2.28428651e+00  -4.44345450e-01
C     7.361104530797192e+00   7.879931684890712e+00  -2.892876000000015e-01 -1.23753249e+00  -9.30080300e-01   7.57487440e-01
C     7.955496686698269e+00   6.618932884199348e+00  -2.414757000000023e-01  8.81854000e-01  -1.62230671e+00   6.58331800e-02
C     9.363307982272433e+00   6.390834298430033e+00  -1.434566999999980e-01  6.99583300e-02   2.19095091e+00  -1.22979627e+00
C     9.963857756492509e+00   5.123925690622965e+00  -3.650489999999706e-02 -2.51955470e-01  -1.19601452e+00   1.41360747e+00
C     1.137822911259606e+01   4.980755958333288e+00   1.279653000000000e-01  9.77001100e-01  -3.49701179e+00  -1.60566563e+00
C     1.196788866414562e+01   3.505961736227902e+00   1.735278000000000e-01 -5.41672040e-01   3.73628103e+00  -5.14222570e-01
C     5.152185571547879e+00   6.921258074143366e+00  -3.086658000000000e-01 -8.93747890e-01  -1.80741572e+00  -4.71737820e-01
C     5.723467573504369e+00   5.608588682790985e+00  -3.024656999999991e-01  8.58565970e-01   3.27545980e-01   6.61673050e-01
C     7.158603679790822e+00   5.472433560562717e+00  -2.427780000000013e-01 -2.56308712e+00  -8.00023600e-02   4.14710720e-01
C     7.644541286324769e+00   4.191705843392655e+00  -7.422389999999979e-02  2.83436538e+00  -3.29965279e+00  -6.54697280e-01
C     9.093659344926031e+00   3.971501206338580e+00   4.469010000000000e-02 -1.57438470e-01  -6.69190590e-01  -1.60008966e+00
C     9.671061519971163e+00   2.618922867341633e+00  -1.538100000000000e-01 -1.18376976e+00   1.12661266e+00   1.26372911e+00
C     1.107025837107186e+01   2.401105192737087e+00   6.218070000000000e-02 -3.95419600e-02   1.18025739e+00  -7.35961570e-01
C     3.503239348834440e+00   4.584645160157232e+00  -7.353900000000024e-02 -1.07976480e-01  -2.53665172e+00   4.19347950e-01
C     4.927410073372508e+00   4.474209902613961e+00  -1.326767999999987e-01 -4.77046010e-01  -2.40931574e+00  -1.90475950e-01
C     5.497764916382687e+00   3.081850282917744e+00  -1.116516000000018e-01 -4.89679014e+00   1.85429733e+00  -1.14719030e-01
C     6.839497844204448e+00   2.960480239847751e+00  -2.172002999999982e-01  1.43408038e+00   3.80782970e-01   7.48696520e-01
C     7.373387855718073e+00   1.636423459454126e+00  -3.232959000000015e-01  9.97320320e-01  -2.93632370e-01  -1.50252595e+00
C     8.798023878879039e+00   1.496924896255407e+00  -3.899876999999989e-01  5.57690640e-01   6.50326540e-01   1.00211579e+00
C     9.362377062686058e+00   1.942987620019862e-01  -4.132634999999993e-01  3.20001530e+00   3.37038465e+00   7.06826140e-01
C     2.657948086205893e+00   3.373945181826908e+00   7.870680000000001e-02 -1.81205361e+00   1.29196219e+00   5.45314860e-01
C     3.153443466911894e+00   2.056991038411785e+00   9.831479999999999e-02 -1.07712030e+00   4.29700460e-01  -1.01788818e+00
C     4.508055082700253e+00   1.957058806463621e+00  -8.405009999999891e-02  4.07822946e+00  -3.17641690e-01   2.90700000e-03
C     5.054977323741988e+00   6.500591488166906e-01  -2.410877999999990e-01  3.64139324e+00   1.03152674e+00  -1.53774818e+00
C     6.561513264643109e+00   4.732180971703666e-01  -5.534247000000008e-01 -1.62712115e+00  -3.11292490e-01   2.77236940e+00
C     8.648743659795981e-01   1.111145350218904e+00  -6.146730000000034e-02  1.05683394e+00  -2.25189450e-01   2.51512760e-01
C     2.271852035098211e+00   8.933167885643586e-01  -4.050450000000083e-02 -7.81418360e-01   4.77416325e+00   1.03118065e+00
C     1.610644286311074e+01   9.297404844333476e+00   3.564095100000000e+00 -3.18934461e+00   1.15442312e+00   7.59864780e-01
C     1.185936115836123e+01   8.746491361365392e+00   3.689956200000000e+00 -2.06379313e+00   1.91196354e+00  -7.18730080e-01
C     1.324284207973658e+01   8.936839613044800e+00   3.655095600000000e+00  3.47042380e-01   1.51815970e+00  -6.79617750e-01
C     1.407048567928524e+01   7.827488113679710e+00   3.594773700000000e+00  5.42847950e-01  -6.93256730e-01   1.21057269e+00
C     7.469821895181438e+00   8.314817316477168e+00   3.542170500000000e+00  4.22423517e+00   1.19578493e+00   2.07367102e+00
C     8.975440830864423e+00   8.485821327444539e+00   3.642072000000000e+00 -5.06661140e-01  -5.59841320e-01  -6.45840260e-01
C     9.877650831409342e+00   7.300344969032984e+00   3.672765600000000e+00 -1.67712571e+00   3.96969499e+00  -6.92333730e-01
C     1.124969290645212e+01   7.469839495170468e+00   3.611463300000000e+00  1.76127875e+00  -4.44608630e-01   1.34877003e+00
C     1.210016423587648e+01   6.306972655005506e+00   3.701092200000000e+00 -8.61799880e-01   7.75338030e-01  -1.50995130e-01
C     1.347994226987354e+01   6.507232123408237e+00   3.749175600000000e+00  2.12862618e+00   9.41556160e-01  -1.68180215e+00
C     4.749429186547663e+00   7.998290109385974e+00   3.613799100000000e+00 -7.74433270e-01  -3.93937520e-01  -9.25791410e-01
C     5.524674606155230e+00   6.826066919840842e+00   3.555331800000000e+00  2.39269024e+00  -6.78657220e-01   1.19064022e+00
C     6.942013268440354e+00   7.030026868622992e+00   3.688347000000000e+00  7.65005980e-01  -9.35754710e-01  -1.77265024e+00
C     7.888787122372669e+00   5.937826567282800e+00   3.595598100000000e+00 -1.26646367e+00  -2.13161484e+00   5.30030160e-01
C     9.304378430113307e+00   6.071947206936746e+00   3.573742800000000e+00 -1.51129513e+00  -2.12732741e+00   2.69891400e-01
C     1.010195646447031e+01   4.905872874348766e+00   3.525001500000000e+00  1.80128183e+00  -1.60367544e+00  -7.23065960e-01
C     1.154289002720439e+01   5.013796014893364e+00   3.623402100000000e+00 -8.66201770e-01  -4.14396160e-01  -1.36146039e+00
C     1.239344124336843e+01   3.858303987956899e+00   3.377501100000000e+00 -1.52720201e+00   1.69327238e+00   1.56560499e+00
C     3.605912343889070e+00   5.417454051115437e+00   3.589496400000000e+00  9.52878640e-01  -3.47757563e+00   8.71457830e-01
C     5.074960988983393e+00   5.468756157007229e+00   3.589239300000000e+00 -1.99156826e+00   2.17342610e+00   8.79566690e-01
C     5.962455712400824e+00   4.364868840121525e+00   3.822151500000000e+00 -7.65499920e-01   5.87133360e-01  -2.04842623e+00
C     7.391608103109569e+00   4.552506495506112e+00   3.658858200000000e+00 -7.36813460e-01   1.16389700e+00   5.64979880e-01
C     8.242206649614991e+00   3.396702838394866e+00   3.595116600000000e+00 -2.80502614e+00   3.39871830e-01   1.19333130e-01
C     9.589765131238014e+00   3.548897376824121e+00   3.343207200000000e+00  5.34388980e-01   2.24756231e+00   1.59900247e+00
C     1.042551720800111e+01   2.431152054960894e+00   3.396115800000000e+00 -5.67300440e-01  -6.74431870e-01  -1.80896670e-01
C     1.179759452561364e+01   2.577590600750085e+00   3.313740300000000e+00  2.88464003e+00  -3.75686460e-01   5.23341440e-01
C     3.025566608418205e+00   4.064989514359085e+00   3.554726700000000e+00  8.97738570e-01   5.03374030e-01  -1.40926446e+00
C     3.854658108115321e+00   2.922808162245452e+00   3.447647400000000e+00  3.24102477e+00   1.22324370e+00   1.61651194e+00
C     5.335880804674921e+00   3.094079231618802e+00   3.724232400000000e+00 -1.54015991e+00  -7.03209080e-01  -6.50184310e-01
C     6.163990347527636e+00   1.952118970366703e+00   3.732342000000000e+00  1.22035833e+00  -4.36018330e-01  -3.27420000e-02
C     7.611881255552262e+00   2.117432217942298e+00   3.749270100000000e+00 -4.02907460e-01  -3.16402080e-01  -1.61576193e+00
C     8.427788918203220e+00   9.724064611757262e-01   3.537992400000000e+00  2.25894430e-01  -5.25308180e-01   1.75471424e+00
C     9.850852886370159e+00   1.147594263101140e+00   3.554538000000000e+00 -5.78352300e-02  -1.34641583e+00  -1.01225185e+00
C     1.965101406381386e+00   1.443472644514509e+00   3.415735500000000e+00 -2.57120062e+00   1.54073901e+00   2.01580860e-01
C     3.338472921410569e+00   1.618340162456168e+00   3.429306000000000e+00  5.64074270e-01   4.88801830e-01   2.42053860e-01
C     4.183076631588373e+00   5.093265338479084e-01   3.587268000000000e+00  9.92658820e-01  -2.42405890e+00  -1.68804520e-01
C     5.631934131556564e+00   6.320903984730035e-01   3.628605900000000e+00 -6.56174310e-01  -4.89417610e-01   6.61201820e-01
C     1.348336772946189e+00   2.184699670874396e-01   3.646243200000000e+00  9.54678440e-01  -2.63418794e+00  -1.88446672e+00
