76
Lattice="10.7446858958278 0 0 5.37234294791388 9.3051709414712 0 0 0 30 " PBC="1 1 1" Properties=species:S:1:pos:R:3:force:R:3 Energy="-610.49439408"
C     1.885592449871130e-01   3.523793793610480e-02  -3.647016000000001e-01 -5.52465410e-01   1.16342933e+00   7.04143190e-01
C     1.256712726434532e+01   8.527260603501897e+00  -3.908301000000023e-01  2.22294883e+00   3.47903660e-01   1.07191457e+00
C     1.401786513806944e+01   8.377876971110197e+00  -3.936578999999973e-01 -1.46996606e+00  -5.02515640e-01   5.96035000e-01
C     1.456033010733585e+01   7.074511075767047e+00  -2.253128999999987e-01 -1.26529219e+00   3.75277060e-01   2.16369620e-01
C     8.374743961894374e+00   9.046359707026122e+00  -1.714994999999995e-01 -7.90987570e-01   1.83378263e+00  -6.76846690e-01
C     9.811701023823733e+00   8.909782595295725e+00  -2.043083999999986e-01 -1.71209977e+00  -1.62115263e+00   6.67039260e-01
C     1.036263087153588e+01   7.584969769763225e+00  -1.063356000000013e-01 -8.83945060e-01   6.99500010e-01  -7.90428820e-01
C     1.175335430216555e+01   7.380981533261416e+00  -2.489531999999990e-01 -1.30797162e+00   6.08886610e-01   7.98274610e-01
C     1.223686081606776e+01   6.077428231775535e+00  -4.894499999999979e-02  2.69201330e+00   1.10419807e+00  -3.73962380e-01
C     1.367075843613395e+01   5.951805353379124e+00  -1.211040000000096e-02 -3.26307620e-01   1.06429385e+00  -9.70309850e-01
C     6.113833616512141e+00   8.061047997325419e+00  -1.523325000000000e-01 -2.12370676e+00   4.20705120e-01  -8.54723250e-01
C     7.486448222143098e+00   7.935708647487551e+00  -3.853650000000286e-02  2.65486964e+00  -1.61564326e+00  -1.00495002e+00
C     8.086548384981690e+00   6.588066980829401e+00  -9.614519999999871e-02 -2.11446890e+00   1.26401778e+00   1.12190155e+00
C     9.475990511817784e+00   6.476118051129322e+00  -5.756249999999952e-02  6.13266960e-01  -1.07910231e+00  -4.46348970e-01
C     1.001846445289692e+01   5.154238308528819e+00  -1.128090000000022e-01  6.51555790e-01   2.31562590e-01   2.39540220e-01
C     1.142721327603929e+01   4.958209901352506e+00  -2.615189999999856e-02 -8.12994500e-01  -1.29396256e+00  -6.83815440e-01
C     1.198846264243037e+01   3.631932441914049e+00  -1.675710000000024e-01  9.09671790e-01   1.01721119e+00   5.36662430e-01
C     5.196708917469433e+00   6.942194057396400e+00  -1.642785000000018e-01  1.99479858e+00  -4.22347120e-01   1.13461666e+00
C     5.772004650567299e+00   5.651923236065402e+00   3.994440000000000e-02  5.47158040e-01   9.26388300e-02  -1.02170456e+00
C     7.188036705323553e+00   5.452048164274203e+00  -5.283299999999969e-02  1.19056798e+00   1.58938380e-01  -5.16806830e-01
C     7.754206385728823e+00   4.140429140617528e+00  -2.270135999999994e-01  4.17399850e-01   5.00481090e-01   1.36383321e+00
C     9.200732288856713e+00   4.027966472429850e+00  -2.258762999999995e-01 -1.50803472e+00  -1.06973572e+00   3.09642000e-02
C     9.771222514909232e+00   2.720893024777366e+00  -2.699777999999995e-01 -7.10972350e-01  -1.89411260e+00  -5.23035280e-01
C     1.115932150228440e+01   2.504725529187320e+00  -3.322655999999995e-01  5.63971080e-01   6.75431480e-01   3.76065170e-01
C     3.465303892178752e+00   4.691641877883043e+00  -3.338400000000519e-03  2.91363060e+00  -2.25219832e+00   4.12928070e-01
C     4.949827356246832e+00   4.531357982148808e+00   1.945590000000000e-02 -1.43194425e+00  -1.98106086e+00   4.00523040e-01
C     5.547034781023996e+00   3.182834650544094e+00   3.126060000000000e-02 -1.73116063e+00   5.16344660e-01  -8.82719240e-01
C     6.921653055681585e+00   2.967959829301033e+00  -1.148333999999984e-01  1.20762381e+00   2.28065722e+00   6.07727100e-02
C     7.515683599178698e+00   1.712102786915984e+00  -1.754205000000013e-01  8.98544620e-01  -2.47467147e+00  -5.40991750e-01
C     8.945423133248447e+00   1.519518595711402e+00  -3.065105999999993e-01 -8.42935390e-01   1.32968985e+00   3.80895880e-01
C     9.488925394491641e+00   1.900515097781326e-01  -3.375611999999997e-01  1.12123108e+00   1.42044249e+00  -7.27138050e-01
C     2.673744815969214e+00   3.503966893681784e+00  -8.339760000000140e-02 -1.21924680e-01   3.72130030e-01  -8.51600360e-01
C     3.295717721000718e+00   2.233226881740171e+00  -2.690705999999992e-01 -5.76006370e-01  -4.85752520e-01   8.99167880e-01
C     4.712725876747558e+00   2.036584519385237e+00  -1.128713999999995e-01 -8.65703550e-01   1.55915570e-01  -1.31404340e-01
C     5.269508838380299e+00   7.134737026693717e-01  -1.804257000000007e-01  6.64394190e-01   1.46047804e+00   4.61644800e-02
C     6.689453463060181e+00   5.317111461128818e-01  -1.958202000000000e-01 -8.07166780e-01   6.13307140e-01  -7.06991120e-01
C     1.033578720785819e+00   1.222057963031396e+00  -3.960261000000003e-01 -2.46245934e+00  -6.83773660e-01   5.71474000e-02
C     2.401531475821914e+00   1.109461021227055e+00  -3.748236000000027e-01  3.15052186e+00  -2.22156614e+00   1.13284337e+00
C     1.597092320208952e+01   9.235888824507683e+00   3.409887000000000e+00 -3.66312830e-01  -3.96421580e-01  -3.23733760e-01
C     1.173885612141667e+01   8.754406991128921e+00   3.314572500000000e+00  3.43546570e-01  -1.63246390e+00   1.27807140e+00
C     1.317361836635723e+01   8.932845089263678e+00   3.306506400000000e+00 -1.76627090e+00  -3.16975990e-01   1.46188300e-02
C     1.399582042717870e+01   7.781758595508755e+00   3.389769300000000e+00  8.16096150e-01  -7.28029510e-01   3.85731860e-01
C     7.523277782002529e+00   8.239170184906763e+00   3.600118200000000e+00 -2.65426826e+00   6.48311280e-01  -1.31628681e+00
C     8.892994545846257e+00   8.424432044046949e+00   3.455199300000000e+00  1.08617745e+00   3.23207750e-01   4.96498670e-01
C     9.757496877076566e+00   7.298408004650113e+00   3.499705200000000e+00 -5.88057570e-01  -1.52116377e+00   6.97639790e-01
C     1.116182791516429e+01   7.454302651251949e+00   3.558538800000000e+00  1.31555994e+00  -1.05889985e+00  -1.23910739e+00
C     1.203162898824618e+01   6.264820882009272e+00   3.674737800000000e+00 -1.35014990e-01   2.06578136e+00  -1.65661430e-01
C     1.347535482622854e+01   6.470847043998649e+00   3.608415900000000e+00 -2.21325987e+00  -5.33386860e-01  -9.97143900e-02
C     4.667907320580901e+00   7.921584607672853e+00   3.400647900000000e+00  4.97501560e-01  -2.58240290e-01   2.73284940e-01
C     5.534485149063084e+00   6.762393682236028e+00   3.518640900000000e+00 -1.35900377e+00   6.51886480e-01   7.56179290e-01
C     6.944548262184741e+00   6.932239199421369e+00   3.608174700000000e+00  1.66703000e-02  -1.94030090e-01  -1.76746310e-01
C     7.784749014974444e+00   5.767289955051744e+00   3.648201300000000e+00 -8.10473960e-01   2.01486030e+00  -1.48373180e-01
C     9.166039363511928e+00   5.955530492461535e+00   3.623241300000000e+00  1.70668918e+00   4.29100630e-01   5.97384300e-02
C     1.000769333506961e+01   4.802442921695965e+00   3.715679400000000e+00  4.17620980e-01   9.43178700e-01   6.03397470e-01
C     1.143521215745754e+01   4.986820882648560e+00   3.813171600000000e+00 -1.36968091e+00   4.39520240e-01  -2.54835890e-01
C     1.222426482078719e+01   3.845963377204562e+00   3.915471600000000e+00  1.84007573e+00   1.27871680e-01  -5.50892480e-01
C     3.523106434233828e+00   5.283864271463616e+00   3.713025300000000e+00 -4.88179560e-01   2.09544932e+00   6.91742000e-03
C     4.919580528204037e+00   5.471694264731534e+00   3.692236200000000e+00  1.95589410e+00  -9.85688950e-01  -1.37680497e+00
C     5.819898228391676e+00   4.319253589449713e+00   3.589095900000000e+00 -1.77472209e+00   1.32876763e+00   1.41021254e+00
C     7.191554461763783e+00   4.514949615920050e+00   3.637151100000000e+00  1.67975293e+00  -2.40349086e+00  -4.27594810e-01
C     8.045150775635305e+00   3.327227175346997e+00   3.588159300000000e+00 -6.10461350e-01   1.43803386e+00  -1.68992900e-02
C     9.453850280669393e+00   3.486116598164164e+00   3.731997600000000e+00 -1.20574710e-01   2.37435990e-01  -1.56963591e+00
C     1.032566625097469e+01   2.373413004019647e+00   3.526960500000000e+00 -3.23349200e-02  -3.67462490e-01   1.90239660e+00
C     1.172753192088266e+01   2.544570922514366e+00   3.823046700000000e+00 -9.44813820e-01  -1.14356980e+00  -2.05597047e+00
C     2.876751365617467e+00   4.035742896836118e+00   3.806377500000000e+00  2.80745022e+00  -1.15860383e+00   7.13576910e-01
C     3.832739808454193e+00   2.934984722834117e+00   3.791130000000000e+00 -1.52634230e+00  -1.72363445e+00  -8.66362890e-01
C     5.250578098633667e+00   3.039314764671945e+00   3.677205600000000e+00 -3.66487420e-01  -1.49298383e+00  -6.89353920e-01
C     6.064359387945014e+00   1.817375442570033e+00   3.482793900000000e+00 -8.73926060e-01   2.94384919e+00   1.28938720e-01
C     7.454105858009227e+00   2.058923536312604e+00   3.378587400000000e+00  3.72618900e-01  -5.95782510e-01   8.57289440e-01
C     8.312311534684991e+00   9.435878815159991e-01   3.330174600000000e+00  1.81610601e+00  -8.92998310e-01  -5.13899560e-01
C     9.753226562835899e+00   1.075075902207601e+00   3.367536000000000e+00 -4.78633610e-01   6.89860570e-01   2.22493070e-01
C     1.854972996121323e+00   1.437022300018900e+00   3.572940000000000e+00 -9.18164250e-01  -1.33911513e+00   9.36356080e-01
C     3.264900511306922e+00   1.600724543349654e+00   3.622706700000000e+00  5.05020500e-01  -1.81328340e-01  -1.80794100e-02
C     4.099025896348188e+00   4.262099554605464e-01   3.449546400000000e+00 -1.57357850e+00   2.02880310e-01   5.60239640e-01
C     5.483130869080605e+00   5.330044718218324e-01   3.424914300000000e+00  1.23930831e+00   1.42342219e+00  -5.99935040e-01
C     1.242375689112441e+00   8.290590931728040e-02   3.483182700000000e+00  2.59067359e+00   8.76005110e-01   5.55635920e-01
