64
Lattice="9.86 0 0 4.93 8.53901048131456 0 0 0 30 " PBC="1 1 1" Properties=species:S:1:pos:R:3:force:R:3 Energy="-515.54412896"
C     5.046541255999999e+00   6.711837628555259e+00  -3.875069999999994e-01  1.41071070e-01  -1.61604490e-01  -3.23364120e-01
C     6.273835471800000e+00   7.404619503412331e+00  -3.284372999999974e-01  9.02603040e-01   8.45001560e-01   2.46578140e-01
C     9.704354526300000e+00   1.830887918734274e+00   3.547373700000000e+00  7.10870370e-01  -6.24498550e-01   6.61791150e-01
C     1.096865844930000e+01   2.515207804985876e+00   3.571346700000000e+00 -1.36357708e+00   7.36013890e-01  -1.41915860e-01
C     7.542173219400000e+00   6.706785608394872e+00  -3.092106000000001e-01 -1.40794380e+00  -4.41038500e-02  -2.96143520e-01
C     8.767647082000000e+00   7.415446456360343e+00  -3.509534999999993e-01  2.93647540e-01   1.32680830e-01   1.63551520e-01
C     2.316941254000000e+00   1.783540898814875e+00   3.538624800000000e+00  8.96026370e-01   2.16138664e+00   8.91604340e-01
C     3.519304607700000e+00   2.593117053484558e+00   3.717111000000000e+00  8.11023310e-01  -3.59341167e+00  -5.80820970e-01
C     9.999762344799999e+00   6.711619713007810e+00  -3.811077000000012e-01  1.10967951e+00   7.85415750e-01  -1.38662480e-01
C     1.126831158940000e+01   7.417791439418361e+00  -4.461183000000020e-01 -1.18865659e+00   1.40146850e-01  -4.65162100e-02
C     4.767980923700000e+00   1.893077361279905e+00   3.815684700000000e+00  4.83261680e-01  -2.41279821e+00  -2.17779520e-01
C     6.031588780000000e+00   2.544666281070513e+00   3.844838100000000e+00 -5.81579190e-01   7.87071430e-01  -9.18213700e-02
C     1.250298103590000e+01   6.717516155914564e+00  -4.983681000000004e-01 -2.40464555e+00  -1.47371932e+00   2.00169150e-01
C     1.367094994880000e+01   7.434424919492772e+00  -4.767177000000018e-01  2.39579014e+00  -8.08959000e-01   4.37793030e-01
C     7.264938268300000e+00   1.844527621734398e+00   3.817859400000000e+00 -4.55877860e-01  -7.34847250e-01  -2.11078700e-02
C     8.496166722700000e+00   2.550509611332083e+00   3.726942600000000e+00 -5.18100000e-05  -1.67662000e-01  -1.63835270e-01
C     1.339372392100000e+00   3.055364687375000e-01  -2.619255000000003e-01  1.12901617e+00  -4.01350180e-01   1.12310610e-01
C     2.613225281400000e+00   1.001228694536470e+00  -2.386401000000014e-01 -8.84416950e-01  -4.79693750e-01  -2.21481320e-01
C     1.094555336340000e+01   3.964148175872685e+00   3.705588300000000e+00  6.64772610e-01  -2.35344130e-01  -2.88948070e-01
C     1.217573636200000e+01   4.699188588914019e+00   3.737197800000000e+00 -1.79305920e-01  -1.25001441e+00  -6.24959400e-02
C     3.868488028100000e+00   3.031544263739992e-01  -3.343245000000010e-01 -2.25105925e+00  -5.33595240e-01   2.98294450e-01
C     5.049322712700000e+00   1.007523055331593e+00  -3.548793000000003e-01  2.67110509e+00   8.65570260e-01  -1.25411050e-01
C     3.558521820999999e+00   3.955271532918306e+00   3.711522600000000e+00 -1.28615212e+00   2.65419001e+00   4.34715720e-01
C     4.771777516700000e+00   4.671672566933372e+00   3.794700300000001e+00  1.30345168e+00   3.95630940e-01  -4.50169840e-01
C     6.318367471599999e+00   3.042925910808784e-01  -4.253757000000000e-01 -8.82185060e-01  -4.16680520e-01   2.31441290e-01
C     7.546131023399999e+00   9.917488558817841e-01  -3.798771000000016e-01 -2.48947130e-01   8.72548840e-01   2.37258450e-01
C     6.023309338000000e+00   3.962755975604026e+00   3.810466200000000e+00  4.69009950e-01   1.02517291e+00   3.37659260e-01
C     7.282837076999999e+00   4.696788102287882e+00   3.839174700000000e+00 -1.33987271e+00  -7.85522870e-01  -4.64905770e-01
C     8.764155360199998e+00   2.767776791715936e-01  -3.838028999999992e-01  2.00449210e-01   2.15759869e+00   2.89975860e-01
C     9.981925210400000e+00   1.035784020586515e+00  -2.395880999999989e-01  4.91350190e-01  -1.00704987e+00  -3.32034220e-01
C     8.516218018699998e+00   3.971063835070332e+00   3.796628700000000e+00 -1.33640732e+00   3.99385490e-01  -1.56864680e-01
C     9.713767523200000e+00   4.698110624231024e+00   3.768132000000000e+00  1.40571974e+00  -1.24210624e+00   8.41950300e-02
C     2.575345725000000e+00   2.405357277715392e+00  -2.373729000000004e-01  2.15095041e+00   1.11090650e+00  -5.65867840e-01
C     3.852278483900000e+00   3.136949552934797e+00  -3.816509999999980e-01 -1.29029292e+00  -2.55208090e-01   5.96351370e-01
C     1.216557854070000e+01   6.105259199246407e+00   3.824948400000000e+00  2.25932501e+00  -5.66977660e-01   4.19005600e-02
C     1.343577603220000e+01   6.797933055620907e+00   3.792405600000000e+00 -2.10483762e+00   1.46317865e+00  -1.32154210e-01
C     5.095409831700000e+00   2.449377157591364e+00  -3.448743000000007e-01 -1.07829519e+00  -8.83340590e-01  -2.93019830e-01
C     6.318016504899999e+00   3.156151055020964e+00  -3.539792999999989e-01  2.64936400e-01  -5.47774920e-01   2.45361860e-01
C     4.770415308400000e+00   6.118563233744561e+00   3.745927200000000e+00  1.39260274e+00  -1.20961445e+00   1.95192150e-01
C     6.007983397699999e+00   6.848785510122556e+00   3.703411200000000e+00  4.06107390e-01  -2.17752354e+00   3.17027400e-02
C     7.553982344200000e+00   2.416522204698202e+00  -2.763287999999982e-01  1.29169100e-02   8.01967580e-01  -4.43739560e-01
C     8.787304273800000e+00   3.146798191452115e+00  -2.289843000000005e-01 -8.51585600e-01   8.57028130e-01  -1.84734520e-01
C     7.245777083800000e+00   6.114722386830657e+00   3.756174900000000e+00  4.63832810e-01  -2.08979790e-01   2.06979890e-01
C     8.497629552299999e+00   6.792800683371904e+00   3.769299600000000e+00  1.90447740e-01   8.48473210e-01  -1.89082150e-01
C     1.003292172200000e+01   2.460124783132016e+00  -1.932872999999979e-01 -2.54052525e+00  -1.22418683e+00  -4.82716900e-02
C     1.122136181900000e+01   3.136073877410074e+00  -2.187489000000014e-01  1.68653285e+00   1.30475240e+00  -1.25668480e-01
C     9.751446477900000e+00   6.099133483908265e+00   3.824263200000000e+00 -1.12704274e+00   3.10507080e-01   1.07990020e-01
C     1.098087390470000e+01   6.796668171998505e+00   3.896111400000000e+00 -1.60902876e+00   1.29384761e+00  -6.42516860e-01
C     3.815424663300000e+00   4.557015686834011e+00  -4.517582999999981e-01  1.41735889e+00  -4.37150400e-02   3.34247550e-01
C     5.050226825399999e+00   5.298810030214501e+00  -4.078589999999984e-01 -2.26619680e-01  -9.39408360e-01  -2.46036740e-01
C     1.340944273300000e+01   8.241128636427087e+00   3.751537800000000e+00 -2.11056040e-01  -7.66097820e-01  -5.44261700e-02
C     9.703380506200000e+00   3.843883386030688e-01   3.581101200000000e+00  4.42147320e-01   1.26257395e+00   2.50735930e-01
C     6.282369351100000e+00   4.576597858007375e+00  -3.784559999999999e-01 -5.08208730e-01  -1.91664320e-01   3.09506450e-01
C     7.492268604200000e+00   5.270874486648971e+00  -3.240624000000025e-01  1.44039909e+00   1.26631909e+00  -1.91051800e-02
C     6.032121811600000e+00   8.225645019503911e+00   3.601666200000000e+00 -5.62376160e-01   1.07504857e+00  -2.19043180e-01
C     2.352311785500000e+00   3.837389468560648e-01   3.581527800000000e+00 -6.79451900e-01  -1.66669000e-01  -8.53071200e-02
C     8.728012544200000e+00   4.591609523821320e+00  -2.930144999999982e-01  1.99370100e+00  -7.70576250e-01   2.27654010e-01
C     1.001561199900000e+01   5.321946308329851e+00  -3.295305000000006e-01 -1.28772925e+00  -2.18000356e+00   1.58785970e-01
C     8.502863190999999e+00   8.220444079000753e+00   3.690680700000000e+00  6.65703210e-01   7.46047000e-02   4.19224540e-01
C     4.808177037799999e+00   4.118465514827664e-01   3.809124900000000e+00 -1.14906863e+00   9.41279850e-01  -2.48365750e-01
C     1.124374244140000e+01   4.569897894214453e+00  -3.161172000000008e-01 -5.12303610e-01   3.97958410e-01  -1.75225510e-01
C     1.247595314900000e+01   5.266713426842068e+00  -4.470975000000017e-01 -7.54084460e-01   8.60132810e-01   1.44402200e-01
C     1.095999510820000e+01   8.230617626866835e+00   3.863404500000000e+00 -6.63557190e-01   8.64454700e-02   2.88949820e-01
C     7.225153611999999e+00   4.098726738202096e-01   3.845179500000000e+00  2.05360295e+00   5.38432490e-01  -4.07638370e-01
