64
Lattice="9.86 0 0 4.93 8.53901048131456 0 0 0 30 " PBC="1 1 1" Properties=species:S:1:pos:R:3:force:R:3 Energy="-505.08245062"
C     4.961712471500000e+00   8.369250425982045e+00   7.992900000000001e-03  2.38007040e-01   5.05449584e+00  -1.34518140e-01
C     1.283126170000000e+00   6.531683805590943e-01   1.323390000000000e-02 -1.19483682e+00  -2.05942340e-01  -4.88957880e-01
C     1.225270845200000e+00   7.717921433670447e-01   3.395780400000000e+00  2.01501400e-02  -7.78208060e-01   2.74054537e+00
C     2.474659940600000e+00   1.429022531211475e+00   3.458039400000000e+00 -1.10979992e+00   4.82559989e+00  -1.17499570e-01
C     2.513835594000000e+00   8.500243372420800e-03  -8.277749999999884e-02 -3.51650709e+00  -6.39539113e+00   1.70936489e+00
C     3.702479398600000e+00   5.825266838799408e-01  -4.947600000000207e-02  3.64706602e+00   3.37099931e+00  -3.14990457e+00
C     3.660197401500000e+00   8.454323135762504e-01   3.812279400000000e+00  2.56065294e+00  -1.78333918e+00   2.70679950e-01
C     4.958866924800000e+00   1.527167697525870e+00   3.785194800000000e+00 -2.67059188e+00   2.48694700e+00  -5.02940210e-01
C     9.838724042699999e+00   8.388904495623652e+00  -2.969484000000016e-01  1.68189908e+00   5.68134440e-01   1.55202310e-01
C     6.188215570200000e+00   5.644970755920496e-01  -3.709322999999998e-01 -4.83621370e-01  -2.25682870e-01   2.58833324e+00
C     6.146589558900000e+00   8.122497188509704e-01   3.735665400000000e+00 -3.10217970e-01  -2.38330250e-01   1.73669523e+00
C     7.320106250099999e+00   1.565582058582141e+00   3.916043700000000e+00  2.37756667e+00  -4.77635020e-01  -2.31505871e+00
C     1.235801349850000e+01   8.343250334531913e+00  -2.868369000000008e-01 -6.05775360e-01   6.53768750e-01  -2.65745773e+00
C     8.642874697999998e+00   5.545752577549184e-01  -1.190903999999975e-01  4.66661570e-01   6.74289540e-01  -3.09308350e-01
C     8.591723532300000e+00   7.621966011203545e-01   3.873724500000000e+00 -5.17018500e-02   6.07142221e+00  -1.09182311e+00
C     9.853710601800000e+00   1.486299651808171e+00   3.487875900000000e+00 -1.80340899e+00  -4.91404280e-01   2.16320466e+00
C     1.300763984500000e+00   2.080685057272421e+00  -1.949192999999987e-01  1.69406590e-01  -4.07084020e-01  -1.82810323e+00
C     2.501298357500000e+00   2.763910413160696e+00  -6.706019999999988e-01  2.39918870e-01  -2.36945599e+00   1.75873766e+00
C     2.442583043500000e+00   2.995947263801492e+00   3.398982600000000e+00 -2.20946439e+00  -4.11255484e+00  -7.75862000e-02
C     3.591301538900000e+00   3.701128294216153e+00   3.485458500000000e+00  5.16470485e+00  -7.08520690e-01   1.00197969e+00
C     3.735332820000000e+00   1.993829572883949e+00  -4.807337999999994e-01 -3.57573030e-01   1.58799337e+00   1.40150783e+00
C     4.946843197100000e+00   2.752407512143089e+00  -3.785223000000002e-01  8.12991740e-01  -1.11902682e+00   9.88938220e-01
C     4.965298257700000e+00   3.024341181449588e+00   3.715284300000000e+00 -5.01334936e+00  -3.88454823e+00  -9.70162800e-01
C     6.135759236299999e+00   3.665692937746039e+00   3.712236000000000e+00  3.35481150e-01   5.26634079e+00   1.87789420e-01
C     6.135557550000000e+00   1.958761223084265e+00  -1.781400000002265e-03  2.61344333e+00   2.51277231e+00  -2.40108822e+00
C     7.486189421200000e+00   2.740575090711058e+00   8.406060000000000e-02 -2.89895363e+00   1.28582646e+00  -1.36358250e+00
C     7.326883767600000e+00   3.005392690243944e+00   3.687897900000000e+00  2.91466095e+00  -3.07819321e+00   1.53677177e+00
C     8.638046058800001e+00   3.617119886701921e+00   3.709794000000000e+00 -2.41216130e+00   1.21759237e+00   8.17401480e-01
C     8.692544004300000e+00   2.061083075594743e+00  -1.722396000000010e-01 -1.15284530e-01  -1.87473131e+00   2.09514363e+00
C     9.956219648099999e+00   2.765326864219119e+00  -2.553624000000028e-01 -2.39419495e+00   1.87436888e+00  -9.36308420e-01
C     9.811503688599998e+00   2.907117901750463e+00   3.671919600000000e+00  1.49505470e+00  -1.57465913e+00  -2.19834889e+00
C     1.101564208880000e+01   3.644630187545547e+00   3.459495900000000e+00  1.04369313e+00  -1.58885308e+00  -3.26164720e-01
C     2.485094581400000e+00   4.149126881318619e+00  -9.088989000000005e-01 -8.61552580e-01   1.22361041e+00   4.21151940e-01
C     3.708551876800000e+00   4.866108311876011e+00  -6.598259999999989e-01  7.94646030e-01   1.85558000e-02  -1.18413443e+00
C     3.638355874600000e+00   5.084890910449751e+00   3.535795200000000e+00  1.37959540e+00   2.62933890e+00   6.27329040e-01
C     4.930224709399999e+00   5.899423192192129e+00   3.702567600000000e+00 -1.99062128e+00  -3.17863209e+00   2.79894470e-01
C     4.960748163500000e+00   4.210243226417228e+00  -4.588125000000005e-01 -1.15413729e+00  -3.33307476e+00  -5.49046520e-01
C     6.174843093100000e+00   4.867624071626316e+00  -4.089162000000002e-01  1.68270042e+00   1.82416934e+00   4.60136044e+00
C     6.130620549400000e+00   5.189834153787483e+00   3.817034100000000e+00  1.56271371e+00  -2.54143677e+00  -1.37601220e+00
C     7.425732584699999e+00   5.800422160857323e+00   3.854571300000000e+00 -1.24621530e-01  -5.50268450e-01   1.49475960e+00
C     7.420523941100000e+00   4.275271206826620e+00   4.462980000000000e-02  6.40481510e-01  -3.84226879e+00  -2.13769205e+00
C     8.685341865900000e+00   4.989146828492227e+00  -1.374414000000002e-01 -8.82458880e-01  -5.11532974e+00  -1.22506837e+00
C     8.691955214399998e+00   5.026545047301378e+00   3.891031200000000e+00 -5.10130894e+00  -5.15721920e-01  -9.16141310e-01
C     9.824818928399999e+00   5.721858909545979e+00   3.790993500000000e+00  2.26528642e+00   2.95775533e+00   3.50401320e-01
C     9.866391547799999e+00   4.234290702340900e+00  -5.735667000000007e-01  2.04339110e-01  -1.48740901e+00   1.84374693e+00
C     1.105586724060000e+01   4.905898222130506e+00  -9.614429999999992e-01  1.20043104e+00  -4.45574410e-01   2.11839739e+00
C     1.098069484710000e+01   5.012520661879130e+00   3.419062200000000e+00  3.27560059e+00   3.08755957e+00   1.94742195e+00
C     1.228569123660000e+01   5.771907586991145e+00   3.566840700000000e+00 -2.00929346e+00   4.88839250e-01  -1.14273284e+00
C     3.721903007000000e+00   6.267817281045320e+00  -6.502152000000017e-01  8.53332620e-01   8.05678960e-01   1.57417842e+00
C     4.950276350499999e+00   7.030525198113216e+00  -4.991550000000089e-02 -1.26596766e+00  -4.65969285e+00  -2.27857712e+00
C     4.906255887500000e+00   7.271626720719160e+00   3.816783900000000e+00 -1.16823717e+00   7.83382480e-01   7.73692070e-01
C     6.149708868499999e+00   7.938198444468291e+00   3.871231499999999e+00  1.16031405e+00   1.72359890e-01  -1.85340996e+00
C     6.159325227900000e+00   6.263168729130113e+00   2.207310000000000e-02  1.05613351e+00   1.38061281e+00  -2.46809682e+00
C     7.426043174699999e+00   6.994217667112675e+00  -2.417970000000125e-02 -1.25895731e+00   2.42083495e+00  -4.58318000e-02
C     7.451236707200000e+00   7.212168309895350e+00   3.989222400000000e+00 -3.13598177e+00   4.75558080e-01  -3.72855160e-01
C     8.615678402299999e+00   7.952848995529037e+00   4.093004700000000e+00  1.76575718e+00  -3.86216760e-01  -1.16138503e+00
C     8.646360553099999e+00   6.322338094449177e+00  -2.454666000000003e-01  1.50530730e-01   2.12338310e+00   5.40803500e-01
C     9.882321659599999e+00   6.984297471687536e+00  -4.092380999999996e-01  7.16494000e-02   2.12003734e+00  -4.34144790e-01
C     9.848267635300001e+00   7.162218087241017e+00   4.042012500000000e+00 -1.00059430e-01   1.44462344e+00  -2.08000967e+00
C     1.105393167330000e+01   7.911359139068185e+00   3.746616600000000e+00 -1.36211963e+00  -2.70688400e-01   9.46338500e-01
C     1.112099589300000e+01   6.354865490900327e+00  -7.297440000000002e-01 -4.29773276e+00  -4.79281330e+00  -1.43656741e+00
C     1.231795468490000e+01   6.883145805173238e+00  -8.468172000000003e-01  4.70791287e+00   6.79171792e+00   3.86640728e+00
C     1.224536999910000e+01   7.218804914230510e+00   3.669845700000000e+00  2.03452285e+00  -8.61822700e-01   1.23803162e+00
C     1.346704081040000e+01   7.979594969544599e+00   3.940428000000000e+00  1.24014118e+00  -4.86479489e+00  -2.27468662e+00
