64
Lattice="9.86 0 0 4.93 8.53901048131456 0 0 0 30 " PBC="1 1 1" Properties=species:S:1:pos:R:3:force:R:3 Energy="-515.03518504"
C     5.072307703800000e+00   6.670359214368450e+00  -4.787324999999996e-01  9.31217060e-01   1.55604914e+00   5.11243470e-01
C     6.298142047999999e+00   7.383203323568072e+00  -4.103294999999996e-01  1.27239916e+00   1.23894490e+00   4.95723040e-01
C     9.725109481199999e+00   1.837152222212507e+00   3.676297800000000e+00 -3.38271750e-01   7.50660750e-01  -3.64224230e-01
C     1.093521959040000e+01   2.599976184432827e+00   3.648189000000000e+00  2.35794800e-01  -7.38001130e-01   4.83284650e-01
C     7.554815908600000e+00   6.671582342229605e+00  -4.110258000000009e-01  4.71890110e-01   2.42687220e-01  -2.55667630e-01
C     8.802156293199999e+00   7.389970660153682e+00  -3.983163000000012e-01 -6.57708200e-01   1.05098897e+00   6.03597950e-01
C     2.293942261700000e+00   1.859602732396209e+00   3.745648800000000e+00  6.63251700e-02   1.81094250e-01  -7.63313590e-01
C     3.527550131300000e+00   2.545791637261673e+00   3.776890200000000e+00  4.77488990e-01   1.17295052e+00   7.49293860e-01
C     1.005040197370000e+01   6.723829217142638e+00  -3.582410999999972e-01 -1.59146337e+00  -2.37781705e+00   5.90413000e-02
C     1.126179265040000e+01   7.431505431809660e+00  -3.639036000000004e-01 -4.40961940e-01  -4.88068140e-01  -8.42435700e-02
C     4.759390201500000e+00   1.818878654395202e+00   3.782229600000000e+00 -3.20500000e-05   8.54015000e-01   1.72292490e-01
C     5.997362255000000e+00   2.529227067001835e+00   3.784090500000000e+00  1.08504783e+00  -3.76916620e-01   5.18402000e-03
C     1.245911557210000e+01   6.670576532185166e+00  -3.536468999999975e-01  1.58611571e+00   2.47441210e+00   5.45951540e-01
C     1.373065565050000e+01   7.405221589041275e+00  -3.255894000000019e-01 -1.30364635e+00  -9.46977350e-01  -2.84379050e-01
C     7.264234560100000e+00   1.827325443562019e+00   3.774279600000000e+00 -8.31018670e-01   8.69566700e-01  -4.29217760e-01
C     8.489853611199999e+00   2.558100193918069e+00   3.671855700000000e+00 -6.81758330e-01  -6.47144140e-01   3.99983400e-02
C     1.385160309400000e+00   3.085332344654561e-01  -2.333864999999982e-01  9.87510000e-03  -1.13608187e+00  -1.51866456e+00
C     2.612483217800000e+00   1.038893074302283e+00  -3.102108000000001e-01  6.29490930e-01  -1.39722817e+00   6.12876740e-01
C     1.094727910990000e+01   4.029638714479779e+00   3.683354700000000e+00 -7.11923840e-01  -1.01712428e+00   7.83391350e-01
C     1.219229731660000e+01   4.716508605431022e+00   3.855118500000000e+00 -3.59043630e-01  -1.18826371e+00  -3.61037550e-01
C     3.865027266700000e+00   2.887018095761800e-01  -3.426408000000016e-01 -1.17401479e+00   3.76790210e-01  -8.07856360e-01
C     5.071680607800000e+00   1.018199465524842e+00  -4.714706999999976e-01 -4.70746800e-02   2.93066980e-01   3.26707500e-01
C     3.556661978500000e+00   3.997977259081406e+00   3.911569500000000e+00  5.02468660e-01  -1.47359537e+00  -9.77027340e-01
C     4.834541248099999e+00   4.660284600996825e+00   3.847393800000000e+00 -2.52448442e+00   1.64060695e+00  -3.32129800e-01
C     6.301745582200000e+00   3.164830532223360e-01  -4.179621000000004e-01  5.96434830e-01  -7.00951410e-01   4.02864300e-02
C     7.537272405000000e+00   9.914629698109136e-01  -3.484122000000021e-01  5.38765540e-01  -4.95862270e-01   1.28729950e-01
C     6.027841585600000e+00   3.945833364634762e+00   3.772034400000000e+00  2.43013920e-01   2.88144430e-01   2.85639000e-03
C     7.238509475000000e+00   4.685502092136466e+00   3.704732700000000e+00 -5.22256710e-01   1.36547217e+00  -8.76855310e-01
C     8.798501585599999e+00   2.778908245777664e-01  -2.222723999999978e-01 -1.40120539e+00   1.12686990e-01  -1.25522677e+00
C     9.999186077099999e+00   1.010941221226737e+00  -2.957123999999993e-01  9.49041060e-01  -9.65876950e-01   1.46119112e+00
C     8.437693077300001e+00   3.980503881936182e+00   3.603360000000000e+00  1.75238919e+00  -1.50901950e-01   1.20515329e+00
C     9.673772109399998e+00   4.696028471915580e+00   3.740064000000000e+00  9.03027080e-01   2.82306470e-01  -1.05261406e+00
C     2.618566739200000e+00   2.460215125862895e+00  -2.710875000000001e-01  4.00549270e-01  -7.23369530e-01  -3.65749000e-02
C     3.850686389700000e+00   3.166928481708191e+00  -3.140330999999996e-01  2.85056430e-01   1.36314290e-01  -6.58314510e-01
C     1.217175213320000e+01   6.102601432234508e+00   3.861963000000000e+00 -6.50280030e-01   9.53538720e-01   3.43791800e-02
C     1.337401604880000e+01   6.830511088404203e+00   3.871775100000000e+00  1.70405021e+00  -7.77191290e-01  -9.54586060e-01
C     5.055398148899999e+00   2.453139104048433e+00  -5.160330000000002e-01  1.40691632e+00  -2.95135860e-01   1.34819726e+00
C     6.335516476600000e+00   3.146317957502720e+00  -4.327833000000005e-01 -1.89669030e+00  -4.22157940e-01  -9.94089380e-01
C     4.768363491700000e+00   6.105532276801557e+00   3.729414600000000e+00  4.74947600e-01   2.88791450e-01   1.15507641e+00
C     5.998126947299999e+00   6.863362967253593e+00   3.682792200000000e+00  2.75360000e-04  -1.85350683e+00  -7.81834170e-01
C     7.528764703999999e+00   2.391927634373077e+00  -4.069215000000028e-01  3.29074670e-01   7.44037510e-01   7.40215560e-01
C     8.746807873399998e+00   3.093107967597648e+00  -2.760278999999990e-01  1.21004199e+00  -2.90496440e-01  -3.10478700e-02
C     7.241130805300000e+00   6.167084026044542e+00   3.621618300000000e+00 -6.13200500e-01  -2.47368841e+00   1.30583177e+00
C     8.467460811699999e+00   6.842975225831545e+00   3.762745500000000e+00 -1.39438100e-01  -6.39217190e-01  -7.60408850e-01
C     9.993425322799999e+00   2.400963615263013e+00  -1.995402000000013e-01  7.75321800e-01   1.42040775e+00  -8.72162730e-01
C     1.126194439580000e+01   3.141556434478862e+00  -2.513795999999999e-01 -2.03496850e+00  -3.13294740e-01   4.97997750e-01
C     9.700251780300000e+00   6.118681328259500e+00   3.793565400000000e+00 -9.56576270e-01  -5.37597810e-01  -1.72989550e-01
C     1.092373569770000e+01   6.786363977272079e+00   3.799118700000000e+00  1.05536447e+00   2.19186201e+00   8.99321220e-01
C     3.891115544899999e+00   4.585622055062848e+00  -3.048330000000021e-01 -9.12031120e-01   3.60952800e-02  -8.31623600e-01
C     5.133088589200000e+00   5.277205138238634e+00  -5.362133999999976e-01 -2.16557792e+00  -6.55026540e-01   1.15374639e+00
C     1.339469148280000e+01   8.237802691845127e+00   3.791281800000000e+00  1.29938439e+00   4.57866530e-01  -1.12678140e-01
C     9.731280953799999e+00   4.062038025773728e-01   3.689076900000000e+00 -1.63964269e+00   6.54900730e-01   4.35822900e-02
C     6.332904069600000e+00   4.572355250650388e+00  -4.899386999999997e-01  1.45943719e+00  -9.71470970e-01   9.86567000e-03
C     7.596396169500000e+00   5.239763199695825e+00  -4.439196000000010e-01 -1.76647106e+00   7.16680680e-01   3.12353960e-01
C     6.014812483000000e+00   8.254120911652617e+00   3.619037400000000e+00 -3.31450470e-01   6.35999800e-01   6.50019080e-01
C     2.294369692700000e+00   4.396414575456904e-01   3.681349200000000e+00  3.37948900e-01  -3.76550810e-01  -3.37073600e-02
C     8.774977203199999e+00   4.489375879289101e+00  -2.989515000000011e-01  4.58338750e-01   1.86129565e+00  -4.07502770e-01
C     9.990036144999998e+00   5.238673707348681e+00  -2.911452000000025e-01  1.08841910e+00   1.27893862e+00  -6.21740300e-02
C     8.436634014699999e+00   8.234903441616853e+00   3.741020400000000e+00  1.19355970e+00   1.72624706e+00   3.00483060e-01
C     4.750937223499999e+00   4.159390430355160e-01   3.814147200000000e+00  9.56455990e-01  -1.02040772e+00  -5.10495800e-02
C     1.122553886010000e+01   4.552893223354476e+00  -2.664422999999978e-01  9.99209610e-01   4.82658960e-01   2.26953910e-01
C     1.248141016600000e+01   5.292526684742897e+00  -2.705699999999993e-01 -1.12829400e-02  -1.74340118e+00  -3.24778410e-01
C     1.095966060770000e+01   8.250574233649747e+00   3.875853600000000e+00 -1.76691694e+00  -9.29666800e-01  -9.17706800e-01
C     7.254496281800001e+00   4.184337149472480e-01   3.799804800000000e+00 -3.00942560e-01  -2.44688990e-01   4.67950210e-01
