52
Lattice="8.88768389401873 1.33226762955019e-15 0 4.44384194700937 7.69696003302603 0 0 0 30 " PBC="1 1 1" Properties=species:S:1:pos:R:3:force:R:3 Energy="-418.13807772"
C     1.265674194947221e+01   6.990292739354463e+00  -1.315314000000001e-01  2.49407267e+00  -1.54769543e+00   2.30329000e-03
C     8.957592238373023e+00   6.737664117854607e+00  -3.222807000000003e-01 -8.78588720e-01   6.55180810e-01  -6.72651750e-01
C     1.029957149155378e+01   6.338437194413763e+00  -3.668858999999998e-01  2.90445170e-01   1.89110366e+00   1.13834052e+00
C     1.061703911485059e+01   4.999486188791811e+00  -3.219861000000002e-01  5.64562700e-01  -5.52636590e-01   3.02056070e-01
C     6.539662107263473e+00   6.205324813110939e+00  -2.492285999999986e-01  1.60580950e-01  -2.26075703e+00  -4.61969700e-02
C     7.924634642471578e+00   5.772024217313287e+00  -3.842508000000002e-01 -1.37275503e+00   4.73401130e-01   8.62645530e-01
C     8.236355267140897e+00   4.383624938644203e+00  -3.605333999999978e-01  7.42056420e-01   6.82638120e-01  -1.50886500e-01
C     9.617270530269753e+00   4.034917551147466e+00  -3.897545999999998e-01 -4.30255270e-01  -2.94848219e+00   5.74649040e-01
C     9.978609494287424e+00   2.605847689619063e+00  -2.842055999999999e-01 -4.54084290e-01   1.90420508e+00  -3.05779030e-01
C     4.110400134701166e+00   5.588953100574142e+00  -1.069964999999975e-01  1.14016597e+00   7.23080430e-01   3.47630280e-01
C     5.501988084112240e+00   5.178288109680716e+00  -1.338083999999995e-01 -5.51302800e-02   8.20097760e-01  -9.06631700e-02
C     5.858887472301315e+00   3.792533814356342e+00  -9.828089999999889e-02 -4.20129410e-01  -1.11350910e-01   7.83930000e-02
C     7.231161240370431e+00   3.423059874759464e+00  -2.129036999999983e-01 -7.26590540e-01  -2.62780341e+00   2.44490900e-02
C     7.568296463703964e+00   1.958061989263826e+00  -1.954845000000027e-01  2.04022340e-01   3.52186949e+00  -3.82961230e-01
C     8.941765714164919e+00   1.637532402740916e+00  -2.781173999999993e-01  4.08928000e-02  -6.25932850e-01   8.55573900e-01
C     3.068110559612708e+00   4.655096411023902e+00  -7.815090000000069e-02  1.64792401e+00  -2.72494855e+00  -1.19033235e+00
C     3.456405202297937e+00   3.234463264353982e+00  -1.332032999999981e-01  4.85631800e-01   5.91574500e-01   9.93405720e-01
C     4.814593057865991e+00   2.776505534069826e+00  -2.168849999999978e-02  1.03606888e+00   1.06535174e+00  -1.59404029e+00
C     5.195193588190443e+00   1.388530819715997e+00  -2.296392000000012e-01 -2.62963400e-01   1.73947486e+00   1.36298276e+00
C     6.561240689347557e+00   9.927535198213985e-01  -1.891800000000003e-01 -8.17414850e-01   4.06837130e-01  -3.54716500e-02
C     1.133136520082173e+01   7.319964775001006e+00  -1.703985000000010e-01 -1.75224160e+00   4.39701230e-01  -9.09163560e-01
C     2.466484749153513e+00   2.249636150941078e+00  -1.953612000000007e-01 -8.92171680e-01  -1.33597841e+00  -5.95626900e-02
C     2.814387223805388e+00   8.451125107051466e-01  -1.780881000000001e-01 -6.94229820e-01   2.26757740e-01  -5.19730860e-01
C     4.178540448395148e+00   4.381983254039405e-01  -2.368379999999988e-01 -8.35155900e-01  -1.04468239e+00  -9.41685000e-02
C     3.686711265720491e-01   2.624245425300371e-01  -1.680650999999997e-01  9.42412710e-01  -3.03435370e-01  -4.21562500e-01
C     6.200619053634869e+00   7.560651332105517e+00  -2.201874000000004e-01 -1.48691780e-01   9.47555980e-01   4.26757430e-01
C     6.455447881382178e-01   7.336398246482658e-01   3.754835100000000e+00 -5.19074080e-01   6.52834930e-01  -1.07802633e+00
C     3.062007028658870e+00   1.612737107821873e-01   3.876386100000000e+00 -8.03009210e-01  -8.67971190e-01  -1.29830983e+00
C     4.426406042664427e+00   5.514849540310913e-01   3.733703100000000e+00 -1.09664210e+00   8.33210860e-01  -1.51911670e-01
C     9.854011368208543e+00   7.277852551528069e+00   3.518882700000000e+00  1.24030686e+00  -1.72187284e+00   3.94151560e-01
C     1.123546758068217e+01   7.644663419924166e+00   3.465203700000000e+00 -4.28355500e-02   9.53434000e-02   9.50517300e-02
C     1.227288181551808e+01   6.647071898906312e+00   3.484246200000000e+00 -9.33662530e-01  -9.64110000e-04  -1.98216390e-01
C     4.735068998135277e+00   7.058050079103357e+00   3.582331800000000e+00 -1.27172690e-01   3.42511100e-02   6.58091050e-01
C     5.729577405735059e+00   6.066424779683156e+00   3.620414100000000e+00  1.34040083e+00  -1.73669690e-01   6.86411710e-01
C     7.115992145956374e+00   6.477295510318183e+00   3.678888600000000e+00  3.09873220e-01  -1.95521230e-01   2.39508250e-01
C     8.140432584240180e+00   5.489427251027826e+00   3.566239500000000e+00  1.21698556e+00  -9.61988450e-01  -1.36771640e-01
C     9.553857617912106e+00   5.855699332221823e+00   3.513787800000000e+00 -1.21251831e+00   9.27720230e-01   1.19292850e-01
C     1.059882220685104e+01   4.870339204326842e+00   3.514893000000000e+00 -2.40361244e+00  -3.82832730e-01  -3.13904610e-01
C     3.044584771854211e+00   5.232632880820533e+00   3.480707100000000e+00  1.07954366e+00   1.90201594e+00   9.92290080e-01
C     4.049985080513673e+00   4.262658283299118e+00   3.682746600000000e+00 -6.50355500e-02   6.39396820e-01  -1.02163623e+00
C     5.402447312926135e+00   4.666798869053514e+00   3.702037800000000e+00  2.50154390e-01   1.20990712e+00  -1.64552865e+00
C     6.414734687847913e+00   3.721383731595824e+00   3.482218800000000e+00  1.84232383e+00  -1.08896443e+00   1.55733140e+00
C     7.822212350081895e+00   4.073381338596584e+00   3.503106600000000e+00 -9.92176410e-01   1.74623298e+00   1.94144320e-01
C     8.857967209922354e+00   3.114619980325275e+00   3.621178500000000e+00 -7.12556490e-01  -4.20284110e-01  -8.75840560e-01
C     1.021775942628705e+01   3.486762840812556e+00   3.604261800000000e+00  8.14932690e-01   4.08902570e-01   9.44255200e-01
C     2.357670569098912e+00   2.511426771843044e+00   3.812764500000000e+00 -1.14555744e+00   2.02790500e-02  -1.34295605e+00
C     3.700511217114622e+00   2.900888100276225e+00   3.654919200000000e+00  1.73656000e-03   3.89609870e-01   1.35755155e+00
C     4.722785460239153e+00   1.967261241952481e+00   3.683244000000000e+00  1.20197084e+00  -2.25980572e+00  -1.36656740e-01
C     6.093079452762802e+00   2.335847952966700e+00   3.576189000000000e+00 -3.60695340e-01   1.61631340e-01  -7.27045770e-01
C     7.103947642289336e+00   1.341651791926879e+00   3.497908200000000e+00  1.50386956e+00  -8.08240000e-02   3.90934380e-01
C     8.502035155452834e+00   1.737116826153061e+00   3.588446700000000e+00 -1.11686870e-01  -8.58707730e-01   5.72743210e-01
C     2.020453088402943e+00   1.131575198196076e+00   3.857508600000000e+00 -2.97934650e-01  -4.02950000e-02   2.49321870e-01
