64
Lattice="9.86 0 0 4.93 8.53901048131456 0 0 0 30 " PBC="1 1 1" Properties=species:S:1:pos:R:3:force:R:3 Energy="-513.85633047"
C     9.934864860099999e+00   2.719009648963608e-01  -1.163751000000026e-01 -2.33553895e+00   1.37121121e+00   2.10760200e-02
C     1.280637259500000e+00   9.766364297441752e-01  -1.490301000000009e-01  3.19305950e-01   1.32634848e+00  -1.09909559e+00
C     1.182937477500000e+00   4.719330919174872e-01   3.637928100000000e+00 -2.36111670e-01  -1.58506279e+00   6.50502640e-01
C     2.427927090200000e+00   1.119658963366944e+00   3.547567800000000e+00 -3.14128500e-02  -1.47440480e+00   3.08859400e-01
C     2.523219898300000e+00   3.068345691106696e-01  -1.034039999999976e-01 -1.02327927e+00  -1.88609903e+00   4.64298060e-01
C     3.725126339600000e+00   1.002178061721637e+00  -1.776047999999975e-01  6.53712280e-01   1.68671971e+00   5.61381520e-01
C     3.617499854700000e+00   3.667239437934072e-01   3.551464800000000e+00  2.92125616e+00   1.90751137e+00   4.46469590e-01
C     4.907938644400000e+00   1.123376848529936e+00   3.588060300000000e+00 -8.76429650e-01  -2.43202467e+00  -3.63378550e-01
C     4.944041625999999e+00   2.869261223468640e-01  -1.299540000000121e-02  2.66979940e-01   1.26661980e-01  -1.22506850e+00
C     6.156867918700000e+00   1.027485895592156e+00  -1.164734999999979e-01  1.18908059e+00  -1.18056161e+00   8.36757980e-01
C     6.152611751099999e+00   4.019866414716152e-01   3.543989400000000e+00 -1.57994788e+00   4.39460530e-01   6.04884490e-01
C     7.346490032499999e+00   1.139438983413130e+00   3.677564700000000e+00  2.07951724e+00  -2.07873086e+00  -8.22597570e-01
C     7.409012884100000e+00   3.076409932604008e-01  -8.589749999999796e-02  7.36919000e-01   7.52312440e-01  -4.14330490e-01
C     8.668350177200001e+00   1.054960588762080e+00  -1.273662000000009e-01 -5.74126740e-01  -2.20973385e+00   9.94635400e-02
C     8.616492246699998e+00   3.885762962929848e-01   3.630220800000000e+00 -8.01514320e-01   6.85351190e-01   1.51629311e+00
C     9.830002872700000e+00   1.174199416494905e+00   3.767218500000000e+00 -5.71731830e-01  -1.48565359e+00  -1.65678744e+00
C     1.111344155540000e+01   2.402476044799230e+00  -3.928379999999976e-01 -8.91788400e-02   3.70919420e-01   1.27585279e+00
C     2.464201093500000e+00   3.163325873186679e+00  -3.703590000000005e-01  1.06301554e+00  -1.53337421e+00  -7.22796020e-01
C     2.461636014500000e+00   2.496411222776671e+00   3.503745000000000e+00 -9.78386340e-01   3.22469204e+00  -2.04656120e-01
C     3.646011573000000e+00   3.251625304247320e+00   3.500343600000000e+00  2.43785482e+00   2.53433080e-01  -7.47211810e-01
C     3.728605440600000e+00   2.488094995080094e+00  -3.100856999999984e-01 -1.12720378e+00  -2.55427190e+00   7.52796530e-01
C     4.930459426700000e+00   3.176947131924166e+00  -1.983120000000014e-01  1.02053119e+00  -2.00129360e-01  -9.17173600e-02
C     4.934710910800000e+00   2.499132690806752e+00   3.607854300000000e+00 -1.77618882e+00   2.56334734e+00  -4.07036960e-01
C     6.153361702700000e+00   3.228034494604119e+00   3.622063200000000e+00 -3.13033190e-01   8.63707670e-01   4.23930140e-01
C     6.173471369900000e+00   2.430892761605308e+00  -8.130509999999802e-02 -1.31386489e+00   1.13954919e+00  -3.72209690e-01
C     7.367799119399999e+00   3.158056876769995e+00  -4.448730000000012e-02  2.18034450e+00  -1.90383910e-01  -3.51888570e-01
C     7.379548591200000e+00   2.538725862259787e+00   3.687478800000000e+00  5.92715920e-01   8.48106070e-01  -6.80317430e-01
C     8.634244585099999e+00   3.261948711747326e+00   3.570547800000000e+00 -1.42070626e+00   1.65878560e-01   7.99593450e-01
C     8.609683719500000e+00   2.460360545211369e+00  -1.700651999999998e-01  1.47056186e+00  -2.68677170e-01   3.84572480e-01
C     9.897426538700000e+00   3.145961283034970e+00  -2.978874000000005e-01 -1.51770271e+00  -1.29224845e+00   4.42865630e-01
C     9.852128860599999e+00   2.582414343139031e+00   3.614787300000000e+00  2.81999310e-01  -2.10807480e-01   9.66125000e-03
C     1.109343226300000e+01   3.263815766388777e+00   3.486164100000000e+00 -8.92665600e-02   9.80306550e-01   7.00992600e-02
C     1.235975304900000e+01   4.549628503477658e+00  -4.559199000000014e-01 -5.71385660e-01   2.11174077e+00   1.52327700e-01
C     3.741990932900000e+00   5.310857976271047e+00  -3.423090000000002e-01 -1.01243023e+00  -1.54302559e+00   3.52581180e-01
C     3.695667026000000e+00   4.708474762811020e+00   3.307299600000000e+00 -8.56651280e-01  -1.53053876e+00   2.10307286e+00
C     4.951683717600000e+00   5.349951530220898e+00   3.580512300000000e+00 -2.51300328e+00   2.12494461e+00  -6.44776790e-01
C     4.962899369000000e+00   4.594087544662615e+00  -2.283413999999979e-01  1.18908596e+00  -3.03225110e-01  -4.73982700e-02
C     6.262836050200000e+00   5.253491793795045e+00  -1.181237999999993e-01 -3.98459956e+00   1.48270149e+00   6.78525480e-01
C     6.120087949500000e+00   4.675253998708894e+00   3.651105600000000e+00  2.92517106e+00  -1.98482293e+00  -5.33714790e-01
C     7.369936126500000e+00   5.390826492537086e+00   3.602926200000000e+00 -7.69331240e-01   3.62843690e-01   4.62181190e-01
C     7.461140189799999e+00   4.585857987922411e+00   8.086500000000000e-03 -1.13901921e+00  -1.63405117e+00  -3.85480100e-01
C     8.659331136599999e+00   5.282569686182589e+00   3.480300000000000e-03  1.19366981e+00  -1.00740394e+00  -2.89817430e-01
C     8.610995691099999e+00   4.676361337587940e+00   3.558536700000000e+00 -9.34318410e-01   5.07864670e-01  -1.32642550e-01
C     9.798885254999998e+00   5.417107261261696e+00   3.489527100000000e+00  2.24977487e+00  -8.32860350e-01  -2.66517310e-01
C     9.879926221900000e+00   4.531511199552137e+00  -1.909251000000012e-01  9.77976790e-01   2.40282744e+00  -1.08453399e+00
C     1.110651776480000e+01   5.270794561510878e+00  -4.571246999999978e-01  2.05348070e-01   2.07872300e-02   1.38639333e+00
C     1.107416947120000e+01   4.738985501157107e+00   3.417060600000000e+00  6.33997600e-02  -2.06142208e+00  -2.05036540e-01
C     1.231082856710000e+01   5.441773644664957e+00   3.330614400000000e+00 -6.50999700e-02  -2.86903480e-01   2.79181910e-01
C     1.353509201610000e+01   6.696352218439884e+00  -1.616840999999987e-01  2.46842341e+00   8.93063680e-01  -7.69801480e-01
C     4.948811746100000e+00   7.406532156369747e+00  -1.121121000000009e-01 -1.23070953e+00  -6.45330290e-01   4.83810990e-01
C     4.942668620999999e+00   6.785584451005359e+00   3.681783900000000e+00 -2.66857396e+00  -9.47952600e-02  -5.25039860e-01
C     6.086232012600000e+00   7.569932184601988e+00   3.672786900000000e+00  2.40674403e+00  -4.74786590e-01  -4.88417000e-03
C     6.134522151400000e+00   6.671013814911846e+00  -3.059999999999974e-02  3.18937387e+00   4.52090940e-01  -1.37245080e-01
C     7.414622188799999e+00   7.381233715410755e+00   5.037630000000000e-02 -1.28838604e+00   1.60199433e+00  -5.96906640e-01
C     7.341950734999999e+00   6.826726428179257e+00   3.630742800000000e+00  9.99588700e-01  -1.03044260e-01   1.37330820e-01
C     8.632333963599999e+00   7.517010471690720e+00   3.634452000000000e+00 -2.22547709e+00  -4.25790500e-01  -1.10201250e+00
C     8.618246636499999e+00   6.683396148618789e+00   3.388410000000000e-02  2.46940823e+00   5.13010040e-01  -2.21492140e-01
C     9.905993301099999e+00   7.393850530345479e+00  -5.272649999999857e-02 -1.38568669e+00   2.54756840e-01  -4.73876470e-01
C     9.857982200300000e+00   6.816177590802580e+00   3.477781200000000e+00 -1.65918680e+00   1.32054790e-01   5.52888580e-01
C     1.106087612060000e+01   7.514678809489051e+00   3.456151800000000e+00  2.30535960e-01   2.14314384e+00   2.17417920e-01
C     1.112324983970000e+01   6.710214789613536e+00  -3.391680000000008e-01 -6.24185010e-01  -6.52360130e-01   1.29050725e+00
C     1.235526527000000e+01   7.418413250161514e+00  -1.830497999999992e-01 -1.41085325e+00   6.05246790e-01  -3.62720410e-01
C     1.228464898530000e+01   6.884594021350646e+00   3.459081600000000e+00  2.10596270e-01  -3.99310601e+00  -3.99361790e-01
C     1.350667239020000e+01   7.455714721981926e+00   3.643382700000000e+00  2.97544205e+00   3.85001754e+00  -4.46721640e-01
