64
Lattice="9.86 0 0 4.93 8.53901048131456 0 0 0 30 " PBC="1 1 1" Properties=species:S:1:pos:R:3:force:R:3 Energy="-514.46073152"
C     9.805080145100000e+00   6.399550303522376e-01   9.286590000000000e-02  1.43444922e+00  -9.99046720e-01   1.71858730e-01
C     1.182653312300000e+00   1.329118414128305e+00   5.382000000000000e-03  1.04507450e+00   1.24555606e+00  -7.14113970e-01
C     1.277324644600000e+00   6.517997479593600e-02   3.840298500000000e+00 -7.40659170e-01   1.03154868e+00  -9.59781040e-01
C     2.470217468300000e+00   8.304639405454391e-01   3.647247900000000e+00  1.59599421e+00  -6.16154850e-01   8.02746200e-02
C     2.422698578700000e+00   6.001306224954039e-01  -2.677020000000141e-02  9.57178300e-02   1.46080617e+00   1.48203050e-01
C     3.666528754000000e+00   1.305762939613933e+00  -1.296447000000001e-01 -9.68368880e-01   1.05393847e+00  -1.81733940e-01
C     3.756186720000000e+00   9.519954925921441e-02   3.699623100000000e+00 -2.42014279e+00   1.69308670e-01  -6.59769500e-02
C     4.961097158199999e+00   7.844532757661601e-01   3.580344300000000e+00  7.94999710e-01   8.17763430e-01   2.71319930e-01
C     4.888448135900000e+00   6.267887300931256e-01  -1.548252000000012e-01 -3.09890860e-01  -1.79323873e+00   7.19170200e-02
C     6.099336346999999e+00   1.314193504660837e+00  -1.070871000000011e-01  8.25926870e-01   1.74693500e+00   7.51003280e-01
C     6.211835446700000e+00   9.387216008009841e-02   3.597991500000000e+00  1.12990000e-03  -5.22629180e-01  -8.64928900e-02
C     7.454229858099999e+00   7.946737027997768e-01   3.658848600000000e+00 -1.38646901e+00   1.03509710e+00  -3.97505580e-01
C     7.334391023700000e+00   6.072425935439865e-01  -1.278270000000248e-02  5.10602070e-01   1.97526149e+00   1.09452920e-01
C     8.603844726099998e+00   1.314156018404830e+00   1.382745000000000e-01 -2.06468123e+00   9.35992030e-01  -9.19071710e-01
C     8.671185223000000e+00   1.368962205538928e-01   3.650604600000000e+00 -3.12170750e-01  -2.41037822e+00   5.03498770e-01
C     9.877616171800000e+00   8.153919893175056e-01   3.712327200000000e+00  2.41489847e+00   1.10744250e-01  -4.39754620e-01
C     1.106941951480000e+01   2.780508456341616e+00  -2.473970999999970e-01 -1.32103230e-01  -2.00867640e+00   7.58768130e-01
C     2.435995774700000e+00   3.493020824984090e+00  -3.842798999999992e-01  3.81552600e-02  -1.00177178e+00   5.41811600e-02
C     2.499721250500000e+00   2.251185187328677e+00   3.336377700000000e+00  4.35807730e-01  -1.68342811e+00   8.14378100e-01
C     3.769137879300000e+00   2.924523393762370e+00   3.351310800000000e+00 -1.76842624e+00   9.45899070e-01  -7.88451310e-01
C     3.671601921200000e+00   2.723961250360750e+00  -2.435928000000018e-01 -8.64726050e-01   1.32997771e+00  -3.81035440e-01
C     4.893985265400000e+00   3.464203116245872e+00  -2.164577999999970e-01 -6.91722320e-01  -3.26285600e-01   3.97370000e-01
C     4.945514266300000e+00   2.223498812088955e+00   3.506682000000000e+00  1.37404125e+00  -1.38454416e+00  -1.66581090e-01
C     6.186547307500000e+00   2.905628100592017e+00   3.513546000000000e+00  8.98993170e-01   9.88136460e-01   1.16239961e+00
C     6.090396137099999e+00   2.763161712721810e+00  -2.481749999999749e-02  2.23063321e+00  -5.05381450e-01  -5.40496340e-01
C     7.378739430300000e+00   3.478541566473573e+00   1.818180000000000e-02 -1.48676484e+00  -3.70461990e-01  -5.75018100e-02
C     7.435884884400000e+00   2.215385300501173e+00   3.652816800000000e+00 -1.54796600e-02   1.10452750e-01  -8.37503340e-01
C     8.664644641299999e+00   2.929557652780959e+00   3.526510200000000e+00  1.62518120e-01   1.04449867e+00   2.51557300e-01
C     8.612691364600000e+00   2.745238756674814e+00   3.913140000000000e-02 -1.20760539e+00  -9.78477200e-02  -1.74271010e-01
C     9.813288595100000e+00   3.434617750465502e+00  -2.029581000000000e-01  1.22412280e+00   7.55685350e-01  -1.18517270e-01
C     9.916924491499998e+00   2.231143617391489e+00   3.471384000000000e+00 -6.59685970e-01  -2.12855600e-01   2.73426530e-01
C     1.113831567320000e+01   2.936585173015895e+00   3.235178700000000e+00 -4.10271870e-01   1.35723910e-01   5.23875490e-01
C     1.227439512760000e+01   4.923787278305896e+00  -5.231819999999985e-01  8.21223870e-01  -5.50118920e-01   8.48684420e-01
C     3.650969279600000e+00   5.599861896038010e+00  -3.462947999999990e-01  2.45643550e-01   1.63031066e+00   6.24685570e-01
C     3.776661453700000e+00   4.353558391929147e+00   3.212071500000000e+00 -1.30683869e+00  -1.77646900e-01   5.11318630e-01
C     4.945613950899999e+00   5.081002842807893e+00   3.493968600000000e+00  1.62820531e+00  -8.05893430e-01   1.29598290e-01
C     4.852911463400000e+00   4.880643415515067e+00  -2.142479999999978e-01  1.53890431e+00   8.98242210e-01   3.88799610e-01
C     6.094509088199999e+00   5.623399678426130e+00  -1.391399999999976e-02  1.22792960e-01  -8.78287410e-01  -8.32962900e-02
C     6.217543548600000e+00   4.328117691055559e+00   3.625441200000000e+00 -1.01318208e+00   1.38043473e+00  -7.64195630e-01
C     7.451674491199999e+00   5.086152634638275e+00   3.682452000000000e+00 -6.51012670e-01  -1.51628413e+00   1.73939200e-01
C     7.344461929100000e+00   4.914690243491028e+00  -2.591189999999699e-02  7.56052960e-01  -9.01585150e-01  -3.22679190e-01
C     8.609206150400000e+00   5.587132793115473e+00  -1.871940000000016e-01 -3.80579880e-01  -1.42610790e-01   5.39800480e-01
C     8.672928816099999e+00   4.392816663391156e+00   3.538219500000000e+00  3.74650030e-01  -1.95789424e+00  -7.74653170e-01
C     9.908371237299999e+00   5.067900755907590e+00   3.307973400000000e+00 -5.39549620e-01   4.15842830e-01   9.04602400e-01
C     9.845500771399999e+00   4.838799190119294e+00  -3.485340000000008e-01 -8.82883260e-01   2.60076781e+00   2.65638690e-01
C     1.106800534430000e+01   5.646078350969856e+00  -4.744985999999969e-01 -1.33711805e+00  -1.54423887e+00   4.58863690e-01
C     1.114979291040000e+01   4.356560964184229e+00   3.140815500000000e+00 -1.39075698e+00  -5.70249600e-02  -7.72392100e-02
C     1.236225541840000e+01   5.047888303996137e+00   3.094247700000000e+00  1.81716219e+00   1.02544512e+00   1.14232324e+00
C     1.354696966790000e+01   7.040969261831306e+00  -1.069527000000008e-01 -2.08269481e+00  -2.52227160e-01  -1.06259552e+00
C     4.907678981299999e+00   7.746016571341849e+00   5.288970000000000e-02 -7.15967710e-01  -7.77500200e-02   2.94297050e-01
C     4.931091896400000e+00   6.495253825180120e+00   3.657333300000000e+00  2.06327871e+00  -1.29283500e-02   2.62805190e-01
C     6.221487647200000e+00   7.160095033065375e+00   3.878332800000000e+00 -2.28197798e+00   1.47808483e+00  -5.02772370e-01
C     6.131056755800000e+00   7.032659353002483e+00   1.153275000000000e-01  3.58429140e-01   2.75673860e-01  -9.03646800e-01
C     7.388819160399999e+00   7.756636453285720e+00   4.766010000000000e-02 -1.01317826e+00  -2.16443478e+00   3.52395500e-02
C     7.436707405600000e+00   6.482961578033741e+00   3.832679400000000e+00 -4.75891310e-01  -5.64266800e-02  -2.01017530e-01
C     8.625461149200000e+00   7.211369912415469e+00   3.772770300000000e+00  2.36133728e+00  -3.54496120e-01  -9.32064320e-01
C     8.604586198100000e+00   7.014820420818610e+00  -1.060307999999992e-01 -5.59703480e-01  -3.38658860e-01  -2.09318200e-01
C     9.807292778399999e+00   7.711406168674208e+00  -2.038980000000024e-01  1.53140540e-01   2.03538351e+00   1.29735980e-01
C     9.851696400999998e+00   6.477439229176115e+00   3.492936300000000e+00  1.81545010e+00   1.42568255e+00   1.41844160e-01
C     1.114126741210000e+01   7.216926331924910e+00   3.474859200000000e+00 -8.52868470e-01  -1.46671224e+00  -3.13944310e-01
C     1.103365344940000e+01   7.066334477852250e+00  -3.127131000000034e-01  3.89743260e-01  -1.40440907e+00  -4.22212210e-01
C     1.223409198320000e+01   7.788205516590699e+00  -1.937528999999998e-01  3.05345489e+00  -2.50491690e+00   5.14157680e-01
C     1.238842440070000e+01   6.466997470990857e+00   3.337857900000000e+00 -9.90560060e-01   1.43934779e+00   2.06621490e-01
C     1.359943157270000e+01   7.226918511208396e+00   3.574974000000000e+00 -6.57816290e-01  -4.44653360e-01  -4.94294530e-01
