76
Lattice="10.7446858958278 0 0 5.37234294791388 9.3051709414712 0 0 0 30 " PBC="1 1 1" Properties=species:S:1:pos:R:3:force:R:3 Energy="-610.67857937"
C     3.025263017318100e-02   2.889516121656320e-02  -3.244173000000004e-01 -1.93006542e+00   9.20576950e-01   3.94886980e-01
C     1.246072543349596e+01   8.473112697181524e+00  -3.701840999999995e-01 -1.97318360e-01   2.02848567e+00   6.53024060e-01
C     1.383923580945053e+01   8.326992202135063e+00  -4.071914999999997e-01  1.66396741e+00  -1.90116193e+00   5.35602670e-01
C     1.446818781776152e+01   6.970189966893321e+00  -2.946780000000011e-01 -1.27621343e+00   1.68858838e+00   1.20978400e-02
C     8.245353338327664e+00   9.000106307731246e+00  -1.995171000000013e-01  3.83770550e-01  -2.30335890e-01  -4.32828800e-02
C     9.722191021124615e+00   8.834567781967193e+00  -2.270978999999969e-01 -3.49066894e+00  -2.53385621e+00   5.49146130e-01
C     1.025629039284300e+01   7.492785488398251e+00  -1.281135000000013e-01 -5.06513290e-01   2.38970380e-01  -1.10806671e+00
C     1.164976333487105e+01   7.347900068690657e+00  -2.703878999999993e-01 -9.91752100e-02  -1.16008033e+00   7.34791160e-01
C     1.223828969812217e+01   6.039780533721097e+00  -1.463472000000010e-01 -6.93144580e-01   2.39307000e-03  -8.52861600e-02
C     1.363846592734265e+01   5.821875948819972e+00  -1.063988999999985e-01 -3.70695600e-01   2.80127588e+00  -7.42580030e-01
C     5.943187911857509e+00   8.011036611694715e+00  -3.256641000000009e-01  1.09359342e+00   5.33552940e-01   6.62375760e-01
C     7.376500967287310e+00   7.861478693451308e+00  -2.014355999999999e-01  1.03019769e+00  -4.36089430e-01  -4.51433800e-01
C     8.002983094650466e+00   6.560963623329044e+00  -1.632141000000011e-01 -1.44367632e+00  -1.20599552e+00   5.70505290e-01
C     9.415322738097185e+00   6.310301114650743e+00  -1.186128000000011e-01 -9.36761040e-01   3.76270518e+00   1.66339560e-01
C     9.980635100014496e+00   5.057547718981022e+00  -6.635819999999981e-02 -6.77432500e-01  -6.36483390e-01  -6.38350440e-01
C     1.137066786223451e+01   4.926909911758209e+00  -8.299979999999962e-02  1.09768904e+00  -1.06336033e+00   7.98255680e-01
C     1.192548733996589e+01   3.600835025891116e+00   2.658300000000000e-02  1.15359251e+00   2.26009973e+00   7.18439000e-03
C     5.111562224267447e+00   6.848512574027182e+00  -2.573295000000009e-01  7.47627910e-01  -3.07342700e-01   4.04644170e-01
C     5.693771840401385e+00   5.526278490517283e+00  -7.918589999999881e-02  8.63414850e-01   2.00087655e+00  -9.02919590e-01
C     7.127363398089715e+00   5.396262547868390e+00  -9.537060000000253e-02  1.22446010e-01   6.44545510e-01  -7.17811510e-01
C     7.690314507833639e+00   4.105894115294231e+00  -2.139620999999998e-01  5.22639110e-01  -1.63804560e-01   4.72525580e-01
C     9.125002775611783e+00   3.929956223539344e+00  -1.552158000000006e-01 -1.17417240e+00   4.13523870e-01   4.02549060e-01
C     9.678232899404829e+00   2.654548737854226e+00  -1.149407999999994e-01 -1.85298403e+00  -1.33676784e+00  -7.49999700e-01
C     1.107488551633127e+01   2.518864085068685e+00  -6.454109999999957e-02 -7.18698660e-01  -1.09917821e+00  -6.88649900e-02
C     3.462321006202624e+00   4.572931810977959e+00  -2.055359999999951e-02 -2.10856280e-01  -1.11424706e+00   3.63419370e-01
C     4.857768928945953e+00   4.422404852232861e+00  -1.003836000000007e-01  1.00812307e+00  -2.41219821e+00   3.07389650e-01
C     5.478325738099267e+00   3.071234199495717e+00  -1.842867000000012e-01 -4.44662300e+00   2.12400756e+00   3.31924590e-01
C     6.823077922658928e+00   2.970161898003984e+00  -2.835344999999982e-01  1.74383288e+00  -1.95851220e-01   2.96104920e-01
C     7.348725094660938e+00   1.663604887338670e+00  -3.142310999999971e-01  1.75150772e+00   1.11461350e-01   5.45035040e-01
C     8.756148238456964e+00   1.513869333382019e+00  -2.489714999999997e-01  1.38524623e+00  -7.47066770e-01  -1.22435280e-01
C     9.266862177378005e+00   1.641959757008298e-01  -3.225756000000004e-01  3.40626470e+00   1.36030312e+00  -1.89300890e-01
C     2.601042779146897e+00   3.461779388829141e+00   9.928950000000000e-02  1.12689130e-01  -1.67840689e+00  -1.18064006e+00
C     3.183391753856958e+00   2.144488956536246e+00  -4.791780000000045e-02 -1.79378965e+00  -2.74448330e-01   1.29916570e-01
C     4.559070099225440e+00   1.954162106749999e+00  -1.713777000000007e-01  1.63185775e+00   3.20670460e-01  -9.45583000e-02
C     5.126379361017265e+00   6.446242776257648e-01  -2.729846999999985e-01  1.44260667e+00   1.70522310e+00   6.12206430e-01
C     6.549927538454287e+00   5.216772872365704e-01  -2.484780000000022e-01 -8.56222440e-01  -1.68757197e+00  -1.36570468e+00
C     8.551970571769041e-01   1.248336696283050e+00  -1.915827000000014e-01  1.39603571e+00  -4.44061801e+00   5.65592700e-02
C     2.293145477550824e+00   9.883705054920996e-01  -1.476840000000017e-01  1.32142900e-01   1.65596533e+00   5.60031800e-02
C     1.606591439140681e+01   9.268059964205381e+00   3.413553000000000e+00 -8.90728580e-01   8.90790000e-01   1.91387500e-01
C     1.183640690980905e+01   8.857367590959509e+00   3.554531100000000e+00 -1.88930661e+00  -1.73074913e+00   7.11217990e-01
C     1.323354803387993e+01   8.931298383750031e+00   3.553874400000000e+00  2.25265880e-01   1.70681863e+00  -6.10697810e-01
C     1.407099513856718e+01   7.812205393979563e+00   3.536982300000000e+00  4.43259310e-01  -1.39578052e+00   4.66232020e-01
C     7.607522996057504e+00   8.301104658269727e+00   3.522153000000000e+00 -6.30093370e-01   2.02551597e+00  -3.48407930e-01
C     9.012404162063309e+00   8.514931065902980e+00   3.569370300000000e+00 -5.82045860e-01  -2.02876468e+00  -9.63840400e-02
C     9.821533324720534e+00   7.340661390113012e+00   3.584683500000000e+00  2.03358540e-01   1.23319638e+00   6.19511650e-01
C     1.120584099595245e+01   7.549508228569432e+00   3.606840600000000e+00  2.82683449e+00  -1.60321616e+00  -1.12779592e+00
C     1.209907467100279e+01   6.346043858110344e+00   3.505951200000000e+00 -1.74491820e-01   1.05372976e+00   5.89119000e-01
C     1.352879679868139e+01   6.471526972839235e+00   3.570975900000000e+00 -4.77590450e-01   1.46898690e+00   2.19743900e-02
C     4.740980908641640e+00   7.978332471805571e+00   3.554418000000000e+00  2.09786430e-01  -7.17991700e-02  -3.54011970e-01
C     5.603755977890096e+00   6.855705471163801e+00   3.650994000000000e+00  3.11406360e-01  -4.00825230e-01   4.59627470e-01
C     7.037083484922432e+00   7.041753338093289e+00   3.634347600000000e+00 -8.50391150e-01  -2.06976324e+00   2.47774720e-01
C     7.854977302762005e+00   5.859769117283807e+00   3.732315300000000e+00  2.19400000e-04   6.93420860e-01  -3.28299030e-01
C     9.272367432092590e+00   6.050392336764492e+00   3.688165200000000e+00 -8.21132400e-02  -1.12683830e+00  -7.15369560e-01
C     1.013324901906832e+01   4.916725774371216e+00   3.581368500000000e+00  3.62582210e-01  -1.17609193e+00   8.16310250e-01
C     1.156928907577954e+01   5.030338933893916e+00   3.498645000000000e+00 -7.85367720e-01   1.24311969e+00   1.00043701e+00
C     1.245102260606425e+01   3.908597785525633e+00   3.642757800000000e+00 -2.68577051e+00   5.26878300e-01  -1.06164518e+00
C     3.646521347013825e+00   5.346933138215877e+00   3.680168700000000e+00 -1.33734380e-01   6.56604910e-01  -5.88463000e-03
C     5.053604314054257e+00   5.529107634689881e+00   3.802514700000000e+00 -4.53480460e-01   9.55664340e-01  -1.94849958e+00
C     5.880026135369230e+00   4.403169668124240e+00   3.601858800000000e+00  2.48756940e-01   3.22452280e-01   1.64504934e+00
C     7.259268278157025e+00   4.562249567790548e+00   3.693719100000000e+00  2.58778670e+00   8.82972300e-02  -5.19809900e-01
C     8.159814141749751e+00   3.432213045632675e+00   3.623098500000000e+00 -7.36009500e-01  -5.38807560e-01  -2.47907000e-02
C     9.566421065481384e+00   3.591565214600688e+00   3.676289400000000e+00  1.36706100e-02   5.66799630e-01  -1.51994571e+00
C     1.041044665783434e+01   2.453036793442970e+00   3.466750200000000e+00 -3.62402820e-01  -4.45321000e-03   1.17516973e+00
C     1.181274066464571e+01   2.663909646768157e+00   3.568494000000000e+00  1.56838241e+00  -3.58262634e+00  -1.24093623e+00
C     3.078027214984378e+00   4.054644025307993e+00   3.636078000000000e+00  1.82502601e+00  -1.01627599e+00   7.49220020e-01
C     3.926685539833407e+00   2.886843304355514e+00   3.690461400000000e+00  6.77271830e-01   8.25696710e-01  -4.64726450e-01
C     5.388816272634443e+00   3.104894352647235e+00   3.636632100000000e+00 -3.06962345e+00  -1.44680769e+00  -4.89287400e-01
C     6.201547483792785e+00   1.956756016201233e+00   3.516452700000000e+00  2.00157500e-02   5.80295660e-01   7.55359600e-01
C     7.618810503489171e+00   2.099764489878520e+00   3.484197300000000e+00 -6.59103710e-01   7.82925040e-01   6.60828200e-01
C     8.430247732124576e+00   9.501343484274174e-01   3.501730500000000e+00  4.76081580e-01  -2.41600100e-01  -2.49397590e-01
C     9.828762725458061e+00   1.124432482959258e+00   3.439726800000000e+00  1.40951283e+00   6.36990600e-02  -1.13249100e-01
C     1.944638205808266e+00   1.449995104084902e+00   3.411299400000000e+00 -1.64776354e+00   5.69850220e-01   1.37706124e+00
C     3.344973456380069e+00   1.573376273750156e+00   3.620513700000000e+00 -7.25357600e-02   1.93137990e+00  -7.26936070e-01
C     4.213229658523262e+00   4.734951121092504e-01   3.594887400000000e+00 -4.47681770e-01   5.03128570e-01   1.75674290e-01
C     5.595766014561139e+00   6.876653458087347e-01   3.620740200000000e+00  1.63302361e+00  -9.15953020e-01  -9.04445090e-01
C     1.343586010075504e+00   1.288256251822488e-01   3.374311800000000e+00  1.51774415e+00   6.90126200e-01   5.58247210e-01
