76
Lattice="10.7446858958278 0 0 5.37234294791388 9.3051709414712 0 0 0 30 " PBC="1 1 1" Properties=species:S:1:pos:R:3:force:R:3 Energy="-611.61275119"
C     5.416903257641051e+00   9.280326226641909e+00   6.782700000000000e-03 -5.45220070e-01   1.29238162e+00   3.44279590e-01
C     1.242235288301786e+01   8.491857498781608e+00   3.475170000000000e-02  1.87945365e+00  -2.99082100e-01   3.07838640e-01
C     1.388219677059537e+01   8.280124754609856e+00   5.331960000000000e-02 -1.59536103e+00   3.17344673e+00  -3.77956100e-02
C     1.440164264713019e+01   6.994961634659534e+00   6.658500000000001e-02  1.76298015e+00   1.89282854e+00  -1.70374600e-01
C     8.228259617529355e+00   9.031126025576830e+00  -4.283009999999976e-02 -2.39123230e-01  -2.67123743e+00   4.22766710e-01
C     9.639315808245318e+00   8.844517894305044e+00  -1.766669999999948e-02 -1.43661940e-01   3.07222710e-01   1.93378460e-01
C     1.018309410046928e+01   7.524555854383566e+00  -2.026139999999899e-02  1.43427500e-02   1.61302150e-01  -3.95453500e-02
C     1.159501061818526e+01   7.359192358884894e+00   2.808330000000000e-02 -8.25815520e-01  -7.70135840e-01   5.79148000e-03
C     1.213253577183257e+01   6.029888020391365e+00   2.336940000000000e-02 -5.61703400e-01   2.52428600e-01  -4.28293820e-01
C     1.352737586769454e+01   5.959428707723428e+00  -2.687909999999860e-02  6.85554500e-01  -5.33104493e+00  -3.66885100e-02
C     5.968433249784141e+00   7.970073667337774e+00   4.039200000000000e-02 -8.52877800e-02   3.26531320e-01  -1.16717460e-01
C     7.387821729521837e+00   7.786593934536016e+00  -4.674450000000263e-02 -4.52578960e-01   3.18300603e+00   2.69406110e-01
C     7.929573144197628e+00   6.514433674353831e+00  -4.030320000000032e-02  4.91661920e-01  -3.48473010e-01   2.38354070e-01
C     9.349437882137840e+00   6.377189195763617e+00  -5.164049999999776e-02 -4.57017570e-01  -6.87864030e-01   3.19139970e-01
C     9.867835775733409e+00   5.050451223415340e+00  -1.092600000000132e-02  1.14106617e+00   1.69785180e-01  -4.27839190e-01
C     1.127944966937101e+01   4.835277613133396e+00  -3.351179999999943e-02 -2.55788240e-01   3.97375000e+00  -2.22065240e-01
C     1.184243709615328e+01   3.605083301683773e+00  -1.668993000000007e-01  7.66588900e-01  -2.05402160e+00   6.14578210e-01
C     5.086239309708615e+00   6.860152133200899e+00   9.408929999999999e-02  4.64665530e-01  -1.11811379e+00  -5.76979680e-01
C     5.671241201090816e+00   5.555112051502223e+00   3.014910000000000e-02 -1.68622004e+00  -4.65870820e-01  -2.33061580e-01
C     7.059093973988583e+00   5.388758020556989e+00   4.374900000000000e-02  1.35491446e+00  -1.54164647e+00  -5.08457480e-01
C     7.656640608499611e+00   4.040688222983890e+00   1.910670000000000e-02 -2.01698194e+00   6.39090450e-01  -1.54066020e-01
C     9.051824158246371e+00   3.894841486066484e+00  -3.325499999999693e-02 -5.61011950e-01   9.99887890e-01   1.88848340e-01
C     9.613809428174745e+00   2.620710204575788e+00  -4.978410000000011e-02  5.28326820e-01  -1.55249360e+00  -3.89847200e-02
C     1.103619180719162e+01   2.436747347298825e+00  -1.237917000000017e-01 -9.59652690e-01   3.66618290e-01   4.75301380e-01
C     3.390776064604877e+00   4.580286897244063e+00  -1.159827000000000e-01 -2.08338964e+00   1.06049502e+00   2.30884100e-01
C     4.776082884178638e+00   4.389838056666792e+00  -1.040324999999989e-01  1.20595016e+00   2.47347548e+00   6.65933000e-01
C     5.353866334402930e+00   3.131489368659140e+00  -6.444570000000027e-02  1.69282003e+00  -1.02196027e+00   3.17151250e-01
C     6.774212810335471e+00   2.894352670355804e+00   9.718200000000000e-03  7.09371920e-01   1.65692814e+00  -1.09886460e-01
C     7.343762768924882e+00   1.588668298621243e+00   4.774830000000000e-02  9.37308660e-01   2.15275452e+00   9.77186000e-02
C     8.770370065884492e+00   1.475098501195124e+00   3.707580000000001e-02  2.53390350e-01  -9.73338980e-01  -2.95716090e-01
C     9.362911449639292e+00   1.607161209243980e-01   3.154829999999999e-02 -2.65358800e-01  -8.25481120e-01   9.21452900e-02
C     2.495061495303657e+00   3.452272109576324e+00  -1.219298999999978e-01  2.32506342e+00  -3.58948900e-01   1.05629890e-01
C     3.112725942459549e+00   2.141517536299976e+00  -6.534600000001944e-03  5.89002070e-01   1.25922488e+00  -2.68768010e-01
C     4.554832824893917e+00   2.011125571693396e+00   1.010910000000000e-02 -1.81777738e+00  -1.94404018e+00  -5.14282400e-02
C     5.136136234219048e+00   6.852728933083514e-01   6.919680000000000e-02 -2.74992707e+00   2.44684800e-01  -4.90089450e-01
C     6.492050965513360e+00   5.058650102582284e-01   7.754910000000000e-02  1.49969986e+00  -1.99247244e+00  -2.99726240e-01
C     8.687768358984780e-01   1.164151325961520e+00   6.077999999999999e-04  1.17398030e-01  -1.36683671e+00  -3.62640220e-01
C     2.295503613765297e+00   1.008424637695150e+00   4.878180000000000e-02 -1.05375165e+00  -2.58345590e-01  -7.20355740e-01
C     1.609697206717105e+01   9.300062587257358e+00   3.515251500000000e+00  2.04990673e+00  -6.02606000e-02  -2.69098360e-01
C     1.189269617030197e+01   8.861076259889355e+00   3.383912100000000e+00 -1.52330601e+00  -2.40733519e+00   2.96574780e-01
C     1.327532562904317e+01   9.029281089334555e+00   3.319070700000000e+00  7.25150700e-01  -1.00011186e+00   7.59261450e-01
C     1.415615225411450e+01   7.922759571607447e+00   3.331142700000000e+00 -4.31664560e-01  -3.36534648e+00   3.55980170e-01
C     7.692951146306640e+00   8.275052692033881e+00   3.502833600000000e+00 -3.60749342e+00   1.13224327e+00  -7.98773940e-01
C     9.046319118425505e+00   8.474292034546460e+00   3.362598300000000e+00  5.82725700e-01  -1.62481520e-01   3.21635030e-01
C     9.871842737722666e+00   7.346985184283836e+00   3.411490500000000e+00  2.50289441e+00  -2.15257950e-01  -2.91231700e-02
C     1.132303752921468e+01   7.519686365378954e+00   3.526255800000000e+00 -2.79426940e-01  -1.65430730e-01  -1.16662515e+00
C     1.216770189314439e+01   6.347873161665437e+00   3.522681300000000e+00  2.48353780e-01   1.07489376e+00  -7.94270490e-01
C     1.360700537958059e+01   6.547323452403227e+00   3.387825900000000e+00 -1.81094543e+00   1.51060167e+00   3.66708770e-01
C     4.833633141008782e+00   7.998415356986825e+00   3.404302200000000e+00 -1.55571992e+00   8.40014920e-01  -2.83317400e-02
C     5.651601956755938e+00   6.858356328261189e+00   3.355946400000000e+00  2.28432140e-01  -1.05778709e+00   1.04255600e-01
C     7.063846885796448e+00   6.999859597487222e+00   3.374424000000000e+00  8.27670910e-01  -3.26698170e-01   2.96989250e-01
C     7.914867913351458e+00   5.846787938563960e+00   3.310876800000000e+00  4.40494380e-01   1.65845927e+00   3.36500950e-01
C     9.334853045497180e+00   6.056849380983177e+00   3.323546700000000e+00 -5.13874200e-02  -1.96583604e+00   7.17418120e-01
C     1.020035409528190e+01   4.875196052052321e+00   3.384953100000000e+00 -1.66065319e+00   5.63585020e-01   2.98605900e-02
C     1.158694109045721e+01   5.022155780465860e+00   3.441707100000000e+00  1.01666810e-01   2.31463818e+00   1.65787750e-01
C     1.242018637827641e+01   3.924851220658241e+00   3.413699100000000e+00  4.36679380e-01  -1.12204386e+00   1.55753400e-02
C     3.644317504488876e+00   5.385990290512596e+00   3.385925400000000e+00  2.13022926e+00   1.39708321e+00  -2.50951510e-01
C     5.088814058790833e+00   5.533192139473994e+00   3.313564500000000e+00 -4.52891820e-01   5.25655070e-01   4.10726340e-01
C     5.942126229443729e+00   4.401405593817435e+00   3.354766800000000e+00 -2.53827710e-01   5.67781550e-01   3.19797870e-01
C     7.356878323492146e+00   4.573741546953157e+00   3.395370600000000e+00 -8.65717760e-01  -2.53992920e-01  -4.03897630e-01
C     8.162866223503077e+00   3.449261886777234e+00   3.459847200000000e+00  2.07073491e+00  -2.10477006e+00  -3.69704300e-01
C     9.629522725452052e+00   3.563491793029836e+00   3.412219500000000e+00 -1.17258905e+00   6.94189130e-01   9.49561000e-03
C     1.048744968497557e+01   2.422991606149933e+00   3.411764700000000e+00 -1.33087459e+00   1.20930920e-01   3.02638060e-01
C     1.188393156884305e+01   2.607006944590997e+00   3.392110800000000e+00  4.25056490e-01  -7.14532660e-01   5.30495190e-01
C     3.061022299015031e+00   4.135905617868466e+00   3.436918800000000e+00  1.20218458e+00  -2.75795197e+00   5.74889000e-03
C     3.939958450325677e+00   2.972648518834280e+00   3.449733300000000e+00  2.04386800e-02  -1.27522660e-01  -5.22045480e-01
C     5.359252752891460e+00   3.117057234634618e+00   3.422655600000000e+00 -5.48739590e-01  -2.07714170e-01  -7.21538000e-02
C     6.171439906879254e+00   1.956503101655084e+00   3.429070500000000e+00  6.10312960e-01  -1.33746470e-01  -4.86645880e-01
C     7.591172538906326e+00   2.120728016437537e+00   3.438445800000000e+00  2.13786560e-01   9.63806380e-01   1.89061740e-01
C     8.450362267640241e+00   9.924850659783487e-01   3.414355800000000e+00  9.09732990e-01   1.24972988e+00  -1.95267220e-01
C     9.874439943198416e+00   1.127686035978429e+00   3.464452200000000e+00  5.20939550e-01   5.35596660e-01  -1.14145110e-01
C     1.997692402546984e+00   1.460912395890256e+00   3.470690100000000e+00 -2.35476700e-02  -5.28625380e-01  -2.31862500e-01
C     3.423572606611742e+00   1.639778624939962e+00   3.392039100000000e+00 -1.18773645e+00  -3.53932300e-01   2.27786290e-01
C     4.228325136361319e+00   4.489974816272218e-01   3.295267800000000e+00  2.41858480e-01   1.99005764e+00   9.45893560e-01
C     5.625810144104429e+00   6.373281861434202e-01   3.342230100000000e+00  4.58110850e-01   8.33920750e-01   2.20778840e-01
C     1.436066273744817e+00   1.247968583720664e-01   3.550760400000000e+00 -1.99082160e-01   1.01757550e+00  -4.67963410e-01
