64
Lattice="9.86 0 0 4.93 8.53901048131456 0 0 0 30 " PBC="1 1 1" Properties=species:S:1:pos:R:3:force:R:3 Energy="-512.55035089"
C     4.936955046800000e+00   8.484072023593566e+00  -5.062110000000004e-01 -1.92335920e-01  -5.81409770e-01   1.25432498e+00
C     1.265111604900000e+00   6.615621424708296e-01  -4.486106999999997e-01 -1.28236884e+00   1.58455093e+00  -6.27064850e-01
C     9.822484770599999e+00   2.992052194171040e-02   3.599483100000000e+00  1.49585981e+00   1.07081622e+00   8.06148780e-01
C     1.218741109500000e+00   7.768695243885576e-01   3.741021600000000e+00 -2.01717030e-01  -1.71438178e+00  -5.79338910e-01
C     7.395102642599999e+00   8.513202857846085e+00  -5.587373999999983e-01  1.69316774e+00  -5.37653560e-01   1.45850744e+00
C     3.712726797999999e+00   6.853317589934815e-01  -3.223616999999983e-01 -1.82247695e+00   6.15236680e-01  -2.71589230e-01
C     2.466823311200000e+00   2.989080618524000e-02   3.545223900000000e+00 -2.08741620e-01   1.65625600e-01   2.55671030e-01
C     3.713067411700000e+00   7.288196585165495e-01   3.559251300000000e+00 -1.78769300e-02   5.05549520e-01  -3.90580310e-01
C     9.830067554299999e+00   8.474734188683161e+00  -2.010003000000005e-01  9.72370580e-01   2.65713910e-01   2.36933190e-01
C     6.138936867799999e+00   5.959180724553056e-01  -2.341191000000009e-01  1.05317719e+00   3.06811665e+00  -1.70648080e-01
C     4.996018714600000e+00   7.805629025914720e-02   3.376044300000000e+00 -3.57751586e+00  -9.51223300e-01   1.20301134e+00
C     6.167766669700000e+00   8.272766694936744e-01   3.517622100000000e+00  2.29395370e-01  -3.40921341e+00  -3.16822750e-01
C     1.232602790500000e+01   8.480481540466936e+00  -1.799534999999999e-01 -9.98026000e-03  -1.02743045e+00   4.30031700e-02
C     8.629159092900000e+00   6.355478762633000e-01  -4.427804999999978e-01  1.76191500e-01   1.33548032e+00   1.81515310e-01
C     7.354304969899999e+00   1.642384736712720e-02   3.562749900000000e+00  1.23930901e+00   2.04884694e+00   6.24275630e-01
C     8.589855949699999e+00   7.432917442582632e-01   3.696886500000000e+00  4.77433230e-01  -1.59090727e+00  -3.42953710e-01
C     1.296130622600000e+00   2.116901818591560e+00  -2.252472000000019e-01 -1.69569038e+00  -5.57849330e-01   9.28098890e-01
C     2.481380516600000e+00   2.837688573779259e+00   1.316832000000000e-01  1.14471000e-01  -1.06162025e+00  -1.57788502e+00
C     1.106441822700000e+01   2.190868093610997e+00   3.943643100000000e+00  1.62889237e+00  -8.04955800e-01  -7.52771400e-01
C     2.469953121700000e+00   2.866929988217495e+00   3.876092400000000e+00 -1.19985468e+00   6.55445650e-01  -8.86997100e-02
C     3.673170943000000e+00   2.133845435526605e+00  -1.385427000000021e-01  2.61255789e+00  -1.54221585e+00   4.46474690e-01
C     4.971850277000000e+00   2.802586067937656e+00  -1.648128000000000e-01 -2.30710526e+00   3.97012710e-01   4.16999980e-01
C     3.680018565100000e+00   2.154167170397643e+00   3.700749000000000e+00 -4.42886700e-02   4.60196070e-01  -3.33854630e-01
C     4.862712845700000e+00   2.911103655672212e+00   3.534006300000000e+00  2.66218537e+00   4.33004420e-01   6.14821650e-01
C     6.164236198100000e+00   2.078966325243007e+00  -3.412460999999993e-01  1.43063324e+00  -6.23312570e-01  -3.03136050e-01
C     7.436365756600000e+00   2.812792917944610e+00  -4.931961000000022e-01 -1.07389296e+00   2.43583290e-01   5.31488010e-01
C     6.140110158500000e+00   2.199712032155237e+00   3.558706800000000e+00 -4.38606360e-01   1.26157823e+00  -7.74561160e-01
C     7.407333430300000e+00   2.847291801135382e+00   3.537577200000000e+00 -4.35628610e-01  -4.01441540e-01   1.40373753e+00
C     8.671589335100000e+00   2.108400294367567e+00  -5.183973000000002e-01 -1.26483350e-01  -6.85466770e-01   1.25901582e+00
C     9.902984374199999e+00   2.816138502250674e+00  -2.091680999999994e-01 -4.65531960e-01   3.13803840e-01  -7.53572850e-01
C     8.613667948300000e+00   2.129992719388134e+00   3.795662700000000e+00  6.54289770e-01   1.96500061e+00  -9.69681190e-01
C     9.867243648999999e+00   2.906232406363686e+00   3.877591800000000e+00 -2.16504057e+00  -1.26299989e+00   1.30604150e-01
C     2.490878654600000e+00   4.230580160726920e+00   3.542088000000000e-01 -1.61224107e+00   6.55846310e-01  -7.90434000e-02
C     3.714319779600000e+00   4.966843701629410e+00   2.630490000000000e-01  3.69270660e-01  -9.63528870e-01  -6.67982520e-01
C     1.228855576380000e+01   4.305363789829502e+00   3.805071000000000e+00  7.26790380e-01  -6.25293950e-01  -3.19769200e-02
C     3.637265013500000e+00   5.008530894622455e+00   3.625995600000000e+00  2.67900609e+00   1.28182946e+00  -1.61668470e-01
C     4.896424136400000e+00   4.233244502776889e+00  -5.221710000000002e-02  2.32357217e+00   3.92055430e-01  -1.23793906e+00
C     6.128777715400000e+00   4.948822120011370e+00  -4.488249000000017e-01  2.41691200e-01  -5.17733140e-01   1.39056386e+00
C     4.948773292099999e+00   4.370946891310199e+00   3.518397300000000e+00 -1.87475891e+00  -2.60301639e+00  -4.29693400e-01
C     6.214742224000000e+00   4.991842850271077e+00   3.316693500000000e+00 -1.67685616e+00   1.34521848e+00   1.68668411e+00
C     7.410181146199999e+00   4.276549069744952e+00  -4.703318999999979e-01 -2.77144080e-01  -1.09293588e+00   3.84143200e-01
C     8.621634680400000e+00   5.014836526911411e+00  -2.381781000000025e-01  9.61357260e-01  -1.59019136e+00  -2.87968760e-01
C     7.426045195999999e+00   4.231106163772488e+00   3.488200500000000e+00 -1.28269554e+00   1.92240181e+00  -1.23511391e+00
C     8.615137236199999e+00   4.957499120900726e+00   3.484073100000000e+00  6.38766320e-01   1.70947392e+00   7.45524500e-01
C     9.872312182000000e+00   4.271105109003533e+00   2.282400000000000e-03 -2.22198163e+00  -1.71661406e+00  -5.64847950e-01
C     1.104352902820000e+01   4.912862809858203e+00   3.359997000000000e-01  3.10180809e+00   1.87270365e+00  -3.04620880e-01
C     9.825882132200000e+00   4.311593681095500e+00   3.769482300000000e+00  1.04751968e+00  -2.33468700e-01  -5.02921340e-01
C     1.106710552070000e+01   5.024638713211718e+00   3.751470600000000e+00 -6.33204090e-01  -8.73446600e-02  -1.59941990e-01
C     3.748767513699999e+00   6.384886858555805e+00   1.344699000000000e-01 -1.45022675e+00  -5.75355960e-01  -4.67732280e-01
C     4.912945059399999e+00   7.030688037043070e+00  -3.014322000000007e-01  1.50145389e+00   2.18554125e+00  -5.92447910e-01
C     1.356469962410000e+01   6.434816843755300e+00   3.564378300000000e+00 -7.15111960e-01   2.08158290e-01   2.42166100e-01
C     4.947044439699999e+00   7.158926298700977e+00   3.477099300000000e+00 -1.37402742e+00  -3.06180070e-01   2.78467330e-01
C     6.166472939100000e+00   6.360460335956927e+00  -5.062746000000011e-01 -4.61266800e-02  -1.08947650e-01   6.33007320e-01
C     7.426341341099999e+00   7.084731861321514e+00  -5.437758000000024e-01 -5.93550850e-01   5.51489690e-01   3.79537700e-02
C     6.164570550700000e+00   6.472915176033706e+00   3.403398900000000e+00  4.00580000e-01  -2.85785561e+00  -7.52101520e-01
C     7.390279475700000e+00   7.116228684597833e+00   3.385832400000000e+00 -2.43747990e-01   2.39225330e+00   4.23366670e-01
C     8.682700716999999e+00   6.437712336818962e+00  -2.874866999999988e-01 -3.49588259e+00  -2.94209583e+00  -2.36316600e-01
C     9.846405968699999e+00   7.061832455356879e+00  -3.461459999999761e-02  3.11387766e+00   1.63727363e+00   2.33551180e-01
C     8.588782195699999e+00   6.401292688610820e+00   3.401347200000000e+00  1.52634504e+00   5.33316060e-01  -1.32459750e-01
C     9.817294565199999e+00   7.179487979766503e+00   3.422434500000000e+00  1.74171558e+00  -1.42850370e+00  -8.20440000e-04
C     1.111423326410000e+01   6.369487777836383e+00   2.710524000000000e-01 -2.13667054e+00  -6.61259940e-01  -6.90855740e-01
C     1.233055931450000e+01   7.057909463162157e+00   1.582335000000000e-01  1.21627715e+00   1.53258359e+00  -5.95586400e-01
C     1.105441905310000e+01   6.423370470987069e+00   3.552733800000000e+00  7.72746650e-01   1.32109638e+00   6.06957160e-01
C     1.233660403680000e+01   7.156857552631987e+00   3.627621000000000e+00 -1.87478528e+00  -9.29066300e-01  -1.05620672e+00
