64
Lattice="9.86 0 0 4.93 8.53901048131456 0 0 0 30 " PBC="1 1 1" Properties=species:S:1:pos:R:3:force:R:3 Energy="-513.45060344"
C     5.032615583599999e+00   8.311878949319546e+00  -1.247198999999988e-01 -7.13890000e-01  -1.94255423e+00   8.58521000e-01
C     1.340195455600000e+00   4.973992390423056e-01  -9.974610000000084e-02 -1.16402380e+00  -1.87899750e+00  -4.81839510e-01
C     1.136202408600000e+00   9.918496162054480e-01   3.337417200000000e+00  1.19965638e+00  -1.08130357e+00   7.72471300e-02
C     2.414900354000000e+00   1.660052120176049e+00   3.426702300000000e+00 -1.48468457e+00   1.22561997e+00   4.75411540e-01
C     7.453936079400000e+00   8.268857365158791e+00  -2.043600000000012e-01  7.81681950e-01   1.41803026e+00   5.47385130e-01
C     3.796015154700000e+00   4.577335713902952e-01  -1.295402999999986e-01 -2.88165105e+00  -9.39958820e-01   3.71223820e-01
C     3.666324405500000e+00   9.621534140690472e-01   3.432462600000000e+00 -1.99820185e+00   3.14479160e-01  -3.92645280e-01
C     4.861434546000000e+00   1.704918984501533e+00   3.499592400000000e+00  4.15345200e-01  -1.27696134e+00   3.82252400e-02
C     9.874342799699999e+00   8.262516552146657e+00  -1.076984999999979e-01  4.05176968e+00   5.32639430e-01  -5.75950660e-01
C     6.245314287899999e+00   3.803236842244840e-01  -1.806573000000000e-01 -1.16594126e+00   3.60013693e+00   4.19941580e-01
C     6.094925081600000e+00   1.022280941754072e+00   3.425475000000000e+00 -4.27681410e-01  -1.82789574e+00  -9.51775950e-01
C     7.293575898800000e+00   1.747476729613014e+00   3.226932000000000e+00  6.31103850e-01  -3.90225371e+00   9.75186840e-01
C     1.241372057580000e+01   8.292123948574066e+00  -8.660280000000142e-02 -5.92438530e-01  -2.45531914e+00   7.69840020e-01
C     8.707077102000000e+00   4.690972011469743e-01  -4.423770000000005e-02  1.11401238e+00  -1.97617270e+00  -5.16603750e-01
C     8.523546266500000e+00   9.526091912753416e-01   3.223980000000000e+00 -5.61641810e-01   3.70785007e+00   2.22658330e-01
C     9.730013401499999e+00   1.697845695170425e+00   3.343920600000000e+00  2.11696532e+00  -2.37924053e+00  -5.55949120e-01
C     1.338457827800000e+00   1.883450395474648e+00   2.961780000000000e-02  2.10062290e-01   8.80050360e-01   7.86475730e-01
C     2.601065091300000e+00   2.548089314201631e+00   2.059266000000000e-01 -2.89318988e+00   1.39683115e+00  -3.93678690e-01
C     2.369183330100000e+00   3.113047837920020e+00   3.591019200000000e+00  1.16275991e+00  -5.20658820e-01  -2.05319340e-01
C     3.612494918700000e+00   3.822698357200123e+00   3.616160100000000e+00 -1.63492660e-01  -4.63871190e-01  -2.61013700e-02
C     3.791439178000000e+00   1.839454339437915e+00   1.041834000000000e-01  9.83888720e-01   1.13304862e+00  -9.03794650e-01
C     4.997595377900000e+00   2.602718316868270e+00   5.959200000000000e-03  1.69002037e+00  -2.77779043e+00  -5.94385670e-01
C     4.863736708100000e+00   3.095998166474814e+00   3.546168000000000e+00 -1.70913908e+00   1.40029927e+00  -5.54468890e-01
C     6.041000741600000e+00   3.793496051429885e+00   3.344536500000000e+00  2.20388069e+00   2.49169044e+00   4.19196720e-01
C     6.247120146900000e+00   1.880694259062018e+00  -2.210570999999995e-01  5.48456960e-01  -9.57456300e-01   1.59357129e+00
C     7.533067312200000e+00   2.581753594508088e+00  -8.135520000000085e-02 -2.08250566e+00  -3.13491910e-01  -7.69526580e-01
C     7.288427105399999e+00   3.099361768092990e+00   3.292236300000000e+00  1.30102499e+00   2.75076163e+00  -4.71801700e-02
C     8.600507214700000e+00   3.798172952859886e+00   3.377495100000000e+00 -3.22772989e+00  -4.84028220e-01  -5.75334110e-01
C     8.748782732799999e+00   1.841204836586315e+00   3.991199999999999e-03 -6.40353990e-01   2.62902421e+00  -5.01327460e-01
C     9.959798236500001e+00   2.588808781136978e+00   7.831620000000000e-02  5.18791730e-01   3.45435730e-01   3.70188930e-01
C     9.781226931699999e+00   3.070637305349214e+00   3.403942500000000e+00  1.15182404e+00   2.74454981e+00   8.29905400e-01
C     1.102363568940000e+01   3.857859526043723e+00   3.591006600000000e+00 -6.55830280e-01  -2.35439288e+00  -4.45329030e-01
C     2.517979998500000e+00   3.982777308086376e+00   2.811156000000000e-01  1.09734607e+00   6.96651310e-01  -4.01282420e-01
C     3.805440378000000e+00   4.655720243724951e+00   1.557273000000000e-01 -3.03499264e+00   1.95281981e+00   4.37295060e-01
C     3.581222400400000e+00   5.238167514807427e+00   3.589803600000000e+00  2.94971022e+00  -8.95233300e-02  -2.39366430e-01
C     4.860406739600000e+00   5.967299786497650e+00   3.448575600000000e+00 -1.45792162e+00   1.21296302e+00  -2.44377270e-01
C     5.005262020900000e+00   3.981311843107799e+00   3.617730000000000e-02  1.27619122e+00   9.43923260e-01   1.61887380e-01
C     6.236606133100000e+00   4.711685516141604e+00  -5.320829999999788e-02  1.16416166e+00  -9.66547850e-01  -9.78951550e-01
C     6.104736471800000e+00   5.301840183473433e+00   3.310088400000000e+00 -3.01923348e+00  -3.90901463e+00   9.08998840e-01
C     7.301870377300000e+00   5.927160886884837e+00   3.330966900000000e+00  2.82747488e+00   1.56063395e+00  -4.12758950e-01
C     7.497972663500000e+00   4.014443032989989e+00  -1.426017000000002e-01 -5.53718020e-01  -4.48136810e-01   9.97705500e-01
C     8.716307195900001e+00   4.734332679736660e+00  -5.202899999999744e-02 -1.98825170e-01   1.02245329e+00  -3.58143180e-01
C     8.563064850700000e+00   5.190687969445379e+00   3.391050600000000e+00 -2.80483320e-01   1.39018316e+00   2.89010890e-01
C     9.772431860999999e+00   5.917166231288312e+00   3.516602100000000e+00  7.63436900e-02   2.14768217e+00  -2.57139540e-01
C     9.934128416700000e+00   4.038478639689093e+00   1.908501000000000e-01 -1.04086966e+00  -1.00429792e+00  -1.09989402e+00
C     1.111149090230000e+01   4.772451676420427e+00   2.574924000000000e-01  2.98623187e+00  -2.34355327e+00  -2.30387340e-01
C     1.104049683170000e+01   5.273240390282665e+00   3.626498700000000e+00 -2.18156107e+00  -1.39915038e+00  -1.52090400e-01
C     1.224683440630000e+01   5.935633976203932e+00   3.610558800000000e+00  5.16806350e-01   3.13856402e+00  -5.17371630e-01
C     3.760802481799999e+00   6.092390312722313e+00   9.845429999999999e-02  6.40116200e-01   9.96289160e-01   1.10667250e-01
C     5.016119507800000e+00   6.823336441018697e+00  -4.691520000000082e-02 -5.13450850e-01   1.28561229e+00  -4.34515480e-01
C     4.831858342100000e+00   7.423222677034164e+00   3.373992600000000e+00  9.20647360e-01  -1.89389942e+00  -3.53544660e-01
C     6.115962328300000e+00   8.066468385855080e+00   3.295058100000000e+00 -2.70308801e+00   2.17794084e+00   1.92664870e-01
C     6.279344993300000e+00   6.117148234317921e+00  -1.534587000000016e-01 -4.29036411e+00  -3.25024800e-01   7.11329980e-01
C     7.401057195200000e+00   6.860467986530558e+00  -2.262899999999988e-01  4.98146192e+00   5.52624670e-01  -5.74390760e-01
C     7.311250934799999e+00   7.372891272952004e+00   3.289417200000000e+00  1.02626901e+00  -9.72439530e-01   1.14618600e-02
C     8.543571877200000e+00   8.087510642430418e+00   3.289968300000000e+00  1.47837790e-01   1.42130450e-01   1.12599267e+00
C     8.716495127500000e+00   6.179752160432250e+00  -2.298174000000017e-01 -1.44700461e+00  -1.44082626e+00   1.50176364e+00
C     9.923387080600000e+00   6.880025223793321e+00  -6.421230000000122e-02 -2.68942640e-01  -1.29478609e+00  -3.59684020e-01
C     9.739380007099999e+00   7.384535153032638e+00   3.453489600000000e+00  2.06644367e+00  -1.49781618e+00  -3.96260380e-01
C     1.101494656440000e+01   8.085623350334130e+00   3.425021700000000e+00 -6.76739020e-01   1.19373116e+00   3.31543980e-01
C     1.117134080650000e+01   6.162582259719485e+00   1.065729000000000e-01 -2.79534440e+00  -1.39745320e-01   2.02262610e-01
C     1.235178212640000e+01   6.821177437608934e+00   1.319424000000000e-01  4.20632396e+00   2.09827304e+00  -1.16836156e+00
C     1.225513307530000e+01   7.404510289468291e+00   3.441201600000000e+00 -1.06550780e+00  -1.60832354e+00   1.13801450e-01
C     1.344963795970000e+01   8.133079840367882e+00   3.290840700000000e+00  9.18151390e-01  -2.25255588e+00   7.89869390e-01
