64
Lattice="9.86 0 0 4.93 8.53901048131456 0 0 0 30 " PBC="1 1 1" Properties=species:S:1:pos:R:3:force:R:3 Energy="-513.61299176"
C     9.874019293100000e+00   4.972370832332904e-01  -1.515611999999997e-01 -6.61631630e-01   5.30978230e-01   4.73586420e-01
C     1.219530106700000e+00   1.265892164930193e+00  -3.804419999999809e-02  4.55173000e-01  -7.93634830e-01  -5.56446800e-02
C     1.251314161800000e+00   1.751919747545968e-01   3.118305600000000e+00 -9.10467900e-02   1.53450524e+00   9.15451150e-01
C     2.482182529000000e+00   9.129349846128512e-01   3.286001400000000e+00  9.32777470e-01  -1.01326597e+00  -2.51036670e-01
C     2.438401269600000e+00   5.129323822262640e-01  -6.732480000000152e-02  7.43038550e-01   2.46521303e+00   4.28710850e-01
C     3.697600522700000e+00   1.226732775209542e+00   5.906610000000000e-02 -1.68095913e+00  -3.24225360e-01  -6.42686100e-01
C     3.759734643800000e+00   2.143226734000352e-01   3.245914200000000e+00 -1.44003236e+00  -1.52564983e+00   1.55700720e-01
C     4.966066302400000e+00   8.858673460725088e-01   3.342710700000000e+00 -4.20819950e-01   3.09180596e+00   1.65419800e-01
C     4.909402953000001e+00   5.020299444256096e-01   1.237410000000000e-02 -1.00591085e+00  -7.10917040e-01  -1.03780270e-01
C     6.113758273199999e+00   1.205336149699282e+00  -9.111390000000341e-02  7.87422700e-01   1.02586560e-01   5.53847260e-01
C     6.196338780500000e+00   1.962050279140952e-01   3.391862700000000e+00 -4.57648990e-01   1.13511638e+00  -6.65132980e-01
C     7.421135458300000e+00   9.131540102316632e-01   3.294647400000000e+00 -3.20780990e-01  -6.59239770e-01   1.33421490e-01
C     7.337354298799998e+00   4.807365555520528e-01  -8.146710000000112e-02  2.41790426e+00   1.20130556e+00  -4.17259850e-01
C     8.666305410400000e+00   1.193247984903374e+00  -1.544030999999997e-01 -3.27349173e+00   1.66111310e+00   3.17892950e-01
C     8.619930379400000e+00   2.108959684944112e-01   3.213850200000000e+00  1.47074387e+00  -1.08185786e+00   1.01593580e-01
C     9.862175608999999e+00   9.071035235758496e-01   3.189542700000000e+00  3.47636840e-01   6.56353400e-02   3.90880350e-01
C     1.107234773760000e+01   2.694542993015474e+00   1.584396000000000e-01 -5.83205100e-01  -1.54474488e+00  -1.47925200e-02
C     2.419767841600000e+00   3.405919246313584e+00   2.866089000000000e-01  1.05720398e+00  -1.93867251e+00  -2.95441480e-01
C     2.504334152900000e+00   2.302906486146666e+00   3.530735100000000e+00 -1.04871350e-01   4.33710720e-01  -6.53195730e-01
C     3.728367272300000e+00   3.065536612829090e+00   3.517126200000000e+00 -1.32808617e+00  -2.71107940e-01   8.08811490e-01
C     3.631361930100000e+00   2.629868783810268e+00   1.266414000000000e-01  1.82948758e+00   1.87054866e+00   5.26124170e-01
C     4.930068477700000e+00   3.357453274460886e+00   8.624849999999999e-02 -2.47979238e+00  -1.12005478e+00   9.21864200e-02
C     4.905631059299999e+00   2.390749677877361e+00   3.393713700000000e+00  3.81056772e+00  -3.14443735e+00  -5.35670060e-01
C     6.211547337499999e+00   3.030394656759070e+00   3.305636400000000e+00 -1.37313642e+00   9.57509070e-01   6.52961390e-01
C     6.103582555999999e+00   2.629517061968597e+00  -7.576080000000118e-02  1.60149605e+00   5.25988000e-01  -1.47601850e-01
C     7.344723514899999e+00   3.370121750409013e+00  -1.362633000000031e-01  1.32564182e+00  -1.26743440e-01   1.95471390e-01
C     7.449018749499999e+00   2.311976281518104e+00   3.287184000000000e+00 -2.43669022e+00   5.75633140e-01   9.29909900e-02
C     8.607871451499999e+00   3.047273035654047e+00   3.380057700000000e+00  2.61198893e+00   3.84533800e-01   2.63076700e-01
C     8.610671543600001e+00   2.695641451323620e+00  -9.593489999999960e-02 -4.88054240e-01  -3.05809882e+00   1.60573010e-01
C     9.823573807599999e+00   3.358235874771378e+00   1.497210000000000e-01  2.49739900e-01   1.60021134e+00  -7.29550190e-01
C     9.844780301200000e+00   2.313389402362438e+00   3.413199000000000e+00  1.74167722e+00   2.18296450e-01  -4.49567570e-01
C     1.114658160700000e+01   2.994921984813158e+00   3.559903500000000e+00 -2.85361164e+00   3.34894660e-01   1.83858280e-01
C     1.232686255400000e+01   4.810243885173127e+00   4.070193000000000e-01 -1.14127276e+00  -1.24414364e+00  -6.07465290e-01
C     3.657724414900000e+00   5.435305173446148e+00   1.961973000000000e-01  3.06849560e+00   3.20077857e+00  -2.48082220e-01
C     3.721524382999999e+00   4.469197343623812e+00   3.665964900000000e+00 -1.14976624e+00   1.49807400e+00  -7.31795780e-01
C     4.892472938599999e+00   5.225491182969657e+00   3.398512500000000e+00  2.84995957e+00  -3.02210294e+00   4.07453380e-01
C     4.911694712799999e+00   4.759564345633697e+00   1.355970000000000e-01  8.81924380e-01   8.14134260e-01  -1.04267946e+00
C     6.146347693100000e+00   5.493979276157372e+00  -9.886470000000003e-02  7.37864280e-01   5.28484050e-01   3.14497370e-01
C     6.221935981400000e+00   4.455270900651771e+00   3.332983200000000e+00 -1.58254118e+00   1.64745473e+00  -5.21305950e-01
C     7.444042654000000e+00   5.217165647751658e+00   3.241085400000000e+00 -5.34722140e-01  -3.91694290e-01   8.48166360e-01
C     7.434467065700000e+00   4.805917253953015e+00  -1.483926000000011e-01 -3.34052685e+00  -1.31568810e+00   1.18586560e-01
C     8.639126566899998e+00   5.497928739284581e+00  -9.238050000000086e-02  7.27797710e-01   3.63017300e-02   7.62430930e-01
C     8.656694375400001e+00   4.481396857116380e+00   3.428888400000000e+00 -9.79127820e-01  -2.16575230e-01  -7.46999760e-01
C     9.891401289899999e+00   5.160124289234314e+00   3.537711300000000e+00 -7.13681460e-01  -3.09596200e-01   7.21885300e-02
C     9.856688025999999e+00   4.794623131741644e+00   1.668390000000000e-01  7.70648980e-01   1.08465750e-01   2.22373360e-01
C     1.112499126360000e+01   5.512246012766293e+00   3.621669000000000e-01 -3.41798179e+00   6.12193160e-01  -9.93476430e-01
C     1.107080040780000e+01   4.410488230969621e+00   3.678344400000000e+00  2.13932914e+00   9.50970680e-01   3.13786890e-01
C     1.230794525660000e+01   5.170784475307651e+00   3.777127200000000e+00  4.09205100e-01  -4.41303100e-02  -1.34076705e+00
C     1.357397946170000e+01   6.885611871399862e+00  -5.555699999998609e-03 -3.64312195e+00  -5.59012900e-01   1.11566415e+00
C     4.890996600799999e+00   7.596486970172901e+00  -9.723840000000195e-02  2.15520363e+00   1.02734643e+00  -6.17450320e-01
C     4.944693470600000e+00   6.603081375477787e+00   3.245100300000000e+00  9.08720870e-01   7.27942380e-01   2.12356840e-01
C     6.210417430800000e+00   7.303756711622571e+00   3.136422900000000e+00 -1.45910854e+00   9.20552250e-01  -2.70736830e-01
C     6.159980474199999e+00   6.938026452478722e+00  -1.527770999999980e-01 -7.53430710e-01  -1.10933832e+00   1.86817280e-01
C     7.378660895399999e+00   7.685999367672226e+00  -1.679163000000017e-01  1.61440300e-02  -3.23339728e+00   2.15928670e-01
C     7.442471167199999e+00   6.678529510375923e+00   3.176201100000000e+00 -1.78753930e-01  -3.80499763e+00   1.05562300e-02
C     8.682649001300000e+00   7.287553853846666e+00   3.206017800000000e+00 -1.33946700e-02   2.36398103e+00   8.09704990e-01
C     8.614767732699999e+00   6.908015331635819e+00  -7.118939999999796e-02 -2.66909459e+00   2.28044380e-01  -3.47192790e-01
C     9.773665938600001e+00   7.581913440986685e+00   5.577720000000000e-02  3.08683421e+00   2.97609923e+00   1.12082860e-01
C     9.869963382100000e+00   6.574066074037062e+00   3.458189100000000e+00  8.04722730e-01   1.01843305e+00  -6.12296400e-01
C     1.107982378680000e+01   7.351802307989339e+00   3.450654600000000e+00  1.14844480e+00  -2.78702541e+00   7.31736130e-01
C     1.102168602230000e+01   6.942470751263247e+00   1.998057000000000e-01  1.55583485e+00  -1.84268293e+00  -3.28772400e-02
C     1.225969376900000e+01   7.622963709188028e+00   6.005129999999999e-02  1.70546154e+00  -4.15079800e-01  -2.73711870e-01
C     1.230594017630000e+01   6.592329992772524e+00   3.560714400000000e+00  1.72682022e+00   8.91495260e-01  -4.67773060e-01
C     1.361641207030000e+01   7.327037213624929e+00   3.299325900000000e+00 -3.49557142e+00  -6.45129500e-01   7.83318310e-01
