76
Lattice="10.7446858958278 0 0 5.37234294791388 9.3051709414712 0 0 0 30 " PBC="1 1 1" Properties=species:S:1:pos:R:3:force:R:3 Energy="-614.5459383"
C     0.000000000000000e+00   0.000000000000000e+00   0.000000000000000e+00  5.70000000e-07   2.62000000e-06  -1.37348700e-02
C     1.244121528656217e+01   8.488927858762858e+00   0.000000000000000e+00  1.08547900e-02  -1.30314600e-02  -2.36130800e-02
C     1.385498966791711e+01   8.325679242515429e+00   0.000000000000000e+00  6.05668000e-03  -1.29317700e-02  -1.94705300e-02
C     1.442049946343783e+01   7.019690312536002e+00   0.000000000000000e+00  2.24876000e-02  -1.50482400e-02  -1.68379600e-02
C     8.199891820156751e+00   8.978673707505143e+00   0.000000000000000e+00  1.79248000e-03   2.69904800e-02  -1.68380800e-02
C     9.613666308958557e+00   8.815425091257715e+00   0.000000000000000e+00  5.99245000e-03  -1.19777000e-02  -2.36060000e-02
C     1.017917610447928e+01   7.509436161278288e+00   0.000000000000000e+00  6.69004000e-03   3.66228000e-03  -3.28905500e-02
C     1.159295059328108e+01   7.346187545030859e+00   0.000000000000000e+00 -1.21817000e-03   4.26467000e-03  -3.28959000e-02
C     1.215846033507838e+01   6.040198708103142e+00   0.000000000000000e+00 -1.74240000e-04  -7.62368000e-03  -3.28919500e-02
C     1.357223482388018e+01   5.876950091855713e+00   0.000000000000000e+00 -1.33693900e-02   7.98760000e-04  -2.36064000e-02
C     5.937852745520723e+00   7.999182010020573e+00   0.000000000000000e+00 -7.06205000e-03  -6.59899000e-03  -9.69746000e-03
C     7.351627126875668e+00   7.835933393773144e+00   0.000000000000000e+00  8.17201000e-03   1.17181600e-02  -1.94711500e-02
C     7.917136976119820e+00   6.529944556845426e+00   0.000000000000000e+00  5.85967000e-03   1.59116400e-02  -2.36139500e-02
C     9.330911464921625e+00   6.366695940597998e+00   0.000000000000000e+00 -3.08459000e-03  -3.18412000e-03  -3.28946800e-02
C     9.896421260442349e+00   5.060707010618572e+00   0.000000000000000e+00 -6.51788000e-03   3.95974000e-03  -3.28909400e-02
C     1.131019564179729e+01   4.897458394371142e+00   0.000000000000000e+00  4.30006000e-03  -1.08085000e-03  -3.28959400e-02
C     1.187570543731802e+01   3.591469464391715e+00   0.000000000000000e+00 -1.67132300e-02  -2.88661000e-03  -2.36125500e-02
C     5.089588105963069e+00   6.856441789340283e+00   0.000000000000000e+00  4.92180000e-04  -6.05350000e-03  -1.44051700e-02
C     5.655097901483790e+00   5.550452859360856e+00   0.000000000000000e+00  1.58535200e-02  -1.87853200e-02  -1.44064700e-02
C     7.068872282838736e+00   5.387204243113428e+00   0.000000000000000e+00 -2.53188500e-02   1.66185400e-02  -1.68387900e-02
C     7.634382078359458e+00   4.081215313134001e+00   0.000000000000000e+00  1.69465100e-02  -1.35097000e-03  -1.94716700e-02
C     9.048156567161262e+00   3.917966696886572e+00   0.000000000000000e+00  7.37972000e-03   1.11818300e-02  -2.36042300e-02
C     9.613666255235128e+00   2.611977766907145e+00   0.000000000000000e+00 -2.42663900e-02  -1.19488400e-02  -1.68384800e-02
C     1.102744074403693e+01   2.448729150659717e+00   0.000000000000000e+00 -1.42318200e-02   1.22252000e-03  -1.94704300e-02
C     3.393058719400902e+00   4.570961161876286e+00   0.000000000000000e+00 -7.30245000e-03   1.53492600e-02  -1.94715200e-02
C     4.806833208202708e+00   4.407712545628858e+00   0.000000000000000e+00 -2.17112900e-02  -5.66848000e-03  -9.69438000e-03
C     5.372342896276571e+00   3.101723615649430e+00   0.000000000000000e+00 -2.17000000e-06  -1.14000000e-06  -1.37235700e-02
C     6.786117385078376e+00   2.938474999402002e+00   0.000000000000000e+00  5.94253000e-03   2.16375400e-02  -9.69430000e-03
C     7.351627234322527e+00   1.632486162474284e+00   0.000000000000000e+00 -2.41980900e-02  -4.34446000e-03  -1.44053600e-02
C     8.765401723124333e+00   1.469237546226856e+00   0.000000000000000e+00 -5.48522000e-03   2.59374000e-03  -1.44053900e-02
C     9.330911411198196e+00   1.632486162474284e-01   0.000000000000000e+00 -2.18475000e-03   9.41959000e-03  -9.69957000e-03
C     2.544794026119820e+00   3.428220848144287e+00   0.000000000000000e+00 -1.73199000e-03  -3.02345000e-02  -1.68377900e-02
C     3.110303875363971e+00   2.122232011216569e+00   0.000000000000000e+00  8.34005000e-03   2.31263800e-02  -1.44069500e-02
C     4.524078256718918e+00   1.958983394969141e+00   0.000000000000000e+00  1.57652200e-02  -1.59637000e-02  -9.69540000e-03
C     5.089588052239639e+00   6.529944649897137e-01   0.000000000000000e+00 -9.64434000e-03  -1.40029400e-02  -1.94713600e-02
C     6.503362541041444e+00   4.897458487422852e-01   0.000000000000000e+00  2.70517400e-02   1.36184800e-02  -1.68384600e-02
C     8.482646932810831e-01   1.142740313731999e+00   0.000000000000000e+00  9.24498000e-03  -2.81563000e-03  -9.69804000e-03
C     2.262039182082888e+00   9.794916974845703e-01   0.000000000000000e+00  4.99321000e-03   3.45841000e-03  -1.44040200e-02
C     0.000000000000000e+00   0.000000000000000e+00   3.399999900000000e+00  4.06000000e-06  -3.98000000e-06   2.22774600e-02
C     1.187570549104144e+01   8.815425091257715e+00   3.399999900000000e+00 -1.21789500e-02  -6.98797000e-03   2.47004500e-02
C     1.328947987239639e+01   8.978673707505143e+00   3.399999900000000e+00 -2.79843000e-03   2.64558300e-02   2.09033400e-02
C     1.413774456567747e+01   7.835933393773144e+00   3.399999900000000e+00  5.24331000e-03  -2.87103000e-03   2.46893700e-02
C     7.634382024636030e+00   8.325679242515429e+00   3.399999900000000e+00 -1.33840000e-04   5.97671000e-03   2.46900600e-02
C     9.048156513437835e+00   8.488927858762858e+00   3.399999900000000e+00 -8.44542000e-03  -9.72998000e-03   2.96265500e-02
C     9.896421206718916e+00   7.346187545030859e+00   3.399999900000000e+00 -5.16095000e-03   4.17699000e-03   3.85486700e-02
C     1.131019569552072e+01   7.509436161278288e+00   3.399999900000000e+00 -1.26447800e-02   8.40559000e-03   3.85792000e-02
C     1.215846033507838e+01   6.366695940597998e+00   3.399999900000000e+00  6.19644000e-03   2.37919000e-03   3.85480300e-02
C     1.357223482388018e+01   6.529944556845426e+00   3.399999900000000e+00 -4.20408000e-03   1.21814200e-02   2.96274800e-02
C     4.806833154479278e+00   7.999182010020573e+00   3.399999900000000e+00 -5.83688000e-03   9.60120000e-04   1.15469500e-02
C     5.655097901483790e+00   6.856441789340283e+00   3.399999900000000e+00  1.46309700e-02  -2.34258000e-03   1.81930700e-02
C     7.068872229115307e+00   7.019690312536002e+00   3.399999900000000e+00 -2.15145400e-02  -1.56470700e-02   2.09044400e-02
C     7.917136976119819e+00   5.876950091855713e+00   3.399999900000000e+00  1.21473100e-02  -7.05795000e-03   2.46979800e-02
C     9.330911464921625e+00   6.040198708103142e+00   3.399999900000000e+00 -9.59370000e-04  -1.51523800e-02   3.85788300e-02
C     1.017917615820271e+01   4.897458394371142e+00   3.399999900000000e+00 -1.03883000e-03  -6.56006000e-03   3.85495400e-02
C     1.159295053955765e+01   5.060707010618572e+00   3.399999900000000e+00  1.35990000e-02   6.74648000e-03   3.85788200e-02
C     1.244121523283874e+01   3.917966696886572e+00   3.399999900000000e+00  3.84600000e-05   1.40424500e-02   2.47010300e-02
C     3.675813617161263e+00   5.387204243113428e+00   3.399999900000000e+00  1.98135800e-02   1.26283400e-02   1.75770100e-02
C     5.089588105963069e+00   5.550452859360856e+00   3.399999900000000e+00 -1.37872200e-02  -2.38584000e-03   2.18360300e-02
C     5.937852691797293e+00   4.407712545628858e+00   3.399999900000000e+00  1.87853500e-02  -4.54364000e-03   1.54084000e-02
C     7.351627180599097e+00   4.570961161876286e+00   3.399999900000000e+00  1.83024000e-03  -2.46503000e-03   2.21173200e-02
C     8.199891873880180e+00   3.428220848144287e+00   3.399999900000000e+00  1.03377000e-03  -2.34685300e-02   1.75785400e-02
C     9.613666362681986e+00   3.591469464391715e+00   3.399999900000000e+00  1.26473900e-02  -2.44336000e-03   2.96274400e-02
C     1.046193094851621e+01   2.448729150659717e+00   3.399999900000000e+00 -5.10652000e-03  -3.10211000e-03   2.46874800e-02
C     1.187570543731801e+01   2.611977766907145e+00   3.399999900000000e+00  2.43106400e-02  -1.08030800e-02   2.09030500e-02
C     3.110303821640541e+00   4.081215313134001e+00   3.399999900000000e+00  1.21873000e-03   2.81570000e-03   2.21192000e-02
C     3.958568514921625e+00   2.938474999402002e+00   3.399999900000000e+00 -5.45740000e-03   1.85386300e-02   1.54078900e-02
C     5.372342896276571e+00   3.101723615649430e+00   3.399999900000000e+00 -4.30000000e-07   1.00000000e-07   1.02679800e-02
C     6.220607643281083e+00   1.958983394969141e+00   3.399999900000000e+00 -1.33272800e-02  -1.40003400e-02   1.54067600e-02
C     7.634382132082888e+00   2.122232011216569e+00   3.399999900000000e+00  4.82481000e-03   1.31320300e-02   2.18365300e-02
C     8.482646825363972e+00   9.794916974845703e-01   3.399999900000000e+00 -9.34320000e-03  -1.15000900e-02   1.81935100e-02
C     9.896421206718919e+00   1.142740313731999e+00   3.399999900000000e+00  3.74604000e-03   4.57634000e-03   1.15472000e-02
C     1.979284284322527e+00   1.469237546226856e+00   3.399999900000000e+00 -5.28590000e-03   1.38398200e-02   1.81930900e-02
C     3.393058773124332e+00   1.632486162474284e+00   3.399999900000000e+00  8.96015000e-03  -1.07468700e-02   2.18372300e-02
C     4.241323358958557e+00   4.897458487422852e-01   3.399999900000000e+00 -2.08408400e-02   1.08411600e-02   1.75791700e-02
C     5.655097847760361e+00   6.529944649897137e-01   3.399999900000000e+00 -3.04924000e-03  -3.48780000e-04   2.21177800e-02
C     1.413774488801805e+00   1.632486162474284e-01   3.399999900000000e+00  2.08813000e-03  -5.53559000e-03   1.15487200e-02
