64
Lattice="9.86 0 0 4.93 8.53901048131456 0 0 0 30 " PBC="1 1 1" Properties=species:S:1:pos:R:3:force:R:3 Energy="-511.34770435"
C     5.031945005000000e+00   7.683427759276069e+00  -3.417446999999996e-01 -2.02661670e-01   2.56251971e+00   9.51152980e-01
C     6.290574941699999e+00   8.461465591078500e+00  -2.593494000000014e-01 -2.42861800e+00  -2.19815758e+00  -3.23851820e-01
C     9.825602798400000e+00   7.993941531832256e-01   3.804626700000000e+00 -2.71419750e-01   1.20981414e+00  -9.78022800e-02
C     1.141056240100000e+00   1.633967065571641e+00   3.740001600000000e+00  6.25819510e-01  -2.89840268e+00   4.36319000e-01
C     7.481484229199999e+00   7.784424955090784e+00  -2.805737999999991e-01  1.08886784e+00  -4.63844877e+00  -3.70669650e-01
C     8.700591539099999e+00   8.399221840426216e+00  -4.200768000000004e-01  4.59591270e-01   1.79245133e+00   1.62911873e+00
C     2.368537401499999e+00   9.133603127248600e-01   3.698240100000000e+00  1.16725697e+00  -2.68657896e+00  -5.06702210e-01
C     3.674832451600000e+00   1.501080849729261e+00   3.558699900000000e+00 -1.94258513e+00   4.64146390e-01   3.81407500e-01
C     9.909011693600000e+00   7.689233090941001e+00  -3.122349000000000e-01  1.51915467e+00   2.31393387e+00  -1.12427446e+00
C     1.112054391060000e+01   8.437610413670837e+00  -3.997995000000003e-01  1.41032133e+00   2.56856100e-01   6.60352780e-01
C     4.883514684900000e+00   7.236291356061768e-01   3.567300600000000e+00 -1.14096539e+00   3.00817573e+00   5.81324400e-02
C     6.044355754500001e+00   1.489805171780525e+00   3.675510900000000e+00  4.09767742e+00   4.87463100e-01   4.98987660e-01
C     1.236660924930000e+01   7.677153038205050e+00  -3.508583999999999e-01  2.66167590e-01   1.84702679e+00   7.11536410e-01
C     1.361979784640000e+01   8.329722577959183e+00  -3.307475999999987e-01  1.68886100e-02   3.81293013e+00  -6.76555640e-01
C     7.372076929700000e+00   8.298942177662136e-01   3.870320100000000e+00 -2.08951042e+00   2.75646420e-01  -9.69206900e-01
C     8.623760989399999e+00   1.534331414977962e+00   3.931003500000000e+00 -2.46944374e+00   5.46570300e-02  -4.71118900e-01
C     1.344961237300000e+00   1.296776911935305e+00  -2.255505000000007e-01 -2.48127177e+00   9.53422380e-01  -1.54714780e+00
C     2.518322337700000e+00   2.008369031418349e+00  -2.387264999999985e-01  2.66428508e+00   6.38453640e-01  -1.79812350e-01
C     1.098050060510000e+01   3.014460180082551e+00   3.816080700000000e+00  1.65691290e+00   2.83675910e-01   1.10468500e-01
C     2.432997348700000e+00   3.676209412272998e+00   3.650177400000000e+00 -1.54158743e+00  -2.21315548e+00  -2.83675650e-01
C     3.795157581200000e+00   1.276459446569507e+00  -3.160808999999993e-01 -1.39743538e+00   1.91466998e+00   6.28604510e-01
C     4.982740696300000e+00   2.060641608752927e+00  -2.057319000000000e-01  2.36728350e-01  -1.51473746e+00  -1.67946764e+00
C     3.655060834500000e+00   2.930175364799082e+00   3.532791000000000e+00  3.35101030e-01   4.62874000e-03   5.35946350e-01
C     4.901326035399999e+00   3.645169853007883e+00   3.571149300000000e+00 -2.63633250e+00   3.76218700e-01  -1.25961803e+00
C     6.230234946200000e+00   1.365012400851299e+00  -3.532373999999976e-01 -1.45724239e+00  -1.40680442e+00   5.87994380e-01
C     7.412910492800000e+00   2.099877764177794e+00  -3.124815000000005e-01  2.32150117e+00  -1.60861847e+00  -1.13634414e+00
C     6.087433404299999e+00   2.937696696010076e+00   3.625418400000000e+00 -6.11817040e-01  -1.33491784e+00   7.25545000e-01
C     7.246926858399999e+00   3.671404596466006e+00   3.820419900000000e+00  4.14604637e+00  -5.55548780e-01  -9.24484660e-01
C     8.669906726099999e+00   1.290508765902356e+00  -4.031276999999989e-01 -1.43173140e-01  -6.36376240e-01   4.12497540e-01
C     9.925381857199998e+00   1.949460191309030e+00  -4.426130999999991e-01 -5.41286110e-01   2.65174685e+00   2.40933204e+00
C     8.527409365200000e+00   2.974215055179368e+00   3.917308800000000e+00 -5.39746480e-01  -9.82534270e-01   9.10622020e-01
C     9.739936801300001e+00   3.677790495453474e+00   4.023183599999999e+00  6.68817370e-01   6.52236720e-01  -2.19400669e+00
C     2.521161081000000e+00   3.454674092890821e+00  -2.616972000000004e-01  1.49161919e+00  -7.82950470e-01   5.89321290e-01
C     3.742136663699999e+00   4.175794296437764e+00  -1.297664999999988e-01  1.50443020e-01   6.74777600e-01  -1.10054219e+00
C     1.228051744810000e+01   5.049040301899995e+00   3.558890400000000e+00 -1.26494122e+00   2.01729966e+00   5.50360310e-01
C     3.604614363000000e+00   5.791998170848490e+00   3.610464300000000e+00  1.15760556e+00   7.61906140e-01  -7.90616900e-02
C     4.951741497200000e+00   3.467009376650020e+00  -2.715458999999996e-01  5.88200700e-02   3.61968620e-01   1.22682479e+00
C     6.156674958500000e+00   4.187361410814182e+00  -2.960376000000018e-01  2.22769776e+00   2.05234982e+00  -5.23453450e-01
C     4.853623947000000e+00   5.058085248750935e+00   3.507062700000000e+00  6.19763080e-01   1.30602196e+00   1.67178422e+00
C     6.102393538599999e+00   5.755920510010070e+00   3.683181300000000e+00 -7.47494530e-01   1.82921990e+00  -1.54905116e+00
C     7.401753459100000e+00   3.532268849633524e+00  -3.620589000000010e-01  7.27201730e-01  -2.34980540e+00   1.40111721e+00
C     8.692048933700001e+00   4.144223525330688e+00  -2.244452999999993e-01 -1.02977379e+00   8.85206700e-01  -1.36381293e+00
C     7.355323902300000e+00   5.089071695370864e+00   3.653236500000000e+00 -2.26208674e+00   1.68413930e-01   1.45562456e+00
C     8.536420123399999e+00   5.864124289109486e+00   3.702082200000000e+00  1.26354888e+00  -3.33912501e+00  -1.94534780e-01
C     9.868025941399999e+00   3.432429287469582e+00  -2.427831000000005e-01  3.87489721e+00  -1.76052410e+00  -1.83634797e+00
C     1.121900917370000e+01   4.172446150428557e+00  -3.628695000000022e-01 -4.92468769e+00  -6.14008890e-01   6.76126280e-01
C     9.764649954599999e+00   5.051474005276899e+00   3.761183100000000e+00  2.62906470e-01   3.52787970e+00  -1.84729560e-01
C     1.102081691260000e+01   5.769619815303344e+00   3.569716500000000e+00  1.99263580e-01   1.54404900e-01   1.39872507e+00
C     3.796266732599999e+00   5.626866687461219e+00  -1.302957000000013e-01  3.94261910e-01  -1.89350984e+00  -2.47243570e-01
C     5.040587295000000e+00   6.315367102463619e+00  -2.447133000000008e-01  5.95865180e-01  -5.22539970e-01  -6.44798500e-02
C     1.342067682260000e+01   7.251500699968324e+00   3.807555900000000e+00  4.49471126e+00  -3.06949971e+00  -1.83085756e+00
C     4.855326276000000e+00   7.911414557246200e+00   3.672545700000000e+00 -1.35000237e+00   1.22316268e+00   1.38311863e+00
C     6.298671579299999e+00   5.662525509835595e+00  -3.190293000000004e-01 -2.12283764e+00  -3.85495263e+00   9.70044830e-01
C     7.561671566599999e+00   6.233937732284662e+00  -2.623940999999981e-01 -2.69468630e+00   4.66624938e+00  -7.44683710e-01
C     6.070327388900000e+00   7.227405917926594e+00   3.662952300000000e+00  6.25120760e-01  -1.87899575e+00   5.11034490e-01
C     7.275027463999999e+00   7.955012012273726e+00   3.746651400000000e+00  1.18929789e+00   1.71349555e+00  -1.40716557e+00
C     8.738193881600001e+00   5.553348710491982e+00  -3.415779000000008e-01  1.91507625e+00   6.79826810e-01   1.03411829e+00
C     9.981811179499999e+00   6.327863858910994e+00  -3.314114999999980e-01 -1.63328535e+00  -3.58883771e+00  -6.12124320e-01
C     8.538636355600000e+00   7.246300954926634e+00   3.611708700000000e+00 -9.42137660e-01   4.58435300e-01   5.53398430e-01
C     9.788590330399998e+00   7.892822569728096e+00   3.570139500000000e+00  1.07277195e+00  -6.66645430e-01   7.08104160e-01
C     1.116759469670000e+01   5.577669434751014e+00  -4.308861000000022e-01  2.57622101e+00   7.90498390e-01   2.30962210e+00
C     1.244553130220000e+01   6.308572782604893e+00  -1.725381000000006e-01 -2.95025339e+00  -1.46766817e+00  -1.94394607e+00
C     1.105969464610000e+01   7.228259989754804e+00   3.682069500000000e+00 -2.20157197e+00  -2.04377036e+00  -1.17587552e+00
C     1.226497838390000e+01   7.942671007377506e+00   3.775312500000000e+00 -1.52604718e+00   1.58729566e+00   5.20467050e-01
