64
Lattice="9.86 0 0 4.93 8.53901048131456 0 0 0 30 " PBC="1 1 1" Properties=species:S:1:pos:R:3:force:R:3 Energy="-508.35633205"
C     4.912362432000000e+00   8.122318381630253e+00  -8.818568999999989e-01  4.17596663e+00   2.00935708e+00  -2.56122200e-02
C     1.288527576600000e+00   3.247237106761648e-01  -8.177072999999986e-01 -1.24379352e+00   1.11172092e+00  -7.56933120e-01
C     9.761000324899999e+00   2.796144238431544e-01   4.224247500000000e+00  1.84299355e+00   1.19412743e+00  -7.72622520e-01
C     1.195116303000000e+00   1.061829198011982e+00   4.249672200000000e+00 -1.88351984e+00  -1.20493733e+00  -7.17780940e-01
C     7.465911542400000e+00   8.250097500694650e+00  -8.890121999999998e-01 -6.79356800e-02  -4.56666924e+00   5.55610000e-01
C     3.752544485300000e+00   3.561967101132440e-01  -7.782615000000028e-01  2.48201317e+00   2.19977813e+00   1.74476852e+00
C     2.358683071000000e+00   3.443759017354656e-01   3.790695900000000e+00 -1.07827400e-02   1.41442927e+00   1.72908038e+00
C     3.557499339000000e+00   1.128119756510947e+00   3.978213000000000e+00  2.35953872e+00  -3.97917702e+00  -1.89049733e+00
C     1.000762505390000e+01   8.206336865176850e+00  -5.789315999999971e-01 -3.80247036e+00  -8.49884520e-01  -1.92927781e+00
C     6.241089524400000e+00   3.967137171101104e-01  -7.537173000000017e-01  1.47456509e+00  -2.47187031e+00   1.09223940e+00
C     4.865794440799999e+00   4.094653630203136e-01   3.808640700000000e+00 -1.60064722e+00  -1.90557258e+00   1.07667649e+00
C     6.124666933499999e+00   1.043069760498366e+00   3.895593300000000e+00 -1.57920121e+00   1.74957199e+00  -1.75052880e-01
C     1.242309921060000e+01   8.181143624826973e+00  -6.409088999999994e-01 -2.06714502e+00   1.41337505e+00  -8.87001100e-02
C     8.694128062599999e+00   3.208338498421056e-01  -7.786625999999970e-01 -2.38343850e-01   2.32752955e+00  -1.49110970e-01
C     7.342063286899999e+00   4.021176298923784e-01   3.922197900000000e+00  1.40068927e+00  -2.66319100e+00   1.92601778e+00
C     8.556448938599999e+00   1.049292905946085e+00   4.348063200000000e+00 -1.84204600e-02   8.61077800e-01  -2.63741143e+00
C     1.303910261200000e+00   1.754710466951042e+00  -6.943494000000001e-01 -1.21514370e+00   3.48124370e-01   1.41656761e+00
C     2.479344919600000e+00   2.469677203375782e+00  -2.746037999999977e-01  2.26836527e+00  -8.60044970e-01  -2.02502173e+00
C     1.108298253640000e+01   2.499181704726907e+00   4.520435999999999e+00 -1.64715553e+00  -7.74623360e-01  -5.55187800e-01
C     2.449890634600000e+00   3.226644770648499e+00   4.477417200000000e+00 -1.44435298e+00  -2.52527840e-01  -1.00978351e+00
C     3.758105377400000e+00   1.806904143828784e+00  -4.840827000000019e-01  6.34554100e-01  -1.40365658e+00  -9.61491800e-01
C     5.062452190100000e+00   2.505536863276647e+00  -6.003317999999993e-01 -3.20588629e+00  -1.08488559e+00   5.72506970e-01
C     3.601794255100000e+00   2.479893702464578e+00   4.135420200000000e+00  1.21572175e+00   2.17991733e+00   3.20983210e-01
C     4.867061450800000e+00   3.160526870941440e+00   3.899015700000001e+00 -7.53470100e-01   1.39025606e+00   8.67426160e-01
C     6.233970949500000e+00   1.763965985800418e+00  -8.615291999999997e-01  8.08229070e-01   2.01825867e+00   7.98460020e-01
C     7.471347754800000e+00   2.492044116646885e+00  -8.763123000000022e-01  4.19413430e-01  -1.96292184e+00   5.83173130e-01
C     6.112070882099999e+00   2.461588967259022e+00   3.922643700000000e+00  5.59779180e-01   1.78114044e+00  -9.57379080e-01
C     7.350138478999998e+00   3.240197888082355e+00   3.889890900000000e+00  1.52538100e-02  -6.30662390e-01   1.42852378e+00
C     8.745797568499999e+00   1.793899145477639e+00  -7.629702000000016e-01 -3.90936254e+00  -1.95284121e+00  -1.63090571e+00
C     9.895376003799999e+00   2.494650222645381e+00  -7.596707999999985e-01  3.96445215e+00  -1.18140110e-01   2.01547160e+00
C     8.601366858799999e+00   2.529702006764733e+00   4.248384000000001e+00 -1.85367041e+00  -1.08951790e+00  -8.99733800e-02
C     9.794775508399999e+00   3.217060756065957e+00   4.448858400000000e+00  1.55676754e+00   1.51722605e+00   5.84119790e-01
C     2.589925953500000e+00   3.880550323982332e+00  -1.508280000000006e-01 -3.06097045e+00   1.14449379e+00   4.10599210e-01
C     3.777242503500000e+00   4.597019243130714e+00  -3.030162000000018e-01  2.96033800e-01   1.40175177e+00   8.85230010e-01
C     1.223495823350000e+01   4.642936405745237e+00   4.383289500000000e+00  2.35250199e+00  -3.38153720e-01   4.28341500e-02
C     3.609233970200000e+00   5.350079615378098e+00   4.111704899999999e+00 -3.66210440e-01  -2.74743374e+00  -7.06747270e-01
C     5.028783543899999e+00   3.902499167300334e+00  -4.391241000000008e-01 -8.04231390e-01  -4.37229700e-02  -7.40975610e-01
C     6.229444667199999e+00   4.582067862730758e+00  -6.415667999999997e-01 -2.11283620e-01   1.19533836e+00  -8.79451200e-02
C     4.789034735200000e+00   4.609979497066944e+00   3.832119900000000e+00  3.15003157e+00   2.02122890e-01   4.43380600e-02
C     6.112035484700000e+00   5.405221897964688e+00   3.594355500000000e+00 -2.03998282e+00  -5.94084722e+00   1.02311268e+00
C     7.420610955599999e+00   3.862719930808939e+00  -8.276834999999991e-01  3.16221872e+00   2.75705890e+00   4.42719900e-02
C     8.730651129500000e+00   4.639754941220599e+00  -8.069325000000021e-01 -9.13026450e-01  -1.92460181e+00   1.74631529e+00
C     7.333728037299999e+00   4.687252333114551e+00   3.778818000000000e+00  9.74504910e-01  -1.84799152e+00  -2.91562880e-01
C     8.616991606399999e+00   5.356246488746754e+00   3.898854000000000e+00 -1.49273726e+00  -2.07672200e-02   1.05344520e-01
C     9.937848150999999e+00   3.867473597943155e+00  -4.217171999999998e-01 -5.47496560e-01   3.14964626e+00  -1.60910001e+00
C     1.116855599740000e+01   4.635443850999562e+00  -8.679449999999989e-02 -4.57161890e-01  -1.93406919e+00  -1.73932532e+00
C     9.797371104100000e+00   4.713271039607530e+00   4.417514700000000e+00 -1.12998830e+00  -2.85082979e+00  -1.71566444e+00
C     1.104177059580000e+01   5.348435343520069e+00   4.373848800000000e+00 -7.98179130e-01   1.19428803e+00  -2.80779980e-01
C     3.696170674799999e+00   6.083282433364135e+00  -3.524652000000010e-01  3.64443858e+00  -1.84830847e+00  -2.20068940e+00
C     4.939049508000000e+00   6.752843323121896e+00  -8.714052000000017e-01 -1.58491810e-01  -3.31247104e+00   3.55847494e+00
C     1.349861474890000e+01   6.712090810215991e+00   3.970695300000000e+00 -1.56577418e+00   2.33225135e+00  -1.11132300e-02
C     4.841965680200000e+00   7.392616557941015e+00   3.830143500000000e+00  4.34521890e-01   2.98679697e+00   1.09217152e+00
C     6.194112540400000e+00   5.994514466798457e+00  -6.809423999999993e-01  1.74726448e+00   2.40174729e+00  -2.31250664e+00
C     7.509684125000000e+00   6.722933389553181e+00  -8.740713000000007e-01 -4.77817816e+00   2.51774781e+00   2.53304840e-01
C     6.068578323500000e+00   6.732170976480550e+00   3.580913400000000e+00  7.26289700e-02   3.92504185e+00  -5.99300800e-02
C     7.269427082600000e+00   7.489259370751559e+00   3.503157000000000e+00  2.02847419e+00  -7.38309630e-01   7.21128450e-01
C     8.687272010199999e+00   6.067852441426775e+00  -8.160594000000003e-01  3.14035016e+00  -1.49252061e+00   1.15278048e+00
C     9.951540979499999e+00   6.759747881605919e+00  -5.542976999999993e-01 -9.05126260e-01   6.74843990e-01   2.23697200e-01
C     8.561244201699999e+00   6.739302928813656e+00   3.584200500000000e+00 -1.06316670e-01   1.80426590e+00   1.94121340e+00
C     9.752300846899999e+00   7.474402773367931e+00   3.912085800000000e+00  1.41479705e+00   6.90711140e-01  -1.51519682e+00
C     1.110357445620000e+01   6.041758762421782e+00  -2.096778000000015e-01  2.25726052e+00   1.10821241e+00  -6.12647040e-01
C     1.240352272290000e+01   6.821957817776702e+00  -3.359030999999995e-01 -2.86833594e+00  -1.94427119e+00   3.76692680e-01
C     1.103562825950000e+01   6.737122065537063e+00   4.094065200000000e+00 -5.18125070e-01   2.50237826e+00  -3.79175280e-01
C     1.227218091670000e+01   7.487746514264816e+00   3.980237100000000e+00 -4.97689220e-01  -7.26309500e-01   2.98796950e-01
