64
Lattice="9.86 0 0 4.93 8.53901048131456 0 0 0 30 " PBC="1 1 1" Properties=species:S:1:pos:R:3:force:R:3 Energy="-516.24459792"
C     4.948094825500000e+00   7.622032700875392e+00  -2.303558999999993e-01  1.72338528e+00  -1.09695460e-01   3.37188350e-01
C     6.214100485900000e+00   8.339653532537527e+00  -2.145036000000005e-01 -7.36487820e-01  -1.58981440e-01   1.31339160e-01
C     9.817113239799999e+00   8.796979110007088e-01   3.569753100000000e+00  5.56767930e-01   1.17578868e+00  -2.58596330e-01
C     1.199111575000000e+00   1.621589855270986e+00   3.564456000000000e+00 -7.68201410e-01   3.30355180e-01  -5.36468700e-02
C     7.441272388400000e+00   7.606195654308451e+00  -2.277759000000010e-01 -4.96253940e-01   9.95906560e-01  -1.64609600e-02
C     8.659580200199999e+00   8.343603593395470e+00  -1.975590000000018e-01  3.58058410e-01  -1.45445876e+00  -4.48727770e-01
C     2.440569582200000e+00   9.067372000262576e-01   3.581343000000000e+00 -1.28900496e+00   6.70006160e-01   1.85388960e-01
C     3.644972822000000e+00   1.631695091053227e+00   3.677109300000000e+00  6.35424810e-01  -1.90819000e-01  -4.36698220e-01
C     9.900722440899999e+00   7.625404414553525e+00  -2.328602999999987e-01  4.43358800e-01   7.35209420e-01   2.02272670e-01
C     1.114876461100000e+01   8.338658652426503e+00  -2.314514999999986e-01 -4.24738600e-01  -1.88199150e-01   4.98172790e-01
C     4.870855036500000e+00   9.177727610002951e-01   3.661753200000000e+00  7.63191120e-01  -3.12614800e-01   1.16640970e-01
C     6.126545904399999e+00   1.610299575614330e+00   3.634913100000000e+00 -1.57829356e+00   1.63941627e+00  -5.21502710e-01
C     1.238181149590000e+01   7.616998271076595e+00  -1.307775000000007e-01 -1.36697658e+00  -5.89761100e-01  -6.54529110e-01
C     1.358918067300000e+01   8.315777519944294e+00  -1.527287999999984e-01  8.35998830e-01   1.21053969e+00  -9.35598800e-02
C     7.333119280900000e+00   9.510023202832152e-01   3.561399600000000e+00  1.06793487e+00  -1.43359047e+00   1.95476300e-01
C     8.585009168099999e+00   1.620297476034838e+00   3.516106800000000e+00  2.22548330e-01  -3.62144030e-01   2.66746390e-01
C     1.287326480700000e+00   1.228600256801518e+00  -1.509050999999992e-01  1.45010380e-01   2.08867800e-02   4.85518120e-01
C     2.546226384200000e+00   1.943925546276313e+00  -1.430058000000010e-01 -2.11496894e+00  -6.87097200e-01  -3.44944110e-01
C     1.102352816610000e+01   3.072543724828979e+00   3.573414900000000e+00  1.06953967e+00  -1.25642990e+00   1.92358860e-01
C     2.432400769400000e+00   3.755045570359283e+00   3.673099500000000e+00 -1.38430673e+00   4.61057410e-01  -6.82758100e-02
C     3.729436835800000e+00   1.195862971472770e+00  -2.162565000000001e-01  1.46319010e+00   1.50250932e+00   1.97500380e-01
C     4.986888798300000e+00   1.912405923842014e+00  -2.597817000000013e-01 -7.13218050e-01   8.44106030e-01  -8.83306000e-03
C     3.653950647800000e+00   3.054617353177790e+00   3.687748500000000e+00 -3.91915790e-01  -2.55580420e-01  -1.74769810e-01
C     4.868042126400000e+00   3.774503584320269e+00   3.628395900000000e+00  1.33317801e+00  -1.20717719e+00   2.97998510e-01
C     6.205818578900000e+00   1.228327520806787e+00  -2.602352999999979e-01  1.32565281e+00  -5.39031880e-01   3.90474540e-01
C     7.470184176200000e+00   1.944749390007424e+00  -1.883213999999995e-01 -1.30471965e+00  -4.49005800e-01  -3.39812320e-01
C     6.125551424799999e+00   3.038807887614699e+00   3.569155800000000e+00 -1.09980070e+00   6.40048630e-01   1.21888560e-01
C     7.332945695599999e+00   3.772583673203945e+00   3.498095100000000e+00  8.21949980e-01  -1.16398324e+00   6.06963260e-01
C     8.696461776700000e+00   1.223454990646689e+00  -1.412559000000009e-01 -8.98626570e-01  -3.25327520e-01   2.61942130e-01
C     9.900903322599998e+00   1.941197503208163e+00  -6.995549999999895e-02  1.25014207e+00   4.78777370e-01  -8.07886200e-01
C     8.582648043199999e+00   3.025341868087739e+00   3.510716700000000e+00 -8.18366260e-01   1.33193644e+00  -3.09904790e-01
C     9.782187147800000e+00   3.770108897186632e+00   3.529768500000000e+00  1.14021580e+00  -9.42048660e-01   2.79398990e-01
C     2.496928405500000e+00   3.352230644871108e+00  -1.681418999999984e-01  9.84557920e-01   3.55500440e-01   5.42386700e-02
C     3.740107426400000e+00   4.051176062882749e+00  -2.542575000000014e-01 -9.66383100e-02   5.11680830e-01   1.96872340e-01
C     1.227425748200000e+01   5.186377391564970e+00   3.726082800000000e+00  4.58082580e-01  -5.58621560e-01  -3.40901500e-01
C     3.631027035200000e+00   5.898401584978303e+00   3.708915900000000e+00  9.99116580e-01   7.60220810e-01  -1.01322370e-01
C     4.986351526899999e+00   3.360299326653869e+00  -2.741766000000005e-01 -1.38557323e+00  -1.07900767e+00  -1.11060040e-01
C     6.174163640500000e+00   4.084128872836012e+00  -3.062184000000023e-01  2.37999796e+00  -9.08924980e-01   3.31086660e-01
C     4.889590219700000e+00   5.170877977472408e+00   3.660581700000000e+00 -4.60946580e-01   1.56292706e+00  -3.55438680e-01
C     6.139297398699999e+00   5.891870864373093e+00   3.571131600000000e+00 -1.10793707e+00  -5.98392800e-02   3.46430090e-01
C     7.428306537700000e+00   3.354767755664926e+00  -2.434407000000007e-01  6.70946170e-01   6.01754910e-01   1.36821000e-02
C     8.687621350000001e+00   4.071542115218178e+00  -2.253287999999998e-01 -1.16844773e+00   3.13528050e-01   1.36986300e-02
C     7.346386157400000e+00   5.187939688922390e+00   3.578073900000000e+00  1.32976798e+00  -1.20715370e-01  -6.43679670e-01
C     8.615921747100000e+00   5.894830826965881e+00   3.590847600000000e+00 -1.98863508e+00   5.24699130e-01  -1.36874390e-01
C     9.923543509500000e+00   3.398553068923012e+00  -1.278933000000002e-01 -1.65744444e+00  -2.54598697e+00   1.14616590e-01
C     1.112362802000000e+01   4.067514776315390e+00  -1.367153999999999e-01  1.34238201e+00   4.14015970e-01  -9.91522200e-02
C     9.813396660699999e+00   5.169652287908108e+00   3.592702500000000e+00  3.40171840e-01   1.03730715e+00   2.21460360e-01
C     1.105217077590000e+01   5.887326915336266e+00   3.692097000000000e+00 -3.50796400e-01  -2.49423090e-01  -2.26329330e-01
C     3.751623068300000e+00   5.480210121758372e+00  -2.567051999999990e-01 -2.18441510e-01  -9.79117600e-02   4.81379230e-01
C     4.994824027700000e+00   6.197630799014855e+00  -2.582820000000012e-01 -7.17740550e-01   3.53357300e-02  -1.13776070e-01
C     1.349562790840000e+01   7.354230631789642e+00   3.664005000000000e+00  3.93536950e-01  -1.46644984e+00  -1.15702240e-01
C     4.904131402600000e+00   8.002492838487347e+00   3.618030600000000e+00 -8.34443020e-01   7.20353420e-01  -3.54558480e-01
C     6.240194482900000e+00   5.489415858176651e+00  -2.842170000000017e-01 -2.30175678e+00   1.68313070e-01  -1.64003790e-01
C     7.429643849500000e+00   6.196241672789969e+00  -2.815680000000000e-01  1.44641500e+00   1.02213720e-01  -1.23477000e-02
C     6.138797792500000e+00   7.311585361820740e+00   3.551462100000000e+00 -1.15227456e+00  -4.93351610e-01   2.54124690e-01
C     7.331653542600000e+00   8.029957370234801e+00   3.538951500000000e+00  1.31576289e+00   2.34461950e-01   2.96938200e-01
C     8.664155141600000e+00   5.489430801444991e+00  -2.923419000000003e-01  6.90737940e-01   3.64782500e-01   6.26131820e-01
C     9.905006758799999e+00   6.216847585929781e+00  -2.128070999999991e-01 -5.23372150e-01  -9.47058080e-01  -1.64129260e-01
C     8.564826783400001e+00   7.335828381084403e+00   3.596736900000000e+00  9.66341740e-01  -1.08722457e+00   2.89249300e-02
C     9.803724493699999e+00   8.031746036760046e+00   3.656709900000000e+00  3.53461070e-01  -2.08466470e-01  -1.05378880e-01
C     1.112538724120000e+01   5.478076649989944e+00  -1.578318000000003e-01  1.84209810e-01   7.77886320e-01  -1.49390180e-01
C     1.235748800980000e+01   6.176577612506100e+00  -1.620206999999994e-01  9.30806180e-01   7.30847320e-01  -1.23729040e-01
C     1.105932233250000e+01   7.295650031243174e+00   3.685985400000000e+00 -8.99455870e-01   1.72299323e+00  -2.97464380e-01
C     1.226557126570000e+01   8.076124982026702e+00   3.620133300000000e+00  2.98977060e-01  -1.57574310e+00   4.11056070e-01
