76
Lattice="10.7446858958278 0 0 5.37234294791388 9.3051709414712 0 0 0 30 " PBC="1 1 1" Properties=species:S:1:pos:R:3:force:R:3 Energy="-610.88664786"
C     1.154078116770280e-01   3.750933016255880e-02   1.193559000000000e-01 -1.16309000e-01   2.60764160e-01  -1.42341428e+00
C     1.256305615658124e+01   8.539627082629448e+00  -3.059700000000021e-02  2.64030100e-01   7.29919520e-01  -2.65865150e-01
C     1.399128187185454e+01   8.391259016594139e+00  -3.714779999999962e-02 -5.36528840e-01   1.89735183e+00   3.82969920e-01
C     1.455400014425501e+01   7.129239903909204e+00  -1.641392999999987e-01  2.38350396e+00  -1.31149440e+00   1.66590310e-01
C     8.244580849134884e+00   9.030028294561037e+00  -5.221560000000025e-02  1.21129092e+00  -2.26382486e+00  -1.06231050e-01
C     9.652864319930924e+00   8.889752191278571e+00  -6.698429999999789e-02  1.12916285e+00  -1.23808239e+00  -4.82401740e-01
C     1.028291878673868e+01   7.606839433868378e+00  -1.186083000000018e-01  4.37172660e-01  -2.20663050e-01  -1.22173590e-01
C     1.171500479903870e+01   7.438270493084295e+00  -1.730795999999977e-01  2.35253630e-01  -1.49539128e+00   4.67261050e-01
C     1.234455233156570e+01   6.121156393780714e+00  -2.057699999999976e-01 -1.59776935e+00  -8.76652250e-01  -2.03788090e-01
C     1.376634418264551e+01   5.976426184324398e+00  -2.063385000000011e-01 -1.35876554e+00  -1.41387989e+00   1.40981850e-01
C     6.061839812824894e+00   8.026967157395704e+00   2.517480000000000e-02 -3.91662810e-01   9.92830420e-01  -3.17432530e-01
C     7.433293079080348e+00   7.841065939960229e+00  -3.774870000000163e-02  1.87248361e+00   1.31537156e+00  -9.65805000e-03
C     8.045797283385907e+00   6.575015268913829e+00  -1.555904999999989e-01  3.93155900e-02   4.65587200e-02  -4.07443800e-01
C     9.484091843816097e+00   6.463662242360747e+00  -1.656134999999992e-01 -8.54755320e-01  -1.35047389e+00   1.87085740e-01
C     1.006459794372402e+01   5.150366613004103e+00  -1.354584000000010e-01 -8.40666090e-01  -7.50566460e-01  -7.15649930e-01
C     1.146027209582897e+01   4.916943329267793e+00  -2.003865000000005e-01  8.49639210e-01   2.49743958e+00   1.63403248e+00
C     1.202521570012619e+01   3.644420725729205e+00   6.382050000000000e-02  2.80908790e-01  -3.20605230e-01  -2.35627805e+00
C     5.272821962277565e+00   6.924624126679202e+00  -1.685166000000002e-01 -2.80324032e+00  -9.29265560e-01   3.40741210e-01
C     5.830580433943167e+00   5.614514494800705e+00  -2.667414000000008e-01 -2.66424434e+00  -4.47826950e-01   1.09077540e-01
C     7.181608589537018e+00   5.443574503409401e+00  -3.095798999999992e-01  3.12006289e+00  -5.60178660e-01   9.51699890e-01
C     7.797256151702621e+00   4.140071263743176e+00  -2.295371999999993e-01 -2.33019899e+00  -9.86118560e-01   2.66077840e-01
C     9.182569203194205e+00   3.989449857513037e+00  -1.231998000000019e-01  8.08343340e-01   1.26109849e+00   1.66000000e-05
C     9.731638286202189e+00   2.704209690747331e+00  -3.398070000000075e-02  1.31818617e+00  -1.00432122e+00   2.47473600e-01
C     1.117907931422818e+01   2.489408752561533e+00  -3.705000000000069e-03 -1.45045272e+00   4.30325230e-01  -1.39254100e-01
C     3.592806513262545e+00   4.620578008259135e+00  -1.769549999999995e-01 -2.47178487e+00   8.89812780e-01   8.49616500e-02
C     4.958453673598218e+00   4.444597033562795e+00  -2.071152000000005e-01  1.14811844e+00   9.46471830e-01  -6.54383480e-01
C     5.482742932196186e+00   3.137597468967575e+00  -2.085782999999992e-01  8.21572980e-01  -3.73092300e-02   9.86335210e-01
C     6.902865059087134e+00   2.971098184303967e+00  -1.350638999999987e-01  7.51748230e-01  -3.13585170e-01  -3.07463200e-01
C     7.436123121899550e+00   1.611864228740475e+00  -1.326600000002287e-03  1.61075593e+00   4.13855728e+00  -3.62471510e-01
C     8.903074243135904e+00   1.557436050671389e+00   1.746300000000000e-02 -1.50137150e+00  -7.44705080e-01   8.23629900e-02
C     9.469810544552111e+00   2.735519264667696e-01   7.052850000000001e-02 -6.04540840e-01  -2.20647576e+00   1.40862700e-02
C     2.695292853754228e+00   3.498613070529746e+00  -9.431820000000002e-02 -5.31313600e-02  -1.46245672e+00   1.99525760e-01
C     3.197822457978382e+00   2.115833403471388e+00  -1.507608000000005e-01  3.88816360e-01   2.39788313e+00   5.11592520e-01
C     4.613870629763486e+00   2.016588358397142e+00  -8.299470000000042e-02  1.74013650e-01  -1.96526707e+00  -1.43422781e+00
C     5.157749492247476e+00   6.587615307831973e-01  -1.455599999999997e-01  6.74540830e-01   2.95978787e+00   1.54053567e+00
C     6.583920769853265e+00   5.353409071931570e-01   1.120830000000000e-02 -3.38257470e-01  -1.94432641e+00  -7.37460320e-01
C     9.315255866607599e-01   1.157841489547106e+00  -1.098695999999997e-01  7.08205190e-01   9.49203390e-01   1.58217431e+00
C     2.337251231254875e+00   9.743744117778268e-01  -1.456292999999995e-01 -3.09100410e-01   2.30985804e+00   3.25011490e-01
C     1.597862708815640e+01   9.261833967381138e+00   3.700891500000000e+00  1.33104100e-02   3.19630880e-01  -1.47609664e+00
C     1.179109409809100e+01   8.726169519394396e+00   3.662135400000000e+00 -2.48952156e+00   8.73527530e-01  -2.13334450e-01
C     1.315672138075775e+01   8.949541915791576e+00   3.753947100000000e+00  1.23703318e+00  -4.05316440e-01  -3.07223000e-01
C     1.399756364501912e+01   7.808966915337314e+00   3.647832900000000e+00  2.64676880e-01  -1.00685679e+00  -6.83434340e-01
C     7.456963998182056e+00   8.265535177093030e+00   3.547615800000000e+00 -2.95780220e-01   5.25579970e-01   7.01240560e-01
C     8.846937664629623e+00   8.438449167447546e+00   3.599865900000000e+00  2.70158274e+00  -2.01701610e-01  -5.34252710e-01
C     9.775362657280221e+00   7.304220479677784e+00   3.483637500000000e+00 -3.16304390e-01   1.17743790e+00   6.48801290e-01
C     1.119977470746360e+01   7.441583785300902e+00   3.476979900000000e+00  1.62189290e-01   1.84021120e-01   7.11993910e-01
C     1.204650527449188e+01   6.286012943566575e+00   3.454938900000000e+00 -1.06760819e+00   7.64429450e-01   2.39664570e-01
C     1.343849206528967e+01   6.467433907297857e+00   3.510422700000000e+00  4.28140710e-01   1.05817738e+00   3.47980000e-03
C     4.667238839947633e+00   7.963011693956280e+00   3.545445900000000e+00 -7.19157030e-01  -2.61325260e-01   1.26774412e+00
C     5.479489118965089e+00   6.797083731707186e+00   3.491700900000000e+00  5.22170700e-01  -1.84165150e-01  -2.21665850e-01
C     6.873967817316808e+00   6.982621861372580e+00   3.522772800000000e+00  2.36161769e+00  -1.67533076e+00  -2.66230430e-01
C     7.824892128518576e+00   5.833934333737700e+00   3.476674200000000e+00 -1.89703465e+00   8.56739110e-01   5.89121800e-02
C     9.236719895129019e+00   6.018930437195840e+00   3.488386800000000e+00 -1.07473505e+00  -1.52519477e+00  -1.11440538e+00
C     1.005479175241395e+01   4.842519269365742e+00   3.326932800000000e+00  2.52199140e-01   5.69209110e-01   9.36511490e-01
C     1.145203242599970e+01   5.001959279147428e+00   3.424651500000000e+00  1.25144821e+00  -1.00668494e+00  -9.10339860e-01
C     1.231772580566202e+01   3.840945005464910e+00   3.357843000000000e+00 -2.09954170e-01   5.23868770e-01  -4.66374170e-01
C     3.521177387050772e+00   5.329878248710208e+00   3.396186000000000e+00  2.03343181e+00   2.22170130e-01  -1.75483000e-02
C     4.962580922346126e+00   5.471694357783243e+00   3.407449200000000e+00 -1.55918600e-01   1.25990330e-01   5.17990990e-01
C     5.867029846815456e+00   4.331433592951626e+00   3.472267800000000e+00 -1.87270194e+00   1.19120474e+00  -5.34297390e-01
C     7.258862397647153e+00   4.517965607925123e+00   3.451114800000000e+00  7.75924380e-01   5.29203130e-01   2.33938700e-01
C     8.111871084646804e+00   3.384225813836548e+00   3.471885000000000e+00 -4.95047770e-01  -6.30714090e-01   6.41026280e-01
C     9.521501831607845e+00   3.531876265088964e+00   3.339595800000000e+00 -9.36960870e-01   1.46756970e-01   6.80814370e-01
C     1.035225161240334e+01   2.384574742665596e+00   3.438624000000000e+00 -8.42921330e-01   2.61034300e-02  -4.39870810e-01
C     1.172919079293876e+01   2.534014950496611e+00   3.328374600000000e+00  2.64300360e+00   5.01054300e-02   1.01121290e+00
C     3.005483447385367e+00   4.038853801584779e+00   3.294875400000000e+00 -1.35461379e+00  -1.57096467e+00   6.95763900e-02
C     3.864435288773455e+00   2.884074178535480e+00   3.258237300000000e+00 -4.99147650e-01   4.26393000e-01   1.21980221e+00
C     5.267861194520965e+00   3.045374571143201e+00   3.463314000000000e+00 -1.84861420e-01  -7.41998270e-01  -5.76555630e-01
C     6.076883984787779e+00   1.885497947659807e+00   3.601445100000000e+00  1.21063520e+00   6.81137200e-02   8.72995610e-01
C     7.520121960306840e+00   2.101654183993015e+00   3.754185900000000e+00 -6.48960620e-01  -4.44608120e-01  -1.88795448e+00
C     8.359895020874294e+00   9.575486155806999e-01   3.749529600000000e+00 -1.59830080e-01  -1.57427190e-01  -1.24794880e-01
C     9.764829856586168e+00   1.102898363318201e+00   3.588613500000000e+00 -5.22181700e-02  -3.21057140e-01   1.01429994e+00
C     1.895399124692060e+00   1.395467081531629e+00   3.466357800000000e+00 -2.63155756e+00   1.02089492e+00  -4.33677170e-01
C     3.276271504948033e+00   1.581897204883333e+00   3.402944700000000e+00  9.46359410e-01   2.71802740e-01   3.21429680e-01
C     4.095974512999447e+00   4.438298549456928e-01   3.612836100000000e+00  8.63855000e-03  -1.21327794e+00  -7.23053490e-01
C     5.518880856624233e+00   5.534599360475250e-01   3.647066100000000e+00  4.72508800e-01   9.57494450e-01  -5.45121500e-02
C     1.265368135022992e+00   1.293212185865132e-01   3.617982300000000e+00  7.43163020e-01  -5.40710570e-01  -3.78738260e-01
