52
Lattice="8.88768389401873 1.33226762955019e-15 0 4.44384194700937 7.69696003302603 0 0 0 30 " PBC="1 1 1" Properties=species:S:1:pos:R:3:force:R:3 Energy="-414.34487295"
C     1.255640079810783e+01   6.778128345215523e+00   7.344870000000001e-02  1.51957989e+00  -7.58070460e-01  -1.00735720e-01
C     8.759162474821775e+00   6.519611318383915e+00  -1.702290000000062e-02  2.77224480e+00  -1.74092009e+00  -1.68405490e-01
C     1.019674743235429e+01   6.087508369566931e+00  -2.404457999999998e-01 -2.20257402e+00   4.95170354e+00  -2.52285340e-01
C     1.044071546524776e+01   4.782852939659452e+00  -2.421278999999998e-01  3.33968217e+00  -3.50182863e+00   1.62096170e-01
C     6.483906688679816e+00   5.947348651660640e+00   4.165629000000000e-01 -3.37745739e+00  -9.78708080e-01  -1.30101612e+00
C     7.771980628113765e+00   5.474702581642434e+00   8.645910000000001e-02  7.79424290e-01   2.89452580e+00   3.27064880e-01
C     8.137538042469291e+00   4.132308033072660e+00  -5.967599999999962e-02 -9.15267290e-01  -1.04056875e+00   1.02013880e-01
C     9.487357210515864e+00   3.778664816017485e+00  -7.070519999999902e-02  4.17713910e-01  -1.99003566e+00   1.45090830e-01
C     9.902969527245775e+00   2.385376428337345e+00   1.709310000000000e-01 -3.95364308e+00   7.81217950e-01  -4.89286000e-02
C     3.959009371374498e+00   5.416999472902329e+00   2.456460000000000e-02  2.38032885e+00  -3.02218038e+00  -2.35947400e-02
C     5.388066996172668e+00   5.003881306908141e+00   2.272959000000000e-01 -5.43405360e-01  -1.85811020e+00  -1.74570138e+00
C     5.724240038854051e+00   3.547782800538390e+00  -1.244933999999986e-01  7.41820100e-02   1.88281946e+00   1.68590227e+00
C     7.130883547018803e+00   3.133571820159143e+00  -1.094508000000012e-01 -2.02845360e+00  -1.13080757e+00   4.52003530e-01
C     7.411299304886016e+00   1.701366294084118e+00  -2.897460000000152e-02  2.72659800e+00   2.92434356e+00   1.28426820e-01
C     8.823421181465473e+00   1.387076786996730e+00   2.667474000000000e-01 -3.98062050e-01   4.81577030e-01  -1.05698276e+00
C     2.951596845323872e+00   4.354901423204249e+00  -2.324337000000014e-01  5.77770150e-01   2.25929583e+00   1.80171804e+00
C     3.305873433596825e+00   3.028008167286893e+00   6.504390000000000e-02  1.35699246e+00  -1.30048624e+00  -1.07952483e+00
C     4.664509095128098e+00   2.586092210188463e+00  -5.940119999999993e-02  2.14529130e+00  -1.12499574e+00   9.65644280e-01
C     5.113335264204398e+00   1.115844151286762e+00   6.374279999999999e-02 -3.81095651e+00   3.34003467e+00  -1.28121516e+00
C     6.400803285842909e+00   7.259598748999322e-01  -1.560996000000010e-01  1.81592204e+00   1.50720952e+00   3.59985680e-01
C     1.127071004658320e+01   7.116286125355940e+00  -2.820402000000009e-01 -3.20139984e+00  -1.77411665e+00   1.36057871e+00
C     2.337015235908257e+00   2.014297672574212e+00   2.855781000000000e-01  7.29538620e-01  -5.10631120e-01  -4.07668190e-01
C     2.693137396149264e+00   6.410292318713029e-01   4.297056000000000e-01 -5.09483000e-01  -1.12730102e+00  -7.02990310e-01
C     4.069143591450239e+00   1.850921845038232e-01   1.851285000000000e-01 -2.14775237e+00   2.47562040e-01   9.59933400e-02
C     2.729742344016033e-01   1.517447972954470e-02   4.143981000000000e-01 -1.14326753e+00   4.43596390e-01  -9.91408970e-01
C     6.054151267254161e+00   7.330892149155598e+00   5.202546000000000e-01  3.39532281e+00   8.36071300e-02  -5.39128870e-01
C     7.774801892875458e-01   9.825132532886854e-01   3.474076500000000e+00 -1.38648612e+00  -5.18847980e-01  -3.14761600e-02
C     3.130394467898548e+00   3.908997363235875e-01   3.190268400000000e+00  1.57529503e+00  -1.41141980e-01   6.19795760e-01
C     4.510497930501842e+00   8.441436943461704e-01   3.105186900000000e+00  4.44330210e-01  -2.82363717e+00   1.02998862e+00
C     1.002043755974001e+01   7.531138339475286e+00   3.063927000000000e+00 -4.80211790e-01  -5.47028000e-02  -6.64789740e-01
C     6.949303230583578e+00   2.118575933121452e-01   3.220002000000000e+00 -1.24656460e-01  -5.45820600e-01   1.18853598e+00
C     1.236567154625024e+01   6.836020260385165e+00   3.388622700000000e+00  6.39002950e-01   2.84073375e+00  -1.63796150e-01
C     4.855146051475336e+00   7.280053035431045e+00   3.577885800000000e+00 -3.31097020e-01  -1.49724480e-01  -6.39753480e-01
C     5.886000420145992e+00   6.280445911490134e+00   3.595253400000000e+00 -3.78721000e-03   2.40199954e+00  -1.03305211e+00
C     7.232720142271074e+00   6.727112971106282e+00   3.330233700000000e+00  5.79022020e-01  -1.59486297e+00   3.05127410e-01
C     8.255049044610107e+00   5.729724188015617e+00   3.186091200000000e+00  2.46615259e+00  -4.51322300e-02  -6.70996790e-01
C     9.704125022507071e+00   6.140909493407071e+00   2.895642600000000e+00 -1.83837405e+00  -1.17409104e+00   2.41752891e+00
C     1.071581772242090e+01   5.074080969044155e+00   3.082646700000000e+00 -3.14013883e+00   1.43881548e+00  -4.00088920e-01
C     1.201636788200166e+01   5.480383476931776e+00   3.292245600000000e+00  1.70431674e+00  -3.30434920e-01   3.34222630e-01
C     4.153570680898405e+00   4.499935856806342e+00   3.475752000000000e+00  3.57163170e-01   1.01269890e+00  -8.33449000e-03
C     5.528839510086186e+00   4.937986939364908e+00   3.541297200000000e+00 -2.21985370e-01  -1.64420300e+00   1.65127298e+00
C     6.543300456958853e+00   3.959862184806928e+00   3.730652700000000e+00  2.32398014e+00  -6.58126370e-01  -3.69298444e+00
C     7.993123444662935e+00   4.334355158100167e+00   3.347724600000000e+00 -3.22451465e+00   7.37204700e-01   1.34834184e+00
C     8.980858059530492e+00   3.316496078900916e+00   3.264646500000000e+00 -1.24454646e+00   2.65128813e+00   4.09492320e-01
C     1.029175286101773e+01   3.717230605902837e+00   3.189358500000000e+00  3.42373585e+00  -5.60494040e-01  -2.19078780e-01
C     2.447989879214599e+00   2.696677975541087e+00   3.272429100000000e+00  4.77988180e-01   3.02549422e+00   7.29526930e-01
C     3.813570066446958e+00   3.145109178396111e+00   3.464494200000000e+00 -6.59314600e-02  -1.29371751e+00  -9.56355860e-01
C     4.865294538870197e+00   2.151145388579596e+00   3.411231300000000e+00 -6.28673480e-01   1.40837265e+00  -5.99404480e-01
C     6.221715834520641e+00   2.571852372315361e+00   3.459360600000000e+00  6.96684740e-01   1.18707400e-01   1.69996739e+00
C     7.280344570870014e+00   1.595507000977116e+00   3.470812200000000e+00 -7.01809650e-01  -3.41855730e-01  -1.16520412e+00
C     8.636961395565034e+00   2.014669358774061e+00   3.449389200000000e+00  1.67989810e-01  -3.68319498e+00   2.07020320e-01
C     2.136391058475477e+00   1.348785565391484e+00   3.313780200000000e+00 -1.30787040e+00  -4.69301400e-02   4.26297740e-01
