52
Lattice="8.88768389401873 1.33226762955019e-15 0 4.44384194700937 7.69696003302603 0 0 0 30 " PBC="1 1 1" Properties=species:S:1:pos:R:3:force:R:3 Energy="-416.95629778"
C     1.271980913213912e+01   7.036152458726807e+00  -2.165067000000001e-01  2.89628487e+00  -3.57467761e+00  -6.70128520e-01
C     9.036714222045999e+00   6.707069163552958e+00  -2.559200999999973e-01 -6.85956670e-01   1.33461982e+00   6.96252960e-01
C     1.034365915854381e+01   6.314964776015076e+00  -5.057670000000059e-02  1.85552324e+00   1.23330393e+00  -8.09829830e-01
C     1.064286721304017e+01   4.972750105401203e+00  -1.165839000000020e-01  2.82646440e+00  -9.10454070e-01   4.30771680e-01
C     6.598781291820679e+00   6.175869624650533e+00  -4.374828000000015e-01  1.06696957e+00   6.81087210e-01   6.80707640e-01
C     8.036160455061342e+00   5.787820303534856e+00  -2.816525999999975e-01 -4.28488780e+00  -4.01027863e+00  -7.07769200e-01
C     8.298621180584357e+00   4.302719959650465e+00  -2.269332000000013e-01  6.19062100e-01   3.06578686e+00   7.73698570e-01
C     9.692912141332378e+00   3.946677215305937e+00  -1.582785000000015e-01 -1.61839601e+00   7.99760030e-01  -7.36069440e-01
C     1.004523961608916e+01   2.618739866760512e+00  -3.410153999999999e-01 -6.43628020e-01  -2.23637088e+00   4.58276540e-01
C     4.174781005888019e+00   5.579647168019471e+00  -2.013378000000010e-01  9.71221560e-01   2.34785012e+00  -5.83305930e-01
C     5.550616068890068e+00   5.207416023400646e+00  -3.452409000000003e-01  5.73704950e-01  -8.56966910e-01   9.59873830e-01
C     5.895720922848374e+00   3.807365779364551e+00  -1.889832000000027e-01 -4.36994550e-01  -6.48251570e-01  -9.13137540e-01
C     7.253584022456699e+00   3.364203607467664e+00  -1.444988999999985e-01  5.81292060e-01  -1.33110600e-02  -7.50723660e-01
C     7.651597525246700e+00   1.970325555679625e+00  -1.895823000000014e-01 -2.56775576e+00   1.27875541e+00   7.08752800e-02
C     8.983790994114909e+00   1.624264921828404e+00  -3.257427000000028e-01  1.80797463e+00   9.75628740e-01  -4.69705990e-01
C     3.177596648707981e+00   4.606647511267066e+00  -1.485149999999997e-01 -1.94686637e+00   2.39850200e-01   4.77476310e-01
C     3.494985216046143e+00   3.251610090091214e+00  -1.560611999999999e-01  6.91647820e-01  -2.93361321e+00  -1.82318803e+00
C     4.849795440677301e+00   2.809416734553303e+00  -2.801508000000013e-01  1.01678521e+00   3.76108400e-02   1.53483775e+00
C     5.231461470963052e+00   1.387800070330749e+00  -2.335239000000016e-01 -8.72825740e-01   9.99681370e-01  -1.45445610e-01
C     6.584572148286425e+00   1.013462883508516e+00  -1.812128999999985e-01  8.48821420e-01  -4.28743730e-01   2.39702950e-01
C     1.139413544594129e+01   7.321832981139488e+00  -1.095857999999978e-01 -2.24808447e+00   1.18024210e+00  -2.51938300e-02
C     2.509324451980583e+00   2.180676623005098e+00  -3.739595999999992e-01  5.15637040e-01   3.17003392e+00   8.70580470e-01
C     2.892682697339759e+00   8.526081952303620e-01  -4.596477000000014e-01 -1.10382372e+00  -2.37716951e+00   4.52352280e-01
C     4.227530072960257e+00   3.592544548562455e-01  -2.954837999999995e-01  8.69349200e-02   3.01047597e+00  -4.88759110e-01
C     4.692022076160641e-01   2.820299312400519e-01  -4.537917000000000e-01 -2.14354170e+00  -7.49361510e-01   1.21292681e+00
C     6.242918252029945e+00   7.589867529956991e+00  -4.865352000000023e-01  2.19205918e+00  -1.60714533e+00  -2.36998210e-01
C     6.053868550333674e-01   7.798950138269520e-01   3.572670600000000e+00 -1.31933853e+00  -3.93328546e+00   2.35350280e-01
C     2.974963541206554e+00   1.841421487273203e-01   3.786309300000000e+00  9.12138600e-02  -1.61180301e+00  -5.98823060e-01
C     4.350363019343589e+00   6.161412655534985e-01   3.787548300000000e+00  6.76227980e-01  -2.10938651e+00   4.36833700e-02
C     9.832951068021329e+00   7.273159330149777e+00   3.806682600000000e+00 -6.73875240e-01   1.33215013e+00  -8.79486120e-01
C     1.120182880813684e+01   7.672124249071198e+00   3.599787600000000e+00 -1.78792839e+00  -1.40917700e-02   7.23342420e-01
C     1.216641056209226e+01   6.662743987101795e+00   3.519182400000000e+00  1.69997126e+00  -9.78866110e-01   3.43432220e-01
C     4.646252639908925e+00   7.034616145504820e+00   3.467630700000000e+00  4.54965950e-01   2.55565132e+00   6.53535540e-01
C     5.662957460358969e+00   6.096005736470452e+00   3.553888800000000e+00  6.87395680e-01  -2.14490668e+00  -4.58022900e-01
C     7.039904150902029e+00   6.460327407992848e+00   3.640231800000000e+00  1.51170884e+00   1.61623312e+00   1.06465246e+00
C     8.124271397631976e+00   5.525902528853194e+00   3.749817900000000e+00 -1.66435008e+00  -1.81159863e+00  -9.71432470e-01
C     9.467189412923144e+00   5.895650326287939e+00   3.810386700000000e+00  1.50531214e+00   3.29067680e-01  -6.53136000e-02
C     1.051484665900082e+01   4.893379284480643e+00   3.764213400000000e+00 -6.57801290e-01  -9.33271680e-01   2.95027100e-01
C     1.188371124531474e+01   5.247021423961415e+00   3.657423000000000e+00 -1.20048369e+00   1.15816419e+00  -2.60386870e-01
C     3.987017839860417e+00   4.229590064831030e+00   3.635535600000000e+00 -3.40275500e-01   1.55709303e+00  -6.73721070e-01
C     5.341407722050205e+00   4.662088714363156e+00   3.527653500000000e+00  2.92437740e-01   1.72479440e+00   8.26795430e-01
C     6.404698181966369e+00   3.764606318522690e+00   3.598469100000000e+00  6.50701590e-01  -1.96016192e+00  -1.32343258e+00
C     7.807058271369605e+00   4.103570894013453e+00   3.597867900000000e+00 -1.68204850e+00   1.94966271e+00   1.12520192e+00
C     8.789029712086181e+00   3.130461709519821e+00   3.692124600000000e+00  9.03386670e-01  -1.55576537e+00   4.57218200e-02
C     1.015868485788081e+01   3.482110798170424e+00   3.808593900000000e+00 -3.98786980e-01   1.65094785e+00  -1.24349190e+00
C     2.253024757037807e+00   2.481758223650607e+00   3.673758600000000e+00  3.08429010e-01   6.81806250e-01   1.33005958e+00
C     3.589779341320414e+00   2.875331652979815e+00   3.646299300000000e+00  2.39441440e+00   8.85221540e-01   1.78845310e-01
C     4.709005284136094e+00   1.989901849880726e+00   3.672279600000000e+00 -1.92601484e+00  -1.74204476e+00  -4.57179850e-01
C     6.042619271990199e+00   2.366986004768065e+00   3.509499600000000e+00  1.90539919e+00   1.31428050e-01   1.67692725e+00
C     7.086981453703237e+00   1.363411944597293e+00   3.608839200000000e+00  3.50239970e-01  -1.53307410e-01  -9.66575440e-01
C     8.492625053485350e+00   1.708746139360882e+00   3.615471300000000e+00 -2.67213484e+00   2.70314962e+00  -1.40811110e-01
C     1.931486261693274e+00   1.115747708377586e+00   3.756638100000000e+00  8.17677660e-01   6.69243700e-01  -1.01966144e+00
