52
Lattice="8.88768389401873 1.33226762955019e-15 0 4.44384194700937 7.69696003302603 0 0 0 30 " PBC="1 1 1" Properties=species:S:1:pos:R:3:force:R:3 Energy="-418.39700509"
C     1.312393878466305e+01   7.471371059994334e+00  -1.810517999999988e-01  1.52237495e+00  -1.31543792e+00  -7.15832710e-01
C     9.395702394967895e+00   7.268634056439338e+00  -1.956747000000014e-01 -3.01492210e-01   1.24247233e+00   3.12436870e-01
C     1.075240720720493e+01   6.874233280876505e+00  -9.156929999999974e-02 -3.21575650e-01   5.66599270e-01  -1.25112090e-01
C     1.109122238062782e+01   5.533112117374094e+00  -1.015559999999986e-01  1.09036135e+00  -2.80321642e+00  -1.14541090e-01
C     6.985727051963279e+00   6.666169827041548e+00  -3.885446999999971e-01  5.94241500e-02   9.15576370e-01   9.27420480e-01
C     8.380384718558696e+00   6.325668168632793e+00  -2.362301999999978e-01 -1.56530279e+00  -2.17675820e+00  -6.56095070e-01
C     8.684932893437182e+00   4.914535610636704e+00  -2.153291999999993e-01  2.09217096e+00   4.55889170e-01   8.41388720e-01
C     1.009711000689870e+01   4.487382730754215e+00  -1.555038000000017e-01 -1.71687192e+00   2.77302021e+00  -3.34204930e-01
C     1.039026768171441e+01   3.151794065151767e+00  -2.920049999999996e-01  1.03291274e+00  -2.38026248e+00  -1.40101950e-01
C     4.601580295968011e+00   6.032580322796043e+00  -1.904582999999995e-01  3.00783650e-01   3.31098478e+00  -1.20369420e-01
C     5.955392967014095e+00   5.674652515970568e+00  -2.814776999999999e-01  1.17418060e+00   4.98708000e-02   2.53270980e-01
C     6.325035249750567e+00   4.314193664027985e+00  -1.741665000000019e-01 -3.40544010e-01  -1.14849315e+00  -5.65723150e-01
C     7.699461525976048e+00   3.937090805527772e+00  -1.411896000000006e-01 -5.55995650e-01  -1.78498841e+00  -7.71564960e-01
C     8.072571916225941e+00   2.490863573426896e+00  -1.989641999999989e-01 -3.29267785e+00   2.53112162e+00   5.96204150e-01
C     9.376345727130483e+00   2.127520878250716e+00  -2.990124000000023e-01  1.90366640e+00   5.36920390e-01  -2.96010530e-01
C     3.604494992044633e+00   5.089916463701075e+00  -1.335662999999983e-01 -2.37974464e+00  -2.94706010e-01   3.10200950e-01
C     3.914625343444719e+00   3.715684979359212e+00  -1.685099999999977e-01 -3.19491580e-01  -1.39077433e+00  -1.41521631e+00
C     5.290052195094947e+00   3.296113220258271e+00  -2.523720000000012e-01 -2.68901570e-01   1.73550490e+00   1.17432641e+00
C     5.608342329087835e+00   1.942497273660760e+00  -1.946990999999976e-01  1.54951034e+00  -9.39109610e-01   7.76817500e-02
C     7.019873041317569e+00   1.542340711387493e+00  -1.351088999999988e-01 -1.35221405e+00  -1.48711170e-01  -2.93725780e-01
C     7.331084623891161e+00   1.525123381496386e-01  -1.098767999999986e-01  2.27186110e-01   8.35972520e-01   9.28126000e-03
C     2.862182567107177e+00   2.704879317361853e+00  -3.700235999999997e-01  1.26717672e+00   2.39663726e+00   9.18548740e-01
C     3.258505854650399e+00   1.367960078279020e+00  -4.547939999999997e-01 -2.44610034e+00  -1.74225681e+00   9.99946620e-01
C     4.575623367485194e+00   9.558536007111758e-01  -2.316995999999989e-01  1.65490055e+00  -3.30928300e-02  -6.83063000e-01
C     8.331748602440250e-01   7.666814116346502e-01  -3.821162999999999e-01 -6.29321020e-01  -1.32619254e+00   9.14965630e-01
C     2.179529342441895e+00   3.547481926370817e-01  -4.185719999999975e-01  1.58834882e+00   1.78108390e-01  -5.97519850e-01
C     2.005604969151232e-01   2.612900106216151e-01   3.511867500000000e+00  1.14955770e-01  -2.07475202e+00   1.20558158e+00
C     7.017933441388083e+00   7.336993606340979e+00   3.740361300000000e+00 -3.48484550e-01   4.40818050e-01  -1.74079700e-02
C     3.929822613927001e+00   3.141845205525790e-02   3.756082500000000e+00  1.13912599e+00   1.44969620e-01  -5.90615240e-01
C     9.416671862665947e+00   6.719447414673205e+00   3.698705700000000e+00 -2.88804590e-01   1.78733865e+00   5.61874430e-01
C     1.079013160379273e+01   7.149512285443844e+00   3.600450600000000e+00 -8.33212820e-01  -1.33490780e+00  -1.49238530e-01
C     1.180829249345879e+01   6.155964516316949e+00   3.533023200000000e+00  1.85059700e-01  -1.39198530e-01   3.32007110e-01
C     4.290114613937650e+00   6.538252431941372e+00   3.489879900000000e+00 -9.83010700e-02   1.31578928e+00  -2.01481040e-01
C     5.304633153014448e+00   5.579407638623337e+00   3.490448400000000e+00  9.74513020e-01  -1.51740780e+00   5.37055430e-01
C     6.687945780471072e+00   5.962344331008687e+00   3.631558800000000e+00 -5.93625810e-01  -5.11105540e-01   3.84087980e-01
C     7.697509391309813e+00   4.955835881796077e+00   3.755432700000000e+00 -3.43983370e-01   5.61018970e-01  -7.08455840e-01
C     9.068361352656892e+00   5.368780789219989e+00   3.822759600000000e+00  2.13178830e-01  -1.37659626e+00  -1.05375125e+00
C     1.010170485051427e+01   4.366203639312301e+00   3.709771200000000e+00  1.60433490e-01   1.01058159e+00   8.96454320e-01
C     1.147408953738277e+01   4.773249211721220e+00   3.627085200000000e+00 -3.15183030e-01  -1.45628280e-01  -4.30099740e-01
C     3.610664243648201e+00   3.776173848842976e+00   3.573475500000000e+00  1.72004600e-02   1.02160526e+00   1.73660750e-01
C     4.979140838140827e+00   4.158958603237334e+00   3.520757100000000e+00 -3.96710840e-01   1.35253727e+00  -2.43974450e-01
C     5.988827587856595e+00   3.178203643497902e+00   3.517630500000000e+00 -3.06151160e-01   3.76178400e-02   3.96775300e-02
C     7.335809141118567e+00   3.577903391193389e+00   3.605784300000000e+00  1.32724651e+00   2.30079990e-01   6.30672960e-01
C     8.379000148314763e+00   2.617070780978007e+00   3.669648000000000e+00  4.24725370e-01  -1.50105662e+00   2.12042800e-02
C     9.770029951691740e+00   2.997956541393763e+00   3.784371900000000e+00 -1.03367624e+00   5.99544500e-02  -1.48543296e+00
C     1.911189947411631e+00   2.032201725239196e+00   3.648258600000000e+00 -8.33930830e-01  -9.69462250e-01   1.61152480e+00
C     3.261969074678574e+00   2.422716459622083e+00   3.658919400000000e+00  3.07394950e-01  -7.71018190e-01  -4.82296900e-01
C     4.283581540822649e+00   1.430584700231908e+00   3.643904700000000e+00 -8.20299220e-01  -1.06466062e+00   1.38948360e-01
C     5.624129832961096e+00   1.804749013331867e+00   3.532061100000000e+00  1.57565908e+00  -3.22938840e-01   4.00637320e-01
C     6.670210359481441e+00   8.073591526667974e-01   3.556092900000000e+00  3.63046530e-01   1.03266725e+00  -2.14191830e-01
C     8.064103996797687e+00   1.184876030647023e+00   3.569302200000000e+00 -1.46630650e+00   2.72594137e+00  -1.53681850e-01
C     1.543674930028167e+00   6.432097806478019e-01   3.746439300000000e+00  8.79816030e-01   4.20112200e-02  -1.70154898e+00
