64
Lattice="9.86 0 0 4.93 8.53901048131456 0 0 0 30 " PBC="1 1 1" Properties=species:S:1:pos:R:3:force:R:3 Energy="-509.15932278"
C     5.038714190800000e+00   8.135305704229705e+00  -7.447580999999985e-01 -3.68378096e+00  -1.84622011e+00  -2.93268960e-01
C     1.264047217900000e+00   2.775420059996584e-01  -7.612310999999998e-01  3.57979910e+00   2.61617530e+00   5.62022800e-01
C     9.789746316799999e+00   3.851725613255520e-01   3.836605200000000e+00 -3.70965080e-01   3.90228559e+00   1.50271672e+00
C     1.142521436100000e+00   1.102624235190078e+00   4.038388500000000e+00  1.70221064e+00   2.89576460e-01   1.79329690e-01
C     7.483530918700000e+00   8.133392026591032e+00  -8.303289000000014e-01  8.01597520e-01   1.98032151e+00   1.33358398e+00
C     3.840868245400000e+00   3.406933680758608e-01  -5.863314000000024e-01 -3.41918713e+00   6.28176200e-02  -5.10740900e-01
C     2.375709368300000e+00   3.499241237948456e-01   3.811943100000000e+00  6.01193650e-01   2.55732657e+00   5.20151520e-01
C     3.608161843100000e+00   1.114542815237852e+00   3.837715500000000e+00 -1.10682165e+00   8.76264630e-01  -2.45544830e-01
C     9.963335067799999e+00   8.187545662544247e+00  -5.415050999999984e-01  1.40630077e+00  -3.54563793e+00   2.85336420e-01
C     6.345961569000000e+00   3.059448896087584e-01  -5.928302999999993e-01 -5.63377123e+00   8.18969780e-01   2.57783490e-01
C     4.792845822399999e+00   3.759002206255296e-01   3.561201600000000e+00  2.23318048e+00   2.11270986e+00   2.63919886e+00
C     6.068363178300000e+00   1.098201540102066e+00   3.817928700000000e+00  4.80082620e-01  -1.79038923e+00  -4.66842420e-01
C     1.241767093550000e+01   8.161298537520929e+00  -6.561801000000003e-01  2.21991828e+00  -2.94195638e+00   6.27813810e-01
C     8.706641585799998e+00   3.400995652870816e-01  -8.361710999999978e-01  8.86328600e-01  -2.82781325e+00   9.30847180e-01
C     7.343113574099999e+00   3.664296894922664e-01   3.982739400000000e+00 -1.32216084e+00   1.87989033e+00  -4.94978840e-01
C     8.550727624300000e+00   1.151590166106380e+00   4.033853400000000e+00 -9.17524590e-01  -2.54067690e+00  -1.04944080e-01
C     1.238009077800000e+00   1.727566318876798e+00  -4.691882999999990e-01  2.06769234e+00   9.61943600e-02  -7.07857020e-01
C     2.509299205200000e+00   2.479756992906794e+00  -2.504574000000019e-01 -5.36416800e-02  -1.67807552e+00  -5.67665260e-01
C     1.107443509960000e+01   2.561472249156621e+00   4.453854300000000e+00 -2.14552134e+00  -2.82671388e+00  -1.00233637e+00
C     2.406885061400000e+00   3.298324469441602e+00   4.474528200000000e+00  9.42197580e-01  -1.08566240e+00  -1.57842048e+00
C     3.739667226700000e+00   1.764793245135721e+00  -4.049334000000009e-01  1.77003385e+00  -3.43132810e-01   1.24180310e-01
C     5.035586943899999e+00   2.442484468331908e+00  -4.359950999999995e-01 -1.62813204e+00  -5.67641350e-01   3.25755560e-01
C     3.603079801900000e+00   2.594142417862996e+00   4.080343200000001e+00  1.04813423e+00  -1.87394661e+00  -2.11750610e-01
C     4.867011263399999e+00   3.257064483142870e+00   3.847727400000000e+00 -1.26800372e+00  -9.29231400e-02   8.36739800e-02
C     6.261535910599999e+00   1.706923773382027e+00  -5.884196999999993e-01 -8.74211870e-01   8.74569650e-01  -1.11675334e+00
C     7.439881142399999e+00   2.397759095410079e+00  -8.448035999999988e-01  3.39882070e-01   1.87605827e+00   1.11485704e+00
C     6.083496257000000e+00   2.503551457949943e+00   3.804785700000000e+00 -4.08629230e-01   1.38350005e+00  -2.53996160e-01
C     7.282056115700000e+00   3.288548412513364e+00   3.860181600000000e+00  7.25107280e-01  -1.14584319e+00   6.50366240e-01
C     8.649004265600000e+00   1.709159457105901e+00  -8.653577999999982e-01  2.60957835e+00   2.14286832e+00   7.19608500e-01
C     9.908308182599999e+00   2.463511696248803e+00  -5.717774999999996e-01 -6.58102580e-01  -8.67512080e-01  -1.65790900e-01
C     8.470722746200000e+00   2.541563204662082e+00   4.186868700000000e+00  2.88688014e+00   1.19586349e+00  -4.25233420e-01
C     9.804126239399999e+00   3.223176053811313e+00   4.439710499999999e+00 -2.23451559e+00  -1.27000176e+00  -1.13034296e+00
C     2.565382934500000e+00   3.897538856112502e+00  -4.587210000000042e-02  1.20353284e+00  -1.62836850e+00   4.21159400e-02
C     3.819364817899999e+00   4.630383718779219e+00  -3.653489999999948e-02 -6.15465900e-02  -1.84588478e+00  -9.40689740e-01
C     1.222237214070000e+01   4.722273035235756e+00   4.365094200000000e+00  1.58931633e+00  -1.54564170e+00  -3.17948300e-02
C     3.604180030000000e+00   5.357224717787343e+00   4.042851900000000e+00  9.22037780e-01   2.69962974e+00  -7.53402100e-01
C     5.006733477999999e+00   3.852506249593601e+00  -3.777551999999993e-01  1.06097931e+00   2.27753335e+00  -2.17725830e-01
C     6.223116469899999e+00   4.615285211228692e+00  -7.199247000000000e-01 -1.53706220e-01  -2.65926386e+00   1.54521864e+00
C     4.842616440200000e+00   4.688208958458626e+00   3.738518100000000e+00 -3.64635630e-01  -5.86406630e-01   3.50124500e-01
C     6.048089933700000e+00   5.397712350588158e+00   3.431919300000000e+00  1.05887046e+00   1.13577904e+00   1.00955279e+00
C     7.473046879300000e+00   3.828035409530332e+00  -7.387085999999989e-01 -1.85489636e+00   1.34527816e+00  -4.24543100e-01
C     8.630102054000000e+00   4.580567900149842e+00  -5.549820000000025e-01  3.84504343e+00  -1.91974478e+00   5.58149220e-01
C     7.318378630200000e+00   4.711760744823932e+00   3.636256200000000e+00 -7.86836830e-01  -1.67322098e+00   1.98845880e-01
C     8.592099395500000e+00   5.310365275366351e+00   3.746979000000000e+00 -4.21462900e-01   1.55336356e+00   3.75477640e-01
C     9.972041842199999e+00   3.864315359527022e+00  -3.618972000000014e-01 -2.34410419e+00   3.82976730e-01  -3.89539740e-01
C     1.121711393380000e+01   4.529653196261793e+00  -9.854460000000032e-02 -2.47226389e+00   2.74560093e+00  -2.80194720e-01
C     9.767275524699999e+00   4.591729155358145e+00   4.247724300000001e+00 -5.32923710e-01   2.30009244e+00  -1.11319102e+00
C     1.097692108000000e+01   5.315977198443912e+00   4.257132900000000e+00  2.09493300e-01   4.68962976e+00  -5.29860320e-01
C     3.826215989600000e+00   6.044757150561730e+00  -1.136651999999998e-01 -2.19668955e+00  -3.07137090e-01  -2.05900404e+00
C     4.998700585300000e+00   6.647649118266155e+00  -6.017667000000024e-01 -1.60287243e+00   4.49000834e+00   8.18945530e-01
C     1.349091630740000e+01   6.832874686505067e+00   3.926805000000000e+00  2.12140962e+00  -2.81026170e+00  -3.30142240e-01
C     4.874897488600000e+00   7.566107561807995e+00   3.633363900000000e+00 -1.10838434e+00  -2.31089133e+00   3.99806320e-01
C     6.182263433299999e+00   6.024168998563716e+00  -7.263417000000025e-01  3.93224322e+00  -1.26836056e+00  -7.07716770e-01
C     7.470277057400000e+00   6.764183299819545e+00  -8.374500000000005e-01 -4.32182400e-02  -2.77090750e+00   1.23595213e+00
C     6.098525362000000e+00   6.861041124913975e+00   3.417847800000000e+00 -2.87968570e-01  -1.92873545e+00   9.77777810e-01
C     7.374085165200000e+00   7.495463644986116e+00   3.585639000000000e+00 -1.76932437e+00  -1.42166180e-01  -1.25386902e+00
C     8.691674894600000e+00   5.966305674897568e+00  -5.196074999999993e-01 -1.59185938e+00   2.21396399e+00  -1.50251718e+00
C     9.913814943300000e+00   6.645997161298696e+00  -4.370022000000020e-01  1.87672247e+00   2.90976517e+00   4.65024320e-01
C     8.589662496500001e+00   6.762674542057835e+00   3.539926800000000e+00  3.86441430e-01  -1.13138141e+00   1.39958172e+00
C     9.770768577599998e+00   7.512342194661304e+00   3.705438300000000e+00  1.59040324e+00  -6.63913140e-01  -3.21692380e-01
C     1.121054539900000e+01   5.998799513037531e+00  -1.669766999999993e-01 -3.06587696e+00  -7.19496660e-01  -8.34934780e-01
C     1.236221445010000e+01   6.731397854471691e+00  -3.039638999999994e-01  3.75566839e+00   8.57766330e-01   3.37437790e-01
C     1.103088101460000e+01   6.852003948562573e+00   4.002472500000000e+00 -1.71801414e+00  -3.52423579e+00   3.55725730e-01
C     1.229065776790000e+01   7.477679362469316e+00   4.074918000000000e+00 -1.74300506e+00   2.40653098e+00  -1.01429184e+00
