64
Lattice="9.86 0 0 4.93 8.53901048131456 0 0 0 30 " PBC="1 1 1" Properties=species:S:1:pos:R:3:force:R:3 Energy="-515.23382328"
C     9.919563471199998e+00   3.954203985828096e-01  -2.294244000000027e-01 -1.04045392e+00  -9.23184200e-02  -2.30098400e-02
C     1.291793257900000e+00   1.079125903030375e+00  -9.431190000000100e-02 -1.09845458e+00   7.53665940e-01  -5.97041410e-01
C     1.201482461300000e+00   3.435377978568536e-01   3.377823900000000e+00 -8.16980810e-01   3.64184060e-01  -2.54778000e-02
C     2.431136963900000e+00   1.031562248415098e+00   3.452902800000000e+00 -3.10514430e-01   2.89258290e-01   2.61494580e-01
C     2.496054612300000e+00   3.808956271464344e-01  -1.845290999999989e-01  1.59317607e+00   1.63245700e-01  -1.00087920e-01
C     3.748040733100000e+00   1.102927028501698e+00  -1.992432000000015e-01 -1.58322606e+00   2.49641770e-01   1.05779700e+00
C     3.636287049400000e+00   3.207129374537088e-01   3.464091000000000e+00  1.40289495e+00  -4.33920140e-01   5.20400480e-01
C     4.871298440700000e+00   1.065236690144026e+00   3.467868900000000e+00  5.31049520e-01  -1.73801001e+00   1.30853500e-02
C     4.955076642199999e+00   3.700901071147280e-01  -1.387892999999991e-01  2.95087590e-01   2.13563171e+00  -8.48250010e-01
C     6.182560268600000e+00   1.085063333187434e+00  -2.316938999999998e-01  3.61821430e-01   3.34419350e-01   7.43055630e-01
C     6.107401827000000e+00   3.422652291250192e-01   3.479962500000000e+00  1.63926200e-01  -9.67792840e-01   7.16044620e-01
C     7.355831149999999e+00   1.038835009031019e+00   3.517473600000000e+00  2.96531350e-01  -1.31668804e+00  -7.02748190e-01
C     7.423277543300000e+00   3.977434363838936e-01  -2.440178999999993e-01  7.71873300e-02  -1.03716922e+00   3.50740990e-01
C     8.669352988500000e+00   1.086625032814121e+00  -2.510918999999987e-01 -2.50268000e-01   7.09058260e-01   2.75051820e-01
C     8.583995905200000e+00   3.048459189599824e-01   3.385066800000000e+00  7.13800650e-01   9.75184140e-01   1.19421501e+00
C     9.838045822599998e+00   1.084523838505307e+00   3.418657500000000e+00 -9.33265680e-01  -2.99911884e+00  -4.78269250e-01
C     1.111403014810000e+01   2.496269645982913e+00  -5.195700000001580e-03  8.02093620e-01   1.17481363e+00   1.98115610e-01
C     2.504365606300000e+00   3.236808157092109e+00   9.052710000000000e-02 -1.02854731e+00  -1.08069329e+00  -5.68541030e-01
C     2.433807643500000e+00   2.454023062413322e+00   3.612338100000000e+00  4.25857000e-03  -1.92204310e-01  -1.53011470e-01
C     3.646222034700000e+00   3.164189508706627e+00   3.697651500000000e+00  1.75010746e+00   5.26861870e-01  -1.40978722e+00
C     3.717170453500000e+00   2.538766593339777e+00  -5.149469999999923e-02  6.55142640e-01  -1.39971414e+00  -4.46030700e-02
C     4.952675781500000e+00   3.216843438249240e+00  -7.222080000000020e-02 -2.92504650e-01   2.06140250e+00  -2.11238680e-01
C     4.926513356100000e+00   2.465237344876706e+00   3.505338000000000e+00 -2.48901332e+00   1.21538680e-01   7.20129100e-01
C     6.134922812499999e+00   3.141010535538876e+00   3.507441000000000e+00  1.05998428e+00   1.47869930e+00   3.83344200e-01
C     6.152916671600000e+00   2.495951567842533e+00  -1.647311999999985e-01  2.03432850e+00   9.15493110e-01  -4.40960560e-01
C     7.442132722700000e+00   3.223363997431978e+00  -2.079866999999993e-01 -2.09118175e+00  -1.43190548e+00  -2.82880000e-03
C     7.392312361199999e+00   2.434639764794037e+00   3.555467100000000e+00 -1.10699930e+00   1.20704102e+00  -7.05577530e-01
C     8.606614400100000e+00   3.159920857367674e+00   3.530234700000000e+00 -1.46197890e-01   5.85697940e-01   2.39375140e-01
C     8.639344522199998e+00   2.513574719231576e+00  -1.968071999999985e-01  2.04437453e+00   1.94793320e-01   1.55954440e-01
C     9.907057688100000e+00   3.248879926987895e+00  -7.337910000000036e-02 -7.32410070e-01  -1.06426596e+00   3.33088500e-02
C     9.837405514199999e+00   2.463119584887562e+00   3.499242000000000e+00  8.47744000e-02   1.11402467e+00   2.45638780e-01
C     1.107316537810000e+01   3.165666074398828e+00   3.613370700000000e+00 -3.40806950e-01   7.49361280e-01   2.74439330e-01
C     1.235297395390000e+01   4.628353654427704e+00   1.213704000000000e-01  1.30323410e-01   2.19206865e+00  -2.92769650e-01
C     3.726061363399999e+00   5.412901115479458e+00   2.107470000000000e-02 -1.71249910e-01  -2.10259885e+00  -4.93295200e-02
C     3.676096651500000e+00   4.599075266074089e+00   3.649593900000000e+00 -7.69137280e-01  -7.72063290e-01   8.96812610e-01
C     4.916030401300000e+00   5.271756993382079e+00   3.555562800000000e+00 -1.41786715e+00   2.00446881e+00  -3.66797080e-01
C     4.948826043100000e+00   4.689865782662060e+00  -9.575219999999973e-02  1.61520732e+00  -5.92807500e-01  -2.78632200e-02
C     6.240540273100000e+00   5.396225025742751e+00  -2.552744999999987e-01 -1.96260569e+00  -1.75487060e+00   5.96170760e-01
C     6.099240606400000e+00   4.597238610309946e+00   3.512576400000000e+00  2.38835367e+00  -2.31165637e+00  -1.82930120e-01
C     7.340246483300000e+00   5.289703260927685e+00   3.480745800000000e+00  4.89347600e-02   9.70586740e-01   1.80339640e-01
C     7.458388806099999e+00   4.607889061911335e+00  -2.621196000000019e-01 -5.36112860e-01   2.79611321e+00   1.26340650e-01
C     8.668194685000000e+00   5.363356239652611e+00  -2.358507000000003e-01  8.42271770e-01   1.26564120e-01   5.09721320e-01
C     8.582637394399999e+00   4.593323303224656e+00   3.557547300000000e+00 -2.54109740e-01  -4.56004960e-01  -2.03093230e-01
C     9.801571365499999e+00   5.302486671956874e+00   3.621630300000000e+00  1.40983371e+00  -9.80453000e-03   2.10871160e-01
C     9.937119546300000e+00   4.683167441281128e+00  -3.710369999999941e-02 -3.47265213e+00  -1.66091736e+00  -7.90727790e-01
C     1.110478132020000e+01   5.350751635502873e+00   4.487730000000000e-02  3.25178563e+00   2.12589939e+00   3.68949350e-01
C     1.105758406380000e+01   4.595070726329283e+00   3.739680000000000e+00  1.58364740e-01   1.16872800e-02  -6.27819140e-01
C     1.231177019710000e+01   5.324117180964182e+00   3.762702600000000e+00 -8.26473720e-01  -9.91167020e-01  -4.01062560e-01
C     1.356583603840000e+01   6.807641910536667e+00  -7.854269999999985e-02  1.23742762e+00   5.71173350e-01  -7.83901800e-01
C     4.939319277600000e+00   7.531331758507357e+00  -2.959089000000006e-01  7.47188090e-01  -1.47657330e+00   1.30415362e+00
C     4.919690531900000e+00   6.707124350940614e+00   3.439957200000000e+00 -1.72921051e+00   4.04067840e-01   1.71601970e-01
C     6.094506278100000e+00   7.470684375864310e+00   3.330010800000000e+00  1.77744071e+00  -1.29521106e+00   7.25595770e-01
C     6.200125612099999e+00   6.808877078402599e+00  -2.585417999999997e-01 -4.82561790e-01  -1.62919320e-01  -5.65821640e-01
C     7.432680088600000e+00   7.500602763053400e+00  -2.754474000000009e-01 -2.86108280e-01   6.68418310e-01   1.67116660e-01
C     7.345136550299999e+00   6.729838289597623e+00   3.442456200000000e+00  2.26533090e-01  -2.05597760e-01   1.82362010e-01
C     8.603060313800000e+00   7.411982862929445e+00   3.574822200000000e+00 -1.01309243e+00   1.45384304e+00  -1.52754789e+00
C     8.650409611399999e+00   6.799070964157472e+00  -2.499158999999977e-01  1.22011841e+00  -3.37079700e-01   4.57569710e-01
C     9.896998318900000e+00   7.550426949913047e+00  -1.211246999999993e-01  3.10481400e-02  -3.84603498e+00  -1.34814270e-01
C     9.845893445900000e+00   6.731455578182535e+00   3.570558000000000e+00 -1.14099168e+00  -9.86878950e-01   7.51732330e-01
C     1.105743813580000e+01   7.425400380876878e+00   3.616978500000000e+00  4.78155940e-01   1.73603176e+00  -4.94761220e-01
C     1.116325442330000e+01   6.811459445951961e+00  -2.167049999999904e-02 -3.54968537e+00  -1.37403299e+00  -1.14146040e-01
C     1.233793597490000e+01   7.487366528298456e+00  -9.299340000000100e-02  1.50851773e+00   2.32955243e+00  -2.74430260e-01
C     1.229773108540000e+01   6.732856744412199e+00   3.695286900000000e+00 -2.68932240e-01   3.37487200e-02  -5.00830350e-01
C     1.351606458250000e+01   7.418563622136066e+00   3.512272800000000e+00  1.19283019e+00   5.50545320e-01  -3.79780990e-01
