52
Lattice="8.88768389401873 1.33226762955019e-15 0 4.44384194700937 7.69696003302603 0 0 0 30 " PBC="1 1 1" Properties=species:S:1:pos:R:3:force:R:3 Energy="-417.82709685"
C     1.292757371886041e+01   7.105711656818724e+00  -4.428641999999989e-01 -5.99958650e-01  -1.11813520e+00   2.22224220e-01
C     9.094883091198414e+00   6.978019936586628e+00  -3.998714999999997e-01  1.73284427e+00  -4.18778600e-01  -6.29066520e-01
C     1.052901131741136e+01   6.567753956101158e+00  -4.003644000000008e-01 -1.11462547e+00   5.07281460e-01  -3.82164700e-02
C     1.082583898349446e+01   5.168569620068437e+00  -3.837341999999992e-01  2.84861529e+00   1.12359404e+00  -3.68773420e-01
C     6.724211930381628e+00   6.325381533841277e+00  -3.913584000000014e-01  1.32385400e-01   6.19315710e-01  -8.86613680e-01
C     8.070091232586904e+00   5.954372666475217e+00  -4.729409999999987e-01  2.08530378e+00   1.26004575e+00   1.46086754e+00
C     8.468215742579753e+00   4.608309361907143e+00  -3.387680999999994e-01 -2.09924580e-01  -7.71532190e-01  -1.09713806e+00
C     9.836802499403722e+00   4.205274290521857e+00  -4.043306999999992e-01 -8.81118620e-01  -5.93154010e-01   5.82504360e-01
C     1.020947561565629e+01   2.836117181018971e+00  -4.144323000000014e-01 -2.28672492e+00  -2.12041975e+00  -8.52403700e-02
C     4.394135132443984e+00   5.714036782869673e+00  -4.238783999999995e-01 -1.36152361e+00   6.71566010e-01   2.52176960e-01
C     5.742557778699982e+00   5.328157619634454e+00  -3.774591000000029e-01 -7.01538850e-01   1.03017733e+00  -6.79555380e-01
C     6.080722195910226e+00   3.989774110875514e+00  -4.682114999999989e-01  2.28007950e-01  -1.90052890e-01   1.22046992e+00
C     7.446929319842960e+00   3.635836023281589e+00  -3.826043999999982e-01 -5.96229660e-01  -1.41351557e+00   3.09872000e-02
C     7.694744608836975e+00   2.233672655838858e+00  -3.673677000000026e-01  5.68338809e+00   4.98408930e-01  -5.66773700e-01
C     9.140501347308781e+00   1.780986958327251e+00  -4.373766000000003e-01 -3.58201240e-01   1.76166693e+00   6.83264300e-01
C     3.364591251483953e+00   4.744828032871244e+00  -4.167542999999974e-01 -1.73047447e+00   1.25203798e+00  -1.39890920e-01
C     3.701816596003794e+00   3.390149751850392e+00  -4.494855000000015e-01 -4.47592540e-01  -1.49415950e-01   6.75716410e-01
C     5.049086331924530e+00   3.033440219858466e+00  -3.950244000000005e-01  1.35284776e+00  -2.14063786e+00  -6.51255470e-01
C     5.410844305813451e+00   1.626317393190004e+00  -3.837678000000011e-01 -1.44450794e+00   5.66227580e-01  -2.53405760e-01
C     6.777316904839551e+00   1.234776269187117e+00  -4.199994000000018e-01 -1.80866180e+00  -1.21740215e+00   2.73955570e-01
C     1.160716842958444e+01   7.551425140056756e+00  -4.441136999999991e-01 -2.75572860e+00  -1.01402741e+00   3.09016880e-01
C     2.673803974097595e+00   2.415437059673711e+00  -4.123827000000020e-01 -1.09646370e+00  -4.90490000e-03  -2.88640010e-01
C     2.937147735522467e+00   1.036500962452710e+00  -4.266137999999984e-01  1.10152922e+00  -9.76445460e-01  -3.63725630e-01
C     4.340405125040742e+00   6.819780598357067e-01  -4.197360000000003e-01 -3.56694550e-01  -1.47438554e+00   2.78535950e-01
C     5.831951968584091e-01   3.642326946644489e-01  -4.249268999999991e-01  1.01032000e-02   3.14993353e+00  -5.44847630e-01
C     6.353991814879360e+00   7.689400306767334e+00  -4.927209000000019e-01  2.61385382e+00   1.14126808e+00   1.14744133e+00
C     4.149773818773427e-01   5.841131372942643e-01   3.863261100000000e+00  1.05258734e+00  -6.77205390e-01  -8.74780120e-01
C     7.277524957074858e+00   7.628301915018795e+00   3.804266100000000e+00  2.65209900e-02   1.25123319e+00  -1.76162610e-01
C     4.193549968882804e+00   3.369437386348863e-01   3.810051600000000e+00 -2.91279090e-01  -2.92525710e-01  -7.01969100e-02
C     9.623568878273588e+00   7.018796968403163e+00   3.859319100000000e+00  1.25930431e+00   2.93381211e+00  -9.75311100e-02
C     1.099691663457066e+01   7.429313100089608e+00   3.886911899999999e+00  7.94519420e-01   2.82614100e-01  -3.56347450e-01
C     1.206505097104900e+01   6.478382398044019e+00   3.849399600000000e+00  1.22329000e-03   1.48595861e+00   2.31920870e-01
C     4.551849839011877e+00   6.880644078885491e+00   3.858645600000000e+00 -2.30339340e-01   3.79878900e-01  -3.06372710e-01
C     5.590830528130962e+00   5.879293208649783e+00   3.791636700000000e+00 -1.33599121e+00   1.22618205e+00   6.42690980e-01
C     6.928356030110734e+00   6.267548808294266e+00   3.847628700000000e+00  5.46336840e-01  -6.98875000e-01  -8.31297750e-01
C     7.929701332965925e+00   5.252226185303300e+00   3.777813000000000e+00  5.76828390e-01   1.41949283e+00   7.10926980e-01
C     9.286314335982222e+00   5.710409051668334e+00   3.823281900000000e+00 -1.39863000e-02  -3.45984215e+00   2.12637600e-01
C     1.033636281342315e+01   4.727591152701661e+00   3.870006900000000e+00  5.71510100e-02   3.62540600e-01  -1.04450445e+00
C     1.172408902028744e+01   5.151040871174517e+00   3.817203900000000e+00 -7.70802100e-01  -2.92087746e+00   3.45208450e-01
C     3.866307272504547e+00   4.149010128459358e+00   3.797594700000000e+00 -4.71616510e-01  -1.03785072e+00   1.72230200e-02
C     5.233034726367171e+00   4.528667838902329e+00   3.799477500000000e+00 -1.32178410e-01  -1.49519116e+00  -2.18598360e-01
C     6.222572074584416e+00   3.492118616510230e+00   3.799600800000000e+00  7.10588410e-01   3.52300560e-01   2.20350250e-01
C     7.613061728982387e+00   3.887488901158442e+00   3.815176800000000e+00 -1.75200011e+00  -3.16231600e-02  -4.90582770e-01
C     8.610383666239573e+00   2.906274586844420e+00   3.784807800000000e+00  7.80033370e-01   1.73483908e+00   3.43082800e-02
C     9.973513385713952e+00   3.363563220393167e+00   3.760565700000000e+00  8.69203910e-01  -1.64234222e+00   7.16648020e-01
C     2.118551033446965e+00   2.352143033107013e+00   3.783518700000000e+00  1.73926158e+00  -6.99898300e-02  -5.53667860e-01
C     3.534478039025264e+00   2.740732603847196e+00   3.793242300000000e+00 -9.86299940e-01  -1.27506810e-01  -2.37776900e-01
C     4.563469638001565e+00   1.698254336174388e+00   3.771953400000000e+00 -2.45503767e+00   1.32664932e+00   4.22206150e-01
C     5.885634467045195e+00   2.098492409254374e+00   3.822330300000000e+00  9.95399150e-01   7.78465720e-01  -3.24950050e-01
C     6.899689069000861e+00   1.105668154370300e+00   3.838949700000000e+00  1.25421780e-01   8.68897730e-01   2.77568550e-01
C     8.250091625153585e+00   1.576539613283988e+00   3.829595700000000e+00  1.02620684e+00  -2.92015819e+00   8.19265100e-02
C     1.832413871665986e+00   9.395559036044532e-01   3.734849700000000e+00 -2.11213143e+00   9.70219990e-01   1.14601936e+00
