64
Lattice="9.86 0 0 4.93 8.53901048131456 0 0 0 30 " PBC="1 1 1" Properties=species:S:1:pos:R:3:force:R:3 Energy="-505.61909063"
C     1.181193983000000e-01   1.897550009579224e-01   1.639500000000000e-02  2.34762637e+00  -6.11269187e+00  -4.82558030e-01
C     1.387345482600000e+00   7.819549320799216e-01   2.245005000000000e-01  2.75243620e-01   1.70527620e+00  -1.23468499e+00
C     9.903665996000000e-01   5.339480824790113e-01   3.029136300000000e+00  2.49613570e+00   3.21166112e+00   2.99601636e+00
C     2.247230462400000e+00   1.207332399569296e+00   3.518700600000000e+00 -3.06927490e-01   3.05390071e+00  -3.05744317e+00
C     2.663699656700000e+00   1.606224589033064e-01  -2.659799999999990e-02 -9.49354190e-01  -1.77272761e+00  -6.66878870e-01
C     3.898599876500000e+00   9.355690835218728e-01  -1.909518000000006e-01 -1.23095001e+00  -3.37825754e+00   9.18256360e-01
C     3.525321031800000e+00   5.557382709822944e-01   3.383679300000000e+00 -1.49471979e+00   8.20413180e-01  -1.91571890e-01
C     4.740973348400000e+00   1.279133181531005e+00   3.231225600000000e+00  3.36047490e-01   8.14928150e-01   1.12410189e+00
C     5.111985477699999e+00   1.355971808895704e-01  -2.123829000000015e-01  3.66196880e-01   5.83513140e-01   1.76006629e+00
C     6.273608198800000e+00   8.317885972412016e-01   1.363782000000000e-01  3.19442985e+00   2.38947751e+00  -2.79525667e+00
C     6.004304434500000e+00   6.021033046964935e-01   3.118309500000000e+00 -2.81172500e-01   5.52592310e-01   1.72032075e+00
C     7.286968614199999e+00   1.281874887015923e+00   3.165856800000000e+00 -9.45851170e-01  -3.13829430e-01   7.87698040e-01
C     7.633833997900000e+00   1.651339597003096e-01  -3.517440000000249e-02 -7.41971562e+00  -3.61209927e+00   6.95250090e-01
C     8.766220931599999e+00   8.114635321560768e-01  -1.481744999999997e-01  2.66235001e+00   2.79311667e+00   1.12042658e+00
C     8.515959144400000e+00   4.997409772763408e-01   3.211208400000000e+00 -2.55848079e+00   2.30206248e+00  -1.40740852e+00
C     9.577828738499999e+00   1.348300276490367e+00   3.007124100000000e+00  6.26293729e+00  -1.30297010e+00   1.20369371e+00
C     1.311543774600000e+00   2.227016286675981e+00   3.722178000000000e-01  3.51137220e+00  -1.69880504e+00  -1.08951241e+00
C     2.553742267800000e+00   2.961824267852049e+00   2.614497000000000e-01  1.44650206e+00  -2.18231700e-02  -3.19057250e-01
C     2.293779473100000e+00   2.719168389168432e+00   3.497364600000000e+00  2.23828013e+00  -1.22776714e+00   2.49933080e-01
C     3.546326036300000e+00   3.478262853171506e+00   3.531247500000000e+00 -1.05567690e+00  -2.59971928e+00   1.19214403e+00
C     3.885691115199999e+00   2.318088932170211e+00  -2.246009999999998e-02 -2.72216936e+00   1.05585199e+00   6.71427380e-01
C     5.071470885600000e+00   3.079534014978221e+00  -4.833629999999900e-02  1.56612155e+00  -2.25806881e+00   1.57365696e+00
C     4.773980832299999e+00   2.681818757328911e+00   3.494922900000000e+00 -8.35717870e-01   1.51971957e+00  -6.55634670e-01
C     6.005998678299999e+00   3.401177619184145e+00   3.555656100000000e+00  1.70509972e+00  -2.63150161e+00  -1.51947591e+00
C     6.292412845700000e+00   2.325661924394609e+00   7.897110000000000e-02  3.77121550e-01  -1.34070518e+00  -1.25423814e+00
C     7.572663987600000e+00   3.022560712374403e+00  -3.527520000000095e-02 -1.46727059e+00  -2.77779207e+00   8.56756480e-01
C     7.297949449699999e+00   2.735248882924158e+00   3.313992900000000e+00 -8.89927840e-01  -1.42423437e+00   2.56963760e-01
C     8.495879698100000e+00   3.478929237549366e+00   3.289838400000000e+00  1.21782545e+00   6.58650330e-01  -1.00354728e+00
C     8.766602020599999e+00   2.195759409594150e+00  -3.059879999999993e-02 -1.01928118e+00   2.55767685e+00   4.87409250e-01
C     9.957546360400000e+00   2.835983333386403e+00   2.680710000000000e-01  1.02018660e-01   4.38834083e+00  -1.14084721e+00
C     9.791447906299998e+00   2.772309213088615e+00   3.159212700000000e+00 -3.91929465e+00   5.79053120e-01   5.95230180e-01
C     1.101858140410000e+01   3.519831610089194e+00   3.392028900000000e+00 -1.71370072e+00  -5.85048269e+00  -7.36065040e-01
C     2.593496259500000e+00   4.380076288974786e+00   3.009375000000000e-01  9.65173030e-01   1.07414570e+00  -1.71674370e-01
C     3.894018871200000e+00   5.124219543358115e+00   1.768848000000000e-01 -3.37681612e+00  -1.53337990e+00   1.05223460e-01
C     3.470874802000000e+00   4.902648274741818e+00   3.660667200000000e+00  3.86323018e+00  -9.23781820e-01  -4.91088960e-01
C     4.790414691500000e+00   5.490763143250184e+00   3.401185200000000e+00 -1.40811890e-01   2.01021008e+00  -7.39942090e-01
C     5.165544208899999e+00   4.473418091113972e+00   9.751710000000000e-02 -6.62398634e+00  -2.53007138e+00  -3.73747580e-01
C     6.286769326800000e+00   5.094074103880362e+00  -6.739770000000078e-02  6.33387443e+00   3.74979363e+00  -4.77373920e-01
C     6.032140447000000e+00   4.754701379165337e+00   3.433866300000000e+00 -1.31084263e+00   3.53862850e+00  -2.60630030e-01
C     7.236193213100000e+00   5.558362732055733e+00   3.287696100000000e+00 -1.90342355e+00   5.52445310e-01   5.43690130e-01
C     7.550875655400000e+00   4.404888177116628e+00   4.908000000000000e-04  1.54822831e+00   5.12341350e-01  -7.91334210e-01
C     8.889810855100000e+00   5.045987434873185e+00   1.035990000000000e-02 -6.29835896e+00   3.49254520e+00  -4.90595900e-01
C     8.451714835399999e+00   4.979984043296662e+00   3.242547600000000e+00  3.10668338e+00  -5.63478052e+00   1.55673647e+00
C     9.724699600999999e+00   5.538612086205599e+00   3.492140100000000e+00 -5.79770770e-01   3.18115435e+00  -1.45738900e-01
C     1.000558398460000e+01   4.344827680663871e+00   1.547037000000000e-01  2.55133520e+00  -2.05169780e+00   1.34309510e+00
C     1.119883517000000e+01   5.134269275572238e+00   3.103584000000000e-01  1.45636205e+00  -2.68773509e+00  -2.54946610e-01
C     1.099854765890000e+01   4.829514467854076e+00   3.558861900000000e+00 -2.27243809e+00   5.69722589e+00   1.20648750e+00
C     1.215379091070000e+01   5.633915726002565e+00   3.830858400000000e+00  2.49349890e-01   7.04146790e-01  -2.55577967e+00
C     1.359459627800000e+01   6.500907674799137e+00   7.158120000000000e-02  6.27633996e+00   1.88768700e-02  -7.47813040e-01
C     5.051982546300000e+00   7.164878159785746e+00  -5.889419999999745e-02 -9.01962680e-01   4.33076711e+00  -2.78028080e-01
C     4.839614858999999e+00   6.926945720139244e+00   2.990553900000000e+00  6.82602650e-01  -2.31107037e+00   3.44962674e+00
C     6.064707386099999e+00   7.706683327367824e+00   3.138015900000000e+00 -2.99965420e+00  -2.22103857e+00  -1.39686813e+00
C     6.302307109199999e+00   6.547780865027002e+00  -2.342618999999999e-01 -1.66586001e+00  -2.57380985e+00   1.73031945e+00
C     7.532216591399999e+00   7.156233350965899e+00  -1.887645000000013e-01  2.47037387e+00   4.88683098e+00   6.34271410e-01
C     7.241170294600000e+00   6.960704014951086e+00   3.323934600000000e+00 -1.51945701e+00   9.17870030e-01  -8.38017720e-01
C     8.408921301500000e+00   7.687954032561203e+00   3.350217600000000e+00  2.02341246e+00  -1.96974170e-01   1.10777112e+00
C     8.784165046999998e+00   6.522351350257142e+00  -5.315999999999832e-02  2.68012035e+00  -1.34051270e+00  -7.69771240e-01
C     1.011859092360000e+01   7.250061705922236e+00  -5.988299999999924e-02 -7.32736868e+00   8.63875490e-01  -2.84102340e-01
C     9.612736145800000e+00   7.024695530268416e+00   3.596155800000000e+00  4.11040836e+00  -1.53909970e+00  -1.58261124e+00
C     1.087849890510000e+01   7.787224298896442e+00   3.469116600000000e+00  2.32603757e+00  -2.15749723e+00  -2.65522090e-01
C     1.119471738750000e+01   6.526516764959392e+00   2.286645000000000e-01  4.62324036e+00   9.43678130e-01  -1.01997208e+00
C     1.250252934930000e+01   7.271525448054868e+00   3.452490000000000e-02 -3.92378574e+00   2.72270300e-01   1.17735467e+00
C     1.223299609350000e+01   7.081876245436793e+00   3.534041100000000e+00 -3.03325410e+00  -2.68962443e+00   9.87257700e-01
C     1.351895701350000e+01   7.597808382044680e+00   3.258944400000000e+00 -2.62951513e+00   2.96254373e+00  -5.81068040e-01
