52
Lattice="8.88768389401873 1.33226762955019e-15 0 4.44384194700937 7.69696003302603 0 0 0 30 " PBC="1 1 1" Properties=species:S:1:pos:R:3:force:R:3 Energy="-419.06585923"
C     1.291099885506354e+01   7.231469592812884e+00   4.641900000000000e-03  2.00378010e-01   3.74089500e-02  -1.42900260e-01
C     9.211552295331396e+00   6.992641466707617e+00   9.203580000000000e-02 -1.72851472e+00  -5.19032740e-01   3.02942730e-01
C     1.052687871767196e+01   6.583163731898820e+00   1.307223000000000e-01  1.65695407e+00   2.19525785e+00  -7.37697020e-01
C     1.086808965516996e+01   5.250842194920306e+00   9.676440000000000e-02 -1.20532800e-02  -1.94879693e+00  -4.92714000e-02
C     6.787395052926549e+00   6.435382253262020e+00   1.180200000000000e-03  4.37018000e-03  -1.28808671e+00   6.10838760e-01
C     8.184244333448717e+00   6.027632255071157e+00   1.480359000000000e-01 -1.67990322e+00  -1.22286836e+00  -7.48462790e-01
C     8.498002726258703e+00   4.605929000048265e+00   1.710474000000000e-01 -1.05996787e+00   9.06053080e-01  -4.82678160e-01
C     9.859040639908663e+00   4.225681548527797e+00   1.044210000000000e-01 -2.43263790e-01   3.60049300e-01   1.16195130e-01
C     1.018978268564899e+01   2.852102766396477e+00   3.372840000000001e-02  2.38354280e-01   4.31350330e-01   4.60200170e-01
C     4.339732775118185e+00   5.860064663102838e+00  -9.140399999999715e-03  1.13010459e+00  -1.00236326e+00  -3.57764500e-02
C     5.711641881478548e+00   5.430942977814275e+00  -5.939400000002593e-03  1.10081440e+00   2.30550105e+00  -1.02773610e-01
C     6.079826672951806e+00   4.098048325191928e+00   6.793200000000000e-03 -7.99389620e-01  -2.74825046e+00   1.64433020e-01
C     7.415460564178417e+00   3.635894597147418e+00   1.012749000000000e-01  1.84023399e+00   7.96192470e-01  -1.80405440e-01
C     7.797648079342959e+00   2.255143325842543e+00   6.350159999999999e-02 -9.33244060e-01   7.81352170e-01   3.36697000e-03
C     9.161271242489414e+00   1.885011834950303e+00   6.287039999999999e-02 -3.71643000e-03  -3.47829110e-01  -4.14113170e-01
C     3.333391748285640e+00   4.872323095774574e+00   1.395300000000000e-02  5.03994440e-01  -1.58519831e+00   8.19555400e-02
C     3.687077216632473e+00   3.436753998166439e+00  -2.478000000003533e-04 -1.62710810e-01   2.26445951e+00  -1.28021100e-02
C     5.048380605408625e+00   3.069431897685149e+00  -2.339039999999670e-02  3.32008730e-01  -8.25034420e-01   1.23810940e-01
C     5.368628829434726e+00   1.649603853034366e+00  -8.238299999998588e-03  2.38501188e+00   1.41982405e+00   9.71063600e-02
C     6.787491703126898e+00   1.260018295666301e+00   2.344680000000000e-02 -1.87525296e+00   1.37310884e+00  -1.38634200e-01
C     1.155528919678445e+01   7.614755034457194e+00   2.245500000000000e-02 -3.39804540e-01  -1.71131455e+00   4.87902040e-01
C     2.663257892872354e+00   2.477340707380589e+00   3.981960000000000e-02  7.77576110e-01  -1.69272361e+00  -3.97031840e-01
C     3.045544416817355e+00   1.068764771628063e+00   3.207690000000000e-02 -1.06871536e+00   8.28395750e-01  -2.30176860e-01
C     4.398373487843638e+00   6.435716917084124e-01   1.786500000000000e-02 -4.93045150e-01   1.53474438e+00   9.41810000e-02
C     5.984465958260472e-01   5.137688492792873e-01  -5.366100000003371e-03  1.58327681e+00  -4.35294400e-01   1.51697990e-01
C     2.010810839485577e+00   1.077191095590506e-01  -4.929000000000627e-03 -1.30756825e+00   1.18154480e-01   1.17465700e-02
C     4.132085105231184e-01   4.794082342525620e-01   3.311736900000000e+00 -1.12634727e+00  -2.47164480e-01   2.79716970e-01
C     7.230523685080589e+00   7.600981093574708e+00   3.283349700000000e+00  1.24895374e+00  -1.73144490e-01   4.20973160e-01
C     4.183510307835131e+00   3.211333360676630e-01   3.366864600000000e+00 -7.69541580e-01   4.96948000e-03  -4.55273640e-01
C     9.651855754245968e+00   7.045360024132296e+00   3.478879500000000e+00 -2.22999970e-01  -1.39387395e+00  -6.20156860e-01
C     1.103111817526747e+01   7.413510086604012e+00   3.446455200000000e+00 -1.01787223e+00   3.75487800e-01  -1.07458210e-01
C     1.201201349519245e+01   6.400065906708369e+00   3.380943300000000e+00 -8.83339000e-02  -4.56123370e-01   6.05768750e-01
C     4.467677562199686e+00   6.781962508884866e+00   3.326000100000000e+00  1.88518841e+00   6.95973220e-01  -7.22193300e-02
C     5.509970468925482e+00   5.800631200778388e+00   3.313288500000000e+00  6.03167120e-01   6.44253980e-01   1.62364660e-01
C     6.904354706412835e+00   6.209519810266489e+00   3.332691600000000e+00 -8.82300420e-01   6.41091650e-01  -3.04717820e-01
C     7.949827893085520e+00   5.259791758225589e+00   3.339074100000000e+00 -7.54810040e-01  -1.43136831e+00   6.39068100e-01
C     9.300328569193233e+00   5.614966362448333e+00   3.427106700000000e+00  9.75161660e-01   1.70830856e+00   1.74297230e-01
C     1.033181916272551e+01   4.631302644543963e+00   3.438308400000000e+00 -1.16153574e+00  -9.59527250e-01  -1.23613810e-01
C     1.167339220481064e+01   4.996481988322501e+00   3.443298600000000e+00  7.41704870e-01   1.24445294e+00  -6.08362000e-01
C     3.806462452894388e+00   4.021826407589242e+00   3.348559500000000e+00  1.17714600e-01   6.84408200e-02   9.43579000e-02
C     5.170231818944657e+00   4.427277092910344e+00   3.332488500000000e+00 -6.67415600e-02   3.61363280e-01   2.89296920e-01
C     6.199701130987798e+00   3.473701330550446e+00   3.396037500000000e+00  1.55541292e+00  -4.51920380e-01  -6.35235180e-01
C     7.599873250405452e+00   3.865710891540759e+00   3.382448400000000e+00 -5.50611350e-01  -2.90308620e-01  -1.24928800e-02
C     8.624369370017073e+00   2.859749619216682e+00   3.372307200000000e+00 -2.19110990e-01   2.67691510e-01   2.88064530e-01
C     9.997012688460083e+00   3.225717439580694e+00   3.363571200000000e+00 -2.77251300e-01   1.08525206e+00  -2.17266200e-01
C     2.123382689409615e+00   2.246093317208869e+00   3.239501400000000e+00 -2.16627250e-01   2.73265580e-01   7.99396010e-01
C     3.487585018969229e+00   2.634060896609028e+00   3.285921900000000e+00 -8.15199980e-01   1.78759259e+00  -2.16281570e-01
C     4.524901089398124e+00   1.731211025691642e+00   3.269810400000000e+00 -2.47998760e-01  -3.11487420e+00   6.95514080e-01
C     5.867570516163741e+00   2.089956942398705e+00   3.344350800000000e+00  1.51857896e+00   4.36850970e-01   4.26395320e-01
C     6.919476919487160e+00   1.112851034439896e+00   3.409201800000000e+00 -6.22091380e-01  -7.39596520e-01   4.35688100e-02
C     8.281053827210654e+00   1.477706028322770e+00   3.408777300000000e+00  1.55119180e-01   2.08283620e-01  -5.91757980e-01
C     1.764033987069156e+00   8.816355096827001e-01   3.249645300000000e+00  2.43237930e-01  -5.33024280e-01   1.66914200e-02
