64
Lattice="9.86 0 0 4.93 8.53901048131456 0 0 0 30 " PBC="1 1 1" Properties=species:S:1:pos:R:3:force:R:3 Energy="-515.53758726"
C     9.845421990000000e+00   6.866730667596800e-02  -1.553147999999993e-01 -1.95909683e+00  -1.80447681e+00   1.98281010e-01
C     1.185151540500000e+00   7.520129772219064e-01  -1.813565999999973e-01  1.62503373e+00  -6.65009860e-01   7.00283000e-02
C     1.296801743500000e+00   6.938698301823288e-01   3.583184400000000e+00 -2.27922737e+00  -1.38471570e+00   7.81346930e-01
C     2.481070419600000e+00   1.408502264346778e+00   3.558709500000000e+00  1.07793180e+00   4.36170590e-01  -3.15566210e-01
C     2.419315957800000e+00   6.632078659606399e-03  -9.515009999999791e-02  9.47704270e-01   1.32082185e+00  -4.37538500e-02
C     3.682856716800000e+00   7.287773904146736e-01  -1.127844000000024e-01 -6.86314970e-01  -8.50884100e-02  -5.61364490e-01
C     3.711562775700000e+00   7.245428097275368e-01   3.550413600000000e+00  5.05321400e-01  -1.50896128e+00   1.31534840e-01
C     4.952680514299999e+00   1.418275247231242e+00   3.581948700000000e+00  7.58201700e-02  -7.72754100e-01  -3.27474170e-01
C     4.912331964600000e+00   2.388122138962560e-02  -1.104330000000004e-01 -2.66587370e-01   4.47115490e-01   5.14713330e-01
C     6.140848869700000e+00   7.367547901754040e-01  -1.000928999999999e-01 -2.09887730e-01   3.94893520e-01  -9.44083800e-02
C     6.178804841100000e+00   6.774257453603640e-01   3.542988000000000e+00  7.13929640e-01  -7.18263100e-02   6.58764760e-01
C     7.403081354599999e+00   1.399337515178803e+00   3.663170700000000e+00  7.16281610e-01   1.21942850e-01  -3.64888370e-01
C     7.353660816100000e+00   8.637123710415201e-03  -1.036697999999987e-01  8.00798940e-01   3.60609320e-01  -8.90382180e-01
C     8.571559388599999e+00   7.360162511589888e-01  -2.146845000000006e-01  8.04718770e-01  -1.28733810e-01   6.35294760e-01
C     8.673492610900000e+00   7.046025124546409e-01   3.682519800000000e+00 -9.24771040e-01  -1.14719571e+00  -3.75950610e-01
C     9.916317559199999e+00   1.386318769020785e+00   3.621523200000000e+00 -6.40556970e-01   1.50011623e+00   5.01445570e-01
C     1.106487228000000e+01   2.155567141165838e+00  -2.719266000000005e-01  3.65695490e-01   6.64854400e-02   3.60448560e-01
C     2.439849605000000e+00   2.842044493805317e+00  -3.033234000000000e-01  7.24019960e-01   1.40916740e+00  -3.42739740e-01
C     2.483150485200000e+00   2.821158415731656e+00   3.481782300000000e+00 -2.03562140e-01   7.18985290e-01  -2.01009320e-01
C     3.720261711400000e+00   3.534503423286035e+00   3.405171900000000e+00  4.53664450e-01  -2.57692600e-01   1.06086136e+00
C     3.711787041400000e+00   2.152174592302134e+00  -2.726729999999975e-01 -2.35769780e+00  -3.25058130e-01   7.76973740e-01
C     4.884474013599999e+00   2.896934790192643e+00  -2.088821999999979e-01  1.98203649e+00  -1.24150454e+00   3.04657000e-01
C     4.950133972100000e+00   2.827522113291876e+00   3.590518200000000e+00  5.20062760e-01   3.09332490e-01  -5.83291840e-01
C     6.201468149699999e+00   3.536388580629704e+00   3.650115600000000e+00 -1.72108286e+00   3.14593630e-01  -5.61088300e-02
C     6.156085281199999e+00   2.177492758375335e+00  -1.088661000000002e-01 -2.28403097e+00  -1.25773259e+00  -3.09929710e-01
C     7.356505081000000e+00   2.840755103222837e+00  -1.040063999999994e-01  9.59413250e-01   1.66219049e+00  -2.89329470e-01
C     7.399764204099999e+00   2.828567800515257e+00   3.670966500000000e+00  1.45994669e+00  -3.09722940e-01  -2.23123080e-01
C     8.666408151599999e+00   3.538830993797299e+00   3.598803600000000e+00 -1.23711440e+00  -2.88476700e-02   6.94992730e-01
C     8.571695357999999e+00   2.143884237807312e+00  -2.297055000000015e-01  1.24777501e+00   1.38485130e-01   9.81362980e-01
C     9.843751459500000e+00   2.851314016631881e+00  -1.926144000000001e-01 -1.33574315e+00  -1.88236800e-01  -1.02402963e+00
C     9.880244699900000e+00   2.852236400543930e+00   3.648706200000000e+00  9.05645910e-01  -1.89832857e+00  -9.80999850e-01
C     1.110901293640000e+01   3.538731428935102e+00   3.511473900000000e+00  4.02427430e-01   1.23187085e+00  -2.06051810e-01
C     1.228811265540000e+01   4.302786887246848e+00  -3.536652000000018e-01  3.26525940e-01  -8.93727840e-01   3.32098890e-01
C     3.669555280999999e+00   5.016759853631926e+00  -2.497632000000003e-01 -5.26176000e-03  -2.17649670e-01  -2.73835390e-01
C     3.758722465500000e+00   4.948147111232926e+00   3.422525400000000e+00 -4.67380310e-01   6.71623500e-01   2.86112680e-01
C     4.986369570700000e+00   5.697404293602621e+00   3.571733700000000e+00 -1.88034974e+00  -2.37653678e+00  -3.59778400e-02
C     4.887088934900000e+00   4.290759434815453e+00  -1.935089999999988e-01  8.98835590e-01   1.03424674e+00  -4.24286910e-01
C     6.164734867600000e+00   4.989639956347446e+00  -1.821870000000025e-01 -1.81638529e+00   7.32632430e-01   1.18588432e+00
C     6.172722453600000e+00   4.965019768990882e+00   3.667250700000000e+00  5.88680410e-01  -6.98040080e-01  -6.24566240e-01
C     7.383796229900000e+00   5.655141485913119e+00   3.615772200000000e+00  1.99490049e+00  -4.33682120e-01   5.48285050e-01
C     7.370055432499999e+00   4.279983374369903e+00  -6.252419999999859e-02 -6.22663860e-01  -9.85471900e-01  -5.58243320e-01
C     8.584938718400000e+00   4.945709309130990e+00  -6.817080000000075e-02  1.31641550e+00   2.38798639e+00  -3.38897490e-01
C     8.657854010000001e+00   4.949065140249630e+00   3.581111100000000e+00 -7.44733980e-01   1.16742130e+00  -3.57927990e-01
C     9.860511635400000e+00   5.720612043235690e+00   3.481707900000000e+00  1.25077629e+00  -2.47277552e+00   4.26474780e-01
C     9.809574283799998e+00   4.255436195552942e+00  -2.366202000000008e-01  1.20000338e+00   9.52621200e-01   4.16292510e-01
C     1.105357326230000e+01   5.004238504834369e+00  -3.488262000000013e-01 -4.92142710e-01   2.23092580e-01   8.32073780e-01
C     1.113172362230000e+01   4.992203452683647e+00   3.414255000000000e+00 -9.30097820e-01  -1.08630372e+00   4.48935750e-01
C     1.238241650550000e+01   5.657133807838314e+00   3.416922300000000e+00 -4.92970280e-01   1.92289380e-01  -3.22599580e-01
C     1.356082370740000e+01   6.439546174709649e+00  -2.063966999999991e-01 -6.75183510e-01  -3.07429160e-01   2.57726480e-01
C     4.894942474199999e+00   7.163451547304852e+00  -5.998530000000102e-02  1.55140710e+00  -2.03149700e-02  -1.06935296e+00
C     4.925987768800000e+00   7.071732498717286e+00   3.648336600000000e+00  4.78504170e-01   2.03520703e+00   1.30328890e-01
C     6.152181805800000e+00   7.789422325584099e+00   3.696024000000000e+00  1.54711418e+00   3.71153970e-01  -6.62096640e-01
C     6.136867796100000e+00   6.425721602132633e+00  -9.530760000000171e-02 -1.92262800e-02  -6.92866900e-02   2.23997390e-01
C     7.374772209999999e+00   7.134983852606209e+00  -3.666390000000064e-02  2.63372130e-01  -6.40071190e-01  -1.02223180e-01
C     7.390527011000000e+00   7.050657537731808e+00   3.657563400000000e+00  8.91534580e-01   2.45943130e+00  -4.92419610e-01
C     8.660060086400000e+00   7.824166876106381e+00   3.561624300000000e+00 -1.12574127e+00  -4.68421430e-01   5.78875650e-01
C     8.626664710100000e+00   6.406791982140149e+00  -3.350939999999980e-02 -6.75422210e-01   2.64635700e-02  -2.08798650e-01
C     9.853281346699999e+00   7.157797953856150e+00  -7.997549999999976e-02 -2.85788460e-01  -1.42240967e+00  -4.35002380e-01
C     9.897119399699999e+00   7.105649704514160e+00   3.563476500000000e+00 -5.74982730e-01   9.47887870e-01  -1.00879299e+00
C     1.115909971510000e+01   7.771719846787697e+00   3.484934100000000e+00 -2.55179607e+00   1.91369414e+00   3.27347820e-01
C     1.108187511050000e+01   6.447044023641822e+00  -2.281187999999972e-01  1.18478700e-02  -1.08863781e+00  -6.13873100e-02
C     1.233522112250000e+01   7.131395333451990e+00  -2.222138999999999e-01 -1.46835538e+00   3.30949160e-01   5.40520230e-01
C     1.234439565530000e+01   7.080808015225745e+00   3.459105000000000e+00  1.79050267e+00  -2.82936340e-01   6.14418000e-01
C     1.356000690500000e+01   7.794350871652945e+00   3.638583600000000e+00  4.87759330e-01   7.39664720e-01  -6.66086280e-01
