64
Lattice="9.86 0 0 4.93 8.53901048131456 0 0 0 30 " PBC="1 1 1" Properties=species:S:1:pos:R:3:force:R:3 Energy="-514.9598367"
C     5.097084552700000e+00   6.648918015223484e+00  -2.714727000000003e-01  8.75866000e-03   1.17252079e+00  -6.95865560e-01
C     6.316074972300000e+00   7.380016650247041e+00  -4.495541999999979e-01  2.58652490e-01   3.11252590e-01   8.65335450e-01
C     9.694602690500000e+00   1.835755496268294e+00   3.810989400000000e+00 -2.60129300e-01   5.93872350e-01  -2.44006390e-01
C     1.090779449340000e+01   2.569835014460314e+00   3.885157800000000e+00 -9.03634070e-01  -1.31720210e-01   1.90652870e-01
C     7.566856743399999e+00   6.693080325794263e+00  -5.029070999999981e-01 -7.77381840e-01  -1.74432830e+00  -1.74685060e-01
C     8.783047909000000e+00   7.361613460250649e+00  -4.455777000000012e-01  1.39073584e+00   1.57489500e+00   3.50528000e-01
C     2.241941706300000e+00   1.853080806971795e+00   3.994497300000000e+00  1.96371434e+00   1.24981913e+00  -6.91526410e-01
C     3.504755783299999e+00   2.581927021810936e+00   3.916353900000000e+00  4.82393740e-01  -2.10178036e+00   1.12636750e-01
C     1.002179476130000e+01   6.682337994440108e+00  -2.697918000000001e-01  1.22573325e+00   8.51271000e-01  -2.58051300e-02
C     1.129810589650000e+01   7.405399712799889e+00  -1.702821000000014e-01 -7.79412250e-01  -4.27619720e-01  -1.28942130e-01
C     4.736458306499999e+00   1.847522935830572e+00   3.811553700000000e+00  3.02195760e-01   6.96880880e-01  -4.72986160e-01
C     5.960170187099999e+00   2.588882045846897e+00   3.658612200000000e+00  3.92403670e-01   6.25847460e-01  -1.16884200e-02
C     1.252141248180000e+01   6.654746999947446e+00  -8.353439999999779e-02 -1.68003590e+00  -2.95366710e-01  -5.53295550e-01
C     1.369303117230000e+01   7.389198818996395e+00  -1.880433000000004e-01  2.77300339e+00  -5.50203990e-01   2.60940700e-02
C     7.224717652099999e+00   1.898410656445503e+00   3.623040900000000e+00 -7.32215090e-01  -6.74231630e-01   2.62037340e-01
C     8.495241312399999e+00   2.564503939437440e+00   3.638509800000000e+00 -1.79543672e+00  -1.04054330e-01  -1.04872890e-01
C     1.425202459600000e+00   2.703771784762048e-01  -3.580998000000015e-01 -4.95211020e-01   2.59045380e-01  -9.01762450e-01
C     2.668206317600000e+00   9.745304535894928e-01  -4.607337000000022e-01 -5.90563610e-01   5.13264500e-01   9.62596730e-01
C     1.088041667510000e+01   3.986783299462964e+00   3.820903500000000e+00  5.93641390e-01   5.14697300e-01   1.67326790e-01
C     1.213707199890000e+01   4.686641964645441e+00   3.897667200000000e+00  1.65840120e-01   6.84339530e-01  -4.50162500e-01
C     3.906651453900000e+00   2.645044740185848e-01  -4.538820000000001e-01 -1.47367127e+00  -1.01745675e+00  -4.74772900e-02
C     5.105502231900000e+00   9.487304311549064e-01  -4.147968000000013e-01  2.25491819e+00   1.63607578e+00  -2.25039100e-02
C     3.567638426300000e+00   3.961244826919380e+00   3.894374400000000e+00 -2.92725241e+00   2.30371726e+00  -2.49474400e-02
C     4.737485176200000e+00   4.739606287219003e+00   3.776449800000000e+00  4.93673690e-01  -9.91986440e-01  -3.27212330e-01
C     6.396864410599999e+00   2.998739947178976e-01  -2.902569000000028e-01 -1.61205079e+00  -1.21056091e+00   5.82661300e-02
C     7.610783832200000e+00   1.025083615773817e+00  -3.083361000000018e-01 -8.01284830e-01  -1.32669922e+00  -3.16759390e-01
C     5.955349534500000e+00   4.037384621666396e+00   3.601877700000000e+00  1.02382858e+00  -6.19369880e-01   4.79933190e-01
C     7.229739202200000e+00   4.733471862090171e+00   3.525662400000000e+00 -1.15862312e+00  -1.36340199e+00  -2.66258940e-01
C     8.813540451999998e+00   2.645534025486352e-01  -2.810109000000018e-01  5.09210740e-01   1.44021330e+00   1.42635390e-01
C     1.005577518070000e+01   1.021045773888140e+00  -3.412152000000006e-01  1.68028000e-02  -2.09623118e+00   6.34448250e-01
C     8.443909215700000e+00   3.980764321755822e+00   3.537320100000000e+00 -2.56885710e-01   4.21407910e-01   5.46759560e-01
C     9.628542859700000e+00   4.699604865674919e+00   3.673118100000000e+00  2.68459975e+00   7.21680910e-01  -5.24724270e-01
C     2.633234278000000e+00   2.398004848131693e+00  -3.214226999999994e-01  1.04593644e+00   4.89655430e-01  -4.62729250e-01
C     3.923752588600000e+00   3.124204994403293e+00  -3.736920000000019e-01 -2.67346202e+00  -1.65873166e+00  -1.70295930e-01
C     1.213187508870000e+01   6.144060462867527e+00   3.824392500000000e+00  1.13262160e+00  -1.50945710e+00  -4.04454400e-02
C     1.339434091050000e+01   6.837692652388197e+00   3.818575200000000e+00 -2.73461904e+00   1.72268448e+00   1.77696200e-02
C     5.123401582900000e+00   2.394235643515716e+00  -4.849050000000013e-01 -1.13553230e-01  -2.77752070e-01   3.91702430e-01
C     6.341276935100000e+00   3.126010909729708e+00  -5.340230999999989e-01 -4.75308500e-02  -7.20953640e-01   1.70291600e-02
C     4.715416820000000e+00   6.152573600145772e+00   3.786951900000000e+00  2.37406545e+00  -9.67731840e-01   1.74762720e-01
C     5.991743040999999e+00   6.815107567399331e+00   3.782824500000000e+00 -4.11225970e-01   5.64186100e-01  -1.10218371e+00
C     7.556867823900000e+00   2.416407013446826e+00  -4.720526999999990e-01  1.85577251e+00   5.60089110e-01   1.72159200e-01
C     8.816166958800000e+00   3.109334819993002e+00  -4.360850999999997e-01 -7.58633110e-01   1.00796413e+00   3.98926890e-01
C     7.229296981199999e+00   6.139916737251898e+00   3.551412300000000e+00  2.71887510e-01   2.51583900e-01   1.03333514e+00
C     8.470804534899999e+00   6.860536725564923e+00   3.605421300000000e+00 -3.88566010e-01   1.83059090e-01  -1.26915020e-01
C     1.005596986640000e+01   2.432164817996514e+00  -2.822706000000004e-01 -2.11291429e+00  -1.23240660e+00  -7.92583290e-01
C     1.123507318430000e+01   3.123784448137153e+00  -2.500709999999984e-01  2.95292845e+00  -7.02801300e-02   1.10390270e-01
C     9.710003911899999e+00   6.137892906378033e+00   3.593949900000000e+00 -1.37127434e+00  -2.05391870e-01   6.60089210e-01
C     1.092583898360000e+01   6.857033938075921e+00   3.719618700000000e+00 -2.47526730e-01  -2.20301560e-01   5.49385000e-02
C     3.862235555600000e+00   4.514125347264333e+00  -3.159801000000009e-01  2.30492450e+00   9.55811480e-01   5.11983480e-01
C     5.139676597499999e+00   5.241349577062800e+00  -3.575195999999998e-01 -1.75677716e+00  -2.19466660e-01  -2.62273810e-01
C     1.334627858700000e+01   8.280809588907855e+00   3.779312400000000e+00 -5.30734000e-02  -3.33770780e-01   5.72382100e-02
C     9.658821835099999e+00   4.207702443848904e-01   3.848090400000000e+00  5.76604580e-01  -4.24068570e-01  -4.06122630e-01
C     6.353107456100000e+00   4.536528209769556e+00  -5.497428000000006e-01 -8.84076400e-02   3.07501410e-01   4.27578370e-01
C     7.589966759299999e+00   5.238620338533181e+00  -5.559989999999999e-01 -7.26964100e-01   1.16856835e+00   3.95343920e-01
C     5.975541088999999e+00   8.221917570649182e+00   3.820036500000000e+00  3.78085890e-01   1.76800817e+00   7.63429070e-01
C     2.282153300600000e+00   4.658387147478064e-01   3.899933400000000e+00 -3.91007150e-01  -2.40292676e+00  -5.80857500e-01
C     8.798375229700000e+00   4.541324230395754e+00  -4.461192000000018e-01  1.62810529e+00   1.05581680e-01   2.85602990e-01
C     1.004981895190000e+01   5.287665511466739e+00  -2.471391000000018e-01 -8.69014090e-01  -1.94661263e+00  -4.64487270e-01
C     8.465264003700000e+00   8.290502134313599e+00   3.756089700000000e+00 -1.55362436e+00  -9.77202980e-01  -1.24864000e-02
C     4.751005109599999e+00   4.199621978231680e-01   3.737914500000000e+00 -7.45525000e-02   1.62569431e+00   5.62388720e-01
C     1.126587503550000e+01   4.526404529724678e+00  -1.784232000000010e-01 -1.00264340e-01   1.10992962e+00   3.72959000e-02
C     1.251710691560000e+01   5.201537550771162e+00  -1.421105999999988e-01 -6.48801420e-01   1.42825128e+00  -8.71230000e-02
C     1.090458540850000e+01   8.285230320023457e+00   3.744256800000000e+00 -2.35880220e-01  -8.69270820e-01  -6.34744560e-01
C     7.159354726100000e+00   4.720087475503400e-01   3.702182700000000e+00  2.59343165e+00  -1.10985270e-01   2.92005780e-01
