64
Lattice="9.86 0 0 4.93 8.53901048131456 0 0 0 30 " PBC="1 1 1" Properties=species:S:1:pos:R:3:force:R:3 Energy="-514.30698662"
C     9.848243478299999e+00   6.208542885897352e-01   1.105845000000000e-01 -1.67420825e+00   1.06878553e+00  -3.61687330e-01
C     1.198392090800000e+00   1.395743274887562e+00  -5.320860000000138e-02 -9.34233800e-02  -2.39908155e+00   7.61927820e-01
C     1.280714068900000e+00   5.872405592253200e-02   3.811302600000000e+00  4.62084070e-01   1.01099558e+00  -2.73351570e-01
C     2.503188864600000e+00   8.064183432040736e-01   3.670816500000000e+00 -5.57433200e-01  -6.94926170e-01  -2.16164130e-01
C     2.413314964600000e+00   6.457713773406896e-01  -2.674170000000231e-02  2.16183470e-01  -9.83926770e-01  -1.00274410e-01
C     3.621638589700000e+00   1.334004777485380e+00  -1.352462999999986e-01  9.46419120e-01   5.51012520e-01   6.84198100e-02
C     3.708281367700000e+00   9.918171679656240e-02   3.723105000000000e+00  2.10215230e+00  -3.36578530e-01  -7.43398090e-01
C     4.984209688400000e+00   7.853915422377024e-01   3.609308700000000e+00 -8.68501370e-01  -7.23451220e-01   2.74599080e-01
C     4.866898465000000e+00   6.097671519923984e-01  -1.898960999999986e-01 -3.95470320e-01   2.37664909e+00   6.11428900e-01
C     6.080016268600001e+00   1.383312695771406e+00  -6.918479999999860e-02  1.10500176e+00  -2.46222369e+00  -6.16592380e-01
C     6.206893121699999e+00   4.595840603514161e-02   3.607734600000000e+00 -4.27762220e-01   8.95724660e-01   4.98557700e-02
C     7.412641955700000e+00   8.054424196963145e-01   3.611782200000000e+00  1.04274170e+00  -8.04270700e-01   3.62492370e-01
C     7.307542243699999e+00   6.311933224789191e-01  -3.389040000000065e-02  1.16347171e+00  -7.58371880e-01   4.52587860e-01
C     8.547279187899999e+00   1.328114226495857e+00   1.277619000000000e-01  1.62451157e+00   5.87881800e-01  -8.30965780e-01
C     8.655977208300000e+00   9.860874919335441e-02   3.694823100000000e+00  4.53577160e-01  -3.16884190e-01  -3.72371950e-01
C     9.949534962500000e+00   7.678051939838280e-01   3.718209900000000e+00 -2.82357300e+00   1.50133821e+00  -8.00990440e-01
C     1.109815752010000e+01   2.779678379132855e+00  -2.328590999999989e-01 -1.30122576e+00   1.18417025e+00  -2.87087450e-01
C     2.450778182500000e+00   3.505488634185938e+00  -3.640331999999979e-01 -4.53606370e-01  -3.95504900e-02   2.57996290e-01
C     2.503069065600000e+00   2.183004518859965e+00   3.341535300000000e+00 -6.23726430e-01   8.76618560e-01   6.79074460e-01
C     3.724557516200000e+00   2.910030045884561e+00   3.330346500000000e+00  1.30207976e+00  -2.79863740e-01   3.95257800e-01
C     3.631502090000000e+00   2.777183707221123e+00  -1.798995000000012e-01  1.55667325e+00  -7.42620290e-01  -1.05633225e+00
C     4.884175797899999e+00   3.454396148099697e+00  -2.393976000000002e-01  4.75973790e-01   1.43567647e+00   6.85614880e-01
C     4.981863550700000e+00   2.184307998809737e+00   3.531184500000000e+00  2.45679100e-02   1.85436874e+00  -3.75397860e-01
C     6.233873927100000e+00   2.933886077193271e+00   3.579654600000000e+00 -1.84246938e+00  -3.62494350e-01  -5.03119490e-01
C     6.157510593500000e+00   2.784699488075304e+00  -1.016675999999990e-01 -2.89852354e+00  -3.92508790e-01   1.16256390e-01
C     7.345444675300000e+00   3.490627511126756e+00  -3.405090000000044e-02  1.93761456e+00  -7.03858910e-01   2.59577930e-01
C     7.450491636300000e+00   2.218670172442724e+00   3.617918400000000e+00 -8.77791820e-01   4.76981770e-01   1.82562200e-02
C     8.662751176199999e+00   2.947463872367414e+00   3.564006000000000e+00  1.18965964e+00  -2.10626609e+00  -8.20452630e-01
C     8.603901223899999e+00   2.778434416086129e+00   4.555650000000000e-02  2.66656120e-01  -1.55302920e-01  -1.15043597e+00
C     9.861987430899999e+00   3.496230468243313e+00  -2.518649999999987e-01 -1.52124301e+00  -6.55390010e-01   1.24876273e+00
C     9.889381961900000e+00   2.209462728222349e+00   3.448777500000000e+00  4.84085470e-01  -9.82189820e-01   1.21851438e+00
C     1.110890003940000e+01   2.899009428178864e+00   3.287564100000000e+00  3.34104730e-01   7.12640140e-01  -4.82523400e-01
C     1.230566315960000e+01   4.928674495564019e+00  -5.068856999999980e-01 -1.01304946e+00  -3.52014660e-01   7.77033990e-01
C     3.647909376500000e+00   5.643476856037020e+00  -3.524657999999974e-01  1.02283100e+00  -1.53168258e+00   3.17926290e-01
C     3.738031502000000e+00   4.346381609791020e+00   3.285082500000000e+00  7.60814530e-01  -1.72063500e-02  -2.81078950e-01
C     4.972083860400000e+00   5.082728320655585e+00   3.510698700000000e+00 -5.25985590e-01  -9.11359100e-02  -2.12844950e-01
C     4.877579359299999e+00   4.901965410073732e+00  -2.280480000000011e-01  7.11817000e-02  -2.18184820e-01   1.70637180e-01
C     6.102884270800000e+00   5.604206886130653e+00  -2.607899999999930e-02  1.01462894e+00   4.93635070e-01  -3.41870470e-01
C     6.188805395399999e+00   4.364004248839435e+00   3.545419500000000e+00  1.55314716e+00  -2.85776470e-01   1.28010781e+00
C     7.468969177699999e+00   5.038087483937508e+00   3.732980100000000e+00 -1.30180454e+00   1.08428865e+00  -1.12454221e+00
C     7.349952568699999e+00   4.884739493452218e+00  -4.185449999999946e-02 -4.65532610e-01   7.69772840e-01  -3.84747490e-01
C     8.588981663500000e+00   5.563790981017870e+00  -1.891776000000007e-01 -5.86972330e-01   1.91031589e+00   4.57536850e-01
C     8.697415386599999e+00   4.328896278031125e+00   3.515066100000000e+00 -8.04424400e-01   2.09422709e+00   8.15269790e-01
C     9.900689902899998e+00   5.092593524853235e+00   3.394361700000000e+00  9.88824800e-02  -1.36785207e+00  -5.23395500e-01
C     9.821700752700000e+00   4.932070374641810e+00  -3.302544000000012e-01  3.11556110e-01  -2.48192895e+00  -1.97982420e-01
C     1.104269378760000e+01   5.621292250639665e+00  -4.516254000000011e-01  4.74584520e-01   1.40202270e-01   1.95248810e-01
C     1.109474241050000e+01   4.336609822368023e+00   3.142064700000000e+00  1.52071810e+00   6.39016320e-01   7.50407680e-01
C     1.239054065250000e+01   5.050972679971618e+00   3.103810500000000e+00 -1.92978466e+00   4.97601750e-01   1.29831218e+00
C     1.351623387870000e+01   7.021611325073145e+00  -1.451780999999990e-01  2.37719764e+00   7.72792880e-01   2.33586250e-01
C     4.920895473199999e+00   7.734759166875540e+00   7.694880000000000e-02 -3.29882170e-01   4.64894350e-01  -3.97714710e-01
C     4.978385189200000e+00   6.518082015797352e+00   3.676689900000000e+00 -2.24591602e+00  -1.34743024e+00  -4.45397530e-01
C     6.174375334699999e+00   7.188859287597987e+00   3.883376100000000e+00  2.10631918e+00  -1.37788400e-01  -4.74266960e-01
C     6.170815973300000e+00   7.053776923650257e+00   6.966810000000000e-02 -1.83306867e+00  -1.94268103e+00  -2.01141900e-01
C     7.392938767000000e+00   7.723335849435607e+00   4.455240000000000e-02 -5.68675570e-01   1.41792324e+00  -5.46689470e-01
C     7.438444984100000e+00   6.481067710899382e+00   3.832061700000000e+00  5.81606100e-01  -5.09594270e-01  -5.64055290e-01
C     8.686971575999998e+00   7.215355580947113e+00   3.685388400000000e+00 -2.01292818e+00  -1.70270320e-01   9.02752530e-01
C     8.586214799600000e+00   6.995988401715914e+00  -1.548384000000027e-01  2.82573180e-01   7.56619310e-01   1.83486460e-01
C     9.794031374199999e+00   7.760920816403955e+00  -2.507457000000031e-01  8.57352840e-01  -1.98420130e+00   2.01747030e-01
C     9.899437436400000e+00   6.517014468707142e+00   3.516935700000000e+00 -1.63069116e+00  -1.94085892e+00   6.92602200e-02
C     1.109753249470000e+01   7.154191929730446e+00   3.538530000000000e+00  2.71661391e+00   2.03487828e+00  -9.43457990e-01
C     1.102582155280000e+01   7.015665185125397e+00  -3.095937000000006e-01  1.75719037e+00   1.38222446e+00  -2.77309390e-01
C     1.233365195280000e+01   7.701578279952357e+00  -1.869516000000004e-01 -4.24816799e+00   2.53355447e+00   2.11556630e-01
C     1.233795973750000e+01   6.482695075516660e+00   3.332981700000000e+00  1.06758252e+00  -4.74226830e-01   4.71235920e-01
C     1.356453328590000e+01   7.223382848529047e+00   3.567050700000000e+00  5.72272770e-01  -8.07989160e-01   9.69019200e-02
