76
Lattice="10.7446858958278 0 0 5.37234294791388 9.3051709414712 0 0 0 30 " PBC="1 1 1" Properties=species:S:1:pos:R:3:force:R:3 Energy="-611.30307161"
C     3.240575778068200e-02   1.777771518428880e-02  -2.614358999999986e-01  1.57648098e+00   1.31964620e-01   4.90732100e-01
C     1.243989906253942e+01   8.501240460950667e+00  -4.183136999999988e-01  2.53933466e+00   1.30438700e-01   3.02759900e-01
C     1.389377314890746e+01   8.321823924091570e+00  -3.855249000000001e-01 -9.99044040e-01   5.39580360e-01  -1.37681630e-01
C     1.442388248151688e+01   6.998227842711183e+00  -2.425575000000002e-01  1.18338953e+00   1.48534970e+00  -5.84138410e-01
C     8.314474547403519e+00   8.999245207212457e+00  -1.523967000000006e-01 -2.65283004e+00   7.30362600e-01   4.23295190e-01
C     9.681343808313457e+00   8.823677940416109e+00  -2.699505000000002e-01  1.24822759e+00   4.05613110e-01   2.50299400e-01
C     1.023184639359079e+01   7.497871229575509e+00  -2.366754000000029e-01 -2.63467640e-01   2.25419550e-01  -2.58587330e-01
C     1.164850400396014e+01   7.348537938158594e+00  -2.602986000000023e-01 -1.86834140e+00   3.96114840e-01   4.23292300e-01
C     1.214806071476605e+01   6.058658399265623e+00  -3.315689999999805e-02  2.38939147e+00   5.25621040e-01  -7.00143440e-01
C     1.357599680703092e+01   5.901582275109534e+00  -1.063740000000024e-01 -3.05785240e-01  -1.92658358e+00   2.88858190e-01
C     6.006666011898682e+00   8.015875486686934e+00  -2.542259999999992e-01 -9.73696540e-01  -9.61380280e-01   8.14068000e-03
C     7.440516086729765e+00   7.840737839632885e+00  -1.767678000000004e-01 -4.09972650e-01   3.33895900e-02  -6.20130610e-01
C     7.986402540050740e+00   6.490257723631198e+00  -2.305346999999998e-01 -1.68908478e+00   1.57715777e+00   3.82457190e-01
C     9.375411065087340e+00   6.339709176889520e+00  -1.679615999999982e-01  6.86854200e-01   1.56872300e-02   8.05221260e-01
C     9.907217252217519e+00   5.036354913010044e+00   7.124550000000000e-02  1.08971532e+00   6.86477240e-01  -1.29424695e+00
C     1.134719421556593e+01   4.928102369414169e+00   7.808940000000000e-02 -2.00439026e+00   1.53506800e-02   1.38773970e-01
C     1.191388093025671e+01   3.667263338507844e+00   8.753700000000000e-02 -1.27573717e+00  -3.13738780e+00   2.37905740e-01
C     5.106055035509401e+00   6.837821118720540e+00  -2.966258999999987e-01  1.35832147e+00   2.90437660e-01   3.06673550e-01
C     5.689211365917989e+00   5.508452388444106e+00  -2.553015000000016e-01 -1.24189485e+00   1.42951462e+00   4.70125600e-01
C     7.091596595112653e+00   5.375030753231172e+00  -2.013356999999978e-01  1.26668863e+00  -1.04910091e+00   3.30887480e-01
C     7.682474862660422e+00   4.046001568642340e+00  -8.420939999999888e-02 -1.17624156e+00   1.70938430e+00  -3.40959410e-01
C     9.076106342528927e+00   3.889907605278968e+00  -3.390059999999906e-02  2.05676750e-01   4.24856960e-01   2.45776760e-01
C     9.633737812007190e+00   2.599454960907802e+00  -1.152212999999982e-01  1.25036570e+00  -2.60391540e-01  -3.30779960e-01
C     1.106046695370491e+01   2.465515772087186e+00   6.412500000000000e-03  2.42504540e-01   6.13334980e-01   8.09878000e-03
C     3.401212861530412e+00   4.562250963566189e+00  -3.948959999999957e-02 -6.17501300e-02   1.77312571e+00   7.21488200e-02
C     4.800329020040001e+00   4.388003449164262e+00  -1.177061999999971e-01  1.21653813e+00   5.58754670e-01   4.32959450e-01
C     5.398210029176237e+00   3.103187598193420e+00  -1.620059999999768e-02  1.00267407e+00   7.71910030e-01  -7.84426540e-01
C     6.823433249421639e+00   2.933058645501246e+00  -1.053533999999985e-01 -2.44875900e-02   7.62611300e-02  -8.42767820e-01
C     7.410146661820852e+00   1.680745570520406e+00  -4.161320999999987e-01 -8.56508500e-01  -1.39771424e+00   1.10080637e+00
C     8.810643512468589e+00   1.476824424301075e+00  -4.138244999999969e-01  1.38309430e-01   7.37759380e-01   7.74184900e-01
C     9.373873231917903e+00   1.800339349509662e-01  -4.223345999999992e-01 -7.65617200e-02  -1.04415706e+00   3.13801040e-01
C     2.545850282467219e+00   3.454447751593805e+00   8.238540000000000e-02  1.03345543e+00   5.82783920e-01  -4.82621910e-01
C     3.139949108443225e+00   2.186767652064102e+00  -5.633100000000724e-03  1.11466163e+00  -8.32317090e-01   4.48403560e-01
C     4.577493367457016e+00   2.001118418657683e+00  -7.556759999999940e-02 -1.21203605e+00  -1.36407864e+00  -2.94162960e-01
C     5.156081057420923e+00   7.069837181455594e-01  -2.853531000000018e-01 -9.04076810e-01  -9.47021960e-01   4.32932430e-01
C     6.551058738985839e+00   5.250117021912100e-01  -4.137509999999978e-01 -1.44096350e-01   1.62920180e-01  -1.76059720e-01
C     9.116137496445980e-01   1.165438417205941e+00  -3.500909999999990e-02 -7.46357630e-01   6.19571400e-02  -5.69191430e-01
C     2.341251800156022e+00   1.056554703865206e+00   5.352000000000000e-03 -6.79227050e-01  -3.15592990e+00  -8.91620370e-01
C     1.608592293059607e+01   9.293902098836531e+00   3.475686000000000e+00  7.46674300e-02  -6.23589870e-01   1.63507820e-01
C     1.181264938853899e+01   8.833176286704825e+00   3.462832200000000e+00  1.09410962e+00  -9.11587240e-01   1.42022269e+00
C     1.323778095661367e+01   8.970921755698448e+00   3.479020800000000e+00  1.86861430e-01   7.47660200e-02   1.71072730e-01
C     1.410149161938687e+01   7.814317946938072e+00   3.521053500000000e+00  5.03311900e-02   5.75813870e-01   3.19132580e-01
C     7.635295752724965e+00   8.324623850027415e+00   3.644513400000000e+00 -1.09009509e+00  -1.22676206e+00  -1.00902534e+00
C     9.031498597099628e+00   8.470775145189688e+00   3.574787700000000e+00  6.16031130e-01  -1.03791080e-01  -3.72473290e-01
C     9.868334275435739e+00   7.300988607706904e+00   3.574480800000000e+00 -3.22686150e-01   9.06008310e-01   6.96145830e-01
C     1.129038749100007e+01   7.503311590817289e+00   3.641436000000000e+00 -2.01305015e+00   1.61630634e+00  -1.15524899e+00
C     1.210428186813051e+01   6.409240670963029e+00   3.716175300000000e+00  1.67623696e+00  -2.53250769e+00  -6.26641180e-01
C     1.353172918463378e+01   6.528808023266815e+00   3.649427100000000e+00 -3.63249630e-01  -8.98613700e-02  -2.22216980e-01
C     4.776683780737596e+00   7.973666672992837e+00   3.521268600000000e+00  2.86872020e-01   9.46639550e-01  -3.17493430e-01
C     5.667029552835164e+00   6.854265868167674e+00   3.544114200000000e+00 -1.87126319e+00   2.90762040e-01   9.28944620e-01
C     7.048425199294465e+00   6.990360785939959e+00   3.578805300000000e+00  1.48313263e+00   7.44004210e-01   5.96775590e-01
C     7.879108631654526e+00   5.818637377126015e+00   3.634672800000000e+00 -4.55316380e-01   1.70364712e+00   3.69650930e-01
C     9.278436943987211e+00   6.006372829857182e+00   3.623807700000000e+00  1.19044256e+00  -3.16544320e-01  -4.05570300e-01
C     1.015690210199143e+01   4.866226518628126e+00   3.535218900000000e+00 -8.93207260e-01   8.96254180e-01   6.77906650e-01
C     1.155950432011785e+01   5.080629102445983e+00   3.634326900000000e+00  6.97007010e-01  -1.46990545e+00  -6.34123690e-01
C     1.244414820974886e+01   3.907862770073082e+00   3.493286100000000e+00 -9.36999410e-01   7.20487710e-01  -9.80970200e-02
C     3.641722716567455e+00   5.388139133637769e+00   3.632316900000000e+00  2.15577430e-01   5.32181900e-01   7.68613700e-02
C     5.051495293382375e+00   5.596985041577096e+00   3.714009900000000e+00  3.17678700e-02  -2.06492889e+00  -9.56145810e-01
C     5.845284375427029e+00   4.402356396184084e+00   3.757802400000000e+00  9.71466700e-01   8.98348440e-01   6.32807600e-01
C     7.285580832010677e+00   4.553668897459937e+00   3.769785000000000e+00 -1.02291680e+00  -5.98974760e-01  -1.29054053e+00
C     8.095413341806914e+00   3.420611079349555e+00   3.564865500000000e+00  2.07490211e+00   1.23787800e-02   6.72905980e-01
C     9.533769630457599e+00   3.593452768525867e+00   3.444392400000000e+00  4.01171610e-01  -7.71685590e-01  -2.68510280e-01
C     1.039927282917949e+01   2.456955200925805e+00   3.298393200000000e+00  5.17046590e-01  -4.84332230e-01   1.41074061e+00
C     1.184207580608989e+01   2.593211563413900e+00   3.383461500000000e+00 -6.07608470e-01   1.31451121e+00  -1.72077100e-01
C     3.123361408627376e+00   4.077543306577658e+00   3.493119900000000e+00 -1.08505077e+00  -7.97278990e-01   7.17168100e-01
C     3.947302228244610e+00   2.884862977876064e+00   3.511601400000000e+00 -1.68224851e+00   2.08876516e+00   4.95771360e-01
C     5.291270104456999e+00   3.092926786197882e+00   3.776226000000000e+00  1.94038820e+00  -7.31781500e-02  -9.54381210e-01
C     6.187828077877940e+00   1.983361640108009e+00   3.731433600000000e+00 -1.40482984e+00  -1.45892426e+00  -5.73474770e-01
C     7.571879273457428e+00   2.109530173728341e+00   3.619449300000000e+00  7.64521350e-01   2.68230630e-01  -2.21900530e-01
C     8.429389768955460e+00   9.733072017227181e-01   3.499817700000000e+00  6.43249010e-01  -2.91511580e-01  -3.47122840e-01
C     9.868117340227419e+00   1.128630138622002e+00   3.409773600000000e+00 -9.57235220e-01   5.87079750e-01  -2.09630800e-01
C     1.930282714488141e+00   1.454228677707473e+00   3.423609600000000e+00  4.15814410e-01  -2.89069550e-01   3.50209010e-01
C     3.343037854938613e+00   1.627139039045322e+00   3.453855300000000e+00  6.55874070e-01  -1.51593622e+00  -2.12376000e-02
C     4.224930245404356e+00   4.763718057053514e-01   3.469053900000000e+00 -1.38244420e+00   3.86151680e-01   1.03730868e+00
C     5.612540349571070e+00   6.662460519770770e-01   3.577185600000000e+00  4.14998890e-01   4.59760060e-01  -4.92351880e-01
C     1.392317942017230e+00   1.376014249474722e-01   3.563035200000000e+00 -3.67414190e-01   5.91574340e-01  -8.11929290e-01
