64
Lattice="9.86 0 0 4.93 8.53901048131456 0 0 0 30 " PBC="1 1 1" Properties=species:S:1:pos:R:3:force:R:3 Energy="-513.00505494"
C     5.002426087699999e+00   8.410022322441741e+00  -1.637259000000029e-01  2.13444170e-01  -2.52927813e+00   4.08918900e-02
C     1.299028821700000e+00   5.088822441654952e-01  -1.525275000000015e-01  2.19143070e+00   2.64385123e+00  -6.58903700e-01
C     1.148787466100000e+00   8.065471968722168e-01   3.751227000000000e+00 -5.72594570e-01   4.76091349e+00   5.50664730e-01
C     2.342573507200000e+00   1.593647309716862e+00   3.689754300000000e+00  1.73861050e-01  -1.31363770e-01  -1.01569949e+00
C     7.512671852899999e+00   8.384496999974296e+00   3.813000000000000e-04 -9.62228640e-01  -1.64315506e+00  -5.48209940e-01
C     3.796509535100000e+00   5.432423684359672e-01  -1.142715000000010e-01  1.62797057e+00   7.95199960e-01  -8.62181310e-01
C     3.554524724900000e+00   8.698561036917752e-01   3.572794800000000e+00  9.35925210e-01   9.52742700e-01   6.45078520e-01
C     4.796142168299999e+00   1.590979295892386e+00   3.594507900000000e+00  1.27120031e+00  -7.08632300e-01  -9.72909480e-01
C     1.003065397130000e+01   8.433514335733687e+00  -1.494669000000002e-01 -3.15066701e+00  -3.38031202e+00   1.37303446e+00
C     6.278138622300000e+00   6.041072396759399e-01  -1.668060000000082e-02  7.67477340e-01  -2.74740735e+00  -1.35652810e+00
C     6.044942325899999e+00   8.130052504982408e-01   3.586079700000000e+00  4.11432020e-01   4.00112517e+00   1.20305381e+00
C     7.280103589199999e+00   1.576790790688714e+00   3.768686700000000e+00  4.36431200e-01  -5.30029370e-01  -4.89383950e-01
C     1.241117265320000e+01   8.350556397288706e+00  -1.370658000000020e-01  4.07849000e-01   8.18353830e-01  -7.40068270e-01
C     8.691763634599999e+00   5.300145019112944e-01  -2.679776999999994e-01  5.20087150e-01   1.15839272e+00   7.84748100e-01
C     8.541126843700001e+00   8.706944637407016e-01   3.846384900000000e+00 -2.11555500e-01   6.58231440e-01  -5.06320460e-01
C     9.820992459599999e+00   1.611420064569515e+00   3.780584100000000e+00 -2.73047913e+00  -1.45395127e+00   6.16386650e-01
C     1.330587625100000e+00   1.959183989493130e+00  -4.245054000000010e-01  1.67842780e-01  -2.63071620e-01   1.87977343e+00
C     2.579224402500000e+00   2.695760058179188e+00  -4.132323000000007e-01 -2.71154480e-01  -1.41551633e+00  -9.52918400e-01
C     2.333793571600000e+00   3.047363976115659e+00   3.540288600000000e+00  6.78765710e-01  -1.19619359e+00  -9.21879700e-02
C     3.581379026500000e+00   3.714015881173197e+00   3.355422000000000e+00  1.49691716e+00   2.32818730e-01   1.54539158e+00
C     3.828907720299999e+00   1.950344405844235e+00  -3.759066000000004e-01 -7.63711860e-01   1.39271283e+00   1.55555637e+00
C     5.056358118500000e+00   2.701352597702959e+00  -2.461260000000003e-01 -9.26461220e-01  -8.57105000e-03   1.08518290e-01
C     4.854743993700000e+00   3.036671512582708e+00   3.494275500000000e+00 -2.29517127e+00  -1.76904352e+00   3.63005960e-01
C     6.041259961000000e+00   3.751399583664533e+00   3.675140400000000e+00  1.02603828e+00  -1.73578539e+00  -3.15283210e-01
C     6.278689056800000e+00   1.975878011151845e+00  -8.548019999999923e-02 -9.27372340e-01   1.75127871e+00  -3.02265420e-01
C     7.480376014500000e+00   2.671500558625298e+00  -1.575528000000013e-01  1.42027584e+00   1.82489600e-02   1.17256290e-01
C     7.291328755499999e+00   3.011846388974623e+00   3.747715500000000e+00 -1.56431419e+00  -4.64098900e-01  -3.26601640e-01
C     8.483059035899998e+00   3.716162929968289e+00   3.658299000000000e+00  1.92779872e+00   5.35646220e-01   9.47788270e-01
C     8.701471938499999e+00   1.963081364656412e+00  -3.019992000000009e-01  6.11424070e-01  -1.33048800e-02   1.04634012e+00
C     9.954278805700000e+00   2.697124592053892e+00  -3.032025000000012e-01 -5.26196600e-02  -1.97958878e+00  -1.95161932e+00
C     9.742364678400000e+00   3.034107674686088e+00   3.756513900000000e+00  1.06793495e+00   3.90058300e-02  -1.08785110e+00
C     1.098971393700000e+01   3.785166759047273e+00   3.593608200000000e+00 -1.77376075e+00  -2.23375748e+00   6.27740400e-02
C     2.528085413900000e+00   4.112186011910777e+00  -5.298963000000008e-01  2.41189381e+00   1.33734130e-01   5.13233500e-01
C     3.745033728900000e+00   4.895324280063017e+00  -4.147536000000009e-01  2.62029813e+00  -4.11606040e+00   2.36481820e-01
C     3.660567940300000e+00   5.139898447450967e+00   3.467377200000000e+00 -2.53427747e+00  -9.67429180e-01  -4.76146550e-01
C     4.848908599200000e+00   5.850030481532037e+00   3.571494000000000e+00  2.68067800e-02   1.23348332e+00   4.99861220e-01
C     5.036120813600000e+00   4.149360337865142e+00  -2.307738000000015e-01 -8.22241190e-01  -7.47960530e-01  -8.88711970e-01
C     6.305492184999999e+00   4.806632054520295e+00  -1.515111000000005e-01 -1.97724383e+00   8.53153360e-01   7.24933860e-01
C     6.049503660500000e+00   5.132773667886665e+00   3.706161300000000e+00  1.29779395e+00   8.73324940e-01  -9.78623180e-01
C     7.324237097099999e+00   5.795812973780429e+00   3.642392700000000e+00 -4.28270946e+00   4.51050575e+00   8.98868620e-01
C     7.516201880800000e+00   4.070831840326451e+00  -7.495800000000230e-02 -3.15389580e-01   1.05996950e+00  -9.44359180e-01
C     8.732345767700000e+00   4.788809004895916e+00  -1.860333000000018e-01  6.54760990e-01   5.27419400e-02   5.31592200e-02
C     8.493432643300000e+00   5.170315256681775e+00   3.616962900000000e+00  3.16550931e+00  -2.29912057e+00  -7.43647080e-01
C     9.726638717899998e+00   5.891505565504759e+00   3.474720300000000e+00  4.31674980e-01   6.66783210e-01   1.09220317e+00
C     9.951473044100000e+00   4.084851785463249e+00  -4.656576000000001e-01  3.88128500e-02   1.39090882e+00   1.54321321e+00
C     1.120203809240000e+01   4.808835460784556e+00  -5.171643000000010e-01 -2.05024557e+00   2.27618600e-02   1.32053020e-01
C     1.094032066140000e+01   5.158461146163124e+00   3.461654700000000e+00  2.30338636e+00   1.37361016e+00   1.58478870e-01
C     1.226869210360000e+01   5.816057515996728e+00   3.489377400000000e+00 -1.73315125e+00   1.42245114e+00  -7.32053070e-01
C     3.831747301700000e+00   6.254049578278102e+00  -3.644093999999996e-01 -4.91988310e-01   1.61792012e+00   5.38150360e-01
C     5.051563940000000e+00   6.958213697934699e+00  -1.157487000000010e-01 -1.00692684e+00   6.28385070e-01  -9.98841780e-01
C     4.788686233500000e+00   7.286170021808277e+00   3.683458800000000e+00  1.31527500e+00  -1.23967534e+00   9.08933130e-01
C     6.017546759600000e+00   7.991952967071674e+00   3.818118000000000e+00  1.37684878e+00  -2.53461302e+00  -1.17935170e+00
C     6.247877099100000e+00   6.247522700227609e+00  -9.215370000000078e-02  2.87158901e+00  -4.89216120e-01   7.39403870e-01
C     7.544467740000000e+00   6.923753325681192e+00   4.513770000000000e-02 -2.04001750e+00   1.42038608e+00  -1.60126730e-01
C     7.268108997799999e+00   7.289496564120971e+00   3.691216200000000e+00  6.08651050e-01  -2.15140192e+00  -1.48407670e-01
C     8.514129917199998e+00   7.974083721400597e+00   3.597662700000000e+00 -9.94762000e-01   1.77512415e+00   4.22120550e-01
C     8.749674964200000e+00   6.206428285342085e+00  -4.260900000002010e-03  9.11536460e-01   1.73436340e-01  -1.06423776e+00
C     1.000174568380000e+01   6.908528953116190e+00  -1.403358000000026e-01 -2.31416030e-01   2.46926813e+00  -2.37524430e-01
C     9.772192953200001e+00   7.357010421261300e+00   3.590202600000000e+00 -1.33314566e+00  -4.17820022e+00  -1.11693577e+00
C     1.100381186360000e+01   7.982263581099808e+00   3.571113600000000e+00  7.92654090e-01  -8.89236100e-01  -4.14594800e-01
C     1.120903129740000e+01   6.219090613202667e+00  -3.786792000000005e-01  6.54371710e-01   5.19924610e-01   2.10488760e-01
C     1.246618785430000e+01   6.949195563576666e+00  -3.609219000000010e-01 -2.09453293e+00   4.86346010e-01   7.22912050e-01
C     1.224928747570000e+01   7.245146224539424e+00   3.506243400000000e+00 -8.88622960e-01   5.95534100e-02   1.57964204e+00
C     1.343575266400000e+01   7.960353504889386e+00   3.792020100000000e+00  1.66372030e-01   1.29064916e+00  -1.56196297e+00
