64
Lattice="9.86 0 0 4.93 8.53901048131456 0 0 0 30 " PBC="1 1 1" Properties=species:S:1:pos:R:3:force:R:3 Energy="-513.16480564"
C     1.599775633000000e-01   4.974135845799120e-02  -1.643207999999987e-01  5.48422460e-01   7.02360940e-01   7.29283730e-01
C     1.418109274200000e+00   7.727239201906224e-01  -1.325462999999978e-01 -1.67009718e+00   3.29127970e-01  -4.77929220e-01
C     1.126508894700000e+00   5.970302785703255e-01   3.620417400000000e+00 -1.12915757e+00   1.61890518e+00  -4.99886600e-01
C     2.307576226000000e+00   1.430183324296126e+00   3.504480000000000e+00 -8.16295750e-01  -1.54959861e+00   7.12542960e-01
C     2.621251863700000e+00   1.247239465047576e-01  -1.250612999999987e-01  1.12592679e+00  -4.34319252e+00   2.26294620e-01
C     3.840735381900000e+00   7.774812590993448e-01  -1.308729000000000e-01  1.06233030e+00  -3.90740510e-01   1.15568974e+00
C     3.509943770200000e+00   7.403709757235791e-01   3.496813200000000e+00  2.13983314e+00  -3.63254295e+00  -4.91235440e-01
C     4.799512414899999e+00   1.349743710821906e+00   3.431661300000000e+00 -9.82366640e-01  -2.81168920e-01   5.62936900e-02
C     5.073272110400000e+00   4.743505711744801e-02   2.473020000000000e-02  1.48168850e-01   2.70848386e+00  -1.12808210e+00
C     6.263272010100000e+00   7.873060737774232e-01  -9.574350000000109e-02  2.47575736e+00   2.27780250e-01   3.18840730e-01
C     6.032922049200001e+00   5.785657784786880e-01   3.422866500000000e+00 -1.80581351e+00   2.07218507e+00  -2.80003000e-02
C     7.190361566699999e+00   1.336652553855018e+00   3.510092400000000e+00  3.45696232e+00   3.88825150e-01   3.15745010e-01
C     7.542178395899999e+00   1.958772153017680e-02  -1.181853000000004e-01 -1.13178546e+00   2.47040946e+00   7.47954890e-01
C     8.767205945600001e+00   6.939370321948063e-01  -1.356137999999980e-01  2.94712850e-01   3.17502692e+00  -7.19986220e-01
C     8.499144196200000e+00   6.677220992409968e-01   3.647158800000000e+00 -1.84885329e+00  -9.79175180e-01  -3.85169740e-01
C     9.750045519800000e+00   1.317096768224037e+00   3.724617000000000e+00 -6.78255150e-01   1.50025865e+00  -7.82370530e-01
C     1.436986687900000e+00   2.182650235315150e+00  -1.456871999999976e-01 -2.52766816e+00   3.72842700e-01  -8.77413710e-01
C     2.616684761000000e+00   2.907161963044539e+00  -1.281236999999997e-01  1.90268857e+00  -5.82467800e-02   4.39759510e-01
C     2.294759162700000e+00   2.834422829221183e+00   3.532340700000000e+00  5.80663500e-02  -4.28220850e-01   7.01813660e-01
C     3.564283068300000e+00   3.488010816755265e+00   3.510253500000000e+00 -1.51354373e+00  -6.58462090e-01  -1.12246662e+00
C     3.882596652799999e+00   2.160634702325299e+00  -7.973099999999889e-02 -1.30156827e+00   2.82209398e+00   3.17947930e-01
C     5.081667703199999e+00   2.926611950335674e+00   5.167590000000000e-02 -2.06683100e-01   2.21789990e-01  -1.56330687e+00
C     4.760850221000000e+00   2.762907677160030e+00   3.409620300000000e+00  1.80786598e+00   2.44766620e-01   5.08678640e-01
C     6.005511939400000e+00   3.487781031983248e+00   3.407934000000000e+00 -1.05871540e+00  -1.62602050e-01  -5.56098650e-01
C     6.308284290500000e+00   2.254924932358498e+00  -9.188879999999955e-02  9.90464500e-02  -1.87715086e+00   6.17712870e-01
C     7.541852621499999e+00   2.968192576477929e+00  -1.001148000000001e-01  2.71506240e-01  -1.66169416e+00  -1.12518070e+00
C     7.214991600199999e+00   2.771619858772564e+00   3.463434300000000e+00 -1.07125643e+00  -7.35955570e-01   3.60852470e-01
C     8.400604933800000e+00   3.478364211225904e+00   3.558791400000000e+00  4.18715203e+00   3.29339310e-01  -8.74190320e-01
C     8.767282360599999e+00   2.159861751096650e+00  -2.187374999999996e-01 -6.52342900e-02   4.07984640e-01   6.55464510e-01
C     1.000899776310000e+01   2.852170991723654e+00  -2.502461999999994e-01  1.07673050e-01   1.81349103e+00   1.76801842e+00
C     9.691772180299999e+00   2.769407315767092e+00   3.628491000000000e+00 -6.02819340e-01  -1.49037200e-01   8.57084330e-01
C     1.090894387360000e+01   3.524737698560478e+00   3.657536400000000e+00 -4.69840100e-02  -1.47376030e+00  -1.47102214e+00
C     2.602111582400000e+00   4.338956257057822e+00  -7.898849999999769e-02  1.22530086e+00   2.80884800e-02   1.64500750e-01
C     3.830367887700000e+00   5.069684725977072e+00   7.069320000000000e-02  1.81961200e-01   4.76715700e-02  -1.08415882e+00
C     3.547927990499999e+00   4.873924324338669e+00   3.380101800000000e+00  8.98740900e-02   1.98156012e+00   6.45097190e-01
C     4.759608994900000e+00   5.612928204484401e+00   3.440033400000000e+00  3.10891680e-01   7.66857080e-01   8.60686300e-02
C     5.059503606400000e+00   4.363510181693062e+00  -3.042720000000187e-02 -8.93184490e-01  -5.26934150e-01   9.95635540e-01
C     6.252703519799999e+00   5.080965356551885e+00  -7.416629999999813e-02  2.85456831e+00   8.74470900e-01  -5.30838500e-01
C     6.009556955099999e+00   4.899849101716368e+00   3.360426900000000e+00 -1.85423100e-01   6.24772770e-01   1.00107924e+00
C     7.255493177100000e+00   5.595796046197957e+00   3.439628100000000e+00 -1.08474180e-01   1.05128575e+00  -1.32499536e+00
C     7.505859085899999e+00   4.386890419337827e+00  -1.588862999999989e-01  1.12971551e+00  -1.03368094e+00   1.62321315e+00
C     8.810801146799999e+00   5.020718538890454e+00   1.118400000000000e-02 -3.29312865e+00   2.10701475e+00  -1.37485956e+00
C     8.510171521600000e+00   4.920604105979161e+00   3.377797200000000e+00 -2.27815578e+00  -7.92137330e-01   1.49112035e+00
C     9.698644600300000e+00   5.672345201107385e+00   3.407551800000000e+00  8.59896830e-01  -2.11243182e+00  -4.53070380e-01
C     9.970901385299999e+00   4.333260139336929e+00  -3.236400000000117e-02  3.74393957e+00  -2.68660033e+00  -1.83981112e+00
C     1.126554206330000e+01   5.051674415852864e+00  -1.550288999999978e-01 -2.70394521e+00  -2.12660350e-01   9.53645180e-01
C     1.091905944480000e+01   4.886528843098302e+00   3.441031200000000e+00  4.62225550e-01   3.29358848e+00  -2.64576300e-02
C     1.218020279410000e+01   5.607559728595625e+00   3.334443600000000e+00 -6.36997670e-01  -1.22798320e-01   1.13114918e+00
C     3.887489776399999e+00   6.513255596293846e+00   5.537190000000000e-02  5.29004470e-01  -1.90732424e+00  -1.93962180e-01
C     5.125680031699999e+00   7.200927983450001e+00  -5.962949999999978e-02  4.49752460e-01  -1.11943370e-01  -7.94411900e-02
C     4.715849624700000e+00   7.066746485107910e+00   3.616418400000000e+00  2.64371930e+00  -2.22883442e+00  -1.66738722e+00
C     5.993018974300000e+00   7.726530549426489e+00   3.478026600000000e+00  1.90730620e-01   7.17481300e-01   1.17537454e+00
C     6.387565247400000e+00   6.532362656924104e+00  -1.108454999999999e-01 -3.17001400e+00  -3.04062303e+00   7.17839270e-01
C     7.615965705899999e+00   7.126833452493154e+00  -6.102539999999834e-02 -1.08846959e+00   4.52778728e+00  -7.15710340e-01
C     7.235787227599999e+00   7.036014330220075e+00   3.397418700000000e+00  1.61439350e-01  -6.50634980e-01   8.87232840e-01
C     8.457419634199999e+00   7.764929540263895e+00   3.487328400000000e+00 -2.46971210e-01   1.96675749e+00  -1.19070444e+00
C     8.801147615200000e+00   6.455865077637976e+00  -5.496180000000095e-02  2.72043407e+00  -8.18380400e-02   9.77051980e-01
C     1.006643748890000e+01   7.227456127308217e+00   1.422960000000000e-02 -2.11364153e+00  -3.85476727e+00  -1.01250267e+00
C     9.700151158999999e+00   7.074679140453725e+00   3.340962900000000e+00 -7.54196600e-01  -2.29925060e-01   7.58436540e-01
C     1.094512327020000e+01   7.727193432810051e+00   3.359026200000000e+00 -8.05835100e-02   4.65870570e-01   5.39850420e-01
C     1.123837677730000e+01   6.467170983683810e+00  -1.468518000000003e-01  2.71056291e+00   7.82508010e-01   1.93275115e+00
C     1.254646457260000e+01   7.199204896525242e+00   3.284670000000000e-02 -3.52345226e+00  -1.89409534e+00  -1.46709619e+00
C     1.216567359110000e+01   7.052734993591487e+00   3.451840800000000e+00  5.45153860e-01  -1.58070570e+00  -8.06180770e-01
C     1.339130674200000e+01   7.770777566981229e+00   3.580772100000000e+00 -9.68309280e-01   8.56102840e-01   2.97897040e-01
