76
Lattice="10.7446858958278 0 0 5.37234294791388 9.3051709414712 0 0 0 30 " PBC="1 1 1" Properties=species:S:1:pos:R:3:force:R:3 Energy="-612.93673242"
C     7.595101494475950e-02   4.066666771421020e-02  -1.812477000000001e-01  5.86235550e-01  -3.82460170e-01   2.64325850e-01
C     1.255157143043988e+01   8.521610875913966e+00  -2.038581000000015e-01 -8.88599950e-01   1.31918680e-01  -7.05576000e-03
C     1.395574505887917e+01   8.378055816495664e+00  -2.191599000000011e-01 -2.27159900e-01  -1.92095664e+00   1.15048580e-01
C     1.452849494609989e+01   7.063481749703574e+00  -1.007712000000005e-01  2.31391610e-01  -6.65052080e-01   4.93364130e-01
C     8.277008096287366e+00   8.989661160299386e+00  -7.905300000000892e-03 -1.56371950e-01   1.66260173e+00  -3.49918260e-01
C     9.677325994191440e+00   8.834008820348826e+00  -5.114250000000098e-02  6.58741110e-01  -1.69887710e-01   1.50447830e-01
C     1.025246544583289e+01   7.529458935055271e+00  -4.673490000000058e-02  1.09081520e+00   7.23918900e-01   5.48303060e-01
C     1.169270672845444e+01   7.390544550488164e+00  -5.264190000000113e-02 -2.36369260e-01  -3.87733690e-01  -3.81893380e-01
C     1.227574449125412e+01   6.091820260513304e+00   6.063300000000000e-02  2.94583090e-01  -2.89930980e-01   4.55408700e-01
C     1.370481457766887e+01   5.890450964372559e+00   8.506020000000000e-02 -1.04819476e+00   1.83212418e+00  -5.64736500e-01
C     6.041018706764444e+00   8.048845010051284e+00  -1.172298000000005e-01 -1.63142321e+00   2.77093000e-02  -9.22821000e-03
C     7.412277225587962e+00   7.902513008469358e+00  -3.895169999999837e-02  1.65283714e+00  -2.05513142e+00   3.73191530e-01
C     8.010538274264482e+00   6.583456733887179e+00   6.912960000000000e-02 -6.92959860e-01   1.30870280e-01  -1.82365570e-01
C     9.409446039591039e+00   6.409187538436961e+00   1.054677000000000e-01  4.36502330e-01  -9.98864800e-02  -7.68641640e-01
C     9.997933131015193e+00   5.112266125331727e+00   1.021743000000000e-01  4.69314940e-01  -4.12147940e-01   6.73287170e-01
C     1.143334505338870e+01   4.959209462814880e+00   1.907184000000000e-01 -7.34884210e-01  -1.19085125e+00  -6.86654170e-01
C     1.198477447527177e+01   3.611163765634516e+00   2.087469000000000e-01 -2.03438760e-01   6.99570230e-01  -2.80132350e-01
C     5.204072035822985e+00   6.895782470195544e+00  -4.332929999999990e-02 -3.08307150e-01   2.00769060e-01  -8.18089000e-02
C     5.782773189669996e+00   5.598826255750993e+00   9.349350000000001e-02 -1.13738551e+00  -1.72398660e-01  -2.45227010e-01
C     7.179735253550353e+00   5.429997700697684e+00   8.286600000000000e-02  1.01947100e-01   2.57999390e-01  -4.66503400e-02
C     7.729670788029313e+00   4.126834471977607e+00   2.598930000000000e-02  9.15447690e-01  -5.08739400e-02   1.51830500e-01
C     9.159464152975422e+00   3.966477995910040e+00   6.683430000000001e-02 -4.45214540e-01  -7.76027020e-01  -6.16773700e-01
C     9.718378215609569e+00   2.638716082551526e+00  -5.459520000000140e-02 -9.53278700e-01  -1.19119840e-01   1.84430120e-01
C     1.110390938422493e+01   2.467509963271338e+00   6.111330000000000e-02  1.30825951e+00   7.47952120e-01  -1.16636760e-01
C     3.500283055955914e+00   4.600030143686008e+00   1.840833000000000e-01  9.57651740e-01   1.71577400e-02   9.01603200e-02
C     4.922466067325911e+00   4.455796737306179e+00   1.561362000000000e-01  1.05285720e-01  -8.07639250e-01  -3.29402330e-01
C     5.471600155683591e+00   3.128434853246375e+00   6.688619999999999e-02 -3.04000710e-01  -6.90346900e-02  -6.93002700e-02
C     6.891776328344616e+00   2.987145882107090e+00  -5.703390000000041e-02 -5.51050720e-01  -4.44900370e-01   4.07464350e-01
C     7.449877394320140e+00   1.681334773944327e+00  -1.602215999999999e-01 -4.23663200e-02  -1.28306016e+00  -7.03219820e-01
C     8.868209725157296e+00   1.459716402269338e+00  -2.154579000000005e-01 -7.29717070e-01   3.25127571e+00   6.16715860e-01
C     9.409894039269640e+00   1.915113049951998e-01  -2.361509999999996e-01  1.19104976e+00  -2.95473860e-01  -1.41804520e-01
C     2.674191687455795e+00   3.456638561039919e+00   2.291838000000000e-01 -1.56541870e+00  -6.64041420e-01  -2.27161010e-01
C     3.195765226692538e+00   2.130210357832234e+00   1.559439000000000e-01 -1.66714080e-01   2.33186840e-01  -4.59275090e-01
C     4.595031703357868e+00   1.954339277204696e+00   5.319900000000000e-02  9.01051150e-01   1.55829093e+00   2.45837880e-01
C     5.148093296752576e+00   6.738566582371937e-01  -5.054279999999878e-02  1.66164623e+00  -7.56340780e-01  -8.48420080e-01
C     6.599921433754967e+00   5.102865483337882e-01  -2.382293999999980e-01 -9.63542280e-01   1.20740558e+00   1.17468377e+00
C     9.278614338751420e-01   1.164210692952117e+00  -3.748290000000054e-02 -2.49804970e-01   2.34608690e-01  -1.19336830e-01
C     2.330977838945301e+00   9.981115306389292e-01   1.500240000000000e-02  6.52265460e-01   8.92142900e-02   4.47612970e-01
C     1.601693371998650e+01   9.271475241095491e+00   3.144810300000000e+00 -3.29895820e-01  -1.52084270e-01   5.64702370e-01
C     1.175411738975816e+01   8.769104787783778e+00   3.291848400000000e+00  1.15008088e+00   4.13794260e-01  -5.48013650e-01
C     1.319189131643307e+01   8.922999287892063e+00   3.183075900000000e+00 -8.08773240e-01   9.11411550e-01   3.46546150e-01
C     1.401804296262109e+01   7.770279829688881e+00   3.275448300000000e+00  7.97804530e-01   1.13184113e+00  -1.30220690e-01
C     7.497458140614540e+00   8.315098239587847e+00   3.334554000000000e+00  2.07120848e+00  -1.41146203e+00   3.84832040e-01
C     8.945011611778476e+00   8.443488848028650e+00   3.365501400000000e+00  1.54423210e-01   8.96643160e-01   3.05055000e-01
C     9.811909040942755e+00   7.290146501682743e+00   3.466963200000000e+00 -1.07867456e+00   1.13601310e+00  -6.87631190e-01
C     1.121429786960720e+01   7.452521827637453e+00   3.370237200000000e+00 -9.03634030e-01   1.88069276e+00   4.57475710e-01
C     1.204743823556858e+01   6.364522531821542e+00   3.464427600000000e+00  1.32451431e+00  -2.18898268e+00   5.44696000e-02
C     1.346420538801068e+01   6.493435346455499e+00   3.444861000000000e+00  6.08291100e-02  -5.46533260e-01   4.55306600e-02
C     4.685508727787985e+00   7.966320891897672e+00   3.253303500000000e+00  8.60382250e-01  -3.57541440e-01   1.40473290e-01
C     5.562972910853762e+00   6.832903149775332e+00   3.439474200000000e+00 -1.06741753e+00  -1.48701200e-02  -2.97044460e-01
C     6.957851365244389e+00   6.994074293558695e+00   3.458287500000000e+00  7.14364240e-01   6.27681700e-02  -1.13225790e-01
C     7.831614863592488e+00   5.849615035598950e+00   3.556461900000000e+00 -8.13030230e-01  -8.30262900e-02  -4.50858680e-01
C     9.238032627128851e+00   6.003451750595696e+00   3.510820500000000e+00 -7.13775900e-02  -1.99653330e-01   4.33301600e-01
C     1.008393262993706e+01   4.865989888131122e+00   3.533263200000000e+00  8.98303470e-01   1.09747530e-01  -3.75702930e-01
C     1.151027082623831e+01   5.047360603939329e+00   3.520773000000000e+00 -6.16867320e-01  -7.95702540e-01   3.40443600e-02
C     1.235055071363966e+01   3.878206259770208e+00   3.505009500000000e+00  9.81077600e-02   2.70449220e-01   2.85279370e-01
C     3.576268346448694e+00   5.352901381805084e+00   3.565463400000000e+00  8.72170000e-04  -2.80275500e-01  -7.46002500e-02
C     4.996160053550517e+00   5.524534050121161e+00   3.542425500000000e+00 -4.41435540e-01   8.25839800e-02   4.13816710e-01
C     5.831661564238425e+00   4.378529668526830e+00   3.615706200000000e+00  8.34224620e-01  -1.39220490e-01  -7.88745770e-01
C     7.264618272160353e+00   4.533158253570570e+00   3.542739000000000e+00 -9.02260000e-02  -5.84175900e-02   4.27442920e-01
C     8.128962172997067e+00   3.380876603660114e+00   3.457852500000000e+00 -4.07700130e-01   1.07243505e+00  -2.80544710e-01
C     9.541189427029273e+00   3.564036796891792e+00   3.433081200000000e+00 -8.77324280e-01   3.51365000e-02   3.45402610e-01
C     1.035507789458247e+01   2.428701165987007e+00   3.336565500000000e+00  1.53049085e+00  -6.45837630e-01  -4.47892190e-01
C     1.178887682470867e+01   2.566823215248573e+00   3.371407200000000e+00 -1.01872786e+00   1.24239691e+00   3.50339670e-01
C     3.023299479693304e+00   4.023393539223097e+00   3.610983600000000e+00 -2.31961210e-01   5.94971020e-01  -5.39501830e-01
C     3.861026913235687e+00   2.868161126555858e+00   3.552511500000000e+00  3.07547580e-01   1.46550334e+00  -2.72096370e-01
C     5.282027042134954e+00   3.068099008250903e+00   3.523647300000000e+00  8.13537900e-02  -6.21335050e-01   3.11721040e-01
C     6.154786610755984e+00   1.935245066435816e+00   3.384852000000000e+00 -7.51508920e-01  -7.66974800e-02  -2.83582350e-01
C     7.566123989901952e+00   2.094757470447416e+00   3.311199900000000e+00 -4.03501320e-01  -3.48790290e-01   1.63798270e-01
C     8.396479816788922e+00   9.538388300303408e-01   3.156690300000000e+00  1.90583140e-01  -9.60952240e-01   3.13951060e-01
C     9.823965545544288e+00   1.125132417917365e+00   3.161606400000000e+00 -1.29124466e+00  -2.19542450e-01   1.99419790e-01
C     1.869815490329865e+00   1.443780087362366e+00   3.323035200000000e+00  2.01122520e-01  -7.93207770e-01  -4.45063400e-02
C     3.274604305760359e+00   1.603475058827808e+00   3.392853600000000e+00  6.43963650e-01  -5.48207530e-01   3.23090760e-01
C     4.150757690869765e+00   4.867648441799468e-01   3.364638900000000e+00 -8.24807150e-01  -1.84646356e+00  -4.30380470e-01
C     5.558571135381108e+00   6.298284975209084e-01   3.289790100000000e+00  3.24759920e-01   1.61402160e-01   7.14660000e-01
C     1.303327659775095e+00   1.295706902194146e-01   3.243856800000000e+00 -1.83675370e-01   7.44548300e-01  -5.55407100e-02
