64
Lattice="9.86 0 0 4.93 8.53901048131456 0 0 0 30 " PBC="1 1 1" Properties=species:S:1:pos:R:3:force:R:3 Energy="-513.07451158"
C     4.965938861900000e+00   8.416457149959259e+00  -7.662000000010494e-04 -4.29584920e-01   3.22261778e+00  -8.38291100e-02
C     1.269645331500000e+00   6.563596649457848e-01  -8.133000000007939e-04 -1.11746116e+00  -4.56272320e-01  -1.47254760e-01
C     1.235613442900000e+00   7.681995254877944e-01   3.420191400000000e+00 -1.29993117e+00  -6.05203810e-01   1.34347482e+00
C     2.444862527600000e+00   1.454704800691542e+00   3.453751800000000e+00  6.59168010e-01   3.25859272e+00  -2.03943000e-03
C     7.408352609200000e+00   8.489787354088040e+00  -5.119769999999946e-02  1.76671040e-01  -1.24898100e+00   8.02514380e-01
C     3.711771758400000e+00   6.205912016768463e-01  -4.753709999999955e-02  2.67554600e-01   8.14455090e-01  -1.47173006e+00
C     3.669348418200000e+00   8.115842737642640e-01   3.616685100000000e+00  1.50691503e+00  -1.36586326e+00   1.47677980e-01
C     4.940575392300000e+00   1.505353002062510e+00   3.607688100000000e+00 -1.81970808e+00   1.63091247e+00  -3.97059010e-01
C     9.848705172799999e+00   8.412557298482938e+00  -1.593324000000003e-01  1.41843409e+00   2.85412850e+00   1.11254100e-02
C     6.200457647599999e+00   6.260734171852160e-01  -2.075382000000019e-01 -1.44189813e+00  -1.78494143e+00   1.32844055e+00
C     6.147134669000000e+00   7.942564013576191e-01   3.575388900000000e+00 -5.09558520e-01  -5.00077440e-01   1.06913332e+00
C     7.338627421999999e+00   1.519817488084896e+00   3.683138700000000e+00  1.65456663e+00  -1.59381500e-02  -1.26586024e+00
C     1.233735181920000e+01   8.420643399847078e+00  -1.548794999999998e-01  7.01307380e-01  -6.47038570e-01  -1.38863038e+00
C     8.644484047199999e+00   5.901373331405553e-01  -5.785799999999952e-02  2.02916070e-01   1.15241112e+00  -2.31487560e-01
C     8.582006551600001e+00   7.649073099972304e-01   3.649310700000000e+00  7.37809680e-01   3.33608164e+00  -3.72407300e-01
C     9.859788502999999e+00   1.475714694417163e+00   3.474625800000000e+00 -1.50519635e+00   9.19500000e-05   8.73088390e-01
C     1.265560727900000e+00   2.087015025741246e+00  -1.018820999999974e-01  1.73150883e+00  -4.86788400e-01  -1.31214987e+00
C     2.508351363400000e+00   2.820142615044955e+00  -3.841143000000002e-01 -7.60087890e-01  -4.28652627e+00   1.43263524e+00
C     2.439393580000000e+00   2.956696250498390e+00   3.414711300000000e+00 -1.25026571e+00  -2.76418887e+00  -2.63059800e-02
C     3.620433747000000e+00   3.669635484274760e+00   3.450438600000000e+00  3.40751090e+00  -1.63431020e+00   3.16698370e-01
C     3.715192044500000e+00   2.041577243175070e+00  -2.735333999999980e-01  7.25614830e-01   9.08079370e-01   8.06140100e-01
C     4.949814458800000e+00   2.767052683627232e+00  -1.993691999999996e-01  6.57560300e-02  -3.31147640e-01   3.68903850e-01
C     4.941809815000000e+00   2.978092278277917e+00   3.559081500000000e+00 -2.92754504e+00  -2.63399650e+00  -3.74551310e-01
C     6.142952254200000e+00   3.632796826822363e+00   3.571065900000000e+00  3.06036600e-02   3.14435804e+00   1.26329110e-01
C     6.171948394299999e+00   2.006106535201569e+00  -6.780600000002579e-03  1.13671795e+00   2.84610449e+00  -1.07640115e+00
C     7.453764268899999e+00   2.764212181791060e+00   4.720020000000000e-02 -1.58414047e+00   1.00798790e+00  -8.63010700e-01
C     7.351874036199998e+00   2.947054512205003e+00   3.571771200000000e+00  1.55345088e+00  -1.17079449e+00   7.19800230e-01
C     8.633913437000000e+00   3.616407733227890e+00   3.581733300000000e+00 -1.85809498e+00   3.84483700e-02   2.41881000e-01
C     8.660330496899999e+00   2.070101807683510e+00  -9.413640000000001e-02  1.26127180e+00  -1.35531671e+00   1.16121167e+00
C     9.949062126199999e+00   2.778375582303922e+00  -1.496241000000005e-01 -3.57827862e+00   1.64151218e+00  -2.11521060e-01
C     9.819140455800000e+00   2.903965299081246e+00   3.553805700000000e+00  1.31438877e+00  -1.33125630e+00  -1.02483175e+00
C     1.104251379330000e+01   3.623734801950463e+00   3.439311900000000e+00  3.85776420e-01  -8.34167140e-01  -1.94581110e-01
C     2.481494054500000e+00   4.166030108734094e+00  -4.793397000000006e-01 -3.91092680e-01   3.24807205e+00  -1.10273680e-01
C     3.711543992400000e+00   4.897099113391285e+00  -3.378404999999987e-01 -2.60177200e-01   5.74705100e-02  -9.84941310e-01
C     3.657283179899999e+00   5.043283301034378e+00   3.465339300000000e+00  6.91410570e-01   2.82566228e+00   5.12916810e-01
C     4.915245249500000e+00   5.825279732705233e+00   3.571449600000000e+00 -9.67262780e-01  -2.15872132e+00   7.60247600e-02
C     4.924168105800000e+00   4.224463325959677e+00  -2.368346999999993e-01  1.03705101e+00  -2.52489942e+00  -1.78247320e-01
C     6.152342277299999e+00   4.916402656652687e+00  -2.238329999999991e-01  2.10562318e+00   2.72473200e-02   2.69274137e+00
C     6.130854182100000e+00   5.111353047756956e+00   3.631722300000000e+00  1.21199567e+00  -1.32908236e+00  -6.82630120e-01
C     7.407230097500000e+00   5.764083377078427e+00   3.651658200000000e+00 -1.56420050e-01  -2.59846930e-01   5.72061960e-01
C     7.438545260300000e+00   4.246651517741433e+00   6.176400000000000e-03 -1.41064838e+00  -1.88151669e+00  -1.03481690e+00
C     8.654704923200001e+00   4.979910266246115e+00  -7.972260000000020e-02  1.70430860e-01  -3.86541330e+00  -6.87464410e-01
C     8.664659135499999e+00   5.022269991704565e+00   3.650076600000000e+00 -3.36771442e+00   2.86498570e-01  -3.14384490e-01
C     9.824691734399998e+00   5.736226307019208e+00   3.604083000000000e+00  1.59200168e+00   1.27934030e+00   1.18381480e-01
C     9.893914308099999e+00   4.255140831180439e+00  -3.054765000000010e-01 -1.25122618e+00  -2.48676338e+00   9.69296150e-01
C     1.107667849610000e+01   4.901610870358602e+00  -5.195559000000003e-01  2.14160502e+00   1.57160535e+00   1.00091163e+00
C     1.102005567130000e+01   5.007605949007262e+00   3.409319400000000e+00  2.24838537e+00   2.33601413e+00   1.18477500e+00
C     1.229912533870000e+01   5.747717338812249e+00   3.502493700000000e+00 -1.56595037e+00   2.43959180e-01  -7.50268790e-01
C     3.744036439200000e+00   6.301925675286842e+00  -3.692972999999995e-01 -8.03521150e-01   5.09307220e-01   9.07861490e-01
C     4.937482655400000e+00   7.048945636910778e+00  -4.715880000000183e-02  7.26415370e-01  -2.64163913e+00  -7.05619760e-01
C     4.913042131100000e+00   7.218227335561642e+00   3.623140200000000e+00 -1.38612757e+00   6.72336020e-01   2.70302820e-01
C     6.137421090000000e+00   7.893210923924727e+00   3.654363600000000e+00  1.72359055e+00   2.90230420e-01  -9.91026900e-01
C     6.186993718999999e+00   6.314981480750342e+00   2.842920000000000e-02 -5.09989690e-01   1.08408754e+00  -1.60783301e+00
C     7.422182738200000e+00   7.055377561164733e+00  -1.367760000000118e-02 -5.08888870e-01  -4.80802920e-01   8.20211000e-02
C     7.425526510699999e+00   7.184208430149951e+00   3.700425000000000e+00 -2.40286713e+00  -1.17246510e-01   1.72483000e-02
C     8.616705074799999e+00   7.899964598093568e+00   3.759065100000000e+00  7.34008510e-01   9.07389050e-01  -5.95624140e-01
C     8.651300018700001e+00   6.323668130721542e+00  -1.329899999999995e-01 -3.28122820e-01   3.18327214e+00   3.66413250e-01
C     9.876133030600000e+00   7.041265480104856e+00  -2.206226999999998e-01  3.65766630e-01  -7.17261300e-01  -2.82315180e-01
C     9.835110697799999e+00   7.166288548146728e+00   3.746094600000000e+00  4.95141310e-01   6.56595270e-01  -1.15009224e+00
C     1.106725184310000e+01   7.899713465795351e+00   3.599781300000000e+00 -9.40166540e-01  -3.84151930e-01   3.91648960e-01
C     1.112659159090000e+01   6.373222911800545e+00  -3.990095999999994e-01 -2.93972901e+00  -4.12082377e+00  -7.64846970e-01
C     1.233066343610000e+01   6.939522401724713e+00  -4.499201999999975e-01  3.00032035e+00   5.24951867e+00   1.81455448e+00
C     1.226933965910000e+01   7.187182567500136e+00   3.564539700000000e+00  1.31642480e+00  -2.04601820e-01   4.14423820e-01
C     1.349696408630000e+01   7.950738664479011e+00   3.666583800000000e+00  7.67738370e-01  -3.59761077e+00  -8.69168290e-01
