64
Lattice="9.86 0 0 4.93 8.53901048131456 0 0 0 30 " PBC="1 1 1" Properties=species:S:1:pos:R:3:force:R:3 Energy="-515.83324671"
C     4.993506485200000e+00   6.862466456543298e+00   6.202260000000000e-02 -6.62937470e-01   1.25701146e+00  -2.25632900e-01
C     6.192233717399999e+00   7.596449227746579e+00   1.170669000000000e-01  1.62517116e+00   4.70257880e-01  -3.15477490e-01
C     9.773261777200000e+00   1.631380343126934e+00   3.386637900000000e+00  1.72173890e-01   8.82010000e-03  -7.35534540e-01
C     1.102220258770000e+01   2.330644949350317e+00   3.270427800000000e+00  5.92782300e-02   5.19556300e-01   5.11834430e-01
C     7.456920947899999e+00   6.912731939464551e+00   1.439208000000000e-01  3.18176380e-01  -1.50857320e-01  -5.84540600e-02
C     8.716708202100000e+00   7.616722802598510e+00   8.542440000000000e-02 -8.30859690e-01   5.63590550e-01   4.36588770e-01
C     2.379941822600000e+00   1.614609384983795e+00   3.206907600000000e+00  9.59371800e-01   3.64864230e-01  -3.29939190e-01
C     3.632836295900000e+00   2.364472239366838e+00   3.157587900000000e+00 -9.38984430e-01  -7.45990910e-01   9.70004570e-01
C     9.954820021100000e+00   6.882559687493890e+00   4.754190000000000e-02 -8.03690450e-01   1.88603204e+00  -2.78721790e-01
C     1.118198556390000e+01   7.636461066883449e+00  -4.429380000000194e-02 -4.72288380e-01  -1.25793531e+00  -7.69485400e-02
C     4.868948211099999e+00   1.667413174160334e+00   3.263290500000000e+00 -7.99641240e-01  -1.34573236e+00   6.03676800e-02
C     6.096573821500000e+00   2.347050267064703e+00   3.372909000000000e+00 -5.02396830e-01   7.56588800e-01   1.85828600e-01
C     1.240051374670000e+01   6.936265281567222e+00  -1.298759999999994e-01  9.77714600e-02  -1.62257815e+00   6.45468510e-01
C     1.363453267970000e+01   7.608779644269804e+00  -3.607859999999974e-02 -1.57023130e-01  -1.71856530e-01  -2.10872390e-01
C     7.299272661699999e+00   1.641514867715122e+00   3.400561500000000e+00  2.08197767e+00  -5.50728490e-01   6.66336000e-02
C     8.545204200199999e+00   2.349006468975567e+00   3.458145600000000e+00  8.01898000e-02   8.11786290e-01  -4.10530830e-01
C     1.269963563000000e+00   4.942112848697024e-01   4.693890000000000e-02  7.11689170e-01  -1.40579350e-01   5.40843600e-02
C     2.498510689000000e+00   1.238560756356123e+00   9.545700000000000e-02  1.38717528e+00  -1.82811901e+00   4.50492700e-02
C     1.106908383110000e+01   3.780090573487228e+00   3.314285100000000e+00 -2.03136608e+00  -1.84626207e+00   1.38300390e-01
C     1.223430022640000e+01   4.507746706435772e+00   3.270729000000000e+00  1.95563294e+00  -5.83143950e-01   9.67618000e-03
C     3.771682696000000e+00   5.419636516165871e-01   1.374792000000000e-01 -9.29593690e-01  -2.34328864e+00  -3.17718240e-01
C     5.010837801599999e+00   1.178851042453885e+00   1.758765000000000e-01  1.72014100e-01   2.04390914e+00  -8.13793680e-01
C     3.622306555400000e+00   3.778940795726096e+00   3.240249300000000e+00 -4.35656780e-01  -1.99007440e-01  -2.47697400e-01
C     4.855065626899999e+00   4.443388611398537e+00   3.305698800000000e+00  3.35111790e-01   2.55800500e+00   3.56213040e-01
C     6.257161423000000e+00   4.928195969416720e-01   1.868520000000000e-02 -1.28944291e+00   4.48599080e-01   6.74825430e-01
C     7.466549829499999e+00   1.203686669044860e+00   3.966540000000000e-02  1.49823250e-01   3.43759400e-01  -2.20194180e-01
C     6.091190705200000e+00   3.772470275144771e+00   3.432634800000000e+00  6.65528850e-01   9.19775600e-02  -5.73345810e-01
C     7.336683473699999e+00   4.507066915811460e+00   3.454869900000000e+00 -6.35999000e-03  -1.00864020e-01  -2.68148200e-02
C     8.674159590599999e+00   4.808788154666496e-01  -1.165170000000160e-02  1.49967320e+00   7.66032870e-01  -1.12985920e-01
C     9.925299871299998e+00   1.207190737385433e+00  -1.150410000000335e-02 -1.05659163e+00   3.04486500e-02   6.52310320e-01
C     8.573338822799998e+00   3.805342903789627e+00   3.444793800000000e+00 -1.60427450e-01  -1.78415387e+00   3.49676880e-01
C     9.836433909799998e+00   4.458807246451958e+00   3.424882500000000e+00 -9.15301680e-01   1.50858520e+00  -2.02791490e-01
C     2.546792496100000e+00   2.626292304660825e+00   6.851580000000000e-02 -7.18549710e-01   9.53966720e-01  -2.34082400e-01
C     3.780020361300000e+00   3.354611662553352e+00   1.050477000000000e-01 -6.83354460e-01  -1.12828810e+00  -3.46752950e-01
C     1.222325811100000e+01   5.906859645638952e+00   3.315831000000000e+00  1.70856822e+00   7.04877580e-01  -2.23789900e-02
C     1.348801643210000e+01   6.607444041322124e+00   3.290925900000000e+00 -4.47454790e-01  -9.11833430e-01  -2.42368810e-01
C     5.003214887700000e+00   2.628837442124493e+00   1.696488000000000e-01  3.59990360e-01  -2.12202260e-01   2.25015880e-01
C     6.235609977299999e+00   3.339865986915858e+00   2.180739000000000e-01 -1.97375200e-02   2.23195500e-01  -7.45393950e-01
C     4.843003642400000e+00   5.921338391808840e+00   3.290983200000000e+00  2.02024673e+00  -1.56787805e+00   6.46297480e-01
C     6.116887294900000e+00   6.651475107301825e+00   3.373701900000000e+00 -1.01808022e+00  -1.91409383e+00  -7.15429690e-01
C     7.474800381699999e+00   2.630008823582140e+00   1.112661000000000e-01 -7.55825830e-01  -2.17462320e-01   3.59358570e-01
C     8.685419710600000e+00   3.338999191962034e+00   9.986430000000000e-02  5.97345690e-01   3.22764570e-01  -9.43024500e-02
C     7.373992431900000e+00   5.934802618143600e+00   3.406872000000000e+00 -2.40454530e+00  -7.52062350e-01   3.23283100e-01
C     8.570925538499999e+00   6.628142261165225e+00   3.416585400000000e+00  1.46541691e+00  -5.86680030e-01  -1.29545370e-01
C     9.933006940300000e+00   2.633532190086397e+00   7.019040000000000e-02 -4.84875730e-01  -4.37228790e-01  -7.08893110e-01
C     1.116257896400000e+01   3.315844640364256e+00   8.058600000000001e-03  2.03652520e-01   1.85509537e+00  -3.28760000e-04
C     9.820689856200000e+00   5.894422747655042e+00   3.430443000000000e+00 -5.43489560e-01   4.94883950e-01  -7.34437700e-02
C     1.103600466500000e+01   6.635784419374510e+00   3.384405600000000e+00 -9.09740100e-01  -3.95976150e-01   3.22999280e-01
C     3.728524391399999e+00   4.754150100648748e+00  -1.159499999999980e-03  1.36752526e+00   6.91327770e-01   3.25866060e-01
C     4.972673833500000e+00   5.461915462585181e+00   8.796750000000000e-02  2.40502550e-01  -4.22327970e-01   3.57608300e-02
C     1.353900609100000e+01   7.993730789053609e+00   3.268476000000000e+00 -2.53511496e+00   2.39608383e+00   4.40183140e-01
C     9.780864280899999e+00   2.017381359249256e-01   3.260698800000000e+00  1.19046335e+00   4.39385040e-01   4.83902590e-01
C     6.216386477600000e+00   4.776112777163728e+00   2.006403000000000e-01 -1.38707870e-01  -8.36976820e-01  -1.26643660e-01
C     7.454431248600000e+00   5.473966653465711e+00   1.971420000000000e-01 -6.97888940e-01   9.48152680e-01  -4.61409460e-01
C     6.096298579600000e+00   8.042566585450198e+00   3.263882400000000e+00 -4.88834370e-01   1.34859370e-01   2.21287090e-01
C     2.384314239600000e+00   1.832763683166416e-01   3.224427000000000e+00  6.59227380e-01   1.38039465e+00   4.21942660e-01
C     8.653209013300000e+00   4.762418851447057e+00   1.052160000000000e-01  1.87736024e+00   2.01255130e-01   2.99873670e-01
C     9.915065092700001e+00   5.488373074216833e+00   4.304700000000000e-02 -7.54675700e-02  -1.42968778e+00  -4.30258850e-01
C     8.544307482499999e+00   8.033066680120882e+00   3.317624100000000e+00  9.14310300e-01   6.05068730e-01   9.73462000e-03
C     4.847010302700000e+00   2.213915224456936e-01   3.326132400000000e+00  7.53630950e-01   3.10868980e-01   3.51417940e-01
C     1.114829443690000e+01   4.771052815723595e+00  -7.587090000000174e-02  7.47846000e-02  -5.85636690e-01   7.17032810e-01
C     1.238700525090000e+01   5.487214842835326e+00  -8.648099999999914e-02 -8.09275140e-01   2.18095050e-01  -2.71743640e-01
C     1.103385000850000e+01   8.053337778659774e+00   3.431013900000000e+00 -4.75160000e-03   6.56937050e-01  -1.06368243e+00
C     7.362506123499999e+00   2.198698707781576e-01   3.335544000000000e+00 -9.61911890e-01  -9.09850470e-01   4.80295930e-01
