52
Lattice="8.88768389401873 1.33226762955019e-15 0 4.44384194700937 7.69696003302603 0 0 0 30 " PBC="1 1 1" Properties=species:S:1:pos:R:3:force:R:3 Energy="-418.33029749"
C     1.221256194916486e+01   6.459640223401369e+00  -2.859839999999991e-01 -1.45851078e+00  -1.77612685e+00   1.37408400e+00
C     8.417899098919214e+00   6.205380231223154e+00  -1.495085999999972e-01  1.65680786e+00   2.70691407e+00  -3.01475450e-01
C     9.845318590298000e+00   5.848913769228976e+00  -1.956860999999996e-01 -2.26967390e+00  -1.15661143e+00   8.86585360e-01
C     1.017291217399355e+01   4.434173800006024e+00  -1.068435000000001e-01 -1.15025875e+00   1.42859546e+00  -4.15068770e-01
C     6.053640046573792e+00   5.632918136265502e+00  -2.236133999999979e-01 -7.35387530e-01   2.47164805e+00  -1.98100980e-01
C     7.375588548893603e+00   5.266637665385071e+00  -2.569499999999998e-01  2.39586307e+00  -1.00123154e+00   6.50300530e-01
C     7.737373052534613e+00   3.883648579921074e+00  -2.225994000000000e-01  1.11857817e+00   7.50021600e-01   2.15366530e-01
C     9.110683835528269e+00   3.465305871397724e+00  -1.686993000000001e-01  4.67735540e-01   9.52538690e-01   2.32497620e-01
C     9.458026297246118e+00   2.103704174829887e+00  -1.101413999999998e-01 -1.87713340e-01  -1.69128149e+00  -1.58859650e-01
C     3.669204574197217e+00   5.045294954288757e+00  -1.133835000000012e-01 -7.37416570e-01   1.59430995e+00  -6.78506910e-01
C     5.041630810503729e+00   4.707012098547851e+00  -1.791309000000005e-01 -1.71905398e+00  -3.23954899e+00   1.13614956e+00
C     5.345912310420633e+00   3.285934221527397e+00   2.735400000000000e-03  1.21962773e+00   1.86403324e+00  -3.93190950e-01
C     6.744539261075592e+00   2.939040006904928e+00  -7.812240000000159e-02 -1.60706600e+00  -2.30799797e+00  -4.99366400e-01
C     7.073006104158354e+00   1.534454406140755e+00  -1.593128999999998e-01 -2.00119270e-01  -6.70956030e-01   4.27497860e-01
C     8.424473759753454e+00   1.089385466335635e+00  -2.213892000000008e-01  7.21130730e-01   1.11623158e+00   3.76301630e-01
C     2.630298540328798e+00   4.054658560293211e+00   1.202130000000000e-02  4.15441220e-01   8.41262400e-01  -6.55065170e-01
C     2.943200071578314e+00   2.699713348698518e+00   5.082600000000000e-02  1.18756910e+00  -1.63475568e+00   8.18341600e-01
C     4.336334122498133e+00   2.318667953331739e+00   1.374438000000000e-01 -6.93035340e-01   1.00888209e+00  -1.24972987e+00
C     4.704599480826757e+00   9.871646801740153e-01  -2.175629999999984e-02 -2.17106263e+00  -2.73750683e+00   8.63885470e-01
C     6.013313021950770e+00   5.496670860112058e-01  -1.017366000000024e-01  2.22005930e+00   4.28160780e-01  -2.79839990e-01
C     1.080872952653190e+01   6.864956904648349e+00  -1.479077999999987e-01  1.54353869e+00  -2.79490300e-01  -8.99841110e-01
C     1.943890535829860e+00   1.672744686394961e+00   1.964910000000000e-02 -8.33755750e-01   2.17255048e+00  -4.99146580e-01
C     2.281988517594890e+00   3.218353757919993e-01  -4.105170000000058e-02  6.76169380e-01  -9.56226430e-01  -8.48273800e-02
C     8.114068782292328e+00   7.653152320171652e+00  -2.673449999999988e-02 -1.43490200e-01  -1.23429749e+00  -5.31483380e-01
C     4.355182903598684e+00   7.396715858605755e+00  -2.663082000000010e-01 -5.52432300e-01   1.55939933e+00   1.41534050e-01
C     5.705601457035601e+00   7.025833914110590e+00  -1.875561000000019e-01  8.51377220e-01  -2.16000340e-01  -1.11488800e-02
C     1.101569226995308e+00   1.238464729403093e+00   3.465356400000000e+00  1.63895430e+00  -1.09871517e+00  -4.02113780e-01
C     3.529867996026094e+00   6.388062728450387e-01   3.582780000000000e+00 -1.44951701e+00   1.21937100e+00  -1.07504576e+00
C     4.873652427186915e+00   1.017232315744008e+00   3.666481200000000e+00  1.05348948e+00   1.65149620e+00  -2.52129180e-01
C     5.925422049086523e+00   8.824102856793199e-02   3.601861800000000e+00  1.16452720e-01  -6.53643840e-01   2.59271380e-01
C     7.287450273426378e+00   4.968589359717786e-01   3.625485000000000e+00  1.65256220e-01  -8.97027420e-01  -3.78641600e-02
C     1.273348701110105e+01   7.168142854166059e+00   3.624669000000000e+00  8.28806450e-01   3.30992200e-01  -9.06901320e-01
C     5.243742609858211e+00   7.515655596496540e+00   3.488726400000000e+00 -1.71324734e+00   2.12635108e+00   4.44719340e-01
C     6.262659885900863e+00   6.582357860183679e+00   3.425178300000000e+00  4.28967730e-01  -1.42321436e+00   1.20250510e-01
C     7.621115572392229e+00   7.000756525606446e+00   3.381352200000000e+00  6.47095470e-01  -1.75399781e+00   8.88515090e-01
C     8.658481813733689e+00   6.000931038909485e+00   3.411599100000000e+00 -3.07517850e-01   2.34361240e-01   1.06595950e-01
C     1.003733273501461e+01   6.405297453471160e+00   3.515499300000000e+00 -1.03467628e+00  -6.89727540e-01  -6.41252300e-02
C     1.101888747664687e+01   5.393490801821899e+00   3.539311500000000e+00  1.38282847e+00   8.59046000e-03  -8.46352670e-01
C     3.515735959853295e+00   5.796035653822876e+00   3.552195900000000e+00 -5.56647160e-01  -1.08712980e-01   8.79852560e-01
C     4.567258859627758e+00   4.835706963580657e+00   3.602599800000000e+00 -3.28317540e-01  -1.03521335e+00  -6.18582870e-01
C     5.930546068783290e+00   5.173877289765925e+00   3.513201000000000e+00  4.76246170e-01   1.46168826e+00  -6.44353240e-01
C     6.955304952786918e+00   4.195313577577434e+00   3.407886600000000e+00 -9.23575200e-01   4.38022530e-01   8.36584380e-01
C     8.304372045518221e+00   4.604442178279270e+00   3.408287100000000e+00  5.89466630e-01   9.44954880e-01  -5.76497550e-01
C     9.325796403854419e+00   3.645644644295820e+00   3.384156600000000e+00  5.44823020e-01  -2.21301871e+00  -3.93412800e-02
C     1.069897222787302e+01   4.004410957946963e+00   3.392043000000000e+00 -1.46026640e-01   8.71921100e-01   1.57016875e+00
C     2.835234532072818e+00   3.042888007386490e+00   3.608523900000000e+00  6.14513670e-01  -9.79085370e-01  -1.76503874e+00
C     4.240268392343934e+00   3.453301153747734e+00   3.603312900000000e+00 -1.06967540e+00  -1.74663146e+00   7.42174820e-01
C     5.250698285703065e+00   2.403122154534511e+00   3.664437000000000e+00 -6.93232320e-01   1.54993111e+00  -6.08898000e-01
C     6.615082501738040e+00   2.828886348888388e+00   3.522991800000000e+00 -4.91185710e-01  -4.77202870e-01   3.49472620e-01
C     7.645006552122711e+00   1.868073211981882e+00   3.556863600000000e+00 -4.47581090e-01  -9.24602480e-01  -3.40214240e-01
C     8.996802963657403e+00   2.211943137069364e+00   3.428791800000000e+00 -1.54079200e-01   2.24183438e+00   3.31631570e-01
C     2.481103700035995e+00   1.630179188945856e+00   3.468149100000000e+00  8.03656310e-01   8.94404030e-01   1.40990528e+00
