64
Lattice="9.86 0 0 4.93 8.53901048131456 0 0 0 30 " PBC="1 1 1" Properties=species:S:1:pos:R:3:force:R:3 Energy="-515.28936448"
C     9.853620333500000e+00   5.241532397277175e-01  -1.812506999999997e-01 -5.67381150e-01   8.52717130e-01   1.30316420e-01
C     1.239087860400000e+00   1.262768338726294e+00  -1.513631999999987e-01 -1.21142452e+00   1.54626580e-01   2.33614740e-01
C     1.247908912200000e+00   2.106205000163264e-01   3.258878400000000e+00 -1.96803000e-02  -2.86044813e+00   6.73221290e-01
C     2.480951557300000e+00   8.215391375719528e-01   3.380386200000000e+00  4.99419600e-02   3.77503126e+00  -1.07954710e-01
C     2.475840626300000e+00   5.814810820466648e-01  -1.077690000000011e-01 -2.29549841e+00  -2.08544338e+00   3.64963100e-02
C     3.664102848900000e+00   1.248912342590713e+00  -3.499379999999874e-02  1.29763099e+00   4.55718820e-01   2.65346440e-01
C     3.693198821500000e+00   1.722783789887160e-01   3.311298600000000e+00  1.26609104e+00  -1.37542224e+00   1.87874000e-02
C     4.931501875199999e+00   8.519717439721488e-01   3.386909400000000e+00  4.43534860e-01   7.89611750e-01   3.42187100e-02
C     4.868362083400000e+00   5.296015553644816e-01  -4.323809999999995e-02  2.07068095e+00   2.37824140e-01   1.96697200e-02
C     6.129474225799999e+00   1.269772547462619e+00  -6.634170000000239e-02 -1.17497378e+00   1.88403640e-01  -2.00403320e-01
C     6.155828921199999e+00   1.559137923543200e-01   3.350589600000000e+00  1.87447064e+00  -4.82236390e-01   4.04411050e-01
C     7.427466367099999e+00   8.584329570320504e-01   3.314878800000000e+00 -4.02153600e-02   6.29797690e-01   9.81386240e-01
C     7.349114912399999e+00   5.568874510126928e-01  -9.566669999999888e-02  2.12152140e-01   2.09725610e-01   5.09119200e-02
C     8.589986446799999e+00   1.258360843076938e+00  -1.858235999999991e-01  7.86809820e-01  -2.17162570e-01   5.57128840e-01
C     8.701471987800000e+00   1.682924542867568e-01   3.384723000000000e+00 -1.93445682e+00   8.13952900e-02  -4.65981090e-01
C     9.903173045299999e+00   9.213839085322872e-01   3.357544800000000e+00 -5.11728260e-01  -1.13343441e+00   7.18431700e-02
C     1.106507500160000e+01   2.692401579967299e+00  -3.256650000000150e-02  1.32984480e-01  -5.42595670e-01   5.51475360e-01
C     2.435322188800000e+00   3.396779089495792e+00   1.379559000000000e-01 -2.21388430e-01  -6.79149670e-01  -7.51959250e-01
C     2.493807567600000e+00   2.279119962383264e+00   3.541668000000000e+00  9.10686320e-01  -5.40917800e-02  -3.31953800e-01
C     3.756299912800000e+00   3.025467049981376e+00   3.539928000000000e+00 -1.14620965e+00  -1.08837912e+00   7.96127880e-01
C     3.681394725300000e+00   2.647729832031284e+00   8.152740000000000e-02 -2.47433366e+00   1.24664396e+00  -2.07550860e-01
C     4.834947282899999e+00   3.374134572993984e+00   1.323810000000000e-02  3.50594362e+00   2.09296928e+00  -9.60236500e-02
C     4.997816586999999e+00   2.266129053399411e+00   3.495001200000000e+00 -2.16964523e+00   5.76686860e-01  -3.84582890e-01
C     6.199767694099999e+00   2.966443274790996e+00   3.456222600000000e+00  8.47450200e-01   7.77908120e-01  -2.95367310e-01
C     6.107587983800000e+00   2.710660716856893e+00  -9.062670000000139e-02  8.37562600e-02  -9.90509370e-01   3.32139960e-01
C     7.356849589399999e+00   3.412153065524403e+00  -8.518619999999899e-02 -7.14282180e-01   1.09875780e-01   2.37503980e-01
C     7.432138675999999e+00   2.301120722884984e+00   3.405453300000000e+00  1.19218027e+00  -1.35367284e+00  -6.11144920e-01
C     8.695001855799999e+00   3.009517032305784e+00   3.408867300000000e+00 -2.34894832e+00   1.54978052e+00   6.06684420e-01
C     8.581950251000000e+00   2.686818262574846e+00  -1.065855000000013e-01  5.91483540e-01   2.03384410e-01   8.96357600e-02
C     9.831720829800000e+00   3.400921705040060e+00   1.563030000000000e-02  2.52723610e-01  -3.50530490e-01  -6.63246970e-01
C     9.891186243299998e+00   2.319579758009914e+00   3.472661100000000e+00  5.61970350e-01  -3.84231570e-01  -3.04282390e-01
C     1.112194861550000e+01   2.993171231494444e+00   3.582211200000000e+00  1.19454260e+00   8.30178580e-01  -1.56126750e-01
C     1.225613396390000e+01   4.815003785784993e+00   1.365279000000000e-01  2.54097116e+00   8.40964500e-02  -2.41384280e-01
C     3.646779469800000e+00   5.546195752193096e+00   2.334960000000000e-02 -1.37120130e-01  -8.06011940e-01   6.37901510e-01
C     3.726810082500000e+00   4.451713975836327e+00   3.651245400000000e+00  9.31195470e-01  -1.55446290e-01  -1.45576114e+00
C     5.006093120299999e+00   5.123392540193128e+00   3.434188500000000e+00 -2.09492916e+00  -3.37264890e-01   6.08871410e-01
C     4.898244292399999e+00   4.837623197595989e+00   3.528900000000000e-03 -1.22461610e+00  -5.44192370e-01  -5.26726380e-01
C     6.128987437599999e+00   5.554506600313070e+00  -1.259595000000004e-01  3.65437780e-01  -9.12065550e-01   8.49532660e-01
C     6.210701398799999e+00   4.379344410386545e+00   3.369241800000000e+00 -8.76263870e-01   1.27807136e+00   4.34544440e-01
C     7.390194334599999e+00   5.148230899267456e+00   3.334932600000000e+00  2.46921502e+00  -1.32326888e+00   4.28158400e-01
C     7.357646030900000e+00   4.847270657026398e+00  -1.087049999999934e-02  7.82876080e-01  -1.42162912e+00  -6.86227840e-01
C     8.626724313800000e+00   5.495770845946181e+00   3.410970000000000e-02 -1.00213476e+00   1.33643156e+00  -7.44364900e-02
C     8.660594843500000e+00   4.465569032680756e+00   3.459876000000000e+00 -4.30147610e-01  -1.67620855e+00  -4.38691890e-01
C     9.892259750799999e+00   5.141570812653475e+00   3.550260600000000e+00  2.06535240e-01   4.56522190e-01   1.95331200e-02
C     9.890710498299999e+00   4.824289959681993e+00   6.099630000000000e-02 -2.81106102e+00  -8.22631200e-01   1.82156250e-01
C     1.107049810020000e+01   5.544405121695440e+00   1.064103000000000e-01  1.74252840e-01   9.05971900e-02   1.93763060e-01
C     1.114304620540000e+01   4.422038267325078e+00   3.620850900000000e+00 -8.85476110e-01   6.95652920e-01  -1.82699000e-02
C     1.234269835490000e+01   5.191123117419439e+00   3.617759700000000e+00  1.00636629e+00  -2.36161672e+00   1.13509430e-01
C     1.347780689510000e+01   6.955996885423986e+00  -6.242700000001378e-03  1.57365516e+00   4.64489830e-01  -3.73051600e-01
C     4.903485621900000e+00   7.636335714209602e+00  -1.221005999999996e-01 -7.88098360e-01   9.04459400e-01  -3.03278140e-01
C     4.948973055700000e+00   6.534707383811807e+00   3.366237300000000e+00  1.38831259e+00   1.58085147e+00  -3.49161900e-02
C     6.194792831099999e+00   7.290147492889862e+00   3.257561100000000e+00 -3.38924900e-01  -5.47567530e-01   1.33563170e-01
C     6.160129310899999e+00   6.962637844654492e+00  -1.739876999999979e-01 -1.75696295e+00   6.43592000e-03   6.03368940e-01
C     7.360798125000000e+00   7.677390849646918e+00  -8.995439999999988e-02  1.08377770e+00   9.26772000e-03  -3.16801390e-01
C     7.463499687799999e+00   6.541460631030125e+00   3.292488900000000e+00 -2.63335272e+00   2.18721716e+00  -6.57799040e-01
C     8.662671310200000e+00   7.295208820571672e+00   3.245234100000000e+00  7.65218190e-01  -1.42654750e+00   1.55443286e+00
C     8.566660398300000e+00   6.923072851936041e+00   9.102000000000001e-03  1.67623604e+00   6.93513200e-01  -3.31475470e-01
C     9.831353544799999e+00   7.645441458815160e+00  -8.880300000001284e-03 -1.50298706e+00   2.36417100e-01   3.87396900e-01
C     9.889481794400000e+00   6.569424865670867e+00   3.507129900000000e+00  2.29251940e-01   3.59331650e-01  -1.01597854e+00
C     1.113940022390000e+01   7.270087137129616e+00   3.494838300000000e+00 -1.76956222e+00   8.79236010e-01  -6.29075100e-01
C     1.105826538980000e+01   6.961912284934006e+00   9.072179999999999e-02 -5.48425530e-01  -8.69586900e-02  -4.76315800e-01
C     1.225112444300000e+01   7.684264753083318e+00   2.266740000000000e-02  1.41777182e+00  -1.63017720e-01  -2.23855270e-01
C     1.235214591110000e+01   6.582314245820113e+00   3.494784900000000e+00  2.80197260e-01   4.55604360e-01   5.72137500e-01
C     1.357738382390000e+01   7.284671425469038e+00   3.439789800000000e+00  1.44396290e+00  -3.71468910e-01  -4.53341290e-01
