64
Lattice="9.86 0 0 4.93 8.53901048131456 0 0 0 30 " PBC="1 1 1" Properties=species:S:1:pos:R:3:force:R:3 Energy="-514.36865663"
C     9.838581171300000e+00   5.976010260308088e-01   7.813589999999999e-02 -1.05447914e+00  -2.15424960e-01  -4.40842620e-01
C     1.204412606800000e+00   1.267390846659538e+00   1.825500000000000e-03  8.09063090e-01   1.68282734e+00  -1.88058000e-01
C     1.281574501800000e+00   1.384636413176016e-01   3.688818600000000e+00 -1.74822449e+00   8.87888000e-02   8.49295800e-02
C     2.490956252800000e+00   8.262061337497968e-01   3.624255000000000e+00  1.82953529e+00  -6.53941390e-01  -1.11483390e-01
C     2.456021779800000e+00   5.775272640241104e-01   6.141600000000001e-03 -4.01953160e-01   1.16327926e+00  -5.57331850e-01
C     3.679731540500000e+00   1.320556860660637e+00  -1.616982000000000e-01 -1.05308300e-02   4.31308360e-01   1.97746930e-01
C     3.753916553600000e+00   5.685495191856480e-02   3.653349900000000e+00 -1.29074216e+00   2.14365335e+00  -1.10121090e-01
C     4.941416844699999e+00   8.106474589245032e-01   3.553724700000000e+00  9.98353160e-01   5.02103190e-01  -2.79249960e-01
C     4.947497703900000e+00   6.543734911081368e-01  -6.619469999999694e-02 -2.64506199e+00  -2.92607348e+00  -2.95847570e-01
C     6.127102057699998e+00   1.333888305382433e+00  -1.198109999999986e-02  1.99942502e+00   5.74720740e-01  -6.78314700e-02
C     6.184391467799999e+00   9.320739811423040e-02   3.543572700000000e+00  4.86745690e-01   1.45982783e+00  -8.83516400e-02
C     7.444559958899999e+00   7.860938758496824e-01   3.630094800000000e+00 -1.00703500e+00   1.59742030e+00  -5.26223550e-01
C     7.366666698400000e+00   5.947485695799648e-01  -7.820399999999950e-03  7.05972900e-01   1.50785290e+00  -1.36596850e-01
C     8.632631045400000e+00   1.339746664302446e+00   1.836600000000000e-03 -1.89357138e+00  -7.78261000e-03   6.35676440e-01
C     8.665433885000001e+00   1.073582462816864e-01   3.657080100000000e+00  8.68628280e-01  -1.54747285e+00  -6.35389910e-01
C     9.885508165100001e+00   8.211849394172425e-01   3.626765400000000e+00  7.80863450e-01   2.09982408e+00   1.59909000e-03
C     1.105074073080000e+01   2.705203947599754e+00  -1.701791999999998e-01 -1.59773415e+00  -1.15809470e-01  -3.66128460e-01
C     2.381920330200000e+00   3.396441115460993e+00  -4.075799999999994e-01  1.84325920e+00   1.11424284e+00   8.53875810e-01
C     2.508557979700000e+00   2.227932095549960e+00   3.418054500000000e+00 -5.69115880e-01   1.16954660e-01  -5.56318120e-01
C     3.725500428000000e+00   2.926986300555117e+00   3.274060200000000e+00  6.70193550e-01   2.07685828e+00   6.42980080e-01
C     3.647327883000000e+00   2.759703669647725e+00  -3.593228999999987e-01  8.46773010e-01  -1.83384964e+00   1.58547411e+00
C     4.901764361700000e+00   3.463165711862656e+00  -1.217028000000013e-01 -1.47423039e+00   1.87727550e-01  -8.63614240e-01
C     4.953921000899999e+00   2.255397651978671e+00   3.422805300000000e+00  7.92653310e-01  -1.20752602e+00   8.10148840e-01
C     6.226745492200000e+00   2.956660045093956e+00   3.589305000000000e+00 -1.62401872e+00  -1.51614522e+00  -1.20129428e+00
C     6.113349822699999e+00   2.760504885001063e+00   1.062870000000000e-02 -1.05357150e-01  -6.60069390e-01   2.93961600e-02
C     7.322489658599999e+00   3.472753056659286e+00   6.641820000000001e-02  1.09397902e+00  -1.52633101e+00  -5.76022170e-01
C     7.458205163600000e+00   2.255045759356790e+00   3.574393800000000e+00 -1.42375943e+00  -2.28972384e+00   7.81585460e-01
C     8.639795617199999e+00   2.956780445141723e+00   3.523675800000000e+00  2.15838079e+00   9.45078290e-01  -7.22280830e-01
C     8.571218035399999e+00   2.798010183001634e+00  -1.207799999999537e-03  4.60615960e-01  -2.44216435e+00   1.78200760e-01
C     9.796623765400000e+00   3.471700367447312e+00  -1.417664999999992e-01  7.31785730e-01  -7.59098610e-01  -1.17379970e-01
C     9.912860840399999e+00   2.306610111162157e+00   3.493040700000000e+00 -1.25571264e+00  -3.16688443e+00   2.03681340e-01
C     1.113271041110000e+01   2.946683662979857e+00   3.317415900000000e+00  5.99883720e-01   2.22918348e+00  -1.25479470e-01
C     1.231246917250000e+01   4.822878802810068e+00  -3.679197000000016e-01 -2.16008760e+00   9.17272910e-01  -5.48332110e-01
C     3.636051987000000e+00   5.578187838077254e+00  -2.373072000000001e-01  1.72377253e+00  -5.61211960e-01  -3.85348400e-02
C     3.751432326600000e+00   4.410503430408275e+00   3.252235200000000e+00 -1.22987156e+00  -1.42443405e+00   5.31833730e-01
C     4.961018475400000e+00   5.072575266414656e+00   3.468840300000000e+00  1.42440231e+00  -3.30099670e-01   3.18825480e-01
C     4.902366314700000e+00   4.886560181266764e+00  -1.047089999999997e-01  1.05230620e-01  -1.42844370e-01  -7.59652900e-02
C     6.171270420699999e+00   5.571938563257467e+00   2.854200000000000e-03 -2.98152373e+00   8.14760140e-01  -2.20169020e-01
C     6.186122785200000e+00   4.333035990311829e+00   3.591930600000000e+00  7.73049040e-01   2.00525909e+00  -3.66663600e-02
C     7.432969528899999e+00   5.071098615332350e+00   3.646250400000000e+00 -1.06516280e+00   8.51842320e-01  -3.74036040e-01
C     7.364991730900000e+00   4.837914121683043e+00  -6.673200000001600e-03 -9.03627700e-02   2.48386912e+00   2.99072820e-01
C     8.575843903699999e+00   5.576465605053543e+00  -9.406440000000060e-02 -2.28802640e-01   1.03000357e+00  -1.81359470e-01
C     8.642209690300000e+00   4.369096146178764e+00   3.421180800000000e+00  5.36687490e-01   1.42001016e+00   1.01863440e+00
C     9.882714777800000e+00   5.128189500110476e+00   3.325275600000000e+00  7.21527880e-01  -2.34498190e+00  -4.08053770e-01
C     9.768392761299999e+00   4.881957825398254e+00  -2.718951000000018e-01  2.75555928e+00  -1.65698800e-01   6.72506700e-02
C     1.106433885400000e+01   5.552323858454173e+00  -4.133585999999987e-01 -7.75131420e-01   2.23247700e-02   8.06712540e-01
C     1.113192777360000e+01   4.425746759576542e+00   3.158894700000000e+00  1.70922700e-02  -1.24589668e+00   1.27827268e+00
C     1.237816995140000e+01   5.149669893313545e+00   3.257631600000000e+00 -6.19371570e-01  -1.64810005e+00  -8.29502510e-01
C     1.351359075780000e+01   6.997838463726510e+00  -1.760754000000020e-01 -1.23091385e+00   3.87982710e-01   8.39391010e-01
C     4.841706263599999e+00   7.706723546107185e+00   4.390110000000001e-02  1.28725982e+00  -4.36124000e-03  -5.56647540e-01
C     5.011221306300000e+00   6.477930136888610e+00   3.613011300000000e+00 -1.47326300e+00   1.35088306e+00  -3.29206940e-01
C     6.177030435500000e+00   7.279856106679156e+00   3.759110700000000e+00  1.86247477e+00  -2.75312165e+00  -1.56642040e-01
C     6.069138864499999e+00   7.005587871907425e+00   2.178690000000000e-02  2.12900602e+00  -3.47901850e-01   5.26953590e-01
C     7.330730104299999e+00   7.716163849143349e+00   5.252430000000000e-02  1.07095700e-02  -4.00194940e-01  -1.20368490e-01
C     7.412508352700000e+00   6.519458418896623e+00   3.762734700000000e+00  1.24716669e+00  -2.10496340e-01  -3.88409250e-01
C     8.709678268599999e+00   7.196609720460160e+00   3.711863100000000e+00 -1.55390888e+00  -4.24743190e-01  -6.45242580e-01
C     8.561269837699999e+00   7.023013430593960e+00  -4.222409999999854e-02  1.09095171e+00  -8.89696270e-01  -2.28611470e-01
C     9.836777530799999e+00   7.706669067220323e+00  -1.102986000000001e-01 -5.87898980e-01   7.56337780e-01  -3.56844270e-01
C     9.939561868300000e+00   6.510643769158329e+00   3.449566500000000e+00 -1.99744304e+00   6.07999670e-01   1.68947220e-01
C     1.112134192970000e+01   7.252254779983814e+00   3.356634600000000e+00  1.24788765e+00  -6.95113020e-01   9.40996160e-01
C     1.104878406310000e+01   6.967527623615760e+00  -3.158643000000012e-01  5.47645840e-01   1.54674196e+00   1.25815807e+00
C     1.229165900160000e+01   7.735932085355073e+00  -1.339502999999986e-01 -7.58035010e-01  -1.57161959e+00  -9.59314450e-01
C     1.236953929620000e+01   6.549758158293750e+00   3.350031000000000e+00  7.49270910e-01  -1.02202940e-01  -7.72545000e-03
C     1.363903746720000e+01   7.178102439926018e+00   3.522138300000000e+00 -1.07840644e+00   2.00351488e+00   3.87854310e-01
