64
Lattice="7.10842262195238 0 0 0 7.10842262195238 0 0 0 7.10842262195238 " PBC="1 1 1" Properties=species:S:1:pos:R:3:force:R:3 Energy="-511.65826027"
C     9.040562972342200e-03   1.334812491160980e-02   7.072138529746924e+00  7.23519000e-03  -3.95687430e-01   1.34645749e+00
C     1.743368441487444e+00   1.758443699843035e+00   7.099638600000013e+00  1.11693791e+00   1.58528754e+00  -5.21513300e-02
C     7.065334489783512e+00   1.815133583490214e+00   1.768996721896235e+00  1.96298540e+00  -1.58898178e+00   9.26566880e-01
C     1.757563108448870e+00   2.117471146890840e-02   1.733977575448388e+00  9.91905720e-01  -3.27651580e-01   1.80724777e+00
C     8.523759322600339e-01   9.125090647401144e-01   9.095210392917973e-01  6.46818290e-01  -2.97925190e-01  -1.74326332e+00
C     2.693037283063192e+00   2.710335913845867e+00   8.483234205243720e-01 -1.11528852e+00  -2.23045890e+00   1.54772804e+00
C     9.461729904154580e-01   2.630002634638080e+00   2.722584934451972e+00 -2.06376606e+00   1.37209704e+00  -1.99877241e+00
C     2.648269859086956e+00   8.852215363233631e-01   2.670877628556056e+00  1.86625363e+00   9.53562890e-01  -1.11366552e+00
C     3.554747711570905e+00   1.163222277536800e-02   7.090048484874918e+00 -3.53481500e-01  -8.35334330e-01  -5.49758400e-02
C     5.288301909368046e+00   1.710076144146674e+00   6.744954754594160e-02  2.08835374e+00   1.35214577e+00  -3.18485377e+00
C     3.565260997541659e+00   1.770182620041930e+00   1.761556691361012e+00 -7.67155760e-01  -1.16106260e-01  -2.15030750e-01
C     5.347203934134568e+00   7.067782985954972e+00   1.813425998208438e+00 -1.82706130e-01  -1.47393250e-01  -2.60116780e-01
C     4.445375061128326e+00   8.010426004781565e-01   9.007917541459849e-01 -3.81356430e-01   1.88190160e+00   6.39215780e-01
C     6.188499115046095e+00   2.641772121054240e+00   8.623042661333880e-01 -1.51581400e-02   5.75381840e-01   1.55141331e+00
C     4.429753520494388e+00   2.677780475593886e+00   2.638963583277078e+00 -7.57479750e-01   3.06145940e-01   1.68384070e-01
C     6.215423829572321e+00   9.316277360504139e-01   2.660705120365706e+00 -3.67601830e-01  -1.72473631e+00   7.11372100e-02
C     1.909691953708240e-02   3.527951588409874e+00   4.221414965535820e-02 -1.64982999e+00   9.07891260e-01  -1.21312778e+00
C     1.766228773212233e+00   5.386428778825539e+00   3.737807649429360e-02  2.43842940e-01  -3.80609380e+00  -5.61740870e-01
C     4.338910083021800e-03   5.324473899796404e+00   1.767360931682921e+00 -5.37002300e-02  -7.08791050e-01   6.56629990e-01
C     1.780760023984716e+00   3.552649091960802e+00   1.829188498862931e+00  1.05102196e+00  -4.87413380e-01  -1.20758767e+00
C     8.649471065792779e-01   4.368157261386433e+00   9.538612470685714e-01  9.60662060e-01   2.85054325e+00  -8.47545320e-01
C     2.682723388346929e+00   6.190274159258535e+00   8.908511227014982e-01 -8.13143970e-01   2.41599805e+00  -5.10869870e-01
C     8.995909993970146e-01   6.254728288596635e+00   2.621296380781556e+00 -2.92997470e-01  -2.50695079e+00   7.32872450e-01
C     2.703992073162874e+00   4.451769655948826e+00   2.669311998474001e+00 -2.16111377e+00  -2.74380750e-01   2.98323200e-02
C     3.562015576110272e+00   3.572464033266731e+00   7.076601979394249e+00 -1.35895290e-01  -7.64331700e-02   1.19011452e+00
C     5.329902104561715e+00   5.367520872245922e+00   7.098220825108454e+00  5.78046390e-01  -1.07648298e+00   9.61891590e-01
C     3.559648329209359e+00   5.336686383110243e+00   1.752548258458912e+00  1.89903570e-01  -6.76218770e-01   1.60286965e+00
C     5.294102595478645e+00   3.547318628006517e+00   1.765594772998755e+00  1.18611116e+00   8.87804460e-01  -8.98070310e-01
C     4.461667281436461e+00   4.458407358822929e+00   8.745082904243088e-01 -1.02298564e+00  -1.10165130e-01  -5.04628630e-01
C     6.243264819774265e+00   6.173367202562222e+00   9.199468205800989e-01 -7.79363580e-01   2.28284413e+00  -1.96239002e+00
C     4.432962262465056e+00   6.156803867015360e+00   2.714097122422561e+00  1.29977913e+00   2.55667027e+00  -9.08050650e-01
C     6.203784711627011e+00   4.441637239262051e+00   2.620153062087355e+00  4.88915410e-01  -1.35048166e+00   2.16012364e+00
C     3.572913569913220e-02   7.052923041720540e+00   3.547806905556285e+00 -5.53525550e-01   2.73707395e+00  -1.31983568e+00
C     1.841452233903859e+00   1.805607657421378e+00   3.554503963759266e+00 -1.81510727e+00  -2.74012412e+00   5.89562300e-01
C     7.091029731533384e+00   1.767731920259458e+00   5.263692763510285e+00  7.15110810e-01   6.57928740e-01   1.43693756e+00
C     1.750874153847676e+00   7.085326644065358e+00   5.329766902363483e+00  1.94454255e+00   6.90474130e-01  -1.14713669e+00
C     9.073108174465608e-01   8.342420618195092e-01   4.407097200498793e+00 -2.41440310e-01   1.91553068e+00   1.13358303e+00
C     2.668398423998879e+00   2.690199174247931e+00   4.429824391467910e+00  2.55998520e-01   3.65891560e-01   1.60600635e+00
C     8.937163146069417e-01   2.726057185649164e+00   6.241964973613972e+00 -8.06409080e-01  -3.47032745e+00  -7.99570540e-01
C     2.644237748524213e+00   8.852895639278365e-01   6.175288182691051e+00  2.58424770e-01   8.82951020e-01   1.61686352e+00
C     3.594728821344417e+00   5.123658615001940e-02   3.574216472695240e+00 -1.70904227e+00  -1.64183532e+00  -1.11549775e+00
C     5.304242191672265e+00   1.846182178315207e+00   3.478631290829755e+00  5.76792480e-01  -2.83860562e+00   2.92537932e+00
C     3.585836824404832e+00   1.858871352449943e+00   5.334945317157926e+00 -1.67946383e+00  -3.27820689e+00  -3.60960580e-01
C     5.356076098575043e+00   7.096514590426976e+00   5.292360036757578e+00  3.78228520e-01   1.38048430e+00   5.96998020e-01
C     4.437416400078748e+00   9.113182617828119e-01   4.477020336948041e+00  1.05759184e+00   7.58153540e-01  -2.07198185e+00
C     6.178710390592997e+00   2.637378618285497e+00   4.412111055309584e+00  5.89948330e-01   1.60355242e+00   2.88487010e-01
C     4.450833547773997e+00   2.630997174046844e+00   6.244542629824436e+00 -1.31114950e-01   1.89779355e+00   2.48165650e-01
C     6.268603858466648e+00   9.193082709761444e-01   6.179601786789545e+00 -2.08078751e+00  -1.96533836e+00   1.06808004e+00
C     2.143758093739600e-03   3.485013659163348e+00   3.561901414842994e+00 -4.80640790e-01   2.02138392e+00  -1.67185800e-01
C     1.744823819934663e+00   5.302068507119296e+00   3.557709791276659e+00  1.51665819e+00   1.53778785e+00  -6.52588970e-01
C     7.073444489150670e+00   5.347936883590918e+00   5.339127984111761e+00  1.97220659e+00  -1.61965110e+00   4.93706020e-01
C     1.750693528828902e+00   3.560300669153197e+00   5.387563211991464e+00  5.55403210e-01   7.58320440e-01  -1.89694519e+00
C     8.213224326234330e-01   4.404308210883835e+00   4.477567045731746e+00  1.80742796e+00   9.88641240e-01  -6.94871410e-01
C     2.691565697412400e+00   6.277377500169609e+00   4.383187665595292e+00 -1.46556509e+00  -2.40947686e+00   2.70154238e+00
C     9.169147229115379e-01   6.200331013412859e+00   6.219728477058315e+00 -1.45371148e+00   1.02678625e+00   1.76491530e-01
C     2.632375568277089e+00   4.442395636871379e+00   6.249303851295313e+00  1.21376979e+00   1.51347586e+00  -1.03210341e+00
C     3.532754109816173e+00   3.562202243288273e+00   3.561661150158439e+00  1.16667760e+00   9.45345970e-01  -1.39602310e-01
C     5.345546178895359e+00   5.286184239185322e+00   3.593402318599299e+00 -1.19969090e-01   7.37077580e-01  -1.43068316e+00
C     3.568185260439074e+00   5.355871020582456e+00   5.332494475207003e+00 -1.45634466e+00   6.83924860e-01   1.95927680e-01
C     5.307637032147125e+00   3.579917783057611e+00   5.358583878991153e+00  1.24204597e+00  -1.37465119e+00   8.18746300e-02
C     4.424214282167752e+00   4.486155584109683e+00   4.490638510834986e+00  8.11369140e-01  -2.26667568e+00  -7.99531990e-01
C     6.290927504283627e+00   6.189818651537045e+00   4.401449700895655e+00 -3.00277583e+00   5.91439680e-01   1.25598002e+00
C     4.456547013539049e+00   6.261154586982020e+00   6.213805597162877e+00  7.58231600e-02  -1.05910507e+00  -3.98246510e-01
C     6.234054578753984e+00   4.460598743348223e+00   6.252009743449841e+00 -9.13565670e-01  -2.14757780e-01  -5.44860600e-01
