64
Lattice="7.10842262195238 0 0 0 7.10842262195238 0 0 0 7.10842262195238 " PBC="1 1 1" Properties=species:S:1:pos:R:3:force:R:3 Energy="-513.70098889"
C     1.278456916629620e-02   2.096700335995200e-03   7.079265149928831e+00  5.06897800e-02  -8.70544240e-01   1.62247924e+00
C     1.787633513237125e+00   1.747437871268942e+00   4.431369336040140e-02 -3.49193320e-01   1.29864421e+00  -1.34157571e+00
C     7.078614729259102e+00   1.794302635339209e+00   1.775872272591204e+00  1.27023514e+00  -1.24254960e+00   7.46450400e-02
C     1.811948228229966e+00   7.064626348722109e+00   1.756813809620495e+00 -1.97370011e+00   1.02664580e+00   8.05245570e-01
C     8.746702202915924e-01   8.739909394260251e-01   8.945851771037844e-01  6.44477470e-01  -2.51685190e-01  -2.70064090e-01
C     2.677287719737867e+00   2.672883767587873e+00   9.254362288641678e-01 -1.05724471e+00  -2.85084250e-01  -1.62765776e+00
C     8.891257663631719e-01   2.619613817147402e+00   2.663042796228519e+00 -8.58764820e-01   2.00284664e+00   2.46257830e-01
C     2.639367057344990e+00   8.802459959104942e-01   2.624652835774268e+00  1.64224869e+00   6.44731600e-01   1.01097078e+00
C     3.503299436595262e+00   1.812008010064200e-03   7.107882450965106e+00  2.57744176e+00   6.46262430e-01  -4.26699960e-01
C     5.316461356903367e+00   1.786620705182227e+00   2.422088381425700e-02  7.39617760e-01   6.49268000e-02  -1.58021153e+00
C     3.537765263426368e+00   1.819269974612792e+00   1.777967195821544e+00  5.13336900e-01  -1.83688005e+00  -4.02391850e-01
C     5.335949879442585e+00   9.912055585554200e-03   1.737760535798300e+00 -9.22835200e-02  -7.08884210e-01   1.23612029e+00
C     4.452586413707864e+00   9.062853563993996e-01   8.808055709391406e-01 -1.29170212e+00  -1.62293240e-01   2.42762660e-01
C     6.228275999837734e+00   2.675716900507300e+00   8.870574286334305e-01 -1.32504485e+00   2.00172210e-01   4.91767220e-01
C     4.416770484168540e+00   2.664721379146005e+00   2.635611180085260e+00  7.59265580e-01  -2.99765470e-01   1.95503553e+00
C     6.232098838438543e+00   8.777947274542134e-01   2.666409203012898e+00 -1.00961345e+00   4.54733910e-01  -5.68450710e-01
C     7.069623214402837e+00   3.580172762176991e+00   8.689477979140400e-03  2.02884125e+00  -7.77619870e-01   2.52586420e-01
C     1.812573627252073e+00   5.333978713850059e+00   3.033803689989800e-02 -1.55616210e+00  -4.00039360e-01  -7.25037050e-01
C     7.099713451690202e+00   5.319643726626114e+00   1.805582564689530e+00  2.43512980e-01   9.35595510e-01  -1.00918968e+00
C     1.778686994696045e+00   3.522425927170444e+00   1.801944118571482e+00 -4.15888520e-01   1.43945512e+00  -6.69850570e-01
C     8.607834901980652e-01   4.488374122809384e+00   8.894205526492234e-01  1.14328854e+00  -2.10348783e+00   8.03574480e-01
C     2.693305981438228e+00   6.197204658060356e+00   8.958759244831240e-01 -8.22623130e-01   8.83638640e-01  -5.29623480e-01
C     8.889359714792180e-01   6.207907525662385e+00   2.671933087146674e+00  2.28161000e-02   1.38454700e-01  -2.01575120e-01
C     2.679615230556334e+00   4.444461699905882e+00   2.672224745726773e+00 -1.02709994e+00  -2.47934700e-01  -2.89021030e-01
C     3.522603424483265e+00   3.558482050310096e+00   7.108043030232092e+00  1.05654453e+00  -5.22868700e-02   8.85295340e-01
C     5.326253777736226e+00   5.334015393310778e+00   1.103085022171600e-03 -2.69767690e-01  -2.58690400e-02   7.32691140e-01
C     3.572430481511964e+00   5.352609676284400e+00   1.763730446998208e+00 -9.81638580e-01  -1.47377196e+00   9.25238350e-01
C     5.312497842618908e+00   3.553101045470982e+00   1.796867922894314e+00  6.77567360e-01   1.65038920e-01  -6.17093420e-01
C     4.419988396004388e+00   4.444308157977290e+00   9.236294100026162e-01  9.85108480e-01  -5.62253200e-02  -1.64563030e+00
C     6.217819581247940e+00   6.203082897061739e+00   8.950135306508655e-01  1.04920600e-01   7.32639620e-01  -5.64882450e-01
C     4.410227252231057e+00   6.197525674425875e+00   2.652229676991653e+00  2.24257352e+00   1.81071675e+00  -6.40385820e-01
C     6.238805848433191e+00   4.442183237203494e+00   2.670182709160725e+00 -1.27145600e+00  -1.00317760e-01   1.59014890e-01
C     6.057371251406801e-03   1.915563510792360e-02   3.551134713605838e+00  2.67587010e-01  -7.78124160e-01  -1.70865230e-01
C     1.761245129197577e+00   1.776380809145438e+00   3.543444395510165e+00  5.58726650e-01  -1.02020650e+00  -2.15227990e-01
C     2.561911054361100e-02   1.752200514424342e+00   5.352634911184701e+00 -4.81160260e-01   1.13122537e+00  -6.08913450e-01
C     1.803459065600257e+00   7.077367840847327e+00   5.308490327198429e+00 -2.99774980e-01   8.43580190e-01   6.01262800e-02
C     9.248593092843286e-01   8.703143210785088e-01   4.421203154345921e+00 -1.18961879e+00   3.37054270e-01   1.11236190e+00
C     2.656286880286244e+00   2.654906211360761e+00   4.415074698868313e+00  2.13777850e-01   4.24729020e-01   7.12652300e-01
C     9.057717017808784e-01   2.674435394077367e+00   6.249428959533424e+00 -3.50412480e-01  -4.80919540e-01  -4.46809460e-01
C     2.674407600144922e+00   8.929328242657654e-01   6.183900107779406e+00 -1.05435930e+00  -3.34373330e-01   1.46410116e+00
C     3.606022825371525e+00   3.445580395521160e-02   3.500928635483040e+00 -2.41442608e+00  -1.45589128e+00   1.49015944e+00
C     5.305773416988839e+00   1.732049557981166e+00   3.545173803649385e+00  9.79266440e-01   1.96907211e+00   1.81503600e-01
C     3.525174683113371e+00   1.796229728711491e+00   5.311824817165245e+00  1.52058411e+00  -9.10391160e-01   1.01010340e-01
C     5.338611343955739e+00   7.093630632285816e+00   5.324346232526149e+00 -3.61355950e-01   1.16900312e+00   7.91168870e-01
C     4.460978972874167e+00   8.730846866262014e-01   4.441999910984124e+00 -7.75805300e-01   6.82480140e-01  -3.45636380e-01
C     6.191168754245261e+00   2.672041988181213e+00   4.443743322715905e+00  7.79749930e-01  -4.96490530e-01   2.96673280e-01
C     4.427195057024997e+00   2.685660233152382e+00   6.210524704702617e+00 -1.12931090e-01  -1.08892540e-01   4.05566190e-01
C     6.241999875969037e+00   8.794965549136675e-01   6.238037854453327e+00 -8.35482590e-01   3.11338760e-01  -9.06700860e-01
C     7.092018442035600e+00   3.561427354138467e+00   3.557822744112091e+00  7.14560830e-01  -8.29990090e-01   4.34782910e-01
C     1.758785046297248e+00   5.320992478734033e+00   3.542372232126390e+00  1.34374044e+00   2.71170050e-01   6.12263560e-01
C     2.371270268115320e-02   5.344030592108549e+00   5.385144713363461e+00 -6.39736440e-01  -9.65409100e-01  -2.13872058e+00
C     1.809541103078155e+00   3.546908685274022e+00   5.330159287292107e+00 -1.24071811e+00   1.98327010e-01   4.28390110e-01
C     9.123742890472392e-01   4.436466643732490e+00   4.447211522112203e+00 -9.87509270e-01   4.48593700e-02   4.43692050e-01
C     2.689793212232103e+00   6.219531715920193e+00   4.424222741190670e+00 -2.76202300e-01   6.55209200e-02  -2.14903050e-01
C     9.134669957723854e-01   6.194763128143065e+00   6.226097410473155e+00  3.57775630e-01   1.40217187e+00   8.67220400e-02
C     2.660924983877342e+00   4.442937725180380e+00   6.249378276480144e+00  5.85972870e-01   1.32620710e-01  -1.28850737e+00
C     3.545777593066727e+00   3.546621220663269e+00   3.562406752607050e+00  4.05321080e-01   4.12188680e-01  -8.05363060e-01
C     5.322801998796180e+00   5.347274734023864e+00   3.525975233668836e+00  4.04631210e-01  -4.82630360e-01   7.03672820e-01
C     3.566376166882284e+00   5.350896475348754e+00   5.331375964907745e+00 -3.41310660e-01  -5.33286750e-01  -2.25029350e-01
C     5.313763141845267e+00   3.596490786059236e+00   5.343376546143282e+00  5.94413550e-01  -1.30347817e+00  -6.63391840e-01
C     4.442050878374308e+00   4.451336468674363e+00   4.408540423543331e+00  6.73136500e-02   2.21699270e-01   1.61645621e+00
C     6.205598781079636e+00   6.249980004454927e+00   4.430641291395400e+00  9.01175820e-01  -1.27593914e+00   6.48946470e-01
C     4.428287763750143e+00   6.249801796299844e+00   6.232276193582912e+00  5.71889870e-01  -1.18040651e+00  -4.70220840e-01
C     6.231115530337519e+00   4.440490082019636e+00   6.253704533570902e+00 -1.26747241e+00   9.71833720e-01  -1.38526012e+00
