64
Lattice="7.10842262195238 0 0 0 7.10842262195238 0 0 0 7.10842262195238 " PBC="1 1 1" Properties=species:S:1:pos:R:3:force:R:3 Energy="-515.36256422"
C     0.000000000000000e+00   0.000000000000000e+00   0.000000000000000e+00 -1.16500000e-05  -5.03000000e-06   2.76000000e-06
C     1.777105655000000e+00   1.777105655000000e+00   0.000000000000000e+00  4.13600000e-05   3.56500000e-05   2.78000000e-06
C     0.000000000000000e+00   1.777105655000000e+00   1.777105655000000e+00 -5.47300000e-05   4.65100000e-05   8.11300000e-05
C     1.777105655000000e+00   0.000000000000000e+00   1.777105655000000e+00  9.90800000e-05  -8.46900000e-05   8.27300000e-05
C     8.885528275000000e-01   8.885528275000000e-01   8.885528275000000e-01  9.00000000e-08  -5.15000000e-06   9.20000000e-07
C     2.665658482500000e+00   2.665658482500000e+00   8.885528275000000e-01  1.67240000e-04   1.47770000e-04   7.38000000e-06
C     8.885528275000000e-01   2.665658482500000e+00   2.665658482500000e+00 -4.75500000e-05   1.60520000e-04   2.08880000e-04
C     2.665658482500000e+00   8.885528275000000e-01   2.665658482500000e+00  2.09440000e-04  -8.55000000e-05   1.98740000e-04
C     3.554211310000000e+00   0.000000000000000e+00   0.000000000000000e+00  2.07300000e-04  -1.87340000e-04  -1.79940000e-04
C     5.331316965000000e+00   1.777105655000000e+00   0.000000000000000e+00 -4.10800000e-05   1.15550000e-04  -1.75760000e-04
C     3.554211310000000e+00   1.777105655000000e+00   1.777105655000000e+00  1.68510000e-04   1.10720000e-04   1.66280000e-04
C     5.331316965000000e+00   0.000000000000000e+00   1.777105655000000e+00 -8.50000000e-06  -2.81910000e-04   1.55010000e-04
C     4.442764137500000e+00   8.885528275000000e-01   8.885528275000000e-01  8.26300000e-05  -8.61400000e-05  -7.46700000e-05
C     6.219869792500000e+00   2.665658482500000e+00   8.885528275000000e-01 -4.95600000e-05   3.67760000e-04  -7.76200000e-05
C     4.442764137500000e+00   2.665658482500000e+00   2.665658482500000e+00  5.27600000e-05   3.46580000e-04   3.71720000e-04
C     6.219869792500000e+00   8.885528275000000e-01   2.665658482500000e+00 -1.35900000e-05  -1.68500000e-04   3.91740000e-04
C     0.000000000000000e+00   3.554211310000000e+00   0.000000000000000e+00 -1.67500000e-05   3.94790000e-04  -3.81480000e-04
C     1.777105655000000e+00   5.331316965000000e+00   0.000000000000000e+00  3.75300000e-05  -1.09170000e-04  -3.66850000e-04
C     0.000000000000000e+00   5.331316965000000e+00   1.777105655000000e+00 -5.60500000e-05  -1.19690000e-04   2.36610000e-04
C     1.777105655000000e+00   3.554211310000000e+00   1.777105655000000e+00  8.49000000e-05   3.17410000e-04   2.39730000e-04
C     8.885528275000000e-01   4.442764137500000e+00   8.885528275000000e-01 -1.39300000e-05   1.62340000e-04  -1.61740000e-04
C     2.665658482500000e+00   6.219869792500000e+00   8.885528275000000e-01  1.74010000e-04  -2.34790000e-04  -1.40280000e-04
C     8.885528275000000e-01   6.219869792500000e+00   2.665658482500000e+00 -3.96700000e-05  -2.29000000e-04   5.79530000e-04
C     2.665658482500000e+00   4.442764137500000e+00   2.665658482500000e+00  2.07600000e-04   9.85500000e-05   5.60350000e-04
C     3.554211310000000e+00   3.554211310000000e+00   0.000000000000000e+00  2.09670000e-04   2.06920000e-04  -5.54820000e-04
C     5.331316965000000e+00   5.331316965000000e+00   0.000000000000000e+00 -3.62200000e-05  -4.99200000e-05  -5.62740000e-04
C     3.554211310000000e+00   5.331316965000000e+00   1.777105655000000e+00  1.79430000e-04  -3.53500000e-05   3.13860000e-04
C     5.331316965000000e+00   3.554211310000000e+00   1.777105655000000e+00 -1.69000000e-06   1.25240000e-04   3.09120000e-04
C     4.442764137500000e+00   4.442764137500000e+00   8.885528275000000e-01  9.47700000e-05   9.23900000e-05  -2.26990000e-04
C     6.219869792500000e+00   6.219869792500000e+00   8.885528275000000e-01 -5.74500000e-05  -4.12700000e-05  -2.33510000e-04
C     4.442764137500000e+00   6.219869792500000e+00   2.665658482500000e+00  3.99700000e-05  -3.68400000e-05   7.60290000e-04
C     6.219869792500000e+00   4.442764137500000e+00   2.665658482500000e+00 -2.24000000e-06  -9.17000000e-06   7.67060000e-04
C     0.000000000000000e+00   0.000000000000000e+00   3.554211310000000e+00 -2.58000000e-06   5.70000000e-07   7.71100000e-04
C     1.777105655000000e+00   1.777105655000000e+00   3.554211310000000e+00  4.02000000e-05   2.62100000e-05   7.63150000e-04
C     0.000000000000000e+00   1.777105655000000e+00   5.331316965000000e+00 -4.78100000e-05   4.13800000e-05  -2.41350000e-04
C     1.777105655000000e+00   0.000000000000000e+00   5.331316965000000e+00  8.29200000e-05  -8.09100000e-05  -2.32810000e-04
C     8.885528275000000e-01   8.885528275000000e-01   4.442764137500000e+00  1.91000000e-06   2.93000000e-06   3.20840000e-04
C     2.665658482500000e+00   2.665658482500000e+00   4.442764137500000e+00  1.52610000e-04   1.50580000e-04   3.14720000e-04
C     8.885528275000000e-01   2.665658482500000e+00   6.219869792500000e+00 -5.48500000e-05   1.59930000e-04  -5.65140000e-04
C     2.665658482500000e+00   8.885528275000000e-01   6.219869792500000e+00  2.03830000e-04  -9.72100000e-05  -5.60370000e-04
C     3.554211310000000e+00   0.000000000000000e+00   3.554211310000000e+00  1.99650000e-04  -1.93580000e-04   5.61210000e-04
C     5.331316965000000e+00   1.777105655000000e+00   3.554211310000000e+00 -3.86400000e-05   1.24850000e-04   5.78670000e-04
C     3.554211310000000e+00   1.777105655000000e+00   5.331316965000000e+00  1.68930000e-04   1.11940000e-04  -1.48620000e-04
C     5.331316965000000e+00   0.000000000000000e+00   5.331316965000000e+00  1.41000000e-06  -2.76030000e-04  -1.52610000e-04
C     4.442764137500000e+00   8.885528275000000e-01   4.442764137500000e+00  8.73100000e-05  -8.95600000e-05   2.30990000e-04
C     6.219869792500000e+00   2.665658482500000e+00   4.442764137500000e+00 -4.05100000e-05   3.56870000e-04   2.37800000e-04
C     4.442764137500000e+00   2.665658482500000e+00   6.219869792500000e+00  5.08500000e-05   3.47390000e-04  -3.73750000e-04
C     6.219869792500000e+00   8.885528275000000e-01   6.219869792500000e+00 -3.41000000e-06  -1.66360000e-04  -3.70620000e-04
C     0.000000000000000e+00   3.554211310000000e+00   3.554211310000000e+00 -7.77000000e-06   3.97610000e-04   3.90910000e-04
C     1.777105655000000e+00   5.331316965000000e+00   3.554211310000000e+00  3.65700000e-05  -1.23520000e-04   3.96990000e-04
C     0.000000000000000e+00   5.331316965000000e+00   5.331316965000000e+00 -5.05200000e-05  -1.28130000e-04  -7.45600000e-05
C     1.777105655000000e+00   3.554211310000000e+00   5.331316965000000e+00  6.64500000e-05   3.14590000e-04  -8.28200000e-05
C     8.885528275000000e-01   4.442764137500000e+00   4.442764137500000e+00 -1.29000000e-05   1.68310000e-04   1.57850000e-04
C     2.665658482500000e+00   6.219869792500000e+00   4.442764137500000e+00  1.55330000e-04  -2.28440000e-04   1.52350000e-04
C     8.885528275000000e-01   6.219869792500000e+00   6.219869792500000e+00 -5.03300000e-05  -2.30610000e-04  -1.92820000e-04
C     2.665658482500000e+00   4.442764137500000e+00   6.219869792500000e+00  1.99350000e-04   7.72400000e-05  -1.82870000e-04
C     3.554211310000000e+00   3.554211310000000e+00   3.554211310000000e+00  2.03000000e-04   1.95610000e-04   1.79730000e-04
C     5.331316965000000e+00   5.331316965000000e+00   3.554211310000000e+00 -3.86200000e-05  -3.37100000e-05   1.87450000e-04
C     3.554211310000000e+00   5.331316965000000e+00   5.331316965000000e+00  1.68120000e-04  -2.98200000e-05  -2.00000000e-07
C     5.331316965000000e+00   3.554211310000000e+00   5.331316965000000e+00  2.38200000e-05   1.23620000e-04   9.96000000e-06
C     4.442764137500000e+00   4.442764137500000e+00   4.442764137500000e+00  1.00360000e-04   8.08800000e-05   8.01100000e-05
C     6.219869792500000e+00   6.219869792500000e+00   4.442764137500000e+00 -3.88400000e-05  -4.47600000e-05   9.05500000e-05
C     4.442764137500000e+00   6.219869792500000e+00   6.219869792500000e+00  5.36600000e-05  -3.41400000e-05   2.38400000e-05
C     6.219869792500000e+00   4.442764137500000e+00   6.219869792500000e+00 -2.25000000e-06   9.48000000e-06   7.87000000e-06
