64
Lattice="7.10842262195238 0 0 0 7.10842262195238 0 0 0 7.10842262195238 " PBC="1 1 1" Properties=species:S:1:pos:R:3:force:R:3 Energy="-512.48676683"
C     3.095327087765900e-02   4.505453316585779e-02   1.356763300211540e-02 -9.10671540e-01  -2.02252412e+00  -1.60517702e+00
C     1.763738053010411e+00   1.726222641791099e+00   2.398239623535600e-03  1.12984766e+00   2.18393374e+00   5.76065590e-01
C     2.880475014076400e-02   1.769923660205883e+00   1.762322055224507e+00 -1.17992488e+00  -1.85535200e-01   3.00927390e-01
C     1.760836465981154e+00   7.031437692183138e+00   1.820506840148672e+00  8.12878330e-01   3.46049536e+00  -1.55530784e+00
C     9.115193590587317e-01   8.788462764123899e-01   9.015183060219752e-01 -5.05799860e-01  -6.22017680e-01   1.55531390e-01
C     2.677555991607546e+00   2.662030272510526e+00   9.128791292217115e-01 -1.99741140e-01   3.06566100e-02  -1.62002288e+00
C     8.944557327278742e-01   2.650284243889011e+00   2.648160033957477e+00  8.05748700e-02   3.97433310e-01  -1.39323820e-01
C     2.708731756113211e+00   9.043849906961687e-01   2.608334811892022e+00 -2.35630544e+00  -2.43261308e+00   3.01747885e+00
C     3.588582026136450e+00   3.060602443267200e-02   7.091784432762950e+00 -1.96277363e+00  -8.22632790e-01   1.03375937e+00
C     5.330949672803225e+00   1.791600439564442e+00   7.089382212422746e+00  2.23504770e-01  -1.52648363e+00   1.01085689e+00
C     3.563960938128687e+00   1.746240315310150e+00   1.757974970455473e+00  2.16122440e-01   1.35419670e+00   5.99956630e-01
C     5.339418292091561e+00   7.102244547732505e+00   1.752335787706800e+00 -1.41913900e-01   6.67706320e-01   2.56046500e-01
C     4.431104405129092e+00   8.617329622074186e-01   8.822271843789145e-01  1.40194630e+00   1.48733935e+00  -4.53493540e-01
C     6.202712832580142e+00   2.641140537704453e+00   8.983244917388091e-01  1.01661323e+00   8.70559070e-01  -7.33674170e-01
C     4.434321819375357e+00   2.651374107245110e+00   2.698333982010032e+00  2.78839930e-01   4.25901540e-01  -8.57856300e-01
C     6.220882245133766e+00   8.788840221365022e-01   2.616459170272873e+00 -3.06860100e-02   1.03030834e+00   1.84294114e+00
C     7.107795301703785e+00   3.549534465505623e+00   1.793391051222420e-02 -2.35639510e-01   4.35349210e-01  -6.49727770e-01
C     1.755616040409026e+00   5.311557895895865e+00   1.791997800388900e-02  1.08967861e+00   1.39443823e+00  -7.53929110e-01
C     7.105319651357917e+00   5.340838341678359e+00   1.822458884084350e+00 -4.87731350e-01  -1.20870808e+00  -1.79446626e+00
C     1.757519533818209e+00   3.568354227644752e+00   1.721132655774048e+00  2.13933234e+00  -1.89728578e+00   3.47988409e+00
C     9.312274607726817e-01   4.392826828836465e+00   8.939475515947704e-01 -3.05142846e+00   2.64695590e+00  -6.67339410e-01
C     2.668278362740827e+00   6.263185676577232e+00   9.160268098420739e-01 -4.01061900e-01  -2.13398542e+00  -9.96693360e-01
C     8.635839954576665e-01   6.190142937776970e+00   2.684200447483139e+00  5.28080690e-01   9.93084020e-01   6.57905260e-01
C     2.647190800533240e+00   4.455809799029129e+00   2.701149059536005e+00 -3.83451530e-01   4.09085650e-01  -1.74092313e+00
C     3.576904735961671e+00   3.569500887297584e+00   1.931358425854000e-02 -1.20667300e+00   8.56415400e-02  -4.77715660e-01
C     5.281852295356468e+00   5.313704781695557e+00   2.065892432360120e-02  1.62338682e+00   1.78202995e+00  -6.00137310e-01
C     3.514290479650306e+00   5.366998687520256e+00   1.815280656754222e+00  1.73527936e+00  -6.47425500e-01  -8.61690160e-01
C     5.337344836297534e+00   3.526178818892673e+00   1.782257342125393e+00 -5.63980190e-01   5.00077130e-01   8.32286970e-01
C     4.436646415740549e+00   4.469646912332768e+00   9.310129285780102e-01 -5.02485810e-01  -1.29200438e+00  -4.36756660e-01
C     6.218638898039121e+00   6.259192235833543e+00   8.770214732416097e-01  5.53234040e-01  -1.72022440e+00   1.19732240e-01
C     4.499200534796549e+00   6.230440443441297e+00   2.645999286733675e+00 -1.97901140e+00  -1.24849038e+00   6.98799970e-01
C     6.200506093861989e+00   4.410272888304277e+00   2.708859352299240e+00  1.42462517e+00   5.99686500e-02  -2.71677870e+00
C     7.088572918507460e+00   2.890647166845620e-02   3.537587339608189e+00  8.99346190e-01  -4.27582970e-01   3.20994160e-01
C     1.786487493342328e+00   1.766005639826191e+00   3.552520287342928e+00  4.95747940e-01   9.28462300e-01  -6.44697810e-01
C     7.096110334432576e+00   1.838275266582303e+00   5.325005183303023e+00  1.18008837e+00  -1.58711309e+00   3.15612660e-01
C     1.807361731787089e+00   1.271675481450140e-02   5.305757280869492e+00 -9.86074340e-01  -7.66433150e-01   7.83194740e-01
C     8.798980386232451e-01   9.208699203415321e-01   4.456315278961637e+00  4.84278770e-01  -5.41083100e-01  -1.12968496e+00
C     2.670074376799996e+00   2.687330143794273e+00   4.438795576235480e+00  3.29060390e-01  -4.41041230e-01   2.29543950e-01
C     9.122771169100238e-01   2.672154798848192e+00   6.232635666514805e+00 -1.17282448e+00  -2.08049370e-01   2.83968500e-02
C     2.659820406086420e+00   9.027063366944558e-01   6.247421256648631e+00  7.16007270e-01  -7.14737590e-01  -1.70216408e+00
C     3.548917312253755e+00   7.061527502965145e+00   3.555418249076649e+00  7.12389730e-01   8.69448840e-01  -1.92758655e+00
C     5.315387203161259e+00   1.774994169144955e+00   3.614639157681906e+00  1.42210660e-01  -5.18117830e-01  -2.68854042e+00
C     3.567278510049667e+00   1.774244372726998e+00   5.337383861537718e+00 -1.19507252e+00  -1.41712650e-01  -2.95208380e-01
C     5.334759787327545e+00   7.096290461861767e+00   5.322210151528839e+00  2.09737320e-01  -1.32971860e-01  -2.11345100e-01
C     4.393356903911238e+00   8.141833016177146e-01   4.398617278818490e+00  2.05746163e+00   2.56210325e+00   2.95248644e+00
C     6.229828621506394e+00   2.705951865279208e+00   4.449027155417803e+00 -5.46616170e-01  -1.71725798e+00  -1.74573910e-01
C     4.436958973083151e+00   2.646085156478925e+00   6.247736444107602e+00  4.72089360e-01   8.71005520e-01  -1.21178797e+00
C     6.246267488573180e+00   8.945892289046777e-01   6.191578341556625e+00 -9.28535580e-01   8.73691040e-01   6.33944550e-01
C     1.603240746137420e-02   3.545641182436649e+00   3.519101317911070e+00 -7.77612650e-01  -4.29697040e-01   1.15776248e+00
C     1.737055167021717e+00   5.327234740057786e+00   3.578678145236909e+00  7.78156070e-01  -9.51532030e-01  -3.30065340e-01
C     1.751230996663200e-03   5.333869173057485e+00   5.319157155097775e+00 -5.82520140e-01  -1.34392110e-01  -4.61382640e-01
C     1.774353842435346e+00   3.552452472991134e+00   5.333969188563747e+00  3.64596580e-01   5.10063520e-01  -5.88080100e-02
C     8.694287537885091e-01   4.400627967240783e+00   4.424489378123147e+00  3.13665660e-01   1.10914085e+00   9.29071670e-01
C     2.678628083907095e+00   6.178244149153352e+00   4.416182617617867e+00 -1.37734258e+00   2.25857499e+00   2.99147050e-01
C     9.049428597033865e-01   6.178579524532563e+00   6.180326348307202e+00 -2.24536920e-01   1.93564758e+00   1.74025927e+00
C     2.644069065655441e+00   4.523590101479579e+00   6.198777823070388e+00  7.87485310e-01  -3.12262419e+00   1.12896840e+00
C     3.552581775198591e+00   3.604333864157013e+00   3.537148039090273e+00 -1.21648630e-01  -1.48917282e+00   1.34970629e+00
C     5.354671616433784e+00   5.283653427479924e+00   3.514026472834199e+00 -6.27615510e-01   2.49437717e+00   2.42243582e+00
C     3.522806085612161e+00   5.378954130272156e+00   5.331395513069951e+00  1.65245851e+00  -1.06558661e+00   2.27756920e-01
C     5.330881929535656e+00   3.513506207382641e+00   5.340851563344432e+00 -4.98779700e-01   2.84815335e+00  -6.41624000e-03
C     4.452674344895673e+00   4.484737595965445e+00   4.467912101792357e+00 -6.12009790e-01  -1.52851320e+00  -8.58718110e-01
C     6.254666303151388e+00   6.245550461983500e+00   4.415769405010966e+00 -1.27281928e+00  -1.19613240e+00   3.87150550e-01
C     4.436350563191105e+00   6.237522493813377e+00   6.234236625457282e+00 -5.31998500e-02  -2.89533470e-01  -5.50126670e-01
C     6.174829547263608e+00   4.494001789913412e+00   6.196326199192977e+00  1.20619719e+00  -2.26307994e+00   1.42875625e+00
