64
Lattice="7.10842262195238 0 0 0 7.10842262195238 0 0 0 7.10842262195238 " PBC="1 1 1" Properties=species:S:1:pos:R:3:force:R:3 Energy="-507.65567155"
C     7.092261976594560e+00   3.250702989393860e-02   7.057595976582475e+00  2.14039640e-01  -5.50520360e-01   1.37732061e+00
C     1.730840130956599e+00   1.692587363058914e+00   7.070832712511630e+00  4.39227050e-01   3.70392013e+00   9.62976920e-01
C     7.106715390139355e+00   1.819922030219725e+00   1.808453869838426e+00 -9.80528470e-01  -1.96808045e+00  -2.60129387e+00
C     1.823333006813932e+00   7.058821895147521e+00   1.745111639966547e+00 -1.96482527e+00   2.40864561e+00   1.68636888e+00
C     8.314670047128874e-01   8.720792713308285e-01   8.952540796723264e-01  2.39195630e+00  -1.62925000e-03  -8.50541150e-01
C     2.696075778312111e+00   2.687128264591865e+00   8.152709613628008e-01 -3.01567400e-01  -2.56984184e+00   1.94235357e+00
C     8.962614853260327e-01   2.609569687069569e+00   2.632368815275600e+00  2.23500987e+00   2.88232397e+00   1.62640599e+00
C     2.658607780271674e+00   8.838963130943166e-01   2.691562001032637e+00  2.17727595e+00  -1.89383470e-01  -2.25873186e+00
C     3.579882240944511e+00   2.945495755781540e-02   7.058223152710239e+00  1.52052630e-01  -8.16154550e-01  -1.14599930e-01
C     5.366986816454482e+00   1.739079432531215e+00   7.069445930342694e+00 -2.00950897e+00   2.05749112e+00   1.18710065e+00
C     3.578805528170260e+00   1.726015146934821e+00   1.753880021436769e+00 -8.62964780e-01   1.81122430e+00  -1.05586450e-01
C     5.386816685447912e+00   7.069847840557629e+00   1.778741445213314e+00 -2.72376060e-01  -4.74618790e-01  -3.60646860e-01
C     4.486081443261756e+00   8.226286763640842e-01   8.311107305711730e-01 -2.58822570e-01   1.74998975e+00   2.15294143e+00
C     6.162750417958121e+00   2.709859578446101e+00   8.650154896048822e-01  4.73524470e-01  -2.77459914e+00   1.83602829e+00
C     4.380515467363981e+00   2.698554414195478e+00   2.727808416645827e+00  2.49197170e-01  -2.29865689e+00  -1.94883468e+00
C     6.241692436690721e+00   8.802694537051402e-01   2.653349822228113e+00 -2.24969933e+00   1.70831304e+00  -1.16222681e+00
C     7.038897270880566e+00   3.565136671230035e+00   2.994899292990540e-02  1.83613700e+00  -1.57724301e+00  -1.40649400e-02
C     1.678008556939104e+00   5.327808105426316e+00   7.065322050043927e+00  1.74200211e+00   7.11086020e-01   1.92411825e+00
C     5.505515969725720e-02   5.301456045426356e+00   1.866560533197997e+00  1.77668760e-01   8.63182100e-02  -2.54362750e+00
C     1.872131546173743e+00   3.501172241126227e+00   1.778085622142393e+00 -3.21096203e+00   1.46817767e+00  -5.71304590e-01
C     8.591639782725506e-01   4.373036482672801e+00   9.215502674704924e-01  1.23237369e+00   2.05380986e+00  -3.36007830e-01
C     2.659441811497679e+00   6.255938924053046e+00   8.641409403699436e-01 -4.84713000e-03  -9.51147880e-01  -1.72223991e+00
C     9.755910552598756e-01   6.212626309850219e+00   2.660614061471943e+00 -2.32975600e+00  -1.18763948e+00   1.87943029e+00
C     2.673891173241579e+00   4.522948068748541e+00   2.686255350294128e+00 -1.32408289e+00  -3.27203298e+00   1.15354429e+00
C     3.575491865881721e+00   3.607188180175848e+00   7.107275960347168e+00 -7.30179860e-01  -1.93287602e+00  -1.40650900e-02
C     5.409433909119097e+00   5.357422078398140e+00   7.108254647973489e+00 -6.32296330e-01  -2.01211571e+00   2.21401186e+00
C     3.463160804176491e+00   5.383245485007849e+00   1.774766273115758e+00  4.04669806e+00  -1.10666191e+00   3.60662690e-01
C     5.247853989481079e+00   3.494329460259536e+00   1.797071792455056e+00  1.97561687e+00   2.42595656e+00  -1.22416050e-01
C     4.412899876967725e+00   4.414334143399762e+00   9.235682775680842e-01  3.25670740e-01   2.50059305e+00  -4.46452370e-01
C     6.353178378030658e+00   6.193308673790786e+00   9.506149726264697e-01 -3.39762032e+00   4.54910970e-01  -2.31717410e+00
C     4.488103718412920e+00   6.171116747044955e+00   2.706828262704028e+00 -1.31781259e+00   1.51921874e+00  -1.77752747e+00
C     6.246030138341897e+00   4.418690966707786e+00   2.666941766035589e+00 -7.58503710e-01  -4.46216130e-01   6.83602430e-01
C     1.295183035054480e-02   7.330994440654820e-02   3.471910063989866e+00  2.17074287e+00  -2.76195706e+00   2.12733930e+00
C     1.845404587964806e+00   1.801431814553259e+00   3.552506283750367e+00 -2.24662491e+00  -3.79988840e-01  -6.29270700e-02
C     7.044132766308649e+00   1.818537664914480e+00   5.241024998954272e+00  7.55115460e-01   7.36203920e-01   1.26145162e+00
C     1.707960677574962e+00   7.151599178993880e-02   5.372768594160910e+00  1.03004283e+00  -1.49601722e+00  -4.96480803e+00
C     9.034476740894957e-01   9.713104342423378e-01   4.362744837319338e+00 -1.59359299e+00  -1.59720550e+00   2.16502807e+00
C     2.644837628309115e+00   2.668880872642098e+00   4.528340375979620e+00  1.04242575e+00   1.61836131e+00  -3.30928423e+00
C     8.006365673781020e-01   2.646163704548876e+00   6.266634541064003e+00  1.53617746e+00  -3.25300110e-01  -1.46071321e+00
C     2.629154315482609e+00   9.376215580035979e-01   6.095350913707424e+00  7.28892950e-01  -1.57280777e+00   5.24885487e+00
C     3.588043705291438e+00   2.957779110068900e-02   3.553684078294275e+00 -1.41303621e+00  -2.59491504e+00   6.97162670e-01
C     5.244626765611600e+00   1.733854102147479e+00   3.520302001575814e+00  2.29046058e+00   1.50830593e+00   9.41610940e-01
C     3.535186896373641e+00   1.813314467057530e+00   5.333205957227038e+00  2.08224514e+00  -1.11152514e+00  -1.73885010e-01
C     5.458034052403584e+00   7.045753060160651e+00   5.303880515129360e+00 -3.64974145e+00   2.90941143e+00  -3.72108110e-01
C     4.476042004742851e+00   8.334867919161342e-01   4.427364024230675e+00 -1.12602458e+00   1.25475112e+00   7.94929250e-01
C     6.116773709125770e+00   2.672367696105661e+00   4.369649461462823e+00  2.26818547e+00   6.38443230e-01   5.80640520e-01
C     4.476250281525617e+00   2.646448894464390e+00   6.258876906206118e+00 -1.69589632e+00   2.13867096e+00  -2.12836893e+00
C     6.177451773283900e+00   9.838908495109875e-01   6.139661479361873e+00  3.05443629e+00  -4.30719497e+00   4.40797630e-01
C     1.073926272584360e-02   3.538077607516291e+00   3.526408847448656e+00 -3.86872550e-01  -1.57019451e+00   8.80592320e-01
C     1.755335542052440e+00   5.233778957272349e+00   3.696842520712562e+00  8.64801470e-01   3.62744636e+00  -3.02607033e+00
C     7.095741762719729e+00   5.302230792407710e+00   5.328786864136863e+00  9.89859140e-01  -1.89753480e-01  -6.95278940e-01
C     1.758465451616253e+00   3.517659729803734e+00   5.379420727132933e+00  2.58103710e-01  -6.67483750e-01   2.52046724e+00
C     8.908994599753143e-01   4.313390845816000e+00   4.571351450894906e+00 -1.39026603e+00   3.59695765e+00  -4.52675686e+00
C     2.609437399324610e+00   6.268640466843141e+00   4.484579860067507e+00  1.71920145e+00  -1.31245338e+00   6.33714610e-01
C     8.314046638465099e-01   6.249154716588745e+00   6.123355468713854e+00  4.62335230e-01  -2.22579870e-01   3.73987273e+00
C     2.625563140374985e+00   4.481182247307826e+00   6.277365415851156e+00  1.09838467e+00  -8.31206070e-01  -1.50000348e+00
C     3.530542750623317e+00   3.625797461921198e+00   3.599839706123970e+00  4.38220110e-01  -8.62750850e-01   3.35482170e-01
C     5.371210570091059e+00   5.254777806365638e+00   3.575996919308871e+00 -1.20618503e+00   3.15277268e+00  -6.25677950e-01
C     3.535253715546269e+00   5.380629656567916e+00   5.424086216328798e+00  9.59973090e-01   6.94743560e-01  -1.75899776e+00
C     5.341193051967097e+00   3.656313067218144e+00   5.290028971727802e+00 -1.12475429e+00  -4.83166652e+00   1.68130285e+00
C     4.426145711677833e+00   4.513933735855666e+00   4.510211054929573e+00 -3.72957290e-01  -9.83489710e-01  -1.08696062e+00
C     6.277260140112153e+00   6.217412197547587e+00   4.382519829290143e+00  2.92942930e-01  -1.15470129e+00   4.79458430e-01
C     4.590724106145419e+00   6.255420791128275e+00   6.242854166199508e+00 -3.82232452e+00  -1.11801983e+00  -3.73443070e-01
C     6.239667957928545e+00   4.373255564257949e+00   6.221413955145742e+00 -1.04399343e+00   4.60571072e+00  -2.01066320e-01
