64
Lattice="7.10842262195238 0 0 0 7.10842262195238 0 0 0 7.10842262195238 " PBC="1 1 1" Properties=species:S:1:pos:R:3:force:R:3 Energy="-513.3271816"
C     4.580745728976820e-02   7.082725245723343e+00   7.059604390309530e+00 -5.72202330e-01   1.06161670e+00   1.93973372e+00
C     1.791649985270103e+00   1.809376543094502e+00   1.750420636484520e-02  4.83872140e-01  -1.55284959e+00  -3.94622410e-01
C     2.061243523966640e-02   1.775536328538182e+00   1.730456631556250e+00 -1.35310217e+00  -6.08759830e-01   1.23039164e+00
C     1.781707861056867e+00   7.100373610898922e+00   1.784454057967651e+00  2.41299130e-01  -2.09485480e-01   5.77786810e-01
C     9.224275889902528e-01   8.670811972182542e-01   9.071913248623186e-01 -5.32891710e-01   8.48566000e-01  -1.46800944e+00
C     2.677510355534326e+00   2.691269844862955e+00   9.165812668064338e-01 -1.19530184e+00  -5.27753370e-01  -1.57522940e-01
C     8.320240917936167e-01   2.678401609562421e+00   2.659817136212015e+00  1.45437126e+00  -1.14226997e+00   1.67980340e-01
C     2.678014342698084e+00   8.966720678165641e-01   2.663895949111371e+00 -1.06721987e+00   3.66122940e-01  -2.49319800e-01
C     3.521747072810234e+00   7.097323884342263e+00   1.288067504011860e-02  5.00759010e-01   1.75841340e-01  -4.53176080e-01
C     5.296544338648615e+00   1.775279074723565e+00   7.106993898137606e+00  3.34410510e-01  -9.54479610e-01  -9.65588690e-01
C     3.564559822734422e+00   1.812136032755586e+00   1.778886812455893e+00 -2.83437840e-01  -1.58980747e+00   2.08645460e-01
C     5.351636462143496e+00   3.032026584334800e-03   1.744962078754622e+00 -3.30462250e-01   8.67706100e-02   4.78364470e-01
C     4.398141156671403e+00   8.768548518153970e-01   8.819198872690518e-01  1.57886711e+00   6.45855530e-01   2.48316740e-01
C     6.216688417956419e+00   2.638300225278180e+00   8.165535340561274e-01  6.38268700e-02   7.13436670e-01   2.06200402e+00
C     4.477077488665906e+00   2.645099431514210e+00   2.663539817138109e+00 -5.22587980e-01   4.00026760e-01   2.41664510e-01
C     6.232705897730291e+00   8.691970192110973e-01   2.667699239549976e+00 -6.05358570e-01   1.44518984e+00  -1.08489471e+00
C     2.232904821817020e-02   3.555887973643379e+00   7.101236217983858e+00 -1.14382715e+00   4.96215000e-02  -2.63342310e-01
C     1.772995707209568e+00   5.316776970867695e+00   4.412780810888840e-02  7.82825610e-01   6.63835690e-01   3.00132400e-02
C     7.072050385306436e+00   5.356127990060169e+00   1.751514267304607e+00  7.59218510e-01  -1.65422718e+00   7.81285060e-01
C     1.744722027322744e+00   3.519265664642044e+00   1.798212267780209e+00  9.29785690e-01   2.13676183e+00   7.77336300e-02
C     8.646305685200092e-01   4.442136321614202e+00   9.239110457068205e-01  5.54304870e-01  -3.82728260e-01  -1.01217993e+00
C     2.691186178728718e+00   6.187617812809667e+00   9.508958974884122e-01 -1.03069201e+00   8.74481300e-01  -1.61607645e+00
C     8.496332184763331e-01   6.206742810616098e+00   2.657749580408761e+00  1.13114589e+00   7.00562050e-01   1.83444070e-01
C     2.696480958401451e+00   4.452726165296572e+00   2.670883030957247e+00 -9.62827450e-01  -1.45189971e+00  -2.41558600e-02
C     3.510832942887938e+00   3.577713461203149e+00   4.082729640219620e-02  1.42802430e+00   5.39353860e-01  -7.12792910e-01
C     5.324965518304803e+00   5.372271502167094e+00   7.101278513098447e+00 -5.13447000e-02  -1.96564488e+00   5.10283460e-01
C     3.591143119722210e+00   5.323092520028660e+00   1.800916880418666e+00 -2.18178270e-01   6.48211360e-01   4.52593410e-01
C     5.319940147849369e+00   3.534563985299451e+00   1.773064374572078e+00  1.17155428e+00   1.21660430e-01  -5.64796510e-01
C     4.462925756577106e+00   4.464441556616594e+00   9.299425422998906e-01 -6.65056090e-01  -7.40567600e-01  -1.39619704e+00
C     6.240815470592092e+00   6.214235656731388e+00   8.334032679503491e-01 -4.67646510e-01   1.04502562e+00   9.83420060e-01
C     4.492390665926589e+00   6.245443977812652e+00   2.672458115241387e+00 -6.01802670e-01  -1.16685181e+00  -4.28538430e-01
C     6.205976878078793e+00   4.412091080642021e+00   2.638273568693354e+00 -8.90370100e-02   1.03202700e+00   1.14885251e+00
C     7.081377275541912e+00   1.658849936293680e-02   3.530626203504876e+00  1.61402416e+00  -4.10468400e-01   1.27333613e+00
C     1.746443900533987e+00   1.803657959265164e+00   3.551307021770147e+00  1.01956176e+00  -8.49021170e-01  -2.56376430e-01
C     5.895370299897000e-02   1.761507856497613e+00   5.329283742878001e+00 -1.97038814e+00   5.74223620e-01   9.20124300e-01
C     1.781020832010643e+00   7.088174633588061e+00   5.312298664617095e+00  1.04239333e+00   1.58599020e-01   3.23178600e-02
C     9.113132858869780e-01   9.008442853891467e-01   4.471957505105399e+00 -5.12818240e-01  -7.92691950e-01  -2.01461392e+00
C     2.681830641550083e+00   2.680692227667490e+00   4.389194495961871e+00 -1.45406938e+00   6.61650260e-01   1.23983746e+00
C     9.401613974057239e-01   2.664194645029863e+00   6.225189878157260e+00 -1.22774201e+00   1.05249074e+00  -4.72198430e-01
C     2.650929475410229e+00   8.912465642518489e-01   6.190576125051432e+00  1.29583100e-02  -8.61431600e-02   8.72354430e-01
C     3.561569522590867e+00   1.511961491274000e-03   3.509955123778594e+00  7.06252400e-02  -1.14956610e-01   1.02313327e+00
C     5.331499509292882e+00   1.760401999190619e+00   3.592900748299231e+00  5.76512400e-02  -1.83288460e-01  -1.27458244e+00
C     3.494819230578055e+00   1.802370339591778e+00   5.297074413723388e+00  1.44847934e+00  -9.35371380e-01   9.16389100e-01
C     5.303805663439171e+00   7.082017886588426e+00   5.351952644781634e+00  6.20001210e-01   1.39215707e+00  -8.74573150e-01
C     4.402547383516636e+00   8.851635315947840e-01   4.431407010680026e+00  8.30969310e-01  -4.02824800e-02   9.51974040e-01
C     6.203384009843922e+00   2.649741160400844e+00   4.471754559639598e+00  7.34318530e-01   8.97162700e-02   1.03886290e-01
C     4.364906437553854e+00   2.671213928030209e+00   6.248302203463928e+00  1.75584444e+00   2.59121600e-02  -8.19847170e-01
C     6.246119277961553e+00   8.510715367092641e-01   6.207547484056683e+00 -8.55905650e-01   1.23954921e+00   3.71623000e-03
C     7.067827342512120e+00   3.522225896157917e+00   3.548362357699812e+00  4.94491930e-01   1.63492472e+00   2.82855490e-01
C     1.780435808829018e+00   5.313190345150547e+00   3.549126086626104e+00 -6.66339600e-01   3.51084580e-01  -1.03273531e+00
C     7.070250390530600e-03   5.344825242673238e+00   5.345443675441178e+00  4.19217100e-02   4.95513970e-01  -2.67230640e-01
C     1.784759933392990e+00   3.606584959432314e+00   5.317062018614757e+00  1.76953780e-01  -1.13142377e+00   3.23346100e-01
C     8.765014921269567e-01   4.487079039292246e+00   4.438207496432128e+00 -1.26970360e-01  -1.98369663e+00   1.80355610e-01
C     2.686563500414705e+00   6.164437886403882e+00   4.371777581026799e+00 -7.27942880e-01   2.44294795e+00   1.73377685e+00
C     9.599641833089723e-01   6.225500871646885e+00   6.252073577084969e+00 -1.87977313e+00  -9.15474420e-01  -1.39990370e+00
C     2.660036644302521e+00   4.488421251651355e+00   6.251792012464992e+00 -2.80695940e-01  -1.35881438e+00  -1.00542335e+00
C     3.589822374799414e+00   3.531835417276764e+00   3.537471614487936e+00 -3.36921700e-01   1.04809755e+00   2.96501960e-01
C     5.358595039214666e+00   5.327593502147417e+00   3.584057657307273e+00 -5.38515720e-01   2.14418420e-01  -8.07697530e-01
C     3.534554104592009e+00   5.325769978492708e+00   5.294617316360559e+00  8.13961870e-01   1.48523230e-01   1.87099705e+00
C     5.327700483907849e+00   3.552399301989936e+00   5.378320485479810e+00 -9.66037700e-01  -1.48184340e-01  -6.84104730e-01
C     4.440957247554222e+00   4.441102543712574e+00   4.472514165680772e+00  7.47591240e-01  -5.40497310e-01  -8.69993700e-01
C     6.235559005317280e+00   6.264336388030958e+00   4.443927288693311e+00 -6.80725360e-01  -1.80178515e+00   5.48757860e-01
C     4.429329858506235e+00   6.214867026828496e+00   6.242017433772908e+00 -5.59122790e-01   3.63601620e-01  -1.17111346e+00
C     6.188868966275013e+00   4.457583279388592e+00   6.229789454097758e+00  1.56938659e+00  -1.97957190e-01  -1.43674270e-01
