64
Lattice="7.10842262195238 0 0 0 7.10842262195238 0 0 0 7.10842262195238 " PBC="1 1 1" Properties=species:S:1:pos:R:3:force:R:3 Energy="-504.00424111"
C     6.997796797797084e+00   7.054981996332423e+00   2.682007854526000e-04  4.61834143e+00   1.57334779e+00   2.19890110e-01
C     1.704118290811947e+00   1.876715199247572e+00   6.954060521606104e+00  1.84484243e+00  -2.84408018e+00   5.72971306e+00
C     7.095508606457793e+00   1.726320027180993e+00   1.786917126405481e+00  8.97852710e-01   1.15139201e+00  -5.11837080e-01
C     1.874052028712989e+00   4.733918019592580e-02   1.731385133718874e+00 -2.11932393e+00  -7.21638530e-01  -2.42767380e+00
C     8.616374960916320e-01   9.390257558079529e-01   7.854103261260620e-01  1.99874780e-01  -1.16218828e+00   1.86523517e+00
C     2.675486303277507e+00   2.688423277024776e+00   9.225659188944381e-01 -2.06023581e+00  -7.70259130e-01  -1.85912154e+00
C     9.183249628751199e-01   2.644345796548037e+00   2.715896335271910e+00 -2.85130644e+00   1.51504810e-01  -1.40020949e+00
C     2.651014705397443e+00   9.521985159335272e-01   2.628727170367373e+00  9.80952900e-02  -2.14700487e+00   2.41768254e+00
C     3.628344054324813e+00   7.105270389989161e+00   7.037442674359835e+00 -1.30675235e+00   1.25175301e+00   3.98186058e+00
C     5.415504573120803e+00   1.893172121707812e+00   7.037232407218736e+00 -1.20372477e+00  -3.63080219e+00   3.78999234e+00
C     3.509532172632704e+00   1.806884898797740e+00   1.770744540850041e+00  2.01269598e+00  -7.77425080e-01   9.44629260e-01
C     5.381137979869473e+00   7.007615448709410e+00   1.845210883448410e+00 -3.73401378e+00   1.54367133e+00  -2.05513502e+00
C     4.457924057168995e+00   9.080773186576754e-01   9.652057919805079e-01  5.86773140e-01  -3.48522640e-01  -3.09047301e+00
C     6.266587270053581e+00   2.694731575594669e+00   9.346312578600426e-01 -1.78437342e+00  -2.76066030e-01  -6.91501920e-01
C     4.422465965624364e+00   2.655401952754281e+00   2.721863998229852e+00 -6.27784600e-01   1.26303857e+00  -3.93762045e+00
C     6.206208115066621e+00   7.641530147863091e-01   2.673787390271327e+00  2.22842146e+00   3.04284637e+00  -1.18818251e+00
C     7.088454918691967e+00   3.566798336101686e+00   4.570118637159919e-02  8.45618300e-01  -2.05848750e-01  -1.49282814e+00
C     1.816791054392519e+00   5.336271962071497e+00   7.071334069559018e+00 -1.28741481e+00   6.37658590e-01   8.71180800e-01
C     5.860546137481620e-02   5.338422615335178e+00   1.767432086993347e+00 -8.76981640e-01  -6.26719620e-01  -2.48842300e-01
C     1.756546177508852e+00   3.572830827873923e+00   1.816486245230574e+00  8.70242640e-01  -1.38361460e+00  -2.62512340e-01
C     8.878479563130007e-01   4.454968446127825e+00   8.818780186598200e-01  9.57485700e-01  -5.59503400e-02   2.02926850e-01
C     2.738275711122229e+00   6.227863853494226e+00   8.133391053473633e-01 -8.04156230e-01  -1.17819229e+00   1.19697955e+00
C     9.790006812537847e-01   6.225597546194518e+00   2.528191682989320e+00 -1.27753900e-02   2.97838260e-01   3.85969369e+00
C     2.718374260313015e+00   4.341061020622385e+00   2.724031782792047e+00 -2.34509915e+00   4.76005363e+00  -2.76643729e+00
C     3.564134241472162e+00   3.443977304051898e+00   1.852995174891120e-02 -4.83403270e-01   4.26985962e+00  -4.08720400e-02
C     5.414833893446605e+00   5.259329187200771e+00   7.081093507310921e+00 -3.62305675e+00   3.01729297e+00   1.92499951e+00
C     3.549204279274924e+00   5.210914431578214e+00   1.714884920964878e+00  3.10997230e-01   3.56028533e+00   1.80070751e+00
C     5.293730824975619e+00   3.637236833190885e+00   1.765233522961207e+00  1.96611920e+00  -3.73756706e+00   1.78650410e+00
C     4.438694281213145e+00   4.370989470210919e+00   8.497590375567072e-01  2.49477960e-01   2.15024924e+00  -1.20571850e-01
C     6.229859543144791e+00   6.166757435789015e+00   9.065697643884258e-01  2.20248000e-03  -5.14478900e-01   2.05848850e-01
C     4.365546266673880e+00   6.216065009292645e+00   2.705627223618153e+00  1.17425377e+00  -1.28503835e+00  -4.04555140e-01
C     6.211448088800955e+00   4.476522463027737e+00   2.690605989274474e+00 -5.75016910e-01   7.03224480e-01  -8.71615230e-01
C     3.843808447538800e-02   7.013732957216183e+00   3.453223940195993e+00 -2.35991520e-01   6.62206250e-01   4.02892387e+00
C     1.734523431221378e+00   1.688848688181925e+00   3.585962288064075e+00  1.86258590e-01   3.42835227e+00  -1.50757876e+00
C     7.023081314887970e+00   1.627584463494551e+00   5.246484125357980e+00  2.71512460e+00   4.49934861e+00   7.10441880e-01
C     1.785659077770193e+00   1.274282850867156e-01   5.379432740367161e+00 -7.13057210e-01  -5.42679274e+00  -2.56053030e-01
C     9.360847881173803e-01   8.365712786594046e-01   4.461034205317923e+00 -3.54558536e+00  -1.76292320e-01  -2.74348456e+00
C     2.521530806657476e+00   2.609325299499893e+00   4.443034897317595e+00  4.10286354e+00   1.55851253e+00   1.57459497e+00
C     8.202251765078098e-01   2.700370260753758e+00   6.166570271021430e+00 -1.91712642e+00  -8.02603300e-01   7.74176030e-01
C     2.632392628491376e+00   9.363470889120581e-01   6.229388112556632e+00  3.47840509e+00   5.59922000e-01  -8.37445670e-01
C     3.517958141385321e+00   1.003348166074904e-01   3.639323155229856e+00  2.21878495e+00  -2.04255484e+00  -2.15228450e+00
C     5.352329391180493e+00   1.784868407922171e+00   3.444777641354683e+00  5.26313120e-01  -9.59513000e-02   9.43952580e-01
C     3.589710346058923e+00   1.795723893357851e+00   5.326706228835989e+00 -8.00778400e-01   1.62887434e+00  -4.62799570e-01
C     5.337275315924310e+00   1.198584547544514e-01   5.352093462633736e+00 -9.87946750e-01  -4.73114139e+00  -2.71665502e+00
C     4.558773950079531e+00   1.032240918487703e+00   4.356640621562867e+00 -5.15846677e+00  -4.01378145e+00   4.36127512e+00
C     6.189647978309939e+00   2.637336749676265e+00   4.311859833752105e+00  1.01082814e+00   5.41787580e-01   3.63878017e+00
C     4.496268808055382e+00   2.756894518153890e+00   6.253328213677399e+00 -8.84646310e-01  -3.99660710e+00  -2.47075476e+00
C     6.221306902301086e+00   7.975754673452513e-01   6.218726331637346e+00 -5.11035080e-01   5.26917728e+00   1.94776550e-01
C     7.057771767873868e+00   3.597263755934935e+00   3.540844916442257e+00  3.04725672e+00  -1.16222377e+00   1.02226381e+00
C     1.913024524400948e+00   5.444674056426199e+00   3.562007188171580e+00 -3.15183291e+00  -3.36709058e+00   6.97546610e-01
C     7.107149714761436e+00   5.310298852081409e+00   5.429671446149784e+00  3.96911840e-01   2.98235805e+00  -4.19370945e+00
C     1.682190299797998e+00   3.578554103262190e+00   5.414845338007025e+00  2.12072267e+00  -8.81067980e-01  -4.43069916e+00
C     9.491480785346066e-01   4.528934711194879e+00   4.533714983238376e+00 -2.80524382e+00  -7.76437430e-01  -2.94172921e+00
C     2.665028036497832e+00   6.243617397536217e+00   4.606516746511820e+00  1.44703854e+00   1.73886809e+00  -3.86976554e+00
C     8.690399941554214e-01   6.301429416778189e+00   6.172629774799623e+00 -2.44016600e-02  -2.39177756e+00   3.32745701e+00
C     2.645437721346696e+00   4.356732106961985e+00   6.228014765306448e+00  7.97497700e-01   1.57637096e+00   1.74041302e+00
C     3.476373016047607e+00   3.487617474369054e+00   3.564947373935665e+00  2.23233094e+00  -8.26740290e-01   2.83730748e+00
C     5.234553704253702e+00   5.306081140604059e+00   3.584625833527289e+00  1.06641976e+00   8.36686900e-01   9.74761700e-01
C     3.520542834934179e+00   5.252739110758222e+00   5.388643550061252e+00  1.90137452e+00   2.04293968e+00  -1.16255270e-01
C     5.335665044948201e+00   3.575967348270772e+00   5.306510489330307e+00  1.04108260e-01  -7.75160420e-01   1.58844840e-01
C     4.409401537859518e+00   4.395126830059391e+00   4.503795561346570e+00 -1.34158393e+00   6.88595350e-01  -2.35952529e+00
C     6.114662294354951e+00   6.182349618637533e+00   4.522098967666582e+00  3.30976499e+00   3.65410690e-01  -2.72489139e+00
C     4.560428506528562e+00   6.265113267539097e+00   6.257905966760453e+00 -3.49894905e+00  -1.59517572e+00  -1.75261320e+00
C     6.213754700856919e+00   4.467720032213164e+00   6.200539574532529e+00  1.77748569e+00  -3.00360812e+00   1.11807449e+00
