64
Lattice="7.10842262195238 0 0 0 7.10842262195238 0 0 0 7.10842262195238 " PBC="1 1 1" Properties=species:S:1:pos:R:3:force:R:3 Energy="-508.33911867"
C     7.100947047351677e+00   7.073892248691505e+00   5.294424251602200e-03  6.70626140e-01   5.74247940e-01  -1.81554218e+00
C     1.766433495783689e+00   1.778185140059073e+00   9.177186855098600e-03 -8.87260230e-01  -1.01291881e+00  -7.02691850e-01
C     5.067061354101500e-02   1.715539606688180e+00   1.737089500702972e+00 -1.94179009e+00   1.63238847e+00  -7.98547440e-01
C     1.818612658773121e+00   7.089134270641761e+00   1.743799851656252e+00 -6.88456800e-02  -8.43228150e-01   2.60904970e-01
C     9.245471784470843e-01   8.199070035113386e-01   8.172356582907426e-01 -7.42318070e-01   1.13281022e+00   2.53547208e+00
C     2.561478435760447e+00   2.643118456298468e+00   9.447235119590137e-01  2.42295540e+00   1.72300889e+00  -8.59579720e-01
C     7.915998429539746e-01   2.656712888053861e+00   2.653641836229343e+00  2.52459109e+00  -7.16909630e-01   1.77444823e+00
C     2.709384238225501e+00   8.969124035853462e-01   2.621584271897667e+00 -2.28639399e+00  -6.32238780e-01   3.96162620e-01
C     3.530001799661935e+00   3.229505673141020e-02   7.097248677230943e+00  1.24002642e+00  -2.99390560e-01   7.91012850e-01
C     5.257762988444907e+00   1.727302766608208e+00   7.005334995648688e+00  1.36740711e+00   4.01752277e+00   2.83607570e+00
C     3.512478684892921e+00   1.787416422010310e+00   1.768619335739339e+00  1.83978668e+00   5.85046220e-01   6.41526500e-02
C     5.328920360313667e+00   2.707960705511620e-02   1.698868294201720e+00  5.68370440e-01   1.97081070e-01   1.69198757e+00
C     4.427188517276186e+00   9.612101476258059e-01   8.885287299473181e-01 -7.10637210e-01  -2.47287532e+00  -1.59986654e+00
C     6.239199370709435e+00   2.680129311680213e+00   8.639335876821183e-01 -1.73478280e-01  -1.21419713e+00  -7.36965820e-01
C     4.489069184373168e+00   2.626752805984668e+00   2.654840671704205e+00 -9.38351710e-01   1.19519837e+00   1.49415610e-01
C     6.267606760025741e+00   8.184331431653078e-01   2.611647194664490e+00 -4.88212330e-01   2.53969914e+00   8.06904400e-02
C     7.102778816776625e+00   3.645231320690469e+00   7.088647414776517e+00 -4.11921300e-02  -4.05018309e+00   2.02522217e+00
C     1.819462044191984e+00   5.294828436512373e+00   3.982507989700240e-02 -6.25350030e-01   2.20459628e+00   8.79410710e-01
C     7.079235578890732e+00   5.320007677864258e+00   1.804232390897087e+00  1.31383990e+00   1.23298989e+00   4.83511050e-01
C     1.780415691993003e+00   3.554879857147411e+00   1.893970895157622e+00 -1.95615339e+00  -4.20489900e-01  -2.51575460e+00
C     9.575200943595378e-01   4.520390955879448e+00   1.040268033647112e+00 -2.22925634e+00  -2.85806430e+00  -4.99920664e+00
C     2.703310659770521e+00   6.191493538074769e+00   9.000192818598695e-01  5.54784490e-01   9.22447460e-01  -2.06134670e-01
C     9.623944108342980e-01   6.176004996028051e+00   2.652932699988771e+00 -2.38088322e+00   9.87727560e-01   4.57850870e-01
C     2.657137118715823e+00   4.439777960241564e+00   2.705402384210682e+00  2.11759681e+00  -3.36854950e-01  -6.67720270e-01
C     3.492353887444986e+00   3.555282122783477e+00   5.025882261863840e-02  1.26439125e+00  -5.95093620e-01  -1.11331347e+00
C     5.250865117302912e+00   5.306489945988936e+00   4.195604283002600e-02  1.43751165e+00  -1.41679630e-01  -1.13737557e+00
C     3.597395972595666e+00   5.309964400797139e+00   1.858521049383229e+00 -2.28663820e-01   3.88222830e-01  -2.60731904e+00
C     5.351074896756516e+00   3.507523261316066e+00   1.756201561180235e+00  9.44454720e-01  -3.77539010e-01   1.67724672e+00
C     4.464698739346986e+00   4.328189160026316e+00   9.304753185752597e-01 -2.03897185e+00   3.73545753e+00   2.04346200e-02
C     6.170940387079754e+00   6.243894768186849e+00   8.525798018207755e-01  1.33655733e+00  -2.16035969e+00   8.23143290e-01
C     4.541431460329291e+00   6.275771280994395e+00   2.643918367095897e+00 -2.55067591e+00  -1.99820220e+00   4.16541750e-01
C     6.245861810894256e+00   4.424591170735065e+00   2.722947819426723e+00 -2.40455160e+00   1.27258982e+00  -1.18087750e+00
C     4.478590587504800e-03   7.085012167448649e+00   3.475243274440611e+00  1.32004015e+00  -1.46182366e+00   2.85766250e+00
C     1.710881883850651e+00   1.676984233239562e+00   3.532059830178877e+00  2.08795722e+00   4.62323515e+00  -7.86463950e-01
C     7.741775967019379e-02   1.742923098810301e+00   5.330046263372449e+00 -3.31756566e+00  -1.03236370e+00  -2.37450880e-01
C     1.945037163501666e+00   7.069901793485315e+00   5.318552797006623e+00 -5.11103097e+00   1.36101436e+00  -9.42480390e-01
C     9.447577745560420e-01   8.178108007649267e-01   4.381413829814697e+00 -1.80917252e+00  -3.18978410e-01   2.28794959e+00
C     2.548906408430488e+00   2.723223839477058e+00   4.442841832559236e+00  2.86650494e+00  -2.03807880e+00  -1.81034126e+00
C     8.374370845345206e-01   2.576169341704975e+00   6.243777905718977e+00  2.30197566e+00   4.90363089e+00   1.85019610e-01
C     2.678614293567212e+00   9.528512823827217e-01   6.188728077338685e+00  2.86286470e-01  -1.58946253e+00   5.80968850e-01
C     3.604592681824607e+00   5.092559266039440e-02   3.451660300472272e+00  5.86707270e-01  -8.19546170e-01   2.47841064e+00
C     5.425718310162350e+00   1.769148060213815e+00   3.565246425275288e+00 -2.48442669e+00  -7.54057750e-01  -5.50643990e-01
C     3.476903446543511e+00   1.846041289378879e+00   5.270531563660309e+00  1.23890428e+00  -1.24103590e-01   5.46646810e-01
C     5.251017024294301e+00   3.117590667411740e-02   5.365637282420074e+00  2.45027911e+00  -5.60644930e-01  -1.77223120e+00
C     4.424537146723153e+00   9.436305208969625e-01   4.421090841268525e+00  1.99437480e-01  -5.53195820e-01  -1.27348250e-01
C     6.228079238699611e+00   2.628977031422466e+00   4.509285111799091e+00  5.66748830e-01   1.96318446e+00  -2.05125208e+00
C     4.350113738997408e+00   2.691878254755001e+00   6.184005881107993e+00  1.27715842e+00  -1.42381380e-01   1.31798100e-02
C     6.176181498161705e+00   8.903836728300071e-01   6.219699616862478e+00  1.58678469e+00  -1.35655299e+00  -1.03553749e+00
C     7.041606503993727e+00   3.591401368715995e+00   3.608284512196530e+00  3.05781168e+00  -2.49933014e+00   4.44689500e-02
C     1.826285703401827e+00   5.279109439404315e+00   3.569625426861887e+00 -1.12207505e+00   2.47932722e+00   7.47157510e-01
C     7.074974932540757e+00   5.380516135058675e+00   5.375474770652344e+00  1.42718196e+00  -8.19314230e-01  -7.28790690e-01
C     1.759900286722099e+00   3.579910816803443e+00   5.363995592215986e+00 -2.34362970e-01  -5.06365050e-01   4.03085030e-01
C     9.180298922521635e-01   4.461566128582579e+00   4.506034359050738e+00 -2.44679557e+00   1.71336930e-01  -9.60517560e-01
C     2.767538172595495e+00   6.242841086701887e+00   4.371550751260994e+00 -1.86645534e+00  -3.09498500e-02   6.06541620e-01
C     9.785758108337874e-01   6.199585268795794e+00   6.217577326205050e+00 -2.20974074e+00   2.18620180e-01   5.76545250e-01
C     2.698603462311557e+00   4.513593100243716e+00   6.252916564923475e+00 -1.97523956e+00  -2.65413668e+00  -1.62562260e-01
C     3.571572352733278e+00   3.580403501575235e+00   3.471845448428250e+00 -4.90055920e-01  -1.57291425e+00   3.97377321e+00
C     5.332243547888517e+00   5.343936832014191e+00   3.616887622840838e+00  2.48993300e-01   5.42544670e-01  -1.95636177e+00
C     3.498043753246939e+00   5.417225308984426e+00   5.331545003197649e+00  3.66404424e+00  -3.18175400e+00   1.10952360e-01
C     5.308518192215100e+00   3.615417956464153e+00   5.272549502673674e+00 -8.91783620e-01  -3.18811833e+00   3.42739351e+00
C     4.404334796384434e+00   4.451499749141944e+00   4.456963567104581e+00  3.48567380e-01   1.13104464e+00  -1.52293527e+00
C     6.197448619124675e+00   6.248508916393718e+00   4.457360999013265e+00  5.64808390e-01  -9.01234700e-02   2.11771090e-01
C     4.433955024768164e+00   6.215421981382439e+00   6.229326980122100e+00 -1.59694250e+00   1.10153696e+00   4.29125440e-01
C     6.128863429980961e+00   4.423207231935177e+00   6.255617054676813e+00  2.52206953e+00   2.56731176e+00  -1.22054427e+00
