64
Lattice="7.10842262195238 0 0 0 7.10842262195238 0 0 0 7.10842262195238 " PBC="1 1 1" Properties=species:S:1:pos:R:3:force:R:3 Energy="-512.2998834"
C     3.974077400472920e-02   7.066738189998284e+00   7.082387879985798e+00 -6.97982510e-01   1.90201916e+00   3.12878440e-01
C     1.733586114614705e+00   1.792938315785752e+00   7.089383207601913e+00  1.08616154e+00  -8.45175240e-01   8.88449360e-01
C     7.084864454426605e+00   1.808697048976256e+00   1.786612388327762e+00 -1.71204000e-01  -7.31442800e-01  -8.45161580e-01
C     1.708588138039630e+00   1.433008241233660e-02   1.782431214142678e+00  3.10341791e+00  -8.22082130e-01  -4.19431790e-01
C     8.587212657117770e-01   8.816615671910411e-01   8.789930653394931e-01  4.06907190e-01   8.39249490e-01   5.50914040e-01
C     2.642008333937903e+00   2.703122357655317e+00   8.751611279577296e-01  3.06639570e-01  -1.54873353e+00   3.50743330e-01
C     8.510824125958726e-01   2.666767041007589e+00   2.719905130208458e+00  9.99591840e-01  -1.13381809e+00  -1.13415740e+00
C     2.705354331273771e+00   8.683945493815254e-01   2.666949798553149e+00 -2.32584468e+00   1.52710013e+00  -1.85622748e+00
C     3.538006878711222e+00   7.096112751296267e+00   7.062661154204583e+00 -5.56809340e-01   3.98844430e-01   1.45017577e+00
C     5.297997158063691e+00   1.788470814337535e+00   7.064287561300039e+00  1.84341530e+00  -9.93106960e-01   1.28756581e+00
C     3.562167483101661e+00   1.789659271515372e+00   1.744670846679881e+00 -5.05713060e-01  -4.30287490e-01   8.23006870e-01
C     5.370320169073677e+00   3.280167401153760e-02   1.737030642963678e+00 -1.22197720e+00  -9.63176510e-01   1.14730102e+00
C     4.421278787962597e+00   8.639856924199228e-01   8.789394678329382e-01  5.52249220e-01   1.12419835e+00  -1.14624553e+00
C     6.213461976013427e+00   2.691129240263532e+00   8.269412852834119e-01 -6.13643990e-01  -5.87024360e-01   2.61282220e+00
C     4.461940173780843e+00   2.690137117718458e+00   2.662872549506770e+00 -5.92489520e-01  -3.48846240e-01  -4.35124420e-01
C     6.184044195505915e+00   9.138917240239307e-01   2.665142837523145e+00  1.42283870e+00  -2.44616300e-02  -4.76374270e-01
C     5.998015922529800e-03   3.582462171850214e+00   3.268658864931979e-02 -3.49890020e-01  -8.84703900e-02  -6.84999260e-01
C     1.762349067230463e+00   5.287499439538474e+00   2.389659757433260e-02  1.51845921e+00   5.19608810e-01   2.28071730e-01
C     7.062713045689709e+00   5.373088544263037e+00   1.746105326364597e+00  2.00540554e+00  -2.38439884e+00   2.35159386e+00
C     1.760078850298314e+00   3.538595669356836e+00   1.827795816703220e+00  2.00350180e-01   1.02575600e-02   7.34999300e-02
C     9.200910504750587e-01   4.428308022754610e+00   1.005335894292135e+00 -2.24969646e+00   7.23610840e-01  -4.15965725e+00
C     2.630885927232841e+00   6.188008207379957e+00   8.925533766663099e-01  1.37681680e+00   9.21597540e-01  -2.25203850e-01
C     8.732555020217599e-01   6.220572602244439e+00   2.646585020757564e+00 -7.55213400e-01  -1.61520550e-01   9.87038590e-01
C     2.639122811943766e+00   4.406800423854407e+00   2.676903154074125e+00  1.92230299e+00   7.10145480e-01   3.53083800e-02
C     3.574152283638981e+00   3.559702637558176e+00   7.105037375895678e+00 -8.98579730e-01  -1.26866120e-01  -8.21235390e-01
C     5.321651216258228e+00   5.369525873930120e+00   7.093733775498031e+00 -2.21536360e-01  -1.27875956e+00   3.14000130e-01
C     3.607260330665440e+00   5.303455431456683e+00   1.761483687860705e+00 -1.92223540e+00   6.55855500e-01   9.33241230e-01
C     5.299890344260075e+00   3.574014380240153e+00   1.782400363588507e+00  1.57858901e+00  -6.52319320e-01  -9.81466720e-01
C     4.455360688887997e+00   4.396946088660528e+00   8.511216510887349e-01 -2.18150000e-01   2.70090793e+00   1.46626626e+00
C     6.244060963107705e+00   6.228487901916036e+00   8.547711863460692e-01 -1.13236991e+00   3.50043900e-01  -1.25935500e-02
C     4.511485310768433e+00   6.229170381571782e+00   2.702178145878702e+00 -7.38067380e-01  -2.43868650e-01  -1.96859961e+00
C     6.202816331213489e+00   4.422278800856779e+00   2.674958716150651e+00  9.46893100e-02   1.13329644e+00   7.73209510e-01
C     7.103501672272852e+00   1.120784994495400e-03   3.536446864283036e+00  4.09973070e-01   4.95767780e-01   6.10844080e-01
C     1.786240546740510e+00   1.752285175737746e+00   3.555461183949274e+00  2.40664960e-01   1.50065560e-01  -8.38298600e-02
C     1.751444249341800e-02   1.795836917277510e+00   5.315392036888640e+00  6.04599490e-01  -1.95615662e+00   1.05831341e+00
C     1.799227990288381e+00   7.072743883017243e+00   5.330112087365910e+00 -6.97799930e-01   6.92932830e-01  -1.11535867e+00
C     9.055070552067358e-01   8.710462042714640e-01   4.437811486207967e+00 -2.11376360e-01  -7.92170000e-04  -9.59536500e-02
C     2.688218412284868e+00   2.633278622286733e+00   4.411121633965105e+00 -1.33551244e+00   1.31850935e+00   1.17914694e+00
C     8.908550323339394e-01   2.659603457028058e+00   6.222466072777729e+00 -1.14399551e+00   8.07141370e-01   8.31773450e-01
C     2.615728779848667e+00   8.999767024083758e-01   6.184651254797663e+00  1.63236666e+00  -6.34257130e-01   9.86280970e-01
C     3.575007000374810e+00   3.412213459742880e-02   3.496588374799720e+00  6.17185230e-01  -1.70725824e+00   1.90706883e+00
C     5.337873134266652e+00   1.818964881113941e+00   3.556652129075029e+00 -7.53398220e-01  -1.63277400e+00   3.97944600e-02
C     3.517004262153943e+00   1.772752456987512e+00   5.322119945645792e+00  1.10539826e+00   3.89048540e-01  -4.03910400e-02
C     5.381947202700534e+00   2.892552224107780e-02   5.350299865438258e+00 -1.30127919e+00  -3.78288680e-01  -1.46876444e+00
C     4.434591584013786e+00   9.344283834784679e-01   4.429488234162209e+00  5.44824600e-01  -1.30005828e+00   4.35389900e-01
C     6.240932119807286e+00   2.604433283052809e+00   4.475239108407922e+00 -2.05253948e+00   2.08819993e+00  -6.39921640e-01
C     4.442981726316399e+00   2.664970102853479e+00   6.224449678109839e+00 -9.66025700e-01  -3.96766130e-01  -1.00741360e+00
C     6.269535346166773e+00   8.919599655459922e-01   6.198595918535543e+00 -1.14950145e+00   6.99328500e-02   7.48457100e-01
C     7.047311652904312e+00   3.482677902574642e+00   3.621326832767027e+00  2.32552394e+00   2.49462743e+00  -1.69670404e+00
C     1.776627897915710e+00   5.286853283922317e+00   3.564839183743388e+00 -8.75364420e-01   4.65334460e-01  -3.98387240e-01
C     7.103896758402072e+00   5.339387512621617e+00   5.337847615029447e+00  6.71475400e-01  -2.20139860e-01   9.31522180e-01
C     1.729729795343355e+00   3.538558136885403e+00   5.391565822600334e+00  3.04142295e+00   2.68221620e-01  -2.14012402e+00
C     8.528425291208108e-01   4.379082551532242e+00   4.527127394743744e+00  1.20038250e-01   1.60215120e+00  -2.29320298e+00
C     2.676360141670184e+00   6.209598406151004e+00   4.377667762178183e+00  8.93320100e-02   5.47895000e-01   1.67040463e+00
C     9.383048195858323e-01   6.201362232282341e+00   6.230236929301687e+00 -1.24098308e+00  -8.50122340e-01  -3.15847060e-01
C     2.706382848942659e+00   4.457551007149898e+00   6.193983476350103e+00 -1.92014499e+00  -6.46058140e-01   1.53705937e+00
C     3.573000932427219e+00   3.551172672582628e+00   3.535774478587411e+00 -8.27669250e-01   5.36349560e-01   1.15637417e+00
C     5.400308898086029e+00   5.361787005307952e+00   3.625953562881933e+00 -2.15986531e+00  -9.34922220e-01  -1.72603676e+00
C     3.555762225647231e+00   5.371642122428320e+00   5.322405419898210e+00  1.81730150e-01  -1.02988888e+00  -5.51029850e-01
C     5.334177678599192e+00   3.524093634201322e+00   5.329621961626261e+00 -5.60703430e-01   1.41590263e+00   9.88286260e-01
C     4.429549082259837e+00   4.480279335466633e+00   4.483467463011704e+00  1.40864157e+00  -1.54302929e+00  -1.63154749e+00
C     6.272710678551126e+00   6.241360117933236e+00   4.467405342343778e+00 -6.82236030e-01   7.81733700e-02  -3.99880980e-01
C     4.455563065679988e+00   6.223406872511486e+00   6.197065617313909e+00 -4.99743550e-01   1.34535813e+00   4.44258040e-01
C     6.174416761162065e+00   4.498085720877055e+00   6.231267721665812e+00  2.15266113e+00  -1.71229007e+00  -3.28277480e-01
