64
Lattice="7.10842262195238 0 0 0 7.10842262195238 0 0 0 7.10842262195238 " PBC="1 1 1" Properties=species:S:1:pos:R:3:force:R:3 Energy="-511.85405531"
C     7.085326430812679e+00   7.106418044821160e+00   4.919575801581740e-02 -1.71667510e-01   5.40707480e-01  -1.10849900e+00
C     1.806262769650037e+00   1.759345616505061e+00   7.088698168914024e+00 -4.19632800e-01   1.73919410e-01   9.91367330e-01
C     1.553346727767640e-02   1.741827264379202e+00   1.808992048514987e+00  8.86564550e-01   9.45755210e-01  -1.92877811e+00
C     1.810811236031897e+00   7.096448908601967e+00   1.790693831343487e+00 -7.14304340e-01   8.30427600e-01  -6.84841440e-01
C     9.440895828297622e-01   8.451652905227584e-01   8.642879425497251e-01 -1.73198328e+00   1.62534379e+00   1.65766401e+00
C     2.684592192653727e+00   2.627776205589270e+00   8.872742355233406e-01 -5.37757790e-01   1.06123803e+00   2.80138340e-01
C     9.018771391958328e-01   2.711290432835280e+00   2.618451518964806e+00  1.40093750e-01  -1.47357365e+00   4.16595950e-01
C     2.689396277913002e+00   8.805396448489264e-01   2.692440886405374e+00 -2.23545802e+00  -3.65934000e-01  -1.65322240e-01
C     3.621161775193791e+00   2.024635147473640e-02   1.755645327110220e-02 -2.14573254e+00  -4.90437410e-01   7.23338840e-01
C     5.333399590659208e+00   1.836387553871335e+00   2.884356212826920e-02  2.18665140e-01  -1.61444984e+00   3.41736760e-01
C     3.527717010463415e+00   1.753052387791123e+00   1.826866106108750e+00  1.50004049e+00   7.49214930e-01  -1.01763159e+00
C     5.299168412858788e+00   7.090342560318708e+00   1.811303138877201e+00  2.79435700e-02   1.29799831e+00  -8.71975610e-01
C     4.439303330863227e+00   9.359920942864153e-01   9.210407357370908e-01  7.62037780e-01  -1.38332262e+00  -2.54472770e-01
C     6.266165100834178e+00   2.659791616974809e+00   9.440583057702341e-01 -1.09170622e+00   1.89532610e-01  -1.83312916e+00
C     4.445910894025421e+00   2.618152538709409e+00   2.703633737578600e+00 -1.90703190e-01   2.43524355e+00  -1.66873723e+00
C     6.232653224318677e+00   8.662116949633758e-01   2.629735500116020e+00 -3.13566960e-01   1.66962200e-02   2.33439361e+00
C     9.431455132216000e-04   3.522748933894297e+00   7.098449645232592e+00  5.69088680e-01   9.31380590e-01  -3.48884640e-01
C     1.770223351303542e+00   5.372214492617681e+00   7.049693116650465e+00  2.23258150e-01  -6.61040600e-01   1.43062090e+00
C     1.569966219853200e-02   5.353393166625577e+00   1.763890244338706e+00  2.94737020e-01  -1.05533445e+00   1.88926640e-01
C     1.784042338129501e+00   3.572011226745837e+00   1.673066426112549e+00 -2.83133380e-01  -1.10377440e-01   2.97313967e+00
C     9.048984320620114e-01   4.437845393383864e+00   8.079866763671820e-01 -6.75685110e-01   1.23601753e+00   9.89690570e-01
C     2.657646721533450e+00   6.255404868261606e+00   8.806762687316828e-01  7.40178780e-01  -1.03012073e+00  -1.17576760e-01
C     9.274784786828937e-01   6.221498545374921e+00   2.681085465606829e+00 -1.11412813e+00   1.07378683e+00  -8.39347200e-01
C     2.617151317383382e+00   4.482590141491944e+00   2.690639398860787e+00  2.16055814e+00  -9.44914520e-01  -2.42381090e+00
C     3.545123120596104e+00   3.528334163715283e+00   2.678389667412420e-02  9.40705610e-01   7.33546600e-01  -7.69110740e-01
C     5.344010475272534e+00   5.297095383570117e+00   1.371932674082620e-02 -6.37931240e-01   4.85809190e-01   4.48706400e-02
C     3.517962832944251e+00   5.375534339233901e+00   1.783084478181456e+00  3.70599200e-02  -1.83903837e+00  -7.51848840e-01
C     5.376730402423942e+00   3.566160710592673e+00   1.804897383833188e+00 -1.80118725e+00  -1.22206302e+00  -7.28193790e-01
C     4.425608599264666e+00   4.447224459441371e+00   9.206910724284130e-01  6.99396180e-01  -6.79935650e-01  -3.40358350e-01
C     6.185400909047168e+00   6.220625773245637e+00   9.426774946762992e-01  9.91530070e-01  -3.52044490e-01  -1.54449682e+00
C     4.360189856977032e+00   6.221988813283022e+00   2.658437035960342e+00  2.18002054e+00   1.74325170e-01   2.97150370e-01
C     6.229563406258441e+00   4.443655036106965e+00   2.639915614318574e+00  5.00200430e-01   9.99909710e-01  -1.51101260e-01
C     5.251631547429800e-03   7.099042274426421e+00   3.570898616437355e+00 -7.65979830e-01  -5.10312630e-01  -2.22661200e-01
C     1.747855277845188e+00   1.773100698611666e+00   3.535642190842452e+00  1.35160700e+00   8.86071300e-01   6.38405350e-01
C     7.044602064370021e+00   1.816069478412363e+00   5.345808692942716e+00  2.41293738e+00  -1.82962457e+00  -7.15904060e-01
C     1.809860200169567e+00   2.459037962204460e-02   5.360918284979562e+00 -1.85562172e+00  -2.44885670e-01   3.19447300e-02
C     8.639992695071269e-01   8.802637669670442e-01   4.438178494067838e+00  4.83868250e-01   1.13032025e+00   8.11944620e-01
C     2.718607345490725e+00   2.670521852003925e+00   4.432870634897483e+00 -2.98666241e+00  -1.17460012e+00   1.04706442e+00
C     9.194532117133662e-01   2.667382346069576e+00   6.202302250089611e+00 -1.93436451e+00  -8.79957910e-01   6.13291210e-01
C     2.716730437582140e+00   9.059970387779324e-01   6.283980727194006e+00 -5.16992300e-01  -9.60932980e-01  -2.68517287e+00
C     3.500954865562508e+00   7.070644552564879e+00   3.576467354717863e+00  1.35337141e+00   9.87077900e-01   5.66340250e-01
C     5.362787018202133e+00   1.802890036369526e+00   3.517956506448118e+00 -5.80220660e-01  -2.08227777e+00   1.85626722e+00
C     3.568396593843567e+00   1.745705833013353e+00   5.353324641431520e+00  3.04280020e-01   1.46948059e+00  -5.49772820e-01
C     5.260843920976868e+00   7.074695998037148e+00   5.345869398871890e+00  1.80867079e+00  -2.00882800e-01   4.91583000e-02
C     4.392838131228430e+00   8.372834004374762e-01   4.462997338392889e+00  1.61851451e+00   8.94005260e-01  -4.42505810e-01
C     6.246955512798569e+00   2.693401092132884e+00   4.414621892347419e+00 -3.43403660e-01   1.98556700e-01  -3.49902600e-02
C     4.472362827363192e+00   2.677191613864045e+00   6.217384332530917e+00 -5.31207890e-01  -6.80050000e-03   1.18385670e-01
C     6.180316254347082e+00   8.921204026445256e-01   6.245900267460630e+00  1.02377430e-01   3.23775830e-01  -8.93412000e-02
C     6.293989315158739e-02   3.633052531299848e+00   3.497832135505541e+00 -1.40046891e+00  -2.12695333e+00   4.60949480e-01
C     1.836655541404109e+00   5.430079753945077e+00   3.553810750385363e+00 -3.03419498e+00  -4.24505026e+00  -1.94479880e-01
C     7.070170634028804e+00   5.299725571023743e+00   5.295476013813055e+00  1.32295156e+00   1.47702315e+00   2.47437840e-01
C     1.750664384296160e+00   3.544038588556970e+00   5.349717116951870e+00  2.21182347e+00   1.06607446e+00  -2.46178885e+00
C     9.267863315723843e-01   4.488915215939219e+00   4.340337169946991e+00 -7.46130880e-01  -3.84983750e-01   3.85530212e+00
C     2.633098210520638e+00   6.181943798790156e+00   4.474406925371799e+00  2.23032887e+00   2.41688972e+00   1.27150939e+00
C     8.512459774003588e-01   6.278469993642077e+00   6.252831974694296e+00  5.39077470e-01  -1.99127133e+00  -2.04757919e+00
C     2.676381253685365e+00   4.431986986881592e+00   6.214125191843873e+00 -1.08607641e+00  -1.57054410e-01   5.71302390e-01
C     3.530072812803909e+00   3.541766239098035e+00   3.536853394972674e+00  6.98991600e-01   5.59760320e-01   7.33473680e-01
C     5.305082407225949e+00   5.315659953337187e+00   3.445798410842915e+00 -4.10961080e-01   3.19452230e-01   3.90563507e+00
C     3.565964020538777e+00   5.291533966964908e+00   5.371329494001492e+00 -6.32828490e-01   3.72101150e-01  -1.51890456e+00
C     5.347245731659574e+00   3.561462398661984e+00   5.300561450439630e+00 -1.02497941e+00  -2.85139230e-01  -3.69210520e-01
C     4.423389278638475e+00   4.429979994839061e+00   4.424210301451085e+00  6.90310980e-01   9.92314100e-02  -5.22976950e-01
C     6.167470623830480e+00   6.166711515378889e+00   4.452410195911114e+00  4.44923110e-01   1.63871612e+00  -1.49931401e+00
C     4.428199406056977e+00   6.168126517985627e+00   6.263054597264119e+00  7.33708550e-01   1.28711102e+00  -6.15236190e-01
C     6.207878452213869e+00   4.424701635622580e+00   6.164459140587517e+00  7.43234470e-01  -3.50470750e-01   2.10292449e+00
