64
Lattice="7.10842262195238 0 0 0 7.10842262195238 0 0 0 7.10842262195238 " PBC="1 1 1" Properties=species:S:1:pos:R:3:force:R:3 Energy="-511.60842003"
C     1.403373227330880e-02   7.056472277134707e+00   1.748735940323580e-02 -4.56769150e-01   1.49167623e+00  -1.11193727e+00
C     1.740510500173073e+00   1.742777305062365e+00   4.396147101958040e-02  1.66146365e+00   8.18981800e-01  -7.87608270e-01
C     5.538385315920599e-03   1.785555365884168e+00   1.803824580691378e+00 -8.30005110e-01  -6.54124250e-01  -8.56850320e-01
C     1.760583690472786e+00   7.036313003837065e+00   1.788927743743548e+00  5.63794200e-01   2.50069783e+00   7.90465100e-01
C     8.715385336221252e-01   8.431619237757638e-01   9.307079772476121e-01  4.02043750e-01   2.43881080e-01  -7.74054010e-01
C     2.668713611457850e+00   2.679338215326833e+00   9.036177786427922e-01 -1.59602730e-01  -2.50952130e-01  -1.28590969e+00
C     8.749708354841921e-01   2.616167511692774e+00   2.674380019465157e+00  1.39388128e+00   2.30899673e+00  -4.01697580e-01
C     2.662486348905825e+00   9.394506262279502e-01   2.699225804711938e+00  7.06371790e-01  -1.90138982e+00  -2.11054245e+00
C     3.512233799733662e+00   2.233608555656400e-03   3.674905217664980e-02  1.38076930e-01   4.81408600e-02  -1.29520242e+00
C     5.336207488678333e+00   1.783609150855038e+00   7.066681322617324e+00  2.89864220e-01  -6.97778910e-01   1.34176258e+00
C     3.553445448546921e+00   1.857246722460142e+00   1.784044115235156e+00 -5.57841230e-01  -2.78489443e+00   6.18904280e-01
C     5.304903132807473e+00   7.105142225129322e+00   1.747830042944887e+00  1.29352240e+00   1.59560830e+00   8.59089640e-01
C     4.380919510105702e+00   9.101482865037862e-01   8.874792424317014e-01  1.85106173e+00   1.74205330e-01   2.33133320e-01
C     6.255027553188937e+00   2.713887992629081e+00   8.571468922698994e-01 -9.58893340e-01  -2.65660595e+00   6.29603110e-01
C     4.449147785349665e+00   2.665199420567200e+00   2.703131527520497e+00  9.59517350e-01  -3.91957960e-01  -1.63974507e+00
C     6.223272238987063e+00   9.405651558105399e-01   2.705274219350843e+00 -1.81347939e+00  -8.48750000e-01  -6.71084340e-01
C     1.995042784106580e-02   3.594477254267895e+00   1.729273079190020e-02 -7.15091430e-01  -5.89494840e-01  -9.65829340e-01
C     1.772105874865997e+00   5.321557527248097e+00   7.059446867664271e+00  1.04921381e+00  -1.04342773e+00   2.18811890e+00
C     7.082086553950936e+00   5.404906412583967e+00   1.740406859371273e+00  1.34998230e-01  -2.04155172e+00   1.29532607e+00
C     1.770805388947668e+00   3.517758110372795e+00   1.737809299577473e+00  3.28535550e-01   1.70943902e+00   1.80463828e+00
C     8.742681679082052e-01   4.444680852575257e+00   9.111719704452924e-01  4.89317180e-01   7.65574120e-01  -1.39660659e+00
C     2.660942968186570e+00   6.164582400635747e+00   9.253096989415318e-01 -1.27941101e+00   2.55802367e+00  -2.25434981e+00
C     8.435399496906953e-01   6.227643421308779e+00   2.653792605873113e+00  2.52272760e-01  -3.38633610e-01   1.66070276e+00
C     2.712709202906006e+00   4.473633955496100e+00   2.625867523031574e+00 -2.61924222e+00  -2.03901746e+00   1.40507919e+00
C     3.605771400463455e+00   3.570120173076238e+00   8.505512001734800e-03 -3.14028093e+00  -1.71965818e+00  -1.88404637e+00
C     5.273906429467606e+00   5.292446901681995e+00   1.850158914265740e-02  1.76725395e+00   1.53841258e+00  -8.15833930e-01
C     3.531840322088372e+00   5.355546165668723e+00   1.754655123839254e+00  1.99902535e+00  -1.98418451e+00   8.20081310e-01
C     5.324032893257059e+00   3.488350921414985e+00   1.717327730398241e+00  1.53325070e-01   3.27551039e+00   2.34284677e+00
C     4.405551260747395e+00   4.406255065671002e+00   8.516967935629192e-01  1.70876244e+00   1.03211414e+00   2.26813333e+00
C     6.221861785770803e+00   6.257008244067773e+00   8.813440339526056e-01 -1.44363264e+00  -1.50676877e+00  -5.84482820e-01
C     4.495708877605605e+00   6.206567587998515e+00   2.627998130543466e+00 -1.93379838e+00   9.64893670e-01   9.13544310e-01
C     6.197436179385090e+00   4.514490325346812e+00   2.619568323242635e+00  1.26957631e+00  -2.80873860e+00   4.57526960e-01
C     7.075580854484885e+00   8.204214400563480e-02   3.591089522215655e+00  1.43393216e+00  -2.27769706e+00  -7.23121760e-01
C     1.787555391672531e+00   1.769029136303382e+00   3.571598653896973e+00  3.55242390e-01   6.22999550e-01  -6.38165600e-01
C     7.247662402280559e-02   1.773626011043284e+00   5.371130600336584e+00 -2.12554089e+00  -3.66633400e-01  -6.73865920e-01
C     1.773600491806078e+00   7.102240922436970e+00   5.331764440203929e+00  1.16542021e+00  -3.02603960e-01  -7.05710390e-01
C     9.701764275817693e-01   8.832063695948194e-01   4.439913660029380e+00 -3.07325046e+00   6.58115280e-01   1.25287464e+00
C     2.697891269449259e+00   2.670857582804268e+00   4.407989307537603e+00 -5.98688710e-01   3.28787620e-01   1.56522500e-01
C     9.057372970153976e-01   2.669375476687998e+00   6.271693250021526e+00  2.39092010e-01  -1.78054830e-01  -9.41959820e-01
C     2.640382140095126e+00   8.939966707950745e-01   6.197047846257359e+00  6.14238200e-02  -1.93440200e-01   1.33169077e+00
C     3.589161078243075e+00   3.321993359849840e-02   3.515968778230888e+00 -1.41466746e+00  -1.67213505e+00   7.79535980e-01
C     5.286197674104074e+00   1.767335981119524e+00   3.637293913824524e+00  1.82857175e+00  -7.49995500e-02  -2.00037984e+00
C     3.556287609163075e+00   1.793720739863536e+00   5.276621278234636e+00 -5.79195180e-01  -1.06073275e+00   2.57538816e+00
C     5.310433769942738e+00   7.079910310365823e+00   5.382718893060161e+00 -5.06924100e-02   3.29286560e-01  -8.50202660e-01
C     4.407365827789602e+00   8.462889899705280e-01   4.467412024261041e+00  1.47882799e+00   9.61463090e-01  -1.63095100e-01
C     6.224671816316715e+00   2.624655039385280e+00   4.480735269693480e+00  5.12177040e-01   1.91887757e+00  -1.11564635e+00
C     4.449352294668442e+00   2.642531727095413e+00   6.216374225676614e+00  8.83466200e-02   1.53086936e+00  -1.40144044e+00
C     6.211544265759003e+00   8.434414269531821e-01   6.233795121328353e+00  1.28223785e+00   1.06291135e+00   2.59860900e-02
C     2.989560867602920e-02   3.576807279487551e+00   3.490864530737644e+00 -1.42374747e+00  -8.86836990e-01   2.39918443e+00
C     1.716612551998443e+00   5.275530419699370e+00   3.563440175087546e+00  2.42509700e+00   2.32045157e+00  -6.81455100e-01
C     1.291216535232520e-02   5.378862005115001e+00   5.327574664827474e+00 -3.98714510e-01  -2.52058139e+00   7.84400660e-01
C     1.813688299003116e+00   3.522619916023744e+00   5.308012925535270e+00  2.20073600e-02   8.38716270e-01   2.07949760e+00
C     9.142758631823154e-01   4.424051072784398e+00   4.511479624030337e+00 -1.40355301e+00  -1.32332860e-01  -3.21709792e+00
C     2.652156033733310e+00   6.235808510951243e+00   4.411377181758295e+00  3.84404280e-01  -9.60504090e-01   2.31625890e-01
C     9.262170180047485e-01   6.167928903836790e+00   6.186276240208595e+00 -1.20853459e+00   2.50857727e+00   1.32710626e+00
C     2.705685228346732e+00   4.466170893671588e+00   6.215446150019347e+00 -9.32193170e-01  -1.96030736e+00  -3.96547560e-01
C     3.601463980692640e+00   3.549217927446354e+00   3.514467834794675e+00 -1.65226367e+00   1.55605638e+00   4.70747320e-01
C     5.351353689091672e+00   5.320842775353657e+00   3.564719051401110e+00 -2.58124890e-01   1.44646246e+00  -1.09792612e+00
C     3.540913868141671e+00   5.328251528829351e+00   5.329650466400968e+00  5.25319920e-01   7.73125970e-01  -1.32143509e+00
C     5.336537532740580e+00   3.586761772356147e+00   5.282701041017296e+00  5.06285900e-01  -1.47809499e+00   1.94168492e+00
C     4.449448187289586e+00   4.447492091553014e+00   4.388773961679671e+00  1.26403640e-01   3.71476700e-02   1.73585130e+00
C     6.227456398709647e+00   6.245265769657569e+00   4.487679843172089e+00 -4.77124400e-01  -8.35234300e-02  -1.34390769e+00
C     4.405798633854571e+00   6.207894659417443e+00   6.239963668309537e+00  3.94479100e-01  -7.76407900e-02   3.25618230e-01
C     6.203798786303799e+00   4.451668005505359e+00   6.235940514359296e+00  3.11609590e-01   5.80501300e-01  -9.67318870e-01
