64
Lattice="7.10842262195238 0 0 0 7.10842262195238 0 0 0 7.10842262195238 " PBC="1 1 1" Properties=species:S:1:pos:R:3:force:R:3 Energy="-512.73442307"
C     1.871853820101980e-02   1.128860162591720e-02   7.084129514611924e+00 -8.57812790e-01  -4.21674260e-01   9.70728010e-01
C     1.769700811156746e+00   1.818769968165701e+00   7.091420339356353e+00  6.86370420e-01  -5.23505460e-01   4.89029140e-01
C     7.101248089049633e+00   1.797854429785518e+00   1.745572976594585e+00  7.35980100e-01  -5.37477680e-01   5.31440780e-01
C     1.787626475898731e+00   4.041394162684320e-02   1.792971938624745e+00 -1.41246168e+00  -1.27693329e+00  -7.25667860e-01
C     8.648436790301568e-01   9.267476617533316e-01   8.779061875208949e-01  1.56582393e+00  -8.82515310e-01  -5.33571680e-01
C     2.695390028781960e+00   2.654990659421487e+00   8.973788582776705e-01 -9.43794460e-01   4.23676100e-01  -1.93063640e-01
C     8.842747655146054e-01   2.651221915916816e+00   2.647294299166587e+00  2.36514970e-01   1.00568651e+00   1.15433791e+00
C     2.645401041885976e+00   8.759498785316447e-01   2.678127935291552e+00  1.81416766e+00   7.23882250e-01   3.61376750e-01
C     3.511530776736544e+00   7.089423370189716e+00   3.312261929283060e-02  2.39051143e+00   1.08669823e+00  -8.46217050e-01
C     5.344002442754973e+00   1.772170774764517e+00   6.958648155396600e-03  8.42207200e-02  -8.85846160e-01  -6.22602930e-01
C     3.569621375060993e+00   1.730783050322960e+00   1.787248236731121e+00  1.83455880e-01   1.76776072e+00  -5.33237950e-01
C     5.344759916269360e+00   1.259306826091340e-02   1.811471324156390e+00 -5.22883700e-02  -1.46495250e+00  -8.94180660e-01
C     4.485627072887886e+00   8.407244456593658e-01   8.872853246626278e-01 -1.66208344e+00   1.41712420e+00   1.09632141e+00
C     6.261714162010666e+00   2.666963233471901e+00   8.156997414152393e-01 -1.90684751e+00  -3.50136030e-01   2.93332693e+00
C     4.480669943289602e+00   2.708729197081068e+00   2.634395497648788e+00 -1.07409718e+00  -2.57112517e+00   1.09565395e+00
C     6.266125862341316e+00   8.852292845040189e-01   2.655064729185188e+00 -1.70424705e+00   5.90292300e-01   2.78336380e-01
C     7.100046907795306e+00   3.517693565895405e+00   7.076719552704383e+00  1.30471639e+00   1.54382805e+00  -5.67675450e-01
C     1.828089607810105e+00   5.319151041854322e+00   3.125594751281860e-02 -3.09910357e+00   6.41387670e-01  -7.21425550e-01
C     7.085318682632024e+00   5.274268390347416e+00   1.777511830268507e+00  8.10309460e-01   2.47153117e+00  -1.19861254e+00
C     1.756980075625577e+00   3.589483089787761e+00   1.795872103969479e+00  9.06257630e-01  -1.65452392e+00  -8.30804790e-01
C     8.686176827675671e-01   4.434277178481303e+00   8.394378211651458e-01  9.05175130e-01  -2.46804310e-01   2.07149862e+00
C     2.668295920544698e+00   6.222538649772679e+00   9.203210079468158e-01 -7.48092900e-02  -2.90999650e-01  -1.40995400e-02
C     8.765614161296433e-01   6.250837493475577e+00   2.663822021516123e+00 -9.95107100e-02  -1.00236428e+00  -6.83428840e-01
C     2.650412835254207e+00   4.455684477538338e+00   2.692186333791352e+00  1.39473110e-01  -4.74730870e-01  -3.90688320e-01
C     3.585588313950037e+00   3.517544431188838e+00   7.086125417515167e+00 -1.07623327e+00   9.47325990e-01   9.72194500e-01
C     5.365545797020955e+00   5.358820589464400e+00   7.029927294544840e+00 -1.76367505e+00  -1.07353201e+00   2.93942617e+00
C     3.568861484682915e+00   5.305907481839452e+00   1.784676054006074e+00 -2.53497140e-01   1.00155298e+00   1.04488376e+00
C     5.359720800104996e+00   3.573023395042699e+00   1.768760153591441e+00 -2.01260880e-01  -9.16822990e-01  -8.48037960e-01
C     4.453044906966854e+00   4.410065322363773e+00   8.967981712338428e-01  3.37505670e-01   1.67889643e+00  -1.30117868e+00
C     6.196466661623948e+00   6.223420662851368e+00   8.596742208482141e-01  1.12334491e+00  -4.04343190e-01   1.05153558e+00
C     4.428869232720460e+00   6.227927971466258e+00   2.751848320020178e+00  1.00858440e+00  -3.20036060e-01  -2.79257823e+00
C     6.239440701657384e+00   4.404827196819322e+00   2.669252003387089e+00 -1.09482606e+00   1.58106266e+00  -3.70807080e-01
C     7.101808588173220e+00   7.104186710960742e+00   3.559933590209099e+00  2.15137500e-01   3.74628720e-01   4.29902000e-03
C     1.810598623111333e+00   1.762780121978140e+00   3.572677285945331e+00 -1.73138403e+00   3.03947530e-01  -4.45675850e-01
C     8.420708519878200e-03   1.787801414179409e+00   5.311345993817562e+00 -7.89010440e-01   4.85852900e-02   3.36221920e-01
C     1.763551670169315e+00   7.098896622846938e+00   5.387476418151274e+00  5.75711910e-01   3.02840690e-01  -1.81892583e+00
C     8.653573336486780e-01   8.925941790121487e-01   4.463070128640519e+00  1.23875377e+00  -7.18874060e-01  -3.83033800e-01
C     2.688725100649221e+00   2.639986627460548e+00   4.464383694056468e+00 -1.11087819e+00   1.37569852e+00  -6.09274440e-01
C     8.950062800597932e-01   2.672022226766329e+00   6.181688819670778e+00 -1.21506460e-01   6.31104760e-01  -1.73129530e-01
C     2.695921170120126e+00   9.378461841583901e-01   6.223829752573149e+00 -2.71770695e+00  -2.83727037e+00   1.82122940e+00
C     3.565306278193749e+00   3.959846338387680e-02   3.585716834231007e+00 -1.08256144e+00  -1.68980249e+00   1.34315110e-01
C     5.348846193012467e+00   1.774436371221964e+00   3.540379741266004e+00 -9.40407200e-02   1.04560185e+00   4.16106550e-01
C     3.514920001557533e+00   1.766871658953986e+00   5.376454026952476e+00  2.96691360e+00   9.93935740e-01  -1.60868269e+00
C     5.318460174259885e+00   7.095148849188996e+00   5.339308395877857e+00 -3.68929460e-01   1.40290004e+00  -3.92161420e-01
C     4.441280183193848e+00   9.212181619656860e-01   4.460031491223147e+00 -9.78301800e-02  -7.96271100e-01  -3.36091860e-01
C     6.215433354858632e+00   2.692107145963365e+00   4.440192807785667e+00  4.87502500e-02  -1.18625095e+00   2.80095350e-01
C     4.474570134755155e+00   2.623555508574418e+00   6.225950976967184e+00 -1.33337415e+00   1.23874446e+00   1.79314220e-01
C     6.210331071270448e+00   9.028920086932901e-01   6.205614703946305e+00  8.93181990e-01  -7.68823050e-01  -8.28356000e-02
C     7.067536394774284e+00   3.556951109330427e+00   3.569340876704408e+00  1.85410688e+00  -2.08766730e-01  -7.71556160e-01
C     1.739971966075382e+00   5.363705710741542e+00   3.525182857799384e+00  1.02626047e+00  -1.54947500e-02   9.09655680e-01
C     7.085042449329010e+00   5.322330994713379e+00   5.316742068512631e+00  5.79048630e-01   3.31402700e-01   5.50435370e-01
C     1.749658471411204e+00   3.617803116590068e+00   5.261316275659966e+00  2.54726100e-01  -1.73882867e+00   2.12642470e+00
C     8.539581249667936e-01   4.501055619847691e+00   4.420529133713092e+00  2.73396060e-01  -1.61390232e+00  -7.57774090e-01
C     2.657224481229822e+00   6.198462422358739e+00   4.454125387205093e+00 -4.41438500e-01   1.59271735e+00  -3.62714480e-01
C     8.892018264852058e-01   6.186315691954134e+00   6.223795845397252e+00  1.13359180e-01   1.30169433e+00   6.86465370e-01
C     2.603267146321998e+00   4.478848978667036e+00   6.206646989079180e+00  2.95665694e+00  -2.08143514e+00  -2.27847140e-01
C     3.569562161900569e+00   3.526508365365336e+00   3.598364068672284e+00  7.14931700e-02   4.28165990e-01  -1.80039133e+00
C     5.351440340763410e+00   5.330149762005796e+00   3.561506613050680e+00 -1.25466291e+00  -1.03659936e+00   3.58827760e-01
C     3.509390786106793e+00   5.300021565741640e+00   5.301542199508511e+00  1.54471313e+00   1.00284606e+00   1.30734369e+00
C     5.333709588969666e+00   3.552586822178651e+00   5.360845779068836e+00 -2.75191900e-02  -1.24249839e+00  -9.09233750e-01
C     4.457364979729932e+00   4.385557187191442e+00   4.466099880529614e+00 -7.28777800e-01   1.96742519e+00  -1.05062410e-01
C     6.186834180300038e+00   6.210135518564172e+00   4.436292487378299e+00  9.84312490e-01   3.75898360e-01   6.99522350e-01
C     4.423552061516473e+00   6.251042997973522e+00   6.233841254991157e+00 -4.20878230e-01  -1.81117320e+00  -1.34102848e+00
C     6.227001033156610e+00   4.406781302197560e+00   6.213483727786644e+00 -2.36596570e-01   1.45644325e+00  -5.72088020e-01
