64
Lattice="7.10842262195238 0 0 0 7.10842262195238 0 0 0 7.10842262195238 " PBC="1 1 1" Properties=species:S:1:pos:R:3:force:R:3 Energy="-507.54578649"
C     7.001893097416084e+00   2.923708440451240e-02   7.091653708870967e+00  2.41816538e+00  -1.60861232e+00   1.89442837e+00
C     1.727299852154934e+00   1.778450852896609e+00   6.984277928574141e+00  1.29721065e+00  -3.11455800e-02   4.94045001e+00
C     7.100793505423084e+00   1.800959530954386e+00   1.827879838258588e+00  6.24787090e-01  -1.76079376e+00  -1.43280766e+00
C     1.811688059962074e+00   1.848829639235800e-03   1.734507792691614e+00 -1.09042396e+00   5.70325540e-01  -9.48771400e-01
C     8.252521108162214e-01   9.108721371791808e-01   8.522516770326364e-01  1.52214711e+00   6.38019300e-02  -1.23698800e-02
C     2.710530684625655e+00   2.633928900788011e+00   8.525625283538090e-01 -2.91881428e+00   2.76709460e-01  -1.90102020e-01
C     9.467057666908268e-01   2.606108240674760e+00   2.730932497303091e+00 -1.81274458e+00   2.32107014e+00  -1.92788542e+00
C     2.673817032393653e+00   8.775573061387054e-01   2.622858030146944e+00 -6.71870230e-01  -2.31400550e-01   2.54739158e+00
C     3.630550508706061e+00   2.918021702355240e-02   7.033001616243764e+00 -1.02851801e+00  -1.17863789e+00   2.87955639e+00
C     5.391516490147350e+00   1.885029068175471e+00   4.554707576919760e-02 -2.74316141e+00  -5.42015952e+00  -1.60319680e+00
C     3.499193185184593e+00   1.745214996431442e+00   1.747727112985350e+00  2.72642231e+00   4.90952940e-01   1.31911090e-01
C     5.358709271566170e+00   7.037540628423538e+00   1.856832727926753e+00 -2.23785868e+00   9.86712240e-01  -2.84541589e+00
C     4.485737466691174e+00   8.428096303507165e-01   8.532908573354542e-01 -1.33431980e-01   2.23922818e+00   1.94467687e+00
C     6.193170699307732e+00   2.659612271472107e+00   9.371766418318120e-01  1.67373721e+00   1.90854867e+00   1.67438538e+00
C     4.379650230162675e+00   2.672971912028360e+00   2.698272067649012e+00 -1.78305020e-01   9.24509260e-01  -2.76654167e+00
C     6.226337248652355e+00   8.496340004028213e-01   2.645816387019663e+00  8.36212340e-01   5.21958350e-01   4.72089750e-01
C     7.054348635876981e+00   3.481954194067700e+00   5.241231925136740e-02  2.01418255e+00   3.10005130e+00  -1.41085702e+00
C     1.752725400350603e+00   5.340171216215472e+00   7.095135272101791e+00  4.27225290e-01   3.59521940e-01  -6.40088680e-01
C     7.880809605043960e-02   5.319539446066279e+00   1.849309457762650e+00 -2.18872151e+00  -1.22938174e+00  -2.92160529e+00
C     1.781637203336024e+00   3.548827390707612e+00   1.755716198083741e+00  7.56046820e-01  -9.72975300e-01   1.34858945e+00
C     8.999169205741415e-01   4.413957894590486e+00   8.648403380715254e-01 -8.04223390e-01   1.60943310e-01   1.71875300e+00
C     2.690595326640543e+00   6.262708488166751e+00   8.268177408982763e-01 -9.43666810e-01  -1.69858977e+00   2.62948490e-01
C     9.634770946835501e-01   6.189516614659921e+00   2.588338676893509e+00  2.60342230e-01   1.39994567e+00   3.32629957e+00
C     2.655032243693814e+00   4.454437944547695e+00   2.721697590056317e+00 -6.08852140e-01  -3.11306930e-01  -1.90154882e+00
C     3.550429558081933e+00   3.478141520511237e+00   7.052972800678881e+00  1.07160493e+00   2.25057296e+00   2.14942524e+00
C     5.383091445489675e+00   5.256468402517353e+00   7.083825700629144e+00 -1.83416361e+00   3.69232267e+00   2.00431877e+00
C     3.467254473679124e+00   5.307493726347105e+00   1.725527722395768e+00  2.82921544e+00   8.69616380e-01   1.20140869e+00
C     5.345733912336753e+00   3.637824841910012e+00   1.806922573437626e+00 -1.96156404e+00  -2.74068096e+00  -2.63045570e-01
C     4.421970508567750e+00   4.419002315618542e+00   8.623206865896402e-01  2.09307150e-01   6.62999300e-01   4.24787900e-02
C     6.226957245273272e+00   6.177027684790391e+00   9.802089709307324e-01  2.82630100e-01  -3.20301190e-01  -2.25612363e+00
C     4.344097170091840e+00   6.197681775386610e+00   2.679049897705366e+00  2.15655070e+00   2.04588640e-01   1.40728810e-01
C     6.221775702772874e+00   4.452089463882499e+00   2.732025275112463e+00  1.38001418e+00   5.19347080e-01  -1.83459669e+00
C     6.534929299863640e-02   7.022440064083420e+00   3.512710703807237e+00 -1.62233446e+00   1.66773734e+00   1.13298686e+00
C     1.778397397558506e+00   1.716174246659693e+00   3.609681743746717e+00  5.88043330e-01   1.02829122e+00  -2.32321832e+00
C     6.986021908979732e+00   1.748058863069025e+00   5.288171611981422e+00  3.82776613e+00   1.63956722e+00  -7.31223170e-01
C     1.744794462149242e+00   9.371090407326960e-02   5.344566211752966e+00  9.12568180e-01  -3.26637416e+00   2.15059222e+00
C     9.020409883372238e-01   8.485427153621991e-01   4.429454113733633e+00 -2.03960571e+00   1.05758104e+00  -4.67215000e-03
C     2.631128466612636e+00   2.621489232287237e+00   4.461364391548623e+00 -1.25412200e-02   2.83568510e-01   2.44786037e+00
C     8.349686847797256e-01   2.704270012487316e+00   6.217390943363954e+00 -1.59283779e+00  -3.35131114e+00  -1.01400590e-01
C     2.716645563016057e+00   8.984255735084656e-01   6.260624298654568e+00 -1.49036538e+00   1.00020343e+00  -3.13916638e+00
C     3.564894913776729e+00   4.745611374802480e-02   3.645046643870801e+00  2.79334700e-01  -6.93051270e-01  -2.61179764e+00
C     5.331248013300586e+00   1.823283603276723e+00   3.405902531056618e+00  5.97500140e-01  -5.42394890e-01   3.62503155e+00
C     3.619209518005434e+00   1.777742854003657e+00   5.368409069652291e+00  1.95663550e-01   5.85752090e-01  -1.49182225e+00
C     5.410741290207367e+00   9.228168462129240e-02   5.224811895389897e+00 -2.40265796e+00  -2.82580292e+00   3.12488038e+00
C     4.572374992667960e+00   9.679314455499208e-01   4.379780882970431e+00 -3.83120030e+00  -9.12613420e-01   9.36691180e-01
C     6.191624759556335e+00   2.735003917442921e+00   4.298602412313126e+00  2.30434960e-01  -2.78647514e+00   4.45375866e+00
C     4.530615497723377e+00   2.693607023136185e+00   6.234900765382668e+00 -2.20887846e+00  -7.16561040e-01  -1.00147287e+00
C     6.192060576947167e+00   8.682885628002611e-01   6.198443016364986e+00  2.23802050e-01   3.16498552e+00   3.66712250e-01
C     5.563335879316800e-02   3.569593865465454e+00   3.594692710557507e+00 -5.85478170e-01   1.73062860e-01  -1.52449810e+00
C     1.868802529692345e+00   5.423409707748053e+00   3.573885433453826e+00 -2.48500226e+00  -2.01803737e+00   1.05917709e+00
C     7.091658187177218e+00   5.266631385421393e+00   5.357034740449576e+00  1.10514140e-01   3.56584854e+00  -7.52174160e-01
C     1.688611195782191e+00   3.519959304521304e+00   5.407417462874482e+00  2.91476410e+00   1.68925397e+00  -3.20180135e+00
C     8.924671514999293e-01   4.452966856486486e+00   4.495485104461528e+00  7.23838690e-01   3.14882090e-01  -1.04038074e+00
C     2.666600064160245e+00   6.309527687248024e+00   4.589234820522303e+00  9.36922050e-01  -1.91132475e+00  -3.71620403e+00
C     7.966321796635774e-01   6.274521620297798e+00   6.214826935324920e+00  2.11301827e+00  -1.55108767e+00   4.47706400e-01
C     2.663548915919062e+00   4.381842894204040e+00   6.215161457693417e+00 -3.70910380e-01   1.41642938e+00   3.91226420e-01
C     3.438867059030379e+00   3.544247434013546e+00   3.643004891641658e+00  3.45398090e+00   2.93956200e-01  -2.58422633e+00
C     5.259350441384406e+00   5.303079538068538e+00   3.523920686278977e+00  1.05619785e+00   1.29324945e+00   1.59976567e+00
C     3.584134001766212e+00   5.289430726880102e+00   5.356898969577535e+00 -9.47292600e-01   2.79555487e+00   5.55883680e-01
C     5.344705039246734e+00   3.560557425378231e+00   5.318305992573256e+00 -2.29869610e-01   1.00367681e+00  -1.60508608e+00
C     4.420364360476761e+00   4.475523303144270e+00   4.419040701100690e+00 -8.82396090e-01  -2.24094705e+00   1.85607469e+00
C     6.178254953955734e+00   6.192761609585951e+00   4.477419617046607e+00  2.33247953e+00  -5.83931780e-01  -3.09509383e+00
C     4.519197167384645e+00   6.284537174516700e+00   6.221970615721115e+00 -6.68824990e-01  -2.85754916e+00  -1.99540025e+00
C     6.236307166798036e+00   4.447582723941419e+00   6.206498067625292e+00 -4.57035030e-01  -2.74865654e+00   1.03653305e+00
