64
Lattice="7.10842262195238 0 0 0 7.10842262195238 0 0 0 7.10842262195238 " PBC="1 1 1" Properties=species:S:1:pos:R:3:force:R:3 Energy="-511.96145176"
C     4.745412338969120e-02   7.091975080657618e+00   7.007766218353181e+00 -1.34257470e+00   3.35100680e-01   2.75849949e+00
C     1.780919536988308e+00   1.758270538668012e+00   1.182159115396480e-02 -5.80386410e-01   9.53064720e-01  -6.01167800e-02
C     7.083397773587421e+00   1.753167117732209e+00   1.716364539133231e+00  9.14879840e-01   6.16862000e-01   4.29894990e-01
C     1.781248870208293e+00   7.074872429086577e+00   1.759410160982451e+00  6.89131700e-01   6.51086940e-01   9.63095140e-01
C     8.831777937358870e-01   8.458747111002344e-01   8.805844279114324e-01  5.57429240e-01   4.16990450e-01  -1.22127325e+00
C     2.616075741956750e+00   2.704319487108751e+00   9.177281397119444e-01  8.28878320e-01  -1.16863971e+00  -8.52783900e-02
C     8.217815656404588e-01   2.627485684356790e+00   2.706361808011704e+00  7.00588390e-01   2.10867846e+00  -2.40387362e+00
C     2.634571999782442e+00   9.362697492739526e-01   2.634035740379989e+00  1.28126797e+00  -1.14791767e+00   5.76759400e-01
C     3.515612504089174e+00   3.780003246101680e-02   7.107251578457581e+00  1.89172314e+00  -7.31508500e-01  -7.08876070e-01
C     5.321294586695383e+00   1.784291275089653e+00   7.055927985214693e+00 -6.44137520e-01  -5.93257950e-01  -1.68480000e-04
C     3.552365252645586e+00   1.815357285550065e+00   1.797276159605381e+00  1.29966630e-01  -2.56158680e-01  -8.29053330e-01
C     5.360790902046211e+00   3.076027720352600e-03   1.754437535022856e+00  3.24639370e-01   2.75019570e-01  -7.88924610e-01
C     4.451339951801446e+00   9.294559707715515e-01   8.532572344964616e-01 -7.49265070e-01  -1.05502934e+00   1.04776911e+00
C     6.192504995529369e+00   2.641869932949491e+00   8.012924615332494e-01  2.14975223e+00   6.96691120e-01   1.69448184e+00
C     4.494379673659891e+00   2.634225677432396e+00   2.724927870547524e+00 -1.26906371e+00   4.72135160e-01  -1.48965153e+00
C     6.249099057639630e+00   9.302494839886222e-01   2.607678917736875e+00 -1.36871747e+00  -2.75579863e+00   1.87978623e+00
C     1.638647799207640e-02   3.585372431155068e+00   7.064679946228663e+00 -9.51436820e-01  -2.30041400e-01   1.70499097e+00
C     1.781204513651145e+00   5.318522799463167e+00   5.014849989957600e-02  1.08797055e+00   4.07380970e-01  -9.46677730e-01
C     7.064874077250415e+00   5.338471308030125e+00   1.751973968995442e+00  1.35446548e+00   2.16957520e-01   1.25675935e+00
C     1.713338981213480e+00   3.545155321750572e+00   1.835388393987868e+00  1.26924528e+00   7.89090340e-01  -1.11625767e+00
C     8.576508083494312e-01   4.469328099578261e+00   9.243652028280124e-01  4.35248140e-01  -1.39316991e+00  -5.00457600e-01
C     2.751689375690395e+00   6.205963372075815e+00   9.224035625217972e-01 -2.71547200e+00   3.21707860e-01  -6.82164800e-01
C     9.229637062242532e-01   6.191758540070043e+00   2.660352542603753e+00 -2.01508824e+00   7.07268250e-01   4.28708030e-01
C     2.699095151904182e+00   4.452427682630759e+00   2.683552017171742e+00 -1.79430694e+00  -1.10828396e+00   8.01691300e-01
C     3.503392770184263e+00   3.579377329685812e+00   1.968634994073280e-02  1.42277638e+00  -1.60447653e+00   7.84926840e-01
C     5.272863837121930e+00   5.312642285766546e+00   1.860643837630240e-02  2.06506119e+00   1.72359200e-01   2.86736550e-01
C     3.602824532782109e+00   5.301635675265963e+00   1.823985702178900e+00  2.42940680e-01   4.84880220e-01  -6.97336510e-01
C     5.402957709606920e+00   3.470225367828926e+00   1.784838765799845e+00 -2.56418742e+00   2.09226875e+00   2.39366820e-01
C     4.466540815984733e+00   4.362676809714864e+00   9.482691220776436e-01 -8.45878850e-01   1.68260996e+00  -1.29219351e+00
C     6.255637953439316e+00   6.213656035950954e+00   8.406995661801958e-01 -1.68195380e+00   6.67163300e-01   1.41977700e-01
C     4.524372738810041e+00   6.208798139932445e+00   2.661471905913725e+00 -1.50701665e+00   8.98894980e-01   5.71321050e-01
C     6.185938803386823e+00   4.474364417004531e+00   2.664233528101595e+00  2.21125126e+00  -2.45258002e+00   3.64266350e-01
C     7.100700029665632e+00   1.978522809937700e-02   3.594311130431265e+00  5.48277060e-01  -1.00465808e+00  -3.09124305e+00
C     1.719282404450289e+00   1.820097750426891e+00   3.510140511440524e+00  1.71208892e+00  -2.52862290e+00   1.58458235e+00
C     2.393853726779060e-02   1.771924396836508e+00   5.326833611769340e+00 -6.99418840e-01  -2.05084090e-01   1.80986530e-01
C     1.785742175230621e+00   3.003166388497600e-03   5.280920807656343e+00  1.16125996e+00  -4.10504730e-01   4.47973250e-01
C     8.787461898219003e-01   8.527179184722822e-01   4.412455102964391e+00  7.56685810e-01   2.13202510e+00   1.10757733e+00
C     2.624807799387384e+00   2.704599274623074e+00   4.420056210356184e+00 -1.39912670e-01  -2.80826720e-01  -4.64414530e-01
C     8.992200108204768e-01   2.689724189448462e+00   6.248999966228307e+00 -6.43654000e-02  -1.39921608e+00  -1.26753205e+00
C     2.652454374230671e+00   9.123563758222368e-01   6.164068248427642e+00 -6.94881890e-01  -1.58381100e-02   1.44109129e+00
C     3.614907287383132e+00   3.557495401250440e-02   3.530681151611728e+00 -1.69681008e+00  -7.42124900e-01   1.37499790e-01
C     5.362455268118458e+00   1.734357378468975e+00   3.549870693895549e+00 -8.03913570e-01   6.46104600e-01   1.05692610e+00
C     3.480986311243761e+00   1.852383139703538e+00   5.280702934503040e+00  2.20501325e+00  -2.56817016e+00   1.70821587e+00
C     5.339245699590347e+00   7.101121701295450e+00   5.316697498702803e+00 -1.12023191e+00   3.02726610e-01   1.50339250e+00
C     4.438373478100305e+00   8.894578007837521e-01   4.496458034265527e+00  1.06971700e-01   3.91881510e-01  -2.95011334e+00
C     6.200518533601574e+00   2.598136357959108e+00   4.466399571627274e+00  9.76041020e-01   2.38622583e+00  -3.56910640e-01
C     4.391035008746640e+00   2.667463737508575e+00   6.218626813720666e+00  3.86867190e-01   1.22223401e+00  -3.87058160e-01
C     6.216879350187992e+00   8.916105865742192e-01   6.165866608266277e+00  8.17799370e-01  -4.82158620e-01   1.05234491e+00
C     7.579071281670199e-03   3.518186179582971e+00   3.600717383064862e+00 -2.42671578e+00   1.01597940e+00  -6.19952790e-01
C     1.742300472073015e+00   5.312214358724821e+00   3.575019226861716e+00  1.81186029e+00   2.71059490e-01  -1.48589750e-01
C     7.091215332447992e+00   5.385744806401042e+00   5.358998228945673e+00  7.66836530e-01  -1.74569974e+00  -7.63294800e-02
C     1.760513672509979e+00   3.549304010444283e+00   5.332890414346937e+00  1.28493000e-02   1.06178664e+00   1.01373575e+00
C     8.064929124378152e-01   4.430365271345065e+00   4.510226480206657e+00  2.62470323e+00   3.66433270e-01  -1.75216231e+00
C     2.719360411783088e+00   6.245703790659413e+00   4.394882513573942e+00 -1.32506904e+00  -9.91908580e-01   1.26334130e+00
C     9.541519815537295e-01   6.195813468669396e+00   6.202250074267580e+00 -9.16995970e-01   1.05343272e+00  -2.13547800e-02
C     2.664415290467988e+00   4.432837154226944e+00   6.252738570021070e+00 -3.67564620e-01   9.91495010e-01  -1.00566944e+00
C     3.573952679131812e+00   3.550176284983983e+00   3.582867991697589e+00 -9.93339100e-02   6.14539970e-01  -8.68803730e-01
C     5.354417916830475e+00   5.311518941739907e+00   3.593048816742405e+00 -1.72442530e-01   1.09477128e+00  -1.02030658e+00
C     3.597073961050981e+00   5.336359822175080e+00   5.356845443155206e+00 -2.18454425e+00  -1.67909910e-01  -1.17439204e+00
C     5.333184916296084e+00   3.563285069305978e+00   5.345361715328369e+00 -2.43417300e-01  -6.65423350e-01  -1.51036010e-01
C     4.453947889892272e+00   4.442903960172935e+00   4.449445841510121e+00  2.27961540e-01  -1.46037870e-01   9.39138310e-01
C     6.240392945951559e+00   6.242086030051190e+00   4.475013771410868e+00 -9.04537660e-01  -3.69354300e-01  -1.22930339e+00
C     4.407396251838416e+00   6.208441083864242e+00   6.235535689691087e+00  1.34909390e+00   9.12908210e-01   3.30294800e-01
C     6.226089093618691e+00   4.492910860293921e+00   6.229815115503416e+00 -1.16286887e+00  -1.20573825e+00  -2.63951750e-01
