64
Lattice="7.10842262195238 0 0 0 7.10842262195238 0 0 0 7.10842262195238 " PBC="1 1 1" Properties=species:S:1:pos:R:3:force:R:3 Energy="-512.97906136"
C     1.682272188826580e-02   7.099781194957771e+00   7.461000381951999e-03 -3.68932020e-01   1.50264090e-01   4.90502930e-01
C     1.758102993146859e+00   1.716650013385650e+00   2.699203128843780e-02  1.56042049e+00   2.29532393e+00  -1.29633698e+00
C     2.038105608338540e-02   1.775927007445378e+00   1.792828348487821e+00 -1.29561570e+00  -2.23564340e-01   1.39070700e-02
C     1.779390159861616e+00   7.090474066137179e+00   1.781165204074056e+00  1.73968480e-01   6.50750700e-01   1.29601418e+00
C     9.121404930272674e-01   8.708077877767891e-01   9.297900666346915e-01 -1.03019711e+00   4.57326300e-02  -1.23106007e+00
C     2.678179329187094e+00   2.708817696942687e+00   8.866633376833777e-01 -1.73463210e-01  -2.57279540e+00   2.21463200e-02
C     9.153918855336555e-01   2.666745004897467e+00   2.634523093834817e+00 -4.63088230e-01   4.51981540e-01   3.71204310e-01
C     2.668710483751897e+00   8.729873012363074e-01   2.705115132852608e+00  1.90563000e-02   8.02045920e-01  -2.09919612e+00
C     3.549849510796142e+00   1.475900463322740e-02   7.083031405485587e+00  3.02543400e-02  -8.79508560e-01   2.57563190e-01
C     5.306744356434505e+00   1.783020786714780e+00   7.104258363860752e+00  1.26758343e+00   8.72823000e-03  -8.44646180e-01
C     3.579360127303072e+00   1.772866547170563e+00   1.793462917375108e+00 -1.40177663e+00   2.30254520e-01  -1.00894711e+00
C     5.351520239433659e+00   1.372010866731440e-02   1.754750021281231e+00 -1.14757595e+00  -8.97518500e-02   9.48284740e-01
C     4.458799032909291e+00   8.992638697880422e-01   8.361395841536919e-01 -6.91084710e-01  -3.52963410e-01   1.98060458e+00
C     6.168052021716569e+00   2.694988473988156e+00   9.074784340519404e-01  1.31777898e+00  -1.36981314e+00  -2.01859270e-01
C     4.394149137612237e+00   2.692527466992886e+00   2.663953527334593e+00  1.60686880e+00  -1.15122608e+00   2.82127530e-01
C     6.206793493669378e+00   8.854257613052358e-01   2.689392936954370e+00  4.65010300e-02   6.23958830e-01  -9.56882390e-01
C     1.555514796666740e-02   3.524529735929059e+00   3.617504705008480e-02 -1.25134383e+00   1.19854183e+00  -1.44674270e+00
C     1.743328349983867e+00   5.371037195663357e+00   1.129919317562100e-02  1.37242287e+00  -2.27190285e+00  -5.66874360e-01
C     5.690150138857600e-03   5.321549992320120e+00   1.784373732792045e+00 -5.61650990e-01  -1.03331900e-02  -5.59415300e-02
C     1.770465819599110e+00   3.561990909883781e+00   1.723048873259722e+00  1.21168526e+00  -4.30011520e-01   1.89772409e+00
C     9.099638940210234e-01   4.406361763094528e+00   8.633896511832359e-01 -1.27310916e+00   2.23281069e+00   1.01824833e+00
C     2.653307811450428e+00   6.202378736717002e+00   9.055985406058552e-01  2.53784090e-01   9.31408000e-01  -6.61960530e-01
C     8.761005770911887e-01   6.258797220788549e+00   2.682660692059421e+00  4.43639740e-01  -2.38755189e+00   5.63554800e-02
C     2.696898578230376e+00   4.395688893035954e+00   2.666122520328634e+00 -1.66249993e+00   1.42870873e+00  -6.63069620e-01
C     3.563738942090264e+00   3.581431948159897e+00   1.322841907468900e-02 -7.42415430e-01  -6.47840990e-01  -6.22468720e-01
C     5.325331957490865e+00   5.403551120727237e+00   1.283944618892260e-02  5.97838370e-01  -2.05831719e+00  -1.44174280e-01
C     3.560183522348419e+00   5.321456943068024e+00   1.758368137310585e+00 -5.44997820e-01   1.44200030e-01   7.48081470e-01
C     5.263275996692075e+00   3.575546032062085e+00   1.783254298397848e+00  1.63926942e+00   1.45021650e-01  -5.79775860e-01
C     4.448421162389448e+00   4.500166356177929e+00   8.678304960466283e-01 -4.30806370e-01  -1.40780705e+00   2.38224160e-01
C     6.207262862814978e+00   6.226501950804460e+00   9.341751103805171e-01  1.38693545e+00   1.91753260e-01  -1.96086192e+00
C     4.424816010142536e+00   6.208079265152884e+00   2.635662218559672e+00  7.64180960e-01   1.06007872e+00   7.50556030e-01
C     6.187894117196906e+00   4.427411366325323e+00   2.632417579054773e+00  1.25458643e+00   2.62195370e-01   1.86890560e+00
C     7.083252832850199e+00   1.602138940631320e-02   3.588026431824471e+00  9.99633040e-01   8.44634470e-01  -1.67174992e+00
C     1.811992513702888e+00   1.833972111865060e+00   3.529604296669025e+00 -1.12489512e+00  -2.45525808e+00   5.15091110e-01
C     1.260081644156920e-02   1.785731157175561e+00   5.321902712250524e+00 -7.09388300e-01   4.29927700e-02   8.87382940e-01
C     1.713980729607614e+00   7.093827748845069e+00   5.329982500821547e+00  2.72948978e+00   9.54598200e-01  -1.13915257e+00
C     8.603213716435389e-01   9.570068662463738e-01   4.412769081991517e+00  1.10367783e+00  -1.89721639e+00   7.04389680e-01
C     2.684570654133188e+00   2.631977283357690e+00   4.440211360768705e+00  3.08215500e-02   1.77449462e+00   5.83000400e-01
C     8.836737483820843e-01   2.648040683541687e+00   6.228442550179720e+00  4.45666320e-01  -1.92018310e-01   8.45639400e-02
C     2.662208125244478e+00   8.549913341946106e-01   6.188010339906744e+00 -8.64660290e-01   7.07776160e-01   1.19136014e+00
C     3.536891709370596e+00   7.106427925528601e+00   3.539022103629810e+00  3.20949090e-01  -9.13728050e-01   9.68279980e-01
C     5.292870137164789e+00   1.772909695295866e+00   3.533141163427831e+00  8.66106810e-01   5.10918080e-01   1.25586304e+00
C     3.572468866994113e+00   1.769768483340088e+00   5.344392695156811e+00 -1.53836244e+00  -1.21428614e+00  -1.14277934e+00
C     5.370416274947500e+00   7.051479463254871e+00   5.301113490540298e+00 -1.55487515e+00   2.80163855e+00   1.03769945e+00
C     4.424785230672591e+00   8.712701195839940e-01   4.424432226405282e+00  1.06778902e+00  -5.57438000e-02   3.39757140e-01
C     6.206854981525042e+00   2.654322183358302e+00   4.501357798893267e+00  3.10982680e-01   3.39548810e-01  -2.75409119e+00
C     4.395219381721904e+00   2.635763584666233e+00   6.212980238212469e+00  1.99182024e+00   1.97458616e+00   5.14010800e-01
C     6.263479538768343e+00   8.744545507493016e-01   6.204996697683721e+00 -1.28620182e+00   1.29057740e-01   5.35494740e-01
C     2.340441039212380e-02   3.514272850762209e+00   3.540726561205634e+00 -1.16578681e+00   1.38285290e+00   6.07682690e-01
C     1.792590785003860e+00   5.275095242066574e+00   3.560629931288955e+00  2.69377150e-01   2.17060088e+00  -6.39141740e-01
C     1.923688437847020e-02   5.376340434359008e+00   5.306994501826503e+00 -2.17151430e-01  -2.37798711e+00   1.11156063e+00
C     1.810969967109001e+00   3.550545851875997e+00   5.318589831888473e+00 -1.17757757e+00  -3.84562110e-01   1.45341659e+00
C     9.204314017501043e-01   4.450501797690323e+00   4.445837250767078e+00 -1.06490715e+00  -1.06986129e+00  -4.21531010e-01
C     2.671926120892506e+00   6.197873205207767e+00   4.444924173881539e+00 -6.04313240e-01  -1.18848930e-01   7.31918800e-02
C     8.994184068958009e-01   6.208393670685367e+00   6.212715307301422e+00 -1.28116516e+00   1.04517907e+00   4.77509310e-01
C     2.641585311707787e+00   4.435376993629070e+00   6.258834468923077e+00  1.31627140e+00   5.52830940e-01  -1.36023393e+00
C     3.537814453710898e+00   3.535094415795355e+00   3.562037185715036e+00  1.05431580e+00   8.14138470e-01   1.79238540e-01
C     5.340545190329510e+00   5.347229666624454e+00   3.561768203003096e+00 -2.73233800e-02  -1.86432100e-01  -1.10310687e+00
C     3.580658551778841e+00   5.300748117617630e+00   5.358924727855783e+00 -1.22171753e+00   1.40723299e+00  -4.65857250e-01
C     5.336466946103964e+00   3.556786549346774e+00   5.333075091166604e+00 -3.74165110e-01   4.40324080e-01   7.79038050e-01
C     4.466623060434446e+00   4.490376494377212e+00   4.445350394901834e+00 -5.58510420e-01  -2.36102128e+00   2.03348700e-01
C     6.242957380495950e+00   6.242865966181057e+00   4.437882286097262e+00 -2.93120680e-01  -1.41326403e+00  -2.55125110e-01
C     4.444490986607076e+00   6.229018545664618e+00   6.203916501782387e+00  3.77465560e-01  -1.48460030e-01   4.55442970e-01
C     6.222927409405766e+00   4.464220342504660e+00   6.252636919577604e+00  2.68877760e-01  -1.08615990e-01  -9.01985420e-01
