64
Lattice="7.10842262195238 0 0 0 7.10842262195238 0 0 0 7.10842262195238 " PBC="1 1 1" Properties=species:S:1:pos:R:3:force:R:3 Energy="-510.76881451"
C     5.432462710459980e-02   1.696240239274880e-02   7.021568713638661e+00 -1.46047199e+00  -9.05738100e-01   2.73225608e+00
C     1.809112323025717e+00   1.699091001082405e+00   5.560407209197359e-02 -4.80783350e-01   2.47662800e+00  -1.15040458e+00
C     7.100731804314743e+00   1.780881151506160e+00   1.766377836834575e+00  8.80031770e-01   2.76797640e-01  -1.04836493e+00
C     1.746438640301248e+00   7.088788303712845e+00   1.859567551361346e+00 -5.36758850e-01  -1.22210848e+00  -1.42285317e+00
C     8.982362762140951e-01   8.084605238190312e-01   9.107929493511940e-01 -2.98153770e-01   2.33370569e+00  -3.63884200e-01
C     2.719246108347358e+00   2.687507783275546e+00   8.880613511600532e-01 -1.39408314e+00  -1.09946172e+00   1.99074610e-01
C     9.370270806198873e-01   2.651372187971002e+00   2.614255630344898e+00 -1.16795625e+00  -1.18191300e-02   1.39074191e+00
C     2.654690826155376e+00   8.594677211711033e-01   2.691916000479113e+00  1.29901687e+00   1.24121760e+00  -1.06200026e+00
C     3.537098422300386e+00   5.309657601276860e-02   7.054935222911584e+00  3.28769380e-01  -2.18301117e+00   1.75065584e+00
C     5.308271529950185e+00   1.728357514356564e+00   7.070632183909520e+00  1.00006323e+00   2.83964708e+00   3.35401480e-01
C     3.556402339104163e+00   1.785734284881513e+00   1.806800237484336e+00  9.48718190e-01  -9.02341800e-02  -1.42385989e+00
C     5.400942400709924e+00   2.961695850932520e-02   1.750182859747881e+00 -2.13900753e+00  -4.53182080e-01  -2.74750840e-01
C     4.480806993677716e+00   8.946318083561716e-01   8.453608432290345e-01 -1.99846522e+00  -3.10374980e-01   1.62464243e+00
C     6.190649910478228e+00   2.699001960483634e+00   8.447487369572263e-01  1.37411598e+00  -2.17530339e+00   1.36374860e-01
C     4.458693259580706e+00   2.674748662262230e+00   2.692709087190826e+00 -1.47232281e+00  -1.01029401e+00  -2.81643110e-01
C     6.220322172515536e+00   9.472806959123325e-01   2.670408899168494e+00 -1.66639800e-01  -1.27843784e+00  -2.14311640e-01
C     7.082980651348080e+00   3.595129878548637e+00   7.036429937389164e+00  1.31231589e+00  -1.49315283e+00   2.81020436e+00
C     1.764681696113216e+00   5.302170512983892e+00   1.985780509432720e-02 -1.10394625e+00   1.72436678e+00   1.86651720e-01
C     7.061484639176747e+00   5.291949454267047e+00   1.770050474465424e+00  1.01164904e+00   1.50337660e+00  -5.28038300e-01
C     1.806337976761357e+00   3.548114131581921e+00   1.769568096906430e+00 -1.10353837e+00   2.66028500e-02  -1.27540666e+00
C     8.655589285141811e-01   4.431070853374327e+00   8.568818191903995e-01  8.10217200e-02  -5.52402000e-03   1.04976634e+00
C     2.574228031487452e+00   6.183531251729655e+00   9.535836631652603e-01  3.39265102e+00   1.15283275e+00  -1.22777954e+00
C     8.054388755317216e-01   6.217480082983608e+00   2.727745933610997e+00  1.44969675e+00  -6.24037230e-01  -1.06994368e+00
C     2.631520567204355e+00   4.442994805814019e+00   2.662060980896244e+00  1.18975484e+00  -1.72938370e-01   4.89293010e-01
C     3.522186586580828e+00   3.619769093034081e+00   7.083355407388606e+00  2.10793936e+00  -2.14494636e+00   1.96098155e+00
C     5.326002068491253e+00   5.325567886037622e+00   7.107110902773932e+00 -5.25091300e-01   1.17547281e+00   2.17408614e+00
C     3.570869116483481e+00   5.330344888206715e+00   1.841650558894957e+00 -3.69005810e-01   1.27912500e-02  -2.00204718e+00
C     5.349127473295541e+00   3.501078054526512e+00   1.797868717714984e+00 -6.68850890e-01   5.94022490e-01  -6.58618560e-01
C     4.513656294120808e+00   4.426388251057627e+00   9.794455263413444e-01 -3.31558808e+00   1.11239973e+00  -2.93870275e+00
C     6.210992936500596e+00   6.260117041616405e+00   8.410394909498842e-01  1.38135219e+00  -1.42983755e+00   3.80816940e-01
C     4.487406239985446e+00   6.224201878497307e+00   2.640447395414777e+00 -1.23084000e-02   2.82259890e-01   6.52875950e-01
C     6.212641664043079e+00   4.362353305401429e+00   2.639651038828658e+00  1.29844220e+00   2.01653262e+00   7.96970030e-01
C     7.101716818437197e+00   1.057236407114862e-01   3.602138143493921e+00 -6.52302540e-01  -2.77346988e+00  -1.87145283e+00
C     1.827617110958553e+00   1.791732798393626e+00   3.541277677211363e+00 -1.25129882e+00   9.25432300e-02   4.10444840e-01
C     1.760692307170420e-02   1.864678436140899e+00   5.370013724974529e+00  2.42766160e-01  -2.06376726e+00  -1.38850083e+00
C     1.761902302868796e+00   7.088149540856213e+00   5.304510250289265e+00 -4.10262960e-01   9.23940800e-01  -1.03053152e+00
C     8.608455467275378e-01   9.595177743684363e-01   4.407128477558321e+00  1.53112223e+00  -2.41325230e-01   2.27474153e+00
C     2.747337243941300e+00   2.675586816373354e+00   4.439571887069810e+00 -2.91800486e+00   6.75205680e-01  -5.83951120e-01
C     9.805894847935810e-01   2.647441656767500e+00   6.252463971655259e+00 -2.54581323e+00   1.07732382e+00  -2.86577050e-01
C     2.626343716262888e+00   9.021429942018208e-01   6.146639675679475e+00  4.18893610e-01  -1.21254683e+00   2.79579302e+00
C     3.578301256669596e+00   7.103953128193448e+00   3.516109098493407e+00 -7.11978180e-01  -9.64871220e-01   1.74269552e+00
C     5.279982140449373e+00   1.730237692139554e+00   3.543664259021801e+00  7.80419600e-01   1.85445460e+00   2.85152498e+00
C     3.484683259679970e+00   1.777859289966172e+00   5.329439986007189e+00  3.57945764e+00  -2.06467880e-01  -2.47645920e-01
C     5.386646936315747e+00   7.069804123758516e+00   5.320394162802108e+00 -2.30558506e+00   1.33804526e+00   8.83712140e-01
C     4.411172103765708e+00   8.222327372241501e-01   4.509840066353035e+00  5.99398820e-01   1.40566283e+00  -2.82887133e+00
C     6.180115085986935e+00   2.674907037918203e+00   4.525753834240881e+00  1.07622913e+00   1.49466750e-01  -2.70976213e+00
C     4.426288377719816e+00   2.656176557567182e+00   6.213952101753076e+00 -1.05160393e+00   7.15459340e-01   3.84684970e-01
C     6.244679751296776e+00   9.302618526439810e-01   6.179475114698457e+00  4.84567320e-01  -1.42108503e+00   7.01186320e-01
C     7.096118580202815e+00   3.511305226486811e+00   3.532198231167289e+00  4.42514770e-01  -3.25624270e-01   1.11816149e+00
C     1.733751456524846e+00   5.245516171449814e+00   3.543858674380458e+00 -5.31132530e-01   3.00099353e+00   1.08883933e+00
C     7.060523509354296e+00   5.332750307337097e+00   5.337465892734752e+00  1.96818831e+00  -4.39717020e-01  -6.07677160e-01
C     1.839480002047940e+00   3.559671076161743e+00   5.341870555727009e+00 -1.50323358e+00  -7.05749490e-01   1.13837120e-01
C     8.685872587187535e-01   4.362396524610959e+00   4.453861096052082e+00 -5.48622600e-02   1.49994155e+00  -1.77716270e-01
C     2.622466356060582e+00   6.238506726009342e+00   4.380897616164032e+00  1.42824494e+00  -1.84260534e+00   1.31061049e+00
C     9.097598112076031e-01   6.187050205263460e+00   6.207065177581915e+00 -8.60915030e-01   7.71405220e-01  -5.90532250e-01
C     2.625981826467303e+00   4.513773867430942e+00   6.237056963215993e+00  2.36081192e+00  -1.89866552e+00  -7.44277010e-01
C     3.532400892296185e+00   3.598934306334861e+00   3.553254231978443e+00  2.33451586e+00  -1.28004797e+00   3.47907740e-01
C     5.415536205601462e+00   5.325317314140268e+00   3.506391316098057e+00 -2.39856854e+00   1.26228220e-01   1.54909475e+00
C     3.551192931587096e+00   5.356149173159577e+00   5.363234422321836e+00 -7.59358400e-02   3.96187600e-01  -1.99828059e+00
C     5.314375177032850e+00   3.584354505035884e+00   5.391853713716444e+00 -4.52630220e-01  -1.15884164e+00  -2.08342470e+00
C     4.478261396453268e+00   4.439841936045145e+00   4.448732369131752e+00 -1.37431938e+00   1.46698805e+00   5.23764700e-02
C     6.243908913947863e+00   6.254767313836818e+00   4.432527155916485e+00  1.88354630e-01  -9.84512860e-01  -2.65252850e-01
C     4.451249674834172e+00   6.209740858940309e+00   6.236138341760810e+00 -5.77564890e-01   5.46283580e-01  -3.21538670e-01
C     6.168838426511019e+00   4.481781202997786e+00   6.246921036948862e+00  1.41113268e+00  -6.95044110e-01  -1.60160351e+00
