26
Lattice="8.88768389401873 1.33226762955019e-15 0 4.44384194700937 7.69696003302603 0 0 0 30 " PBC="1 1 1" Properties=species:S:1:pos:R:3:force:R:3 Energy="-208.5742227"
C     3.468488853811270e-01   4.673654166504234e-01   3.325840500000000e+00  4.64141100e-01  -2.78178845e+00  -2.51268310e-01
C     7.157816964878623e+00   7.514506594303262e+00   3.417708900000000e+00  1.21052372e+00   1.01017184e+00   4.53202950e-01
C     4.095439315163673e+00   2.137381145866748e-01   3.489603000000000e+00  8.31414100e-01  -3.28660480e-01  -6.53632840e-01
C     9.598336432564153e+00   6.900587133232023e+00   3.513621900000000e+00 -7.42802800e-01   2.66274400e+00  -6.34524800e-02
C     1.098376979475330e+01   7.346803843716816e+00   3.426048300000000e+00 -2.49110533e+00  -2.18399920e-01  -5.04212820e-01
C     1.195132056840801e+01   6.366666641989392e+00   3.331595400000000e+00  2.40143524e+00  -8.12046210e-01   2.56333790e-01
C     4.460777519884696e+00   6.704761691905565e+00   3.295967700000000e+00  2.97754140e-01   2.40356040e+00  -3.80319860e-01
C     5.525638877895137e+00   5.756045405260608e+00   3.238554300000000e+00 -1.34850321e+00  -2.03102130e-01   9.44323750e-01
C     6.862409548874696e+00   6.132858858063692e+00   3.461605200000000e+00 -1.96088730e-01   8.94436460e-01  -1.36933667e+00
C     7.893934182250603e+00   5.171252934274095e+00   3.452087100000000e+00 -2.31718078e+00  -6.46287980e-01   9.23392290e-01
C     9.208946692111526e+00   5.555098252790988e+00   3.543626700000000e+00  2.06937714e+00   6.74831400e-02  -1.84922450e-01
C     1.023735779206760e+01   4.594277880742053e+00   3.516758400000000e+00  1.48501133e+00  -9.50477300e-01  -5.29617540e-01
C     1.161743939093924e+01   5.002445054166543e+00   3.379038000000000e+00 -2.45713120e-01  -1.31757049e+00  -4.71145000e-02
C     3.783294305157803e+00   4.017748404226147e+00   3.259639500000000e+00 -2.98617500e-02  -2.72985590e-01   8.39927180e-01
C     5.178013519422629e+00   4.383008335176200e+00   3.214351500000000e+00 -1.39503883e+00  -2.27859080e-01  -1.31058130e-01
C     6.159719484997146e+00   3.372545803656978e+00   3.253729500000000e+00 -8.32547700e-02   3.08348140e-01   1.19118923e+00
C     7.503713310020544e+00   3.797350802851916e+00   3.465558900000000e+00  8.49714440e-01  -6.05272670e-01  -1.50102125e+00
C     8.528427266786746e+00   2.825927791392057e+00   3.397603200000000e+00  1.20039005e+00  -1.40023652e+00   3.78336040e-01
C     9.931748203718300e+00   3.200253586713445e+00   3.454170900000000e+00 -8.64780710e-01   3.61182940e-01   4.10405120e-01
C     2.088579408055435e+00   2.231732175245695e+00   3.478631400000000e+00 -1.80621150e-01  -5.22245350e-01  -1.02818491e+00
C     3.471505643463797e+00   2.628302108084182e+00   3.417567000000000e+00 -1.01143992e+00  -2.56711170e-01  -6.80051830e-01
C     4.471959778246596e+00   1.599522274115966e+00   3.356420400000000e+00 -1.89767162e+00  -1.85904470e-01   9.56494350e-01
C     5.792200290405074e+00   1.987894636644103e+00   3.353078700000000e+00  2.40479699e+00   4.35241820e-01  -1.17978784e+00
C     6.845633286755263e+00   1.016031359070527e+00   3.277679100000000e+00 -2.46019080e-01   2.47067410e-01   1.27371227e+00
C     8.210320572785175e+00   1.402213166774126e+00   3.320295300000000e+00 -5.89845120e-01   2.20606613e+00  -9.70504400e-02
C     1.714522699820863e+00   8.416446453636300e-01   3.340933800000000e+00  4.25368650e-01   1.33245540e-01   9.73714880e-01
