26
Lattice="8.88768389401873 1.33226762955019e-15 0 4.44384194700937 7.69696003302603 0 0 0 30 " PBC="1 1 1" Properties=species:S:1:pos:R:3:force:R:3 Energy="-209.08463944"
C     1.247590904452347e+01   6.700569311716425e+00  -4.348770000000002e-02 -1.92938900e-02   2.41441570e+00   1.43962300e-02
C     8.743881346698970e+00   6.597052434455353e+00   8.716740000000001e-02 -8.00422500e-02  -3.17626304e+00   6.22983600e-01
C     1.009911840235883e+01   6.170066193757513e+00   1.459857000000000e-01  2.77428860e-01  -1.38270130e-01  -1.02596800e+00
C     1.046260329768341e+01   4.789759806742373e+00   9.805380000000000e-02 -2.45791280e-01  -2.94631760e-01  -9.86027500e-02
C     6.337204178729637e+00   5.967071034163110e+00   1.845330000000000e-02  8.88626000e-02  -1.36827434e+00  -1.44364300e-02
C     7.724116984245939e+00   5.592525798511267e+00   9.118320000000001e-02 -6.68573580e-01  -1.55343000e-01  -1.63094710e-01
C     8.079856840761536e+00   4.214827372463091e+00   1.112010000000000e-01 -7.17365910e-01  -6.87949100e-01  -9.38649600e-02
C     9.441540178003310e+00   3.815674493777736e+00   1.010925000000000e-01 -7.60371550e-01  -8.77877980e-01   3.64077600e-02
C     9.732376478614034e+00   2.403487067409534e+00   5.294070000000000e-02  6.49431280e-01   7.95050840e-01   2.95249780e-01
C     3.946532574067726e+00   5.368549110723086e+00  -4.658699999999882e-02  1.51413400e-02  -2.42056047e+00  -7.31352600e-02
C     5.307059090359571e+00   4.946607380659308e+00  -4.100130000000135e-02  1.02767344e+00   1.07774762e+00   2.06610440e-01
C     5.671767064305681e+00   3.570919092692566e+00  -1.972920000000045e-02  8.54324700e-02   5.91106100e-01   9.94626900e-02
C     7.057497274594616e+00   3.182577979822152e+00   7.462229999999999e-02 -5.00123850e-01   1.16034582e+00  -4.08703480e-01
C     7.374300676813523e+00   1.809165144149079e+00   3.188820000000001e-02 -1.72948040e-01   1.22360730e-01   8.42157500e-02
C     8.732446093730351e+00   1.411779949304214e+00   4.444650000000000e-02 -3.59180430e-01  -9.41296980e-01  -4.88546170e-01
C     2.923016142537673e+00   4.352326097347811e+00  -1.193729999999960e-02  2.87129000e-02   1.21743046e+00   6.51593430e-01
C     3.243446652990218e+00   2.978465221631393e+00   5.874510000000000e-02  6.97281530e-01   6.21861680e-01  -9.45611290e-01
C     4.628585921196954e+00   2.620370082894866e+00  -3.937469999999976e-02 -1.69937140e-01  -2.01159406e+00   1.02393162e+00
C     4.982052974726849e+00   1.207365778158680e+00   5.711550000000000e-02 -1.19104105e+00   1.45061575e+00  -5.52521620e-01
C     6.324384802351315e+00   8.447688414398070e-01   4.936800000000000e-03  1.19908457e+00  -1.35236009e+00   2.28429940e-01
C     1.111035081044263e+01   7.133152935687280e+00   6.756000000000000e-03  5.34364570e-01   6.64344810e-01   4.10671310e-01
C     2.202367269360427e+00   2.016567967904661e+00   6.008610000000000e-02  9.98543740e-01  -1.33372293e+00   5.70346600e-02
C     2.568770746749826e+00   6.217816748330828e-01   5.745150000000000e-02 -3.12465960e-01   1.31509160e-01   1.10281400e-02
C     3.951880690058991e+00   2.098569224915473e-01   8.457450000000000e-02 -8.82755410e-01   3.11027173e+00  -2.01589370e-01
C     1.742945912343919e-01   6.742383047079401e-03  -3.901979999999838e-02 -5.85675150e-01   7.91449400e-01   4.31368070e-01
C     5.969954193864055e+00   7.324788998639010e+00   1.443000000000000e-02  1.06360820e+00   6.09634110e-01  -1.07309380e-01
