26
Lattice="8.88768389401873 1.33226762955019e-15 0 4.44384194700937 7.69696003302603 0 0 0 30 " PBC="1 1 1" Properties=species:S:1:pos:R:3:force:R:3 Energy="-208.69069477"
C     1.238594773042959e+01   6.691916389250698e+00  -1.040144999999981e-01  7.30507110e-01  -7.87291840e-01   4.56449650e-01
C     8.640561177029024e+00   6.414284962789391e+00  -2.025950999999999e-01  4.33465970e-01   1.29335692e+00   2.98229200e-02
C     1.001523066472849e+01   6.043862526808017e+00  -1.638792000000002e-01 -4.11231850e-01   9.68498250e-01   2.78695480e-01
C     1.037087875592301e+01   4.689384674626345e+00  -1.245261000000006e-01 -2.22606678e+00   2.29430310e-01  -3.10400440e-01
C     6.265980457485219e+00   5.917023475808043e+00  -1.012017000000007e-01 -1.02855958e+00  -3.42842872e+00   1.97127500e-02
C     7.594957473468683e+00   5.440186411053503e+00  -1.906071000000011e-01  6.57878260e-01   2.09870114e+00  -1.62210200e-02
C     7.957005363649136e+00   4.099321325411290e+00  -2.232075000000009e-01 -3.82470590e-01  -1.34904410e+00   7.72617760e-01
C     9.317577873741859e+00   3.733946478847989e+00  -1.734149999999985e-01  7.02666780e-01  -1.65685477e+00   1.57322100e-02
C     9.675847209517444e+00   2.335425543800254e+00  -1.195509000000001e-01 -3.01082670e-01   5.70006670e-01  -3.94785170e-01
C     3.835017471114213e+00   5.317595851081288e+00  -1.805399999999935e-02  5.89485660e-01  -1.24221113e+00  -5.01618710e-01
C     5.218115016087692e+00   4.880026136402997e+00  -3.818610000000078e-02 -1.08957120e-01   9.04637720e-01   5.88318550e-01
C     5.562025587526644e+00   3.485157870707100e+00   6.842669999999999e-02  1.62042090e-01   1.33420280e-01  -1.48741954e+00
C     6.953698636520908e+00   3.089799747255735e+00  -8.932109999999938e-02 -1.27231101e+00  -7.11451990e-01   2.00800830e-01
C     7.274139234468669e+00   1.675915218170519e+00  -9.488310000000055e-02  5.29685590e-01   1.54078580e+00   2.33826800e-01
C     8.656330013553232e+00   1.330649064533594e+00  -1.183878000000007e-01 -1.89155030e-01   3.40053400e-02  -8.33804800e-02
C     2.790475179192085e+00   4.327564822992101e+00  -4.685249999999996e-02  3.42617609e+00  -1.54625781e+00   3.48734820e-01
C     3.163661159210847e+00   2.908098920310730e+00  -3.346140000000020e-02  9.33468250e-01   1.90405532e+00  -3.65090510e-01
C     4.516869689894782e+00   2.473621844172494e+00  -1.819589999999849e-02  1.64812030e+00   1.47463730e+00   3.67487160e-01
C     4.926530635761215e+00   1.115655421826826e+00  -1.061693999999989e-01 -1.70259946e+00  -1.18206830e-01   2.13687740e-01
C     6.254745488435234e+00   6.735209480331439e-01  -5.350950000000054e-02  2.94000820e-01   3.40772203e+00  -3.92026880e-01
C     1.102533211506991e+01   7.057146532965436e+00  -8.089860000000115e-02  9.43374000e-03  -2.34260671e+00  -4.53965810e-01
C     2.170592644027325e+00   1.974318430664788e+00  -1.355654999999985e-01 -1.47826109e+00  -2.96679784e+00   5.36144380e-01
C     2.525213007848263e+00   5.475478820061460e-01  -1.211283000000023e-01 -2.37553650e-01   7.68468000e-01  -3.33765080e-01
C     3.902162275320770e+00   1.438953604872527e-01  -1.858904999999993e-01 -1.33279977e+00  -1.15424089e+00   4.47682690e-01
C     4.533079451082277e+00   7.650809673416922e+00  -1.173257999999997e-01  1.29658390e+00   1.53597820e-01   3.35571820e-01
C     5.932972941096482e+00   7.252347442955059e+00  -7.983060000000108e-02 -7.42465960e-01   1.82206972e+00  -5.06611920e-01
