26
Lattice="8.88768389401873 1.33226762955019e-15 0 4.44384194700937 7.69696003302603 0 0 0 30 " PBC="1 1 1" Properties=species:S:1:pos:R:3:force:R:3 Energy="-208.43521936"
C     1.282098465913983e+01   7.052428450406246e+00  -1.673130000000000e-01  6.56616270e-01   4.20159566e+00   2.26628480e-01
C     9.060421585695689e+00   6.913574598738643e+00  -1.431417000000010e-01  2.31305950e-01  -2.84081937e+00   2.12957300e-01
C     1.043595380083925e+01   6.495261215633007e+00  -4.883399999999938e-02 -1.07626521e+00   1.48902690e-01  -2.12440080e-01
C     1.078198630682810e+01   5.132967562358473e+00  -2.009490000000014e-02 -2.29126670e-01  -1.34111530e+00  -3.43018160e-01
C     6.635556705862678e+00   6.299600643190392e+00  -1.713656999999991e-01  1.88520858e+00   8.29997800e-02  -4.19398200e-02
C     8.039900570253158e+00   5.875915551679818e+00  -1.427489999999985e-01 -1.31973033e+00   2.24796506e+00   7.67733300e-02
C     8.339078051105432e+00   4.515979092414473e+00  -7.855379999999812e-02  2.06875078e+00  -1.74722930e-01  -1.33629650e-01
C     9.749545129771104e+00   4.124248777134047e+00  -5.542799999999914e-02 -3.84711610e-01  -4.57347700e-02  -1.54204350e-01
C     1.007975689182912e+01   2.715241734650242e+00  -1.397198999999993e-01  1.63388014e+00   3.64849540e+00   2.55262970e-01
C     4.304168752390526e+00   5.736536536429369e+00  -1.419464999999995e-01 -1.64214194e+00  -1.34361633e+00   6.34396330e-01
C     5.614719422233081e+00   5.329921224086129e+00  -7.669800000000038e-02  2.02625989e+00  -5.05859530e-01  -8.66940660e-01
C     5.957842322684204e+00   3.930313247373356e+00  -9.315780000000018e-02  1.38860199e+00   1.46556291e+00   6.15947660e-01
C     7.320134199653705e+00   3.549295176214684e+00  -9.866669999999900e-02  1.01826113e+00  -1.63973568e+00   2.34140200e-02
C     7.734996973550317e+00   2.136866373179942e+00  -1.226558999999980e-01 -3.36258860e+00   1.91805068e+00   5.11751470e-01
C     9.072581267087475e+00   1.799226983297544e+00  -1.655528999999980e-01 -2.52008300e-02  -2.94220744e+00  -6.21319700e-02
C     3.283006979408435e+00   4.745813320724684e+00  -6.672119999999993e-02 -1.45840093e+00   8.84211850e-01  -6.11922610e-01
C     3.598683067826844e+00   3.409514148741867e+00  -1.944456000000017e-01  3.18913820e-01  -2.72686341e+00   1.56790011e+00
C     4.979399468974840e+00   2.977958145904616e+00  -4.776839999999893e-02 -2.21389199e+00  -1.80805882e+00  -1.36574088e+00
C     5.317925703749934e+00   1.568282468503005e+00  -9.690960000000004e-02 -1.37180310e+00   7.42575760e-01   1.91394700e-01
C     6.644287474375107e+00   1.191139123993035e+00  -4.620960000000096e-02  2.78517591e+00  -1.78488905e+00  -7.61607020e-01
C     1.143807424432950e+01   7.457434097498413e+00  -9.068939999999870e-02  1.21973460e+00   1.67640738e+00   8.28579900e-02
C     2.570735014907551e+00   2.378529212694657e+00  -1.631435999999979e-01  7.90557450e-01  -3.42615220e-01  -7.44886210e-01
C     2.932821166537943e+00   9.927001029187903e-01  -2.582154000000010e-01  1.74101690e-01  -8.50186200e-02   3.69113270e-01
C     4.296629726723038e+00   5.497475192435194e-01  -1.977986999999999e-01 -6.12697470e-01   2.66761938e+00   1.81319270e-01
C     5.688111470969571e-01   4.230701813737764e-01  -2.029244999999982e-01 -2.89865072e+00  -1.78841454e+00  -1.05285550e-01
C     1.897515711170358e+00   7.170795842349200e-03  -2.632955999999993e-01  3.97841170e-01  -3.14715520e-01   4.54030060e-01
