26
Lattice="8.88768389401873 1.33226762955019e-15 0 4.44384194700937 7.69696003302603 0 0 0 30 " PBC="1 1 1" Properties=species:S:1:pos:R:3:force:R:3 Energy="-208.99969399"
C     1.298713857645559e+01   7.275316249258983e+00   4.152030000000000e-02  1.10847268e+00   1.79490728e+00  -7.68688240e-01
C     9.267668953734667e+00   7.108850169240557e+00  -1.140630000000087e-02 -9.68302790e-01  -2.44435493e+00   1.55974400e-01
C     1.060557218176113e+01   6.698727814029247e+00   3.573929999999999e-02  5.83576120e-01   2.22686200e-02   2.97392500e-02
C     1.092943858193373e+01   5.332598072845362e+00   2.802810000000000e-02  7.71531720e-01  -1.10923381e+00   2.50574820e-01
C     6.832908482226745e+00   6.505087231776906e+00  -9.893399999999986e-02  1.02919591e+00  -1.46610600e-01   5.00504300e-01
C     8.250625377954172e+00   6.109391827537026e+00  -3.331349999999844e-02 -2.05146714e+00  -3.72708720e-01  -3.89587190e-01
C     8.541536690619367e+00   4.700955899487446e+00  -2.909429999999702e-02  1.14021272e+00   1.21802651e+00   6.23190650e-01
C     9.936146852523956e+00   4.328992378168866e+00   1.343340000000000e-02 -1.11902328e+00  -7.32392680e-01  -4.13922230e-01
C     1.025863930561670e+01   2.920829846139551e+00  -4.616520000000079e-02  1.12347930e+00   2.46103803e+00   2.19841900e-02
C     4.437604350102374e+00   5.924308802415639e+00   1.219470000000000e-02  3.91293900e-01  -1.12081485e+00   2.09922130e-01
C     5.798173616165426e+00   5.520370415801231e+00  -4.234950000000026e-02  8.12547590e-01   3.24011600e-02   2.79903230e-01
C     6.151841975750141e+00   4.130014108074919e+00   3.605310000000000e-02  5.16934860e-01   7.03473120e-01  -3.59341380e-01
C     7.516347152630453e+00   3.736196762082360e+00   4.718070000000000e-02  4.78699700e-01  -9.23379810e-01  -6.77526500e-01
C     7.888801276329627e+00   2.332638089725390e+00  -3.787500000001387e-03 -1.48319984e+00   1.54387737e+00   4.52579420e-01
C     9.249515056168296e+00   1.983450334953181e+00  -5.240549999999899e-02 -8.25909840e-01  -1.62601822e+00  -1.30739130e-01
C     3.420607834607246e+00   4.923571764742323e+00   6.254520000000001e-02 -4.40010760e-01   9.49567010e-01  -2.76529810e-01
C     3.762828590734856e+00   3.569747846284801e+00   3.071670000000000e-02  5.51710240e-01  -1.53688261e+00  -5.91444960e-01
C     5.157252155691885e+00   3.160391184657276e+00   7.191000000000000e-04 -1.74332773e+00  -1.71486195e+00   3.65956130e-01
C     5.485252217596895e+00   1.725250961662012e+00  -2.355000000022756e-04 -5.92732320e-01   1.84841578e+00   2.73749420e-01
C     6.838287349618939e+00   1.368978078212587e+00   3.764760000000000e-02  1.23673067e+00  -1.30824638e+00  -2.07145230e-01
C     1.163772837519984e+01   7.654557477194730e+00   5.675850000000000e-02 -4.71980010e-01   1.52555173e+00  -2.46528300e-02
C     2.738825647390933e+00   2.557014942465531e+00  -8.238180000000028e-02  9.04427720e-01   7.96150000e-04   4.49197750e-01
C     3.096870658040228e+00   1.181726819450749e+00  -1.178229000000002e-01 -8.65988800e-02  -8.20320840e-01   5.69268600e-01
C     4.461978908670491e+00   7.257090309725545e-01  -1.831199999998034e-03 -6.40886100e-01   3.42356330e+00  -6.71247260e-01
C     7.011337845931673e-01   6.100520465345649e-01  -9.285510000000130e-02 -1.17464758e+00  -1.49172785e+00   6.95729750e-01
C     2.044768768837845e+00   2.010277396411343e-01  -1.042901999999977e-01  9.49273140e-01  -1.76332820e-01  -3.67449290e-01
