26
Lattice="8.88768389401873 1.33226762955019e-15 0 4.44384194700937 7.69696003302603 0 0 0 30 " PBC="1 1 1" Properties=species:S:1:pos:R:3:force:R:3 Energy="-208.80721953"
C     4.376913244502730e-02   4.674171402218250e-02   3.405968400000000e+00  4.70910040e-01   4.16369330e-01   1.54849440e-01
C     6.908165701454189e+00   7.175861981440946e+00   3.641412900000000e+00 -1.03753646e+00   1.12015760e-01  -4.52214380e-01
C     8.274733265915492e+00   7.604564105438274e+00   3.657502800000000e+00 -4.87400180e-01  -6.67409180e-01  -5.61157890e-01
C     9.275798251239376e+00   6.617848311973208e+00   3.611248800000000e+00  9.83016170e-01  -1.28380270e+00   2.98962050e-01
C     1.065742608487928e+01   6.969831448689112e+00   3.454694700000000e+00 -6.94244190e-01   8.61937300e-02  -2.79033730e-01
C     1.166026954017374e+01   5.961198484569022e+00   3.359226600000000e+00  3.35821580e-01   6.55543630e-01   2.89206240e-01
C     4.132774257274219e+00   6.386128174516446e+00   3.308624700000000e+00 -8.50006200e-02  -9.40795170e-01   1.74410730e-01
C     5.138874204380992e+00   5.372265049086369e+00   3.330561600000000e+00  7.72485890e-01   1.75624009e+00   9.74437710e-01
C     6.504404487267550e+00   5.819528854013644e+00   3.546663600000000e+00  1.68342877e+00  -2.21306557e+00  -4.16347320e-01
C     7.578429136196705e+00   4.795823394884406e+00   3.589673100000000e+00 -7.42740680e-01   8.55025700e-01   4.52988920e-01
C     8.961747718421060e+00   5.208815946490904e+00   3.704232900000000e+00 -8.09530720e-01  -1.98507110e-01  -7.63894250e-01
C     9.983552958417631e+00   4.199628955187853e+00   3.649959000000000e+00 -2.27637990e-01   2.51647670e-01  -4.89793400e-01
C     1.135240008044861e+01   4.577766900872899e+00   3.460612200000000e+00 -2.13637718e+00   6.86594870e-01   3.70052400e-01
C     3.417313213751032e+00   3.574124953514662e+00   3.415281000000000e+00  2.09547360e+00   7.96878010e-01  -3.61819000e-02
C     4.782530827918068e+00   4.020970351694706e+00   3.381795600000000e+00  1.37423293e+00  -1.77865991e+00  -8.49575210e-01
C     5.862400639933352e+00   3.031424924813811e+00   3.328375200000000e+00 -5.23020050e-01   8.46185190e-01   1.38332148e+00
C     7.229683040777412e+00   3.410076642580860e+00   3.515304900000000e+00  6.76261110e-01   2.01823740e-01  -6.38488280e-01
C     8.282413954517807e+00   2.406033375726658e+00   3.532444800000000e+00 -1.19434183e+00   1.04508957e+00  -2.42073800e-02
C     9.645666723935552e+00   2.801601549217242e+00   3.611878200000000e+00 -1.20077390e+00   1.10735229e+00   2.15718820e-01
C     1.731623270831848e+00   1.811974919408031e+00   3.615288300000000e+00  1.82960388e+00  -1.44303820e-01  -6.38039530e-01
C     3.115183064786814e+00   2.209321398543945e+00   3.499111500000000e+00 -1.07668137e+00   2.92906610e-01   3.88992170e-01
C     4.153615294980690e+00   1.281310088318889e+00   3.495172500000000e+00  4.24228840e-01  -9.78037250e-01   4.00278960e-01
C     5.521621419930610e+00   1.670269421018913e+00   3.417280500000000e+00  2.43396520e-01  -1.01223667e+00  -6.92884970e-01
C     6.547290669370269e+00   6.534966137886963e-01   3.356000100000000e+00 -1.00933490e-01   4.96555430e-01   7.68253910e-01
C     7.918343714553064e+00   1.047516158921244e+00   3.410877600000000e+00  5.27371600e-02  -3.48947500e-01  -1.08420830e-01
C     1.419496654968942e+00   4.394886437833697e-01   3.556424100000000e+00 -6.25377860e-01  -4.06567600e-02   7.87662500e-02
