26
Lattice="8.88768389401873 1.33226762955019e-15 0 4.44384194700937 7.69696003302603 0 0 0 30 " PBC="1 1 1" Properties=species:S:1:pos:R:3:force:R:3 Energy="-209.10950907"
C     9.057893263768392e-01   9.911249970182510e-01   3.431491500000000e+00 -1.09619346e+00   2.01445140e-01  -7.46640100e-02
C     3.256074805863862e+00   4.256886871759824e-01   3.325823700000000e+00  1.28604164e+00  -3.99042470e-01  -1.45227580e-01
C     4.640846924355284e+00   8.468053031245444e-01   3.314388000000000e+00  2.32907640e-01  -2.66369731e+00   1.34304810e-01
C     1.014564116230157e+01   7.504507704437089e+00   3.377925600000000e+00 -9.42405470e-01   1.94812579e+00   1.44998200e-02
C     7.068559817258412e+00   2.384811471471143e-01   3.421044000000000e+00 -1.02173284e+00  -1.01416851e+00   8.17815000e-02
C     1.249471809450996e+01   6.903250050493602e+00   3.431825100000000e+00  7.00850350e-01   9.85864660e-01   1.80432160e-01
C     4.976119871981881e+00   7.289595726476239e+00   3.441559500000000e+00  7.88313380e-01   8.44721310e-01   2.37751700e-01
C     6.014919163492388e+00   6.318442031647829e+00   3.519853200000000e+00 -1.01851000e-02   4.55199900e-01  -8.54958510e-01
C     7.384644522028486e+00   6.729714851474824e+00   3.427575000000000e+00 -2.02290440e-01   2.82005510e-01   2.37371540e-01
C     8.424626364318103e+00   5.757216420759573e+00   3.473542200000000e+00 -5.03017300e-01  -3.22292220e-01   3.42645040e-01
C     9.789360710635147e+00   6.144839022411187e+00   3.451332000000000e+00  1.86355510e-01  -7.45733850e-01   6.97446500e-02
C     1.080099666271248e+01   5.116712891258318e+00   3.509486100000000e+00  1.60178100e-02   1.16850288e+00  -7.25937490e-01
C     3.266600715408388e+00   5.538782082980194e+00   3.443974500000000e+00  3.25545940e-01  -7.90857620e-01   3.05358500e-02
C     4.309115147650481e+00   4.550273590554540e+00   3.410550300000000e+00 -6.78526240e-01   7.37744820e-01   3.79625610e-01
C     5.657238857169967e+00   4.951223324558899e+00   3.495955500000000e+00  6.88569970e-01  -4.50128660e-01   3.04900450e-01
C     6.676059301856891e+00   3.956739297213956e+00   3.579324600000000e+00  1.20549325e+00   6.42866320e-01  -7.10619090e-01
C     8.079417300459209e+00   4.375618637790597e+00   3.589697400000000e+00 -6.91713300e-01  -6.55370500e-01  -3.69010970e-01
C     9.104791834308340e+00   3.370029975301573e+00   3.537909000000000e+00  2.13485330e-01   3.17635790e-01   9.50550100e-02
C     1.048045874281884e+01   3.748484112104652e+00   3.454247700000000e+00 -6.65332900e-02  -2.97405600e-02   2.99743950e-01
C     2.650430210029960e+00   2.774261870221082e+00   3.357468600000000e+00 -2.88225092e+00   3.39119350e-01  -4.65759000e-03
C     3.966498221245853e+00   3.183037026518341e+00   3.370628700000000e+00  1.10910417e+00  -2.12174400e-02  -2.70018930e-01
C     4.982471229772098e+00   2.194709643562194e+00   3.335649900000000e+00  4.63313050e-01   4.09068060e-01   2.14034270e-01
C     6.340838705983803e+00   2.586856518319443e+00   3.442783500000000e+00  7.99127790e-01  -3.30776000e-02   5.51118790e-01
C     7.386351620587213e+00   1.612093488024164e+00   3.498752700000000e+00  5.47165170e-01   2.81482800e-02  -2.41289620e-01
C     8.777400265855995e+00   1.995991068899660e+00   3.544947000000000e+00 -9.47534160e-01  -4.88001000e-01  -5.60369680e-01
C     2.249457862169252e+00   1.414990197393526e+00   3.298025700000000e+00  4.80091540e-01  -7.47120070e-01   7.83208320e-01
