26
Lattice="8.88768389401873 1.33226762955019e-15 0 4.44384194700937 7.69696003302603 0 0 0 30 " PBC="1 1 1" Properties=species:S:1:pos:R:3:force:R:3 Energy="-208.6626889"
C     1.253901751048492e+01   6.750850395838802e+00   5.709660000000000e-02  8.01894440e-01   1.93320572e+00   3.17266850e-01
C     8.781144161278165e+00   6.647921412384822e+00  -1.448220000000013e-01  1.59384120e-01  -1.30096900e+00  -9.34466000e-02
C     1.013798642151205e+01   6.200390445974906e+00  -6.010140000000064e-02  4.88124040e-01   2.31513614e+00   1.57560230e-01
C     1.048624804751105e+01   4.859184461972965e+00  -4.606229999999911e-02  5.78830270e-01  -2.59336721e+00   1.29885880e-01
C     6.381440314523779e+00   6.012449847472781e+00   1.112490000000000e-02  9.57848180e-01  -1.28016085e+00  -5.63078230e-01
C     7.790904951332007e+00   5.633815909683401e+00  -1.911464999999986e-01 -2.16330395e+00   4.18265170e-01   1.21277153e+00
C     8.080909098115360e+00   4.245099285352280e+00  -1.271849999999972e-01  2.25979484e+00   7.80312690e-01  -3.01189920e-01
C     9.473843353875424e+00   3.824174246738865e+00  -1.436273999999997e-01 -3.22480950e-01   7.07196790e-01   6.48812010e-01
C     9.796282925261657e+00   2.435464087854169e+00  -4.872479999999868e-02  8.86027260e-01   1.63109896e+00  -2.01178470e-01
C     4.019856099472431e+00   5.363849269959168e+00   1.302099000000000e-01 -4.65147440e-01   1.57865789e+00   2.80304180e-01
C     5.379457363460622e+00   4.984570634797675e+00   1.657128000000000e-01  3.48978440e-01   1.85302734e+00  -6.73282390e-01
C     5.738438469439739e+00   3.646392557901935e+00   1.602399000000000e-01 -6.10023570e-01  -9.83618750e-01   3.68308210e-01
C     7.083874054046655e+00   3.305940390946174e+00   3.129840000000000e-02  4.05070720e-01  -3.41388112e+00   3.93656200e-02
C     7.459771844152700e+00   1.853785806895795e+00   4.738530000000000e-02 -3.48785822e+00   2.46553585e+00  -2.26126570e-01
C     8.768533689881332e+00   1.481985845977851e+00  -3.647880000000114e-02  1.40181654e+00  -1.32664245e+00   3.83120370e-01
C     2.987628182433411e+00   4.421382606980170e+00   1.369488000000000e-01 -1.27202841e+00  -4.05943580e-01  -6.45695310e-01
C     3.328386603473101e+00   3.038189013288175e+00   1.460850000000000e-01 -5.55811140e-01  -2.14486950e-01   1.86407620e-01
C     4.714384377483047e+00   2.646004731305181e+00   2.362782000000000e-01 -1.34176339e+00   4.49545920e-01  -9.82055130e-01
C     4.984692172504333e+00   1.278714596427173e+00   8.538450000000000e-02  2.03752578e+00   9.53240000e-03   8.54072800e-02
C     6.394161964167274e+00   8.970899278485359e-01   5.753040000000000e-02 -8.20693600e-02  -5.87875380e-01   2.23960700e-01
C     1.118675169644615e+01   7.208345846703556e+00   5.763540000000000e-02 -6.67201920e-01  -1.17760036e+00  -5.64201140e-01
C     2.274996266727255e+00   2.042205156311786e+00   3.035190000000000e-02  5.11331190e-01   6.82048540e-01  -2.42773000e-02
C     2.605539539419060e+00   6.712113982065422e-01  -3.389879999999934e-02 -2.81819430e-01  -4.75818000e-03   8.61451700e-02
C     3.961458502669915e+00   3.127906780607463e-01  -5.477160000000225e-02  8.83543940e-01  -4.69176040e-01   2.37898900e-01
C     2.282136364732755e-01   1.116708058080529e-01   2.783970000000000e-02 -5.19331110e-01  -2.44269748e+00  -2.34591490e-01
C     6.025048279747755e+00   7.364630234055096e+00  -2.142810000000139e-02  4.86691200e-02   1.37761395e+00   1.51908020e-01
