26
Lattice="8.88768389401873 1.33226762955019e-15 0 4.44384194700937 7.69696003302603 0 0 0 30 " PBC="1 1 1" Properties=species:S:1:pos:R:3:force:R:3 Energy="-208.69570211"
C     1.227975097303598e+01   6.577151713388987e+00  -1.316063999999990e-01  8.74973190e-01  -1.90373352e+00   3.19551570e-01
C     8.524059416777042e+00   6.271142980749874e+00  -1.093098000000019e-01 -9.11478570e-01   2.02566024e+00  -6.37005480e-01
C     9.890507130299424e+00   5.896802561204429e+00  -1.179734999999980e-01  5.56347300e-02   1.44728539e+00   1.21381270e-01
C     1.021242832753564e+01   4.527900759865739e+00  -1.480209000000023e-01  1.26700845e+00   9.15308600e-02  -6.81681870e-01
C     6.124866434167743e+00   5.751262514297967e+00  -9.857429999999923e-02 -2.23341000e-01  -1.25094349e+00  -2.24419620e-01
C     7.452423242709955e+00   5.283586294401531e+00  -1.096778999999977e-01  2.00106865e+00   2.48493911e+00   3.26228810e-01
C     7.810922680660777e+00   3.945601026354542e+00  -1.063341000000015e-01  1.81835580e-01  -1.40093312e+00  -4.63222550e-01
C     9.195030844193202e+00   3.544690392907137e+00  -1.824608999999988e-01 -3.69085910e-01   7.17633030e-01   3.52876700e-01
C     9.564424227350933e+00   2.197469003732949e+00  -2.263700999999969e-01 -6.02105100e-01  -1.55981824e+00   4.74158840e-01
C     3.729653578554400e+00   5.166600044966360e+00  -2.425860000000029e-01 -1.87747440e-01   3.90319340e-01   4.48068800e-01
C     5.098755821042071e+00   4.760614266983973e+00  -1.891484999999982e-01 -9.00760760e-01   1.25644485e+00  -4.82447550e-01
C     5.422889340569202e+00   3.417905682444975e+00  -3.215174999999988e-01  6.57406000e-03  -2.36478129e+00   4.98267200e-01
C     6.766435670148013e+00   2.979536484528369e+00  -1.848477000000024e-01  8.32913290e-01  -6.44177190e-01  -1.81969810e-01
C     7.127840980743151e+00   1.576987499388134e+00  -1.618817999999997e-01  1.19067292e+00   1.45978297e+00  -2.69886210e-01
C     8.515866124331129e+00   1.193860384211641e+00  -1.320015000000012e-01  6.60606410e-01   9.96271660e-01   1.28035770e-01
C     2.713990615589959e+00   4.168036397896716e+00  -3.030696000000006e-01 -4.49613670e-01  -3.34199140e-01  -8.75586600e-02
C     3.061478346481746e+00   2.776811642170220e+00  -4.592291999999993e-01 -1.07276583e+00   6.11204330e-01   1.35552254e+00
C     4.394608088377341e+00   2.381484537467776e+00  -4.198377000000022e-01  1.60228631e+00   1.24782686e+00  -3.76993850e-01
C     4.749182058533432e+00   1.024077453207488e+00  -3.964425000000027e-01  1.00396095e+00  -1.34907514e+00   1.11277613e+00
C     6.144960195385600e+00   6.046616345167550e-01  -2.243231999999971e-01 -2.19892715e+00   1.04197450e-01  -1.55743310e-01
C     1.093185576636771e+01   6.943444653344666e+00  -1.216398000000005e-01 -1.44134875e+00  -1.18251875e+00  -4.21028000e-01
C     2.054352359403962e+00   1.782799053627114e+00  -2.728299000000014e-01 -1.06776175e+00   1.29721556e+00  -7.62972140e-01
C     2.400576794933684e+00   4.316914693337791e-01  -2.130354000000025e-01 -1.41462136e+00  -1.37151821e+00   1.52399160e-01
C     3.726952563651503e+00   3.995384194132580e-02  -2.559080999999992e-01  1.85074430e+00  -2.36870556e+00   9.45662300e-02
C     4.443175418038163e+00   7.529926222209761e+00  -5.389530000000065e-02  7.35505000e-03  -2.37582220e-01  -8.16001940e-01
C     5.820142194234912e+00   7.106227584049536e+00  -1.067604000000024e-01 -6.96076600e-01   1.83767423e+00   1.77097990e-01
