26
Lattice="8.88768389401873 1.33226762955019e-15 0 4.44384194700937 7.69696003302603 0 0 0 30 " PBC="1 1 1" Properties=species:S:1:pos:R:3:force:R:3 Energy="-209.04775806"
C     3.036206129125895e-01   3.796202262476240e-01   3.543124500000000e+00 -5.73007100e-02  -1.15121330e+00   5.75365080e-01
C     7.158806341818211e+00   7.466712474936177e+00   3.390772800000000e+00 -9.21832570e-01   6.21318800e-01   7.77381260e-01
C     4.075948046687865e+00   2.051399175067621e-01   3.368644800000000e+00 -4.25179520e-01  -1.05101706e+00  -8.88932400e-02
C     9.507115733663461e+00   6.892547966359088e+00   3.297941400000000e+00  1.58046244e+00   2.89683810e-01   5.12775960e-01
C     1.089776567743369e+01   7.277604401536701e+00   3.455245200000000e+00 -5.34866460e-01  -6.02303790e-01  -2.89838260e-01
C     1.192294512662172e+01   6.272451540924575e+00   3.526196400000000e+00 -2.77937300e-01   7.95899180e-01   2.86640770e-01
C     4.391170868296603e+00   6.671586716601861e+00   3.654153900000000e+00 -3.97791000e-02   1.19056496e+00  -8.44834170e-01
C     5.396162876753289e+00   5.694115280011227e+00   3.626465700000000e+00  1.17272512e+00  -3.79779800e-02  -2.30329070e-01
C     6.778214208564018e+00   6.097609705971103e+00   3.478362900000000e+00  3.97090780e-01  -5.94939850e-01  -2.47035630e-01
C     7.811541264213187e+00   5.105787364374135e+00   3.363511200000000e+00  2.49819890e-01  -2.60743910e-01   2.33704020e-01
C     9.186064283392302e+00   5.520688223280870e+00   3.257277300000000e+00  1.95127400e-02  -1.10973864e+00   2.42587540e-01
C     1.024194085952408e+01   4.507063241794122e+00   3.300339000000000e+00 -1.21242114e+00   9.53356040e-01   7.60828690e-01
C     1.159624288693395e+01   4.901600253549486e+00   3.486467400000000e+00 -5.31398420e-01  -4.60418110e-01  -5.61140880e-01
C     3.710848660643466e+00   3.890265348580464e+00   3.558628200000000e+00 -1.80102160e-01   1.01519108e+00   4.22747630e-01
C     5.064032395243263e+00   4.308481211202520e+00   3.624967500000000e+00  5.42675720e-01   1.31104910e-01   1.48456650e-01
C     6.100573104089126e+00   3.343333069437517e+00   3.627588000000000e+00  1.22540713e+00  -1.23401860e-01  -8.45675010e-01
C     7.500976614337208e+00   3.705099350229954e+00   3.470095500000000e+00 -1.53590983e+00   1.34164470e+00   4.94607000e-02
C     8.510072199764092e+00   2.732133175253679e+00   3.405971100000000e+00 -1.37367370e-01   3.14238100e-02   6.83129470e-01
C     9.864522340437706e+00   3.144701470423322e+00   3.398458800000000e+00  6.99313920e-01  -7.71653550e-01  -7.56368510e-01
C     1.990588515888486e+00   2.126637113300072e+00   3.410527200000000e+00  5.34407010e-01   9.13239390e-01   1.08682437e+00
C     3.353021085406174e+00   2.534109174264252e+00   3.559318200000000e+00  6.74676250e-01  -7.80044030e-01  -1.04360506e+00
C     4.425423687623057e+00   1.565931201153040e+00   3.499700100000000e+00 -1.41871176e+00   3.67944220e-01   1.02248120e-01
C     5.770743377319140e+00   1.975304873062232e+00   3.543626700000000e+00  4.07985830e-01  -1.07123361e+00   2.53448220e-01
C     6.786492371748129e+00   9.487874065556343e-01   3.527328300000000e+00  6.09782670e-01   1.05841583e+00  -1.94013700e-02
C     8.171765355658618e+00   1.359814154570470e+00   3.540501600000000e+00 -5.12424230e-01  -4.42235770e-01  -4.80615680e-01
C     1.677777770558641e+00   7.549113742959748e-01   3.497076300000000e+00 -3.28628930e-01  -2.52865290e-01  -7.27861620e-01
