26
Lattice="8.88768389401873 1.33226762955019e-15 0 4.44384194700937 7.69696003302603 0 0 0 30 " PBC="1 1 1" Properties=species:S:1:pos:R:3:force:R:3 Energy="-209.09162402"
C     1.308163189836580e+01   7.356535956948348e+00  -1.968980999999985e-01  1.33371053e+00   3.94134590e-01   9.37852700e-02
C     9.288740230273220e+00   7.208580757923672e+00  -1.635467999999989e-01  1.42332506e+00  -3.86264980e-01  -7.71897200e-02
C     1.069290540777498e+01   6.778560067703605e+00  -1.710570000000011e-01 -4.93200770e-01   2.43619115e+00  -2.26507140e-01
C     1.101260446185844e+01   5.427899676788013e+00  -1.774172999999983e-01  1.78183224e+00  -9.28965810e-01   1.94853300e-02
C     6.907103756167985e+00   6.596114251997296e+00  -1.521671999999974e-01  9.48401420e-01  -1.19767178e+00  -1.41976420e-01
C     8.282003701498878e+00   6.207458025583254e+00  -1.521048000000000e-01 -3.32776100e-02   1.77494720e-01   2.49571540e-01
C     8.618698629019253e+00   4.814431796361735e+00  -1.117026000000010e-01  1.73259627e+00   1.42029576e+00  -4.19450660e-01
C     1.002046164335138e+01   4.433922109413044e+00  -1.525587000000002e-01 -1.35627175e+00  -2.86991300e-01   1.23235970e-01
C     1.036061876814347e+01   3.059934464764931e+00  -1.659894000000008e-01 -7.55699410e-01  -6.39442400e-01   1.51696000e-01
C     4.556093351977660e+00   5.981121295910674e+00  -1.886160000000032e-01 -4.08235950e-01  -6.97985000e-03   1.56818500e-02
C     5.918045052832243e+00   5.578508402783033e+00  -1.593164999999992e-01 -6.77735720e-01   1.38946719e+00  -2.71491980e-01
C     6.254140772730848e+00   4.225651222505278e+00  -1.952108999999993e-01  6.03590000e-04   8.38669800e-02   4.45453730e-01
C     7.613717417855968e+00   3.879166717065206e+00  -1.451613000000016e-01 -1.41628960e-01  -3.42194227e+00  -3.83085200e-02
C     7.954047585802435e+00   2.426726729736914e+00  -1.519742999999991e-01  8.87118000e-03   2.84546985e+00  -1.19627920e-01
C     9.300891468341426e+00   2.057463686844858e+00  -1.552892999999997e-01  1.90671803e+00  -7.51060120e-01  -4.20077200e-02
C     3.533693391330507e+00   5.015141574584029e+00  -1.976933999999986e-01 -1.33380400e+00   1.92251500e-01  -2.69519000e-02
C     3.866155870479872e+00   3.641612283905703e+00  -2.055657000000011e-01 -1.46879390e-01   1.00835240e-01   2.98233290e-01
C     5.225075537988851e+00   3.259735308977283e+00  -1.847867999999977e-01  2.86782780e-01  -9.65637570e-01  -2.64878160e-01
C     5.562438997095716e+00   1.873303681170268e+00  -1.878786000000012e-01 -1.57451200e-02   2.05487000e-02   3.87783000e-03
C     6.940666002449767e+00   1.480577379261962e+00  -1.926329999999972e-01 -5.56731500e-01  -1.35493171e+00   4.67940500e-02
C     7.323277815637605e+00   9.118734789781570e-02  -2.104673999999989e-01 -3.14714896e+00  -7.11173400e-01   2.62428320e-01
C     2.842538874828476e+00   2.659058929455262e+00  -1.680618000000003e-01 -9.74063720e-01   1.12591140e-01  -1.75228760e-01
C     3.144746567057645e+00   1.288379438228042e+00  -1.601436000000014e-01  1.88372020e-01  -1.21200894e+00  -2.34372600e-01
C     4.514335632446513e+00   9.072107375615832e-01  -1.821975000000009e-01  3.29122390e-01  -8.34164610e-01   1.41153430e-01
C     7.787639705644704e-01   6.398962393548869e-01  -1.700913000000028e-01 -9.67218980e-01   1.44606912e+00  -1.35346150e-01
C     2.116920986414760e+00   2.457012805032558e-01  -1.802856000000013e-01  1.06730632e+00   2.07801881e+00   3.21941030e-01
