26
Lattice="8.88768389401873 1.33226762955019e-15 0 4.44384194700937 7.69696003302603 0 0 0 30 " PBC="1 1 1" Properties=species:S:1:pos:R:3:force:R:3 Energy="-209.10513922"
C     4.337623016462278e-01   5.468904846499837e-01   3.504421800000000e+00  1.00536271e+00  -8.03658280e-01  -9.30779600e-02
C     7.277839003412772e+00   7.670883883962365e+00   3.392983200000000e+00 -2.04502110e-01  -1.84149018e+00   4.16455830e-01
C     4.188842518239627e+00   3.461800906708863e-01   3.327228300000000e+00  8.18824460e-01  -6.88824760e-01  -1.41737690e-01
C     9.686718583074697e+00   7.048153866683985e+00   3.201360600000000e+00 -8.57380850e-01   2.17917880e-01   4.01587450e-01
C     1.103697578110730e+01   7.441902324884277e+00   3.298077300000000e+00  1.00710789e+00   6.48408600e-02   1.50025940e-01
C     1.207568624019867e+01   6.442035351572752e+00   3.386330700000000e+00 -1.48686510e-01   4.68100960e-01   1.07086300e-01
C     4.568580592833455e+00   6.830751383366228e+00   3.538764000000000e+00 -1.45784583e+00   1.38323886e+00  -5.00744040e-01
C     5.574107728747011e+00   5.868448653785116e+00   3.554357100000000e+00  4.90736920e-01  -1.23425759e+00  -1.85397670e-01
C     6.939409509241379e+00   6.255095203935326e+00   3.455062200000000e+00  1.98695140e-01   5.48277710e-01  -4.83379040e-01
C     7.944985794026477e+00   5.261435521009596e+00   3.307400700000000e+00  1.25318131e+00   2.14949800e-01   1.83855600e-01
C     9.361744864583253e+00   5.669569058718754e+00   3.166671300000000e+00 -1.56750282e+00  -1.11203143e+00   7.00180970e-01
C     1.037297304972809e+01   4.648187311822573e+00   3.254800200000000e+00 -2.78662610e-01   1.41141916e+00  -5.14113500e-02
C     1.173050397270681e+01   5.060588044172364e+00   3.360932100000000e+00 -6.51352900e-02   5.18704270e-01  -6.05134600e-02
C     3.865077172581762e+00   4.096686579023420e+00   3.465831300000000e+00 -1.44406510e-01  -3.27810050e-01   4.16196810e-01
C     5.214123956926780e+00   4.461792801681674e+00   3.535270200000000e+00  7.46076000e-01   1.56758813e+00  -1.59866000e-03
C     6.226721467562081e+00   3.492028562077879e+00   3.514584900000000e+00  7.69355950e-01  -8.54366300e-01  -3.65498380e-01
C     7.603359311095414e+00   3.864739920032975e+00   3.403004100000000e+00  3.64263050e-01   1.12267699e+00  -3.07698230e-01
C     8.649951679356041e+00   2.905919680017437e+00   3.341861100000000e+00  5.47588100e-02  -6.55600400e-01   5.17451390e-01
C     1.003512609883139e+01   3.284935079145903e+00   3.336361200000000e+00 -7.27444050e-01   1.84109650e-01   1.06971070e-01
C     2.189484482891640e+00   2.334616054513899e+00   3.462303000000000e+00 -1.52451904e+00  -1.02032252e+00  -1.29712050e-01
C     3.525523253115619e+00   2.731072303252744e+00   3.520982100000000e+00  6.10260530e-01  -1.13373174e+00  -6.78158620e-01
C     4.528838555534047e+00   1.701277779043773e+00   3.445356900000000e+00  4.94704680e-01   1.17535692e+00   9.45284400e-02
C     5.899353184829906e+00   2.100098995721436e+00   3.446236500000000e+00 -2.00560400e-01   3.97486510e-01   2.16785100e-02
C     6.929685535411975e+00   1.138504925250285e+00   3.382609200000000e+00  1.99203960e-01  -8.09211100e-01   1.28404570e-01
C     8.304248149199799e+00   1.517967055938893e+00   3.433333200000000e+00 -1.80257200e-01   5.12549410e-01  -2.17949070e-01
C     1.822875564876956e+00   9.397679548532797e-01   3.479883600000000e+00 -6.55628190e-01   6.94087280e-01  -2.75466600e-02
