26
Lattice="8.88768389401873 1.33226762955019e-15 0 4.44384194700937 7.69696003302603 0 0 0 30 " PBC="1 1 1" Properties=species:S:1:pos:R:3:force:R:3 Energy="-208.0502851"
C     4.351153449959630e+00   7.465335103938808e+00  -1.961633999999997e-01 -2.01764020e+00   2.58506437e+00  -1.92591520e-01
C     9.434867040633680e+00   7.395529218277931e+00  -1.884096000000000e-01 -4.79990590e-01  -3.11290191e+00  -1.31241775e+00
C     1.076432754667166e+01   6.997041664817568e+00  -4.180841999999991e-01  1.84903841e+00  -2.61581284e+00   8.84154550e-01
C     1.114479551715038e+01   5.546719188163129e+00  -4.220213999999984e-01 -4.78218570e-01   1.58863378e+00   8.22408310e-01
C     7.027901689470600e+00   6.698408236248802e+00  -6.032220000000166e-02  1.23604659e+00   2.20596113e+00  -1.07107385e+00
C     8.422900954214468e+00   6.385826145804868e+00  -2.187758999999971e-01 -7.01762360e-01  -1.31074513e+00   1.03588040e+00
C     8.774476130925388e+00   4.991711797343909e+00  -2.512329000000015e-01 -1.26527309e+00  -3.59670690e-01  -4.84470110e-01
C     1.011187862684680e+01   4.589759611265243e+00  -3.402068999999983e-01  6.83216140e-01  -1.45760215e+00   6.12975410e-01
C     1.045897396646795e+01   3.157135678442986e+00  -1.599257999999999e-01  4.23275970e-01   3.35334406e+00  -4.66223830e-01
C     4.687698353413357e+00   6.129902609655369e+00  -2.913527999999985e-01 -1.00665633e+00  -1.39055311e+00   7.05340070e-01
C     6.033303026168051e+00   5.730600794793435e+00  -2.347871999999995e-01  4.50808070e-01  -5.55468410e-01   5.05582840e-01
C     6.389417143040996e+00   4.335563734764079e+00  -2.649864000000015e-01  3.65268070e-01   2.38405609e+00   1.84673370e-01
C     7.731930590469643e+00   3.948165422527738e+00  -2.415936000000016e-01  1.31291412e+00   2.77512143e+00  -2.37572360e-01
C     8.072891695180457e+00   2.626567444202221e+00  -2.627802000000017e-01  9.59540220e-01  -2.52699716e+00  -1.43667370e-01
C     9.469717956597686e+00   2.213172649464556e+00  -1.758273000000017e-01 -2.50874486e+00  -1.91038784e+00   7.34815750e-01
C     3.618120789134192e+00   5.152972269354844e+00  -2.617289999999990e-01  6.17557040e-01   1.62327670e-01  -1.04914883e+00
C     3.981836808675798e+00   3.768753440586854e+00  -1.828571999999973e-01  2.14539580e-01   1.47090794e+00   2.33695520e-01
C     5.389246657431974e+00   3.428445976479658e+00  -2.157105000000001e-01 -3.15695193e+00  -4.32802120e+00  -5.37001230e-01
C     5.659299153672388e+00   1.967051961609266e+00  -3.114512999999981e-01  9.42501070e-01   2.31252276e+00   8.34678900e-01
C     7.053849501479166e+00   1.617822643252895e+00  -3.475724999999983e-01 -1.59545020e-01  -1.18257705e+00   6.01398630e-01
C     7.391592064719214e+00   1.957618644366098e-01  -3.151166999999973e-01  8.85848220e-01   1.48599442e+00  -3.14754370e-01
C     2.929450069239148e+00   2.841021145162885e+00  -5.620470000000211e-02  9.94109820e-01  -2.85972999e+00  -3.34262300e-01
C     3.241668715246422e+00   1.408253894944870e+00   9.045000000000000e-04  1.48235674e+00   1.24988730e+00  -5.64105520e-01
C     4.624290813589439e+00   1.000291691565979e+00  -1.594757999999992e-01 -6.14379720e-01   3.22833179e+00   2.61988740e-01
C     8.734155821759060e-01   7.998513839143349e-01  -1.390920000000051e-02  3.86538490e-01   6.37507680e-01  -1.27859958e+00
C     2.243504490918657e+00   4.370176117353385e-01  -1.339229999999958e-02 -4.14395870e-01  -1.82919292e+00   5.68296110e-01
