26
Lattice="8.88768389401873 1.33226762955019e-15 0 4.44384194700937 7.69696003302603 0 0 0 30 " PBC="1 1 1" Properties=species:S:1:pos:R:3:force:R:3 Energy="-209.17178692"
C     9.698276663126153e-01   1.114273278714239e+00   3.527038200000000e+00  4.41460910e-01  -6.12485070e-01  -1.76164300e-02
C     3.374878876151803e+00   5.113737092571520e-01   3.593842200000000e+00  9.07587320e-01  -1.17296867e+00  -3.38342210e-01
C     4.758450757347772e+00   8.947305017209397e-01   3.687134400000000e+00 -5.97726970e-01  -8.77555100e-02  -4.58223100e-01
C     1.021312112448628e+01   7.593470015129433e+00   3.663251700000000e+00 -3.05855060e-01   2.56844690e-01   6.55937700e-02
C     7.119810913067935e+00   2.805404155350463e-01   3.660298200000000e+00  1.32582284e+00   1.62134635e+00  -1.09696880e-01
C     1.262832362470119e+01   7.034690575108310e+00   3.632229300000000e+00 -1.08489026e+00  -7.32536980e-01  -1.27654960e-01
C     5.092669136896729e+00   7.421152475187400e+00   3.550875000000000e+00  1.50773100e-01   3.42322420e-01   3.99520900e-02
C     6.116374830351669e+00   6.430699422779768e+00   3.511070400000000e+00  2.79158830e-01   9.12643100e-02   3.78745860e-01
C     7.496065371105901e+00   6.798457709985959e+00   3.493830900000000e+00 -1.06408464e+00   1.87192928e+00   2.97366630e-01
C     8.503730261635578e+00   5.851641725802808e+00   3.492471000000000e+00  6.69615650e-01  -2.01434484e+00   4.22597170e-01
C     9.865615749748779e+00   6.224265569322363e+00   3.596194500000000e+00  6.04910400e-02   4.74714400e-01  -2.62293800e-02
C     1.089662085356675e+01   5.268590230205482e+00   3.621468000000000e+00 -2.70447220e-01  -1.42579488e+00  -7.01516560e-01
C     3.381685601072497e+00   5.647858551440534e+00   3.628235100000000e+00  1.76810830e-01   4.05854900e-02   3.38991030e-01
C     4.402824753617447e+00   4.665637012936986e+00   3.650708400000000e+00  1.44410000e-02  -1.19408487e+00  -2.35024720e-01
C     5.783804097427156e+00   5.055850257395497e+00   3.612813900000000e+00 -1.12045780e+00   9.94016600e-02  -6.89072530e-01
C     6.781082485035585e+00   4.078184395594506e+00   3.525369600000000e+00  1.32110304e+00  -1.25329788e+00   5.45804130e-01
C     8.172806594265200e+00   4.439289430550764e+00   3.510008100000000e+00 -1.63929873e+00   1.56939753e+00  -3.23235460e-01
C     9.159637642776365e+00   3.461889498718808e+00   3.513270600000000e+00  1.11998933e+00   5.36926910e-01  -9.04037800e-02
C     1.052141096834548e+01   3.875476563518022e+00   3.505463400000000e+00  1.51437279e+00  -4.36487530e-01   1.02611150e+00
C     2.671805445351783e+00   2.865113399752788e+00   3.602530800000000e+00  4.56016560e-01   3.77155200e-01  -7.20395280e-01
C     4.060893289799278e+00   3.246741301054637e+00   3.636493500000000e+00 -2.34387100e-02   1.02217773e+00   2.34040930e-01
C     5.115295665826602e+00   2.267568066601370e+00   3.663780000000000e+00 -1.15805398e+00   3.47041600e-01  -1.09241860e-01
C     6.470479484795774e+00   2.665415771774438e+00   3.591233100000000e+00 -8.09806050e-01   1.39748951e+00   1.81334350e-01
C     7.471413598988813e+00   1.700923487973592e+00   3.613679700000000e+00  3.02923700e-01  -1.52523331e+00  -6.04084600e-02
C     8.830810846699745e+00   2.101247536097112e+00   3.555516600000000e+00  1.99606500e-01  -1.17409114e+00  -1.09799440e-01
C     2.355383811792190e+00   1.464264827022381e+00   3.525494700000000e+00 -8.66114000e-01   1.58048363e+00   5.86323580e-01
