26
Lattice="8.88768389401873 1.33226762955019e-15 0 4.44384194700937 7.69696003302603 0 0 0 30 " PBC="1 1 1" Properties=species:S:1:pos:R:3:force:R:3 Energy="-208.61066981"
C     1.307703643251449e+01   7.327076304251126e+00  -6.393779999999794e-02 -1.74846380e+00   2.41967210e+00  -2.48542490e-01
C     9.303742462873807e+00   7.128446167659336e+00  -1.074744000000010e-01 -8.29217920e-01  -1.27467152e+00  -6.96240990e-01
C     1.065943692321529e+01   6.748002751536504e+00  -2.893214999999998e-01  2.63263510e-01  -1.04542968e+00   6.17665430e-01
C     1.102250351967869e+01   5.338587308353506e+00  -2.910159000000014e-01 -1.64027063e+00   3.49536080e-01   6.68943160e-01
C     6.882100346100674e+00   6.521436729424630e+00   7.323480000000000e-02  3.90704360e-01   7.96969520e-01  -8.19401950e-01
C     8.250843348401943e+00   6.109960863792044e+00  -1.223078999999991e-01  1.71649140e-01   1.40643680e+00   6.91718960e-01
C     8.576764536652172e+00   4.744872906148219e+00  -2.198501999999998e-01  1.91152500e-02  -5.09687100e-01   2.36031370e-01
C     9.957133251623953e+00   4.340349550571532e+00  -2.303244000000007e-01  5.86528960e-01   4.89760850e-01   3.01194770e-01
C     1.030780108469252e+01   2.955434146920826e+00  -2.506650000000121e-02  4.62824870e-01   2.04307957e+00  -5.29098060e-01
C     4.508518557763876e+00   5.987521318175618e+00  -1.490621999999995e-01 -9.84320940e-01  -1.29127258e+00   8.00356430e-01
C     5.827733741750523e+00   5.575624197920590e+00  -6.485669999999999e-02  1.69700533e+00   5.86195950e-01   1.20313840e-01
C     6.158953722705887e+00   4.223370844157190e+00  -1.442792999999973e-01  1.02666474e+00  -9.71161100e-01   2.01905290e-01
C     7.494663470316912e+00   3.764929898722352e+00  -1.661807999999994e-01  2.21037089e+00   2.38800159e+00  -2.75926610e-01
C     7.881852796261605e+00   2.446583424191908e+00  -1.602486000000027e-01  7.15984390e-01  -2.80100969e+00   1.63189990e-01
C     9.290126350075647e+00   2.009966054378129e+00  -3.665279999999882e-02 -1.73270789e+00   2.29705240e-01   3.35254970e-01
C     3.490018157266350e+00   4.969280623698080e+00  -1.396518000000029e-01 -4.94643100e-01   7.82664370e-01  -8.41819320e-01
C     3.822942707110906e+00   3.610761636591858e+00  -5.956559999999911e-02 -4.62934860e-01  -7.03630900e-01   3.67625320e-01
C     5.188002075538275e+00   3.244799819856670e+00  -8.811180000000007e-02 -1.52510422e+00  -2.46311428e+00  -4.69383620e-01
C     5.501246937974397e+00   1.825100391407989e+00  -1.646396999999986e-01  3.52421440e-01   1.08205220e-01   7.14651800e-01
C     6.863657065570956e+00   1.433155330942727e+00  -2.043843000000010e-01  6.94653420e-01  -4.54130460e-01   2.58708330e-01
C     7.226194311589230e+00   3.508166624233580e-02  -1.983239999999995e-01  1.14612371e+00   4.74527990e-01   3.77005000e-03
C     2.795222889935963e+00   2.613727529419376e+00   6.314489999999999e-02  6.15909120e-01  -1.01265809e+00  -2.83636140e-01
C     3.148856943052001e+00   1.209728821857491e+00   1.310325000000000e-01  3.87780600e-02   2.50811410e-01  -2.46085930e-01
C     4.514980656025616e+00   7.852703398031032e-01  -1.445220000000091e-02 -5.76813360e-01   1.94005726e+00  -1.76444880e-01
C     7.500599956156377e-01   6.572106279119722e-01   1.107873000000000e-01 -4.65470840e-01  -1.69103126e+00  -8.03681250e-01
C     2.116361106756845e+00   2.283604144036673e-01   1.634493000000000e-01  6.79503900e-02  -4.78272900e-02  -9.10684900e-02
