26
Lattice="8.88768389401873 1.33226762955019e-15 0 4.44384194700937 7.69696003302603 0 0 0 30 " PBC="1 1 1" Properties=species:S:1:pos:R:3:force:R:3 Energy="-208.78991261"
C     1.227483892787467e+01   6.532528433675861e+00  -8.609699999999876e-02  9.26454100e-01   1.79249760e-01  -7.15776520e-01
C     8.551144500170880e+00   6.354763601181397e+00  -8.514179999999882e-02 -1.04277561e+00  -2.24662780e-01   1.96077560e-01
C     9.906047023426021e+00   5.953802783554596e+00  -1.005369000000016e-01 -9.72471910e-01   1.41144780e-01  -5.01402040e-01
C     1.023197096686925e+01   4.605642288287148e+00  -2.079476999999983e-01  7.41673250e-01  -2.02670852e+00   2.88184610e-01
C     6.135770733543344e+00   5.768134712501328e+00  -1.143684000000000e-01 -5.86806300e-02  -1.23491863e+00  -1.41858950e-01
C     7.527860081645764e+00   5.364693395565657e+00  -2.842079999999925e-02 -1.23473385e+00   5.72444540e-01  -5.65967090e-01
C     7.827152391363263e+00   3.988388888978915e+00  -5.673810000000046e-02  1.87375325e+00  -4.68275800e-01  -3.48664550e-01
C     9.238264982498698e+00   3.579467105593084e+00  -1.251458999999997e-01 -1.42374095e+00   1.33070481e+00  -1.16512090e-01
C     9.545534610655704e+00   2.219110700188501e+00  -1.835876999999968e-01  1.22400556e+00  -8.87160400e-01  -1.27923480e-01
C     3.743290974016317e+00   5.144806487489418e+00  -2.203739999999996e-01  2.94105560e-01   1.13129901e+00  -3.62205170e-01
C     5.099362672084828e+00   4.740213474424459e+00  -2.880915000000002e-01  1.18617716e+00   1.26516069e+00   6.80865950e-01
C     5.469661132520148e+00   3.375520216890972e+00  -3.925157999999982e-01 -8.70109200e-02  -4.97630650e-01   2.19992150e-01
C     6.838716403621074e+00   3.004345249127464e+00  -2.136998999999982e-01 -5.17000200e-01  -1.48900117e+00  -1.14695940e-01
C     7.203047184226602e+00   1.572789346478971e+00  -1.921484999999983e-01 -2.64190183e+00   2.29524202e+00  -1.75949370e-01
C     8.525954845407174e+00   1.230145008337066e+00  -9.881969999999995e-02  1.37372157e+00  -9.88583530e-01  -3.92403470e-01
C     2.721182040592643e+00   4.201149412672179e+00  -3.497744999999988e-01 -8.45350040e-01  -7.99469140e-01   5.96947240e-01
C     3.061780038939499e+00   2.820080179948465e+00  -4.066404000000006e-01  3.87132300e-02  -1.42800040e+00  -6.59407980e-01
C     4.441499108627254e+00   2.369244138901667e+00  -5.065808999999994e-01 -4.89356510e-01   8.89181230e-01   1.32303317e+00
C     4.766198107017322e+00   9.887220060968851e-01  -3.230520000000006e-01  6.33842100e-01   9.34894360e-01  -5.74811120e-01
C     6.150113230070126e+00   6.100852974018945e-01  -2.612696999999997e-01 -2.86568620e-01  -4.78871470e-01   4.84634820e-01
C     1.090865246782370e+01   6.912198921072481e+00  -1.593122999999999e-01  1.24722930e+00   1.52300389e+00   2.72449020e-01
C     2.032298060660826e+00   1.794013447421223e+00  -3.410924999999985e-01  2.39624640e-01   1.67378257e+00   7.00268500e-01
C     2.410077240196963e+00   4.432111245626786e-01  -2.208974999999995e-01 -2.62891943e+00  -9.75958880e-01   8.26232800e-02
C     3.727593943350890e+00   2.681566995731790e-02  -2.086430999999997e-01  1.87048306e+00  -3.49673920e-01  -6.03353000e-03
C     4.423059478714393e+00   7.543258896373727e+00  -1.000926000000000e-01 -2.11278270e-01  -7.58680800e-01   2.23649460e-01
C     5.784466542297620e+00   7.136680529438631e+00  -1.081371000000004e-01  7.90005990e-01   6.71488440e-01  -2.65114470e-01
