72
Lattice="7.395 0 0 3.6975 6.40425786098592 0 0 0 13.6 " PBC="1 1 1" Properties=species:S:1:pos:R:3:force:R:3 Energy="-575.63112023"
C     3.713177732775000e+00   6.201491947426176e+00   1.357817118400000e+01 -4.76990210e-01  -2.41166550e-01  -4.91628310e-01
C     1.280023992150000e+00   4.794933183212172e-01   4.743843200000000e-02 -2.21781295e+00   3.05054066e+00  -3.66222790e-01
C     1.407461731350000e+00   1.025584642213732e+00   3.696432400000000e+00  5.01196850e-01   4.43742270e-01  -4.66671980e-01
C     2.599219410225000e+00   1.807075671201801e+00   3.839735328000000e+00  1.52840481e+00  -2.91177092e+00  -1.45403112e+00
C     6.214383295350000e+00   6.250732172706623e+00   1.350100940800000e+01 -3.60375370e+00  -2.41799502e+00   8.42903140e-01
C     3.704733862950000e+00   5.139131302749445e-01   1.352827917600000e+01 -1.77501085e+00   1.33770362e+00  -4.41979800e-01
C     3.848484824250000e+00   1.081617031252758e+00   3.677217232000000e+00 -2.30714278e+00  -3.90839485e+00   3.85659400e-01
C     5.077846558800000e+00   1.667983708145555e+00   3.623210136000000e+00  6.29501310e-01   8.50884120e-01  -4.33247520e-01
C     8.538727005974998e+00   6.225581179111094e+00   1.345819932800000e+01  5.07758931e+00  -1.91714408e+00  -2.58062650e-01
C     6.111088382400000e+00   4.739084212118256e-01   1.351900384000000e+01  1.23083799e+00  -4.37396110e-01   4.36265840e-01
C     6.314431063799999e+00   9.741913694833321e-01   3.497159488000000e+00  1.37288689e+00   1.00462057e+00   6.16933310e-01
C     7.569381236174999e+00   1.705225300154977e+00   3.614926920000000e+00 -1.05371420e+00  -1.45880621e+00   3.27763200e-02
C     1.190555584650000e+00   1.987737672027307e+00   1.165352720000000e-01  2.18076717e+00  -2.24407392e+00  -9.58802150e-01
C     2.438238172875000e+00   2.667963422966642e+00   1.234379520000000e-01 -2.15394880e-01   9.79723510e-01  -1.25228092e+00
C     2.617970800800000e+00   3.181380159214858e+00   3.731896440000000e+00 -5.20218150e-01   2.21954886e+00   2.66536600e-02
C     3.839972180925000e+00   3.907414029604886e+00   3.671157072000000e+00  2.41449916e+00  -1.32044432e+00  -1.39760944e+00
C     3.663359096775000e+00   1.888592523543126e+00   1.355769121600000e+01  8.66118340e-01   3.89114487e+00   1.70508672e+00
C     4.946459298000000e+00   2.584033894561720e+00   4.694162400000000e-02 -2.54222501e+00   2.49175156e+00  -1.21100422e+00
C     5.039454085199999e+00   3.048157634444723e+00   3.615123168000000e+00  2.03665949e+00   5.11170269e+00   7.10379460e-01
C     6.366499406699999e+00   3.807415833973752e+00   3.656119416000000e+00 -3.74710450e+00  -3.59109290e-01  -4.16635400e-01
C     6.111551272424999e+00   1.853823679536028e+00   1.359138168000000e+01  2.57777840e+00   2.76411659e+00  -4.96845730e-01
C     7.392821063250000e+00   2.664062525461537e+00   1.351403698400000e+01 -2.80662668e+00  -6.80685000e-01   1.45924522e+00
C     7.555200140475000e+00   3.090868334581427e+00   3.710906335999999e+00  1.82904063e+00   2.57898282e+00  -6.66997300e-01
C     8.788958905049999e+00   3.879646640503234e+00   3.657907816000000e+00 -8.96642990e-01   7.43281460e-01   7.25322690e-01
C     9.793480656225000e+00   4.169958245682629e+00   1.359085318400000e+01  2.99059115e+00  -4.48004399e+00  -2.30737480e-01
C     3.687899256375000e+00   4.781988320842333e+00   1.353463459200000e+01 -4.40045110e-01   1.17512455e+00   4.13365850e-01
C     3.939638182500000e+00   5.357691332015023e+00   3.431410016000000e+00 -2.62589826e+00  -3.39806432e+00   1.46664123e+00
C     5.147712485174999e+00   6.020841410222239e+00   3.516040232000000e+00  4.22399000e-01  -2.47599540e-01   5.92944890e-01
C     4.923918228750000e+00   4.110901702039532e+00   1.356084043200000e+01 -8.72543520e-01  -3.19542035e+00   4.63160040e-01
C     6.113646793575000e+00   4.818317370149283e+00   1.351799839200000e+01  1.63196431e+00   5.09596600e-02  -2.74511450e-01
C     6.335798842350000e+00   5.227456009281106e+00   3.624394424000000e+00  1.11151599e+00   6.73876700e-01  -2.28836670e-01
C     7.570269745425000e+00   5.963211671187771e+00   3.625513432000000e+00 -1.96808835e+00   3.71226688e+00   4.87924060e-01
C     7.324432399049999e+00   4.083557314169533e+00   1.350865682400000e+01  2.15381006e+00  -3.86867100e-01  -7.77501920e-01
C     8.612939676374999e+00   4.806251107915258e+00   1.340002056800000e+01 -3.77138662e+00   3.30013660e-01   1.38544649e+00
C     8.804492435324999e+00   5.389006808056272e+00   3.645100152000000e+00  1.17502160e-01  -6.07082976e+00  -7.62856390e-01
C     1.004693270805000e+01   5.978292993979707e+00   3.486292544000000e+00  1.13788604e+00   2.24171650e+00   3.70705000e-02
C     7.442616663825000e+00   1.968681034253934e-01   7.039359999999999e+00 -1.03122193e+00  -7.48055150e-01  -4.23896320e-01
C     1.257334431300000e+00   9.502216412500814e-01   7.041873552000000e+00  3.74742100e-02  -3.35255835e+00  -9.75857450e-01
C     1.103707669350000e+00   3.996869151691416e-01   9.790698343999999e+00 -2.46919067e+00  -3.96332150e-01   5.03318600e-01
C     2.296136444475000e+00   1.085646782426006e+00   9.953009311999999e+00  2.02611890e-01   1.18208169e+00   3.12166100e-01
C     2.504001833925000e+00   2.087408289868902e-01   6.835580048000000e+00 -1.82689812e+00   2.41314634e+00   7.11571900e-01
C     3.741852436875000e+00   8.438159856300175e-01   6.785848520000000e+00  1.64284362e+00   1.25789335e+00   7.95843480e-01
C     3.467850456525000e+00   3.594000985472898e-01   1.009499671200000e+01  4.00757828e+00   1.04878492e+00  -1.41113939e+00
C     4.809055871924999e+00   1.153795771165838e+00   9.898900080000001e+00 -2.72487831e+00  -1.94627518e+00   1.30253350e+00
C     5.024175608475000e+00   1.865864516866350e-01   6.924958160000000e+00 -1.60222050e+00   7.22627860e-01  -2.68809980e-01
C     6.230260286400000e+00   9.203633259997177e-01   7.068173232000000e+00 -3.94160650e-01   1.67948957e+00  -1.52509248e+00
C     6.026464069649999e+00   4.464059762578416e-01   9.788484263999999e+00 -2.46500920e-01  -7.75633510e-01   6.12538290e-01
C     7.264619087774999e+00   1.184115449152436e+00   9.717029728000000e+00  7.51175910e-01  -2.26570346e+00   4.46023250e-01
C     8.628593449349999e+00   2.305465072551841e+00   7.117851175999999e+00 -1.68936397e+00   2.12878494e+00  -1.54828269e+00
C     2.465072409375000e+00   2.897023489164005e+00   6.971555159999999e+00  1.76712493e+00   4.77981874e+00   2.23390430e-01
C     2.322851029875000e+00   2.513552667237012e+00   9.945680272000001e+00 -7.01229210e-01   2.52481347e+00  -1.02296630e-01
C     3.554470679775000e+00   3.279412503853286e+00   9.850153464000000e+00 -1.06718574e+00  -2.64087291e+00   9.84565940e-01
C     3.751977707850000e+00   2.261590014293610e+00   6.852709384000000e+00 -3.42768383e+00  -1.35054342e+00   1.28704820e-01
C     4.909186538325000e+00   2.970600086440186e+00   6.892110080000000e+00  9.88057160e-01   5.02236778e+00   4.61476400e-02
C     4.777758752924999e+00   2.568678597618534e+00   9.891109999999999e+00  5.17368090e-01  -1.34209814e+00  -9.55962840e-01
C     6.004547360250000e+00   3.214278063330735e+00   9.721380776000000e+00  5.09913130e-01   2.67725363e+00   7.10886600e-01
C     6.158731742175000e+00   2.456154634251919e+00   6.956252032000000e+00  1.45513638e+00  -6.21459051e+00   2.72971290e-01
C     7.365518205600000e+00   3.123840207875587e+00   6.995063440000000e+00  1.59005897e+00  -1.23921091e+00   8.77974000e-02
C     7.285050400499999e+00   2.594232803288927e+00   9.665333680000000e+00 -1.57940004e+00  -9.50429260e-01   2.03472871e+00
C     8.465082308549999e+00   3.316311339982041e+00   9.931977999999999e+00  2.03496500e+00  -3.29022672e+00  -9.18657870e-01
C     9.865294795350000e+00   4.407675139357090e+00   7.027445992000001e+00 -1.53583936e+00  -8.45010400e-01  -1.07068253e+00
C     3.665483458425000e+00   5.120680443727048e+00   6.956186616000000e+00  1.59660335e+00   1.60572680e+00   3.85905790e-01
C     3.560797324125000e+00   4.644772485126174e+00   9.748488840000000e+00 -2.51042971e+00   2.15341321e+00   9.90080640e-01
C     4.776527559374999e+00   5.345485777172541e+00   9.772084432000000e+00 -7.60561340e-01   2.69976998e+00   2.31304240e-01
C     4.908143288700000e+00   4.442541456168817e+00   6.956617056000000e+00 -4.17579440e-01   4.62971440e-01  -9.88273350e-01
C     6.106528662375000e+00   5.271417332892711e+00   6.887425424000000e+00  7.36853730e-01  -5.79005260e+00  -1.38489160e-01
C     5.979530777774999e+00   4.681456714574040e+00   9.800017608000001e+00  5.19143860e-01  -2.94413295e+00   5.95779390e-01
C     7.171914850124999e+00   5.343741513501792e+00   1.002108180000000e+01  1.83524007e+00   2.02005869e+00  -4.37917730e-01
C     7.339474568549999e+00   4.501864865236939e+00   6.901112055999999e+00  2.01189794e+00   2.40544091e+00   2.24580240e-01
C     8.646603750000001e+00   5.208099011814099e+00   6.965091759999999e+00 -1.68800830e-01  -3.13013740e+00  -2.09188000e-01
C     8.454660276224999e+00   4.691288018900083e+00   9.963629687999999e+00 -2.94475970e-01   9.58829460e-01   2.44260460e-01
C     9.669465101175000e+00   5.377847132564907e+00   9.855056672000000e+00  2.34038689e+00   1.48060731e+00  -5.41464800e-02
