72
Lattice="7.395 0 0 3.6975 6.40425786098592 0 0 0 13.6 " PBC="1 1 1" Properties=species:S:1:pos:R:3:force:R:3 Energy="-576.05302378"
C     1.102232041470000e+01   6.335378273523499e+00   1.327050953600000e+01  1.92200176e+00  -7.09194900e-02  -3.04196820e-01
C     1.185911339775000e+00   6.516722391853674e-01   1.319241792800000e+01 -1.96616150e-01  -1.35680984e+00   2.00716300e-01
C     1.260524227575000e+00   7.761268226045335e-01   3.485704072000000e+00  7.41313960e-01   7.78773240e-01   3.51166610e-01
C     2.502694619775000e+00   1.518034478654094e+00   3.439015272000000e+00  1.69811753e+00  -3.80898494e+00   7.85760660e-01
C     6.127415987775000e+00   6.310764853332740e+00   1.324344295200000e+01  3.32815400e-01   1.49616979e+00   9.92981990e-01
C     3.669313254975000e+00   6.480606220077990e-01   1.331102012800000e+01 -2.55277050e-01  -9.29701850e-01  -1.59497748e+00
C     3.812223330825000e+00   8.381501387012754e-01   3.629788592000000e+00 -2.90711641e+00  -2.05698529e+00  -6.72707570e-01
C     5.016212228774999e+00   1.568273832203278e+00   3.743540488000000e+00 -1.10832566e+00  -7.16439310e-01  -1.29690504e+00
C     8.612543193450000e+00   6.377881283577804e+00   1.322565224800000e+01  4.26536250e-01  -1.66288454e+00   9.31272680e-01
C     6.144363811800000e+00   6.886905787657897e-01   1.331295840000000e+01 -6.13978020e-01   3.36845280e-01   6.62269800e-02
C     6.186298564350000e+00   8.346000664417417e-01   3.723614312000000e+00  2.57823626e+00  -6.18119420e-01  -9.82337210e-01
C     7.454353379250000e+00   1.531371922030751e+00   3.523535056000000e+00 -1.68087555e+00  -1.46821910e-01   7.69325540e-01
C     8.563202126549999e+00   2.071559288687288e+00   1.313498458400000e+01  2.70981253e+00  -8.85749230e-01   8.73310040e-01
C     2.445289231425000e+00   2.761970371327167e+00   1.303524422400000e+01 -1.91541790e-01  -1.61308650e-01   1.90536360e-01
C     2.529576110325000e+00   2.863463897126032e+00   3.508618168000000e+00 -1.24621022e+00   4.09163473e+00   4.45519900e-01
C     3.694445014575000e+00   3.627100047328157e+00   3.726246320000000e+00  2.94292456e+00   3.23532020e-01  -1.32019993e+00
C     3.676881482850000e+00   2.040974474425286e+00   1.308197980800000e+01  1.06461237e+00   1.47424878e+00   2.90238034e+00
C     4.914321182625000e+00   2.792256747172893e+00   1.346040198400000e+01 -7.05962780e-01   8.17121630e-01  -2.02747433e+00
C     5.018092074749999e+00   2.953343493423524e+00   3.604432480000000e+00 -1.26175903e+00   2.64159549e+00   1.40850226e+00
C     6.244109568450000e+00   3.745506129411446e+00   3.614758552000000e+00 -2.24428880e+00  -2.92839298e+00   8.61448500e-02
C     6.190519075725000e+00   2.151039907242026e+00   1.348815931200000e+01 -2.92438522e+00  -3.54208313e+00  -8.88202900e-02
C     7.416116755275000e+00   2.743909083310395e+00   1.350007658400000e+01  2.74798660e-01   3.95188392e+00  -3.95458970e-01
C     7.424480759100000e+00   2.982078117589771e+00   3.537503344000000e+00  2.24600457e+00  -3.64599020e-01  -4.03652060e-01
C     8.716244424675001e+00   3.646864867935690e+00   3.503723936000000e+00 -1.34725503e+00  -1.16979342e+00   6.20616060e-01
C     2.494923731925000e+00   4.180545892861939e+00   1.304262399200000e+01 -1.27526130e+00  -8.57403130e-01   9.51092920e-01
C     3.685419084300000e+00   4.874798505536559e+00   1.320204890400000e+01 -7.20457990e-01   3.21754313e+00  -1.18079600e-02
C     3.706326487125000e+00   5.073978802219728e+00   3.778727496000000e+00  2.79532340e-01  -4.27658940e-01  -1.00976793e+00
C     4.985799810600000e+00   5.757969232099485e+00   3.691569720000000e+00 -4.51861295e+00   2.87310381e+00  -3.17463770e-01
C     4.891905569550000e+00   4.259396588613567e+00   1.337665808000000e+01  1.93444903e+00  -3.39761302e+00   7.90129540e-01
C     6.149247210975000e+00   4.922892752915537e+00   1.347185536000000e+01  1.05642804e+00  -1.79137800e-01  -9.60212700e-02
C     6.162258787424999e+00   5.145859808184896e+00   3.686943272000000e+00  4.08992876e+00  -2.92407800e+00  -9.27181580e-01
C     7.435380027750000e+00   5.730272225791714e+00   3.586152584000000e+00  1.06204422e+00   4.32639655e+00   1.01893650e+00
C     7.451884854299999e+00   4.210202025691662e+00   1.356871102400000e+01 -9.07176350e-01  -1.40224090e-01  -2.18004043e+00
C     8.669430044400000e+00   4.885530248517719e+00   1.316325368000000e+01 -1.89665081e+00   1.95146049e+00   1.97180564e+00
C     8.681279533574999e+00   5.043489667570154e+00   3.656246712000000e+00 -4.73136050e-01   4.82533630e-01  -1.04179127e+00
C     9.870685343624999e+00   5.813594374381194e+00   3.664049304000000e+00  1.17007969e+00  -3.75244550e-01   1.07261096e+00
C     4.896684292500000e-02   4.621639088926860e-02   7.195238440000001e+00 -2.44213431e+00   2.01204576e+00  -7.62923920e-01
C     1.258835098650000e+00   7.159634951180713e-01   6.922984120000000e+00 -5.59355660e-01   2.83719339e+00  -2.83496530e-01
C     1.211766811050000e+00   6.128299669664172e-01   1.016262883200000e+01 -3.59083598e+00   3.45174720e-01   7.16414730e-01
C     2.372790130425000e+00   1.342228634436089e+00   1.020501160000000e+01  3.05096916e+00   4.08427620e-01   3.96512060e-01
C     2.439499020375000e+00   3.237807050538060e-02   6.713020656000000e+00  2.97635305e+00   6.76924030e-01   4.49256660e-01
C     3.664717558275000e+00   8.282729798889548e-01   6.633018792000000e+00  8.20616670e-01  -1.15704423e+00   4.01311080e-01
C     3.649935138150000e+00   6.745648352891448e-01   1.051166290400000e+01  2.78875680e-01  -1.96548589e+00  -3.02408558e+00
C     4.905232394850000e+00   1.348338360477108e+00   1.023499021600000e+01 -2.55795704e+00  -9.31495510e-01   1.79939741e+00
C     4.903728251850000e+00   6.288737856721320e-02   6.822871528000000e+00 -1.07507466e+00   4.04170140e-01   8.66169880e-01
C     6.092712546900000e+00   7.361270448199668e-01   7.118529544000000e+00  3.36556266e+00   1.32749693e+00  -1.33569367e+00
C     6.098255136374999e+00   5.984423533858770e-01   1.037262752000000e+01 -6.65424250e-01  -4.53579590e-01  -1.10041071e+00
C     7.274149431000000e+00   1.289926277302463e+00   1.018520211200000e+01  3.94066367e+00   2.69041940e-01  -2.32548560e-01
C     1.278897289950000e+00   2.207003194338743e+00   6.817930104000000e+00  4.22101000e-01  -1.92001878e+00  -3.59307700e-02
C     2.481700473600000e+00   2.999246139720231e+00   6.601108976000000e+00  6.27061240e-01  -1.53643155e+00   2.24000459e+00
C     2.391514159500000e+00   2.766634528284027e+00   1.005315536000000e+01  1.99954270e-01   1.20534400e-01   4.08147860e-01
C     3.664881579375000e+00   3.456692864400976e+00   9.986004544000000e+00 -2.65568456e+00   8.88066380e-01   1.33807929e+00
C     3.736147859925000e+00   2.271989696504728e+00   6.591794336000000e+00 -2.77012678e+00  -2.30569317e+00   2.42266210e-01
C     4.942863072525000e+00   2.898721257922690e+00   6.706567048000000e+00  2.83552533e+00   1.04892633e+00   9.28415430e-01
C     4.839015642150001e+00   2.752898676025898e+00   1.012736661600000e+01  2.77051740e+00   1.81825270e-01  -3.06571440e-01
C     6.080988883649999e+00   3.470796513188004e+00   1.022731614400000e+01  7.44670430e-01  -3.70530100e-02  -3.72651630e-01
C     6.190452187950000e+00   2.164939900629106e+00   6.922864576000000e+00 -1.86080888e+00  -1.34607762e+00   2.35066220e-01
C     7.428972777899999e+00   2.808989215726294e+00   6.953932687999999e+00  1.74862120e-01   3.56339399e+00  -8.12502490e-01
C     7.326903438300000e+00   2.696243665037723e+00   1.015893289600000e+01 -1.44421841e+00   2.10215948e+00   7.81800910e-01
C     8.540644788300000e+00   3.461141710208583e+00   1.019755485600000e+01  5.25077190e-01  -1.60009784e+00  -7.58183170e-01
C     2.525802219975000e+00   4.367803959070352e+00   6.976460271999999e+00 -1.95111485e+00   2.81201060e-01  -1.18552616e+00
C     3.731731122225000e+00   5.091229823532053e+00   7.104217856000000e+00  2.17288881e+00  -3.70882288e+00  -1.69841311e+00
C     3.653508882825000e+00   4.887888488389507e+00   1.014320517600000e+01 -3.50633630e-01   3.40014960e-01   4.35616760e-01
C     4.899019633500000e+00   5.623067510918458e+00   1.023548729600000e+01 -7.38647890e-01  -7.82711690e-01  -3.39567440e-01
C     5.007865159500000e+00   4.306299964243477e+00   6.811456640000000e+00 -1.23740310e+00   1.93569794e+00   1.03789247e+00
C     6.271847584874999e+00   5.019966188024588e+00   6.796336160000000e+00 -3.34404289e+00  -3.42390200e-01   1.76870700e-02
C     6.108396528449999e+00   4.922051681730784e+00   1.032507484800000e+01  1.37195242e+00  -1.98334809e+00  -2.25174300e-02
C     7.397795199075000e+00   5.558829794581464e+00   1.049481590400000e+01 -4.39533765e+00   3.74320085e+00  -5.38948720e-01
C     7.450410919875000e+00   4.297359556228339e+00   6.846709880000001e+00  2.72968840e-01  -1.44046580e+00   1.38132800e-01
C     8.627478172424999e+00   5.045432975575192e+00   6.907197919999999e+00  1.46925178e+00  -3.00640800e-01   1.00186880e-01
C     8.538088410749999e+00   4.850024914856722e+00   1.038806800800000e+01  3.05360004e+00   1.30984050e-01  -5.85672640e-01
C     9.794993192549999e+00   5.577995368781036e+00   1.036248722400000e+01  4.62188230e-01  -7.65891050e-01  -8.61049280e-01
