72
Lattice="7.395 0 0 3.6975 6.40425786098592 0 0 0 13.6 " PBC="1 1 1" Properties=species:S:1:pos:R:3:force:R:3 Energy="-578.97794524"
C     3.698411396775000e+00   6.308303312781671e+00   1.314412990400000e+01 -5.86753910e-01  -1.18085962e+00  -1.44921840e-01
C     1.186747751250000e+00   6.219673059107509e-01   1.310189428800000e+01  1.19693109e+00   2.39162700e-01   6.65518560e-01
C     1.332037020450000e+00   8.675357556789923e-01   3.661104224000000e+00 -3.52721440e-01   2.95208910e-01   1.42882880e-01
C     2.539199297775000e+00   1.584958332865307e+00   3.617636992000000e+00 -3.29436190e-01   2.23656630e+00  -1.73818050e-01
C     6.093429677025000e+00   6.341480570625400e+00   1.320344168000000e+01  2.95853910e+00  -1.74431269e+00  -4.09220030e-01
C     3.667827858300000e+00   6.454463399067685e-01   1.314307808000000e+01  3.51365380e-01  -1.85085890e-01   1.42089311e+00
C     3.721948905300000e+00   8.708689157248080e-01   3.651615367999999e+00  1.67917246e+00  -9.16571460e-01   6.08412520e-01
C     4.957357420425001e+00   1.560449878460874e+00   3.737237976000000e+00  1.68002392e+00   6.80002050e-01  -6.10352020e-01
C     8.635881295799999e+00   6.296040888129393e+00   1.326422728800000e+01 -1.55330682e+00   1.71071957e+00  -1.10031664e+00
C     6.191048261924999e+00   6.272766278044266e-01   1.319409331200000e+01 -2.12392484e+00  -2.85237861e+00   4.53247350e-01
C     6.245464147574999e+00   8.957107117508551e-01   3.757262751999999e+00 -6.69288870e-01  -2.78299950e+00   1.84377580e-01
C     7.491336846525000e+00   1.566663289436645e+00   3.673502256000000e+00 -1.34386348e+00  -1.49076575e+00   6.20456500e-02
C     1.233113587800000e+00   2.034087719778114e+00   1.309408612000000e+01 -8.23724360e-01   5.39197850e-01   5.99580050e-01
C     2.453773736775000e+00   2.755565601126539e+00   1.308781366400000e+01 -1.03487383e+00   1.46090707e+00   4.11498900e-01
C     2.556143239425000e+00   3.094741885905470e+00   3.612525024000000e+00 -1.00748114e+00  -2.90055861e+00   4.83287750e-01
C     3.796701484650000e+00   3.765350618986757e+00   3.754412600000000e+00 -2.50817010e-01  -2.54718406e+00  -9.04233450e-01
C     3.684296819100000e+00   2.117046939074668e+00   1.316276435200000e+01 -3.59878460e-01  -3.67630453e+00  -3.27098220e-01
C     4.921466083725000e+00   2.734821057151584e+00   1.320491850400000e+01  6.23505010e-01   4.16946670e-01   5.37945520e-01
C     4.990051898625000e+00   2.978828020768400e+00   3.717350968000000e+00 -6.33647500e-02   6.18070190e-01   4.53422850e-01
C     6.246652745924999e+00   3.660464181416242e+00   3.739325576000000e+00 -1.55353803e+00  -2.31401520e-01  -3.41113730e-01
C     6.121772123775000e+00   1.985709379520467e+00   1.323860924000000e+01  2.20277172e+00   3.11062964e+00  -1.08567370e-01
C     7.395435417600000e+00   2.741440305947944e+00   1.320733808000000e+01 -1.20656100e+00  -7.07541220e-01   7.41510900e-02
C     7.408260529124999e+00   2.920686325360604e+00   3.649199872000000e+00  4.13872558e+00   3.77415967e+00  -1.32258530e-01
C     8.685834557774999e+00   3.737333335743408e+00   3.623398088000000e+00 -5.18249830e-01  -4.94120250e-01   4.39845120e-01
C     9.793083470774999e+00   4.198159523254296e+00   1.310037639200000e+01  2.68704311e+00  -1.13388097e+00   1.44624240e-01
C     3.698540624400000e+00   4.864989744198184e+00   1.307218889600000e+01 -6.10546380e-01   4.59767220e-01   1.44526233e+00
C     3.790048166175000e+00   5.134276042738042e+00   3.777584144000000e+00  8.68424070e-01   1.89979429e+00   3.25915350e-01
C     5.011539550125000e+00   5.881221672275750e+00   3.767807240000000e+00  1.89966509e+00  -2.81226828e+00  -4.90574080e-01
C     4.955501275425000e+00   4.139061672148003e+00   1.323216012000000e+01 -1.67651616e+00   1.07593393e+00  -6.91764240e-01
C     6.162127230375000e+00   4.856988968896265e+00   1.325772186400000e+01 -1.22071728e+00   2.14769862e+00   2.97630040e-01
C     6.287141775975000e+00   5.057665492343264e+00   3.745586336000000e+00 -1.26405308e+00   3.67093305e+00  -1.37970920e-01
C     7.508463000975000e+00   5.848308526026166e+00   3.718486976000000e+00 -3.00698410e+00   1.00318690e-01  -1.78183040e-01
C     7.359968332050000e+00   4.154850409263154e+00   1.327628368800000e+01  1.33316459e+00   2.79732680e-01  -4.68303550e-01
C     8.589116942700000e+00   4.892405603585901e+00   1.317790550400000e+01 -2.11853230e-01  -8.48033000e-03   7.45349210e-01
C     8.707696618124999e+00   5.179937120428271e+00   3.745603472000000e+00  1.13583076e+00  -2.51660420e+00  -2.43484080e-01
C     9.966986879025001e+00   5.804900210080772e+00   3.829891104000000e+00 -1.06368533e+00   3.43152532e+00  -9.57221730e-01
C     7.396176174750000e+00   8.923539199935361e-02   6.950189016000000e+00  3.36893765e+00  -1.04439263e+00  -4.76476790e-01
C     1.252692848625000e+00   8.661984825952459e-01   6.879627048000001e+00  4.19630180e-01  -3.58546173e+00   4.39195390e-01
C     1.121600981100000e+00   5.844124816493964e-01   1.024613160800000e+01  3.09371171e+00  -2.21581768e+00  -4.25009080e-01
C     2.440083447225000e+00   1.297933841117714e+00   1.015265812800000e+01 -4.50760074e+00  -8.62783090e-01  -7.99903900e-02
C     2.553308292225000e+00   9.689225865419100e-02   6.860050663999999e+00 -3.37124827e+00   9.00144210e-01   1.69792040e-01
C     3.788108161875000e+00   7.552251181416942e-01   6.834392632000000e+00 -9.41653360e-01   1.61036122e+00   4.13962100e-01
C     3.578492301975000e+00   5.557812862475874e-01   1.016896452800000e+01  2.00239396e+00  -6.10773870e-01   6.45304480e-01
C     4.828357968150000e+00   1.233444693617136e+00   1.023398517600000e+01  2.50791040e-01   9.42768030e-01  -6.00220230e-01
C     5.008353784124999e+00   9.760787042746741e-02   6.956455896000000e+00  5.15896170e-01  -9.84951580e-01  -3.40426680e-01
C     6.243493269149999e+00   8.051406083708988e-01   6.987537335999999e+00 -2.33064133e+00   1.32737322e+00  -4.43004670e-01
C     6.069185982975000e+00   5.542078881765427e-01   1.024539476000000e+01  1.05463895e+00   1.48199575e+00   8.32916400e-02
C     7.348074694725000e+00   1.269710020558380e+00   1.027299759200000e+01 -2.94302582e+00   1.44215076e+00  -9.21232040e-01
C     8.637881199599999e+00   2.243071334180477e+00   6.916611976000000e+00 -1.23209159e+00   9.17426450e-01  -7.68094310e-01
C     2.477586930900000e+00   2.867030108115373e+00   6.858866648000000e+00  1.11907761e+00   2.38274092e+00   2.05468570e-01
C     2.379777370125000e+00   2.684730666640222e+00   1.009623730400000e+01 -5.32072290e-01   1.54997447e+00   6.12143060e-01
C     3.582051108750000e+00   3.418503826483747e+00   1.017858231200000e+01  1.46656144e+00  -1.33097849e+00  -5.45081640e-01
C     3.724310387625000e+00   2.182672970430553e+00   6.825801512000000e+00  1.06049434e+00   3.16064210e-01   5.51456800e-01
C     4.979527963200000e+00   2.905452581231601e+00   6.911033799999999e+00 -2.45279372e+00   2.11325816e+00  -1.93997380e-01
C     4.845606177074999e+00   2.647755427715198e+00   1.021558192800000e+01 -5.09625140e-01   1.95627533e+00   1.07822410e-01
C     6.101367396074999e+00   3.392528348731322e+00   1.025538695200000e+01 -2.00412333e+00  -9.92338200e-02  -4.68660840e-01
C     6.190408187699999e+00   2.255073041495274e+00   6.916061040000000e+00  1.44465991e+00  -4.85084450e-01   1.54954060e-01
C     7.398436382549999e+00   3.040470219479893e+00   6.860744400000001e+00  8.32357230e-01  -4.40743243e+00   6.74995250e-01
C     7.315440559724999e+00   2.728619814265746e+00   1.019119699200000e+01 -1.86350930e-01  -2.23312652e+00   5.31063920e-01
C     8.506448977200000e+00   3.417313531117886e+00   1.016520181600000e+01  2.61196823e+00   5.27643710e-01  -1.00651790e-01
C     9.874518172124999e+00   4.325409949484825e+00   6.904384216000000e+00  6.81481190e-01  -1.11615762e+00  -2.44713540e-01
C     3.716277125175000e+00   5.005582352956186e+00   6.887616639999999e+00 -2.32372434e+00   3.87120756e+00   7.16369440e-01
C     3.590329182675000e+00   4.833116073041857e+00   1.017671013600000e+01 -3.00617530e-01  -7.50083800e-02   3.12779940e-01
C     4.804403751375000e+00   5.496343962982072e+00   1.025814843200000e+01  1.57432217e+00   2.48206496e+00  -5.15490560e-01
C     4.914051043275000e+00   4.406898495006407e+00   6.945837560000000e+00  2.63870520e+00  -3.95852597e+00  -4.41790240e-01
C     6.126694383675000e+00   5.109439690331176e+00   6.920003272000000e+00  2.81841557e+00  -5.19815410e-01  -2.77995410e-01
C     6.073264177575000e+00   4.812394200139726e+00   1.026257169600000e+01 -1.64224168e+00  -1.20153040e-01  -2.13038300e-02
C     7.247794723275000e+00   5.552601909982928e+00   1.028091034400000e+01  2.74398277e+00  -8.38350130e-01  -6.66482470e-01
C     7.426127255850000e+00   4.388566242839580e+00   6.867532976000000e+00 -1.33294742e+00   2.51059960e+00   4.25772790e-01
C     8.688827055449998e+00   5.074750451249279e+00   6.915704311999999e+00 -9.49784880e-01   1.47005860e-01   4.34005500e-02
C     8.550341925749999e+00   4.840679053276467e+00   1.025619846400000e+01 -1.87348914e+00   6.69245080e-01  -6.29735750e-01
C     9.768694760774999e+00   5.588688878342770e+00   1.020212921600000e+01 -2.11877670e-01  -2.61091568e+00   2.81255500e-02
