72
Lattice="7.395 0 0 3.6975 6.40425786098592 0 0 0 13.6 " PBC="1 1 1" Properties=species:S:1:pos:R:3:force:R:3 Energy="-575.82978436"
C     3.638510232900000e+00   6.188266194306597e+00   1.352901847200000e+01 -2.95113880e-01   3.07342405e+00   1.30333221e+00
C     1.170088665000000e+00   5.227770074086560e-01   1.350902062400000e+01  9.10947850e-01  -3.36384540e-01   2.94013960e-01
C     1.372334630925000e+00   9.536315883476383e-01   3.372677600000000e+00 -1.75643559e+00   3.96972820e-01   9.89221430e-01
C     2.636449057050000e+00   1.647617015384340e+00   3.236216424000000e+00 -3.72312610e-01  -6.96037840e-01   1.92092125e+00
C     6.125778069224999e+00   6.235259549759441e+00   5.608490400000000e-02 -6.84523930e-01  -1.55521374e+00   8.79429000e-02
C     3.660114651450000e+00   4.952608573428516e-01   4.980864000000000e-03  1.64094279e+00   8.68878160e-01   6.61016850e-01
C     3.893963297775000e+00   1.013222567309152e+00   3.502082688000000e+00 -6.01851980e-01  -2.00101653e+00  -8.51625110e-01
C     5.096754131775000e+00   1.741841260214055e+00   3.555590936000000e+00  5.30303710e-01   1.37273700e-02   1.19393838e+00
C     8.648363131424999e+00   6.272350833836888e+00   3.432340800000000e-02 -1.63496404e+00  -2.12402921e+00   8.93239910e-01
C     6.108667924950000e+00   6.504428138039832e-01   9.565383199999999e-02  1.70430903e+00  -3.76629445e+00  -9.21215270e-01
C     6.319636552200000e+00   1.008056188450912e+00   3.691510016000000e+00 -1.03223457e+00   7.41569180e-01  -9.58290680e-01
C     7.520297256450000e+00   1.709821315808206e+00   3.474504336000000e+00  1.71846653e+00   2.95592380e-01  -1.99963290e-01
C     1.191399612975000e+00   1.979349823380329e+00   1.342735384800000e+01  7.60278000e-03  -1.97597338e+00   1.44572521e+00
C     2.430075793725000e+00   2.625538801028544e+00   1.324972656000000e+01  1.60904901e+00  -2.59913730e-01   2.05353249e+00
C     2.610862209150000e+00   3.036266464620589e+00   3.387941560000000e+00  1.00600849e+00   1.34721424e+00  -3.02645180e-01
C     3.863185936350000e+00   3.766719721232068e+00   3.526007944000000e+00 -2.22590754e+00   2.29547362e+00   1.65580953e+00
C     3.707028901199999e+00   1.898941868287464e+00   1.359184979200000e+01 -1.65723636e+00   2.37965207e+00  -2.45445505e+00
C     4.911819823875000e+00   2.700534453761344e+00   6.261045599999999e-02 -5.74094160e-01  -2.53141280e-01   1.07907469e+00
C     5.131503273750000e+00   3.183495101330544e+00   3.675099848000000e+00 -1.30373481e+00  -2.11974129e+00  -2.36106010e+00
C     6.316937340225000e+00   3.902230295207845e+00   3.500832304000000e+00  6.70798570e-01   8.30071080e-01   5.53198520e-01
C     6.130956159149999e+00   2.033069570863531e+00   2.384309840000000e-01  8.91352260e-01  -9.46190870e-01  -3.01729110e-01
C     7.428317396024999e+00   2.664158653372016e+00   3.063809360000000e-01 -1.09977914e+00  -1.11760152e+00  -2.84981160e+00
C     7.543078071599999e+00   3.170325769722712e+00   3.359942696000000e+00 -1.97327462e+00  -2.26837693e+00   1.08087151e+00
C     8.771541017849998e+00   3.765257372992315e+00   3.420771416000000e+00  2.17552296e+00   1.52194737e+00  -7.49127110e-01
C     2.456477644575000e+00   4.041409420213565e+00   1.330341310400000e+01 -4.63524380e-01   9.68829180e-01   2.44569338e+00
C     3.653099939325000e+00   4.782719430919631e+00   1.354196009600000e+01  1.08787107e+00   2.84033280e-01  -7.90936870e-01
C     3.766388898975000e+00   5.220482733110245e+00   3.773429344000000e+00  2.89236350e-01   9.21057400e-02  -1.59268586e+00
C     4.974423231675000e+00   5.938044859075330e+00   3.647977504000000e+00  1.99881971e+00   2.28568019e+00  -8.70082690e-01
C     4.918885746375000e+00   4.137860361458624e+00   1.199132400000000e-01 -1.12876864e+00  -1.26921303e+00  -2.37884120e-01
C     6.147226416300000e+00   4.795787383125539e+00   3.093847680000000e-01  4.94972050e-01   7.21443480e-01  -1.98076266e+00
C     6.266661508349999e+00   5.367193073231590e+00   3.533075320000000e+00  4.37959020e-01  -4.43985510e+00   3.04777880e-01
C     7.551968488500000e+00   5.918245519517932e+00   3.542040711999999e+00  4.75977030e-01   2.99871845e+00  -1.05656344e+00
C     7.392771110024999e+00   4.013234784354596e+00   1.904565760000000e-01  1.34327625e+00   5.37751733e+00   1.27032709e+00
C     8.690565324150000e+00   4.783305996897028e+00   1.021188640000000e-01 -2.21136161e+00   4.16186800e-02  -2.35951704e+00
C     8.791728961124999e+00   5.180739189682657e+00   3.450034672000000e+00 -1.17357116e+00   2.52203932e+00   1.89461793e+00
C     9.947845365225000e+00   6.019973505197052e+00   3.720088376000000e+00  1.19021156e+00  -3.96739927e+00  -9.82658890e-01
C     7.368532999200000e+00   1.873979352000756e-01   7.097654632000000e+00  1.23455194e+00  -5.91492030e-01  -1.44497630e+00
C     1.236718539375000e+00   8.557686363296070e-01   6.851569160000000e+00 -1.85487270e-01  -4.20217470e-01  -9.18742700e-02
C     1.114765671675000e+00   4.632388635744870e-01   1.002108683200000e+01 -5.80330180e-01   1.12634907e+00  -6.46711260e-01
C     2.324368927575000e+00   1.191591523607885e+00   9.877352104000000e+00  5.52082600e-01  -1.34122800e-01   2.12758670e-01
C     2.467508692125000e+00   1.206150387043602e-01   6.831872688000000e+00  2.47381580e-01   7.69927870e-01  -4.13399920e-01
C     3.620444987400000e+00   9.503151434148374e-01   6.777168864000000e+00  1.25485719e+00  -1.19031145e+00   2.26016300e-02
C     3.572436647400000e+00   4.799211227462652e-01   9.965571495999999e+00  5.21382900e-02   7.48538410e-01   7.35035110e-01
C     4.785971713875000e+00   1.208681926133081e+00   1.004504214400000e+01  1.04838571e+00  -1.57397444e+00  -9.17164750e-01
C     4.808018094600000e+00   1.425099795187068e-01   6.926879840000001e+00  2.16595657e+00   1.37844454e+00  -3.91955030e-01
C     6.088338737175000e+00   7.899011004098214e-01   6.954233520000000e+00  2.75849230e-01   2.65326369e+00   3.43725940e-01
C     6.007975201575000e+00   4.235393814409758e-01   1.016196692000000e+01 -4.22408630e-01   9.47635320e-01  -5.86469060e-01
C     7.241078510324999e+00   1.117466849944045e+00   1.003890949600000e+01 -3.59100600e-02   4.10283390e-01   1.21878674e+00
C     8.668166645625000e+00   2.258885047901282e+00   6.649051832000000e+00 -3.44739620e-01   1.09710513e+00   1.94600686e+00
C     2.471803671150000e+00   3.118536457686250e+00   6.702402728000000e+00 -1.03480300e-01  -1.71116975e+00  -8.10859410e-01
C     2.323731959250000e+00   2.631300519697450e+00   9.753777744000001e+00 -2.24998410e-01  -1.67412783e+00   8.18880860e-01
C     3.570119535075000e+00   3.306206125547325e+00   9.787559192000000e+00  3.30193010e-01   9.45469280e-01   4.63142380e-01
C     3.689794336049999e+00   2.404905137110476e+00   6.654652176000000e+00  4.60121990e-01  -1.99843361e+00   1.03444316e+00
C     4.988134449075000e+00   3.032449334808294e+00   6.739308095999999e+00 -2.34838613e+00  -8.86895150e-01   2.37720430e-01
C     4.823536280250000e+00   2.600814843347120e+00   9.824059280000000e+00 -1.47914021e+00   2.70172760e-01   1.63652413e+00
C     6.000307880699999e+00   3.295938883388752e+00   1.007923485600000e+01  1.99208943e+00   1.77319786e+00   4.46671590e-01
C     6.147399866024999e+00   2.249196430440360e+00   6.891502840000000e+00  6.85065440e-01  -1.01905853e+00  -6.58724940e-01
C     7.413432887925000e+00   2.896643460502592e+00   6.861572911999999e+00  3.40886790e-01   1.26349883e+00  -7.35021980e-01
C     7.212284931599999e+00   2.513756130509224e+00   1.016406186400000e+01  1.29634010e+00   2.44404160e+00  -2.26439077e+00
C     8.463688314075000e+00   3.271903511512436e+00   9.880540216000000e+00 -5.79663880e-01   4.39251900e-02   2.04902945e+00
C     9.885219291749999e+00   4.538466607843569e+00   6.837388984000000e+00  1.40571724e+00  -1.87989353e+00   9.94492610e-01
C     3.773414038050000e+00   5.179495034508195e+00   7.054433695999999e+00 -1.60383035e+00  -8.33661350e-01  -1.91237303e+00
C     3.590447280825000e+00   4.712559633296915e+00   1.000512410400000e+01 -6.94208120e-01   9.84529420e-01  -3.80212910e-01
C     4.821508312424999e+00   5.485380385866382e+00   1.001394057600000e+01  4.23636740e-01  -2.21800512e+00   1.13069071e+00
C     4.960930425600000e+00   4.423983069656951e+00   6.792223792000000e+00  2.38311602e+00   1.58218164e+00   9.63928120e-01
C     6.298280051024999e+00   5.077566467472900e+00   6.809196728000001e+00 -4.31996142e+00   1.13451675e+00   7.72884820e-01
C     6.076384386899999e+00   4.808357148112519e+00   1.016763866400000e+01 -1.11216722e+00  -2.80131594e+00  -1.52208581e+00
C     7.327602857400000e+00   5.478017986987947e+00   1.011512634400000e+01 -1.98981107e+00  -7.94325850e-01   1.76522470e-01
C     7.458174301800000e+00   4.327857592796338e+00   6.886014968000000e+00  3.40744990e-01   7.10407620e-01  -4.44507810e-01
C     8.646010153350000e+00   5.141690956530930e+00   6.934257568000000e+00 -2.00752010e+00  -9.69254800e-02  -4.29441360e-01
C     8.497816830674999e+00   4.682099958233499e+00   1.008307005600000e+01  1.67643360e-01   7.96843980e-01  -4.46032780e-01
C     9.707446819499999e+00   5.418635530662354e+00   1.012204833600000e+01  1.37410468e+00  -1.23317338e+00  -4.05648400e-01
