72
Lattice="7.395 0 0 3.6975 6.40425786098592 0 0 0 13.6 " PBC="1 1 1" Properties=species:S:1:pos:R:3:force:R:3 Energy="-582.92156508"
C     7.399553323350000e+00   1.471954626542400e-02   1.358409806400000e+01  3.70724290e-01  -1.08349094e+00   3.26832500e-02
C     1.259214757950000e+00   6.973666830590460e-01   1.359767712000000e+01 -9.15202340e-01   6.04600380e-01  -2.01281360e-01
C     1.212892551900000e+00   7.399863786915600e-01   3.412625696000000e+00  1.95624856e+00  -1.37841392e+00  -2.32557460e-01
C     2.464065654075000e+00   1.438627316937010e+00   3.409026048000000e+00  1.97241780e-01  -6.83683490e-01  -1.36887510e-01
C     6.174290489399999e+00   6.392759911608470e+00   1.359079497600000e+01  1.68345700e-01   9.47749250e-01   7.50619700e-02
C     3.717910347899999e+00   7.302908446321488e-01   1.358600179200000e+01 -1.34570272e+00  -1.49035566e+00  -1.70207820e-01
C     3.705645222749999e+00   7.205223020331336e-01   3.400287776000000e+00 -1.51120659e+00  -7.12683470e-01   3.80671700e-02
C     4.906938569249999e+00   1.406968188418993e+00   3.409167760000000e+00  1.49349856e+00   7.14782790e-01  -8.46432100e-02
C     8.609805046800000e+00   6.397940315791424e+00   1.359385946400000e+01  8.32548100e-01   4.59116400e-02  -4.53296600e-02
C     6.147834322274999e+00   6.616258648365366e-01   8.206240000000000e-04  4.69739060e-01   2.40020583e+00  -1.18508220e-01
C     6.160445977125000e+00   6.996703586538666e-01   3.409926232000000e+00  3.95888220e-01   1.26281280e-01  -1.06982130e-01
C     7.416879808350000e+00   1.435105039156589e+00   3.395366072000000e+00 -2.13640354e+00  -1.16742787e+00   1.29622580e-01
C     1.247113986675000e+00   2.118362309596533e+00   1.358227389600000e+01 -5.43703050e-01   1.06232763e+00   2.43696910e-01
C     2.479899014625000e+00   2.839363650117595e+00   1.359571695200000e+01 -1.05408157e+00   7.93676890e-01  -4.22763650e-01
C     2.483793998100000e+00   2.837016425569326e+00   3.392387536000000e+00 -1.63410036e+00   1.91800946e+00   1.33964950e-01
C     3.684157053600000e+00   3.593534883585848e+00   3.421940472000000e+00  1.15915916e+00  -2.07358978e+00  -3.01978850e-01
C     3.701993275950000e+00   2.121684390276251e+00   1.354873697600000e+01 -4.31259900e-02   9.16897990e-01   7.47746060e-01
C     4.929189310800000e+00   2.815016903224126e+00   2.210394400000000e-02 -1.47632700e-01   1.72543081e+00  -4.93164020e-01
C     4.902298909274999e+00   2.831573510856691e+00   3.404469096000000e+00  1.23084976e+00   9.64344930e-01   2.78306340e-01
C     6.187017210450001e+00   3.525038015559061e+00   3.420187568000000e+00 -2.13927606e+00   1.04701630e+00  -2.21093090e-01
C     6.138460937925000e+00   2.121680739849271e+00   4.019480000000000e-03  1.39153314e+00  -5.40697820e-01   1.33998230e-01
C     7.383453853725000e+00   2.863487592880114e+00   1.359695917600000e+01  4.94817240e-01  -7.95121820e-01   4.19522700e-02
C     7.399203576825000e+00   2.825797766863071e+00   3.395541648000000e+00  6.78915300e-01   1.48663457e+00  -2.52759700e-02
C     8.613715596750000e+00   3.578618214263492e+00   3.378934960000000e+00  8.57300010e-01  -9.28412490e-01   4.23405120e-01
C     9.824697724349999e+00   4.293475950219457e+00   1.358210756800000e+01  2.29502427e+00  -1.26061222e+00  -1.68008700e-02
C     3.706838332050000e+00   4.997394957580226e+00   1.356873115200000e+01 -7.74922440e-01  -5.95079250e-01   2.84929760e-01
C     3.710359313400000e+00   4.989326873528197e+00   3.407572616000000e+00 -6.22084000e-02   2.56404720e-01  -7.23324000e-03
C     4.939153481700000e+00   5.701279510033708e+00   3.394439368000000e+00 -7.32550000e-02   1.61915550e-01   2.24383210e-01
C     4.937287871099999e+00   4.271480910854758e+00   8.393240000000000e-03 -5.99257500e-01  -6.91953100e-01  -8.05139400e-02
C     6.155817039899999e+00   4.987594009436439e+00   7.369024000000000e-03  4.05416910e-01  -2.91488720e-01   1.89227000e-02
C     6.169012825799999e+00   4.974523175314493e+00   3.408184480000000e+00  2.84419260e-01  -2.24112500e-01  -1.11329330e-01
C     7.405836115349999e+00   5.703421093862092e+00   3.393037344000000e+00 -9.66733750e-01   1.11228850e-01   3.36515930e-01
C     7.398838411725000e+00   4.304588554415550e+00   6.201328000000000e-03 -9.13282550e-01  -2.12199118e+00  -1.28182420e-01
C     8.614955072699999e+00   4.985260682127726e+00   1.358161524800000e+01 -8.83684100e-02   3.69290810e-01   1.99664510e-01
C     8.619314942850000e+00   5.010039011958381e+00   3.433197464000000e+00  4.89069880e-01  -1.69456528e+00  -5.71890580e-01
C     9.869301850049998e+00   5.665576540975151e+00   3.409151984000000e+00 -1.91450240e-01   2.09877352e+00   1.68427800e-01
C     3.704119523325000e+00   6.398932783631989e+00   6.815345560000000e+00 -3.46555620e-01   7.11722800e-01   1.79538240e-01
C     1.243706222775000e+00   7.247136966747678e-01   6.812491872000000e+00 -8.34324530e-01  -3.00443940e-01  -8.87754400e-02
C     1.265328980925000e+00   7.053131502543126e-01   1.019884808000000e+01 -2.95429065e+00  -2.82046270e-01   6.56533600e-02
C     2.453851273350000e+00   1.396589960471706e+00   1.018743169600000e+01  8.20394570e-01   1.50390337e+00   2.36384230e-01
C     2.461109354925000e+00   1.611945299104140e-02   6.780389752000000e+00  5.26447640e-01  -3.63926820e-01   2.11129940e-01
C     3.707674854450000e+00   6.921843575987340e-01   6.773383304000000e+00  2.27166880e-01   6.85523090e-01   7.01454200e-02
C     3.668448705525000e+00   7.030904885214211e-01   1.023002975200000e+01  1.88587556e+00   5.69680000e-04  -4.83463390e-01
C     4.936847572800000e+00   1.416574831379308e+00   1.019111634400000e+01 -1.00688378e+00   2.37420860e-01   5.05332030e-01
C     4.966540605375000e+00   2.286768354070200e-03   6.801885640000000e+00 -1.59450281e+00  -7.00855500e-02   1.28217340e-01
C     6.165034907400000e+00   7.231545800987508e-01   6.839013640000000e+00  1.24035055e+00   3.33492180e-01  -4.90775740e-01
C     6.173457627525000e+00   7.173198528902406e-01   1.021807480800000e+01 -4.28611850e-01  -2.25038900e-01  -3.13431150e-01
C     7.379415259350000e+00   1.462228736300732e+00   1.020178799200000e+01  1.74238459e+00  -2.39751265e+00  -8.72482400e-02
C     8.619727325025000e+00   2.145304253902610e+00   6.820911632000000e+00  3.31629090e-01  -9.30883460e-01  -3.43362480e-01
C     2.457127591125000e+00   2.816687966227536e+00   6.777291128000000e+00  7.01947790e-01   1.06340172e+00   3.68518660e-01
C     2.466073544475000e+00   2.830510404051931e+00   1.019075730400000e+01  6.75304000e-03   8.21017540e-01  -5.89902000e-03
C     3.699652203825000e+00   3.579683050217875e+00   1.018480159200000e+01 -6.40529540e-01  -1.73883711e+00   1.18510430e-01
C     3.697842018750000e+00   2.119374502551306e+00   6.773524200000000e+00 -1.84181710e-01  -2.02859370e-01   5.14554900e-02
C     4.914775531425000e+00   2.852226217773933e+00   6.795469568000000e+00  1.14624500e+00  -3.49123830e-01  -9.36257900e-02
C     4.923595067250000e+00   2.857597917139165e+00   1.020664468800000e+01  6.85791760e-01  -7.89491110e-01  -3.13511410e-01
C     6.168991897949999e+00   3.546407230845679e+00   1.019243894400000e+01 -5.98644910e-01   5.63466000e-01   3.04111900e-02
C     6.185724860250000e+00   2.164557566434864e+00   6.791179992000000e+00 -1.80172407e+00  -1.59649945e+00   3.30327150e-01
C     7.396154544374999e+00   2.832144258317174e+00   6.798497880000000e+00 -5.16892000e-03   2.28065211e+00   4.26037500e-02
C     7.402794625799999e+00   2.849083584399453e+00   1.017992857600000e+01 -4.14877950e-01   5.72879470e-01   2.98200000e-01
C     8.632516385924999e+00   3.554857456964214e+00   1.020924596000000e+01  3.36009450e-01   2.35369730e-01  -2.10603740e-01
C     2.479295064975000e+00   4.247332439784635e+00   6.814114216000000e+00 -1.59166168e+00   5.23139620e-01  -2.26547660e-01
C     3.674665127400000e+00   4.981567474705021e+00   6.808133752000000e+00  1.56979092e+00  -5.82026860e-01   7.51627000e-02
C     3.688473995775000e+00   4.972957398310302e+00   1.018005396800000e+01  6.82646250e-01   5.27209150e-01   2.35226580e-01
C     4.937547657450000e+00   5.672411421133657e+00   1.021065968000000e+01 -8.25841700e-01   1.10199198e+00  -2.40388520e-01
C     4.937240284274999e+00   4.255422810654015e+00   6.810566248000000e+00 -1.17640347e+00   1.20869199e+00  -8.59217400e-02
C     6.153171219824999e+00   4.998817151123196e+00   6.807804224000001e+00 -3.35461930e-01  -5.72297080e-01  -2.32574160e-01
C     6.143265210599999e+00   4.975956576308718e+00   1.020277943200000e+01  1.09072692e+00  -5.72299090e-01   8.38005700e-02
C     7.376678628674999e+00   5.696496874306439e+00   1.021975400000000e+01  2.07557150e-01  -3.22231710e-01   8.75782000e-02
C     7.365842402399999e+00   4.290223611907834e+00   6.788376896000000e+00  1.48648892e+00  -6.16948640e-01   1.98858640e-01
C     8.621107823625000e+00   4.995300060791641e+00   6.810773783999999e+00  6.23845430e-01  -1.20786875e+00  -1.08046280e-01
C     8.618859632700000e+00   4.987905384453592e+00   1.022593710400000e+01  5.03987570e-01  -2.94232380e-01  -2.36699500e-01
C     9.873656247900000e+00   5.676972405496393e+00   1.019763278400000e+01 -1.10794160e+00   1.04816624e+00   2.05595770e-01
