72
Lattice="7.395 0 0 3.6975 6.40425786098592 0 0 0 13.6 " PBC="1 1 1" Properties=species:S:1:pos:R:3:force:R:3 Energy="-581.11691079"
C     3.699964198875000e+00   6.222178212654605e+00   5.537987999999999e-02  5.91577900e-02   1.37820779e+00  -1.05143980e-01
C     1.212042570600000e+00   6.015778139915544e-01   1.059698400000000e-02  2.24988510e-01  -2.24053932e+00   2.18258660e-01
C     1.345508418000000e+00   8.983831445132544e-01   3.333542648000000e+00 -3.96997140e-01   1.74589850e-01   8.70763600e-02
C     2.555710410075000e+00   1.670040435557294e+00   3.197708024000000e+00 -5.37469150e-01  -1.66604050e+00   4.86543050e-01
C     6.112438376625000e+00   6.244304026964804e+00   1.257135040000000e-01  1.67827984e+00   7.72254830e-01  -2.19584880e-01
C     3.677996870699999e+00   5.841972985853005e-01   1.072583040000000e-01  7.26402000e-03  -7.37115340e-01  -4.30548640e-01
C     3.754508387775000e+00   8.826116988943256e-01   3.280997688000000e+00  8.87703310e-01   1.59646192e+00   5.30473870e-01
C     4.985188022250000e+00   1.598209062590541e+00   3.434281928000000e+00  9.18277520e-01   6.45921900e-02  -4.90737280e-01
C     8.637156526575000e+00   6.270159809137825e+00   1.825186640000000e-01 -1.49640242e+00  -1.23325254e+00  -6.14970640e-01
C     6.182752107224999e+00   5.506632595361899e-01   1.443720240000000e-01 -1.00556593e+00   9.82370500e-02  -1.97970930e-01
C     6.244316776350000e+00   9.049271432797596e-01   3.538328456000000e+00 -2.16303980e-01   3.13151720e-01  -5.16083550e-01
C     7.491014202674999e+00   1.581246553094809e+00   3.405424224000000e+00  1.02840930e-01   1.85726424e+00  -6.45201200e-02
C     1.213272100275000e+00   2.008224316538240e+00   1.354332812000000e+01 -1.36736040e-01  -6.45725140e-01   3.84385650e-01
C     2.421411848700000e+00   2.732925204697288e+00   1.347118324800000e+01  1.46669605e+00  -1.76108697e+00   2.27598760e-01
C     2.544334053000000e+00   3.089884192276081e+00   3.216930128000000e+00  9.21711340e-01  -9.45338860e-01   8.59489240e-01
C     3.820605378450000e+00   3.748377926721028e+00   3.429554704000000e+00 -1.85808803e+00   7.65714170e-01  -7.29162210e-01
C     3.680736866100000e+00   2.002684057106133e+00   1.351631824800000e+01  3.10361700e-02  -4.18038440e-01   1.38703994e+00
C     4.934143628025000e+00   2.688679788207013e+00   1.395389920000000e-01 -1.23924965e+00  -2.96871250e-01  -8.31312300e-01
C     5.034751124024999e+00   3.033590445473788e+00   3.399309528000000e+00 -1.63956075e+00  -1.47072628e+00   5.80463990e-01
C     6.227479137825000e+00   3.721308985981587e+00   3.432825096000000e+00  2.06305417e+00   1.12393717e+00  -3.44160900e-01
C     6.161622891375000e+00   1.994101134764739e+00   1.880540000000000e-01 -8.65993700e-01  -2.13523223e+00  -2.79905710e-01
C     7.369679039325000e+00   2.661236646680812e+00   1.264960480000000e-01  9.84890990e-01   2.83234710e-01   1.59940500e-02
C     7.475879706600000e+00   3.053060478092025e+00   3.330207928000000e+00 -5.55958290e-01  -2.24037106e+00   2.32531590e-01
C     8.681328007800001e+00   3.764141238932475e+00   3.256164768000000e+00  1.46643051e+00  -2.23224490e-01   8.27493940e-01
C     2.446998770550000e+00   4.114161213119958e+00   1.354140168000000e+01 -5.51612800e-01   1.28595664e+00   3.05110550e-01
C     3.700334947200000e+00   4.806868030074911e+00   1.358669376000000e+01 -8.76953490e-01   4.79404300e-01   4.97649940e-01
C     3.817879914224999e+00   5.172231005030490e+00   3.544416632000000e+00 -3.56220560e-01   3.36555900e-01  -4.04004790e-01
C     5.061820114800000e+00   5.861624066840943e+00   3.459893040000000e+00 -1.06530899e+00   1.29554988e+00  -1.61404210e-01
C     4.903635851324999e+00   4.099265101465334e+00   1.404338720000000e-01  8.37233830e-01   3.56382010e-01  -2.11872830e-01
C     6.123243174150000e+00   4.818919050175230e+00   2.483358640000000e-01  9.43442570e-01  -5.70848350e-01  -2.99387390e-01
C     6.259182131399999e+00   5.150682022225740e+00   3.403139424000000e+00  1.13126500e-01  -3.75281480e-01  -1.47071340e-01
C     7.471028401724999e+00   5.878034145053671e+00   3.329520448000000e+00  7.78917060e-01  -8.21170460e-01   7.32990430e-01
C     7.384773898199999e+00   4.028167272193866e+00   2.598667600000000e-01 -9.28681330e-01   4.33609347e+00  -1.07977499e+00
C     8.587178565299999e+00   4.794594526056535e+00   1.027044800000000e-01  9.13529320e-01   1.16406132e+00   4.58586280e-01
C     8.719208266724998e+00   5.146231383225933e+00   3.441419208000000e+00 -2.64717800e-02   2.70152131e+00  -5.50232540e-01
C     9.968362422975000e+00   5.913292786701901e+00   3.559774568000000e+00 -6.63615850e-01  -2.59482560e+00  -4.51704170e-01
C     7.422585198749999e+00   1.042513273185384e-01   6.865721320000000e+00  3.47352120e-01   5.97547710e-01  -7.37929000e-03
C     1.260370374600000e+00   8.270408647192693e-01   6.767990496000000e+00 -5.60922240e-01   1.03953816e+00   5.91441000e-03
C     1.127215930650000e+00   5.517856057261549e-01   1.014711286400000e+01  5.98592910e-01   4.11066790e-01   7.67991300e-02
C     2.352567726450000e+00   1.259585721435241e+00   9.946280848000001e+00  7.29333140e-01   1.56557840e-01   9.40162170e-01
C     2.490270095400000e+00   1.448809638636360e-01   6.791531824000000e+00  4.70336150e-01  -1.56466091e+00   2.24109440e-01
C     3.765038424075000e+00   8.211224979031074e-01   6.777133776000000e+00 -8.19074150e-01  -7.37365470e-01   6.45237700e-02
C     3.625201932075000e+00   5.424372464853342e-01   1.004876840800000e+01 -2.50366828e+00   1.35895720e-01  -2.56160210e-01
C     4.819273506449999e+00   1.241160927742336e+00   1.008879497600000e+01  1.51616379e+00   1.04777226e+00   8.32521410e-01
C     5.001319068525000e+00   1.043162024506602e-01   6.904259368000001e+00 -4.24069860e-01   6.97364760e-01  -2.58433470e-01
C     6.221977923374999e+00   8.545005932733269e-01   6.917074919999999e+00 -6.65602920e-01  -9.72481690e-01  -8.15731090e-01
C     6.064746320775000e+00   5.849909782618903e-01   1.027309986400000e+01 -2.34977700e-02  -1.02615297e+00  -5.98756140e-01
C     7.305078094124999e+00   1.265081663402958e+00   1.026942011200000e+01 -3.34109100e-01   6.32476510e-01  -7.10072010e-01
C     8.620751273700000e+00   2.281744854204816e+00   6.698078064000001e+00  1.09156651e+00  -8.61883610e-01  -1.38092130e-01
C     2.493740384025000e+00   2.961978802594212e+00   6.634428976000000e+00 -4.60870150e-01  -1.39344681e+00   8.66383730e-01
C     2.359076657550000e+00   2.714525899950665e+00   9.924013159999999e+00  3.72974310e-01  -2.04238880e+00   6.56161430e-01
C     3.599200520475000e+00   3.372631216156402e+00   9.984483248000000e+00  2.37810610e-01   1.67386622e+00   7.93560600e-01
C     3.731484683850000e+00   2.219381215845394e+00   6.682086096000000e+00  3.29651070e-01   1.83551254e+00   2.19351330e-01
C     4.954592355975000e+00   2.991850182530610e+00   6.752649696000000e+00 -2.53012710e-01  -2.49580877e+00   1.02118200e-02
C     4.833051574650000e+00   2.652849310374463e+00   1.011231155200000e+01 -5.27099520e-01   1.34268938e+00  -3.53416940e-01
C     6.054432144524999e+00   3.394491125680255e+00   1.022682328000000e+01  3.02763440e-01  -6.55984810e-01  -3.92115290e-01
C     6.207405299400000e+00   2.257594397814756e+00   6.777321320000000e+00 -8.47409050e-01   1.51610250e+00   3.52719020e-01
C     7.407764139750000e+00   3.014748670551618e+00   6.728469712000000e+00  4.71281440e-01  -2.12882720e-01   3.81419960e-01
C     7.302088665374999e+00   2.677832256243744e+00   1.019674130400000e+01  5.74627240e-01   1.15280459e+00   1.88844160e-01
C     8.558842330350000e+00   3.415691332601949e+00   1.010750844000000e+01 -1.84450240e+00   1.57478440e-01  -1.05880930e-01
C     9.867038277524999e+00   4.352191915429558e+00   6.796007312000000e+00  9.18957430e-01   7.87027710e-01  -2.94996920e-01
C     3.683161205925000e+00   5.092922981225080e+00   6.836123504000001e+00  7.45858500e-01  -2.39187160e-01   7.28018700e-02
C     3.549209137275000e+00   4.826782005848003e+00   1.014245377600000e+01  2.53311574e+00  -5.84196360e-01   1.16117590e-01
C     4.809996663825000e+00   5.551185800484925e+00   1.021772188800000e+01  1.53210910e-01  -1.67738252e+00  -5.58021350e-01
C     4.912886589599999e+00   4.377845515181939e+00   6.821762855999999e+00  1.11826910e+00   1.03692522e+00  -1.44426850e-01
C     6.164339555550000e+00   5.085574543628780e+00   6.865658216000000e+00 -6.99427200e-02   2.37062968e+00  -5.29754950e-01
C     6.048891514725000e+00   4.808835097876610e+00   1.020214444800000e+01  3.47700660e-01   1.20149369e+00  -3.56129900e-02
C     7.317405078449999e+00   5.540151584405038e+00   1.016004374400000e+01 -1.64838510e+00  -6.97759020e-01   1.20289580e-01
C     7.425076315424999e+00   4.467765330218791e+00   6.808109271999999e+00 -1.05683228e+00  -3.15890259e+00  -4.34169800e-02
C     8.673683796300001e+00   5.079766650260703e+00   6.869686128000001e+00 -3.81539030e-01   1.72087545e+00  -1.64450600e-01
C     8.536488465525000e+00   4.850316500717088e+00   1.017120689600000e+01  2.55813490e-01  -8.30820110e-01  -1.20645900e-01
C     9.763761741149999e+00   5.568429969241340e+00   1.020334492000000e+01 -7.44956340e-01  -4.05219070e-01  -5.58114300e-02
