72
Lattice="7.395 0 0 3.6975 6.40425786098592 0 0 0 13.6 " PBC="1 1 1" Properties=species:S:1:pos:R:3:force:R:3 Energy="-569.76421734"
C     3.778867887525000e+00   6.351542940575032e+00   1.341808871200000e+01 -1.66573633e+00   2.56281681e+00   6.73936150e-01
C     1.271619204900000e+00   7.552313302718184e-01   1.349189373600000e+01 -1.57205300e-02  -1.35835579e+00  -4.57463420e-01
C     1.357462583400000e+00   7.069888243233816e-01   3.466364056000000e+00 -5.13035675e+00   2.93035230e+00  -8.69416080e-01
C     2.459648028975000e+00   1.548020110550714e+00   3.454227008000000e+00 -4.58938140e-01   3.63016620e-01  -8.92066570e-01
C     2.514602492475000e+00   2.433227327070540e-02   1.350692962400000e+01 -3.43569915e+00  -2.57824567e+00   3.91754850e-01
C     3.669681895725000e+00   6.766549929269131e-01   1.336426916000000e+01  4.00558509e+00   3.49775416e+00   3.78949190e-01
C     3.582173052299999e+00   7.318587350414341e-01   3.423014328000000e+00  5.13936988e+00   5.55588970e-01   5.22693570e-01
C     4.948182406950000e+00   1.407553409502240e+00   3.486245216000000e+00 -3.23138908e+00  -9.59227000e-02  -1.90683060e-01
C     8.630280692549999e+00   6.386808306694015e+00   1.349971224000000e+01 -7.69927880e-01  -4.88963710e-01  -5.18689270e-01
C     6.220319816475000e+00   7.076980958813767e-01   1.356373179200000e+01 -7.43363270e-01  -6.26399631e+00  -1.06258873e+00
C     6.156443951025000e+00   7.202103506327731e-01   3.487053328000000e+00 -1.45438878e+00   3.15932000e-01   6.89536800e-02
C     7.331423521125000e+00   1.356212971899186e+00   3.386346280000000e+00  6.54815576e+00   4.97330966e+00   2.03345980e-01
C     8.627649329699999e+00   2.195026207459285e+00   1.346844896800000e+01  7.02200720e-01  -2.44050775e+00  -5.78791300e-02
C     2.440771256175000e+00   2.925999681936732e+00   1.337468839200000e+01  2.00393294e+00  -3.56433473e+00  -6.70665940e-01
C     2.410806975000000e+00   3.062248026417981e+00   3.363410424000000e+00  8.22482270e+00  -7.97416004e+00   1.14899849e+00
C     3.757202497200000e+00   3.553013350913426e+00   3.553989128000000e+00 -2.74553404e+00   4.40778012e+00  -1.10899277e+00
C     3.696913317675000e+00   2.190842113671612e+00   1.325350436800000e+01 -3.97418580e-01  -1.94087477e+00   2.93631449e+00
C     4.908718471799999e+00   2.851647849246596e+00   7.831940799999999e-02  4.96911400e-01  -3.83098966e+00  -1.78873743e+00
C     4.954443309749999e+00   2.815448037863261e+00   3.561606488000000e+00 -3.02046726e+00  -1.64733551e+00  -1.69441220e-01
C     6.078999258900000e+00   3.536847979393529e+00   3.555661112000000e+00  7.07824309e+00  -9.54353000e-03  -1.37007027e+00
C     6.214684937399999e+00   2.007192910809887e+00   9.607040000000000e-02 -2.80127743e+00   5.79907991e+00   1.96764000e-03
C     7.378481307825000e+00   2.755594676457223e+00   1.358480580800000e+01 -4.78621590e-01   1.40311826e+00   5.44715610e-01
C     7.409715421425000e+00   2.887116742680370e+00   3.344597680000000e+00 -2.36824224e+00  -2.92978423e+00   8.19975790e-01
C     8.658686588400000e+00   3.632078909516258e+00   3.305915472000000e+00 -5.96137234e+00   1.51583730e+00   1.10948328e+00
C     2.521158566700000e+00   4.271072959629076e+00   1.336184210400000e+01 -6.25301186e+00   1.80500972e+00   2.17971910e-01
C     3.682172901150000e+00   4.936072523463682e+00   1.333712872800000e+01  3.26750029e+00   1.65331374e+00   1.55399269e+00
C     3.793885431675000e+00   5.072418084579246e+00   3.501375760000000e+00 -1.11325324e+00  -1.89715773e+00   4.03446230e-01
C     5.061109381350000e+00   5.748028030708563e+00   3.425143815999999e+00 -2.06180054e+00  -2.50044123e+00   7.15928590e-01
C     4.871973012600000e+00   4.216044373967026e+00   6.108535200000000e-02  1.55837879e+00   2.76292103e+00  -7.36749850e-01
C     6.123355504199999e+00   4.968822745393306e+00   9.928149600000000e-02 -2.87002840e-01  -4.59326550e-01  -5.80929770e-01
C     6.204535078050000e+00   4.913614456255705e+00   3.465596200000000e+00 -2.06411031e+00   2.26744508e+00  -8.25123000e-03
C     7.337829883574999e+00   5.684300989893326e+00   3.443323480000000e+00  3.51584904e+00   2.88300980e-01   8.70697230e-01
C     7.275076579125000e+00   4.149368172407258e+00   3.008469600000000e-02  3.00279502e+00   4.33668676e+00  -8.07927560e-01
C     8.544144213225000e+00   4.962370007301307e+00   1.343908140000000e+01  1.85959976e+00  -8.82466270e-01   9.54122410e-01
C     8.658304155974999e+00   4.979270459538375e+00   3.586994559999999e+00 -9.68278000e-01   4.48853200e+00  -1.69607324e+00
C     9.897355522049999e+00   5.768459790729636e+00   3.573434272000000e+00  7.90729700e-02  -5.05908761e+00  -2.09229030e-01
C     3.979726477499999e-02   3.752927127249300e-02   7.060664128000000e+00 -2.28140340e-01  -2.77735614e+00  -1.86246200e-01
C     1.210009980900000e+00   7.243547380217148e-01   6.921120647999999e+00  3.07544467e+00   1.15495632e+00  -9.72243600e-01
C     1.088930129925000e+00   6.460325216286942e-01   1.020608600000000e+01  1.19588589e+01  -2.12906145e+00   9.19054200e-02
C     2.480115133500000e+00   1.419464560610897e+00   1.013482716800000e+01 -1.35782925e+00  -2.65004085e+00   1.33432445e+00
C     2.495223414300000e+00   3.043124015851920e-02   6.646755336000000e+00 -1.45465771e+00  -8.60826300e-02   1.15735419e+00
C     3.830688830700000e+00   6.532731115226316e-01   6.508463192000000e+00 -2.31956485e+00  -2.20245880e-01   1.56754947e+00
C     3.738514038075000e+00   6.712463409938286e-01   1.039140844000000e+01 -5.42273756e+00  -9.72787980e-01  -1.30643158e+00
C     4.875369979799999e+00   1.398083177234344e+00   1.028221159200000e+01  3.56336660e+00  -6.76087290e-01   5.32258510e-01
C     5.024217242324999e+00   1.368397776946200e-03   6.864968832000000e+00  1.49519732e+00  -7.79629200e-02   1.61577240e-01
C     6.301837415775000e+00   8.180589571131978e-01   7.085599864000000e+00 -5.38339178e+00  -2.59944351e+00  -2.00760103e+00
C     6.145656198974999e+00   7.353209408831286e-01   1.030846462400000e+01  7.78766020e-01   2.71519800e-01  -5.75274920e-01
C     7.470646782749998e+00   1.349976697722853e+00   1.018767704000000e+01 -1.03740728e+01   8.09504239e+00  -5.93813650e-01
C     8.609833221750000e+00   2.151709344316132e+00   6.919443496000000e+00 -9.93114800e-02   1.99273615e+00  -1.96624390e+00
C     2.498296517475000e+00   2.772905257367646e+00   6.660997528000000e+00 -2.03497025e+00  -3.79005290e-01   1.19860626e+00
C     2.470403243025000e+00   2.827523202015712e+00   1.008379956000000e+01 -1.24173483e+00  -1.74929284e+00   4.33530810e-01
C     3.678430217700000e+00   3.435614722634095e+00   1.005464972800000e+01  2.18780553e+00   4.67870950e+00   3.46282820e-01
C     3.744586923000000e+00   2.046524148116448e+00   6.504493896000000e+00  1.57966220e-01   2.65546461e+00   1.28332759e+00
C     4.929170860275000e+00   2.816337781407751e+00   6.704146112000000e+00 -2.67437067e+00   1.85693901e+00   4.31844400e-02
C     4.919763311025000e+00   2.756978636580769e+00   1.016179188800000e+01 -1.05952611e+00   2.83101006e+00  -8.82999940e-01
C     6.132702525375000e+00   3.536722648067209e+00   1.011601687200000e+01  1.49926896e+00  -1.85400053e+00   4.02263040e-01
C     6.118797595950000e+00   2.168174819359349e+00   6.817895832000000e+00  4.62532167e+00   2.90689676e+00   7.59557130e-01
C     7.377652180425001e+00   3.079472982400815e+00   6.806966328000000e+00  3.11490900e-02  -9.77544969e+00   9.97307480e-01
C     7.432186164225000e+00   2.916560702447192e+00   1.006829311200000e+01  1.03608000e-02  -3.02833059e+00   1.51725779e+00
C     8.671506893175000e+00   3.605027260273039e+00   1.023170160000000e+01 -1.60705850e+00  -1.80292395e+00  -1.01361220e+00
C     9.773003420549999e+00   4.171526840560279e+00   6.884962328000000e+00  5.98589850e+00   3.25493170e-01  -6.14646620e-01
C     3.668720989425000e+00   4.939016624844503e+00   6.940096048000000e+00 -4.85644247e+00   3.40340160e+00   5.37379910e-01
C     3.672618672075000e+00   4.968994955887163e+00   1.004852143200000e+01 -1.89966424e+00  -1.35010755e+00   1.54061757e+00
C     4.847040104550000e+00   5.659715876522308e+00   1.023886784800000e+01  2.01249049e+00  -1.85818788e+00  -6.67526920e-01
C     4.814880358800000e+00   4.327825827677352e+00   6.887406520000001e+00  5.68983755e+00  -4.16743441e+00  -1.24775934e+00
C     6.055397635725000e+00   5.059527978614110e+00   6.805673239999999e+00  2.93013076e+00  -4.08444020e-01  -7.88492140e-01
C     6.150343519724999e+00   4.905995118551927e+00   1.027354567200000e+01 -2.41521763e+00   2.33797122e+00   1.61573440e-01
C     7.347552866550000e+00   5.589549802726890e+00   1.047324508000000e+01  1.63409723e+00   2.66452552e+00  -8.09864590e-01
C     7.404100841625000e+00   4.386073257382417e+00   6.737944696000000e+00 -3.03806685e+00   1.70554168e+00   5.72121420e-01
C     8.672017887675000e+00   4.929094892397476e+00   6.891009840000000e+00 -2.00415749e+00   4.54552012e+00  -3.22484660e-01
C     8.629566113699999e+00   4.978251734240585e+00   1.042524741600000e+01 -8.53304710e-01   7.52924850e-01  -9.93080890e-01
C     9.791743718625000e+00   5.774491640995077e+00   1.025177180000000e+01  2.60012773e+00  -3.58520719e+00  -1.00216000e-02
