72
Lattice="7.395 0 0 3.6975 6.40425786098592 0 0 0 13.6 " PBC="1 1 1" Properties=species:S:1:pos:R:3:force:R:3 Energy="-581.98450362"
C     3.687562968750000e+00   6.363897714625652e+00   1.336922010400000e+01  1.05772898e+00  -9.72380690e-01   4.58530110e-01
C     1.273618628025000e+00   6.592707630511002e-01   1.339182248800000e+01 -1.59704287e+00   2.75150230e-01   2.22053060e-01
C     1.277347630725000e+00   8.049799255411914e-01   3.555775896000000e+00  1.24840840e-01  -4.29088030e-01  -1.21081830e-01
C     2.476101386325000e+00   1.546904104576030e+00   3.539666832000000e+00  1.38118046e+00  -1.70667199e+00  -1.18773540e-01
C     6.220477810650000e+00   6.350083858506789e+00   1.341805960800000e+01 -3.23718959e+00   8.06346880e-01  -2.57383260e-01
C     3.700626975750000e+00   6.556648456630273e-01   1.336326004000000e+01 -6.48327320e-01   1.23638117e+00   9.14040750e-01
C     3.721433991450000e+00   8.119323238314288e-01   3.514262304000000e+00 -8.00413640e-01  -1.54444694e+00   1.96428500e-01
C     4.974400381125000e+00   1.471824940320735e+00   3.500751384000000e+00 -1.31675784e+00   3.47055130e-01   5.05151550e-01
C     8.569993065975000e+00   6.358482338221814e+00   1.342739655200000e+01  2.80946769e+00  -4.23535110e-01  -1.33676330e-01
C     6.133744111124999e+00   6.127452386349295e-01   1.340791931200000e+01  7.51736870e-01   1.55103014e+00   1.43590500e-02
C     6.176328440475000e+00   7.626938917431835e-01   3.539141464000000e+00  1.49304777e+00   2.24698730e-01   1.85291080e-01
C     7.422925516650000e+00   1.470708742218316e+00   3.554125400000000e+00 -1.92247540e-01   5.64088930e-01  -2.11621280e-01
C     1.221941850375000e+00   2.084981652523170e+00   1.340822721600000e+01  5.17082170e-01   4.40933100e-01  -3.41941820e-01
C     2.473487697525000e+00   2.821677651611419e+00   1.338757235200000e+01 -1.28361735e+00  -4.08534590e-01   5.43306040e-01
C     2.494379459925000e+00   2.937216227237893e+00   3.530696272000000e+00 -4.34022920e-01   1.28834560e+00  -1.26652300e-01
C     3.696514394400000e+00   3.653297752828324e+00   3.510890456000000e+00  2.66296395e+00  -4.31398950e-01   5.50586240e-01
C     3.677394437025000e+00   2.072083221022815e+00   1.342907316000000e+01  8.55560440e-01   1.16253499e+00  -8.91567560e-01
C     4.928505643050000e+00   2.772628145130044e+00   1.336938017600000e+01 -3.30924000e-01   8.45732920e-01   7.77458140e-01
C     4.945094735625000e+00   2.870587225058553e+00   3.582369472000000e+00  3.62584520e-01   2.36521225e+00  -9.99894950e-01
C     6.200043022275000e+00   3.589298018713407e+00   3.555989279999999e+00 -9.22727980e-01   5.08036280e-01  -1.23120120e-01
C     6.161571828899999e+00   2.041053374882122e+00   1.339811031200000e+01 -8.39987230e-01   7.10062990e-01  -2.51120470e-01
C     7.360078184774999e+00   2.782193480627161e+00   1.336007968000000e+01  1.08022422e+00   9.29439950e-01   3.26326560e-01
C     7.433679029850000e+00   2.898762053045259e+00   3.526618584000000e+00  5.21844690e-01   6.91543230e-01   2.65651090e-01
C     8.685025803600000e+00   3.668535019299151e+00   3.536351424000000e+00 -1.71037090e+00  -1.45334751e+00  -2.23947190e-01
C     9.844955476425000e+00   4.255086459031208e+00   1.340247686400000e+01 -2.53796080e-01  -1.08895872e+00   9.89146500e-02
C     3.686918938200000e+00   4.919282096376648e+00   1.337676484000000e+01 -3.36928400e-02   1.35170789e+00   2.65479560e-01
C     3.756812078175000e+00   5.091265046950283e+00   3.535645584000000e+00  2.91727800e-02  -1.09963986e+00   1.12310970e-01
C     5.032506815475000e+00   5.790985422858036e+00   3.533479648000000e+00 -2.78370204e+00  -5.01905700e-01   3.32901400e-02
C     4.910041770074999e+00   4.230052215056468e+00   1.340067472800000e+01  6.40627760e-01  -1.21375447e+00  -1.47620850e-01
C     6.144296628225000e+00   4.963733345714544e+00   1.341678270400000e+01  5.36079000e-02  -1.45064618e+00  -3.10785090e-01
C     6.197135456174999e+00   5.034086423839473e+00   3.528504224000000e+00  1.07145442e+00  -4.93560420e-01   2.56942030e-01
C     7.414527384900000e+00   5.753022199072949e+00   3.558042608000000e+00  6.96846500e-01   1.44580834e+00  -6.00153250e-01
C     7.357519699649999e+00   4.263341611455326e+00   1.335539706400000e+01  7.44052580e-01  -2.38022760e+00   7.97096690e-01
C     8.598250802999999e+00   4.964547006675657e+00   1.344041923200000e+01 -2.89443930e-01  -1.42311545e+00  -6.13815140e-01
C     8.676784482824999e+00   5.077621800260810e+00   3.537103775999999e+00 -1.08914058e+00  -8.98194000e-01   3.90440810e-01
C     9.895312949099999e+00   5.753602809090537e+00   3.590170160000000e+00  8.84195870e-01   1.11163806e+00  -8.01086430e-01
C     5.726196232500000e-02   3.673181308376580e-02   6.811527767999999e+00 -2.22913499e+00   5.90139660e-01   5.36594400e-02
C     1.247186494650000e+00   7.526764156411500e-01   6.840008208000000e+00  2.49610530e-01   1.20713946e+00  -1.95342700e-02
C     1.194714273825000e+00   6.199993415129514e-01   1.025208106400000e+01 -9.55976850e-01   7.72488500e-01  -5.33359440e-01
C     2.397298454550000e+00   1.345656129200183e+00   1.019700269600000e+01  1.39905949e+00  -2.35596790e-01  -9.58614500e-02
C     2.467450197675000e+00   6.719597112768541e-02   6.855906608000000e+00  1.50874271e+00  -1.36276670e-01  -6.76594200e-02
C     3.753493645875000e+00   7.328896284291583e-01   6.844223936000001e+00 -5.87053330e-01  -6.54487600e-02   3.66319770e-01
C     3.642978587700000e+00   6.415515264466308e-01   1.014084244800000e+01  4.67975930e-01  -8.29598200e-01   1.14920620e+00
C     4.887743700524999e+00   1.361637762562077e+00   1.024929265600000e+01 -5.95815510e-01  -9.34066470e-01  -1.06825028e+00
C     5.005369864650000e+00   5.029250888942281e-02   6.897577824000000e+00 -1.25495225e+00  -5.69049480e-01  -7.83776290e-01
C     6.210777530324999e+00   7.888509302059387e-01   6.827799896000000e+00  5.42850550e-01  -4.77373440e-01   3.60934990e-01
C     6.143783563125000e+00   6.505202412815106e-01   1.020715074400000e+01 -1.04982006e+00   2.21719150e-01   3.24829490e-01
C     7.363516379100000e+00   1.362607175074345e+00   1.023506392800000e+01  6.57189090e-01   4.91937200e-02  -2.36510000e-03
C     8.619818357474999e+00   2.195231976264327e+00   6.845367423999999e+00  8.19876710e-01  -1.14085992e+00   1.23659690e-01
C     2.479497429150000e+00   2.839049137014090e+00   6.889718792000000e+00  4.84449370e-01   1.05549070e+00  -8.77361970e-01
C     2.432513592450000e+00   2.752313839198123e+00   1.020870495200000e+01 -5.97300310e-01   1.46294854e+00   6.92954700e-02
C     3.668176976249999e+00   3.468135672132331e+00   1.023970764800000e+01 -1.68333657e+00   1.14514617e+00  -4.01028440e-01
C     3.742965347400000e+00   2.136523055737871e+00   6.842072280000000e+00 -1.79355660e+00   3.08009630e-01   3.70803910e-01
C     4.916618032650000e+00   2.867014097470723e+00   6.864316440000000e+00  2.15614302e+00   1.62354155e+00  -1.96320300e-02
C     4.852100835825000e+00   2.775781409572572e+00   1.022662213600000e+01  2.71413542e+00  -4.31811550e-01   2.00810820e-01
C     6.113030974950000e+00   3.496500514449743e+00   1.021591390400000e+01  1.19189560e-01  -1.17217338e+00   2.11646300e-01
C     6.194231217825000e+00   2.223796247171499e+00   6.848216352000000e+00 -7.98967840e-01  -1.61982653e+00  -2.23831670e-01
C     7.415849426024999e+00   2.917456786206963e+00   6.814583280000000e+00 -5.50319510e-01   9.42182070e-01   3.23212030e-01
C     7.391458608450000e+00   2.805206989119335e+00   1.023373004000000e+01 -2.01992076e+00  -9.41906280e-01  -2.93574710e-01
C     8.594731781324999e+00   3.513490177998801e+00   1.020576830400000e+01  6.13258240e-01  -1.12927956e+00   2.54182420e-01
C     2.474877550800000e+00   4.263889175502356e+00   6.809547064000000e+00 -3.08362960e-01   1.14251426e+00   6.05883560e-01
C     3.691141076475000e+00   5.031981088110577e+00   6.809693128000000e+00  9.04583270e-01  -1.48577865e+00   3.15364800e-01
C     3.670798984425000e+00   4.916156882583547e+00   1.022458404000000e+01 -1.44312631e+00  -6.03758200e-01  -1.05629910e-01
C     4.887483026775000e+00   5.611965665875569e+00   1.022350080000000e+01 -3.49917800e-01   3.15319790e-01   1.46909610e-01
C     4.934307907950000e+00   4.305548488626186e+00   6.877209647999999e+00 -5.43025170e-01   6.84185180e-01  -4.30601810e-01
C     6.158624699550000e+00   5.070319089065631e+00   6.860023328000000e+00 -3.31328260e-01  -1.77447299e+00   1.02776490e-01
C     6.094762810650000e+00   4.892023781732288e+00   1.022971056000000e+01  6.96736560e-01   9.41150700e-02  -2.80310990e-01
C     7.329594700650000e+00   5.576808659799577e+00   1.020826159200000e+01 -4.17003890e-01   2.65099151e+00  -3.34223460e-01
C     7.389353030100000e+00   4.353667264312766e+00   6.839499023999999e+00  4.41154140e-01  -5.62770570e-01   8.90933100e-02
C     8.632940304300000e+00   5.014214844253416e+00   6.853217888000000e+00  1.30229601e+00   2.99196200e-01  -6.34976100e-02
C     8.541377373974999e+00   4.915112348126581e+00   1.021703128000000e+01  2.66560988e+00   3.22349430e-01  -1.96525830e-01
C     9.817331601825000e+00   5.638099264754557e+00   1.020230071200000e+01 -1.91870450e-01  -6.31774610e-01   7.02456900e-02
