72
Lattice="7.395 0 0 3.6975 6.40425786098592 0 0 0 13.6 " PBC="1 1 1" Properties=species:S:1:pos:R:3:force:R:3 Energy="-582.15878417"
C     3.688655173274999e+00   6.366052427182648e+00   1.337104332000000e+01  9.97859000e-01  -1.09408325e+00   3.82576800e-01
C     1.267729989525000e+00   6.591887885504922e-01   1.338881076800000e+01 -1.39620793e+00   3.45726900e-01   2.48888580e-01
C     1.277005168275000e+00   8.026729837748623e-01   3.551025824000000e+00  1.43087800e-01  -3.26170600e-01  -9.08135500e-02
C     2.477030900850000e+00   1.542415552369692e+00   3.535460760000000e+00  1.37754755e+00  -1.46732007e+00  -1.24554350e-01
C     6.212970517575000e+00   6.353056907133136e+00   1.341767200800000e+01 -2.81633233e+00   5.65281840e-01  -2.68271280e-01
C     3.699385983825000e+00   6.580754723641098e-01   1.336237944000000e+01 -5.84021050e-01   1.05406954e+00   9.12251130e-01
C     3.721016543699999e+00   8.107110318575269e-01   3.513711639999999e+00 -8.40445950e-01  -1.62478627e+00   2.14696380e-01
C     4.970046685799999e+00   1.472294948805080e+00   3.506411840000000e+00 -1.04890395e+00   3.35871320e-01   4.22751150e-01
C     8.573858987099999e+00   6.355437689992591e+00   1.342679597600000e+01  2.58675063e+00  -4.98541700e-02  -1.74533040e-01
C     6.139513357349999e+00   6.184289534431009e-01   1.340757808800000e+01  3.96133280e-01   1.26433333e+00   5.82032000e-02
C     6.176429419200000e+00   7.677498611959177e-01   3.541006295999999e+00  1.52768337e+00  -1.70067800e-01   1.93769340e-01
C     7.426636179749999e+00   1.476084860521471e+00   3.551020384000000e+00 -5.03357290e-01   1.02259160e-01  -1.96267610e-01
C     1.221059626875000e+00   2.086186805767264e+00   1.340392961600000e+01  6.55337410e-01   3.28943640e-01  -3.02960620e-01
C     2.476387572825000e+00   2.819145920394204e+00   1.338062084800000e+01 -1.54807407e+00  -1.61282150e-01   5.33275300e-01
C     2.498029040325000e+00   2.938466978797951e+00   3.526569896000000e+00 -7.26935890e-01   1.11420299e+00  -8.65328300e-02
C     3.698386956300000e+00   3.655397068554832e+00   3.515936736000000e+00  2.63538828e+00  -6.66780570e-01   4.55414850e-01
C     3.677670455399999e+00   2.078647777457051e+00   1.342283334400000e+01  8.57480890e-01   7.48787070e-01  -8.08221560e-01
C     4.925512184025000e+00   2.774297543026410e+00   1.337473993600000e+01 -1.04057570e-01   8.62196340e-01   7.27594870e-01
C     4.945178225175000e+00   2.869600713177799e+00   3.579769424000000e+00  4.07914460e-01   2.54962268e+00  -8.87167460e-01
C     6.203877477674999e+00   3.592024055114095e+00   3.556323432000000e+00 -1.28707719e+00   2.65802600e-01  -1.39421950e-01
C     6.159080601300000e+00   2.042181548946739e+00   1.340530512000000e+01 -6.23970560e-01   8.43473490e-01  -2.75112400e-01
C     7.364821078949999e+00   2.781321412834365e+00   1.336754757600000e+01  7.21830340e-01   1.01720360e+00   3.10471450e-01
C     7.426528471575000e+00   2.892416522229835e+00   3.524182416000000e+00  1.00389089e+00   1.16271920e+00   2.46545700e-01
C     8.681666255100000e+00   3.666754635614070e+00   3.532360504000000e+00 -1.56286673e+00  -1.43749872e+00  -1.93759360e-01
C     9.841473947399999e+00   4.255268916337640e+00   1.339595620800000e+01  6.68871200e-02  -1.16836675e+00   8.81722400e-02
C     3.687652078500000e+00   4.919445533037235e+00   1.337272808800000e+01 -7.34131500e-02   1.34195318e+00   3.24706550e-01
C     3.754317300975000e+00   5.086856227754302e+00   3.538674848000000e+00  1.06107490e-01  -9.11465380e-01   1.16846730e-01
C     5.026549921125000e+00   5.790339873665748e+00   3.535795456000000e+00 -2.44630747e+00  -6.44693740e-01   1.97361000e-03
C     4.913467060124999e+00   4.229225425366742e+00   1.340590365600000e+01  4.20816040e-01  -1.18197701e+00  -1.87084680e-01
C     6.147775088325000e+00   4.957666720328922e+00   1.342139242400000e+01 -1.90842820e-01  -9.18225410e-01  -2.53026160e-01
C     6.198110228099999e+00   5.032265245031825e+00   3.529770928000000e+00  9.79238830e-01  -2.56372760e-01   2.41805170e-01
C     7.418226068099999e+00   5.751186610685116e+00   3.556272568000000e+00  3.98111150e-01   1.57542072e+00  -5.59437750e-01
C     7.355987048925000e+00   4.263693781595048e+00   1.336610284800000e+01  1.03240631e+00  -2.50826887e+00   6.78401870e-01
C     8.600063206574999e+00   4.963492673704165e+00   1.343439946400000e+01 -4.30002270e-01  -1.36157593e+00  -5.04363280e-01
C     8.675718937274999e+00   5.080445693721598e+00   3.538520080000000e+00 -1.03255317e+00  -1.28725690e+00   3.40116010e-01
C     9.895628197950000e+00   5.747197654634436e+00   3.590787056000000e+00  8.62457210e-01   1.67166320e+00  -7.71188800e-01
C     5.636646479999999e-02   3.664695666712080e-02   6.823700176000000e+00 -2.26077176e+00   5.26130890e-01   8.73776000e-03
C     1.244853963750000e+00   7.547490896549605e-01   6.841129392000000e+00  5.04948760e-01   9.66522910e-01  -9.54595000e-03
C     1.194435260475000e+00   6.242029682870982e-01   1.024913666400000e+01 -8.62160090e-01   5.21541110e-01  -4.86537870e-01
C     2.404542929325000e+00   1.348624054420243e+00   1.019774838400000e+01  8.97447560e-01  -3.81766570e-01  -9.75030500e-02
C     2.471278404300000e+00   6.107382082641841e-02   6.850014544000000e+00  1.16789137e+00   3.50353810e-01  -5.92872700e-02
C     3.753036376049999e+00   7.310215704539749e-01   6.834828648000000e+00 -5.79889580e-01   1.52855940e-01   3.80285480e-01
C     3.639385172325000e+00   6.442080766495374e-01   1.015157488800000e+01  8.54986100e-01  -9.90789980e-01   1.05334289e+00
C     4.888871844749999e+00   1.360388483981327e+00   1.025026696000000e+01 -7.40475090e-01  -8.56612710e-01  -1.01446308e+00
C     5.003570328375000e+00   5.071000245931621e-02   6.895005520000000e+00 -1.30809206e+00  -6.40638490e-01  -7.31978800e-01
C     6.206515274174999e+00   7.842558751913887e-01   6.837171248000000e+00  7.75376960e-01  -2.16415600e-01   2.90332540e-01
C     6.141972860400000e+00   6.479952345350485e-01   1.021196963200000e+01 -8.89959540e-01   4.40815470e-01   2.98338360e-01
C     7.363923917549999e+00   1.362237265140352e+00   1.023458534400000e+01  6.15200530e-01   6.86966100e-02  -3.33588300e-02
C     8.621937283799999e+00   2.195776017969534e+00   6.845370143999999e+00  5.87341080e-01  -1.18335861e+00   7.62030300e-02
C     2.476096505625000e+00   2.838455526353047e+00   6.879093928000000e+00  7.63171290e-01   1.20331337e+00  -7.56315230e-01
C     2.433353109825000e+00   2.749685339644643e+00   1.020274271200000e+01 -6.33847690e-01   1.80238900e+00   1.09612420e-01
C     3.668991424575000e+00   3.470956171336454e+00   1.023301984800000e+01 -1.73844195e+00   9.57092820e-01  -3.83360350e-01
C     3.744364296525000e+00   2.141516007293263e+00   6.831874456000000e+00 -2.02008866e+00  -1.39132520e-01   3.65500660e-01
C     4.916957906850000e+00   2.863018352906712e+00   6.857859159999999e+00  2.24606756e+00   2.01382506e+00   1.91473800e-02
C     4.851926535675000e+00   2.774686153393354e+00   1.022270030400000e+01  2.80650707e+00  -3.36960980e-01   2.16055690e-01
C     6.117293785725000e+00   3.495734757337423e+00   1.021639180800000e+01 -1.10450000e-01  -1.00744877e+00   1.73921230e-01
C     6.193533240749999e+00   2.222791483155844e+00   6.849000663999999e+00 -7.61830590e-01  -1.72151425e+00  -2.04580930e-01
C     7.415464849050000e+00   2.918932007005014e+00   6.816597712000000e+00 -5.09639300e-01   7.06167890e-01   3.15528120e-01
C     7.390754012850000e+00   2.806106787348665e+00   1.023000146400000e+01 -2.08612983e+00  -1.05739616e+00  -2.25292750e-01
C     8.588587497675000e+00   3.513161383400269e+00   1.020621452000000e+01  1.05590007e+00  -1.08851064e+00   2.06648430e-01
C     2.476589382374999e+00   4.265699467071642e+00   6.814529424000000e+00 -4.57730810e-01   1.02595629e+00   5.27336880e-01
C     3.691189254900000e+00   5.028528872911144e+00   6.816249416000000e+00  9.62392810e-01  -1.23535320e+00   3.04219800e-01
C     3.670679666100000e+00   4.916860006053996e+00   1.022072177600000e+01 -1.49732322e+00  -6.08231200e-01  -6.15049700e-02
C     4.883549663249999e+00   5.608834688250393e+00   1.022455670400000e+01 -2.75550600e-02   6.69816150e-01   1.08407170e-01
C     4.934318113049999e+00   4.309289599897682e+00   6.875685088000000e+00 -5.44879280e-01   3.58974220e-01  -4.20839000e-01
C     6.156094759125000e+00   5.071270441570734e+00   6.857190720000000e+00 -7.78061100e-02  -2.06502526e+00   1.01415020e-01
C     6.098218198350001e+00   4.895255626418758e+00   1.023170336800000e+01  5.04307820e-01  -1.55386290e-01  -2.44564560e-01
C     7.330757564400000e+00   5.577985762394245e+00   1.021875548800000e+01 -3.49486750e-01   2.70512233e+00  -3.64236800e-01
C     7.391377965974999e+00   4.348279298132570e+00   6.838209335999999e+00  3.41788640e-01  -1.90489280e-01   9.41161000e-02
C     8.634730005225000e+00   5.016453836843850e+00   6.854197224000000e+00  1.18728068e+00   1.01127280e-01  -5.39336600e-02
C     8.544908634374998e+00   4.915805032656718e+00   1.022370344000000e+01  2.45655756e+00   3.41824710e-01  -2.11700530e-01
C     9.818627871375000e+00   5.642134331461828e+00   1.020716121600000e+01 -2.29453540e-01  -9.13056330e-01   4.95710700e-02
