72
Lattice="7.395 0 0 3.6975 6.40425786098592 0 0 0 13.6 " PBC="1 1 1" Properties=species:S:1:pos:R:3:force:R:3 Energy="-578.77944937"
C     2.845584907500000e-02   2.622895827852300e-02   1.353697814400000e+01 -1.22570800e-02  -1.75929063e+00   1.37186010e-01
C     1.309222595025000e+00   6.755626827063115e-01   1.358397117600000e+01 -2.30361569e+00   1.87093518e+00  -6.08520940e-01
C     1.217317793850000e+00   7.800706286373000e-01   3.443333816000000e+00  2.43277659e+00  -2.61753784e+00  -7.38479410e-01
C     2.466193861125000e+00   1.465035274222720e+00   3.431890775999999e+00 -4.46702100e-02  -1.71674650e-01  -4.61388700e-01
C     6.213063879449999e+00   6.386952658666180e+00   1.356493675200000e+01 -6.99006600e-01   1.26970575e+00   1.56437420e-01
C     3.737568661275000e+00   7.402435096446390e-01   1.353830740800000e+01 -2.29994189e+00  -1.87258504e+00  -4.58616190e-01
C     3.682420633650000e+00   7.253935086466069e-01   3.402340152000000e+00 -1.25028178e+00  -2.41225870e-01   1.48172560e-01
C     4.885919132174999e+00   1.382724550077070e+00   3.434354552000000e+00  2.01908202e+00   1.25619874e+00  -2.36207990e-01
C     8.582843135625000e+00   6.381070027608877e+00   1.357370467200000e+01  1.65661535e+00   6.27039940e-01  -1.67630930e-01
C     6.121506421424999e+00   5.850724404218693e-01   1.359960600800000e+01  2.21093845e+00   4.98785746e+00  -3.45182530e-01
C     6.164001567074999e+00   6.692115801865495e-01   3.436303160000000e+00  9.69543500e-02   1.41632156e+00  -3.07167810e-01
C     7.417367434650000e+00   1.435750972604348e+00   3.385312000000000e+00 -2.14846648e+00  -1.72139375e+00   3.85611130e-01
C     1.275575973600000e+00   2.101101361684525e+00   1.353692156800000e+01 -1.48784921e+00   2.06979535e+00   7.32902640e-01
C     2.492652986250000e+00   2.841344807286586e+00   1.356832369600000e+01 -1.51256992e+00   1.29767743e+00  -1.33186341e+00
C     2.493790337250000e+00   2.866219585240612e+00   3.373516448000000e+00 -2.37326149e+00   2.31294501e+00   4.44111120e-01
C     3.678530272050000e+00   3.634786629739466e+00   3.478251680000000e+00  1.69296698e+00  -3.18981694e+00  -9.63014670e-01
C     3.713288953575000e+00   2.112917153393647e+00   1.341832712000000e+01 -6.19998010e-01   1.52028461e+00   2.35450586e+00
C     4.920782157150000e+00   2.773508090160008e+00   7.248228800000001e-02  1.83868210e-01   3.01087791e+00  -1.55905153e+00
C     4.857749654475000e+00   2.814522686645069e+00   3.427840968000000e+00  3.05142848e+00   1.01134044e+00   8.40425690e-01
C     6.196678445175000e+00   3.461520393975845e+00   3.473814680000000e+00 -2.80679432e+00   3.07945136e+00  -7.69509100e-01
C     6.110811365700000e+00   2.068333976343836e+00   2.038667200000000e-02  2.59983538e+00   3.81461510e-01   3.56282940e-01
C     7.363071458925000e+00   2.889610432605897e+00   1.358931624800000e+01  9.87812980e-01  -2.54924975e+00   1.72528750e-01
C     7.429705511474999e+00   2.811783329388033e+00   3.380828760000000e+00 -7.55058930e-01   2.01042443e+00  -9.27069000e-03
C     8.596756606274999e+00   3.614206867319249e+00   3.329778304000000e+00  1.86712387e+00  -1.39600431e+00   1.35478129e+00
C     9.789484989824999e+00   4.325865676474142e+00   1.352707027200000e+01  3.54423141e+00  -2.09173941e+00  -9.58722800e-02
C     3.713435004825000e+00   5.026422832713883e+00   1.348430888000000e+01 -9.72565840e-01  -2.17577587e+00   1.02808789e+00
C     3.747008748525000e+00   5.022204476146658e+00   3.430150112000000e+00 -5.62983520e-01  -2.93158880e-01   3.21290800e-02
C     4.965740059649999e+00   5.730325765387423e+00   3.385436984000000e+00  3.35416210e-01  -4.66687810e-01   7.40397810e-01
C     4.940224277700000e+00   4.259092002109745e+00   3.091048800000000e-02 -1.11068646e+00  -4.65011290e-01  -3.39920370e-01
C     6.147429372074999e+00   4.997082621924394e+00   3.042292800000000e-02  1.76241600e-01  -7.59560030e-01   5.55702800e-02
C     6.195263596800000e+00   4.950184689913663e+00   3.429287328000000e+00 -4.98762530e-01   1.83340690e-01  -3.07375480e-01
C     7.407884641275000e+00   5.736040476803637e+00   3.382886168000000e+00 -1.35931608e+00  -1.60333252e+00   1.02601460e+00
C     7.380339523425000e+00   4.342789696380135e+00   2.126659200000000e-02 -1.17077301e+00  -4.34234974e+00  -3.54779650e-01
C     8.576101742699999e+00   5.007822498313034e+00   1.353210322400000e+01  8.63813580e-01  -1.03695828e+00   5.56354430e-01
C     8.611405287825001e+00   5.044893480893066e+00   3.514525736000000e+00  9.84571760e-01  -2.65038407e+00  -1.84341855e+00
C     9.889729465275000e+00   5.647653648970734e+00   3.442249352000000e+00 -6.72263300e-01   3.08870621e+00   4.51675840e-01
C     3.714199795724999e+00   6.403554736529551e+00   6.868332384000000e+00 -1.99489640e-01   6.74569360e-01   5.28403780e-01
C     1.252028112075000e+00   7.532666960881063e-01   6.847743616000001e+00 -1.21702466e+00  -1.37855203e+00  -2.74280840e-01
C     1.274657810400000e+00   6.741734070487416e-01   1.019776715200000e+01 -3.84960544e+00   6.58011750e-01   1.63991190e-01
C     2.448286757700000e+00   1.366033453029445e+00   1.015643036000000e+01  7.04706720e-01   2.18717712e+00   7.23280860e-01
C     2.464741557075000e+00   5.124872863049940e-02   6.728163304000000e+00  5.08147490e-01  -1.41586498e+00   7.21105980e-01
C     3.744841384950000e+00   6.559258832134008e-01   6.695404712000000e+00 -9.52448000e-03   1.39353063e+00   3.35169090e-01
C     3.639071217600000e+00   6.781232971264752e-01   1.030508257600000e+01  2.99411304e+00   8.00059880e-01  -1.47654945e+00
C     4.929349819275000e+00   1.404119894735758e+00   1.018150100800000e+01 -8.75591600e-01   4.21249820e-01   1.52923500e+00
C     5.027040801225000e+00   6.426992975403000e-03   6.811042791999999e+00 -2.45038788e+00  -1.61424220e-01   3.30049080e-01
C     6.208244705850000e+00   7.662202682486352e-01   6.940251632000000e+00  3.82720610e-01  -6.16013030e-01  -1.63263403e+00
C     6.192398588925000e+00   7.282280972180214e-01   1.026229724800000e+01 -1.29164856e+00  -3.07976520e-01  -9.50200440e-01
C     7.378800106274999e+00   1.504977861984597e+00   1.020468220800000e+01  2.18952046e+00  -4.29189984e+00  -2.72780540e-01
C     8.607070782525000e+00   2.149854351026983e+00   6.873222400000000e+00  4.70379210e-01  -6.23376760e-01  -1.11419286e+00
C     2.455306276575000e+00   2.761242079123328e+00   6.720805024000000e+00  9.32187800e-01   2.24344595e+00   1.15182775e+00
C     2.469260345775000e+00   2.808080899834010e+00   1.016256668000000e+01  4.27852100e-02   1.32317994e+00   1.80742000e-03
C     3.689276131425000e+00   3.588556405653219e+00   1.014273067200000e+01 -2.13651040e-01  -2.92225231e+00   3.69098020e-01
C     3.695188470900000e+00   2.069625202813568e+00   6.695302712000000e+00  5.95361290e-01   1.05959167e+00   2.96507320e-01
C     4.902234239999999e+00   2.857823603186152e+00   6.778410680000000e+00  1.27982265e+00  -9.38912960e-01  -3.04919610e-01
C     4.923353139825000e+00   2.866646813282453e+00   1.021630871200000e+01  2.46067040e-01  -1.88731468e+00  -9.50996260e-01
C     6.170206193925001e+00   3.529878801947699e+00   1.017054607200000e+01 -7.66160860e-01   9.94523900e-01   9.81034300e-02
C     6.198333076425000e+00   2.203760654541646e+00   6.775632472000000e+00 -2.13091587e+00  -2.30195590e+00   1.01359604e+00
C     7.401344762099999e+00   2.858461083013536e+00   6.795236056000000e+00 -4.92279880e-01   3.06444487e+00   1.73778500e-01
C     7.414851914474999e+00   2.876652569592602e+00   1.012862570400000e+01 -3.24871830e-01  -7.86330600e-02   9.56300880e-01
C     8.656098597225000e+00   3.553534593460652e+00   1.023020519200000e+01 -3.48789180e-01   7.87249950e-01  -6.54163090e-01
C     2.476075762650000e+00   4.196332580614575e+00   6.849104160000000e+00 -1.81812276e+00   1.53477291e+00  -7.27816660e-01
C     3.652021748325000e+00   4.967700911543971e+00   6.835269832000001e+00  1.85185201e+00  -3.78849020e-01   2.73566660e-01
C     3.682778699550000e+00   4.966153194546945e+00   1.012734553600000e+01  5.26707200e-01   5.58434920e-01   7.71769460e-01
C     4.932824470950000e+00   5.645208055021736e+00   1.023478254400000e+01 -1.22583792e+00   1.55914233e+00  -7.62808330e-01
C     4.924220240550000e+00   4.249949155503652e+00   6.839645496000000e+00 -1.73472124e+00   1.82059878e+00  -3.28531180e-01
C     6.115825508475000e+00   5.035176556612403e+00   6.823923488000000e+00  2.03488060e-01  -1.07438330e+00  -7.12507820e-01
C     6.120727764900000e+00   4.943783762267750e+00   1.021406947200000e+01  1.55561528e+00   1.67362380e-01   2.93843490e-01
C     7.330577570100000e+00   5.695139107597540e+00   1.028246047200000e+01  1.57920983e+00  -1.49550858e+00   1.95497460e-01
C     7.324995195525000e+00   4.334570343757454e+00   6.760002128000000e+00  2.85501640e+00  -1.19278299e+00   6.67709660e-01
C     8.619378502875000e+00   5.002546862815702e+00   6.839697312000000e+00  9.40499560e-01  -1.69657319e+00  -3.52692790e-01
C     8.608204879724999e+00   4.998766301315787e+00   1.029615594400000e+01  7.98203720e-01  -6.80133770e-01  -8.03473910e-01
C     9.879363376124999e+00   5.663731794498578e+00   1.019780700000000e+01 -1.72248147e+00   2.18695005e+00   6.56463380e-01
