72
Lattice="7.395 0 0 3.6975 6.40425786098592 0 0 0 13.6 " PBC="1 1 1" Properties=species:S:1:pos:R:3:force:R:3 Energy="-577.74164221"
C     3.674722956300000e+00   6.222882616976626e+00   1.356475519200000e+01  8.84641210e-01  -1.29459313e+00  -3.05431370e-01
C     1.203436084725000e+00   5.186889774888822e-01   1.359222610400000e+01  4.65831380e-01  -1.93716181e+00   1.78692780e-01
C     1.399324938900000e+00   1.052354183898217e+00   3.577114975999999e+00  7.16231980e-01  -1.34088253e+00  -2.60432580e-01
C     2.658614977950000e+00   1.683198559713871e+00   3.597092832000000e+00 -9.79463810e-01   3.88259148e+00  -5.78766280e-01
C     6.104199311324999e+00   6.178184803711121e+00   3.154234400000000e-02  2.43857671e+00   1.80510298e+00  -6.87322340e-01
C     3.682448734649999e+00   5.374911740974776e-01   1.356760221600000e+01  1.27986860e-01  -1.23967594e+00   3.18247970e-01
C     3.867246419925000e+00   9.973843252807435e-01   3.593425048000000e+00  1.82373776e+00   3.28122027e+00   5.25628570e-01
C     5.122958277300000e+00   1.757979157467733e+00   3.685695744000000e+00 -4.85095450e-01  -2.09665850e-01  -1.29296657e+00
C     8.648447952074999e+00   6.168230537634165e+00   1.457770400000000e-02 -2.75393594e+00   6.26530570e-01  -9.93189170e-01
C     6.170212627574999e+00   4.524806069657875e-01   5.395147200000000e-02 -1.50503582e+00   3.20505967e+00  -6.00578400e-02
C     6.359475672674999e+00   1.025441507050561e+00   3.598728912000000e+00 -1.28895288e+00   3.42272200e-01   3.44209180e-01
C     7.573379749650000e+00   1.731586826571202e+00   3.535744456000000e+00  1.85723480e-01   2.20633508e+00   2.37180860e-01
C     1.268166590325000e+00   1.866138939315651e+00   2.057884000000000e-02 -3.24731044e+00   4.45640842e+00  -5.23675700e-02
C     2.462079541950000e+00   2.639922956309839e+00   1.353960117600000e+01 -7.07840290e-01  -1.04748888e+00  -2.68347330e-01
C     2.664466974225000e+00   3.188035784195863e+00   3.552729088000000e+00 -1.38438040e-01  -2.37743756e+00   4.25296620e-01
C     3.895328008050000e+00   3.880179346672028e+00   3.680697336000000e+00 -1.91547078e+00   3.50822470e-01  -1.08782025e+00
C     3.675236871825000e+00   1.990250382598678e+00   1.350769843200000e+01  1.34903767e+00  -2.87895849e+00   1.50889792e+00
C     4.884975604125000e+00   2.694345250880283e+00   1.539930720000000e-01  7.55370350e-01  -3.79380817e+00  -9.90633430e-01
C     5.116365006224999e+00   3.232090674014803e+00   3.634098024000000e+00 -1.20412256e+00  -5.18427351e+00   8.74763090e-01
C     6.309403720949999e+00   3.826609010524701e+00   3.659831944000000e+00  4.14927207e+00   4.98779890e+00  -9.25214710e-01
C     6.142312697625000e+00   1.930118628103466e+00   1.556800160000000e-01 -7.60348510e-01  -3.02178000e-01  -1.36801060e-01
C     7.334666931150000e+00   2.647643161074912e+00   1.072606160000000e-01  2.94035818e+00  -3.33965960e-01   1.90581570e-01
C     7.588228613849999e+00   3.195607474221162e+00   3.534372352000000e+00 -1.86044278e+00  -2.71358121e+00   1.74667370e-01
C     8.806893702749999e+00   3.892437736641855e+00   3.490579672000000e+00  6.91016550e-01  -1.73169709e+00   9.52078030e-01
C     2.472002079000000e+00   4.008104781681000e+00   1.347015821600000e+01 -2.04345020e+00   3.95628070e+00  -3.32228770e-01
C     3.678355676100000e+00   4.809779661868382e+00   1.345305376800000e+01 -2.79912550e-01  -2.52756397e+00   1.63644670e+00
C     3.854211290400000e+00   5.271379867984231e+00   3.619193376000000e+00  1.52005690e+00   2.18383499e+00   1.98524050e-01
C     5.105243369925000e+00   6.039817994772362e+00   3.601846168000000e+00 -4.08647080e-01  -1.34394376e+00   3.56098700e-02
C     4.872315401100000e+00   4.035252815005012e+00   1.436837280000000e-01  1.43390148e+00   4.55409747e+00  -1.38155570e+00
C     6.141449294399999e+00   4.790996357820474e+00   9.763304000000000e-02 -9.69319360e-01  -9.19023060e-01   9.47492150e-01
C     6.351145981649999e+00   5.343104353887300e+00   3.615945152000000e+00 -1.69731176e+00  -1.87393629e+00  -6.28468600e-02
C     7.551731330850000e+00   6.054235452194530e+00   3.575655152000000e+00  1.61975850e+00  -4.42171169e+00   6.07967590e-01
C     7.394221454399999e+00   4.126146909790106e+00   1.455240800000000e-01 -3.36137955e+00  -3.76515369e+00  -1.14966271e+00
C     8.547916513650000e+00   4.744713298606882e+00   1.346742692800000e+01  5.21496084e+00   1.52354866e+00   1.35775073e+00
C     8.785057192124999e+00   5.243264983851095e+00   3.650604616000000e+00  7.85022160e-01   4.72969665e+00  -1.09353478e+00
C     1.004770167712500e+01   5.998553568188181e+00   3.621158168000000e+00 -1.55683077e+00  -8.80374480e-01   1.59015780e-01
C     7.385062192275000e+00   1.879984624596078e-01   7.100677095999999e+00  1.60811600e-02   1.01008541e+00  -1.09150912e+00
C     1.223318281725000e+00   8.784303589375314e-01   6.948103184000000e+00  2.98585420e-01   2.18950758e+00  -3.40147380e-01
C     1.036753967925000e+00   3.946611738135066e-01   9.824300815999999e+00  2.96834776e+00  -2.22964810e-01   1.15292451e+00
C     2.302644857925000e+00   1.114439429168465e+00   9.883162839999999e+00  1.22245200e-01  -4.32313570e-01  -7.56948000e-03
C     2.459128197450000e+00   2.258611393962924e-01   6.785408288000000e+00  2.05022110e-01  -2.71015307e+00   6.24475310e-01
C     3.716020148925000e+00   9.083569435766826e-01   6.741112816000000e+00 -1.25650654e+00   4.88768840e-01   4.66807210e-01
C     3.579559326525000e+00   4.230777625344270e-01   1.003083082400000e+01 -4.91256488e+00  -1.48189963e+00  -4.28146730e-01
C     4.723533658275000e+00   1.093625975378937e+00   9.962942344000000e+00  4.98623982e+00   2.31439505e+00  -6.00358000e-01
C     4.925694396825000e+00   2.137948131196878e-01   6.910896848000000e+00  6.48870500e-02  -1.43534262e+00   5.11003600e-02
C     6.139538315475000e+00   9.433955349248431e-01   7.035142232000000e+00  4.74566120e-01  -4.31848472e+00  -4.15601750e-01
C     6.011954931750000e+00   3.775202416937952e-01   9.930983976000000e+00 -1.20536737e+00   1.55478414e+00   4.46550530e-01
C     7.232442185625000e+00   1.073824522416446e+00   9.860989536000000e+00 -1.07338015e+00   1.80828398e+00  -1.15318340e-01
C     8.617598785200000e+00   2.354879429603501e+00   6.927505576000000e+00  1.52848496e+00  -1.57690699e+00  -9.44607560e-01
C     2.480261369625000e+00   3.091438953956754e+00   6.769951616000000e+00 -1.77783719e+00  -2.93184171e+00   9.46690860e-01
C     2.303912804625000e+00   2.533990319175315e+00   9.786438552000000e+00  1.11767838e+00  -1.85704667e+00   4.54684880e-01
C     3.519966201375000e+00   3.225245675128878e+00   9.727661527999999e+00  1.26410137e+00   1.72488526e+00   1.01767322e+00
C     3.656771408925000e+00   2.332748043588963e+00   6.733309272000000e+00  3.16922039e+00   1.54499272e+00   7.72690100e-02
C     4.928184589124999e+00   3.105828424772073e+00   6.790775936000000e+00 -1.93228460e-01  -4.03082778e+00   2.42077030e-01
C     4.770248501850000e+00   2.536452564194749e+00   9.788108359999999e+00 -2.29403800e-02  -2.85215640e-01   9.89154050e-01
C     6.040770843375000e+00   3.252120246642267e+00   9.898907288000000e+00 -1.41864131e+00  -1.07760105e+00  -6.82616530e-01
C     6.174166142475000e+00   2.263643923831891e+00   6.908180519999999e+00 -9.90133970e-01   6.43270954e+00  -4.72863080e-01
C     7.416677850899999e+00   3.017940936924514e+00   6.922761216000000e+00 -1.29055141e+00   1.11706268e+00  -2.13214720e-01
C     7.249551997125000e+00   2.511509068553886e+00   9.838263255999999e+00  3.44689200e-01  -1.07371060e-01   1.01457563e+00
C     8.502095023050000e+00   3.192073988989486e+00   9.879308056000001e+00 -2.71437541e+00   3.19801233e+00   1.89716330e-01
C     9.856994092724999e+00   4.444903154339849e+00   6.966472024000000e+00  1.19145569e+00   2.35850106e+00  -6.22151700e-01
C     3.713670609525000e+00   5.207471202416083e+00   7.006863344000000e+00 -1.06189700e+00  -1.43069243e+00  -5.78578220e-01
C     3.501413662350000e+00   4.688199565547098e+00   9.815048600000001e+00  3.10826766e+00  -1.70195904e+00   2.07967380e-01
C     4.769546531475000e+00   5.391897690054276e+00   9.878803632000000e+00 -6.96365290e-01  -1.46197620e+00  -2.26890700e-01
C     4.958564913000000e+00   4.504720395731556e+00   6.852949016000000e+00 -2.23216872e+00  -1.26273277e+00   2.33247520e-01
C     6.158370755249999e+00   5.134852746158336e+00   6.843438128000001e+00  2.52474608e+00   4.17370753e+00  -2.85827440e-01
C     6.005702496224999e+00   4.654861752958817e+00   9.919568816000000e+00  1.31383440e-01   1.65536330e+00   6.45482300e-01
C     7.228525793625000e+00   5.404866696476248e+00   1.006343138400000e+01  7.07278680e-01  -1.66041352e+00  -5.66432790e-01
C     7.428347086949999e+00   4.488190621939425e+00   6.869659199999999e+00 -2.74473131e+00  -3.09359182e+00   8.50560000e-03
C     8.616306508950000e+00   5.134206428455104e+00   6.953283967999999e+00  1.75597949e+00   3.32572673e+00  -2.04130430e-01
C     8.452869392100000e+00   4.665725871949943e+00   9.999118480000000e+00  1.11953324e+00  -4.02015560e-01  -3.07608800e-01
C     9.737388878699999e+00   5.401638502216757e+00   9.934181744000000e+00 -3.46341813e+00  -1.38470336e+00   3.16448170e-01
