72
Lattice="7.395 0 0 3.6975 6.40425786098592 0 0 0 13.6 " PBC="1 1 1" Properties=species:S:1:pos:R:3:force:R:3 Energy="-580.18432357"
C     3.678320808675000e+00   6.340655061787246e+00   1.351082548000000e+01 -1.47504734e+00  -1.69222659e+00   2.95881600e-02
C     1.186518173475000e+00   5.842250290218343e-01   1.350472560800000e+01  1.30087848e+00   2.14094122e+00   1.74998610e-01
C     1.254272901300000e+00   8.339011057389012e-01   3.548364576000000e+00  1.73196820e+00  -5.80637860e-01   2.56533140e-01
C     2.534215104750000e+00   1.487329072216588e+00   3.598397208000000e+00 -1.86930810e-01   1.39302701e+00   1.75805590e-01
C     6.111555339674999e+00   6.314388510515085e+00   1.345671964800000e+01  1.66421559e+00  -7.91613250e-01  -1.54082120e-01
C     3.673859700975000e+00   6.449389305565206e-01   1.349218382400000e+01 -2.06691430e-01  -1.79526375e+00   3.19291980e-01
C     3.790381384874999e+00   8.326450386448195e-01   3.566847520000000e+00 -1.77258304e+00  -1.02316330e+00  -3.95142100e-01
C     4.967083768125000e+00   1.557854617005687e+00   3.468739976000000e+00  1.98527550e+00  -1.31626390e-01   3.59020740e-01
C     8.606468607675000e+00   6.287442723654292e+00   1.343207155200000e+01  1.35418490e-01   2.35559550e+00   4.56142660e-01
C     6.135951259799999e+00   6.294924369814080e-01   1.342032142400000e+01 -3.44325600e-01   8.48713000e-03   2.37867450e-01
C     6.228097433775000e+00   8.439719933514871e-01   3.439770752000000e+00  8.32099100e-02  -7.30566440e-01   2.72803330e-01
C     7.478539762050000e+00   1.600186825502866e+00   3.553459680000000e+00 -2.27437176e+00  -4.47592604e+00  -5.65047660e-01
C     1.207755763050000e+00   2.022798294022506e+00   1.354541476800000e+01  4.40636750e-01   4.63421100e-01  -2.31820050e-01
C     2.460546262650000e+00   2.711591468999213e+00   1.249894400000000e-02 -1.33852190e+00   2.32342141e+00   2.56297900e-01
C     2.561019539400000e+00   2.920891069484388e+00   3.632336688000000e+00 -2.54967459e+00   1.45813509e+00  -8.38372650e-01
C     3.735226368975000e+00   3.699430504109941e+00   3.437461336000000e+00  9.11202690e-01  -2.72885279e+00   1.12779032e+00
C     3.700035745500000e+00   2.059980262391251e+00   4.450042400000000e-02 -7.79450060e-01  -1.36394562e+00  -1.79175611e+00
C     4.881854100675000e+00   2.739045177550882e+00   1.334814364000000e+01  1.25538631e+00   1.69765777e+00   1.20227339e+00
C     4.956724149599999e+00   2.972420624822049e+00   3.483939608000000e+00  2.04701263e+00   1.08145116e+00  -7.51192110e-01
C     6.271148646449999e+00   3.685324805960398e+00   3.464718320000000e+00 -3.70010691e+00   1.93483400e-02   4.52662510e-01
C     6.112797034124999e+00   2.052536913693467e+00   1.332781123200000e+01  1.87150717e+00   2.40768080e-01   4.27621570e-01
C     7.409626311675000e+00   2.791685487371781e+00   1.340669109600000e+01 -1.59863103e+00  -9.67747250e-01  -5.37815010e-01
C     7.441612200974999e+00   2.943291818584517e+00   3.588496135999999e+00  1.72765616e+00   3.50845887e+00   4.69544400e-02
C     8.673839239199999e+00   3.674143996418096e+00   3.650064832000000e+00  1.14084413e+00  -3.38415460e-01  -1.30365632e+00
C     2.421130949625000e+00   4.185370092222720e+00   1.359960845600000e+01  2.78371296e+00  -1.42811904e+00   5.12031400e-02
C     3.693697934700000e+00   4.916314363284324e+00   1.358941430400000e+01 -6.66578180e-01  -1.01887200e+00  -9.89328960e-01
C     3.739173487200000e+00   5.078949082702295e+00   3.436935287999999e+00 -5.94676600e-02   7.53784270e-01  -1.18155320e-01
C     4.937845195275000e+00   5.806849281917884e+00   3.497220960000000e+00  1.74232444e+00   2.76836780e-01  -1.83271270e-01
C     4.927539449325000e+00   4.185500482912749e+00   1.337914470400000e+01 -1.35438273e+00  -7.75831820e-01   4.87479820e-01
C     6.156019921724999e+00   4.854310836344370e+00   1.331115191200000e+01 -1.91916910e-01   2.77460015e+00   4.10419730e-01
C     6.219245433899999e+00   5.115184886014804e+00   3.498456248000000e+00  6.25034600e-02  -1.70276820e-01   2.11464840e-01
C     7.476741815699999e+00   5.818296700714899e+00   3.550433952000000e+00 -1.72060368e+00   6.51028960e-01  -7.24133390e-01
C     7.409982824624999e+00   4.228677348979083e+00   1.330780250400000e+01 -3.44838620e-01  -2.70615065e+00   1.18493876e+00
C     8.632597583024999e+00   4.889170108472450e+00   1.350667272000000e+01 -1.10595656e+00   5.56586810e-01  -8.70621920e-01
C     8.661750669675000e+00   5.123282237525252e+00   3.435673752000000e+00  1.35598750e+00  -3.00097033e+00   1.35986078e+00
C     9.917759769074999e+00   5.752473290131769e+00   3.409725768000000e+00 -5.55225920e-01   4.03448259e+00   8.94829800e-02
C     7.418813305049999e+00   8.052047790346560e-02   6.709267600000000e+00 -1.66342850e-01   1.09119010e-01   3.33769090e-01
C     1.261216621425000e+00   7.943638434569839e-01   6.848819784000000e+00  3.68725250e-01  -6.82400070e-01   2.54477070e-01
C     1.181815545075000e+00   6.238832677347270e-01   1.015211344800000e+01 -1.85736002e+00  -1.00938902e+00  -4.71988090e-01
C     2.423830642275000e+00   1.308262756279479e+00   1.021361482400000e+01 -2.13369339e+00   6.93700280e-01  -3.30364640e-01
C     2.494824380100000e+00   4.087530387660721e-02   6.989881432000001e+00 -3.63057630e-01   2.86441309e+00  -6.57198720e-01
C     3.704212330574999e+00   7.912550886065827e-01   7.047900392000000e+00  5.85974770e-01   9.90114910e-01  -5.24841240e-01
C     3.591136753650000e+00   6.240315263041860e-01   1.003955604000000e+01  3.72364733e+00  -1.11340971e+00   8.75374970e-01
C     4.881655803750000e+00   1.312056062252536e+00   1.012915569600000e+01 -1.95667929e+00   1.84131320e-01  -9.34490610e-01
C     4.942680785775000e+00   9.540583040488501e-02   6.844794592000000e+00 -1.34061352e+00  -3.06276550e-01   3.75642900e-02
C     6.145122797625000e+00   7.679197661569435e-01   6.702559128000000e+00  2.37044973e+00   1.68850055e+00   1.21085691e+00
C     6.093214889250000e+00   5.733839653590048e-01   1.002441760800000e+01  1.34776790e-01   1.40959471e+00   7.39393500e-01
C     7.292943527699999e+00   1.344292534616632e+00   1.010424158400000e+01  2.04215534e+00  -2.39778992e+00   4.86800080e-01
C     1.299714991425000e+00   2.221325996829740e+00   6.891579136000000e+00 -1.48557604e+00  -1.15182368e+00   5.74191640e-01
C     2.471991799950000e+00   2.951891135826032e+00   7.057929032000000e+00  1.98774164e+00   7.85559150e-01  -1.31720680e+00
C     2.399484453525000e+00   2.710765255692694e+00   1.027930663200000e+01 -5.55625250e-01   2.54123069e+00  -6.23029830e-01
C     3.630750992175000e+00   3.490803350700066e+00   1.028316372800000e+01 -6.58841920e-01  -2.66814650e+00  -6.40023740e-01
C     3.728913849075000e+00   2.262172225375663e+00   7.093941288000000e+00 -1.06770720e+00  -2.30395875e+00  -5.48971730e-01
C     4.961733041924999e+00   2.911862282710782e+00   6.979438944000000e+00  9.20772400e-01   1.65455236e+00  -3.71556050e-01
C     4.845969012749999e+00   2.756509780862838e+00   1.016334147200000e+01  1.42030162e+00  -6.64978530e-01   5.64857130e-01
C     6.117382636650000e+00   3.435141063722769e+00   1.012618423200000e+01 -2.04239608e+00   1.68656137e+00   7.33293800e-02
C     6.199184758575000e+00   2.207723225049943e+00   6.887407880000000e+00 -7.69964110e-01  -1.57740528e+00  -5.46007570e-01
C     7.436826748574999e+00   2.876365658840474e+00   6.901592408000000e+00 -9.64384600e-02   1.55045044e+00  -2.63302670e-01
C     7.312933395899999e+00   2.737476326502918e+00   1.017657631200000e+01 -3.69980800e-01  -2.39640900e-01  -8.36046270e-01
C     8.512925148450000e+00   3.432980907546591e+00   1.012520652800000e+01  3.07893181e+00   5.04042950e-01   8.13101040e-01
C     9.916456548225000e+00   4.376424090149913e+00   6.830478551999999e+00 -1.95481810e+00  -6.35669250e-01   8.52460460e-01
C     3.740308286925000e+00   5.054053490910224e+00   6.792980360000000e+00  1.01783283e+00   6.55808350e-01  -1.38468280e-01
C     3.644330171850000e+00   4.877695535622109e+00   1.020471552800000e+01 -8.47317110e-01   1.54655660e-01  -6.10252010e-01
C     4.847282734499999e+00   5.561818085341518e+00   1.009504662400000e+01  1.91174236e+00   2.23894062e+00   5.56126800e-01
C     4.994971792125000e+00   4.356046510150335e+00   6.863770944000001e+00 -1.42275001e+00  -6.70240690e-01   3.92804630e-01
C     6.206130216525000e+00   5.073493487559097e+00   6.894740727999999e+00  2.96369300e-01  -2.57740123e+00   2.04924450e-01
C     6.110813510249999e+00   4.882622075023493e+00   1.007212137600000e+01 -6.03808860e-01  -9.49915530e-01  -6.30018800e-02
C     7.324971420599999e+00   5.602998488062576e+00   9.976702144000001e+00  2.83882600e-01  -2.70550640e-01   4.90624140e-01
C     7.418428875974999e+00   4.302017757225388e+00   6.926783823999999e+00  1.19476093e+00   1.89620286e+00  -4.40338080e-01
C     8.654170572824999e+00   5.094546716762903e+00   6.829903000000000e+00 -2.04583160e-01  -2.35796209e+00   2.72520900e-01
C     8.568299352149999e+00   4.866557506522312e+00   1.001644025600000e+01 -4.65163150e-01  -9.68852400e-02   4.04898000e-01
C     9.816123628574999e+00   5.564933308492358e+00   1.006758169600000e+01 -1.04684789e+00   8.06303800e-02   5.90893800e-02
