72
Lattice="7.395 0 0 3.6975 6.40425786098592 0 0 0 13.6 " PBC="1 1 1" Properties=species:S:1:pos:R:3:force:R:3 Energy="-580.56193126"
C     3.702075582300000e+00   6.358800053454249e+00   1.343456212000000e+01 -1.24949699e+00  -1.43148546e+00  -1.93493000e-03
C     1.162842082650000e+00   6.787278590684592e-01   1.345714573600000e+01  3.05471805e+00  -6.35068060e-01  -3.36258710e-01
C     1.272355968750000e+00   7.836655947444324e-01   3.610687936000000e+00  3.14622180e-01   6.55125040e-01  -4.70055460e-01
C     2.515628918475000e+00   1.498054346897308e+00   3.612961992000000e+00 -8.00510000e-03   2.45239050e-01  -3.83461550e-01
C     6.083999351175000e+00   6.356147730061529e+00   1.340889538400000e+01  3.02449469e+00  -8.43135840e-01   1.87158980e-01
C     3.684890600625000e+00   6.690627452338830e-01   1.348989929600000e+01 -1.34478390e-01  -1.11297431e+00  -9.42045590e-01
C     3.741505870200000e+00   7.920667002051804e-01   3.535741327999999e+00 -3.64410620e-01  -1.82774740e-01  -1.45007400e-02
C     4.943416329449999e+00   1.529660191989930e+00   3.499820192000000e+00  1.96201141e+00  -5.27104780e-01  -1.09331390e-01
C     8.658955692449998e+00   6.318457840001908e+00   1.344210100800000e+01 -1.35523939e+00   1.43504882e+00  -1.73394100e-02
C     6.217067273625000e+00   6.899821254484159e-01   1.338730579200000e+01 -3.46832337e+00  -1.50610501e+00   4.65091600e-02
C     6.208982209199999e+00   8.460463965149196e-01   3.506721648000000e+00  3.83379170e-01  -2.23724199e+00  -7.99170400e-02
C     7.475263444275000e+00   1.556983253681256e+00   3.586379704000000e+00 -2.53520006e+00  -3.34017613e+00  -2.51647340e-01
C     1.206173122125000e+00   2.088832276604073e+00   1.344781858400000e+01  1.03773850e+00  -7.72132040e-01   3.11071060e-01
C     2.458696847100000e+00   2.772931963122922e+00   1.357952941600000e+01 -1.18232635e+00   9.51695840e-01  -9.48892670e-01
C     2.543839512375000e+00   2.941009725338685e+00   3.580357760000000e+00 -2.33740678e+00  -3.82808970e-01   3.50599500e-02
C     3.766799876100000e+00   3.656792812512840e+00   3.512454184000000e+00 -5.32478280e-01  -1.87117782e+00  -2.58833040e-01
C     3.681697291724999e+00   2.124546389071306e+00   1.345445103200000e+01  3.86786680e-01  -2.80604855e+00   8.43297540e-01
C     4.904716223850000e+00   2.798617776292338e+00   1.335137105600000e+01  7.09438640e-01  -2.10451380e-01  -3.89182220e-01
C     4.990837358549999e+00   2.935919557148979e+00   3.465577840000000e+00 -2.33588140e-01   1.17198356e+00   6.83754320e-01
C     6.231395825624999e+00   3.679122602435881e+00   3.534747032000000e+00 -2.55710174e+00  -1.41039183e+00  -2.42839090e-01
C     6.143157798225000e+00   2.100950285241608e+00   1.324835622400000e+01  6.42539430e-01  -1.10077239e+00   9.33333080e-01
C     7.406946326700000e+00   2.759530285039929e+00   1.326966021600000e+01 -1.65493056e+00   1.62114101e+00   5.39553970e-01
C     7.379750215874999e+00   2.915404221562834e+00   3.610797960000000e+00  3.76891081e+00   2.77902496e+00  -3.04344640e-01
C     8.636014960424999e+00   3.641635791393000e+00   3.589339608000000e+00  1.66501290e+00  -1.39354300e-02   1.28441970e-01
C     2.429582140500000e+00   4.192912706917335e+00   1.355704902400000e+01  1.92094964e+00  -1.09515000e-01  -4.98723990e-01
C     3.691689933375000e+00   4.906340051880267e+00   1.347048448000000e+01 -4.98345830e-01   7.07598240e-01  -1.37682320e-01
C     3.727441874325000e+00   5.031427760231473e+00   3.480023896000000e+00  3.64522670e-01   1.94640934e+00   4.68390000e-02
C     4.940185564875000e+00   5.762506200495245e+00   3.513377896000000e+00  1.16264355e+00   7.57901200e-01   1.94247430e-01
C     4.922818666200000e+00   4.200840025381599e+00   1.331321462400000e+01 -8.80891040e-01   1.78098990e-01   6.34922290e-01
C     6.155751668099999e+00   4.869580060061917e+00   1.325884087200000e+01 -5.32480710e-01   3.07585013e+00   8.51935570e-01
C     6.202881297225000e+00   5.084751788621506e+00   3.533245592000000e+00  1.07730180e-01  -2.25692600e-02  -1.76779760e-01
C     7.452643914075000e+00   5.766120507461114e+00   3.516654136000000e+00 -1.18305217e+00   1.61003378e+00   4.42910260e-01
C     7.377921802125000e+00   4.176683741116887e+00   1.329819505600000e+01  7.77277720e-01   5.45633840e-01   1.69875900e-01
C     8.615863548449999e+00   4.872768099624626e+00   1.343896131200000e+01 -5.92626460e-01   1.98806649e+00   1.41425490e-01
C     8.665543454249999e+00   5.085154552398320e+00   3.557376208000000e+00  3.92058880e-01  -1.97977042e+00  -5.97343210e-01
C     9.909645198600000e+00   5.746577722473589e+00   3.471078767999999e+00 -3.98542340e-01   2.74113090e+00   5.29797690e-01
C     7.417450961175000e+00   4.942069726694100e-02   6.616217080000000e+00 -4.65826070e-01   4.98495440e-01   1.17691154e+00
C     1.252959068625000e+00   7.670061347306358e-01   6.801909168000001e+00  5.67232880e-01  -2.84409800e-01   3.35483180e-01
C     1.187389489350000e+00   6.512980383986076e-01   1.021209366400000e+01 -1.06003445e+00  -1.39088526e+00   1.01205880e-01
C     2.447811961725000e+00   1.352686659436312e+00   1.019455714400000e+01 -2.28224688e+00  -5.92477390e-01   3.09058090e-01
C     2.502338291700000e+00   9.839501776104001e-03   6.962299136000000e+00 -8.38609500e-01   3.01867259e+00  -2.93532010e-01
C     3.727711496025000e+00   7.605512832335418e-01   7.064452816000000e+00 -3.60329180e-01   7.90400520e-01  -9.70982350e-01
C     3.629205769950000e+00   6.444252450335701e-01   1.008511767200000e+01  2.03463433e+00  -1.32674827e+00  -4.06819620e-01
C     4.879640074650000e+00   1.325401126696047e+00   1.010004952000000e+01 -9.40160050e-01   7.87048820e-01   1.09433558e+00
C     4.947135718649999e+00   5.536404068875680e-02   6.833436144000000e+00 -1.01349938e+00   8.21335000e-03   5.89530660e-01
C     6.140490162900000e+00   7.372100048240928e-01   6.712905328000000e+00  2.70367949e+00   2.04266314e+00   4.78377900e-02
C     6.094729126424999e+00   6.139268242100995e-01   1.014671465600000e+01  6.50981540e-01   1.14012901e+00  -1.61426230e-01
C     7.312360911975000e+00   1.335189586537006e+00   1.024932665600000e+01  1.67125477e+00  -3.63317960e-01  -3.95099740e-01
C     8.662101599400000e+00   2.214614910975667e+00   6.878276296000000e+00 -6.70350190e-01  -1.55606445e+00  -3.34462410e-01
C     2.471998011750000e+00   2.924192976751847e+00   6.954489336000000e+00  1.58930510e+00  -3.15293500e-02   2.90159980e-01
C     2.418652145625000e+00   2.742673445798887e+00   1.030509128000000e+01 -4.71470190e-01   1.96959201e+00  -4.81829090e-01
C     3.654003719250000e+00   3.480526886410174e+00   1.032325612000000e+01 -9.93257850e-01  -9.00132670e-01  -2.97977820e-01
C     3.736980721800000e+00   2.235854760253515e+00   7.092455352000000e+00 -1.54268964e+00  -2.44225575e+00  -1.00358156e+00
C     4.954966395074999e+00   2.896571476644246e+00   6.974091287999999e+00  7.76068690e-01   1.40914874e+00  -6.31742960e-01
C     4.870782713400000e+00   2.739727166970394e+00   1.030137712000000e+01  1.12311334e+00   9.68613230e-01  -9.16731770e-01
C     6.137865973199999e+00   3.463475037517295e+00   1.024385714400000e+01 -1.89016625e+00   9.90877210e-01  -3.58330650e-01
C     6.187004971725000e+00   2.187804317998299e+00   6.809626080000000e+00 -6.32451690e-01  -8.54885270e-01   4.56138580e-01
C     7.417624780650000e+00   2.901495518385064e+00   6.823289184000000e+00  2.30229190e-01  -1.93961840e-01   1.27009860e-01
C     7.337799564075000e+00   2.748463151074641e+00   1.023748894400000e+01 -4.80165030e-01   2.14537680e-01  -5.55336800e-02
C     8.531261050950000e+00   3.470280586174802e+00   1.023546771200000e+01  3.01281266e+00  -1.51849200e-02  -4.36299610e-01
C     2.508261427875000e+00   4.336940559591440e+00   6.820014575999999e+00 -1.53319732e+00  -2.49469680e-01  -1.05714160e-01
C     3.709356662325000e+00   5.030845485106841e+00   6.714908472000000e+00  1.54150915e+00   6.29204080e-01   4.96484900e-01
C     3.617533021275000e+00   4.898802112293890e+00   1.026681176800000e+01  8.63086410e-01  -5.03431500e-02  -1.71887600e-01
C     4.837382123625000e+00   5.589114505320146e+00   1.023008088800000e+01  2.35957100e+00   1.85802996e+00  -5.21254840e-01
C     4.949249394524999e+00   4.346442685063479e+00   6.860960096000000e+00 -1.70238580e-01  -1.26432121e+00   1.15286060e-01
C     6.179295092624999e+00   5.032049357499365e+00   6.917782392000000e+00  9.04357000e-01  -1.11813280e+00  -4.57981420e-01
C     6.125714435250000e+00   4.917272696430494e+00   1.013283245600000e+01 -6.93278020e-01  -1.47162121e+00   4.07886860e-01
C     7.368848063174999e+00   5.608418347446915e+00   9.986346720000000e+00 -1.16323992e+00   5.59645530e-01   1.01530077e+00
C     7.433199611999999e+00   4.309084279390690e+00   6.883939880000000e+00 -2.84955680e-01   1.07291830e+00  -1.26444400e-02
C     8.668049397899999e+00   5.052998133257475e+00   6.820223744000000e+00 -8.68932360e-01  -1.42975495e+00   1.13411570e-01
C     8.598469177349999e+00   4.894186883867081e+00   1.005761248800000e+01 -9.48848930e-01  -1.30518960e-01   5.48108900e-01
C     9.817899389925000e+00   5.636258809130750e+00   1.012545676800000e+01 -7.38542680e-01  -2.14758840e+00   2.20869230e-01
