72
Lattice="7.395 0 0 3.6975 6.40425786098592 0 0 0 13.6 " PBC="1 1 1" Properties=species:S:1:pos:R:3:force:R:3 Energy="-564.43432927"
C     3.646971813750000e+00   6.274370672723354e+00   1.358111748800000e+01 -1.13425656e+00  -1.31268350e+00  -1.19302137e+00
C     1.210714946250000e+00   4.009338241744836e-01   1.355446298400000e+01 -1.40422663e+00   6.68448566e+00   5.02384780e-01
C     1.290547077150000e+00   9.618401177745360e-01   3.783535232000000e+00  3.56795395e+00  -6.90427550e-01   5.05009560e-01
C     2.640768439575000e+00   1.534049990540067e+00   3.944682584000000e+00 -4.34792210e-01   3.36767097e+00  -1.28629340e-01
C     6.129590376600000e+00   6.240503676308101e+00   1.343190984800000e+01  5.49160070e-01  -3.57451944e+00  -2.10566537e+00
C     3.629722902300000e+00   5.497216415030340e-01   1.341352849600000e+01  1.88379043e+00  -1.00744682e+00   1.05610492e+00
C     3.945622734150000e+00   1.000981020537498e+00   3.796583888000000e+00 -4.67611305e+00  -3.31351029e+00  -4.87004000e-01
C     5.059593960975000e+00   1.730260824981289e+00   3.603654016000000e+00  3.40421569e+00  -6.18354500e-01  -3.75663160e-01
C     8.552627239574999e+00   6.191664357569691e+00   1.326888066400000e+01  2.22841479e+00   5.09678907e+00   5.78793420e-01
C     6.081408217124999e+00   5.485425535884295e-01   1.327252206400000e+01  7.41904980e-01   1.34548320e-01   9.50968800e-01
C     6.325904886975000e+00   9.920244737925522e-01   3.470267664000000e+00 -5.31372800e-02  -4.14220260e-01   8.14977790e-01
C     7.559539822274999e+00   1.762207952975270e+00   3.817947312000000e+00 -3.34436487e+00  -4.85148496e+00  -1.85966671e+00
C     1.211934936375000e+00   1.901000132721089e+00   1.468596000000000e-02  6.21496350e-01   1.81030948e+00  -1.18211340e-01
C     2.471883352275000e+00   2.572093604079800e+00   2.088603680000000e-01 -1.68555395e+00   4.06470451e+00  -2.41827110e-01
C     2.689441331250000e+00   2.982624016529758e+00   4.001444224000000e+00 -3.80216222e+00   3.44162867e+00  -1.77193197e+00
C     3.746519273475000e+00   3.824277924706240e+00   3.512390400000000e+00  3.39251577e+00  -3.20238634e+00   1.76237743e+00
C     3.738035100900000e+00   1.937001732323658e+00   1.753182800000000e-01 -1.69012832e+00  -5.46567690e-01  -3.42013206e+00
C     4.825393756350000e+00   2.632993165049848e+00   1.317678119200000e+01  1.13755611e+00   3.01991908e+00   2.73706591e+00
C     4.997996347125000e+00   3.107737149784668e+00   3.532038320000000e+00  3.27819612e+00   3.17184205e+00  -1.43850030e-01
C     6.423267161175000e+00   3.880666774737754e+00   3.601580696000000e+00 -5.93862438e+00  -1.10003386e+00  -5.99508900e-02
C     6.042212572575000e+00   1.944759401997212e+00   1.310020843200000e+01  3.65882921e+00   2.02401567e+00   9.87546560e-01
C     7.478596407750000e+00   2.818333668369819e+00   1.332304361600000e+01 -2.57432982e+00  -4.05965229e+00  -1.50998600e+00
C     7.524644555099999e+00   3.105476638887823e+00   3.929312000000000e+00  2.96533285e+00   4.05395378e+00   1.87570320e-01
C     8.814947486325000e+00   3.818915767685219e+00   4.065159680000000e+00 -9.81001380e-01  -5.89448990e-01  -3.09683796e+00
C     2.434085880375000e+00   4.163332272415516e+00   1.628567360000000e-01  3.48974493e+00  -3.89205375e+00  -3.10134610e-01
C     3.720257927625000e+00   4.882376727904877e+00   8.147800799999999e-02 -2.24483601e+00  -2.00086172e+00  -7.74805580e-01
C     3.796554582975000e+00   5.234027738484145e+00   3.413691256000000e+00 -5.61513750e-01  -2.19684114e+00   1.34151690e-01
C     4.950476077125000e+00   5.967482926924919e+00   3.578073776000000e+00  3.94128485e+00  -2.90119660e-01  -9.11070700e-02
C     4.893823943474999e+00   4.170484803763879e+00   1.329708461600000e+01  2.64240270e-01  -3.33373010e+00  -7.35578630e-01
C     6.115931293950000e+00   4.793132305901940e+00   1.296311988800000e+01  1.87200751e+00   2.97109461e+00   3.25099433e+00
C     6.303911676300000e+00   5.286747397059929e+00   3.604232152000000e+00  1.16174220e-01   2.25176400e-01   7.71342650e-01
C     7.598543751449999e+00   5.976729458465766e+00   3.719390424000000e+00 -4.30617235e+00   2.14103181e+00  -7.02272640e-01
C     7.483483023750000e+00   4.226361889549801e+00   1.306043169600000e+01 -1.78836011e+00  -4.40147919e+00   1.80535679e+00
C     8.715787080900000e+00   4.860955830257327e+00   1.342277187200000e+01 -3.88088721e+00  -1.70857815e+00  -1.08883175e+00
C     8.720281096350000e+00   5.312665940959977e+00   3.512363064000000e+00  3.34631419e+00  -7.54975766e+00   2.51410072e+00
C     9.970490925825001e+00   5.809878239715350e+00   3.318782160000000e+00  1.21254450e-01   8.43162720e+00   1.01804143e+00
C     7.396909869675000e+00   2.072453066914230e-01   6.718522944000000e+00  8.06073370e-01  -2.24291932e+00   2.71270850e-01
C     1.261801196175000e+00   8.931907643681023e-01   6.921413183999999e+00  8.07587400e-01  -3.01779005e+00   6.09560800e-01
C     1.100522162175000e+00   5.251568936720107e-01   9.891951976000000e+00 -1.62163903e+00  -2.85394479e+00  -1.72832800e-01
C     2.367001361400000e+00   1.137287835893009e+00   1.016250398400000e+01 -4.39362694e+00   2.04541056e+00  -7.70867340e-01
C     2.506759318499999e+00   8.976835433846281e-02   7.132740320000000e+00 -3.09499273e+00   4.70472131e+00  -1.32206413e+00
C     3.600907101600000e+00   9.097512145553833e-01   7.224398335999999e+00  4.58588502e+00   9.50179420e-01  -1.34629065e+00
C     3.476228769675000e+00   4.718119874013546e-01   9.867953415999999e+00  7.21500606e+00  -1.23449627e+00   1.30064677e+00
C     4.859628982799999e+00   1.181800886319253e+00   9.977361064000000e+00 -4.67551373e+00  -2.91238980e-01  -1.57433804e+00
C     4.840117977825000e+00   2.032430297843946e-01   6.846265160000001e+00  1.14409440e-01  -6.37879900e-02   5.23230610e-01
C     6.110806041300000e+00   8.058988725015228e-01   6.662332095999999e+00  1.07227017e+00   3.81512906e+00   2.43225203e+00
C     6.005441896424999e+00   4.045251398546358e-01   9.711530703999999e+00  1.09643313e+00   6.37799790e-01   1.38891282e+00
C     7.201349908125000e+00   1.213716441321985e+00   9.779960872000000e+00  2.21195587e+00  -3.67434130e+00   1.07845754e+00
C     1.384835804475000e+00   2.252378065745208e+00   7.040688311999999e+00 -5.26352165e+00   1.48569513e+00   3.21704520e-01
C     2.457424389450000e+00   3.072158487371174e+00   7.269600248000000e+00  3.58269566e+00   2.09089957e+00  -1.89931524e+00
C     2.306566907100000e+00   2.530795170886383e+00   1.029079876800000e+01 -6.96272650e-01   4.60109829e+00  -1.60561956e+00
C     3.552105980625000e+00   3.409253196217869e+00   1.026598924000000e+01 -4.11176730e-01  -7.09321233e+00  -1.11305750e+00
C     3.725792234700000e+00   2.395716820273577e+00   7.302537271999999e+00 -2.61476457e+00  -3.33348645e+00  -1.00883345e+00
C     4.969651755825000e+00   2.947898529348373e+00   7.094725191999999e+00  4.23179950e-01   4.97751673e+00  -7.53222930e-01
C     4.742910222150000e+00   2.652062227083469e+00   9.945004352000000e+00  2.97599239e+00  -1.76372820e+00   1.74965980e+00
C     6.060323741025000e+00   3.277239795331703e+00   9.820203136000000e+00 -5.41635621e+00   3.94775242e+00   3.80449600e-01
C     6.171585065625000e+00   2.302730774658515e+00   6.994341960000001e+00  2.49188690e-01  -5.25832578e+00  -1.57240340e+00
C     7.419989516774999e+00   2.891462800149323e+00   7.061414439999999e+00  2.10567547e+00   1.37510807e+00  -8.21484590e-01
C     7.199006839349999e+00   2.595242242412820e+00   9.897038240000001e+00  2.10357510e-01  -1.99607810e+00  -6.40285910e-01
C     8.368468482299999e+00   3.259861009075070e+00   9.920230183999999e+00  6.69043163e+00   1.06774069e+00   2.38822758e+00
C     9.939445125900001e+00   4.555536260573299e+00   6.928587319999999e+00 -3.76434119e+00  -3.69788231e+00   1.13099872e+00
C     3.783763710300000e+00   5.109095077215730e+00   6.844727408000000e+00  7.81840910e-01   3.74845628e+00  -7.83948140e-01
C     3.625642378274999e+00   4.718889473680583e+00   1.000953363200000e+01 -2.59991288e+00   1.70783336e+00  -6.48206130e-01
C     4.800992474849999e+00   5.394531697269515e+00   9.805062392000000e+00  1.48493339e+00   4.36877760e+00   6.41597640e-01
C     5.047878875924999e+00   4.451839093687386e+00   6.896338320000000e+00 -3.46247491e+00  -2.48908996e+00   8.84528670e-01
C     6.214628217750000e+00   5.168348807958337e+00   6.956186343999999e+00  2.09461628e+00  -5.62687020e+00   1.40008230e-01
C     6.046086184500000e+00   4.755574535681970e+00   9.756223567999999e+00 -3.74049610e-01  -2.33742260e+00   7.20151730e-01
C     7.234049673750000e+00   5.476771077982605e+00   9.723858560000000e+00  2.01306951e+00  -9.18701910e-01   7.98649690e-01
C     7.419337166850000e+00   4.268800088514562e+00   7.057225503999999e+00  1.07019230e+00   6.56944151e+00  -1.10509206e+00
C     8.622372368624999e+00   5.217125621140033e+00   6.873728863999999e+00  8.17482200e-02  -4.12905416e+00   7.21315010e-01
C     8.514833539124998e+00   4.684457621722078e+00   9.822704448000000e+00 -2.02959211e+00   1.74437000e-01  -4.80911500e-02
C     9.765822468825000e+00   5.320703220531700e+00   9.812127592000000e+00 -1.27127242e+00   3.78362877e+00   3.78307390e-01
