72
Lattice="7.395 0 0 3.6975 6.40425786098592 0 0 0 13.6 " PBC="1 1 1" Properties=species:S:1:pos:R:3:force:R:3 Energy="-563.32399515"
C     3.755308526775000e+00   6.339286087627094e+00   1.332411393600000e+01 -7.93728000e-02   1.49016485e+00   6.65273080e-01
C     1.175827332900000e+00   8.228500464608424e-01   1.335304181600000e+01  3.27577959e+00  -5.53061463e+00   7.36084080e-01
C     1.308138118275000e+00   6.999052668321715e-01   3.428191304000000e+00 -5.72115310e-01   3.49611113e+00   1.18091700e-01
C     2.437651897275000e+00   1.645134532910068e+00   3.424374056000000e+00  2.83534436e+00  -8.00341555e+00  -9.96133000e-03
C     6.041455213650000e+00   6.384347406568732e+00   1.346054546400000e+01  4.93249515e+00   5.80577590e-01  -8.44229220e-01
C     3.711143294325000e+00   7.299932387693947e-01   1.318584953600000e+01 -7.22172070e-01  -1.58720556e+00   3.38236299e+00
C     3.694794909000000e+00   7.778778107460361e-01   3.476545016000000e+00 -2.66990071e+00  -1.66487431e+00   5.65334920e-01
C     4.901022865049999e+00   1.451857809207406e+00   3.527287840000000e+00  1.04556658e+00  -3.15713500e-02   3.66566520e-01
C     8.690918879100000e+00   6.399797550570825e+00   1.338938591200000e+01 -1.52340940e+00  -9.14162090e-01  -2.09696140e-01
C     6.343386038400000e+00   7.339542082132261e-01   1.347150624800000e+01 -7.59661182e+00  -2.29454361e+00   4.50329650e-01
C     6.117617575799999e+00   8.352306296706372e-01   3.538148936000000e+00  5.26625455e+00  -5.56942748e+00   5.66607010e-01
C     7.476486577274999e+00   1.444444688606720e+00   3.412440872000000e+00 -4.85071036e+00  -3.92227300e-02   3.75751930e-01
C     8.596154764200000e+00   2.225121864505941e+00   1.340289152800000e+01  5.56169813e+00  -5.23127155e+00  -2.19185682e+00
C     2.437268688375000e+00   2.898250929225452e+00   1.309497692000000e+01 -2.00317900e-01  -2.36320282e+00   2.16716392e+00
C     2.552072144025000e+00   2.995842981136005e+00   3.415011680000000e+00 -5.01577570e+00   9.10208100e-02  -2.37750770e-01
C     3.771305168925000e+00   3.596039652877472e+00   3.560384800000000e+00  1.71905163e+00   6.46463740e-01   8.77582760e-01
C     3.652771749225000e+00   2.206916416644740e+00   1.327683516800000e+01  2.74984868e+00  -3.20005090e+00  -4.96717080e-01
C     4.931471777550000e+00   2.850146306948741e+00   1.355739636800000e+01 -7.50333930e-01  -1.17751837e+00   7.33015440e-01
C     5.027831326725000e+00   2.796698996594904e+00   3.720125232000000e+00 -3.94608400e+00   5.81129116e+00  -2.16576376e+00
C     6.177594538425000e+00   3.664343496572359e+00   3.561433768000000e+00 -2.75144926e+00  -7.59143947e+00   2.77830200e-01
C     6.225790637475000e+00   2.164334890389072e+00   1.847602160000000e-01 -7.02948406e+00  -7.17691583e+00  -1.92105593e+00
C     7.399748329499999e+00   2.632887238624843e+00   1.185525600000000e-02 -3.11685230e-01   1.05749434e+01   6.16845350e-01
C     7.254897953550000e+00   2.870688348290162e+00   3.345245312000000e+00  8.76365029e+00   1.16689941e+00   4.44392620e-01
C     8.584958031675001e+00   3.660288320495407e+00   3.373213032000000e+00  1.99136069e+00  -2.22170131e+00  -6.18439900e-02
C     2.473908325125000e+00   4.246355662375827e+00   1.318758829600000e+01 -4.85419870e-01   3.93371140e-01   5.37996580e-01
C     3.739535176650000e+00   4.849598135112932e+00   1.327643614400000e+01 -3.59657681e+00   6.28071075e+00   4.31848700e-02
C     3.769771371975000e+00   5.020875592640708e+00   3.601214176000000e+00 -5.22617130e-01   6.96261350e-01   2.67618810e-01
C     5.055132224699999e+00   5.668108784532995e+00   3.524768984000000e+00 -7.57236078e+00   5.43247747e+00   2.42322500e-02
C     4.852483601025000e+00   4.260780100439063e+00   5.092098400000000e-02  3.28117949e+00  -3.43342967e+00  -2.29252710e-01
C     6.080403754275000e+00   4.910541757377056e+00   1.455244880000000e-01  2.33104182e+00   1.88168030e+00  -1.80052464e+00
C     6.134253108975000e+00   4.985084372908840e+00   3.496718440000000e+00  6.68295160e+00  -1.89693410e-01   4.17313280e-01
C     7.390704022650000e+00   5.588878252247691e+00   3.578107232000000e+00  6.40689300e-01   7.43473012e+00  -1.41916340e+00
C     7.297373169675000e+00   4.032504555829550e+00   1.359083727200000e+01  2.67625448e+00   7.36696333e+00  -8.81449000e-03
C     8.614852947749998e+00   4.819499532107661e+00   1.339648021600000e+01 -2.37642011e+00   4.35065344e+00   1.93534040e-01
C     8.680622265975000e+00   5.035528406539231e+00   3.533341608000000e+00 -1.73802489e+00  -8.17023510e-01   7.03773600e-01
C     9.896753347199999e+00   5.751570994241873e+00   3.715659128000000e+00  8.12604250e-01   1.33170555e+00  -2.17567527e+00
C     3.748673400000000e+00   6.385656564960473e+00   7.272544103999999e+00 -2.18308492e+00   2.98655663e+00  -1.96964125e+00
C     1.267071723600000e+00   6.935324538782640e-01   6.947540824000001e+00 -5.18533670e-01   2.12929534e+00  -4.99129730e-01
C     1.241359715325000e+00   6.448304424283722e-01   1.021868218400000e+01 -4.10255326e+00   5.10096260e-01  -5.69195450e-01
C     2.449256759850000e+00   1.387178903546436e+00   1.019669724000000e+01  2.35856700e-02  -1.18775555e+00  -1.51855720e-01
C     6.169663437900000e+00   6.380911906482313e+00   6.632967384000000e+00  6.80292150e-01   4.13853703e+00   1.37925980e-01
C     3.815283123000000e+00   6.769984532759449e-01   6.392827696000000e+00 -1.57964775e+00   7.95797530e-01   2.88265422e+00
C     3.691168548900000e+00   6.616574378277864e-01   1.038456315200000e+01  2.29723280e-01  -1.32401996e+00   1.66398246e+00
C     4.929651942000000e+00   1.375019779573440e+00   1.045881058400000e+01 -4.53380127e+00   1.04821904e+00  -2.60233754e+00
C     8.716848004574999e+00   6.399967583617007e+00   6.935849992000000e+00 -2.53197327e+00   1.61426094e+00  -2.31563889e+00
C     6.163821350925000e+00   7.364009549286390e-01   7.104626944000000e+00  3.43614309e+00   2.14128542e+00   2.07766590e-01
C     6.095327751675000e+00   7.415357607956299e-01   1.030533295200000e+01  2.09149451e+00  -2.13373361e+00   6.34806590e-01
C     7.283847160050000e+00   1.375637150031144e+00   1.013352075200000e+01  6.64252103e+00   1.12930670e+00   6.55061200e-02
C     8.611642778249999e+00   2.237623232018975e+00   6.845691512000000e+00 -2.20899970e-01  -3.44971705e+00   3.07738400e-02
C     2.479138549800000e+00   2.832979949925325e+00   6.681710056000000e+00  1.23339895e+00   4.94550000e-03  -1.05787190e+00
C     2.430097424100000e+00   2.806025581359000e+00   1.001904424800000e+01  9.17014840e-01   2.02098960e-01   1.01888243e+00
C     3.738455876400000e+00   3.427250889954092e+00   9.985466120000000e+00 -5.72095323e+00   3.35024382e+00   2.73891300e-01
C     3.803572031249999e+00   2.165974828699281e+00   6.365616408000000e+00 -6.07107168e+00  -4.16914738e+00   1.83235245e+00
C     4.896301231500000e+00   2.845072981957206e+00   6.625141128000000e+00  5.00061949e+00   3.37892460e+00   2.08160151e+00
C     4.877491531350000e+00   2.702012748603168e+00   1.003660320800000e+01  4.01469251e+00   2.68468692e+00   1.31058363e+00
C     6.145787016524999e+00   3.490884556689731e+00   1.008042172800000e+01 -1.41194660e-01   1.24740437e+00   1.21587531e+00
C     6.196887132075000e+00   2.208466503217174e+00   6.925705752000000e+00 -2.89139975e+00  -1.95948840e+00  -1.01444366e+00
C     7.338822847199999e+00   2.974739478507997e+00   6.869974448000000e+00  3.79789272e+00   4.11815900e-02   1.21605590e-01
C     7.433958117150000e+00   2.795705888328553e+00   1.010272885600000e+01 -3.46745890e+00   1.45076416e+00   3.75011110e-01
C     8.602081560900000e+00   3.598583488142042e+00   1.016736666400000e+01  2.28459144e+00  -3.45315643e+00  -6.46515000e-02
C     2.476118136000000e+00   4.223119798050754e+00   6.876505303999999e+00 -2.20203880e+00   1.27063995e+00   6.45550190e-01
C     3.554630559675000e+00   5.031848263802560e+00   7.082780176000000e+00  7.38903849e+00  -3.02381885e+00  -1.08981171e+00
C     3.575592907349999e+00   4.914063010476220e+00   1.005777419200000e+01  2.57533404e+00   1.06379373e+00   8.72400570e-01
C     4.830946366050000e+00   5.623854466124294e+00   1.019165789600000e+01  1.88525671e+00   8.99057500e-01   5.33804130e-01
C     4.882145130900000e+00   4.280270626682451e+00   6.873472231999999e+00 -5.39567650e-01   1.02330211e+00  -5.77329270e-01
C     6.136568557424999e+00   5.027267682410774e+00   6.729682832000000e+00 -5.61419510e-01  -1.65448375e+00   8.54768970e-01
C     6.110307026699999e+00   4.983044168482381e+00   1.035410581600000e+01  1.44041765e+00  -4.29026251e+00  -8.71893870e-01
C     7.460008779450000e+00   5.560051919108887e+00   1.064516322400000e+01 -7.07055430e+00   5.19183294e+00  -2.52148814e+00
C     7.423557937050001e+00   4.443058023607803e+00   6.763372480000000e+00 -1.81782207e+00  -4.91788110e+00   2.78199920e-01
C     8.677088602200000e+00   4.998022190595034e+00   6.920957855999999e+00 -5.79742360e-01  -3.09755730e-01  -2.95530370e-01
C     8.643777417974999e+00   4.962179160417080e+00   1.049397474400000e+01  7.01303440e-01  -8.92658140e-01  -1.35075658e+00
C     9.786639615675000e+00   5.774806730481790e+00   1.032796172000000e+01  2.20380431e+00  -5.59647607e+00  -8.16686690e-01
