72
Lattice="7.395 0 0 3.6975 6.40425786098592 0 0 0 13.6 " PBC="1 1 1" Properties=species:S:1:pos:R:3:force:R:3 Energy="-582.35953542"
C     3.708835019025000e+00   6.332978149805307e+00   1.337483472800000e+01 -3.41880020e-01   1.51168562e+00   7.12038790e-01
C     1.259364765525000e+00   6.641326194480979e-01   1.342480956000000e+01 -1.44739559e+00   3.25090400e-02  -1.62478540e-01
C     1.279024003275000e+00   8.054357806156662e-01   3.592918992000000e+00 -2.58504750e-01  -3.81235370e-01  -3.97464050e-01
C     2.503641919275000e+00   1.530083449391898e+00   3.575528400000000e+00 -5.84976140e-01   1.43231140e-01  -1.00807420e-01
C     6.169455564450000e+00   6.359209925957289e+00   1.341469646400000e+01 -2.89204910e-01  -2.21186660e-01  -1.12237000e-02
C     3.694097116800000e+00   6.732884666976469e-01   1.340396674400000e+01  1.78938280e-01  -4.96051950e-01   4.84441880e-01
C     3.712955697900000e+00   7.899548321332668e-01   3.524211384000000e+00  8.37421050e-01   8.60420820e-01  -5.53723900e-02
C     4.960886018625000e+00   1.481770880862472e+00   3.473676096000000e+00 -1.67942870e-01   4.93360340e-01   8.82264170e-01
C     8.617483053449998e+00   6.351207293420590e+00   1.343129308800000e+01 -7.31234540e-01  -5.25382990e-01   9.20384600e-02
C     6.137150100225000e+00   6.272949439819062e-01   1.340716138400000e+01  1.62217801e+00   7.36372580e-01  -2.88681380e-01
C     6.205815744150000e+00   7.646744084863885e-01   3.526087776000000e+00 -9.23431680e-01   1.59031713e+00  -4.43949500e-02
C     7.416827673599999e+00   1.475388077266303e+00   3.574796992000000e+00  1.59502039e+00   1.78487503e+00  -1.73740650e-01
C     1.230837037050000e+00   2.093536524215136e+00   1.343387613600000e+01 -8.82366330e-01  -9.54593700e-02  -3.18031290e-01
C     2.433299237250000e+00   2.814279132718654e+00   1.347054350400000e+01  1.56798724e+00  -6.06373390e-01   1.47272400e-02
C     2.481948280050000e+00   2.960470791995917e+00   3.561398136000000e+00  1.74401787e+00  -9.96524860e-01  -3.23086870e-01
C     3.749428244625000e+00   3.640022686923223e+00   3.489679352000000e+00 -1.17701382e+00   9.83346880e-01   7.16542210e-01
C     3.694634622375000e+00   2.075412794684229e+00   1.345311632800000e+01 -6.41184940e-01   9.94197570e-01  -4.73262780e-01
C     4.931704276350000e+00   2.780717619403324e+00   1.334801158400000e+01 -5.59383360e-01  -3.06005500e-02   4.38779190e-01
C     4.951927419825000e+00   2.924950664499264e+00   3.563313696000000e+00  3.07062970e-01  -1.57017981e+00  -1.01275080e+00
C     6.176985005550000e+00   3.604957645990101e+00   3.549198664000000e+00  2.02132710e+00   1.18033771e+00  -3.44337800e-02
C     6.149443326375000e+00   2.051381713660680e+00   1.332501344000000e+01  1.20580210e-01   6.26817780e-01   2.33759280e-01
C     7.371118956749999e+00   2.802517841243921e+00   1.330456352800000e+01  5.10059120e-01  -1.50272883e+00   5.09579000e-01
C     7.465190936625000e+00   2.938889915987025e+00   3.559594368000000e+00 -2.82135041e+00  -1.97457651e+00   1.06535380e-01
C     8.657492887499998e+00   3.646846615800789e+00   3.564680224000000e+00  2.83134230e-01   6.69706820e-01  -1.91190220e-01
C     2.450517200625000e+00   4.228579363833825e+00   1.346839960000000e+01 -7.23936590e-01   3.12550410e-01   4.22988000e-02
C     3.684272156775000e+00   4.945423316322490e+00   1.341985304000000e+01  2.34232160e-01  -1.51821510e+00  -1.04787170e-01
C     3.771376345800000e+00   5.084854064619529e+00   3.510788728000000e+00 -9.51142570e-01  -8.31754540e-01   2.01177700e-02
C     4.991855539125000e+00   5.784023226053272e+00   3.515711248000000e+00  2.63435230e-01  -2.91623230e-01   2.81359040e-01
C     4.910059555049999e+00   4.206136218546662e+00   1.335088132000000e+01  2.99725520e-01   5.92010350e-01   3.66892950e-01
C     6.129904442250000e+00   4.939809151754678e+00   1.335759686400000e+01  7.29903960e-01  -8.48442630e-01  -3.57197550e-01
C     6.214914256349999e+00   5.031468555354041e+00   3.526299664000000e+00 -7.97407980e-01   8.28793710e-01   1.38457020e-01
C     7.420050007875000e+00   5.790696590828550e+00   3.551756008000000e+00  5.61183270e-01  -1.75585289e+00  -3.72085030e-01
C     7.374250702274999e+00   4.202113896312532e+00   1.329308268000000e+01 -5.70791700e-01   1.14141833e+00   1.17722637e+00
C     8.588865512700000e+00   4.925792536831968e+00   1.346721436000000e+01  8.98121390e-01  -1.81054770e-01  -8.73549400e-01
C     8.657591758650000e+00   5.060185247598281e+00   3.540131000000000e+00  4.80904400e-01   1.32534515e+00   2.25361320e-01
C     9.914077724624999e+00   5.788307418391298e+00   3.554719992000000e+00 -4.65366660e-01  -2.10226850e+00  -5.06335380e-01
C     7.409735498850000e+00   5.427890323695841e-02   6.704574784000000e+00  1.47904115e+00  -6.15802520e-01   6.61754400e-01
C     1.256942496300000e+00   7.755389757755640e-01   6.826468048000000e+00 -3.47492480e-01  -7.58141570e-01  -1.38365090e-01
C     1.174053753075000e+00   6.235540888807231e-01   1.025648324800000e+01  9.95867880e-01   4.98525320e-01  -6.80735750e-01
C     2.402805954750000e+00   1.325062597625567e+00   1.018810394400000e+01  8.22487170e-01   8.09636940e-01   2.24508460e-01
C     2.492501647575000e+00   7.927619464384621e-02   6.908411856000001e+00 -4.81745060e-01  -1.76517073e+00  -1.89258740e-01
C     3.739603765275000e+00   7.350861607899811e-01   6.943000872000000e+00  1.97100890e-01   1.90719400e-01  -9.97318800e-02
C     3.657575504250000e+00   6.102291978494712e-01   1.008605471200000e+01 -1.29824800e+00   1.58239876e+00   9.89291120e-01
C     4.877124850275000e+00   1.342776582738591e+00   1.020060193600000e+01  6.92690600e-01   1.06807580e-01  -5.21103630e-01
C     4.989999579000000e+00   3.646353872201040e-02   6.889902664000000e+00  3.56155200e-02   5.54983220e-01  -6.73203960e-01
C     6.233631703875000e+00   7.916118057693847e-01   6.758445880000000e+00 -2.42527201e+00  -1.14707647e+00   6.65944470e-01
C     6.120477148350000e+00   6.616150416407532e-01   1.017453032800000e+01  1.73813500e-02  -1.07989130e+00   2.14280670e-01
C     7.367495443725000e+00   1.364700278670729e+00   1.024150461600000e+01 -1.31511067e+00  -3.40085420e-01   3.52611300e-02
C     8.636744255324999e+00   2.172029734293019e+00   6.853601544000000e+00  8.60854000e-02   1.55909231e+00   2.39105360e-01
C     2.500778797125000e+00   2.867732591160037e+00   6.950053560000001e+00 -1.25765388e+00   5.86778700e-02  -1.06218817e+00
C     2.414912420175000e+00   2.784541921984423e+00   1.026230704000000e+01  6.71838040e-01  -1.89637928e+00  -3.71275620e-01
C     3.633162723524999e+00   3.483591003583291e+00   1.028739360000000e+01  1.50407927e+00  -1.82034930e-01  -3.36230760e-01
C     3.706011312225000e+00   2.142631885182789e+00   6.950560567999999e+00  1.69094531e+00   1.64604491e+00   3.49192000e-03
C     4.958108715450000e+00   2.913288703063939e+00   6.921068151999999e+00 -1.26830492e+00  -1.74705600e+00  -2.66937540e-01
C     4.904305838325000e+00   2.767266564492230e+00   1.026804624000000e+01 -2.30484715e+00  -4.09664110e-01  -2.26675310e-01
C     6.100119194025000e+00   3.463150405686371e+00   1.022158197600000e+01  1.32692672e+00   6.86511360e-01   2.28022910e-01
C     6.182440740750000e+00   2.200256821023862e+00   6.832622728000000e+00  5.70402390e-01   7.88557890e-01  -5.28626600e-02
C     7.404054844725000e+00   2.934079421738065e+00   6.808340471999999e+00  4.25045720e-01  -8.74303470e-01   2.95975170e-01
C     7.349992181250000e+00   2.775915578774739e+00   1.025281301600000e+01  9.42012210e-01   2.63920530e-01  -5.60681710e-01
C     8.622553398225000e+00   3.488274949696938e+00   1.021321457600000e+01 -2.66481975e+00   5.44122770e-01   1.96486420e-01
C     9.863456805075000e+00   4.288677816188166e+00   6.790208816000000e+00  1.17060311e+00   1.48055450e-01   7.49529930e-01
C     3.705999221400000e+00   5.013588379749550e+00   6.759882856000000e+00 -7.54853710e-01   6.89921740e-01   2.40985350e-01
C     3.635682200025000e+00   4.894461562486696e+00   1.025329731200000e+01  5.05246770e-01   4.70347000e-01  -3.34483710e-01
C     4.887729613049999e+00   5.619253006851885e+00   1.022164059200000e+01 -1.07933798e+00  -1.00770898e+00   2.13874220e-01
C     4.925239974075000e+00   4.313798389558858e+00   6.876533048000000e+00  7.05452600e-01   5.16666430e-01  -1.87058750e-01
C     6.158948822399999e+00   5.034944402264977e+00   6.889279239999999e+00  1.44926370e-01   1.15529204e+00  -1.13442730e-01
C     6.095375005725000e+00   4.887504617173379e+00   1.019769493600000e+01  4.31482880e-01   8.19944620e-01  -3.44663710e-01
C     7.317789174750000e+00   5.626461383328786e+00   1.010263909600000e+01  1.24492436e+00  -1.82869134e+00   3.06951850e-01
C     7.393283028899999e+00   4.358338529995851e+00   6.854799568000000e+00  4.98336010e-01  -1.05323750e+00   1.09312510e-01
C     8.657825477625000e+00   5.019898174806115e+00   6.841072272000000e+00 -4.37364940e-01   7.00773390e-01  -6.38242900e-02
C     8.589454413525001e+00   4.915466119330768e+00   1.014847708000000e+01 -9.90597010e-01  -3.39630430e-01  -8.40013000e-03
C     9.804302351324999e+00   5.606887345562904e+00   1.016138416000000e+01  5.76065750e-01   1.45871900e+00   2.41380110e-01
