72
Lattice="7.395 0 0 3.6975 6.40425786098592 0 0 0 13.6 " PBC="1 1 1" Properties=species:S:1:pos:R:3:force:R:3 Energy="-566.47019606"
C     1.097066264220000e+01   6.370841723338092e+00   1.316738264000000e+01  3.45382155e+00  -2.34365230e+00   8.05131000e-02
C     1.235240611650000e+00   5.559713005782937e-01   1.307006144800000e+01 -2.61759104e+00   2.34388517e+00   4.95315930e-01
C     1.254130362675000e+00   7.875361360672807e-01   3.464836368000000e+00  4.41188400e-01   1.65058026e+00   5.20660740e-01
C     2.505741655575000e+00   1.467184158905065e+00   3.396841536000000e+00  3.06142178e+00  -1.22402126e+00   1.46177832e+00
C     6.240951348825000e+00   6.284555171870376e+00   1.316442477600000e+01 -7.31121175e+00  -2.59485270e-01   8.32036110e-01
C     3.656015935725000e+00   5.585130864803490e-01   1.323365340000000e+01  1.89862671e+00   4.81858927e+00  -1.34599270e+00
C     3.869539609425000e+00   9.134534519816707e-01   3.701225176000000e+00 -4.62240441e+00  -4.89123203e+00  -1.22573297e+00
C     5.098559990775000e+00   1.592499602665772e+00   3.815720176000000e+00 -4.84488411e+00   9.90856610e-01  -1.00201387e+00
C     8.535747116774999e+00   6.347994597465122e+00   1.310499495200000e+01  5.31677630e+00  -1.30472247e+00   1.67871966e+00
C     6.065162104650001e+00   6.879638235838368e-01   1.326792376800000e+01  1.25520616e+00  -4.81786250e-01  -3.09399470e-01
C     6.186897744225000e+00   8.535006324510666e-01   3.813362344000000e+00  5.30751338e+00  -2.41498005e+00  -1.40134462e+00
C     7.435629904800000e+00   1.557264848899360e+00   3.533630200000000e+00 -8.45366860e-01  -4.90741500e-02   7.96790160e-01
C     8.552656486800000e+00   2.029927385787101e+00   1.300533170400000e+01  2.56852480e+00   7.98835300e-02   1.49877333e+00
C     2.495309824875000e+00   2.705489684237941e+00   1.279272372000000e+01 -2.54241646e+00   1.23283420e+00   1.48730275e+00
C     2.521649224950000e+00   2.825820373893317e+00   3.529253856000000e+00  3.19963820e-01   3.72477814e+00   4.83693200e-02
C     3.613918123425000e+00   3.631461731186289e+00   3.784430656000000e+00  7.24018869e+00   7.30134920e-01  -3.47984770e-01
C     3.685222192425000e+00   1.995585385566373e+00   1.297395609600000e+01  1.08063835e+00   1.20402162e+00   2.82427356e+00
C     4.865261458499999e+00   2.771467309350340e+00   1.343236286400000e+01  7.51647700e-01   7.93700170e-01  -1.67045032e+00
C     5.032613562300000e+00   2.957606679795768e+00   3.712159168000000e+00 -8.89220260e-01   4.71997805e+00   4.45984170e-01
C     6.283185931649999e+00   3.805598946018870e+00   3.652948032000000e+00 -3.33683967e+00  -5.27981124e+00   3.11849220e-01
C     6.147879801525000e+00   2.059100509489023e+00   1.354872487200000e+01 -5.20737910e-01   2.05309303e+00  -3.69680650e-01
C     7.444367984699999e+00   2.790027873309877e+00   1.355149913600000e+01 -1.22135780e+00   1.62497490e-01  -1.63606014e+00
C     7.449535721624999e+00   3.008910228873549e+00   3.519135456000000e+00  2.86703883e+00   2.99322530e-01   4.29678300e-02
C     8.850053104275000e+00   3.676540405666728e+00   3.525477272000000e+00 -7.84253814e+00  -1.26224579e+00   6.06512000e-03
C     2.514282030150000e+00   4.164211384891959e+00   1.284386284800000e+01 -2.45254439e+00  -1.64921552e+00   1.50499864e+00
C     3.640128887475000e+00   4.869963867235468e+00   1.310442960000000e+01  2.09918248e+00   3.57260728e+00   2.20704870e-01
C     3.679798699425000e+00   5.115121804074882e+00   3.922294128000000e+00  4.61328530e-01  -1.54157543e+00  -1.89986905e+00
C     4.978393422300000e+00   5.852787599930871e+00   3.771951296000000e+00 -3.60345085e+00  -1.80329055e+00   5.93264500e-02
C     4.881296369775000e+00   4.267089319112420e+00   1.334917492800000e+01  1.33962512e+00  -3.11891511e+00   8.34997220e-01
C     6.179589709425000e+00   4.954188183629685e+00   1.350638780000000e+01 -6.55062020e-01  -1.70003664e+00  -5.89633460e-01
C     6.166193075324999e+00   5.167662591728637e+00   3.759880343999999e+00  3.25933645e+00   4.97756000e-03  -9.72263590e-01
C     7.455632418450000e+00   5.740424127266229e+00   3.668723352000000e+00  2.99129220e-01   5.15372205e+00   5.21442350e-01
C     7.443145887000000e+00   4.321340363827687e+00   1.358813971200000e+01  1.62021074e+00  -4.34939120e+00  -2.22132166e+00
C     8.713320330749999e+00   4.936110692840527e+00   1.308432662400000e+01 -3.84454428e+00  -9.75237330e-01   1.75054903e+00
C     8.692747662599999e+00   5.075195291000235e+00   3.682267320000000e+00 -6.52049350e-01  -1.78373985e+00  -5.97826770e-01
C     9.837039720525000e+00   5.796833663050631e+00   3.755564928000000e+00  3.50877719e+00   2.94020996e+00   1.26031713e+00
C     8.165954632500000e-02   1.181141760100302e-01   7.374819231999999e+00 -4.43276910e+00  -2.29072810e+00  -1.21027565e+00
C     1.222551568125000e+00   7.158768455092254e-01   6.986240576000000e+00  3.59320869e+00   3.14650604e+00  -1.89093576e+00
C     1.136502312825000e+00   5.871165514456242e-01   1.014480059200000e+01  1.61577773e+00  -1.10201280e-01   9.41613420e-01
C     2.373017896425000e+00   1.335529780714529e+00   1.022457030400000e+01  1.04612652e+00  -1.13311316e+00   2.21696800e-02
C     2.431711197974999e+00   2.497935948487980e-02   6.662316184000000e+00  1.69364055e+00   2.49694950e+00   7.98305510e-01
C     3.618104580824999e+00   8.746993663934527e-01   6.544799264000000e+00  1.74992715e+00  -1.60078380e+00   7.56493330e-01
C     3.629620000875000e+00   7.105482467993911e-01   1.060801183200000e+01  6.95291900e-01  -3.01752211e+00  -3.39958734e+00
C     4.896347856975000e+00   1.385353754098915e+00   1.029658910400000e+01 -2.74166164e+00  -2.85963384e+00   1.59005569e+00
C     4.832730853499999e+00   1.185753466185288e-01   6.823396215999999e+00  9.59112020e-01  -1.12992794e+00   1.36424257e+00
C     6.078096477300000e+00   7.526212109383968e-01   7.218698576000000e+00  1.78700382e+00   1.11162087e+00  -1.57793030e+00
C     6.082304158349999e+00   5.304828666361224e-01   1.043386424000000e+01 -6.92242900e-02   2.20102522e+00  -1.82843802e+00
C     7.298382698100000e+00   1.211402518914588e+00   1.012275594400000e+01 -2.04342970e-01   2.97816435e+00   8.46065920e-01
C     1.341913301775000e+00   2.178099433722413e+00   6.771784080000000e+00 -2.60529752e+00  -2.41648790e-01   1.29074591e+00
C     2.475400007550000e+00   3.042479363255733e+00   6.540445768000001e+00  1.52564762e+00  -7.59508050e-01   2.36269707e+00
C     2.394976535475000e+00   2.704647908584823e+00   9.990778279999999e+00 -6.90499350e-01   2.57677688e+00   2.79389540e-01
C     3.656113401825000e+00   3.434518505816198e+00   9.875143328000000e+00 -4.47968002e+00   2.36592684e+00   1.77737096e+00
C     3.742486373250000e+00   2.318910299588283e+00   6.482274216000000e+00 -4.55408339e+00  -3.22106044e+00   5.13781910e-01
C     4.939737686700000e+00   2.846476154854332e+00   6.646105663999999e+00  4.56832406e+00   5.37355761e+00   1.87094707e+00
C     4.777223872575000e+00   2.775673177614737e+00   1.005537760000000e+01  6.88587636e+00  -1.76892425e+00   5.94058790e-01
C     6.060791770574999e+00   3.494434949162157e+00   1.021088340000000e+01  8.40585910e-01  -1.58518547e+00  -2.02272610e-01
C     6.164166660450000e+00   2.169415067936517e+00   6.995373520000000e+00 -3.39107840e-01  -1.89035144e+00  -9.60667700e-02
C     7.463465461275000e+00   2.783900983857794e+00   7.029298720000000e+00 -7.66906700e-02   2.51864893e+00  -1.63181696e+00
C     7.319302746375000e+00   2.721522871875608e+00   1.015808752000000e+01 -2.82911721e+00  -1.22117198e+00   6.30647400e-02
C     8.506651045575000e+00   3.439782933862275e+00   1.016044331200000e+01  1.88971165e+00  -2.70175353e+00  -8.13439400e-01
C     9.917832646799999e+00   4.425619741795653e+00   7.005220191999999e+00 -4.87808780e-01  -9.79134670e-01  -1.12252640e+00
C     3.824450482650000e+00   5.087029975270044e+00   7.237402384000000e+00 -9.87488190e-01  -1.06539994e+00  -2.36868701e+00
C     3.734232665850000e+00   4.881770821068742e+00   1.012433558400000e+01 -4.53470640e+00  -9.19639870e-01   1.74532710e-01
C     4.929905627475000e+00   5.584198468901653e+00   1.022286472800000e+01 -2.01300112e+00   1.32789004e+00   1.48452200e-02
C     5.036826456825001e+00   4.373111936069877e+00   6.810502872000000e+00 -1.52600833e+00  -1.20941981e+00   1.03231895e+00
C     6.298208467425000e+00   5.063113210249295e+00   6.744703896000000e+00 -2.13286500e+00  -3.64184429e+00   7.98068540e-01
C     6.112911138975000e+00   4.908627652787859e+00   1.039837123200000e+01  5.08746650e-01  -2.71139505e+00  -7.67336000e-01
C     7.334625777974999e+00   5.493133764687169e+00   1.062593935200000e+01 -3.47025200e-01   5.03884813e+00  -9.86711150e-01
C     7.485824872349999e+00   4.208177383611802e+00   6.864818823999999e+00 -1.69198511e+00   2.38469645e+00  -3.07678720e-01
C     8.589468685875000e+00   5.041664966420683e+00   6.931703080000000e+00  2.68049157e+00   1.10481327e+00   1.36164440e-01
C     8.489588599050000e+00   4.773206226081494e+00   1.044181412000000e+01  3.43671389e+00   2.98038458e+00  -2.97559730e-01
C     9.782865762300000e+00   5.538465215225343e+00   1.043640322400000e+01  9.38706780e-01  -1.56277510e+00  -1.79450016e+00
