72
Lattice="7.395 0 0 3.6975 6.40425786098592 0 0 0 13.6 " PBC="1 1 1" Properties=species:S:1:pos:R:3:force:R:3 Energy="-579.30483154"
C     3.686623027275000e+00   6.209924946091067e+00   1.350617768000000e+01  8.04193020e-01   2.09239878e+00   4.81299520e-01
C     1.233529112850000e+00   6.041643656560512e-01   1.357871640800000e+01 -8.45002170e-01  -1.22239875e+00  -5.23567020e-01
C     1.396731697275000e+00   9.251793919530162e-01   3.651574296000000e+00 -1.38256226e+00   1.17595624e+00  -3.42917550e-01
C     2.554886237324999e+00   1.751161760933185e+00   3.761818480000000e+00  8.98235550e-01  -2.91119491e+00  -5.50599900e-01
C     6.138697097250000e+00   6.255799221525454e+00   1.344822236800000e+01  3.41152720e-01   4.77332650e-01   6.00350470e-01
C     3.677685837000000e+00   5.679862006642825e-01   1.346116100000000e+01 -2.43493030e-01   4.93690630e-01   1.25044730e-01
C     3.764978154825000e+00   9.622672177312196e-01   3.663286888000000e+00  1.13125905e+00  -7.56405070e-01  -5.34275560e-01
C     5.041613351250000e+00   1.627205877073577e+00   3.521543608000000e+00 -1.68997402e+00   4.34490070e-01   9.78946250e-01
C     8.623944730500000e+00   6.299017202927249e+00   1.338811744000000e+01 -7.07931550e-01  -2.28131798e+00   7.61511650e-01
C     6.166931613975000e+00   5.730770092797750e-01   1.346515967200000e+01 -1.30022580e-01  -1.62404532e+00  -9.22736100e-02
C     6.247020942975000e+00   9.482727615407047e-01   3.469123088000000e+00  2.03935684e+00  -1.81160670e-01   1.45379710e-01
C     7.520104875524999e+00   1.591283562183315e+00   3.587861968000000e+00 -1.95076720e-01   2.79237344e+00   1.51214540e-01
C     1.208715005475000e+00   2.070123902373127e+00   2.624936000000000e-02  3.18324310e-01  -4.04663413e+00  -3.75244190e-01
C     2.421341522250000e+00   2.748396482750318e+00   6.600324800000000e-02  1.31175099e+00  -1.29845586e+00  -3.66772700e-01
C     2.546386905000000e+00   3.161260670807039e+00   3.726961408000000e+00  2.69059739e+00  -2.46677287e+00  -5.79263580e-01
C     3.832581802800000e+00   3.756325866895602e+00   3.543522432000000e+00 -5.25037100e-01   2.68301246e+00   4.45977630e-01
C     3.643423433925000e+00   1.982517753573357e+00   2.660704000000000e-03  1.87855952e+00   7.94844120e-01  -6.14808390e-01
C     4.952332665825000e+00   2.688237125903730e+00   1.349417024000000e+01 -2.20917576e+00  -2.62335660e-01   1.43242310e-01
C     5.055930404025000e+00   3.029694479247236e+00   3.598744960000000e+00 -9.43112050e-01   1.41921768e+00  -8.75208320e-01
C     6.251646774300000e+00   3.806520262554610e+00   3.575976656000000e+00  1.14676610e+00  -4.55449604e+00   3.09523750e-01
C     6.179222030025000e+00   1.977622466950330e+00   1.345099119200000e+01 -2.60234152e+00  -1.33948753e+00   1.25081510e-01
C     7.355137326450000e+00   2.639639247686641e+00   1.346814840800000e+01  1.65993925e+00   2.79519811e+00  -4.41599400e-02
C     7.494832241175000e+00   3.079853523402857e+00   3.663436895999999e+00  6.60957090e-01  -1.22267498e+00  -3.22184810e-01
C     8.745868129125000e+00   3.801144976804976e+00   3.691626296000000e+00 -2.18660148e+00   1.24623146e+00  -5.73731750e-01
C     2.460425169525000e+00   4.136550562641097e+00   1.358868044800000e+01 -1.74122783e+00   2.22162440e-01  -1.15350940e-01
C     3.690198066075000e+00   4.781811435240240e+00   1.356604297600000e+01 -1.32530100e-02   2.44858253e+00  -5.81091070e-01
C     3.858672730875000e+00   5.240991600395952e+00   3.426546384000000e+00 -4.96694350e-01  -9.73339850e-01   5.88039480e-01
C     5.121456167924999e+00   5.919377215924372e+00   3.494402224000000e+00 -2.06805687e+00  -4.95881000e-02   4.07865200e-01
C     4.910163972449999e+00   4.117271248821931e+00   1.346183542400000e+01  9.67514990e-01  -1.00468326e+00   5.20835720e-01
C     6.132174818175001e+00   4.834766578377536e+00   1.340807326400000e+01  4.47748330e-01  -1.05206117e+00  -5.44324910e-01
C     6.279711058124999e+00   5.144486351044240e+00   3.578086288000000e+00  9.62321520e-01   3.60571257e+00   3.08344000e-03
C     7.501314883050000e+00   5.878723691497457e+00   3.623474656000000e+00  4.23822420e-01   1.94383331e+00  -2.91207440e-01
C     7.350117230699999e+00   4.028192761140148e+00   1.334128638400000e+01  5.90132910e-01   4.20461565e+00   1.22912002e+00
C     8.592674788124999e+00   4.815786279357854e+00   1.346175545600000e+01  1.86994870e-01   6.02082340e-01  -5.90366040e-01
C     8.768046917325000e+00   5.214422640067641e+00   3.554182656000000e+00 -8.47893010e-01   8.89971380e-01   2.28121160e-01
C     9.987509076300000e+00   5.974567765267702e+00   3.440450616000000e+00  3.18096400e-01  -3.15050958e+00   2.63807700e-01
C     7.434099916275000e+00   1.323015284472882e-01   6.933168071999999e+00 -2.27102800e-02  -7.19266260e-01   1.16589200e-01
C     1.239081907425000e+00   8.600684550568111e-01   7.010557920000000e+00  1.34201207e+00   9.30069600e-02  -6.10469950e-01
C     1.100068368000000e+00   4.874644419092449e-01   9.947505527999999e+00  1.13132250e+00  -1.98166260e-01  -8.11547200e-02
C     2.308196469300000e+00   1.200528857579251e+00   1.007042246400000e+01  1.73546223e+00  -8.01564200e-02   4.25515000e-03
C     2.505686414925000e+00   1.696895858339682e-01   6.916793263999999e+00 -1.18432348e+00  -1.63289164e+00   2.06031330e-01
C     3.767490088425000e+00   8.241670820897514e-01   6.894245416000000e+00 -3.08781770e-01  -1.91638070e-01   3.70287840e-01
C     3.572929635075000e+00   4.420310355859398e-01   1.006733404000000e+01 -2.07546370e-01   2.22569909e+00  -1.61601280e-01
C     4.844286650250000e+00   1.203595856668405e+00   9.999123647999999e+00 -3.04716442e+00  -1.11403442e+00   2.61288290e-01
C     5.017300181175000e+00   1.093897836125094e-01   6.921965071999999e+00 -4.48993290e-01   1.41099313e+00  -3.10419240e-01
C     6.259233785475000e+00   8.600724256966842e-01   6.951540040000000e+00 -2.45754249e+00   5.95679990e-01  -2.75565480e-01
C     6.029466624524999e+00   5.580081747906667e-01   9.866546088000000e+00  1.95218148e+00  -3.16132108e+00   2.39061500e-01
C     7.308719170274999e+00   1.181126582009174e+00   9.828702455999998e+00 -2.02678100e+00   2.60007754e+00   7.62442640e-01
C     8.612854744800000e+00   2.277056425110668e+00   7.071122936000000e+00  9.28550930e-01   9.98000560e-01  -5.34508460e-01
C     2.512443633150000e+00   2.933429325522696e+00   7.074281128000001e+00 -1.85909678e+00   1.01491840e+00  -1.08740623e+00
C     2.329903308600000e+00   2.655260257288439e+00   1.009576783200000e+01  1.09251468e+00  -2.19827701e+00  -2.61112930e-01
C     3.585965356200000e+00   3.295240563111697e+00   1.004654603200000e+01 -6.25606270e-01   1.89633347e+00  -2.07750170e-01
C     3.731619642600000e+00   2.239050356840497e+00   6.952575408000000e+00  3.65093550e-01   8.93859100e-02   3.13668860e-01
C     4.945777774800000e+00   2.970305810791519e+00   6.966098975999999e+00  1.47298400e-02   3.88666580e-01  -2.73887190e-01
C     4.812511666350000e+00   2.575994757755219e+00   9.990783448000000e+00 -5.21567370e-01   2.24368577e+00  -3.47387220e-01
C     5.990377098224998e+00   3.315038749902680e+00   9.810354288000001e+00  2.54826927e+00   8.39027900e-01   1.33199112e+00
C     6.201241714799999e+00   2.311019357308662e+00   6.970366248000000e+00 -1.15852550e-01  -3.88436240e-01  -2.69095840e-01
C     7.395818663475000e+00   3.089869014184953e+00   6.999337648000000e+00  1.17806840e+00  -3.34821749e+00  -1.15069890e-01
C     7.291184331149999e+00   2.624796611585148e+00   9.847133176000000e+00 -1.75376130e-01   5.71210290e-01   4.82150790e-01
C     8.552362942275000e+00   3.378086363001551e+00   9.985575327999999e+00 -2.52629492e+00  -1.28180032e+00  -2.32759100e-02
C     9.861713248950000e+00   4.380822214235267e+00   6.962170888000000e+00  5.59401430e-01  -1.17178704e+00   2.96540910e-01
C     3.659519243025000e+00   5.102985991600497e+00   6.928977096000000e+00  1.93564437e+00   4.32695640e-01   6.03223000e-03
C     3.540714204975000e+00   4.734262766588356e+00   9.901421928000000e+00  1.02206721e+00   1.17887031e+00   4.49659200e-01
C     4.816137730650000e+00   5.489366460001023e+00   9.874934840000000e+00 -2.02863287e+00  -1.29527948e+00   6.36326140e-01
C     4.906400139300001e+00   4.400610346341409e+00   6.966327455999999e+00  1.65051250e-01  -3.81272160e-01  -4.75842310e-01
C     6.126629344650000e+00   5.107777977544242e+00   6.921803096000000e+00  2.01874133e+00   2.23100523e+00  -9.32845900e-02
C     6.012214163474999e+00   4.783128022571098e+00   9.898008328000000e+00  6.94943230e-01  -2.14505416e+00   2.91282100e-02
C     7.264650294675000e+00   5.446072716228745e+00   9.998040136000000e+00 -8.78896600e-02   4.18391190e-01  -7.96575800e-02
C     7.432939640774999e+00   4.475334906838997e+00   6.934432328000000e+00 -2.72118452e+00  -9.43497150e-01   7.50802800e-02
C     8.663334345899999e+00   5.103000273095525e+00   6.939262911999999e+00  4.08614010e-01   1.34968553e+00  -1.91365400e-01
C     8.528647879799999e+00   4.776619183180244e+00   9.992009079999999e+00 -1.89838600e+00   6.81935700e-02  -1.08897960e-01
C     9.683349657375000e+00   5.511828433806295e+00   9.908694256000000e+00  3.20405062e+00  -3.45547600e-01   2.95920050e-01
