72
Lattice="7.395 0 0 3.6975 6.40425786098592 0 0 0 13.6 " PBC="1 1 1" Properties=species:S:1:pos:R:3:force:R:3 Energy="-576.02659027"
C     4.311662145000000e-02   2.863138752954481e-02   1.350862908000000e+01 -3.64311550e-01  -1.81026255e+00   2.34160390e-01
C     1.332474138900000e+00   6.679114517983908e-01   1.357421045600000e+01 -2.79047820e+00   2.37160873e+00  -8.09763010e-01
C     1.232992087950000e+00   7.941163188906949e-01   3.460535912000000e+00  1.41520322e+00  -2.68477823e+00  -1.03114919e+00
C     2.467530248550000e+00   1.478145622615662e+00   3.444882719999999e+00 -1.85625280e-01   4.61225110e-01  -6.57599270e-01
C     6.235333848000000e+00   6.387840288805576e+00   1.354928709600000e+01 -1.45087845e+00   1.02786600e+00   2.08704440e-01
C     3.742249844175000e+00   7.386058128246799e-01   1.350871312800000e+01 -2.35776015e+00  -1.27645212e+00  -6.19273400e-01
C     3.659681230500000e+00   7.247591028629953e-01   3.403617328000000e+00 -6.87113400e-02   5.23125090e-01   2.32587970e-01
C     4.883115465825000e+00   1.374266190551054e+00   3.449387312000000e+00  1.38927619e+00   1.11694073e+00  -3.30950570e-01
C     8.571387504150000e+00   6.372362734579842e+00   1.356117907200000e+01  1.92185504e+00   1.08364478e+00  -2.23776800e-01
C     6.112189756725000e+00   5.505878173785990e-01   1.359845939200000e+01  3.04931378e+00   5.92734215e+00  -4.50044050e-01
C     6.165740131574999e+00   6.531488048775690e-01   3.451226848000000e+00 -9.60884300e-02   2.33407423e+00  -4.03475320e-01
C     7.407640976024999e+00   1.430866637262262e+00   3.379476920000000e+00 -1.01891098e+00  -1.61905918e+00   5.28831420e-01
C     1.292020641825000e+00   2.094884684537245e+00   1.351170254400000e+01 -2.02464190e+00   2.35832398e+00   9.81897540e-01
C     2.495735961750000e+00   2.844449335326800e+00   1.354828899200000e+01 -1.36651956e+00   1.42898188e+00  -1.80237287e+00
C     2.495766170325000e+00   2.891181653229269e+00   3.362682416000000e+00 -2.48775861e+00   1.87299849e+00   6.40828690e-01
C     3.679510516275000e+00   3.647382588141092e+00   3.510202160000000e+00  1.67471845e+00  -2.88059691e+00  -1.31173989e+00
C     3.719310997875000e+00   2.114787837114553e+00   1.334434747200000e+01 -8.46132410e-01   1.34802251e+00   3.21281687e+00
C     4.912909033425000e+00   2.756427614234494e+00   9.935860800000000e-02  5.29677220e-01   3.18049842e+00  -2.12581645e+00
C     4.837939817550000e+00   2.806679199916192e+00   3.444602152000000e+00  3.88429234e+00   7.78641410e-01   1.07884153e+00
C     6.193930500150000e+00   3.431759103232060e+00   3.504705040000000e+00 -2.45602105e+00   3.95991758e+00  -1.09079208e+00
C     6.102598182900000e+00   2.036156166981737e+00   3.106212800000000e-02  2.66461210e+00   1.20036786e+00   4.73843620e-01
C     7.352194818975000e+00   2.900837096634477e+00   1.358528752000000e+01  1.17090442e+00  -3.41407588e+00   2.53045060e-01
C     7.448258826975000e+00   2.813515040713377e+00   3.371187856000000e+00 -2.02569605e+00   1.45882902e+00   7.52860900e-02
C     8.588956249350000e+00   3.633200423152701e+00   3.303738384000000e+00  2.45707098e+00  -1.39448078e+00   1.81332213e+00
C     9.779817580274999e+00   4.338171201781817e+00   1.349330718400000e+01  3.43573681e+00  -2.11298098e+00  -1.38343500e-01
C     3.716405354475000e+00   5.039259911423938e+00   1.343611265600000e+01 -9.41013310e-01  -3.01476902e+00   1.43507019e+00
C     3.768504016875000e+00   5.043226708742423e+00   3.443650696000000e+00 -9.86828660e-01  -9.40759080e-01   8.85612900e-02
C     4.982577661200000e+00   5.746613970573075e+00   3.382029776000000e+00  5.34018520e-01  -9.01319220e-01   1.01174673e+00
C     4.938242639549999e+00   4.251469654404773e+00   4.358963200000000e-02 -1.20601881e+00  -1.95852100e-01  -5.09380550e-01
C     6.143564671125000e+00   5.000238768282959e+00   4.469925600000000e-02 -2.09486000e-01  -7.98557370e-01   7.06251400e-02
C     6.210171436125000e+00   4.937167075174535e+00   3.441222960000000e+00 -1.04182443e+00   4.42102580e-01  -3.91572820e-01
C     7.403717595750000e+00   5.752724657252774e+00   3.378753944000000e+00 -1.11022007e+00  -2.81195156e+00   1.41136867e+00
C     7.362765158025001e+00   4.353170357945409e+00   3.022436800000000e-02 -5.99248570e-01  -4.92146194e+00  -5.11615160e-01
C     8.553882245025001e+00   5.021138551468440e+00   1.350283248800000e+01  1.41292594e+00  -2.37298314e+00   7.38596490e-01
C     8.610749758049998e+00   5.057264137503178e+00   3.559546904000000e+00  9.26240480e-01  -2.64436719e+00  -2.52276792e+00
C     9.899049938399999e+00   5.646265269909264e+00   3.463260536000000e+00 -7.61647900e-01   2.88348043e+00   5.83096170e-01
C     2.171526960000000e-02   4.533958394565600e-03   6.902155584000000e+00  2.72238300e-02   4.51083870e-01   6.43437370e-01
C     1.253389346700000e+00   7.669707191846701e-01   6.868876792000000e+00 -1.11100967e+00  -2.01460424e+00  -3.99296530e-01
C     1.267018368675000e+00   6.499368133904647e-01   1.019789390400000e+01 -3.15772807e+00   1.94988392e+00   1.51071840e-01
C     2.452048409325000e+00   1.358412322133467e+00   1.013813400800000e+01 -4.15411000e-03   1.62032693e+00   1.04520281e+00
C     2.468575199025000e+00   6.836116180273380e-02   6.698212703999999e+00  2.86745300e-01  -1.90394697e+00   1.03320382e+00
C     3.767667605400000e+00   6.386424563563045e-01   6.649007768000001e+00 -2.56917150e-01   1.50925729e+00   5.12142720e-01
C     3.630723963450000e+00   6.639998591826600e-01   1.034734090400000e+01  2.96216158e+00   1.42832903e+00  -2.00222861e+00
C     4.922879601000000e+00   1.398007094650967e+00   1.017987009600000e+01 -5.65882710e-01   4.53555320e-01   2.04046744e+00
C     5.055294618900000e+00   7.941023576085601e-03   6.816308031999999e+00 -2.46242207e+00  -1.16668090e-01   4.64035440e-01
C     6.237079437750000e+00   7.916911545242700e-01   6.997518239999999e+00 -6.94080100e-01  -1.32113826e+00  -2.24699244e+00
C     6.200432442974999e+00   7.343020234576026e-01   1.028660235200000e+01 -1.74165575e+00  -3.32940030e-01  -1.27091097e+00
C     7.379047912724999e+00   1.517872963270864e+00   1.020637568000000e+01  2.26680041e+00  -4.45427207e+00  -4.01671620e-01
C     8.602268210700000e+00   2.149548547714168e+00   6.902931327999999e+00  4.56491950e-01   4.00879300e-02  -1.56032805e+00
C     2.457912200625000e+00   2.734305386308696e+00   6.689220384000000e+00  7.11618180e-01   2.60773471e+00   1.57619542e+00
C     2.470925625825000e+00   2.798870168094601e+00   1.014551459200000e+01  9.53642400e-02   1.35694824e+00   7.24515000e-03
C     3.682858935300000e+00   3.582102642879962e+00   1.011824604800000e+01  1.99590630e-01  -2.65163013e+00   5.08901240e-01
C     3.694654884675000e+00   2.041595367224814e+00   6.648713872000000e+00  1.08949506e+00   1.96207506e+00   4.70586900e-01
C     4.898175753075000e+00   2.858022455392705e+00   6.767071136000000e+00  1.01994793e+00  -1.05292527e+00  -4.00505000e-01
C     4.924644750524999e+00   2.867546355341468e+00   1.021976406400000e+01 -2.17325140e-01  -2.36754317e+00  -1.26115361e+00
C     6.168037018575000e+00   3.523936291079404e+00   1.015750625600000e+01 -5.73203590e-01   9.77375720e-01   1.24044460e-01
C     6.195013719749999e+00   2.217946533999597e+00   6.769059456000000e+00 -1.29947992e+00  -2.03651828e+00   1.35601312e+00
C     7.406491386300000e+00   2.884259226865817e+00   6.793339264000000e+00 -1.10361430e+00   2.57508333e+00   2.60580670e-01
C     7.421489000925000e+00   2.897986945716463e+00   1.009920523200000e+01 -2.35548030e-01  -1.07487915e+00   1.33620290e+00
C     8.669901586575000e+00   3.554605385374844e+00   1.024138017600000e+01 -8.96720410e-01   1.04812576e+00  -8.84922590e-01
C     2.469369939675000e+00   4.167806543126827e+00   6.868292400000000e+00 -1.48080511e+00   2.10202471e+00  -9.99493210e-01
C     3.643881332324999e+00   4.959176972417468e+00   6.852323823999999e+00  1.53930981e+00  -1.63985500e-01   3.98268570e-01
C     3.683049467475000e+00   4.966233439897930e+00   1.009708254400000e+01 -1.01352740e-01   1.07820690e-01   1.07895866e+00
C     4.923873230174999e+00   5.633914594583675e+00   1.024758966400000e+01 -8.84069120e-01   1.29969544e+00  -1.01835682e+00
C     4.911951196050000e+00   4.252436185001004e+00   6.856594632000000e+00 -1.68000006e+00   1.70260042e+00  -4.93110100e-01
C     6.092820366000000e+00   5.054733302882063e+00   6.832180320000000e+00  7.32768840e-01  -1.26406102e+00  -9.85663080e-01
C     6.114718587900000e+00   4.922396615059124e+00   1.022153043200000e+01  1.21805358e+00   1.05979177e+00   4.27189170e-01
C     7.306670903175000e+00   5.689489335356027e+00   1.032096928000000e+01  2.32652393e+00  -2.00069762e+00   2.06991450e-01
C     7.308832646549999e+00   4.359208100128082e+00   6.744559056000000e+00  3.17273206e+00  -1.43646141e+00   9.33854360e-01
C     8.619370738124999e+00   5.002789456103439e+00   6.856160520000000e+00  1.01160007e+00  -1.65442037e+00  -4.87702990e-01
C     8.604254951400000e+00   5.003280214383251e+00   1.033625785600000e+01  8.64167500e-01  -8.50734060e-01  -1.10340829e+00
C     9.875929692749999e+00   5.662692447490478e+00   1.020021066400000e+01 -1.51939851e+00   2.38848515e+00   8.57766700e-01
