72
Lattice="7.395 0 0 3.6975 6.40425786098592 0 0 0 13.6 " PBC="1 1 1" Properties=species:S:1:pos:R:3:force:R:3 Energy="-581.62454552"
C     3.686746856550000e+00   6.248897480914890e+00   1.952475840000000e-01 -1.60302587e+00  -9.71139880e-01  -9.14497990e-01
C     1.158849485175000e+00   5.524172576788866e-01   1.653610400000000e-01  3.23780317e+00  -5.72478250e-01  -6.51569400e-02
C     1.337197953975000e+00   9.053593666427311e-01   3.396917832000000e+00 -9.42533610e-01   3.88481710e-01  -6.77562500e-02
C     2.588495883750000e+00   1.573894144858636e+00   3.468971719999999e+00 -1.01992267e+00   2.19927284e+00  -4.60742960e-01
C     6.111957073050000e+00   6.238514001476157e+00   9.195939199999999e-02  1.26234969e+00  -7.30634530e-01   7.41418800e-02
C     3.674602417799999e+00   5.349557284107036e-01   1.539624720000000e-01  7.13747960e-01  -1.74612630e-01  -8.23497280e-01
C     3.806276013000000e+00   9.044477205363600e-01   3.409274792000000e+00  9.25510490e-01   5.74899280e-01  -5.66457000e-03
C     5.021066898375000e+00   1.662954380405518e+00   3.368162128000000e+00  1.24689118e+00  -7.32159830e-01  -6.58269910e-01
C     8.647450625399999e+00   6.209115383854984e+00   9.163802400000000e-02 -1.07531928e+00   1.71748212e+00  -1.64559990e-01
C     6.184020423674999e+00   5.958166076632770e-01   8.055416000000000e-02 -1.81860828e+00  -2.25690048e+00   4.67965860e-01
C     6.279184127399999e+00   9.627942241105188e-01   3.283680152000000e+00 -8.12389540e-01  -1.67509186e+00   2.93029350e-01
C     7.505970849000000e+00   1.682589386706228e+00   3.362224096000000e+00 -2.42538890e-01  -2.81315090e+00  -5.09277000e-03
C     1.211299668900000e+00   1.956977637270256e+00   1.988898000000000e-01  3.79525700e-01   1.40858530e-01  -3.91229720e-01
C     2.466920013150000e+00   2.643267003594017e+00   2.758026960000000e-01 -7.84342740e-01   9.77733750e-01  -7.67881450e-01
C     2.584232777175000e+00   3.048966171999548e+00   3.429528592000000e+00 -8.07244640e-01  -1.40034893e+00   1.63763710e-01
C     3.817788105300000e+00   3.756411940121241e+00   3.355861064000000e+00 -1.12267068e+00  -3.51715530e-01  -4.89939290e-01
C     3.701178494850000e+00   1.990540687607472e+00   1.611432720000000e-01 -9.29050170e-01  -2.14052310e+00   7.27525880e-01
C     4.892573375025000e+00   2.706809729868044e+00   1.095716640000000e-01  1.74763499e+00  -1.55391902e+00  -6.70722100e-01
C     5.052916645724999e+00   3.083240223044382e+00   3.281702440000000e+00 -1.72288410e-01  -4.52162290e-01   1.15428143e+00
C     6.284658830774999e+00   3.805091280498308e+00   3.344913200000000e+00 -1.03308928e+00  -3.77102840e-01   5.60573600e-02
C     6.146115243600000e+00   1.995300844389653e+00   2.684109600000000e-02  2.96062300e-01  -1.26133500e-02   3.02365290e-01
C     7.405403729699999e+00   2.669448378236640e+00   4.292160000000000e-02 -9.29589110e-01   5.80538960e-01   6.84722910e-01
C     7.472558944875000e+00   3.055779149596173e+00   3.433991704000000e+00  1.06835893e+00   1.41526998e+00  -3.94079090e-01
C     8.708760093075000e+00   3.737321679994102e+00   3.433483472000000e+00  1.59290475e+00   1.17666000e+00  -1.23648900e-02
C     2.452481978175000e+00   4.069104633329136e+00   2.550956080000000e-01  2.47542450e-01   4.92961990e-01  -9.77860160e-01
C     3.676412491950000e+00   4.800306611727026e+00   2.009463920000000e-01  6.86595420e-01   2.69931840e-01  -2.71479680e-01
C     3.764732529900000e+00   5.149551286457978e+00   3.254950560000000e+00  4.56431200e-01   1.24047511e+00   5.04710760e-01
C     4.966662031275000e+00   5.887543955635143e+00   3.326944064000000e+00  2.41599779e+00   5.09441920e-01   1.26799650e-01
C     4.929686328750000e+00   4.079747164998305e+00   7.030084800000000e-02 -8.39946500e-01   2.04495517e+00   2.96186650e-01
C     6.178149718049999e+00   4.773585998572591e+00   1.357335556000000e+01 -1.45462652e+00   2.08906766e+00   1.02939791e+00
C     6.268305675674999e+00   5.228323722178557e+00   3.380219344000000e+00 -1.04959363e+00  -8.41159520e-01  -3.29181690e-01
C     7.513117968600000e+00   5.904001553441192e+00   3.377363072000000e+00 -6.47190850e-01   3.62918400e-02   3.64217690e-01
C     7.397820416025000e+00   4.089292391125743e+00   5.443318400000000e-02  2.93777750e-01   1.95298000e-02  -7.64676860e-01
C     8.625653123399999e+00   4.791302353261024e+00   6.311148000000000e-02  5.75792620e-01   3.48024110e-01   1.17692185e+00
C     8.723982626624998e+00   5.184390769429272e+00   3.372708200000000e+00  2.22209020e-01  -9.47217080e-01  -4.04982190e-01
C     9.950912922150000e+00   5.874342410610274e+00   3.238205016000000e+00 -1.25065630e-01   1.83052129e+00   8.32467860e-01
C     7.392943413525000e+00   1.426041861518274e-01   6.629233368000000e+00  7.84710700e-01  -2.89232760e-01   3.82740820e-01
C     1.248745471575000e+00   8.491043656004910e-01   6.709616440000000e+00  2.20311660e-01  -7.57058070e-01   1.18682740e-01
C     1.113640300575000e+00   5.620181368071271e-01   1.016550604800000e+01  8.00190820e-01  -9.82382630e-01   5.85000210e-01
C     2.393137990575000e+00   1.276187030787669e+00   1.027776833600000e+01 -2.28218011e+00  -1.21427878e+00  -2.47428170e-01
C     2.488284796725000e+00   8.787211762869540e-02   6.742116631999999e+00 -4.06023770e-01   2.46668732e+00   6.36104900e-02
C     3.701121701250000e+00   8.618540261907577e-01   6.791253432000000e+00 -7.54723900e-01   4.14910080e-01  -4.55164750e-01
C     3.590987892299999e+00   5.620646957617692e-01   1.024702417600000e+01  5.25567120e-01  -9.84633120e-01  -8.72182380e-01
C     4.811979891899999e+00   1.237098578896580e+00   1.015154320000000e+01  6.77208020e-01   9.17007750e-01   8.43187740e-01
C     4.895734034999999e+00   1.397654988553824e-01   6.634141744000000e+00  1.01580512e+00  -2.92717090e-01   7.74398640e-01
C     6.135737581274999e+00   8.127648133106503e-01   6.647328440000000e+00  8.40732400e-01   1.07528068e+00   9.32100000e-04
C     6.041327649899999e+00   5.088813048743425e-01   1.012263857600000e+01  2.15097010e-01   1.45954146e+00   9.36060600e-02
C     7.270037884949999e+00   1.230010602467447e+00   1.015775908000000e+01  1.01207420e-01   5.01399350e-01  -2.24979130e-01
C     8.666650855500000e+00   2.275626098160215e+00   6.770705328000000e+00 -3.21689160e-01  -4.78732920e-01  -2.89530880e-01
C     2.469394158300000e+00   3.032512032492743e+00   6.772274088000000e+00  8.06613130e-01  -9.11175970e-01   6.40525750e-01
C     2.365027857749999e+00   2.662478624407602e+00   1.031626150400000e+01 -8.64033930e-01   1.64893647e+00  -5.28096900e-01
C     3.589151935650000e+00   3.402223690662998e+00   1.027401772800000e+01  1.75152070e-01  -9.81879640e-01   1.50927900e-02
C     3.704577273825000e+00   2.327072718358588e+00   6.847959991999999e+00  3.55459510e-01  -1.87631082e+00  -7.85874390e-01
C     4.972433163225000e+00   2.976902388515055e+00   6.779816920000000e+00 -1.34668949e+00   9.89263450e-01  -1.41562350e-01
C     4.824346809225000e+00   2.665182694203830e+00   1.023853736800000e+01  4.68741200e-02   7.15372120e-01  -4.78259970e-01
C     6.074168475150000e+00   3.384493118522116e+00   1.017657617600000e+01 -1.48228191e+00   6.69393810e-01  -3.12677630e-01
C     6.161308418999999e+00   2.232763809239964e+00   6.718796984000000e+00  1.18355218e+00   5.97283880e-01   2.66643470e-01
C     7.432165827974999e+00   2.956100974730304e+00   6.760366744000001e+00 -9.83713390e-01  -9.45208260e-01  -2.32653820e-01
C     7.262729924099999e+00   2.658612758192992e+00   1.014592544800000e+01  4.96658380e-01  -3.10047700e-01   5.58664270e-01
C     8.469541493549999e+00   3.362405985929390e+00   1.022827127200000e+01  2.59923455e+00   6.91236670e-01  -4.66256380e-01
C     9.886042761975000e+00   4.441307675892087e+00   6.742615208000000e+00  2.86711910e-01  -3.48945060e-01  -6.18592370e-01
C     3.742453539450000e+00   5.116818227939419e+00   6.670587024000000e+00 -9.55059700e-01   9.93076220e-01   2.16937320e-01
C     3.588196797450000e+00   4.817838651874249e+00   1.020163839200000e+01 -1.99883950e-01  -3.20729500e-01   1.05311240e-01
C     4.791337747725000e+00   5.516317306225526e+00   1.017642576000000e+01  2.49035975e+00   1.06561025e+00  -2.73010350e-01
C     4.955750893649999e+00   4.429882287742111e+00   6.713755872000000e+00  8.35507240e-01  -1.73154466e+00   1.92403880e-01
C     6.198218195099999e+00   5.097885448513058e+00   6.716662328000000e+00  5.44826060e-01  -7.37039800e-01  -2.58990900e-02
C     6.085173936000000e+00   4.825599075378682e+00   1.013073846400000e+01 -1.29982689e+00  -4.69070730e-01   5.33310760e-01
C     7.311156377400000e+00   5.545678202767903e+00   1.012692638400000e+01 -3.27707520e-01  -7.65149080e-01   2.84646720e-01
C     7.445414081400001e+00   4.346382549082174e+00   6.738421376000000e+00 -6.21779680e-01   2.27660793e+00  -2.05347710e-01
C     8.663360672100000e+00   5.122549270213175e+00   6.668438087999999e+00 -1.54349637e+00  -4.75870440e-01   3.66514490e-01
C     8.542232198999999e+00   4.799908394973292e+00   1.012392445600000e+01 -1.40317204e+00  -9.67378100e-02   5.80173710e-01
C     9.758845730025000e+00   5.529854498404837e+00   1.015419016800000e+01 -2.36634070e-01  -1.53333503e+00  -5.65556300e-02
