72
Lattice="7.395 0 0 3.6975 6.40425786098592 0 0 0 13.6 " PBC="1 1 1" Properties=species:S:1:pos:R:3:force:R:3 Energy="-579.95853535"
C     3.718620970425000e+00   6.376389539794475e+00   1.347586940000000e+01  2.15687160e-01   4.14465500e-01   3.76818670e-01
C     1.204591368600000e+00   7.651285984538196e-01   1.348996158400000e+01  1.50909194e+00  -2.90412950e+00   3.46565070e-01
C     1.268060176275000e+00   7.072179046270339e-01   3.410142608000000e+00 -2.97128750e-01   1.56047270e+00   1.37526170e-01
C     2.452492479075000e+00   1.523965718028554e+00   3.409710944000000e+00  1.47758385e+00  -3.78759552e+00  -3.40698900e-02
C     6.111505608300000e+00   6.393428259958741e+00   1.353414023200000e+01  2.27027103e+00   4.66861350e-01  -3.60815350e-01
C     3.698356932600000e+00   7.191652397925996e-01   1.341830318400000e+01 -4.52351780e-01  -8.33645080e-01   1.37563072e+00
C     3.690788334974999e+00   7.411630329881779e-01   3.436356744000000e+00 -9.35613710e-01  -1.02474806e+00   2.24927820e-01
C     4.920956198475000e+00   1.437441760721967e+00   3.457452656000000e+00  1.38616280e-01  -2.11708790e-01   2.71317400e-01
C     8.656445570624999e+00   6.402949790332095e+00   1.350483685600000e+01 -6.66260570e-01  -6.81750740e-01  -7.95030100e-02
C     6.243276521700000e+00   7.217054246301901e-01   1.354298648800000e+01 -3.71058147e+00  -1.13861416e+00   9.21098700e-02
C     6.140713935600000e+00   7.673093763403068e-01   3.464350168000000e+00  2.43353593e+00  -2.48942831e+00   2.55632930e-01
C     7.432145787525000e+00   1.432240094402918e+00   3.413030024000000e+00 -2.25499268e+00  -1.92546520e-01   1.74112900e-02
C     8.612260408650000e+00   2.168413826262684e+00   1.351218670400000e+01  1.78411881e+00  -1.90245249e+00  -6.80757520e-01
C     2.450113026900000e+00   2.872943543652983e+00   1.337904420000000e+01 -2.65107900e-02  -1.15274494e+00   1.01782257e+00
C     2.498129427450000e+00   2.910499520680752e+00   3.406869088000000e+00 -2.12359054e+00   3.62460260e-01   2.97825000e-02
C     3.731149653375000e+00   3.580090617188085e+00   3.469718360000000e+00  5.90530220e-01  -1.06779200e-02   3.14103550e-01
C     3.668915145150000e+00   2.165469917009600e+00   1.346120071200000e+01  1.66971150e+00  -1.38331147e+00  -3.94049190e-01
C     4.942573669200000e+00   2.844708579684972e+00   1.357975232000000e+01 -8.91354270e-01  -3.30058320e-01   3.44655310e-01
C     4.972980725999999e+00   2.824521206143837e+00   3.540359344000000e+00 -1.79585913e+00   2.76639797e+00  -1.04197512e+00
C     6.170745770099999e+00   3.604187598025014e+00   3.472227424000000e+00 -1.39690975e+00  -3.00667895e+00  -4.00750100e-02
C     6.193988661824999e+00   2.151429029949600e+00   7.411999999999999e-02 -2.72001641e+00  -3.17425528e+00  -9.63927000e-01
C     7.392197553825000e+00   2.753818519582330e+00   4.367368000000000e-03  2.18099530e-01   4.53359156e+00   1.58484490e-01
C     7.334241016125000e+00   2.853966254634495e+00   3.377186544000000e+00  4.23897747e+00   8.58509890e-01   4.10335980e-01
C     8.608177148475001e+00   3.599680217300568e+00   3.393562168000000e+00  8.00482900e-01  -1.06377501e+00  -6.25757400e-02
C     2.464717819125000e+00   4.260270705768878e+00   1.341801989600000e+01  1.68324400e-02  -2.82735200e-02   2.45035580e-01
C     3.711657616575000e+00   4.921075608790341e+00   1.345556745600000e+01 -1.30907544e+00   2.96102133e+00   2.79527040e-01
C     3.732057019875000e+00   5.001968302160630e+00   3.487621264000000e+00 -2.89814260e-01   3.00867520e-01   1.13859280e-01
C     4.992091476600000e+00   5.682213778214174e+00   3.454751152000000e+00 -3.11885804e+00   2.13555063e+00  -3.62505800e-02
C     4.903722261900000e+00   4.265448356120952e+00   1.953844000000000e-02  1.13155360e+00  -1.67641582e+00  -3.94629950e-01
C     6.129024770025000e+00   4.945406921422367e+00   6.181839200000000e-02  1.20354014e+00   9.89680330e-01  -7.56260950e-01
C     6.148985243099999e+00   4.984253292366348e+00   3.443215496000000e+00  2.67291210e+00  -2.28867120e-01   2.86869190e-01
C     7.390169807849999e+00   5.647850067559300e+00   3.479243392000000e+00  4.39232700e-01   3.87666220e+00  -6.88940790e-01
C     7.357359265125000e+00   4.163838336871613e+00   1.359545610400000e+01  1.06909703e+00   3.39476971e+00   1.20754710e-01
C     8.622520897199999e+00   4.909030928905303e+00   1.351309722400000e+01 -1.33067658e+00   2.44800536e+00  -1.23142920e-01
C     8.654229510975000e+00   5.006170904253519e+00   3.454321528000000e+00 -1.07803244e+00  -5.01828950e-01   4.03819680e-01
C     9.875056195350000e+00   5.720230989893020e+00   3.538841720000000e+00  5.58915890e-01   6.98775250e-01  -9.90107930e-01
C     3.721799193525000e+00   6.390939373226608e+00   7.011453072000000e+00 -1.25207974e+00   1.76651413e+00  -8.38522800e-01
C     1.245165552075000e+00   7.037916266719338e-01   6.866995232000000e+00 -2.69624520e-01   1.36003023e+00  -2.19690640e-01
C     1.238427856650000e+00   6.885236838059581e-01   1.020941745600000e+01 -2.19435969e+00  -8.05717600e-02  -2.80063240e-01
C     2.454072125025000e+00   1.410103649024671e+00   1.020060955200000e+01  3.22841450e-01  -6.07724040e-01  -1.25728810e-01
C     6.167534010675000e+00   6.395315402622347e+00   6.722921592000001e+00  5.61924230e-01   1.77098997e+00   1.16640070e-01
C     3.743661660600000e+00   7.010753887857720e-01   6.616893136000000e+00 -5.72242840e-01   2.07789800e-01   1.21972251e+00
C     3.693803017650000e+00   6.876536013330985e-01   1.028172226400000e+01  1.74078590e-01  -6.84896870e-01   7.19957960e-01
C     4.932761576475000e+00   1.396535716407632e+00   1.031054760000000e+01 -2.08275868e+00   1.21966310e-01  -1.21545762e+00
C     8.679270459974999e+00   6.397192746771426e+00   6.861639144000000e+00 -1.75736756e+00   8.19793890e-01  -9.93548510e-01
C     6.166175697074999e+00   7.144016887537530e-01   6.936289136000000e+00  1.93060478e+00   1.47965914e+00   7.98458000e-02
C     6.136321046775000e+00   7.235691277100286e-01   1.024469708000000e+01  7.38740750e-01  -9.53824490e-01   3.24536230e-01
C     7.348805357700000e+00   1.396685896254449e+00   1.016997024800000e+01  3.12411234e+00   5.68148580e-01   1.38530810e-01
C     8.608035275399999e+00   2.184511696904737e+00   6.818680279999999e+00  7.15448530e-01  -2.05194487e+00  -1.71701000e-03
C     2.472265008225000e+00   2.838424529745004e+00   6.747423488000000e+00  4.40878270e-01   8.00624300e-02  -4.45309720e-01
C     2.450137726200000e+00   2.827844503632549e+00   1.011960441600000e+01  2.63977330e-01   2.80630450e-01   4.34362270e-01
C     3.714669489150000e+00   3.499706485934459e+00   1.010559356000000e+01 -2.54968292e+00   1.57556812e+00   1.20072660e-01
C     3.746065701150000e+00   2.147518782228020e+00   6.604252072000000e+00 -2.83278170e+00  -1.84979959e+00   9.23936000e-01
C     4.913545668974999e+00   2.850164815253956e+00   6.722970144000000e+00  2.18590446e+00   1.23770501e+00   6.09105040e-01
C     4.901216614050000e+00   2.782460602222502e+00   1.012892680800000e+01  2.11685142e+00   1.55946541e+00   5.66326230e-01
C     6.153663172200000e+00   3.525778219682520e+00   1.015072420800000e+01 -1.37649460e-01   4.45490980e-01   4.60738490e-01
C     6.179644025700000e+00   2.173626379820095e+00   6.857083551999999e+00 -1.20055544e+00  -1.26325489e+00  -4.67793500e-01
C     7.377330941624999e+00   2.904235452025307e+00   6.829628416000000e+00  1.03696024e+00   9.11988500e-02   1.33250170e-01
C     7.415616557474999e+00   2.816524913822420e+00   1.016148833600000e+01 -1.87505156e+00   9.44549840e-01   1.23036220e-01
C     8.612655412575000e+00   3.574299887231073e+00   1.018658781600000e+01  1.25252857e+00  -1.64998908e+00   8.36487900e-02
C     2.474781120000000e+00   4.250083901089027e+00   6.836494103999999e+00 -1.38462462e+00   4.89259660e-01   3.01034570e-01
C     3.636377330025000e+00   5.006107886356177e+00   6.923053616000000e+00  3.48774568e+00  -1.80271854e+00  -3.65745030e-01
C     3.642392053275000e+00   4.952423682504098e+00   1.013755165600000e+01  1.27891318e+00   3.54640230e-01   3.21986240e-01
C     4.883620914074999e+00   5.665941391545435e+00   1.019101488800000e+01  9.93818600e-01   3.00793790e-01   2.46435290e-01
C     4.903961120400000e+00   4.274452102246326e+00   6.834881280000000e+00 -8.91763800e-02   7.21585480e-01  -3.38685520e-01
C     6.150645087825000e+00   5.000652099085243e+00   6.769633647999999e+00 -4.20037580e-01  -5.55400410e-01   3.90482630e-01
C     6.137332165125000e+00   4.977720372965941e+00   1.026637099200000e+01  6.34420600e-01  -1.84231921e+00  -3.35903930e-01
C     7.423639688774999e+00   5.634182676817695e+00   1.039788884000000e+01 -3.17175410e+00   2.52312116e+00  -1.11625876e+00
C     7.405102938074998e+00   4.346526196585973e+00   6.784894344000000e+00 -6.17272290e-01  -2.12508319e+00   9.14536000e-02
C     8.648145681449998e+00   4.990176718546219e+00   6.853846752000000e+00  3.45098700e-02  -3.57421050e-01  -9.93871200e-02
C     8.628756620024999e+00   4.976432092454823e+00   1.033026420000000e+01  4.33764490e-01  -3.34024660e-01  -4.55817310e-01
C     9.832584048150000e+00   5.730623307207599e+00   1.025876016000000e+01  6.40220600e-01  -2.57689893e+00  -2.87268830e-01
