72
Lattice="7.395 0 0 3.6975 6.40425786098592 0 0 0 13.6 " PBC="1 1 1" Properties=species:S:1:pos:R:3:force:R:3 Energy="-582.34483737"
C     3.674103181350000e+00   6.245197228808538e+00   1.766328560000000e-01  8.42385000e-03  -7.77575870e-01  -7.26758500e-01
C     1.176088265475000e+00   5.626011804427015e-01   1.445233920000000e-01  1.69425212e+00  -1.23917515e+00   1.08737910e-01
C     1.323147527925000e+00   8.967101602324866e-01   3.387683704000000e+00  1.63141850e-01   8.39967190e-01   5.39737800e-02
C     2.571853510200000e+00   1.595991268093623e+00   3.427545984000000e+00  2.76481220e-01   3.21141250e-01  -3.69320480e-01
C     6.110975054024999e+00   6.233501068636241e+00   1.076401920000000e-01  1.53509565e+00  -2.00543010e-01  -1.22261080e-01
C     3.687556572075000e+00   5.440959492710742e-01   1.340033840000000e-01 -3.53509940e-01  -5.78879710e-01  -3.15658670e-01
C     3.826561274475000e+00   9.207053774120203e-01   3.382791920000000e+00 -1.05380248e+00  -7.29691690e-01   1.82131860e-01
C     5.034514299150000e+00   1.659486282646593e+00   3.361336288000000e+00  4.80111350e-01  -5.18145500e-01  -3.22580940e-01
C     8.632133398874998e+00   6.227647833122516e+00   1.146314080000000e-01  6.66235100e-02   2.77094540e-01  -3.25627590e-01
C     6.187733453174999e+00   5.862294336468571e-01   9.484939199999999e-02 -2.36408580e+00  -1.08458425e+00   3.76559320e-01
C     6.256470902549999e+00   9.587395603741957e-01   3.314233640000000e+00  1.11465616e+00  -1.98603919e+00   3.22845530e-01
C     7.515728736375000e+00   1.673571615256141e+00   3.376997232000000e+00 -1.69537219e+00  -2.27005469e+00  -2.08049070e-01
C     1.197069544350000e+00   1.967970161631474e+00   1.708901200000000e-01  1.39086573e+00  -4.84032840e-01  -4.10356850e-01
C     2.454470863425000e+00   2.650310086175552e+00   2.114634080000000e-01 -3.96180660e-01   7.21762860e-01  -3.18840500e-01
C     2.589812008875000e+00   3.025929672221657e+00   3.392928136000000e+00 -1.70564623e+00   1.85820520e-01   2.37310300e-01
C     3.794423048175000e+00   3.756572751036105e+00   3.344866824000000e+00  7.80072720e-01  -8.52444660e-01  -2.02068060e-01
C     3.689566607025000e+00   1.984749893607882e+00   1.480784320000000e-01  1.96046410e-01  -1.39379186e+00   2.40052600e-01
C     4.915079946600000e+00   2.700472012247209e+00   1.042725600000000e-01  1.12173960e-01  -5.25996100e-01  -3.06188030e-01
C     5.055382027800000e+00   3.066361225071145e+00   3.317297176000000e+00 -6.06558660e-01   1.08036360e+00   5.93835660e-01
C     6.286780456275000e+00   3.819849508481206e+00   3.360382656000000e+00 -1.97105942e+00  -1.91353104e+00  -6.57137600e-02
C     6.164110088699999e+00   2.017580488973650e+00   5.604097600000000e-02 -8.04462240e-01  -1.87874486e+00   5.75084700e-02
C     7.397359522650000e+00   2.660915601234290e+00   4.996952800000000e-02 -4.78556740e-01   1.64922059e+00   5.68063890e-01
C     7.460218057950000e+00   3.063735735518859e+00   3.407458104000000e+00  2.60412888e+00   1.06914268e+00  -4.46280600e-02
C     8.724728856075000e+00   3.748493139319929e+00   3.415382144000000e+00  4.05681980e-01   8.52173000e-02  -1.79926960e-01
C     2.461837503600000e+00   4.072719388593056e+00   2.170175120000000e-01  2.08303680e-01  -6.99707500e-02  -7.38799420e-01
C     3.684950204325000e+00   4.789811249903480e+00   1.730310320000000e-01 -3.68755190e-01   1.43782255e+00  -3.14057400e-02
C     3.774904648200000e+00   5.155323956407826e+00   3.292110384000000e+00  6.83682900e-02   9.80450690e-01   3.94681280e-01
C     4.995474615150000e+00   5.881090192861885e+00   3.341896040000000e+00  3.43863550e-01   6.43132450e-01   2.91044700e-02
C     4.907724140099999e+00   4.104695848088036e+00   8.492125600000000e-02  4.26132030e-01  -1.91634770e-01   8.34501000e-02
C     6.153946585575000e+00   4.777106483160813e+00   2.260850400000000e-02 -8.67995800e-02   1.96131643e+00   6.43905710e-01
C     6.243976717275000e+00   5.214751690836488e+00   3.374629608000000e+00  7.08419990e-01   6.45556000e-02  -6.97928600e-02
C     7.500266641800000e+00   5.884174483447261e+00   3.382926832000000e+00 -3.41869120e-01   1.55850655e+00   4.40854000e-02
C     7.396300447724999e+00   4.076895028760354e+00   6.684536000000001e-02  3.32136600e-02   6.67651850e-01  -4.77989000e-01
C     8.641286855924999e+00   4.769412279682651e+00   9.159504800000000e-02 -8.18829890e-01   1.89859716e+00   6.61238610e-01
C     8.721068959649999e+00   5.182575866794326e+00   3.370126920000000e+00  1.49209640e-01  -1.12033500e+00  -5.48657200e-02
C     9.947757512625000e+00   5.868029541509935e+00   3.298517616000000e+00  1.95323630e-01   2.40212338e+00   2.97845930e-01
C     7.410167773574999e+00   1.256118968570466e-01   6.658233328000001e+00 -6.97283320e-01   1.07661810e+00   1.60529710e-01
C     1.245750977250000e+00   8.321140616256469e-01   6.712765928000000e+00  5.43481120e-01   3.57953300e-01   1.68710660e-01
C     1.121634924150000e+00   5.602212941793469e-01   1.017040667200000e+01 -3.63010260e-01  -8.42296880e-01   3.56266670e-01
C     2.377218589200000e+00   1.273841727516758e+00   1.022974075200000e+01 -1.12450388e+00  -9.81655740e-01  -1.56352420e-01
C     2.480843873775000e+00   9.211878101566140e-02   6.756338152000000e+00  1.12600490e-01   2.26319763e+00  -6.09287200e-02
C     3.698637166125000e+00   8.628566127587407e-01   6.792257112000000e+00 -1.31841010e-01   9.51511300e-02  -3.44748640e-01
C     3.597390187499999e+00   5.712033155576748e-01   1.019148599200000e+01  5.31017020e-01  -1.52549460e+00  -3.39782850e-01
C     4.828836350700001e+00   1.250112799379044e+00   1.015627804000000e+01 -5.92514110e-01   1.80983020e-01   3.94107320e-01
C     4.917229229399999e+00   1.283762947623156e-01   6.684932576000000e+00 -5.88928010e-01   2.30763000e-01   4.12678590e-01
C     6.127734305550000e+00   8.134158061221192e-01   6.667611072000000e+00  2.24679479e+00   1.19447300e+00   1.90266780e-01
C     6.046727146125000e+00   5.170943172817423e-01   1.013862007200000e+01 -2.93746770e-01   9.87342450e-01   1.76594100e-01
C     7.250991914549999e+00   1.227434938041312e+00   1.017391982400000e+01  2.03211259e+00   7.37275590e-01  -1.69863000e-01
C     8.664157113599998e+00   2.286969832022476e+00   6.749093568000000e+00  3.08463700e-02  -1.60206665e+00  -1.20164950e-01
C     2.472317882475000e+00   3.035067395421462e+00   6.762285704000000e+00  1.08339899e+00  -1.14808911e+00   4.21206820e-01
C     2.364762857925000e+00   2.663407562010195e+00   1.026096512800000e+01 -6.17583150e-01   1.78771450e+00  -3.60169250e-01
C     3.606206136750000e+00   3.391282272279502e+00   1.023933868000000e+01 -1.43105699e+00  -7.05377600e-02  -1.73879100e-02
C     3.723292022175000e+00   2.327226804802700e+00   6.825199167999999e+00 -1.49313073e+00  -2.44428603e+00  -5.23447380e-01
C     4.948164954749999e+00   2.968558344991840e+00   6.780241920000000e+00  9.91006510e-01   1.63115878e+00  -1.42369780e-01
C     4.800916528200000e+00   2.662711355138235e+00   1.021467684800000e+01  1.97763425e+00   9.34233190e-01  -2.28936900e-01
C     6.065512257900000e+00   3.388284823430708e+00   1.018467293600000e+01 -7.29485720e-01   3.68206770e-01  -2.85105050e-01
C     6.172419961125000e+00   2.242818942378214e+00   6.733903728000000e+00  7.15658500e-02  -2.47116270e-01   4.88354300e-02
C     7.431366095700000e+00   2.940572634739740e+00   6.750652264000000e+00 -9.01089610e-01   7.22653670e-01  -7.56203400e-02
C     7.287454847774999e+00   2.656814506628483e+00   1.016548836800000e+01 -1.36932619e+00   1.99464160e-01   2.84692270e-01
C     8.477292710699999e+00   3.380123365299081e+00   1.020018305600000e+01  2.63554340e+00  -3.41478460e-01  -1.83850000e-01
C     9.898731066000000e+00   4.436088013608451e+00   6.739615456000000e+00 -1.13228982e+00  -7.26540000e-02  -4.37475330e-01
C     3.718782920925000e+00   5.133887816626569e+00   6.687310264000000e+00  1.32193020e+00  -7.51704960e-01   2.97559210e-01
C     3.588336045300000e+00   4.824410573205023e+00   1.019565044800000e+01 -7.62684100e-02  -5.97086950e-01   1.08443070e-01
C     4.799967453900000e+00   5.523280463668968e+00   1.018080564000000e+01  1.89016893e+00   9.76231190e-01  -2.37904290e-01
C     4.966583200575000e+00   4.417300162537463e+00   6.734393328000000e+00 -4.45740760e-01  -7.53320300e-01   8.03691000e-03
C     6.205574408325000e+00   5.099831254178661e+00   6.734771407999999e+00  1.23919700e-01  -9.40760040e-01   8.08470800e-02
C     6.078209805675000e+00   4.833583840035951e+00   1.014364309600000e+01 -7.06874920e-01  -1.11313714e+00   3.90232300e-01
C     7.327618978500000e+00   5.525500307528402e+00   1.012942171200000e+01 -1.67097350e+00   8.78911630e-01   1.27862890e-01
C     7.452897821400000e+00   4.361943742915559e+00   6.752482824000000e+00 -1.15842571e+00   8.54618410e-01  -2.21812580e-01
C     8.649258037350000e+00   5.116444091195238e+00   6.695383632000000e+00 -7.41111400e-02  -4.84478580e-01   3.25315800e-01
C     8.525967229275000e+00   4.799791773437661e+00   1.012490664800000e+01  4.49322600e-02   1.08834120e-01   5.00761630e-01
C     9.753185338200000e+00   5.534720133313972e+00   1.016419908800000e+01 -7.79097700e-02  -1.69400626e+00  -1.76231230e-01
