72
Lattice="7.395 0 0 3.6975 6.40425786098592 0 0 0 13.6 " PBC="1 1 1" Properties=species:S:1:pos:R:3:force:R:3 Energy="-575.21332285"
C     3.675369205350000e+00   6.193449544448166e+00   3.124400080000000e-01 -6.22445970e-01  -2.68622310e+00   1.05661476e+00
C     1.245858352650000e+00   3.967626029451084e-01   3.728385600000000e-01 -8.04535710e-01   2.99349494e+00  -1.16101909e+00
C     1.458230994600000e+00   1.134298072153646e+00   3.418358504000000e+00  1.11544290e-01  -2.74278430e-01  -5.34186240e-01
C     2.679818772375000e+00   1.812362001809759e+00   3.379756128000000e+00  1.68362703e+00   8.06113030e-01   3.37329060e-01
C     6.196319270025000e+00   6.148089274749623e+00   3.054921760000000e-01 -3.69763803e+00   5.85185060e-01   8.45059600e-02
C     3.659948485799999e+00   4.237119761903028e-01   1.836545360000000e-01  2.50994928e+00   1.38834199e+00   1.81664025e+00
C     3.962149967550000e+00   1.146030672553167e+00   3.359109016000000e+00 -4.58777920e-01  -1.40086559e+00  -5.38972750e-01
C     5.232306848175000e+00   1.814957775605575e+00   3.221863664000000e+00 -2.36298364e+00   5.95974000e-02   2.19565136e+00
C     8.595495573899999e+00   6.086668535274928e+00   3.409411200000000e-01 -1.42343817e+00   1.78896539e+00  -1.78239500e-02
C     6.076944743025000e+00   3.824955174974934e-01   3.588672800000000e-01  3.01350866e+00   1.44661026e+00  -1.20406024e+00
C     6.457121766975000e+00   1.058492857184763e+00   3.317904552000000e+00 -3.45727616e+00   4.12864711e+00  -2.85457550e-01
C     7.599180239100000e+00   1.779083748819577e+00   3.381959464000000e+00  3.83313665e+00   3.74121294e+00   3.59973100e-02
C     1.246338620925000e+00   1.828544664825879e+00   2.723710080000000e-01 -2.07983993e+00   2.01042145e+00   6.46976120e-01
C     2.425359965250000e+00   2.581492044617086e+00   3.933515760000000e-01  1.03117201e+00   4.07574690e-01  -6.68085360e-01
C     2.690383047525000e+00   3.216804863269398e+00   3.369578976000000e+00  2.02724689e+00   1.41183347e+00  -6.46716500e-01
C     3.939130996425000e+00   3.944196116112853e+00   3.206126968000000e+00 -7.25383350e-01   1.79783371e+00   2.09670053e+00
C     3.652692252975000e+00   1.850621422520871e+00   3.789801840000000e-01  6.43575560e-01   4.72294410e-01  -2.26205414e+00
C     4.889399736825000e+00   2.541069457728602e+00   1.692257520000000e-01  9.46857520e-01   1.19877712e+00   1.47455665e+00
C     5.121171534375000e+00   3.238780689860516e+00   3.415540991999999e+00  2.71607910e+00  -1.77794200e-01  -1.96769217e+00
C     6.359571179100000e+00   3.974859126363326e+00   3.443508711999999e+00  2.17244148e+00  -1.30863920e-01  -7.86751060e-01
C     6.123748585425000e+00   1.741840235532798e+00   1.504169520000000e-01 -1.76721860e-01   5.92800026e+00   3.54854380e-01
C     7.374690519900001e+00   2.614954035765272e+00   1.877346720000000e-01 -6.75212530e-01  -1.92394495e+00  -1.14610795e+00
C     7.685791107675000e+00   3.275251145181015e+00   3.400823616000000e+00 -2.96313592e+00  -1.15322778e+00   6.72576200e-01
C     8.931312802950000e+00   3.966762991661871e+00   3.461114864000000e+00 -2.91491610e+00   1.58557728e+00  -8.50718030e-01
C     2.426023518600000e+00   4.041687172876953e+00   3.731980080000000e-01 -8.90980000e-04  -1.84430794e+00   8.72196040e-01
C     3.612969603750000e+00   4.780058781991694e+00   3.798726160000000e-01  3.37712330e+00  -1.79353702e+00  -6.61278060e-01
C     3.989744299124999e+00   5.465633112925386e+00   3.270866912000000e+00 -2.95402526e+00  -3.93193411e+00   2.34852690e-01
C     5.185984568175000e+00   6.147295274860140e+00   3.301553680000000e+00  3.65935660e-01  -1.10187724e+00   5.03623610e-01
C     4.926061447650000e+00   4.032474391775029e+00   3.142284080000000e-01 -2.61057624e+00  -9.15305070e-01  -6.24586500e-01
C     6.107142706199999e+00   4.791878864553581e+00   2.998171680000000e-01  1.55069751e+00  -3.60902543e+00  -1.61400247e+00
C     6.398465625300000e+00   5.395907588028158e+00   3.345758440000000e+00 -2.69994440e-01  -4.62442670e-01   8.34276510e-01
C     7.621303342950000e+00   6.097442546357962e+00   3.429023896000000e+00  8.08422780e-01   1.38830984e+00  -7.92350100e-01
C     7.345018747949998e+00   4.105949417521552e+00   5.596712800000000e-02  9.01343380e-01  -3.90488318e+00   3.67415746e+00
C     8.605024253249999e+00   4.720317943396255e+00   4.866602240000000e-01 -2.07739835e+00  -9.77463490e-01  -3.50873435e+00
C     8.872568106149998e+00   5.462397361641621e+00   3.410420728000000e+00 -1.29099320e-01  -3.67037404e+00   3.45698550e-01
C     1.008389990632500e+01   6.134138495597713e+00   3.355757432000000e+00  2.46092495e+00  -3.15157828e+00  -3.62269230e-01
C     7.324737257925000e+00   2.966898617524842e-01   6.304499640000000e+00  2.22756718e+00  -3.22592636e+00   4.51319560e-01
C     1.176007992750000e+00   9.745279772764536e-01   6.349990552000000e+00  2.86728280e-01  -1.07569869e+00   5.08684090e-01
C     1.079635465350000e+00   2.762703338639244e-01   1.040650675200000e+01  2.23976530e-01   1.40467441e+00  -9.83908750e-01
C     2.289756445200000e+00   9.853597547653861e-01   1.031102523200000e+01  1.01882733e+00   4.93385060e-01  -6.41242780e-01
C     2.426383950900000e+00   3.010824781760796e-01   6.492313056000000e+00 -1.73925014e+00  -2.37164726e+00  -5.04198050e-01
C     3.632938063425000e+00   9.671498239236835e-01   6.478700136000000e+00  7.18172020e-01  -8.08063480e-01   4.94417620e-01
C     3.508394616300000e+00   2.283520114483608e-01   1.012001255200000e+01  1.04325447e+00   4.13857843e+00   1.90469276e+00
C     4.830004538850000e+00   1.076154967809121e+00   1.030952828000000e+01 -3.65851104e+00  -2.31601078e+00  -1.35199281e+00
C     4.855424703450000e+00   2.776469931335100e-01   6.491669912000000e+00  2.18198472e+00  -1.00124795e+00  -1.06011947e+00
C     6.157071527699999e+00   9.758103658703401e-01   6.331094847999999e+00 -4.28958241e+00   1.53962882e+00   1.38825253e+00
C     5.980504995075000e+00   3.461197171081650e-01   1.031366159200000e+01  3.15660583e+00  -1.36627861e+00  -9.76669200e-02
C     7.273644944099999e+00   1.067279178755790e+00   1.037118170400000e+01 -1.74859389e+00  -1.35002615e+00   7.12044590e-01
C     8.590447192274999e+00   2.331830185352468e+00   6.334035032000000e+00 -1.42328299e+00   4.17662410e+00   8.82841790e-01
C     2.432834794275000e+00   3.039890698186142e+00   6.482517520000000e+00 -2.12171288e+00   2.11973256e+00  -1.58478946e+00
C     2.290778397225000e+00   2.456167570852796e+00   1.031139460800000e+01  1.54389890e+00  -1.96483890e+00   6.12108700e-01
C     3.497104004250000e+00   3.152633366958676e+00   1.044076080000000e+01  3.19345976e+00  -6.80874540e-01  -1.33066583e+00
C     3.623447320425000e+00   2.329619563624353e+00   6.483931104000000e+00  1.47643992e+00   3.10822185e+00   5.58804290e-01
C     4.858563289350000e+00   3.081981722332313e+00   6.540666224000000e+00 -1.03328791e+00   9.73565090e-01  -3.00231250e-01
C     4.811008410750000e+00   2.481922485964521e+00   1.033236975200000e+01 -2.64153909e+00  -1.26016540e+00   9.40689970e-01
C     6.003121752150000e+00   3.159583779928977e+00   1.036643666400000e+01  1.39659653e+00   2.66082710e-01   1.08159010e-01
C     6.075879678150000e+00   2.443458513257362e+00   6.446825272000000e+00  1.86842166e+00  -2.55593746e+00  -6.84279350e-01
C     7.302003844725000e+00   3.144558686521052e+00   6.345828136000000e+00  1.15993043e+00  -3.25734570e+00   5.44964520e-01
C     7.257196134675000e+00   2.493278323874138e+00   1.043305640000000e+01  8.72259440e-01  -1.34762697e+00  -1.40512244e+00
C     8.539479262350000e+00   3.194953087153027e+00   1.029401530400000e+01 -3.84547273e+00  -1.52487611e+00   7.93763360e-01
C     9.781067852925000e+00   4.518576327824559e+00   6.304893359999999e+00  1.17304657e+00  -3.82580390e-01   2.01810580e+00
C     3.677984705925000e+00   5.218404551434674e+00   6.376399984000000e+00 -3.78950875e+00   1.59369792e+00  -2.36637510e-01
C     3.594795836624999e+00   4.531246895830255e+00   1.042285939200000e+01 -2.65751323e+00   2.56763533e+00  -9.00791990e-01
C     4.847830075425000e+00   5.274817737646057e+00   1.034234888800000e+01 -4.01029647e+00  -1.99333730e-01   7.38764990e-01
C     4.854809291550000e+00   4.522645529226224e+00   6.526243832000000e+00  1.22250635e+00  -2.07605110e-01  -3.37349850e-01
C     6.095166799499999e+00   5.269300021201617e+00   6.495030064000000e+00 -1.21283186e+00  -6.74851930e-01   3.26864340e-01
C     6.007982485649999e+00   4.565078092444069e+00   1.030166380800000e+01 -2.93152440e-01  -7.88591860e-01  -1.53995060e-01
C     7.171546061475000e+00   5.248495213160200e+00   1.016416223200000e+01  4.03525160e+00   7.21189620e-01   3.15949990e-01
C     7.253801090175000e+00   4.499708615658056e+00   6.426564536000000e+00  3.44473320e+00   3.41575884e+00   3.22472140e-01
C     8.541889551674998e+00   5.263734657078698e+00   6.415931376000001e+00 -9.34150000e-04  -1.42563326e+00  -1.63422860e-01
C     8.463352396199999e+00   4.569134677457750e+00   1.024625251200000e+01  2.68199820e-01   1.28822452e+00  -4.67091670e-01
C     9.678364355099999e+00   5.258801008951091e+00   1.026054475200000e+01  2.10367773e+00   1.95551884e+00   9.72535320e-01
