72
Lattice="7.395 0 0 3.6975 6.40425786098592 0 0 0 13.6 " PBC="1 1 1" Properties=species:S:1:pos:R:3:force:R:3 Energy="-582.05757171"
C     3.662930963250000e+00   6.228985746632048e+00   1.912398000000000e-01  7.47841770e-01   5.20122610e-01  -6.64114450e-01
C     1.226825619300000e+00   5.194986678101220e-01   1.923303840000000e-01 -7.39611430e-01   4.80216650e-01  -3.87569990e-01
C     1.329003369600000e+00   9.274392624240745e-01   3.407575064000000e+00 -7.09275100e-02  -5.70934530e-01  -1.64691920e-01
C     2.578255213800000e+00   1.611558994270025e+00   3.513636432000000e+00 -7.06086030e-01   5.51802310e-01  -4.08628380e-01
C     6.151919431200000e+00   6.224181400470634e+00   7.287954400000000e-02 -1.03637110e-01   2.65132350e-01   4.11931660e-01
C     3.680801535375000e+00   5.188259005219291e-01   1.542410000000000e-01  6.05614080e-01   5.82345420e-01  -8.67086200e-01
C     3.807618094575000e+00   9.076054679593902e-01   3.446738848000000e+00  7.27928670e-01   1.51680286e+00  -3.21794290e-01
C     5.039591040600000e+00   1.645005871369661e+00   3.356004952000000e+00  7.78639700e-02  -1.33925830e-01  -4.37018060e-01
C     8.630675992275000e+00   6.235152726738336e+00   5.373890400000000e-02 -1.30874680e+00  -2.68836600e-02   2.25300530e-01
C     6.128214388950000e+00   5.423791598665441e-01   7.474356000000000e-02  1.34875920e+00   3.88960060e-01   1.52909330e-01
C     6.280830365325000e+00   9.198582221822994e-01   3.249085288000000e+00 -1.37188132e+00   9.59570410e-01   2.55229000e-01
C     7.490090012550000e+00   1.621915319655431e+00   3.342809416000000e+00  9.85014830e-01   1.61295536e+00   4.69447470e-01
C     1.238915372025000e+00   1.947426006884959e+00   2.263482000000000e-01 -1.09428814e+00   5.41018440e-01  -2.62539480e-01
C     2.461858579350000e+00   2.661745593052947e+00   3.414898800000000e-01 -9.16711100e-02  -1.00005780e-01  -1.18238078e+00
C     2.558857980900000e+00   3.038779879660325e+00   3.486762424000000e+00  1.34807861e+00  -1.50120090e-01  -3.32265360e-01
C     3.809187942150000e+00   3.750879942181773e+00   3.355157672000000e+00 -1.46841913e+00   8.73830170e-01  -4.28696560e-01
C     3.690023691975000e+00   1.936782770747425e+00   2.048108320000000e-01 -1.22192790e-01   7.27888360e-01   4.83617160e-01
C     4.911926940450000e+00   2.670868458374517e+00   9.474739200000000e-02  3.17103400e-02   2.57700170e-01  -4.39436180e-01
C     5.042136177750000e+00   3.084502310140852e+00   3.269797000000000e+00 -3.02671020e-01  -1.71013995e+00   1.14102319e+00
C     6.258984167250000e+00   3.777019945318620e+00   3.325818392000000e+00  1.45921123e+00   1.05836092e+00   3.69383360e-01
C     6.132502823399999e+00   1.962931419632383e+00   1.359613964000000e+01  1.08438172e+00   4.48174620e-01   6.57365510e-01
C     7.390388625899998e+00   2.693175641267311e+00   5.529039199999999e-02  1.47087580e-01  -1.25827038e+00   3.06526600e-01
C     7.513660613700000e+00   3.075592066180234e+00   3.456384512000000e+00 -1.69301532e+00  -1.37223743e+00  -9.30669080e-01
C     8.735639845800000e+00   3.758510743507120e+00   3.459504488000000e+00  2.41463400e-01   2.94160260e-01   1.11299000e-02
C     2.447196217050000e+00   4.083590744395562e+00   2.770831360000000e-01  2.72874990e-01   8.05402280e-01  -7.85670270e-01
C     3.684521959875000e+00   4.819485762953262e+00   2.308451760000000e-01  1.97792100e-01  -1.01371941e+00  -6.27558660e-01
C     3.768253252425000e+00   5.180690901578393e+00   3.218919400000000e+00  9.23936880e-01   3.32390650e-01   6.46747790e-01
C     5.001677097450000e+00   5.910870888506984e+00   3.309581760000000e+00  9.23942570e-01  -4.01028460e-01   1.40739480e-01
C     4.934461576049999e+00   4.104338234329133e+00   5.960091199999999e-02 -6.75272830e-01   1.90308590e-01   3.97711070e-01
C     6.167947908824999e+00   4.827254768163228e+00   1.353685832800000e+01 -5.45918320e-01  -1.22157269e+00   8.95684480e-01
C     6.268784169150000e+00   5.219708522377550e+00   3.376554144000000e+00 -7.81878210e-01  -7.21372690e-01  -3.89587650e-01
C     7.511762539050000e+00   5.922649855733411e+00   3.381849168000000e+00 -2.72890500e-01  -1.85576087e+00   4.02896450e-01
C     7.405291177800000e+00   4.110230663900961e+00   1.107434400000000e-02 -5.41728520e-01  -3.87238400e-02  -3.53226230e-01
C     8.623843160174999e+00   4.827855743720811e+00   6.172128800000000e-02  7.61913710e-01  -1.32893119e+00   9.13442060e-01
C     8.735350331550000e+00   5.168350216895066e+00   3.361393136000000e+00  1.63587900e-02   1.73242222e+00  -5.83432240e-01
C     9.950509266074999e+00   5.929148448311689e+00   3.180955136000000e+00 -1.66489240e-01  -2.30239204e+00   1.25190045e+00
C     7.397565880124999e+00   1.544173521152262e-01   6.600709408000000e+00  1.04679335e+00  -9.69267660e-01   5.06821880e-01
C     1.257621542175000e+00   8.493798767736283e-01   6.708789287999999e+00 -5.81297590e-01  -3.57246510e-01   3.52588300e-02
C     1.130090995725000e+00   5.368483787360694e-01   1.017830650400000e+01  3.60987000e-01   4.87893460e-01   4.12342240e-01
C     2.348868155850000e+00   1.245357894088308e+00   1.033918335200000e+01  3.38550910e-01   4.86396840e-01  -3.14520440e-01
C     2.484572580675000e+00   1.474163455078314e-01   6.723180672000000e+00 -3.98555280e-01  -1.55573437e+00   2.15842900e-02
C     3.685643781375000e+00   8.700496190167781e-01   6.773418663999999e+00  7.41972560e-01  -6.30607210e-01  -5.45288900e-01
C     3.592215388350000e+00   5.252726186115408e-01   1.029787389600000e+01 -6.40215290e-01   1.18921540e+00  -9.39855230e-01
C     4.812833718600000e+00   1.248303084192965e+00   1.017377852000000e+01  8.85413410e-01   3.67402510e-01   8.06394870e-01
C     4.900959822675000e+00   1.468999061540010e-01   6.588061408000000e+00  1.24326519e+00  -2.29054240e-01   1.03621627e+00
C     6.168374119649999e+00   8.421880873245841e-01   6.617586600000000e+00 -8.90750950e-01  -4.24248230e-01  -3.24218600e-02
C     6.042484486724999e+00   5.364064849437294e-01   1.010254212800000e+01  5.23444370e-01  -6.27138920e-01   9.83510100e-02
C     7.294478359949999e+00   1.248624577937537e+00   1.012712399200000e+01 -1.30838563e+00  -3.75889580e-01   8.14580000e-03
C     8.658231758925000e+00   2.250385188784333e+00   6.792372847999999e+00 -4.51404700e-01   1.22360945e+00  -2.83786740e-01
C     2.486938721850000e+00   2.999873500820196e+00   6.807710247999999e+00 -5.34045120e-01  -4.41823200e-02   2.56434150e-01
C     2.341922365125000e+00   2.699569332101842e+00   1.037888243200000e+01  7.72564290e-01  -2.01799736e+00  -5.05022820e-01
C     3.575512819500000e+00   3.390225057391973e+00   1.032443768800000e+01  1.29475650e+00   1.17486700e-02  -1.64890140e-01
C     3.693850049850000e+00   2.275363523587955e+00   6.854006279999999e+00  1.39817216e+00   1.31713085e+00  -6.97408150e-01
C     4.963986705149999e+00   3.008036239803395e+00   6.774104375999999e+00 -1.03935008e+00  -2.20610252e+00  -1.72796290e-01
C     4.849459341825000e+00   2.686755052549768e+00   1.025739880000000e+01 -2.24997928e+00  -7.36911700e-01  -3.50073210e-01
C     6.044914964400000e+00   3.396343685351417e+00   1.015480080800000e+01  5.22292060e-01  -5.38616300e-01  -6.91362700e-02
C     6.179328037349999e+00   2.244778709325953e+00   6.706374744000000e+00 -2.51383140e-01   1.32885450e+00   3.41088370e-01
C     7.406690570624999e+00   2.952602456746543e+00   6.765952943999999e+00  6.87568280e-01   3.09739890e-01  -3.59913220e-01
C     7.251959920049999e+00   2.655517580369254e+00   1.013696046400000e+01  1.96765248e+00   6.28061860e-01   5.69124810e-01
C     8.527035252150000e+00   3.362178762860518e+00   1.025204080800000e+01 -1.98579553e+00   1.17597442e+00  -6.46733320e-01
C     9.879131542874999e+00   4.435013315096964e+00   6.726327032000000e+00  5.31779440e-01  -5.91735710e-01  -3.71385610e-01
C     3.742131598125000e+00   5.123712987908916e+00   6.653443680000000e+00 -1.24320114e+00   4.01420970e-01   1.03128430e-01
C     3.588460909875000e+00   4.799406493284804e+00   1.021321158400000e+01  8.57599570e-01   2.76853800e-01  -8.83912600e-02
C     4.847715120150000e+00   5.531758932564665e+00   1.016173599200000e+01 -1.32642672e+00  -1.04953133e+00   2.89651800e-02
C     4.965215088599999e+00   4.398168787074863e+00   6.690590040000000e+00 -1.03713160e-01   6.40487250e-01   2.80585390e-01
C     6.202349818575000e+00   5.084501510224336e+00   6.689150072000000e+00 -4.39588930e-01   1.94457484e+00  -6.42941000e-02
C     6.056259818775000e+00   4.806039511235563e+00   1.012973709600000e+01  2.09558980e-01   1.01749689e+00   3.38671920e-01
C     7.279008796424999e+00   5.542632529857423e+00   1.013349096800000e+01  7.26542310e-01  -1.72089865e+00   4.12884560e-01
C     7.415490139950000e+00   4.388132290326985e+00   6.711755311999999e+00  2.77276460e-01  -5.48309720e-01   6.44811100e-02
C     8.636365742250000e+00   5.120243481213261e+00   6.641390815999999e+00 -7.73045800e-02   4.36535540e-01   2.54009610e-01
C     8.522369007149999e+00   4.796367224632184e+00   1.014184164000000e+01 -3.91182430e-01  -8.86286900e-02   3.30963210e-01
C     9.757025524724998e+00   5.485458261641959e+00   1.013801881600000e+01 -5.18074670e-01   1.55119791e+00   1.32466790e-01
