72
Lattice="7.395 0 0 3.6975 6.40425786098592 0 0 0 13.6 " PBC="1 1 1" Properties=species:S:1:pos:R:3:force:R:3 Energy="-581.33123952"
C     3.662652097800000e+00   6.266129289453634e+00   1.353188698400000e+01 -2.51991500e-02   1.01671164e+00   3.40307480e-01
C     1.177958941650000e+00   6.028951698333564e-01   1.353520660800000e+01  8.07037370e-01  -2.17666010e-01   2.83014800e-02
C     1.312741505775000e+00   8.249836249669014e-01   3.431795576000000e+00 -7.78683840e-01   1.74297601e+00   1.24482310e-01
C     2.525245968075000e+00   1.574382469520461e+00   3.419052104000000e+00  1.25744530e+00  -1.66146263e+00   4.17505210e-01
C     6.106663177425000e+00   6.295324187632280e+00   1.355483984000000e+01  1.12966388e+00  -1.02421692e+00   5.47428400e-02
C     3.664406413650000e+00   5.854891654808196e-01   1.352595738400000e+01  4.17922750e-01   5.91867900e-02   3.72158170e-01
C     3.792634419525000e+00   8.814137184190338e-01   3.478393392000000e+00 -9.44608270e-01  -1.64665576e+00  -2.56059640e-01
C     5.026941338475000e+00   1.603233907350075e+00   3.482141008000000e+00 -1.17775092e+00  -7.74641130e-01   1.97318140e-01
C     8.631578478074999e+00   6.296705586052682e+00   1.353283055200000e+01 -3.90483190e-01  -4.02524140e-01   2.98704630e-01
C     6.168898794900000e+00   6.625752960642817e-01   1.357235759200000e+01 -1.41107828e+00  -3.26129246e+00  -2.79579870e-01
C     6.213323628824999e+00   8.921827341809383e-01   3.486783232000000e+00  2.05803011e+00  -1.70449819e+00  -1.12185040e-01
C     7.477743320550000e+00   1.586934238542853e+00   3.443166400000000e+00 -1.10265141e+00  -9.24731240e-01   9.78113900e-02
C     8.579208899849998e+00   2.056752900685283e+00   1.352595480000000e+01  2.16129091e+00  -3.32176024e+00   3.97701700e-02
C     2.430326927925000e+00   2.714561315496631e+00   1.346985439200000e+01  4.40908600e-01   1.16244170e-01   4.46593480e-01
C     2.542266300075000e+00   2.974141897207081e+00   3.454698384000000e+00 -4.42174600e-01   2.01663160e-01  -2.25706670e-01
C     3.767598277275000e+00   3.665639718363223e+00   3.474200648000000e+00  7.65028160e-01   1.48642769e+00   4.17687450e-01
C     3.661656582900000e+00   2.022581317766209e+00   1.354762150400000e+01  1.14478066e+00  -4.90080380e-01  -4.77800760e-01
C     4.924285649324999e+00   2.754649536082244e+00   1.358786472000000e+01 -1.06281457e+00  -7.49800950e-01   1.49934670e-01
C     5.032756803450000e+00   2.995076071257270e+00   3.512384688000000e+00 -7.56237130e-01   2.04527085e+00  -6.23448530e-01
C     6.244498397549999e+00   3.797527787923069e+00   3.462686479999999e+00 -1.10660198e+00  -5.52009124e+00   1.84860140e-01
C     6.164507089275000e+00   2.054888044839029e+00   2.921076000000000e-02 -1.39559385e+00  -8.38943300e-01  -1.37289380e-01
C     7.392950290875000e+00   2.691623441289783e+00   3.910000000000000e-02 -1.45587018e+00   2.85210611e+00  -4.49941200e-01
C     7.428414418425000e+00   3.004947402194938e+00   3.431156920000000e+00  2.63428714e+00   9.08013610e-01   1.70573330e-01
C     8.721583281899999e+00   3.683880133472339e+00   3.446928704000000e+00 -1.49506895e+00   5.51010120e-01  -1.81722310e-01
C     2.463298127025000e+00   4.121941938121808e+00   1.346849520800000e+01 -3.52382050e-01   1.69178400e-02   5.27712900e-01
C     3.668341293150000e+00   4.828072143593899e+00   1.353229552800000e+01  2.46406490e-01   1.93979178e+00  -1.82031050e-01
C     3.752994705224999e+00   5.117484590969752e+00   3.509400304000000e+00 -3.05580590e-01  -2.76674310e-01  -3.17909750e-01
C     4.990361490300000e+00   5.822851408904930e+00   3.481706216000000e+00 -8.97032350e-01   5.53249100e-01  -4.35906400e-02
C     4.903269650925000e+00   4.176181647300663e+00   1.359571219200000e+01 -2.91400100e-02  -1.71862288e+00  -3.53532700e-02
C     6.132553516125000e+00   4.826177571991176e+00   3.260178400000000e-02  7.30348580e-01   2.22641755e+00  -5.11590380e-01
C     6.206252936549999e+00   5.138449889713140e+00   3.469464992000000e+00  1.47036639e+00   1.83630222e+00   5.47717000e-02
C     7.469474934075000e+00   5.785587273907842e+00   3.479560136000000e+00 -2.12150740e-01   3.70393891e+00  -2.93551770e-01
C     7.357192175100000e+00   4.097009585889620e+00   5.324536000000000e-03  1.81349569e+00   2.25118783e+00   1.65851010e-01
C     8.657628881550000e+00   4.824634081804337e+00   1.354833999200000e+01 -2.74500779e+00   1.57267756e+00  -2.89923290e-01
C     8.703303211649999e+00   5.121027106205010e+00   3.450031000000000e+00 -3.27683360e-01  -1.16251056e+00   3.79557280e-01
C     9.902854702875000e+00   5.845298140576495e+00   3.495285408000000e+00  1.35834615e+00   6.85097560e-01  -1.53304780e-01
C     7.415764087725000e+00   1.047894771065142e-01   7.019566152000000e+00 -2.53849400e-02  -4.98004500e-02  -5.76048850e-01
C     1.245013178100000e+00   8.112650001624168e-01   6.922968344000000e+00  1.48964241e+00  -4.82705040e-01  -2.89710330e-01
C     1.152576047850000e+00   5.984901931920912e-01   1.007037527200000e+01 -5.50250920e-01  -9.51077400e-01  -1.02884770e-01
C     2.378220168000000e+00   1.309910763954593e+00   1.008101523200000e+01  1.98971180e-01  -4.47907330e-01  -2.71050600e-02
C     2.513714463900000e+00   6.733923437601361e-02   6.851347751999999e+00 -1.22359595e+00   1.96364324e+00   4.27761300e-02
C     3.698385329399999e+00   8.366344429935493e-01   6.808800016000000e+00  1.14616075e+00  -3.41379200e-02   2.86601410e-01
C     3.610635408975000e+00   5.901749688292458e-01   1.013677999200000e+01  1.31589195e+00  -1.33514200e-02   7.45533000e-02
C     4.895115147449999e+00   1.305684466107622e+00   1.012434864000000e+01 -4.04280599e+00  -5.68007930e-01  -3.86194260e-01
C     4.933366043775000e+00   7.618626831155340e-02   6.899075591999999e+00 -3.42643110e-01   1.71016460e+00  -1.82847120e-01
C     6.168416714849999e+00   7.590632539197708e-01   6.959899823999999e+00  3.88145370e-01   2.60615264e+00  -1.03309660e-01
C     6.044785256100000e+00   5.827090771437936e-01   1.010854163200000e+01  2.06356042e+00  -1.03434164e+00   5.23843000e-02
C     7.287334715999999e+00   1.250608232767093e+00   1.004594885600000e+01  1.00182805e+00   1.44142356e+00   4.66084700e-01
C     8.679156613949999e+00   2.228109578882788e+00   6.865615376000000e+00 -6.61441740e-01   4.40686870e-01   4.37951450e-01
C     2.503429978575000e+00   2.983714469515580e+00   6.844210743999999e+00 -1.32101460e-01   3.13748340e-01  -1.80890220e-01
C     2.371940149125000e+00   2.725569594332185e+00   1.002740580000000e+01  3.88702140e-01   2.52661100e-01   1.69802820e-01
C     3.624268867950000e+00   3.424171338519532e+00   1.001171208000000e+01 -9.20014450e-01  -1.40405060e-01   2.37738210e-01
C     3.738245895375000e+00   2.309804917890670e+00   6.788885264000000e+00 -1.37320429e+00  -3.40428134e+00   3.48962100e-01
C     4.967187889724999e+00   2.930705914867731e+00   6.838099720000000e+00  8.38726320e-01   2.37495321e+00   1.64335710e-01
C     4.842170718900000e+00   2.690982695290890e+00   1.001639075200000e+01  7.72888770e-01   1.68607732e+00   5.88378070e-01
C     6.061404816074999e+00   3.410582207808976e+00   1.006535034400000e+01  1.08614487e+00   1.38158027e+00   2.24689190e-01
C     6.187029005475000e+00   2.232273947556253e+00   6.922252983999999e+00  1.23116450e-01  -1.55813633e+00  -2.67603460e-01
C     7.419402723525000e+00   2.943656989367695e+00   6.927170608000000e+00  9.25534490e-01  -1.72784634e+00  -3.70492100e-01
C     7.308668736374999e+00   2.675995387004340e+00   1.007846550400000e+01 -8.07095210e-01   1.26173847e+00  -2.83662970e-01
C     8.534009624550000e+00   3.434173508445280e+00   1.004801184000000e+01  3.41793600e-01  -1.51857154e+00   5.00223990e-01
C     9.915504922649999e+00   4.427601219177537e+00   6.914114336000001e+00 -1.46483540e+00  -2.14866731e+00   5.70561200e-02
C     3.718596529950000e+00   5.097299587004025e+00   6.984668823999999e+00  2.43501407e+00   1.12507700e-02  -6.81231720e-01
C     3.615594089250000e+00   4.835984860350244e+00   1.005347305600000e+01 -3.23854470e-01   1.29896797e+00   3.74280600e-02
C     4.855733407724999e+00   5.574384199901517e+00   1.005410341600000e+01 -3.64006440e-01   2.99710820e-01   5.02115090e-01
C     4.979551775100000e+00   4.382709420941452e+00   6.870266984000001e+00 -3.15413490e-01  -5.78600220e-01   2.76585280e-01
C     6.230899547174999e+00   5.064818407947098e+00   6.855879000000000e+00 -3.71445300e-01  -6.71888030e-01   2.76534390e-01
C     6.092777216175000e+00   4.911906760897336e+00   1.012077619200000e+01 -1.39219340e-01  -3.38557157e+00  -3.82747120e-01
C     7.343578349850000e+00   5.560113528069501e+00   1.016905374400000e+01 -8.83465150e-01   1.06474962e+00  -1.73474580e-01
C     7.467157267125000e+00   4.321913737033893e+00   6.891354056000000e+00 -1.08037583e+00   2.27527901e+00  -1.46929870e-01
C     8.669397099674999e+00   5.091091107306805e+00   6.919210936000000e+00 -4.81417940e-01  -1.13130561e+00  -1.69862930e-01
C     8.571850172325000e+00   4.830617003539728e+00   1.014047769600000e+01 -1.93693938e+00   6.72556930e-01  -1.65487940e-01
C     9.733251413174999e+00   5.574755134516769e+00   1.012009320000000e+01  2.81418413e+00  -1.26481367e+00  -1.61119210e-01
