72
Lattice="7.395 0 0 3.6975 6.40425786098592 0 0 0 13.6 " PBC="1 1 1" Properties=species:S:1:pos:R:3:force:R:3 Energy="-579.39045402"
C     3.706890097050000e+00   6.387506498885912e+00   1.345145386400000e+01  4.38572870e-01  -6.20336180e-01   4.51474000e-01
C     1.195908529350000e+00   7.412863149519828e-01   1.344998016800000e+01  1.60556378e+00  -2.40563865e+00   5.88261930e-01
C     1.237290431700000e+00   7.347482081027088e-01   3.398366912000000e+00  1.46842005e+00  -6.74865500e-02   4.87176640e-01
C     2.469700237350000e+00   1.497538612011842e+00   3.398133128000000e+00  1.00141669e+00  -3.02355745e+00   2.22015030e-01
C     6.086500525049999e+00   6.378559366400022e+00   1.351029820800000e+01  3.36319258e+00   7.53647740e-01  -4.13958200e-01
C     3.708742840350000e+00   7.329147971625480e-01   1.338515264000000e+01 -9.69034580e-01  -2.23509891e+00   1.71649551e+00
C     3.719087705850000e+00   7.410936748755540e-01   3.458980616000000e+00 -2.06165644e+00  -9.86990320e-01   7.60194500e-02
C     4.901249706674999e+00   1.449573090215851e+00   3.476421800000000e+00  2.54940169e+00   2.46058150e-01   4.44262920e-01
C     8.664472362449999e+00   6.397886648110558e+00   1.346648404000000e+01 -1.14785152e+00  -7.30836750e-01   1.83490670e-01
C     6.226174437975000e+00   6.962427998471947e-01   1.351494111200000e+01 -3.65737363e+00   8.38739490e-01   3.39579920e-01
C     6.163304588325000e+00   7.670482747473547e-01   3.486135872000000e+00  1.26174687e+00  -1.67979133e+00   2.92761860e-01
C     7.458647175075000e+00   1.466048555901330e+00   3.425318847999999e+00 -3.90779592e+00  -1.34539311e+00  -2.06081000e-03
C     1.245038542950000e+00   2.132449307313125e+00   1.348119652000000e+01 -8.97762800e-01   1.22481440e-01  -6.14251810e-01
C     2.453669837025000e+00   2.837735815854740e+00   1.330562188000000e+01  3.68245000e-02   1.80761000e-01   1.67209665e+00
C     2.522213722275000e+00   2.876325312015956e+00   3.424491832000000e+00 -2.98837098e+00   1.79897078e+00  -1.33842500e-01
C     3.739621993950000e+00   3.605235846951539e+00   3.474760560000000e+00 -4.53767100e-02  -2.00555042e+00   6.53397450e-01
C     3.678928973475000e+00   2.145940837133894e+00   1.346696480000000e+01  1.06941218e+00  -7.46303820e-01  -1.31618810e+00
C     4.938177859350000e+00   2.825490298443213e+00   1.354355252000000e+01 -1.31819085e+00   9.86712950e-01   8.77428160e-01
C     4.961835536624999e+00   2.858346638925578e+00   3.574737424000000e+00 -7.52142050e-01   1.54826356e+00  -1.57438576e+00
C     6.196352362650000e+00   3.594912183281219e+00   3.471818200000000e+00 -2.81330259e+00  -6.40949150e-01   2.77210380e-01
C     6.147435472950000e+00   2.163378798733152e+00   8.166487200000000e-02  9.76602930e-01  -3.47670795e+00  -1.36707960e+00
C     7.393266981750000e+00   2.797442338804714e+00   1.604473600000000e-02  3.59412390e-01   1.25166399e+00  -1.49355540e-01
C     7.346207753024999e+00   2.857947397490586e+00   3.385474656000000e+00  4.22052651e+00   1.35086498e+00   4.19052870e-01
C     8.586927689925000e+00   3.597043200084134e+00   3.420388984000000e+00  2.42953512e+00  -7.82045250e-01  -4.52358250e-01
C     9.827238942150000e+00   4.255795346333731e+00   1.336587804000000e+01  2.59618608e+00  -9.35213160e-01   4.22775760e-01
C     3.717473784075000e+00   4.943664963284448e+00   1.344358762400000e+01 -1.75377565e+00   1.35718482e+00   3.73603900e-02
C     3.718578116399999e+00   4.987678673725348e+00   3.521105688000000e+00 -2.65965690e-01   1.49441291e+00   8.53558000e-03
C     4.941876024899999e+00   5.684853997559537e+00   3.487519536000000e+00 -2.37500600e-01   2.19164056e+00  -3.23891530e-01
C     4.923102190500000e+00   4.261261124246927e+00   6.238048000000000e-03 -2.94406660e-01  -1.46484032e+00  -5.66815490e-01
C     6.133130584949999e+00   4.940842670888125e+00   6.297874400000000e-02  1.44305649e+00   1.26506247e+00  -9.59572640e-01
C     6.163368407175000e+00   5.012972226100839e+00   3.458362087999999e+00  1.36232201e+00  -9.09735110e-01   4.00597880e-01
C     7.419770144100000e+00   5.678517112492224e+00   3.511921472000000e+00 -1.12771193e+00   3.08541673e+00  -1.12498545e+00
C     7.391937323775000e+00   4.189958102553623e+00   1.358507427200000e+01 -5.22543990e-01   2.29871609e+00   4.16594460e-01
C     8.626778568450000e+00   4.895897717311802e+00   1.349834775200000e+01 -1.31948101e+00   3.53195685e+00  -4.65270210e-01
C     8.642712870750000e+00   5.024381475521008e+00   3.438263872000000e+00  1.09649450e-01  -1.59746712e+00   1.05065467e+00
C     9.882683694150000e+00   5.713696981768776e+00   3.567100752000000e+00 -1.27857750e-01   1.38156323e+00  -1.27071758e+00
C     3.705271849200000e+00   6.392872370376492e+00   7.067650040000000e+00 -3.13268490e-01   2.29605058e+00  -1.38754257e+00
C     1.265688340950000e+00   7.162388782060513e-01   6.872850984000000e+00 -1.68857823e+00   8.63994060e-01  -5.33987300e-02
C     1.275832506150000e+00   6.896352068001397e-01   1.020960758400000e+01 -4.93561172e+00  -9.33179030e-01  -4.53420970e-01
C     2.446362948450000e+00   1.384457478211408e+00   1.021933117600000e+01  1.21066074e+00   1.16261097e+00  -5.24879360e-01
C     2.468325137100000e+00   2.756136412629600e-03   6.720362071999999e+00  8.64923500e-01   6.77228230e-01  -2.01376200e-02
C     3.721538297925000e+00   7.136634059076523e-01   6.599799976000000e+00 -1.75574700e-01   4.54243570e-01   1.28683931e+00
C     3.670242030000000e+00   6.727747171321177e-01   1.028977428000000e+01  1.41140604e+00   1.64134060e-01   1.15122606e+00
C     4.927966954275000e+00   1.384448192037511e+00   1.034680424800000e+01 -1.99574198e+00   9.26801190e-01  -2.04777460e+00
C     4.963498043550000e+00   1.870683720906000e-03   6.867307215999999e+00 -2.19748203e+00   9.19106330e-01  -1.22535842e+00
C     6.140329099800000e+00   7.022027943394464e-01   6.941094968000001e+00  3.04876899e+00   2.14926266e+00   5.66200470e-01
C     6.133776981900000e+00   7.121792191485973e-01   1.024672620000000e+01  2.68394340e-01  -1.50088137e+00   6.03517240e-01
C     7.316477301750000e+00   1.424949038957044e+00   1.015473634400000e+01  4.34280193e+00  -2.29206461e+00   3.84382760e-01
C     8.615411861849999e+00   2.188387681846767e+00   6.792384680000001e+00  1.23703110e+00  -2.65656128e+00   5.32803450e-01
C     2.469284749275000e+00   2.856457639027192e+00   6.748179240000000e+00  6.87236480e-01   2.53785890e-01  -8.66850180e-01
C     2.439776517750000e+00   2.823614875571490e+00   1.010597939200000e+01  5.41822190e-01   4.60576900e-02   4.84964390e-01
C     3.698928196349999e+00   3.531341598485501e+00   1.008635704000000e+01 -1.76347922e+00  -6.58899930e-01   1.91777920e-01
C     3.721296814200000e+00   2.162199902946283e+00   6.574790800000000e+00 -1.11810231e+00  -1.23634968e+00   1.29460098e+00
C     4.928387544900000e+00   2.885511515447762e+00   6.706372431999999e+00  1.25813280e+00  -1.34508975e+00   6.38717030e-01
C     4.915574265375000e+00   2.796244550457158e+00   1.009794478400000e+01  8.19721490e-01   6.20359720e-01   1.14591878e+00
C     6.158663634225000e+00   3.514695715498368e+00   1.014896260000000e+01 -7.27374760e-01   9.36258160e-01   5.47588580e-01
C     6.196986262049999e+00   2.172718512225862e+00   6.886517352000000e+00 -2.76169952e+00  -1.90463218e+00  -9.53485430e-01
C     7.387130573775000e+00   2.850533444336378e+00   6.851826064000000e+00  9.53143960e-01   2.71400512e+00  -7.58306200e-02
C     7.387850181225000e+00   2.785295318879073e+00   1.017824612000000e+01 -8.97306350e-01   2.88737637e+00  -2.23033210e-01
C     8.604683232825000e+00   3.541290420943275e+00   1.016723651200000e+01  9.46561110e-01  -3.87266920e-01   5.50583320e-01
C     2.502020343675000e+00   4.274375443279742e+00   6.838839968000000e+00 -2.95672028e+00   2.99685100e-01   5.19548540e-01
C     3.646914502500000e+00   5.015556920530557e+00   6.962611936000000e+00  4.02229486e+00  -1.89579233e+00  -6.98359920e-01
C     3.625203891750000e+00   4.938804067526129e+00   1.014763864000000e+01  2.87113503e+00   7.63352360e-01  -4.92292600e-02
C     4.897974128400000e+00   5.653667951569639e+00   1.017583429600000e+01  2.44271210e-01   8.73868050e-01   5.87180550e-01
C     4.932501420374999e+00   4.262550109226409e+00   6.824898064000000e+00 -7.59219380e-01   2.23568430e+00  -5.58910400e-02
C     6.175916538975000e+00   4.981456488916307e+00   6.751395232000000e+00 -1.41152036e+00   7.35852180e-01   7.09902460e-01
C     6.129464957400000e+00   4.975655704274455e+00   1.028627037600000e+01  1.27199002e+00  -1.81598180e+00  -5.26343380e-01
C     7.412133919200000e+00   5.668188453500774e+00   1.043461482400000e+01 -2.25793320e+00   1.14459170e-01  -1.43467680e+00
C     7.393303956750000e+00   4.335274107653690e+00   6.796825896000000e+00  1.16360133e+00  -2.60668416e+00   1.43968900e-02
C     8.643280030274999e+00   5.018155576242409e+00   6.861109832000000e+00  1.46438150e-01  -1.90486914e+00  -1.25946490e-01
C     8.636119747575000e+00   4.968982531626914e+00   1.034277579200000e+01 -7.04022590e-01  -8.59782680e-01  -4.60487900e-01
C     9.849587001900000e+00   5.682061100706791e+00   1.028158068800000e+01 -6.92670900e-01  -1.41958350e-01  -3.68043820e-01
