72
Lattice="7.395 0 0 3.6975 6.40425786098592 0 0 0 13.6 " PBC="1 1 1" Properties=species:S:1:pos:R:3:force:R:3 Energy="-575.32436452"
C     3.626027731725000e+00   6.122686914033090e+00   4.493309440000000e-01  6.89843220e-01   1.48129241e+00  -2.01514679e+00
C     1.170189495825000e+00   4.575801894145482e-01   4.175321040000000e-01 -4.25264790e-01  -6.21168480e-01  -2.08877020e-01
C     1.478924718900000e+00   1.090845822999333e+00   3.431323520000000e+00  4.18281760e-01   1.19343129e+00  -1.76669480e-01
C     2.771752709850000e+00   1.775880851378634e+00   3.576217648000000e+00 -8.79032280e-01   4.15050490e-01  -1.32988775e+00
C     6.079612785075000e+00   6.132935904056762e+00   2.961892320000000e-01  2.13587899e+00  -7.99857280e-01  -6.47231460e-01
C     3.684478773075000e+00   4.529663058818898e-01   3.085276960000000e-01 -2.73892388e+00  -1.29716141e+00   1.32098000e-03
C     4.021599592725000e+00   1.124410090145542e+00   3.384976624000000e+00 -1.94508800e+00  -2.10789900e-02   4.37088730e-01
C     5.200422751050000e+00   1.892084573226448e+00   3.267889192000000e+00  7.95324890e-01  -5.41389380e-01  -2.97237220e-01
C     8.555957208074998e+00   6.151775949829310e+00   2.974904800000000e-01  3.37387745e+00  -1.37771698e+00  -1.27388685e+00
C     6.142169678325000e+00   5.014350102179419e-01   1.783865760000000e-01 -1.59910195e+00  -1.01565339e+00   1.58097988e+00
C     6.391304270325000e+00   1.195096830104978e+00   3.111756568000000e+00  3.27101814e+00  -2.86647217e+00   1.41080097e+00
C     7.690560106200000e+00   1.890502465364713e+00   3.371895192000000e+00 -3.13075784e+00  -2.36976430e-01  -7.47582660e-01
C     1.166998442400000e+00   1.903183536353299e+00   4.582432960000000e-01  1.55965981e+00  -2.08681882e+00  -1.00281323e+00
C     2.462056469550000e+00   2.538234228731401e+00   5.752638160000000e-01 -1.03591093e+00   5.63766940e-01  -9.79469640e-01
C     2.772504041850000e+00   3.203017840990968e+00   3.482651688000000e+00 -2.35754043e+00   5.83132100e-02   2.16690720e-01
C     3.921697912500000e+00   3.934741574276714e+00   3.213531624000000e+00  2.35608845e+00  -4.18938160e-01   8.09827130e-01
C     3.693755911500000e+00   1.843273753435515e+00   4.121716640000000e-01  1.10080810e-01   1.24218003e+00  -4.08837000e-01
C     4.890283365375000e+00   2.620006290748447e+00   1.892548800000000e-01 -1.03891603e+00  -4.63923150e-01   2.79649890e-01
C     5.242891163774999e+00   3.297328287131478e+00   3.246429344000000e+00 -2.17275188e+00   8.95577490e-01   2.48735460e-01
C     6.436862424975000e+00   4.084529544555260e+00   3.327437744000000e+00 -1.53989493e+00  -2.63371699e+00  -1.47678940e-01
C     6.133549696575000e+00   1.982039867851844e+00   8.033452000000001e-02 -6.35488490e-01  -4.70826415e+00   7.57494100e-02
C     7.382874566399999e+00   2.565973759311363e+00   9.295314400000000e-02  6.09669580e-01   1.13280595e+00   1.01673219e+00
C     7.606980706949999e+00   3.360503152834027e+00   3.499127136000000e+00  3.04055457e+00  -3.12989546e+00  -1.91173240e-01
C     8.907676127475000e+00   3.954207123914448e+00   3.563749168000000e+00 -2.01685630e-01  -3.61981110e-01  -1.37388780e+00
C     2.479152785175000e+00   3.948414856935550e+00   5.850933520000000e-01 -1.96264215e+00   9.84901540e-01  -1.92400880e+00
C     3.695320545600000e+00   4.671716927092816e+00   4.898365040000000e-01 -3.68955058e+00   3.27895866e+00  -3.29930620e-01
C     3.880805152424999e+00   5.327442421077777e+00   3.064182136000000e+00  2.21453287e+00   1.53943442e+00   1.29177641e+00
C     5.125408240800000e+00   6.092206553216784e+00   3.198757944000000e+00 -3.13525410e-01   5.49319910e-01   6.57336650e-01
C     4.830539123400000e+00   4.041945392553870e+00   2.157480880000000e-01  4.60195838e+00  -2.50907742e+00  -7.20661430e-01
C     6.114418018124999e+00   4.668643715873538e+00   3.833636000000000e-02  1.07496660e-01   2.80467687e+00   1.39367993e+00
C     6.369754833600000e+00   5.465279661934092e+00   3.328137192000000e+00  1.22339290e+00   2.41072280e-01   5.85065900e-02
C     7.639833031424999e+00   6.120774986891566e+00   3.399321904000000e+00  1.03823645e+00  -6.97507820e-01  -7.61458170e-01
C     7.397423045700000e+00   3.952204448439047e+00   5.044430400000000e-02 -6.81624030e-01   2.44701028e+00   4.65647300e-01
C     8.616030120824998e+00   4.658387809251376e+00   2.707294880000000e-01  3.31239980e-01   1.52375663e+00   9.02620820e-01
C     8.871042480674999e+00   5.326121094596102e+00   3.305585672000000e+00  3.65373290e-01   2.29275072e+00   3.93338330e-01
C     1.010241325185000e+01   6.040734123859235e+00   3.088239448000000e+00 -2.06805935e+00   3.17450103e+00   9.35834580e-01
C     7.322380286549999e+00   2.516605641001453e-01   6.323670200000000e+00 -1.66311585e+00   3.36355625e+00  -2.84961650e-01
C     1.157161058775000e+00   9.630496899565544e-01   6.374821432000000e+00  4.30606670e-01   3.01138740e-01   3.13622500e-01
C     1.071962006625000e+00   3.286355808097362e-01   1.032047288000000e+01 -3.24665800e-02  -1.88743413e+00   6.87661640e-01
C     2.308224755175000e+00   1.012845868861827e+00   1.052818486400000e+01  3.54486520e-01   2.60969610e-01  -5.16043050e-01
C     2.368382821350000e+00   2.243512715632188e-01   6.385605008000000e+00  1.35879449e+00   1.09355830e+00   2.36345550e-01
C     3.580398511125000e+00   1.015723686173797e+00   6.443182920000000e+00  3.50029840e-01  -2.42348050e-01  -2.98056300e-01
C     3.580510323525000e+00   3.618759846359658e-01   1.043317009600000e+01 -2.15704268e+00  -4.02468644e+00  -4.41624960e-01
C     4.756636525349999e+00   9.974189723157660e-01   1.038143379200000e+01  2.92085597e+00   1.58560853e+00  -2.01957700e-01
C     4.796379473849999e+00   2.332767576575436e-01   6.274961664000000e+00 -1.53662134e+00   1.41433990e+00   9.48660390e-01
C     5.981345141025000e+00   9.402532217632555e-01   6.282890464000000e+00  3.94661838e+00  -3.24625100e-02   5.93375010e-01
C     6.035547902775000e+00   2.578914586998750e-01   1.023866697600000e+01 -3.55972039e+00   9.29584630e-01   8.19674300e-01
C     7.195053583275000e+00   9.478239511498758e-01   1.028671836000000e+01  3.30432541e+00   2.17785408e+00   1.89488170e-01
C     8.582968295999999e+00   2.432614055337867e+00   6.435788600000000e+00  2.14452706e+00  -3.17230176e+00   1.57812500e-02
C     2.374891049925000e+00   3.238201488779658e+00   6.440031800000000e+00  1.53833477e+00  -2.80325094e+00   9.54494480e-01
C     2.331585190425000e+00   2.408504265985218e+00   1.063001812800000e+01 -1.46388614e+00   1.82017848e+00  -1.25417012e+00
C     3.586398444375000e+00   3.138180686118278e+00   1.056936784000000e+01 -3.52537187e+00   1.31884981e+00  -2.67424070e-01
C     3.622647588150000e+00   2.525399967894804e+00   6.535790624000000e+00 -1.76964945e+00  -3.90908168e+00  -8.43625250e-01
C     4.851208518150000e+00   3.128945169900951e+00   6.468579152000000e+00  2.13232420e+00   4.76071600e-01  -1.44290730e-01
C     4.735556634149999e+00   2.423525644923583e+00   1.045197536000000e+01  3.63539097e+00   2.68104740e-01  -3.76533330e-01
C     6.012991082175000e+00   3.144857893448271e+00   1.034550762400000e+01 -1.97028620e-01  -2.63543500e-02  -3.42649890e-01
C     6.082479493799999e+00   2.322867874775448e+00   6.401881624000000e+00 -7.83269020e-01   1.70535823e+00   3.43137250e-01
C     7.372920378750000e+00   2.977002358980250e+00   6.459120216000000e+00 -3.41478698e+00   4.60677121e+00  -2.69123550e-01
C     7.239430275749999e+00   2.364997004255886e+00   1.033374648000000e+01 -1.66561338e+00   2.39201521e+00   9.36538700e-02
C     8.414949902700000e+00   3.133913593148739e+00   1.042765883200000e+01  3.25473644e+00  -1.15608378e+00  -4.44519800e-02
C     9.818383614524999e+00   4.616180419739889e+00   6.414449520000000e+00 -1.79330333e+00  -8.73278060e-01  -6.26643490e-01
C     3.606045591300000e+00   5.310491823501665e+00   6.327929856000000e+00  3.76379454e+00  -2.82665786e+00   7.62182820e-01
C     3.517682847225000e+00   4.604593836419578e+00   1.042862416000000e+01  2.85633524e+00  -2.19769018e+00   2.11807120e-01
C     4.759140509325000e+00   5.297316792104337e+00   1.034353644000000e+01  1.42673774e+00   2.20032940e-01  -2.82471470e-01
C     4.900564264124999e+00   4.551979399800433e+00   6.396765712000000e+00 -1.57953648e+00  -2.79705840e-01  -1.56703480e-01
C     6.145443259950000e+00   5.183891045188457e+00   6.343949159999999e+00  1.25886800e-01   1.29986004e+00   6.68388350e-01
C     6.044372541150000e+00   4.595684553097638e+00   1.027916152000000e+01 -9.82666200e-02  -9.36412340e-01   7.35715240e-01
C     7.339630492125000e+00   5.292712899213941e+00   1.028297332800000e+01 -3.98458906e+00   1.01978483e+00   1.58403500e-02
C     7.413289387950000e+00   4.472158715153330e+00   6.415208672000000e+00 -3.50845387e+00  -1.39189318e+00  -1.54752610e-01
C     8.553822567375001e+00   5.220524360786334e+00   6.311926736000000e+00  4.24824890e-01   1.26261701e+00   7.00112560e-01
C     8.497858279650000e+00   4.553417219732582e+00   1.026397793600000e+01  6.42431600e-02  -4.08837770e-01   1.19510018e+00
C     9.725985825675000e+00   5.287145037430457e+00   1.035117569600000e+01 -1.12969640e+00  -1.32046771e+00  -6.26693540e-01
