72
Lattice="7.395 0 0 3.6975 6.40425786098592 0 0 0 13.6 " PBC="1 1 1" Properties=species:S:1:pos:R:3:force:R:3 Energy="-571.13199237"
C     3.626642293200000e+00   6.157556881271796e+00   2.076373200000000e-01  3.09039120e+00   9.86342210e-01   6.08925300e-01
C     1.311961961850000e+00   3.996966496410888e-01   3.500294560000000e-01 -5.51888491e+00   4.18821857e+00  -1.13907509e+00
C     1.394793800550000e+00   1.043200065798290e+00   3.415870927999999e+00  3.01780897e+00   5.77044180e-01   4.13058390e-01
C     2.588163589425000e+00   1.824626411781974e+00   3.644929472000000e+00  3.36438364e+00  -4.02599373e+00  -7.36505940e-01
C     6.201033989250000e+00   6.174572225894874e+00   1.319095280000000e-01 -1.99022431e+00   1.47157540e-01   5.11455830e-01
C     3.693108627150000e+00   4.688718566604073e-01   2.139749200000000e-01 -3.93278764e+00   2.00388173e+00   2.84852230e-01
C     3.941496730875000e+00   1.125208060674898e+00   3.514693968000000e+00 -3.73760243e+00  -3.55199489e+00  -1.24007798e+00
C     5.180341147875000e+00   1.733333203647045e+00   3.249195992000000e+00 -4.10693150e+00   1.72773587e+00   1.06230777e+00
C     8.505155924475000e+00   6.225809426861225e+00   1.359991391200000e+01  6.75510860e+00  -3.84327096e+00   1.14868015e+00
C     6.079835152725000e+00   3.933270388161114e-01   1.338191040000000e-01  1.60313283e+00   4.17407546e+00  -1.21404221e+00
C     6.307242014550000e+00   1.006378400976749e+00   3.111728688000000e+00  4.21299630e+00   1.70772217e+00   6.75280200e-02
C     7.577277284399999e+00   1.667352888746345e+00   3.311589800000000e+00 -1.58816974e+00   4.05022529e+00   5.46793780e-01
C     1.216454353650000e+00   1.891531501517658e+00   4.005379520000000e-01 -6.92576680e-01   4.81407580e-01   2.39274930e-01
C     2.397898336950000e+00   2.662854170088512e+00   5.994750800000000e-01  1.31754914e+00  -1.33670611e+00  -1.89490825e+00
C     2.671530197550000e+00   3.167501492006452e+00   3.672787576000000e+00 -1.04421425e+00   4.39319324e+00  -1.80733618e+00
C     3.807359935125000e+00   3.920493701602679e+00   3.324389848000000e+00  5.03855487e+00  -1.72892870e-01  -2.67628890e-01
C     3.614042285475000e+00   1.816374269359049e+00   4.783193440000000e-01  2.91606893e+00   5.11485685e+00  -1.92615014e+00
C     4.932170531100000e+00   2.539480241140643e+00   9.744209600000001e-02 -2.82143066e+00   2.86623055e+00   1.56804551e+00
C     5.106396361350000e+00   3.126990846572393e+00   3.228879496000000e+00  2.49013860e-01   3.57079003e+00   4.50953990e-01
C     6.369350733825000e+00   3.880626940253864e+00   3.254411184000000e+00 -9.39261120e-01  -1.82915803e+00   4.62099920e-01
C     6.163704620849999e+00   1.855124064094501e+00   1.359761864000000e+01 -9.11386240e-01   4.21427830e-01   1.37181268e+00
C     7.358985943275000e+00   2.643149357377129e+00   1.927377040000000e-01  1.11711711e+00  -3.76040330e-01  -1.66533240e+00
C     7.596559525050000e+00   3.183884736378746e+00   3.502408544000000e+00  7.82449780e-01  -5.31360770e-01  -1.42163457e+00
C     8.900642521125000e+00   3.963613441688901e+00   3.540649296000000e+00 -3.74940120e+00  -2.17087423e+00  -3.69161500e-01
C     2.447803790250000e+00   4.108275315891147e+00   4.012121040000000e-01 -6.12857040e-01  -2.04730898e+00   2.72978870e-01
C     3.688211621175000e+00   4.791635182542008e+00   3.494657360000000e-01 -1.50239610e+00  -9.83453440e-01  -1.10429015e+00
C     3.923969952300000e+00   5.418698420474540e+00   3.080688864000000e+00 -8.53167700e-02  -3.56091857e+00   1.38700914e+00
C     5.242375769250000e+00   6.074474059798544e+00   3.232744344000000e+00 -5.56892282e+00  -1.38972986e+00  -4.48265340e-01
C     4.873161500025000e+00   4.138103851342462e+00   1.182080720000000e-01  2.45080167e+00  -4.76218888e+00  -3.87771870e-01
C     6.098137592850000e+00   4.833119339213366e+00   1.351601700800000e+01  1.98309277e+00  -3.46058466e+00   4.86190920e-01
C     6.337031477925000e+00   5.273771025741419e+00   3.292232784000000e+00  3.47643722e+00   1.49463539e+00   4.70801800e-01
C     7.572538087725000e+00   6.018053252520310e+00   3.362158952000000e+00  1.44098017e+00   1.67805980e+00  -7.26539000e-03
C     7.398080793975000e+00   4.118308930722987e+00   1.353573660000000e+01 -1.34211977e+00  -3.22204692e+00   1.99396853e+00
C     8.628554477700000e+00   4.793777727009071e+00   1.671731040000000e-01 -1.97334092e+00  -4.53127000e-02  -1.30802014e+00
C     8.856786103874999e+00   5.344356578426666e+00   3.240388496000000e+00 -1.14544423e+00  -6.24556300e-01   4.62227290e-01
C     1.005630646215000e+01   6.060709132209732e+00   2.988668272000000e+00  3.28852830e-01  -1.72991566e+00   1.81658182e+00
C     7.416059185200000e+00   1.780560442596936e-01   6.449839712000000e+00 -3.97873513e+00   2.51723205e+00   2.17776480e-01
C     1.191806079150000e+00   8.899506581889924e-01   6.576528199999999e+00 -5.22877090e-01   2.47330659e+00   1.99351140e-01
C     1.162862714700000e+00   3.797332970398968e-01   1.030551968000000e+01 -4.22171197e+00   2.46205540e-01  -1.10544681e+00
C     2.258641354125000e+00   1.065084375544590e+00   1.065988957600000e+01  4.89836543e+00   2.46592315e+00  -3.52323890e-01
C     2.395423711125000e+00   2.692761798124398e-01   6.455289776000000e+00  2.08817279e+00  -2.84799870e+00  -3.56635500e-02
C     3.648450924675000e+00   9.143544029774155e-01   6.440054784000000e+00  1.47228097e+00  -9.72759720e-01   2.74204830e-01
C     3.565279396650000e+00   3.529649081218260e-01   1.060339612800000e+01  1.18460640e-01   2.55704580e-01  -1.20529094e+00
C     4.829337177074999e+00   1.154308624135267e+00   1.044342340800000e+01 -1.01558416e+00  -3.46876429e+00  -5.00177210e-01
C     4.926984417600000e+00   2.190441911597940e-01   6.331984016000000e+00 -1.77175162e+00   2.46939400e-01   7.88122880e-01
C     6.133289540474999e+00   9.606406643199367e-01   6.413163232000000e+00  1.41879684e+00  -1.18620416e+00   5.35028250e-01
C     6.063851636699999e+00   4.013270456070876e-01   1.014695510400000e+01 -2.26573305e+00  -1.05668486e+00   6.92994290e-01
C     7.270957453199999e+00   1.113844409570693e+00   1.006814963200000e+01  2.33398448e+00  -2.66549450e-01   1.51791982e+00
C     8.551963094625000e+00   2.319706669053174e+00   6.729339024000000e+00  1.84927383e+00  -4.44919600e-02  -3.66525860e-01
C     2.451631701075000e+00   2.979691698983399e+00   6.751470032000000e+00 -1.09420262e+00   2.46757100e+00  -1.48573108e+00
C     2.315145809625000e+00   2.545541935247712e+00   1.070459658400000e+01  1.56536910e-01  -6.36342970e-01  -1.18225623e+00
C     3.602879163225000e+00   3.205267336564293e+00   1.061760078400000e+01 -3.22016781e+00   2.69103577e+00  -8.01589390e-01
C     3.702290554950000e+00   2.283509611500718e+00   6.584543496000000e+00 -3.86275785e+00   8.02058710e-01   5.37180410e-01
C     4.828480910025000e+00   3.018344725382587e+00   6.504704560000000e+00  5.08695092e+00   2.11108877e+00  -1.48691000e-01
C     4.772235723225000e+00   2.561083532052045e+00   1.042127104800000e+01  3.27462111e+00  -1.98345228e+00  -5.02503700e-01
C     5.989872537375000e+00   3.260798272212882e+00   1.014548576000000e+01  1.85661476e+00  -1.95480913e+00   9.90455660e-01
C     6.133520634224999e+00   2.396414307997110e+00   6.543449872000000e+00 -1.71973351e+00  -2.98655901e+00  -5.20151200e-01
C     7.347180047625001e+00   3.037177342216017e+00   6.646226976000000e+00  2.17446020e-01   3.36474636e+00  -6.56579580e-01
C     7.328553188850000e+00   2.540045993279996e+00   1.016952376000000e+01 -3.40407581e+00   3.94222000e-03   6.16037400e-02
C     8.506043694224999e+00   3.295414951053225e+00   1.041220760000000e+01  3.29948970e-01  -4.87997274e+00   4.39664250e-01
C     9.831455053499999e+00   4.455097516043975e+00   6.532974608000000e+00 -1.87975441e+00  -1.37178210e-01   7.59197000e-01
C     3.629969858325000e+00   5.224625775605037e+00   6.476809328000000e+00  2.20186591e+00  -4.31385688e+00  -5.18388800e-01
C     3.613578692925000e+00   4.630354451320798e+00   1.032425544800000e+01 -1.81842893e+00   7.44997090e-01  -2.15714630e-01
C     4.881235989599999e+00   5.389482068032062e+00   1.019092839200000e+01 -4.70674236e+00  -6.46923230e-01   8.66839000e-01
C     4.935934216350000e+00   4.422024519518206e+00   6.409764456000000e+00 -3.66473826e+00   2.81184096e+00   9.00628500e-01
C     6.108885190050000e+00   5.228111421030499e+00   6.378351584000000e+00 -6.65287010e-01  -8.72942310e-01   4.00444650e-01
C     6.005036539499999e+00   4.650036336789044e+00   1.023979577600000e+01  1.66849293e+00  -1.17704368e+00  -1.95312950e-01
C     7.229175370424999e+00   5.274396209393712e+00   1.035371957600000e+01 -3.43259360e-01   5.63332783e+00   8.49017910e-01
C     7.316335724475000e+00   4.538188983265337e+00   6.463820376000000e+00  8.19973640e-01  -2.63147316e+00   7.12109340e-01
C     8.520602859299998e+00   5.208697169498222e+00   6.427461591999999e+00  4.13131435e+00  -7.75068010e-01   2.75913750e-01
C     8.412885588449999e+00   4.636631072321649e+00   1.039399597600000e+01  4.60137483e+00   1.74775221e+00  -9.01765580e-01
C     9.694559109300000e+00   5.304957904284839e+00   1.022386568800000e+01  1.72475652e+00   2.37870649e+00   9.78712270e-01
