72
Lattice="7.395 0 0 3.6975 6.40425786098592 0 0 0 13.6 " PBC="1 1 1" Properties=species:S:1:pos:R:3:force:R:3 Energy="-571.62068839"
C     3.738838715550000e+00   6.355320235903439e+00   1.338575974400000e+01  1.42757330e-01   9.43642710e-01   5.66586570e-01
C     1.186899755475000e+00   8.002542236662975e-01   1.340862583200000e+01  2.56373069e+00  -4.60006827e+00   5.93905650e-01
C     1.291266906450000e+00   7.029177656869369e-01   3.420239248000000e+00 -4.24215000e-01   2.75145752e+00   1.61280000e-01
C     2.443852863600000e+00   1.595768656090409e+00   3.418211488000000e+00  2.32908434e+00  -6.41096118e+00  -2.49917600e-02
C     6.070785743325000e+00   6.387338643287402e+00   1.348945294400000e+01  3.93139878e+00   5.97586470e-01  -6.70383990e-01
C     3.704858468700000e+00   7.253927401356636e-01   1.328153437600000e+01 -7.15555400e-01  -1.33410189e+00   2.54095303e+00
C     3.691660353375000e+00   7.628892216079135e-01   3.461233592000000e+00 -1.88305715e+00  -1.45925013e+00   4.30289730e-01
C     4.910267169674999e+00   1.446829762318941e+00   3.499177456000000e+00  5.54125220e-01  -1.97668960e-01   3.67037290e-01
C     8.677144656299999e+00   6.401510305292903e+00   1.343612231200000e+01 -1.15704348e+00  -8.92198430e-01  -1.51350270e-01
C     6.302378988599999e+00   7.290208802985109e-01   1.350013656000000e+01 -6.10954224e+00  -1.78728051e+00   2.85677140e-01
C     6.126556725750000e+00   8.077039766219425e-01   3.508871536000000e+00  4.14473453e+00  -4.33274657e+00   4.45958400e-01
C     7.458654902850000e+00   1.440797015457400e+00   3.415431648000000e+00 -3.85381709e+00  -2.26733080e-01   1.93313880e-01
C     8.603223237975000e+00   2.199511685621851e+00   1.344699116000000e+01  3.69800517e+00  -3.74866788e+00  -1.44326299e+00
C     2.441608481100000e+00   2.888677012022802e+00   1.321188932000000e+01 -1.10602850e-01  -1.88486051e+00   1.71474208e+00
C     2.528668226175000e+00   2.959234065760573e+00   3.411682672000000e+00 -3.84238014e+00   3.69347940e-01  -8.73846400e-02
C     3.754899583275000e+00   3.591077505802386e+00   3.522606856000000e+00  1.18054182e+00   2.29876940e-01   6.28424450e-01
C     3.656235160500000e+00   2.189135442994500e+00   1.335363042400000e+01  2.46978128e+00  -2.45486287e+00  -5.01106390e-01
C     4.939919086050000e+00   2.846431453134469e+00   1.356655909600000e+01 -9.61320660e-01  -7.45562010e-01   5.67657620e-01
C     5.004766062900000e+00   2.808300758006344e+00   3.646446008000000e+00 -3.04519574e+00   4.68416073e+00  -1.75487722e+00
C     6.175807314825000e+00   3.640054452042208e+00   3.524289855999999e+00 -2.34786414e+00  -5.60464671e+00   1.16062270e-01
C     6.212987415150000e+00   2.160691187879624e+00   1.365959520000000e-01 -5.22299313e+00  -5.63514466e+00  -1.59071699e+00
C     7.394768721375000e+00   2.684567358064792e+00   8.673264000000000e-03  1.63906980e-01   8.06771679e+00   3.77565100e-01
C     7.287340262250000e+00   2.862865291143858e+00   3.359112960000000e+00  7.08267195e+00   1.17221629e+00   4.99365190e-01
C     8.593688938425000e+00   3.634344543819390e+00   3.383400520000000e+00  1.53143545e+00  -1.78726529e+00  -7.48190700e-02
C     2.468468304300000e+00   4.252507528433565e+00   1.328219560800000e+01 -1.35885490e-01   1.47799270e-01   4.02956970e-01
C     3.727374838649999e+00   4.878474165292728e+00   1.334952186400000e+01 -2.65608949e+00   4.99164924e+00   2.35686990e-01
C     3.754642680975000e+00   5.012890507770546e+00   3.554423512000000e+00 -4.58519940e-01   5.85325840e-01   1.94723250e-01
C     5.030547695099999e+00   5.674342048708133e+00   3.496158664000000e+00 -5.71850474e+00   3.98337422e+00  -1.13429500e-02
C     4.876214082075000e+00   4.262690618643858e+00   3.798262400000000e-02  2.32238970e+00  -2.80307421e+00  -4.04858150e-01
C     6.101736073800000e+00   4.923149755783459e+00   1.107128400000000e-01  1.93785728e+00   1.60767433e+00  -1.37133855e+00
C     6.139668430500000e+00   4.985774431693256e+00   3.474930152000000e+00  4.99983616e+00  -2.96977890e-01   3.92250150e-01
C     7.389819987374999e+00   5.613148660387468e+00   3.537942488000000e+00  5.84593120e-01   6.17356698e+00  -1.15178816e+00
C     7.323882321975000e+00   4.086047866008709e+00   1.359259126400000e+01  2.02072822e+00   5.83359442e+00   8.00652900e-02
C     8.619359164950000e+00   4.855664888583710e+00   1.344553052000000e+01 -2.12649390e+00   3.71907404e+00  -1.02024000e-03
C     8.670539146499999e+00   5.024191781403195e+00   3.498683096000000e+00 -1.56480950e+00  -7.58816660e-01   6.08739880e-01
C     9.887020824674998e+00   5.738631255278322e+00   3.642639232000000e+00  7.87534740e-01   1.14482234e+00  -1.70172829e+00
C     3.738183814350000e+00   6.385620316860986e+00   7.166079224000001e+00 -1.87792562e+00   2.70321859e+00  -1.47381232e+00
C     1.257974801325000e+00   6.977670132178747e-01   6.914356688000000e+00 -4.60454240e-01   1.90834136e+00  -3.80871050e-01
C     1.241654147250000e+00   6.653211856643353e-01   1.021528422400000e+01 -3.52307461e+00   1.56015120e-01  -4.69774450e-01
C     2.449927745175000e+00   1.397620085348487e+00   1.019848944800000e+01  2.60256860e-01  -9.66839790e-01  -1.48192940e-01
C     6.169548815400000e+00   6.387161565557573e+00   6.668907696000000e+00  7.14631420e-01   3.14185969e+00   1.17585520e-01
C     3.782920643325000e+00   6.882746222177827e-01   6.483299792000000e+00 -1.12001465e+00   5.29664390e-01   2.20476134e+00
C     3.691686642600000e+00   6.714600510786168e-01   1.034203717600000e+01  2.58510110e-01  -1.09179737e+00   1.29772525e+00
C     4.931938032300000e+00   1.381858886542134e+00   1.039674467200000e+01 -3.58922879e+00   5.76754440e-01  -2.05144818e+00
C     8.704383177450000e+00   6.396983007326512e+00   6.906350504000001e+00 -2.49252988e+00   1.32019734e+00  -1.81396008e+00
C     6.164397125625000e+00   7.234874093797350e-01   7.035338752000000e+00  3.05369285e+00   2.08845036e+00   1.72281250e-01
C     6.112635490350000e+00   7.332692087925204e-01   1.027885062400000e+01  1.48763570e+00  -1.67815291e+00   5.37510080e-01
C     7.309963859700000e+00   1.382984755073922e+00   1.014792383200000e+01  5.35477162e+00   9.10724460e-01   1.24717080e-01
C     8.606330136300000e+00   2.217720976037767e+00   6.832857192000001e+00  4.23592920e-01  -3.06030510e+00   1.97606400e-02
C     2.476679379525000e+00   2.835208311447713e+00   6.709000088000000e+00  8.90861970e-01   7.40724900e-02  -8.06261360e-01
C     2.438298590025000e+00   2.814917188929245e+00   1.006041368000000e+01  6.29942370e-01   3.09310520e-01   7.65972030e-01
C     3.728613759975000e+00   3.457582287732573e+00   1.003538709600000e+01 -4.46576888e+00   2.63707272e+00   2.12215840e-01
C     3.779812118100000e+00   2.158710735178998e+00   6.462218568000000e+00 -4.82966858e+00  -3.25732563e+00   1.49245417e+00
C     4.902859598175000e+00   2.849059312262163e+00   6.664842520000001e+00  3.88881038e+00   2.42460142e+00   1.37464938e+00
C     4.885974557699999e+00   2.735457960595761e+00   1.007471176800000e+01  3.33176620e+00   2.34321187e+00   9.88943690e-01
C     6.148499317650000e+00   3.504956952698401e+00   1.011060706400000e+01 -1.49279490e-01   9.06715960e-01   8.85652820e-01
C     6.191167543274999e+00   2.196053258292294e+00   6.897354240000000e+00 -2.27511582e+00  -1.83905364e+00  -7.90157410e-01
C     7.357358895375000e+00   2.943637392338643e+00   6.853314175999999e+00  2.52087170e+00   1.73521960e-01   1.35335470e-01
C     7.427324876099999e+00   2.801648911537476e+00   1.012879475200000e+01 -2.92233777e+00   1.35199478e+00   2.47775730e-01
C     8.605299569100000e+00   3.587931286043505e+00   1.017592228800000e+01  1.93809476e+00  -2.76799563e+00   2.44932600e-02
C     2.478060876450000e+00   4.235523052333373e+00   6.861283368000000e+00 -2.08445958e+00   8.84247960e-01   5.07466960e-01
C     3.589225183124999e+00   5.022302589377073e+00   7.016830512000000e+00  5.93087709e+00  -2.69878805e+00  -7.71206740e-01
C     3.602356077900000e+00   4.930201740283420e+00   1.009151592800000e+01  2.11003415e+00   7.55804570e-01   6.17966420e-01
C     4.852336181700000e+00   5.642773412353678e+00   1.018964523200000e+01  1.56136587e+00   6.35980180e-01   4.22680960e-01
C     4.890576429225000e+00   4.277262610808187e+00   6.858578872000000e+00 -3.47487930e-01   1.01412086e+00  -4.97457600e-01
C     6.143121969449999e+00   5.015941944513099e+00   6.746699832000000e+00 -5.66289340e-01  -1.15935034e+00   6.75360920e-01
C     6.120968730975000e+00   4.980245187584668e+00   1.031796014400000e+01  1.12090692e+00  -3.30139573e+00  -6.46331530e-01
C     7.445317502700000e+00   5.591422791980626e+00   1.054434805600000e+01 -5.53377970e+00   4.18671479e+00  -1.95875477e+00
C     7.415015676750000e+00   4.402628456078252e+00   6.772706975999999e+00 -1.24975367e+00  -3.77188253e+00   2.10744770e-01
C     8.664467075025000e+00   4.995626549857343e+00   6.894252760000000e+00 -2.23715720e-01  -4.42597440e-01  -2.04491680e-01
C     8.636175025200000e+00   4.969135529347190e+00   1.042716977600000e+01  6.30538110e-01  -6.66807840e-01  -9.39113920e-01
C     9.807595233900001e+00   5.755894508723159e+00   1.029993592800000e+01  1.49433335e+00  -4.38564354e+00  -5.71968160e-01
