72
Lattice="7.395 0 0 3.6975 6.40425786098592 0 0 0 13.6 " PBC="1 1 1" Properties=species:S:1:pos:R:3:force:R:3 Energy="-578.0911006"
C     3.754519258425000e+00   6.385717981793351e+00   1.348747264800000e+01 -1.22766316e+00   9.99171930e-01   3.92487370e-01
C     1.290179545650000e+00   7.112248566423001e-01   1.354721200800000e+01 -9.66887400e-01   6.23752730e-01  -5.71626140e-01
C     1.303417778850000e+00   7.383248580323616e-01   3.453630648000000e+00 -3.48786628e+00   4.83135010e-01  -8.29620900e-01
C     2.466923008125000e+00   1.488187178727249e+00   3.442280904000000e+00 -7.96880440e-01   1.72009890e+00  -6.76105220e-01
C     2.531744102475000e+00   1.538462844418500e-02   1.354082653600000e+01 -3.64657756e+00  -2.04766191e+00   2.97522940e-01
C     3.689335291425000e+00   6.910591935353106e-01   1.346741591200000e+01  2.45869731e+00   2.76155281e+00  -2.25365150e-01
C     3.614283177600000e+00   7.188888320233621e-01   3.410187216000000e+00  4.01955034e+00   1.17395896e+00   3.11771170e-01
C     4.930560084975000e+00   1.398362466919618e+00   3.455370224000000e+00 -1.82663889e+00   2.31090000e-03  -2.42858420e-01
C     8.607605034299999e+00   6.381195102764883e+00   1.354433139200000e+01  1.65781330e-01   5.44091100e-01  -3.05256000e-01
C     6.160758526800000e+00   6.590270810395272e-01   1.358574257600000e+01  1.26234360e+00  -1.09495858e+00  -5.84867730e-01
C     6.169945668075000e+00   6.819979371743539e-01   3.456987944000000e+00 -1.70922402e+00   2.29076172e+00  -1.27819570e-01
C     7.347143849099999e+00   1.384168133841293e+00   3.386620456000000e+00  4.85885615e+00   2.73177149e+00   3.29995000e-01
C     1.256709775650000e+00   2.149980322779089e+00   1.350868198400000e+01 -1.31999335e+00  -2.56283970e-01   4.76407630e-01
C     2.457468722475000e+00   2.886502574351597e+00   1.349135572000000e+01  1.29060507e+00  -9.41523900e-01  -1.12729087e+00
C     2.432081502600000e+00   2.975778249132889e+00   3.367624112000000e+00  3.87364253e+00  -4.06619632e+00   8.12941350e-01
C     3.726011385525000e+00   3.577161950068708e+00   3.510462736000000e+00 -1.73475806e+00   2.35442733e+00  -1.10541931e+00
C     3.706531106775000e+00   2.153877377729478e+00   1.334806013600000e+01 -8.22641330e-01  -7.42503030e-01   2.72464779e+00
C     4.915496765775000e+00   2.824604397453439e+00   7.742207999999999e-02  6.98817000e-01  -1.34501120e+00  -1.71583505e+00
C     4.905943830825000e+00   2.828227414209998e+00   3.482557576000000e+00  2.59715250e-01  -1.66881982e+00   3.61010830e-01
C     6.117103364475000e+00   3.491946638813233e+00   3.509285384000000e+00  4.03188318e+00   2.24366706e+00  -1.08395846e+00
C     6.166576210274999e+00   2.023183766303100e+00   5.124248800000000e-02 -3.53271070e-01   4.41135999e+00   1.51142420e-01
C     7.373135240474999e+00   2.833877506664404e+00   1.358645956800000e+01  2.12564580e-01  -1.88153032e+00   3.05537680e-01
C     7.440289716149999e+00   2.861104248317515e+00   3.364500600000000e+00 -3.74500762e+00  -2.28359381e+00   4.43672270e-01
C     8.634826177200001e+00   3.609263997060322e+00   3.318541576000000e+00 -1.65299508e+00   8.97057870e-01   1.28359821e+00
C     9.867528935774999e+00   4.292551495597365e+00   1.346024204800000e+01 -2.41542441e+00   5.86146290e-01   3.45844900e-02
C     3.688802111925000e+00   4.988770023307270e+00   1.342151482400000e+01  1.33679376e+00  -1.24712203e+00   1.28303218e+00
C     3.770184789450000e+00   5.051126424855311e+00   3.457904992000000e+00 -1.08571098e+00  -1.64897344e+00   2.33944130e-01
C     5.005232983200000e+00   5.746902546432247e+00   3.400113288000000e+00 -4.44150800e-02  -2.10319941e+00   7.43763390e-01
C     4.906985194724999e+00   4.229144859802863e+00   4.510929600000000e-02  4.28191220e-01   1.85438485e+00  -5.92474930e-01
C     6.144639793200000e+00   4.983157651931659e+00   5.870752800000000e-02 -8.30332190e-01  -3.25278100e-01  -1.53449650e-01
C     6.208887922950000e+00   4.928040303255671e+00   3.443650968000000e+00 -2.20941642e+00   1.32581391e+00  -1.65646720e-01
C     7.365318725474999e+00   5.723701137014461e+00   3.406336512000000e+00  1.62552210e+00  -2.26116675e+00   1.04742659e+00
C     7.322080899974999e+00   4.244603713595646e+00   2.568482400000000e-02  2.05143784e+00   6.49024060e-01  -6.06242770e-01
C     8.557731231600000e+00   5.002403215311903e+00   1.349422219200000e+01  1.70247351e+00  -2.53176277e+00   7.40691330e-01
C     8.635543381274999e+00   4.998372439457397e+00   3.546197960000000e+00 -7.58111600e-02   2.04741556e+00  -1.91075565e+00
C     9.891827204925001e+00   5.726008334951104e+00   3.495959152000000e+00 -2.64320960e-01  -3.20119521e+00   2.20723450e-01
C     2.156075107500000e-02   2.602619947467540e-02   6.947138400000000e+00  6.70115770e-01  -1.85441898e+00   1.43942490e-01
C     1.222247781525000e+00   7.421034342123403e-01   6.878683480000000e+00  1.42859774e+00  -7.43542380e-01  -5.72953960e-01
C     1.156787130600000e+00   6.567767529126805e-01   1.020183559200000e+01  5.31270751e+00   1.20799538e+00   3.06910600e-02
C     2.470081819350000e+00   1.405659926623352e+00   1.014612836000000e+01 -1.09268427e+00  -1.42231964e+00   1.09331392e+00
C     2.485676432325000e+00   4.457113704503460e-02   6.692647312000000e+00 -1.09090942e+00  -1.24832342e+00   9.88752920e-01
C     3.786479708925000e+00   6.603501366708247e-01   6.616830032000000e+00 -1.45695656e+00   9.62217100e-02   8.06874080e-01
C     3.702819926025000e+00   6.728764807895130e-01   1.034163964800000e+01 -2.37495285e+00   5.79832480e-01  -1.51369183e+00
C     4.891330164599999e+00   1.403908746354114e+00   1.022159204000000e+01  2.34449819e+00  -1.19452160e-01   1.08179738e+00
C     5.012698420575000e+00   4.413238133904601e-03   6.833434511999999e+00  7.61457580e-01  -3.35615450e-01   3.79095910e-01
C     6.271951891350000e+00   7.968351825225792e-01   7.002142783999999e+00 -4.19531574e+00  -2.35862293e+00  -1.79863160e+00
C     6.172599289875000e+00   7.294496453622379e-01   1.028144020000000e+01 -4.46218570e-01  -5.32327700e-02  -8.26162890e-01
C     7.447173056100000e+00   1.413210674725450e+00   1.019831944800000e+01 -4.32146230e+00   2.40952197e+00  -4.31542820e-01
C     8.608683151349998e+00   2.134698354588400e+00   6.894811176000000e+00 -1.41692810e-01   2.31424617e+00  -1.60865743e+00
C     2.483261742975000e+00   2.772397399719348e+00   6.694829840000000e+00 -1.28444224e+00   4.39019320e-01   1.25670306e+00
C     2.472465449700000e+00   2.825027398685092e+00   1.013003643200000e+01 -6.31571600e-01  -9.28040870e-01   1.58952650e-01
C     3.671265978675000e+00   3.503941301444384e+00   1.010651863200000e+01  2.28961396e+00   2.18165923e+00   3.86818900e-01
C     3.710240438775000e+00   2.047541464477509e+00   6.615137784000000e+00  1.25806409e+00   2.98745976e+00   7.37859080e-01
C     4.929949886550000e+00   2.835805764663472e+00   6.748549160000000e+00 -2.08410295e+00   4.86421820e-01  -1.70471800e-01
C     4.932359547299999e+00   2.815363885914981e+00   1.019510998400000e+01 -1.73122046e+00   7.62994600e-02  -8.95366350e-01
C     6.146355359249999e+00   3.541105914274328e+00   1.014854576000000e+01  9.70879640e-01  -1.11712874e+00   1.74117960e-01
C     6.140856806999999e+00   2.172352188676270e+00   6.791750240000000e+00  3.08118164e+00   1.78802149e+00   8.69660930e-01
C     7.393691417775000e+00   2.985990286588710e+00   6.798276607999999e+00 -5.22910640e-01  -5.05054959e+00   5.64998780e-01
C     7.417538444025000e+00   2.906182090244434e+00   1.010232085600000e+01  6.26662700e-01  -2.72215990e+00   1.29385915e+00
C     8.671632386325001e+00   3.576778975448679e+00   1.023202772800000e+01 -1.95057053e+00  -4.10386300e-02  -7.72920150e-01
C     9.807293185124999e+00   4.187543697340404e+00   6.864996167999999e+00  3.18219775e+00   9.13766990e-01  -7.12463530e-01
C     3.684459693975000e+00   4.942327241902651e+00   6.876403848000000e+00 -3.58117943e+00   2.50892861e+00   4.13671310e-01
C     3.692404881974999e+00   4.976321042623531e+00   1.009325604800000e+01 -1.99892281e+00  -1.22638475e+00   1.12825556e+00
C     4.886552920650000e+00   5.665794798083020e+00   1.023685776800000e+01  1.11574985e+00  -1.19727650e+00  -7.55450340e-01
C     4.857112501274999e+00   4.300491750662508e+00   6.861323488000001e+00  3.25006233e+00  -2.43231906e+00  -7.15860750e-01
C     6.080541005475000e+00   5.041080898103851e+00   6.817936631999999e+00  2.18197454e+00  -1.83718540e-01  -8.19991010e-01
C     6.146338720499999e+00   4.913071375189177e+00   1.023736436800000e+01 -1.51437595e+00   2.81212599e+00   3.14371930e-01
C     7.330388442975000e+00   5.648686527678394e+00   1.036131762400000e+01  2.50040124e+00   1.07309530e-01  -1.99346690e-01
C     7.371480128549999e+00   4.347727058977302e+00   6.749718080000000e+00 -7.63732980e-01   6.52521100e-01   6.92136330e-01
C     8.648672131500000e+00   4.955723732536777e+00   6.861375984000000e+00 -7.12394130e-01   2.02752169e+00  -3.62306060e-01
C     8.621812678050000e+00   4.988855904405173e+00   1.035029183200000e+01 -5.71213330e-01  -7.00967000e-03  -8.96653000e-01
C     9.829884207599999e+00   5.719947665525294e+00   1.021949628000000e+01  1.45519694e+00  -5.71391290e-01   3.57928340e-01
