72
Lattice="7.395 0 0 3.6975 6.40425786098592 0 0 0 13.6 " PBC="1 1 1" Properties=species:S:1:pos:R:3:force:R:3 Energy="-581.48934221"
C     3.700369703700000e+00   6.228917221072948e+00   5.419654399999999e-02  1.46492970e-01   8.12121790e-01  -1.17433400e-02
C     1.210692613350000e+00   6.003820109639352e-01   1.661199200000000e-02  3.68547140e-01  -2.21976497e+00   1.53724310e-01
C     1.343713540575000e+00   9.011882734985132e-01   3.336224160000000e+00 -1.85881010e-01   1.10519580e-01   2.95621500e-02
C     2.557261696200000e+00   1.667679762067519e+00   3.199994728000000e+00 -5.68666000e-01  -1.48488044e+00   5.10153640e-01
C     6.112404692400000e+00   6.244428333609867e+00   1.275367200000000e-01  1.77755702e+00   7.25127730e-01  -2.19093110e-01
C     3.682534886400000e+00   5.823041999618844e-01   1.043249200000000e-01 -2.65578780e-01  -7.10040770e-01  -3.39364370e-01
C     3.754089202200000e+00   8.822089351175101e-01   3.282093984000000e+00  8.00388570e-01   1.60058937e+00   4.70716800e-01
C     4.980961114199999e+00   1.596709825825514e+00   3.426045224000000e+00  1.18481185e+00   1.55231610e-01  -3.38340330e-01
C     8.633083545450001e+00   6.265697898644184e+00   1.826941040000000e-01 -1.15738682e+00  -1.06216563e+00  -5.67626680e-01
C     6.186996023774999e+00   5.450760568939687e-01   1.481715920000000e-01 -1.42697986e+00   3.60965080e-01  -2.44419970e-01
C     6.244229256524999e+00   9.101400170500639e-01   3.534059416000000e+00 -4.53551200e-02  -1.75440020e-01  -5.24439670e-01
C     7.497173350274999e+00   1.588835982914380e+00   3.403778352000000e+00 -4.26461020e-01   1.39254341e+00   3.18450000e-03
C     1.214662360275000e+00   2.002253242679890e+00   1.354760708800000e+01 -9.53525600e-02  -2.98047300e-01   4.09598500e-01
C     2.429730410250000e+00   2.728744761336594e+00   1.347846224000000e+01  9.33382880e-01  -1.43074291e+00   2.48120980e-01
C     2.549430613050000e+00   3.091447471619707e+00   3.219837536000000e+00  4.88764830e-01  -8.99737870e-01   7.97592420e-01
C     3.818997779400000e+00   3.757061331868245e+00   3.422729408000000e+00 -1.56272575e+00   1.49481340e-01  -6.40120010e-01
C     3.681177792974999e+00   2.004196166429457e+00   1.352610168000000e+01  7.46784800e-02  -5.82636540e-01   1.23369433e+00
C     4.929922155300000e+00   2.686696581675507e+00   1.366669440000000e-01 -1.01539868e+00  -2.29283380e-01  -7.25755270e-01
C     5.032703004825001e+00   3.029118480295308e+00   3.403380552000000e+00 -1.43402823e+00  -9.90196190e-01   4.49083780e-01
C     6.235893871349999e+00   3.718966372498977e+00   3.431615648000000e+00  1.26205094e+00   1.08130972e+00  -3.13522650e-01
C     6.157102919474999e+00   1.992133490579833e+00   1.862239840000000e-01 -5.55887770e-01  -2.12613838e+00  -2.60071680e-01
C     7.369518272025000e+00   2.659693092451395e+00   1.270823440000000e-01  9.15726600e-01   5.29991600e-01  -2.63641800e-02
C     7.470095744325000e+00   3.044770102249676e+00   3.330257704000000e+00  1.22108080e-01  -1.65173757e+00   1.87465350e-01
C     8.678259970199999e+00   3.767230396753825e+00   3.258108752000000e+00  1.56082636e+00  -3.94296120e-01   8.01125170e-01
C     2.440055457150000e+00   4.118167332581703e+00   1.354598352000000e+01 -1.08446470e-01   8.88706890e-01   3.38070160e-01
C     3.701608403175000e+00   4.805116657677937e+00   1.359161532800000e+01 -1.00872782e+00   6.62706630e-01   4.64306750e-01
C     3.815636123325000e+00   5.169366892830340e+00   3.538854640000000e+00 -1.87699870e-01   6.44718060e-01  -3.80669510e-01
C     5.057709825900000e+00   5.865141925683441e+00   3.455315008000000e+00 -7.87724830e-01   1.07904207e+00  -1.29636500e-01
C     4.905096585675000e+00   4.095836646062562e+00   1.411777920000000e-01  8.08443740e-01   4.94316250e-01  -2.00973960e-01
C     6.129171523800000e+00   4.817996452787919e+00   2.495548320000000e-01  6.14096410e-01  -4.55489700e-01  -4.04525910e-01
C     6.261691476750000e+00   5.151790727346463e+00   3.400061472000000e+00  4.11204500e-02  -3.04302450e-01  -1.18185890e-01
C     7.475920379100000e+00   5.882014967696868e+00   3.331441312000000e+00  4.74272360e-01  -9.36098980e-01   6.77063770e-01
C     7.384265787750000e+00   4.038524366090214e+00   2.495959040000000e-01 -1.00345065e+00   3.52531961e+00  -9.05703170e-01
C     8.583374577299999e+00   4.795533902599440e+00   1.123583040000000e-01  1.04451253e+00   1.23317730e+00   2.57145050e-01
C     8.719794024675000e+00   5.153122364683294e+00   3.438679896000000e+00  4.29488000e-03   2.22445148e+00  -5.06975040e-01
C     9.971032609574999e+00   5.904232939277673e+00   3.558000312000000e+00 -7.79355040e-01  -1.73483492e+00  -4.94181670e-01
C     7.426706912924999e+00   1.038143648047506e-01   6.857735808000000e+00 -3.00016600e-02   7.33951010e-01   2.66742500e-02
C     1.260468173475000e+00   8.281739700624390e-01   6.765871344000000e+00 -4.94624260e-01   1.02750592e+00  -8.82867000e-03
C     1.128882726675000e+00   5.531656592524062e-01   1.015238544800000e+01  4.33466450e-01   1.88629950e-01   1.64833600e-02
C     2.358301143900000e+00   1.259876987082714e+00   9.950504872000000e+00  3.66379440e-01   7.51884800e-02   9.20992630e-01
C     2.490522560700000e+00   1.413711743860416e-01   6.791116344000000e+00  4.14128590e-01  -1.25602603e+00   1.97774080e-01
C     3.766894643025000e+00   8.178937272604099e-01   6.776169672000000e+00 -8.66177580e-01  -5.04877390e-01   7.16809700e-02
C     3.620099456025000e+00   5.448718891533919e-01   1.004490315200000e+01 -2.19724806e+00  -1.43248260e-01  -1.36613600e-01
C     4.813494609750000e+00   1.238952867717365e+00   1.009379352000000e+01  1.76003707e+00   1.16191911e+00   7.55731930e-01
C     5.004466528425000e+00   1.085699105212722e-01   6.903499535999999e+00 -6.74067460e-01   4.47466500e-01  -3.13975120e-01
C     6.215738503050000e+00   8.561582073352308e-01   6.909286743999999e+00 -8.10131400e-02  -9.82551820e-01  -7.67690280e-01
C     6.067833067725000e+00   5.811413788622443e-01   1.027151532800000e+01 -2.55553740e-01  -7.27966080e-01  -5.99918260e-01
C     7.303504992750000e+00   1.267698635292289e+00   1.026788154400000e+01 -1.16204960e-01   4.87189830e-01  -6.63401060e-01
C     8.619730393950000e+00   2.286513080351900e+00   6.696562072000000e+00  1.10671647e+00  -1.20274547e+00  -8.50789800e-02
C     2.488179011250000e+00   2.959219912350702e+00   6.641181919999999e+00 -7.21049100e-02  -1.29129239e+00   7.24032170e-01
C     2.361897665175000e+00   2.706080925323576e+00   9.929694968000000e+00  1.73968970e-01  -1.46391494e+00   6.83157390e-01
C     3.602417456400000e+00   3.374418580482550e+00   9.992299168000001e+00 -1.18219800e-01   1.49547731e+00   7.12210580e-01
C     3.735198489825000e+00   2.220594758667285e+00   6.682304375999999e+00  1.26003500e-02   1.56195653e+00   2.58187240e-01
C     4.952315435475000e+00   2.988281601965860e+00   6.753930000000000e+00 -2.81472800e-02  -2.07657413e+00   3.73240000e-04
C     4.828885194674999e+00   2.654501801030079e+00   1.011376484800000e+01 -1.36145180e-01   1.21020745e+00  -2.75277490e-01
C     6.061320550050000e+00   3.395792150664513e+00   1.022495355200000e+01 -1.34078570e-01  -7.45958430e-01  -3.33484730e-01
C     6.208757660024999e+00   2.259236257402324e+00   6.776096367999999e+00 -1.00064691e+00   1.39759876e+00   3.29392580e-01
C     7.409827640550001e+00   3.012754000398543e+00   6.725781263999999e+00  3.05094710e-01   5.46270700e-02   3.88296150e-01
C     7.303791918750000e+00   2.682025956418209e+00   1.019974296000000e+01  4.25975020e-01   9.27319240e-01   1.24827440e-01
C     8.549427792825000e+00   3.413436585537179e+00   1.010789304800000e+01 -1.13318495e+00   1.59255020e-01  -9.40541100e-02
C     9.869561044799999e+00   4.348225694494282e+00   6.788399472000000e+00  5.86742390e-01   1.05979422e+00  -1.70468660e-01
C     3.682582842975000e+00   5.093096280442771e+00   6.831418311999999e+00  8.70717550e-01  -2.79793070e-01   4.47080700e-02
C     3.549241638300000e+00   4.828517239515169e+00   1.014558463200000e+01  2.53432978e+00  -7.47759880e-01   7.37557100e-02
C     4.803907842675000e+00   5.544002784869148e+00   1.021640418400000e+01  4.81826330e-01  -1.16990575e+00  -4.93979310e-01
C     4.915191685050000e+00   4.382052728340487e+00   6.820773048000000e+00  8.46186510e-01   7.15788500e-01  -1.56385440e-01
C     6.157566549000000e+00   5.090658243518048e+00   6.863543144000000e+00  3.80783550e-01   2.05437371e+00  -5.23800470e-01
C     6.049323715500000e+00   4.806365423918058e+00   1.020401363200000e+01  3.03909980e-01   1.22981458e+00  -9.46960100e-02
C     7.316192964000000e+00   5.538238504497099e+00   1.015829750400000e+01 -1.69524688e+00  -5.26205830e-01   1.32402760e-01
C     7.424514221475000e+00   4.467347260265690e+00   6.804975696000001e+00 -1.16042107e+00  -3.01539811e+00  -1.22214200e-02
C     8.671636268699999e+00   5.082136994179845e+00   6.867159248000000e+00 -1.54693620e-01   1.51590808e+00  -2.02882220e-01
C     8.533237290750000e+00   4.850388676703170e+00   1.017307553600000e+01  4.75598830e-01  -8.26742200e-01  -1.85669930e-01
C     9.769519968825000e+00   5.570725831641571e+00   1.020104407200000e+01 -1.17009543e+00  -5.98938530e-01  -2.17968500e-02
