72
Lattice="7.395 0 0 3.6975 6.40425786098592 0 0 0 13.6 " PBC="1 1 1" Properties=species:S:1:pos:R:3:force:R:3 Energy="-578.90690943"
C     3.687599906775000e+00   6.198342461495785e+00   1.779657920000000e-01 -7.93995950e-01   1.00342850e-01   1.08708640e+00
C     1.262265417300000e+00   4.416851416189213e-01   2.303977360000000e-01 -1.58016163e+00   2.97107397e+00  -7.35183390e-01
C     1.402495434225000e+00   1.062008538579589e+00   3.411252096000000e+00 -4.56154280e-01  -9.22911220e-01  -2.83303790e-01
C     2.619686108025000e+00   1.739600154218527e+00   3.334429504000000e+00  1.13521146e+00   1.04748068e+00   4.61093200e-01
C     6.207539111925000e+00   6.198063363938246e+00   2.290837040000000e-01 -3.91650356e+00  -4.48644290e-01  -1.02304400e-01
C     3.668510157975000e+00   4.719395602179259e-01   1.276595280000000e-01  2.55150389e+00   1.24180968e+00   1.39321016e+00
C     3.880274006550000e+00   1.060009705658904e+00   3.357699512000000e+00  1.23312730e-01  -8.27063470e-01  -2.33515600e-01
C     5.151636826799999e+00   1.733753258920083e+00   3.300195040000000e+00 -2.07289317e+00   2.88442210e-01   1.69250737e+00
C     8.595533732100000e+00   6.156845240138393e+00   2.602585760000000e-01 -8.12812630e-01   1.31179539e+00  -1.07170990e-01
C     6.078494365275000e+00   4.515115146664123e-01   2.604206880000000e-01  3.70291280e+00   4.51841940e-01  -8.31364330e-01
C     6.368949961799999e+00   9.862242014913289e-01   3.415653872000000e+00 -2.14153622e+00   3.34818852e+00  -2.65760370e-01
C     7.537343323050000e+00   1.708439276962018e+00   3.412945840000000e+00  3.11294678e+00   3.02001272e+00  -2.24777070e-01
C     1.238205193200000e+00   1.896396816213900e+00   1.460788240000000e-01 -1.22395046e+00   7.37252110e-01   6.25292320e-01
C     2.444050273125000e+00   2.627126672722352e+00   1.829633840000000e-01  7.18708320e-01   4.23321800e-02   1.15007250e-01
C     2.619134736825000e+00   3.156449472089714e+00   3.341837696000000e+00  2.16626186e+00   4.22797710e-01  -3.29732450e-01
C     3.871240607324999e+00   3.870067984149767e+00   3.288638712000000e+00 -7.23958060e-01   1.61580271e+00   1.70024830e+00
C     3.677378426850000e+00   1.880347489846426e+00   2.432066240000000e-01 -2.94521620e-01   1.60479492e+00  -1.86501849e+00
C     4.902833271975000e+00   2.603188709608087e+00   1.256659040000000e-01  6.61921850e-01   5.11331950e-01   1.29740501e+00
C     5.064868407750000e+00   3.166566086103420e+00   3.467323264000000e+00  2.07912913e+00  -8.10010450e-01  -1.93077607e+00
C     6.303520295924999e+00   3.874277630926303e+00   3.445693688000000e+00  2.24512633e+00   7.06385380e-01  -4.72840450e-01
C     6.122144683875000e+00   1.823708937800950e+00   1.649828240000000e-01  5.89625830e-01   4.82181348e+00  -1.51779980e-01
C     7.380608960249999e+00   2.661513887003572e+00   1.595943680000000e-01 -7.96149370e-01  -1.69486279e+00  -9.57312730e-01
C     7.623798859649999e+00   3.191312394644775e+00   3.367619760000000e+00 -3.44427346e+00  -1.44090839e+00   8.92362130e-01
C     8.848237483875000e+00   3.889340445413023e+00   3.402518856000000e+00 -2.09840750e+00   1.33667546e+00  -4.17233860e-01
C     2.443249838325000e+00   4.070715176095768e+00   1.987188480000000e-01 -5.27765370e-01  -4.85303220e-01   8.30605320e-01
C     3.640427867325000e+00   4.816730266966418e+00   2.164695680000000e-01  2.34609349e+00  -2.77171418e+00  -2.14704470e-01
C     3.900975014925000e+00   5.360190849815202e+00   3.402924136000000e+00 -1.38864367e+00  -2.64592988e+00  -3.00452050e-01
C     5.113631259600000e+00   6.057550167977709e+00   3.381013176000000e+00  4.07252080e-01  -1.11299042e+00   2.68018260e-01
C     4.927264835999999e+00   4.065958285485096e+00   2.259150400000000e-01 -1.98544551e+00  -2.06811420e-01  -5.19253500e-01
C     6.118287525825000e+00   4.819562742132740e+00   2.604084480000000e-01  1.18855583e+00  -2.50272973e+00  -1.30669013e+00
C     6.341761245975000e+00   5.305970097239612e+00   3.373038816000000e+00 -7.46922400e-01  -8.19776800e-02   7.13078960e-01
C     7.558735320225000e+00   6.030998691273356e+00   3.432138568000000e+00  8.30286780e-01  -5.94909000e-03  -7.73876660e-01
C     7.344192319724999e+00   4.130550157281748e+00   7.547007200000000e-02  1.32781305e+00  -2.94613697e+00   2.62989129e+00
C     8.615349706875000e+00   4.791267706226002e+00   3.509070640000000e-01 -1.24984066e+00  -2.38430268e+00  -2.72092516e+00
C     8.811570781424999e+00   5.351419962505617e+00   3.416677680000000e+00 -4.88443990e-01  -1.79941485e+00   4.94071550e-01
C     1.002710135167500e+01   6.042586043104611e+00   3.472124744000000e+00  1.37725629e+00  -2.52472280e+00  -7.30806080e-01
C     7.367332494899999e+00   2.182705568103060e-01   6.498481880000000e+00  1.66852479e+00  -2.32297909e+00   3.33752790e-01
C     1.215021905175000e+00   9.107102521699183e-01   6.528622336000000e+00 -3.62540000e-02  -1.26137619e+00   2.77953830e-01
C     1.095835876725000e+00   3.928232798928438e-01   1.029567559200000e+01  5.81433150e-01   8.77382430e-01  -9.39145530e-01
C     2.306043452024999e+00   1.096408625419107e+00   1.016154069600000e+01  1.26168866e+00   5.37330430e-01  -2.08361150e-01
C     2.453798288175000e+00   2.218762180280646e-01   6.648136144000000e+00 -1.00430441e+00  -1.90259119e+00  -4.03910250e-01
C     3.672243708600000e+00   8.880049165659673e-01   6.640574952000000e+00  6.14770670e-01  -2.73344110e-01   3.49261680e-01
C     3.542617197300000e+00   3.550973979040488e-01   1.003485275200000e+01  4.66901710e-01   3.01258135e+00   1.81522742e+00
C     4.821347582100000e+00   1.159030803668338e+00   1.022665980800000e+01 -1.81590929e+00  -1.48101728e+00  -1.33930173e+00
C     4.904224863075000e+00   2.005901300084682e-01   6.675293576000000e+00  1.53806016e+00  -6.05881100e-01  -1.07532465e+00
C     6.190869746624999e+00   9.146481022428751e-01   6.524413952000000e+00 -3.50585036e+00   5.23512940e-01   1.10147229e+00
C     6.014923284750000e+00   4.422946988820360e-01   1.024986331200000e+01  1.65651744e+00  -1.02459460e+00  -5.70437500e-02
C     7.295476943774998e+00   1.162863431784655e+00   1.028790482400000e+01 -2.08273466e+00  -9.62911300e-01   4.98115950e-01
C     8.615122976175000e+00   2.274427541301716e+00   6.500375271999999e+00 -6.21672310e-01   3.58033330e+00   7.59194550e-01
C     2.471692006650000e+00   2.976249858681700e+00   6.618604968000001e+00 -2.18032163e+00   2.06067997e+00  -1.34119761e+00
C     2.324606381025000e+00   2.552389239666466e+00   1.016340661600000e+01  6.30571350e-01  -1.26906761e+00   4.24421080e-01
C     3.531837542775000e+00   3.266101510061591e+00   1.026109120000000e+01  2.44408628e+00  -9.52140570e-01  -8.76404730e-01
C     3.661434104325000e+00   2.269202435398899e+00   6.615659208000000e+00  1.64321703e+00   2.22797947e+00   4.96579740e-01
C     4.902746898375000e+00   3.023643608335951e+00   6.661591848000000e+00 -1.00484433e+00   2.57942850e-01  -2.14380300e-01
C     4.826458969124999e+00   2.586082680693712e+00   1.021339708800000e+01 -2.53742979e+00  -1.72946102e+00   7.29878360e-01
C     6.017943180900001e+00   3.263090548228711e+00   1.026602718400000e+01  1.33744812e+00   1.94281050e-01   2.41820260e-01
C     6.121327166625000e+00   2.358993973150815e+00   6.602185416000000e+00  1.59053583e+00  -1.41884418e+00  -5.58598090e-01
C     7.355550189300000e+00   3.066758801399093e+00   6.520620367999999e+00  4.94625290e-01  -2.46888229e+00   3.95396260e-01
C     7.265200038974999e+00   2.585753245669394e+00   1.032533936800000e+01  1.23835635e+00  -9.88028080e-01  -1.24589327e+00
C     8.545534510200000e+00   3.281379827825299e+00   1.017921865600000e+01 -2.95154451e+00  -8.16953080e-01   8.86821150e-01
C     9.823423750724999e+00   4.455029823038394e+00   6.496724760000000e+00  1.02664833e+00  -7.28839150e-01   1.52343129e+00
C     3.704568917475000e+00   5.154252331940111e+00   6.551818224000000e+00 -2.81681082e+00   1.29555782e+00  -1.61426990e-01
C     3.600581869500000e+00   4.646712911215174e+00   1.027471214400000e+01 -1.92835974e+00   2.20866715e+00  -3.74207590e-01
C     4.851615538950000e+00   5.386292107191997e+00   1.025094954400000e+01 -3.41013688e+00  -2.50548700e-01   4.94193980e-01
C     4.897306396874999e+00   4.452623231019764e+00   6.655296272000000e+00  8.21210210e-01  -6.35448200e-02  -2.30891950e-01
C     6.132085486574999e+00   5.190609816151960e+00   6.651030904000000e+00 -9.15046880e-01  -3.97103340e-01   1.57703050e-01
C     6.017863130024999e+00   4.669771377597526e+00   1.024369353600000e+01  2.94044500e-01  -1.04588510e-01  -4.20556520e-01
C     7.197105769725000e+00   5.370929381309693e+00   1.012806456800000e+01  3.50918725e+00   4.12296700e-02   2.04665120e-01
C     7.309589598750000e+00   4.438858367473530e+00   6.600000848000001e+00  2.81329520e+00   2.44422947e+00   1.96155320e-01
C     8.588744567475000e+00   5.185202060814976e+00   6.607575096000000e+00 -9.13169100e-02  -9.44216690e-01  -2.84059340e-01
C     8.489768001749999e+00   4.675433317928974e+00   1.018302747200000e+01 -2.77441960e-01   7.82827910e-01  -3.97062480e-01
C     9.706760896275000e+00   5.364399599995636e+00   1.019767739200000e+01  1.62691750e+00   1.91344608e+00   5.23712960e-01
