72
Lattice="7.395 0 0 3.6975 6.40425786098592 0 0 0 13.6 " PBC="1 1 1" Properties=species:S:1:pos:R:3:force:R:3 Energy="-572.5080624"
C     3.699252134325000e+00   6.257970969408358e+00   1.316375660800000e+01 -2.48309008e+00   3.49445097e+00  -3.22428460e-01
C     1.104261037200000e+00   6.732245522042041e-01   1.307760210400000e+01  4.10542680e+00  -2.97116370e+00   3.18365540e-01
C     1.310082115875000e+00   8.238802994227806e-01   3.572669544000000e+00 -5.91964460e-01   1.84989540e-01   4.16005060e-01
C     2.576666656875000e+00   1.549171339943628e+00   3.518928056000000e+00 -2.47399257e+00   9.62869970e-01   2.90290890e-01
C     5.987891971500000e+00   6.313536039751341e+00   1.315001639200000e+01  5.85091768e+00  -3.10359200e-02   1.15316981e+00
C     3.666474647250000e+00   6.966032955221341e-01   1.322273640800000e+01 -3.20982400e-02  -2.99057053e+00  -1.32969765e+00
C     3.742581768750000e+00   7.895632758077065e-01   3.672359992000000e+00  2.35429386e+00   5.26182935e+00   1.83896950e-01
C     4.941508715250000e+00   1.606360530079906e+00   3.832106952000000e+00  2.81707608e+00  -1.31043437e+00  -2.06624688e+00
C     8.698571188124999e+00   6.349519963602216e+00   1.319297185600000e+01 -4.01928640e+00  -9.01489400e-01   1.91522060e-01
C     6.209230681200000e+00   6.718133099421745e-01   1.321182893600000e+01 -2.22663436e+00  -7.27948100e-01   3.18256290e-01
C     6.268875127649999e+00   8.797614839337325e-01   3.800426568000000e+00 -2.72326778e+00   6.91052990e-01  -4.80917580e-01
C     7.479016850475000e+00   1.568964979711529e+00   3.598875520000000e+00  5.54538740e-01   2.22191550e-01   5.16969070e-01
C     1.209531339525000e+00   2.057070487832560e+00   1.302310200800000e+01 -1.45889749e+00  -5.36054610e-01   1.21014139e+00
C     2.389087601175000e+00   2.764572933636314e+00   1.297934156000000e+01  3.65662661e+00  -1.51433487e+00  -2.94865540e-01
C     2.556928181700000e+00   3.035880800212260e+00   3.551852432000000e+00 -1.92567600e-02  -3.21549793e+00   9.12986610e-01
C     3.854689968750000e+00   3.687719614144566e+00   3.832913296000000e+00 -6.57523221e+00   1.52562217e+00  -1.99845624e+00
C     3.695246336775000e+00   2.078169059182016e+00   1.298839508000000e+01 -5.94163720e-01  -2.31753460e-01   3.00984665e+00
C     4.919024291700000e+00   2.798358147678694e+00   1.335854546400000e+01 -9.04732240e-01  -2.39250501e+00  -1.95903205e+00
C     5.024706495525000e+00   3.072818061888175e+00   3.657091000000000e+00 -2.10026620e-01  -5.44835350e+00   1.68505956e+00
C     6.216018810524999e+00   3.715638015646557e+00   3.707786088000000e+00  3.32613808e+00   1.50603922e+00  -6.05503600e-02
C     6.166884027150000e+00   2.159956235247611e+00   1.335709828800000e+01 -7.00916960e-01  -5.14830179e+00   1.94903700e-02
C     7.419061296374999e+00   2.728524006568160e+00   1.334472310400000e+01  1.98307410e-01  -1.20798730e-01  -3.26471050e-01
C     7.463993205450000e+00   3.009975192913088e+00   3.616038720000000e+00 -3.97106436e+00  -3.26144956e+00  -4.08365350e-01
C     8.601106123425000e+00   3.656994482592852e+00   3.550109320000000e+00  7.43465595e+00   3.35399118e+00   1.14407176e+00
C     2.452012506600000e+00   4.128921746635686e+00   1.297158112800000e+01 -1.68028560e-01   3.07404618e+00   9.07480830e-01
C     3.709358289224999e+00   4.896209028286377e+00   1.306617361600000e+01 -1.06301341e+00  -2.83661364e+00   5.37981080e-01
C     3.758163181650000e+00   5.081963566876997e+00   3.844740671999999e+00 -7.42213400e-01   1.66118749e+00  -1.04173910e-01
C     4.930253895000000e+00   5.771700089036481e+00   3.797484752000000e+00  4.77324534e+00   3.17258654e+00  -9.35676290e-01
C     4.924583445974999e+00   4.155654207667162e+00   1.326220224800000e+01 -5.25973260e-01   2.49754359e+00   1.65681790e-01
C     6.131225595975000e+00   4.847212100762031e+00   1.334688156000000e+01  1.27744559e+00   1.67861775e+00   2.50485700e-01
C     6.271126498425000e+00   5.139075393578326e+00   3.786853088000000e+00 -3.03316530e+00  -9.63059000e-01  -1.02231233e+00
C     7.476237513675000e+00   5.848856218158354e+00   3.657539392000000e+00  5.64298690e-01  -3.65198452e+00   1.32207049e+00
C     7.482365491350000e+00   4.058091423215029e+00   1.346566586400000e+01 -3.49637176e+00   6.57954656e+00  -1.87977667e+00
C     8.590810249800001e+00   4.813513856541390e+00   1.306588760800000e+01  2.68853187e+00   3.05354445e+00   2.11823621e+00
C     8.689586484974999e+00   5.068333577001295e+00   3.769566128000000e+00  2.73409410e-01   3.12035314e+00  -1.50196068e+00
C     9.955678629900000e+00   5.884134648963371e+00   3.782683192000000e+00 -1.72770789e+00  -3.81243011e+00   4.87505680e-01
C     7.379987706300000e+00   5.627536658223481e-02   7.137747568000000e+00  2.32349953e+00   1.58928513e+00  -8.41357760e-01
C     1.295039946375000e+00   8.022341640262951e-01   6.908562815999999e+00 -2.32255749e+00  -3.01475290e-01   6.02650730e-01
C     1.186136554500000e+00   5.842368768988753e-01   1.018874409600000e+01 -1.54832316e+00   4.86326120e-01   6.03899230e-01
C     2.400505850925000e+00   1.304379086228018e+00   1.016878364800000e+01 -3.48336600e-02   2.36816000e-02   3.14015830e-01
C     2.504943106500000e+00   7.982548784049841e-02   6.762755040000000e+00 -5.36624880e-01  -7.88440960e-01   7.59305110e-01
C     3.718107720450000e+00   8.107312693123645e-01   6.710681728000000e+00  3.20304000e-03  -3.28282450e-01   3.95754800e-01
C     3.637355503650000e+00   5.732173265694877e-01   1.042568424800000e+01 -2.23457733e+00   2.49333195e+00  -2.52390008e+00
C     4.835119068750000e+00   1.234189508806254e+00   1.020491476800000e+01  1.85929428e+00   2.62547727e+00   1.42788317e+00
C     4.943740711125000e+00   5.817557393187541e-02   6.879305136000000e+00  1.70678540e-01   2.06408069e+00   8.40455280e-01
C     6.147698439149999e+00   7.768309707562404e-01   7.125463096000000e+00  6.27676650e-01  -7.12931650e-01  -1.51402961e+00
C     6.061036064400000e+00   5.853320049929353e-01   1.035252400000000e+01  6.66647650e-01  -1.74358276e+00  -1.02464508e+00
C     7.280464169399999e+00   1.286202201356873e+00   1.024195613600000e+01  1.16984968e+00  -2.22950691e+00  -7.97776310e-01
C     8.642304112125000e+00   2.241138337030593e+00   6.894023872000000e+00  1.55908243e+00  -5.43135760e-01  -1.22856719e+00
C     2.503154182050000e+00   2.998791821667642e+00   6.658955760000000e+00 -1.59019934e+00  -2.37340842e+00   2.33171402e+00
C     2.347980164250000e+00   2.775142072510408e+00   1.003823983200000e+01  1.73088636e+00  -3.73522201e+00   4.93656910e-01
C     3.587050165725000e+00   3.442424690229525e+00   1.002544100800000e+01  1.76721873e+00  -7.87399100e-01   1.08323301e+00
C     3.680236409475000e+00   2.245048008368966e+00   6.685411704000000e+00  3.14141385e+00   5.67481580e-01   3.49672170e-01
C     5.021181853650000e+00   2.999779742485126e+00   6.800075752000000e+00 -3.06735883e+00  -6.17248864e+00   4.28126300e-02
C     4.914277293300000e+00   2.670933397549217e+00   1.018506420800000e+01 -5.09272449e+00   6.21443490e-01  -1.06529691e+00
C     6.078427366574999e+00   3.376190574589833e+00   1.025822078400000e+01  6.29797680e-01   2.15818118e+00  -5.88772280e-01
C     6.186059964675000e+00   2.157517814067416e+00   6.937717408000000e+00  3.22977360e-01   3.48080229e+00   2.25375250e-01
C     7.413211296749999e+00   2.920020474670900e+00   6.933016704000000e+00  1.04256170e-01   3.05150090e-01  -9.95120400e-02
C     7.251340884599999e+00   2.632516944435378e+00   1.013671335200000e+01  2.92981734e+00   3.45573873e+00   1.28993660e+00
C     8.529002063324999e+00   3.381868973863981e+00   1.019019698400000e+01 -1.62913798e+00   2.46536641e+00  -6.76817530e-01
C     9.904491992850000e+00   4.365966001107111e+00   6.984512695999999e+00 -9.87628000e-02  -6.03092700e-02  -1.23972378e+00
C     3.702779734200000e+00   5.063901382264125e+00   7.047094048000001e+00  2.14337860e+00  -3.66424290e-01  -5.24055520e-01
C     3.526931108175000e+00   4.838734272292121e+00   1.013942628000000e+01  5.27611529e+00   1.77251550e-01   4.32701730e-01
C     4.816978800975000e+00   5.585373650218963e+00   1.027329937600000e+01  1.43385111e+00  -2.28835520e+00  -9.48854670e-01
C     4.979925296550000e+00   4.328187540161285e+00   6.869875304000000e+00 -9.23917960e-01   3.23383646e+00   7.00387350e-01
C     6.204109569750000e+00   5.006678569774082e+00   6.865534864000001e+00  4.64373720e-01   3.65340898e+00  -4.47876740e-01
C     6.097414066050000e+00   4.842150239392065e+00   1.030902004800000e+01 -7.53929280e-01   1.12093033e+00   2.42146830e-01
C     7.349982345899999e+00   5.631237678840774e+00   1.043491497600000e+01 -1.01513264e+00  -5.55698926e+00  -7.53490380e-01
C     7.445519497124999e+00   4.383765419019987e+00   6.852981792000000e+00  9.43809600e-02  -2.53316718e+00   4.25089950e-01
C     8.705212896450000e+00   5.080864596228222e+00   6.920468120000000e+00 -2.52637919e+00  -7.70657690e-01  -3.73796400e-02
C     8.610737001674998e+00   4.853340207023108e+00   1.034467435200000e+01 -4.72276218e+00  -1.54406892e+00  -4.09755780e-01
C     9.776964330449999e+00   5.536109729184435e+00   1.030946395200000e+01 -4.32460230e-01   2.28867325e+00  -2.95269340e-01
