72
Lattice="7.395 0 0 3.6975 6.40425786098592 0 0 0 13.6 " PBC="1 1 1" Properties=species:S:1:pos:R:3:force:R:3 Energy="-565.35354867"
C     3.691812431550000e+00   6.283602794684016e+00   1.356801742400000e+01 -5.12600623e+00  -4.12216255e+00  -2.93527860e-01
C     1.141647088275000e+00   4.638954280902942e-01   1.358198353600000e+01  5.01382934e+00   4.79316914e+00   3.15184920e-01
C     1.336677567825000e+00   9.647251718978874e-01   3.769992896000000e+00  1.52287044e+00   9.25628500e-02   4.54827070e-01
C     2.641857981900000e+00   1.587958151289510e+00   3.929533680000000e+00 -7.26541600e-01   2.34192698e+00   7.10397100e-02
C     6.073321045125001e+00   6.237536391513828e+00   1.345684476800000e+01  2.57281516e+00  -2.17150881e+00  -1.86240907e+00
C     3.608637427875000e+00   5.752817390906586e-01   1.340631981600000e+01  2.14236040e+00  -1.98803993e+00   1.47717910e+00
C     3.896012415300000e+00   9.717108723289969e-01   3.805992640000000e+00 -2.04198889e+00  -6.16887540e-01  -9.00587520e-01
C     5.015785389375000e+00   1.746498436529847e+00   3.565246119999999e+00  4.07348794e+00  -2.15833677e+00   5.65519530e-01
C     8.612302264349999e+00   6.163336339734975e+00   1.325897415200000e+01  1.90909350e-01   5.90004922e+00   1.32165337e+00
C     6.160851592875000e+00   5.547973360699771e-01   1.332385934400000e+01 -2.36903293e+00  -4.06644630e-01   1.96054600e-01
C     6.340723209825000e+00   1.025159591619563e+00   3.467642048000000e+00 -9.78148200e-01  -9.80630040e-01   6.93620770e-01
C     7.573130242350000e+00   1.801530288363406e+00   3.802737752000000e+00 -2.32818189e+00  -1.02117705e+01  -2.13414436e+00
C     1.207023399225000e+00   1.899871958656472e+00   3.586456000000000e-02  9.13751860e-01   2.46869231e+00   7.79850200e-02
C     2.481608036100000e+00   2.587146620051994e+00   1.922713600000000e-01 -2.95410608e+00   4.35884372e+00   2.75239400e-02
C     2.711418716625000e+00   3.049829978299705e+00   3.998423528000000e+00 -4.68524224e+00   2.52579327e+00  -2.15415315e+00
C     3.790663134375000e+00   3.857737097980967e+00   3.480170776000000e+00  1.71120145e+00  -5.59843557e+00   2.92644882e+00
C     3.739332442725000e+00   2.020524974609942e+00   2.107718480000000e-01 -2.65362900e+00  -4.71790266e+00  -3.34074403e+00
C     4.807220100149999e+00   2.634383785601568e+00   1.323134969600000e+01  3.72180054e+00   3.59711258e+00   1.82313627e+00
C     5.020206859875000e+00   3.121707525965629e+00   3.592497392000000e+00  3.19560582e+00   2.56033884e+00  -1.37313226e+00
C     6.420138706425000e+00   3.821558036393097e+00   3.602387176000000e+00 -7.48389790e+00   2.42843887e+00  -2.65086220e-01
C     6.047102331450000e+00   1.953136491490985e+00   1.317076006400000e+01  3.97236441e+00   1.21547964e+00   1.09355485e+00
C     7.480430626575000e+00   2.774552560574395e+00   1.340233800800000e+01 -3.66081518e+00  -2.65458462e+00  -2.42862847e+00
C     7.493385705225000e+00   3.075221579863033e+00   3.881537920000000e+00  4.59420413e+00   7.49975204e+00   1.24625032e+00
C     8.759450044950000e+00   3.861814368747535e+00   4.048235704000000e+00  1.51396563e+00  -1.20509722e+00  -3.39233244e+00
C     2.413844693100000e+00   4.145706794146117e+00   1.250891280000000e-01  5.09920593e+00  -4.14119889e+00   5.36004590e-01
C     3.719299572600000e+00   4.849327363090611e+00   9.944510399999999e-02 -1.54936656e+00  -6.70356960e-01  -1.55698618e+00
C     3.812006509425000e+00   5.194026615805427e+00   3.418235424000000e+00  1.94209300e-01   2.09747926e+00  -3.64402080e-01
C     4.996381759800000e+00   5.945021465460278e+00   3.550310600000000e+00  2.93728468e+00   1.03862160e+00   3.53462780e-01
C     4.919664291975000e+00   4.130213165233156e+00   1.332960561600000e+01 -1.70381119e+00  -2.85970082e+00  -1.33090370e-01
C     6.133438623675000e+00   4.728546454107676e+00   1.305343300000000e+01  9.96070210e-01   5.07674665e+00   2.24288681e+00
C     6.328196227725000e+00   5.319621669464302e+00   3.598942568000000e+00 -5.28857110e-01  -2.99793600e+00   6.87222890e-01
C     7.586828222699999e+00   5.976707683989043e+00   3.738135304000000e+00 -2.82785401e+00   1.60985898e+00  -1.30244866e+00
C     7.453892005199999e+00   4.182125887318579e+00   1.306476696800000e+01 -2.04282660e-01  -3.83325617e+00   3.09974022e+00
C     8.688095061375000e+00   4.823175255906408e+00   1.347258391200000e+01 -4.36706179e+00   1.76508220e-01  -2.37508455e+00
C     8.733194208374998e+00   5.299363592916393e+00   3.489049536000000e+00  2.38311615e+00  -5.90414821e+00   2.94804148e+00
C     9.998376435525000e+00   5.822604909019899e+00   3.325574000000000e+00 -5.77430020e-01   7.40560628e+00   1.03284620e+00
C     7.394594014499999e+00   1.750587234960564e-01   6.774993680000000e+00  6.74904070e-01  -3.77080730e-01   1.39449320e-01
C     1.250603465325000e+00   8.805700214885575e-01   6.952098184000000e+00  7.57693170e-01  -8.08099990e-01   4.00211610e-01
C     1.107158435175000e+00   5.045529871996615e-01   9.889713824000001e+00 -2.49931721e+00  -1.97654187e+00  -9.10058190e-01
C     2.390003028225000e+00   1.162401172452320e+00   1.013815808000000e+01 -6.08566530e+00  -1.72418690e-01  -7.39921090e-01
C     2.480931726375000e+00   6.415996864657381e-02   7.089772072000001e+00 -4.55345140e-01   8.52957157e+00  -6.63846220e-01
C     3.659910993150000e+00   8.996750114087737e-01   7.141336880000000e+00  1.58232698e+00   2.37366370e-01  -8.10997680e-01
C     3.487467579750000e+00   4.948640495258460e-01   9.895540336000000e+00  7.71680696e+00  -3.74536572e+00   9.63959340e-01
C     4.820913014925000e+00   1.121940352144412e+00   9.993155560000000e+00 -2.79428160e+00   1.40310117e+00  -1.92336505e+00
C     4.912628023425000e+00   1.951483040196690e-01   6.867014272000000e+00 -2.42274584e+00  -2.65281730e-01   2.75429410e-01
C     6.118069521224999e+00   8.123022978080011e-01   6.724014080000000e+00  3.25624428e+00   4.25330488e+00   1.85411212e+00
C     6.025910812724999e+00   3.847772264878542e-01   9.704648424000000e+00 -4.98855060e-01   2.50729539e+00   1.20030336e+00
C     7.182045371549999e+00   1.209370319810453e+00   9.715420303999998e+00  3.83390412e+00  -4.35319521e+00   1.83672331e+00
C     8.741069402699999e+00   2.333293238060585e+00   7.056585215999999e+00 -5.03412847e+00  -3.55609023e+00   3.34349900e-02
C     2.422456318500000e+00   3.083179830892762e+00   7.270502744000000e+00  6.06993218e+00   1.64839119e+00  -2.24111151e+00
C     2.315767248450000e+00   2.508793086838038e+00   1.024633642400000e+01 -9.68106350e-01   6.21129603e+00  -1.36223809e+00
C     3.549458607600000e+00   3.364187138125414e+00   1.022959781600000e+01 -4.15138120e-01  -3.94862143e+00  -1.76868298e+00
C     3.730909944450000e+00   2.381923713950181e+00   7.210394688000000e+00 -3.21801385e+00  -3.38481432e+00  -2.35127270e-01
C     4.955129824575000e+00   2.977658347112849e+00   7.071660136000000e+00  1.84637333e+00   3.46734947e+00  -8.46540300e-01
C     4.729853868975000e+00   2.598049036505122e+00   9.916582527999999e+00  3.19055982e+00  -5.35234950e-01   1.60254711e+00
C     6.074741883449999e+00   3.279804892732368e+00   9.749882024000000e+00 -5.82010403e+00   2.49531560e+00   1.19967311e+00
C     6.211589797125000e+00   2.295246887008476e+00   7.013197816000000e+00 -2.26713847e+00  -3.57941096e+00  -1.53723667e+00
C     7.431049885499999e+00   2.924458881538194e+00   7.072179519999999e+00  9.32815080e-01   2.80947815e+00  -9.59719240e-01
C     7.209732843150000e+00   2.567650522104268e+00   9.859778592000000e+00 -5.58071210e-01  -3.75780900e-01  -7.97602330e-01
C     8.368180927725000e+00   3.237479985089150e+00   9.883125440000001e+00  6.96666910e+00   2.28047007e+00   2.73226794e+00
C     9.932617470299999e+00   4.501248263290178e+00   6.926400576000001e+00 -4.13660039e+00  -1.73708546e+00   1.43023809e+00
C     3.744062543550000e+00   5.130298037968303e+00   6.883373848000000e+00  1.36764077e+00   2.16008990e+00  -9.32205910e-01
C     3.592702349100000e+00   4.744838693975781e+00   9.942190240000000e+00 -3.41198642e+00  -2.91972443e+00   5.41247230e-01
C     4.714411556025000e+00   5.385820305515450e+00   9.763428712000000e+00  7.59685573e+00   5.02695283e+00   7.79902040e-01
C     4.976072094825000e+00   4.455860455282837e+00   6.905053064000000e+00  1.89302000e-02  -1.69513798e+00   8.14621280e-01
C     6.218470326975000e+00   5.178939721309154e+00   6.940142560000000e+00 -7.59619220e-01  -7.44181858e+00  -8.99833500e-02
C     6.039893241750000e+00   4.720990262386398e+00   9.761846759999999e+00 -6.79925560e-01  -6.71026420e-01   2.55915240e-01
C     7.272276869100001e+00   5.458909987066536e+00   9.773827407999999e+00 -1.01422056e+00  -3.19293600e-01   6.73477640e-01
C     7.393523107574999e+00   4.345877061009285e+00   7.036409888000000e+00  2.39163006e+00   3.55287944e+00  -9.20080740e-01
C     8.656211112150000e+00   5.210700549441988e+00   6.891515623999999e+00 -9.76092120e-01  -3.98548556e+00   4.40174070e-01
C     8.500685573024999e+00   4.709905452669418e+00   9.864586872000000e+00 -4.18642690e-01  -7.47204190e-01  -4.74526500e-01
C     9.792440734349999e+00   5.399131875690354e+00   9.796612575999999e+00 -3.75392325e+00   3.50460400e-02   7.20039420e-01
