72
Lattice="7.395 0 0 3.6975 6.40425786098592 0 0 0 13.6 " PBC="1 1 1" Properties=species:S:1:pos:R:3:force:R:3 Energy="-577.67741921"
C     3.660717417900000e+00   6.310633245833717e+00   1.326834292000000e+01  2.34851350e-01   1.40728523e+00  -3.92940890e-01
C     1.154071316850000e+00   6.763672496212633e-01   1.319299810400000e+01  1.56795043e+00  -2.62665522e+00   2.01334740e-01
C     1.273892501850000e+00   7.858587968911681e-01   3.509304560000000e+00  2.39366040e-01   3.80693910e-01   3.05979820e-01
C     2.524904319075000e+00   1.524576428058083e+00   3.466795312000000e+00  1.54008680e-01  -1.77462386e+00   5.38994800e-01
C     6.067162267274999e+00   6.321039460387853e+00   1.324234597600000e+01  2.98366718e+00   9.26660370e-01   9.89810050e-01
C     3.667115423999999e+00   6.798416875954704e-01   1.330478276000000e+01  1.11469100e-02  -2.26533333e+00  -1.47089350e+00
C     3.777224903400000e+00   8.024076553717224e-01   3.622561552000000e+00 -8.58174600e-01   6.67183310e-01  -3.29781710e-01
C     4.973834109000000e+00   1.569860615173251e+00   3.744615159999999e+00  1.02141395e+00  -1.15325217e+00  -1.55429403e+00
C     8.659577611949999e+00   6.372360685217327e+00   1.324266652800000e+01 -2.18980279e+00  -1.26031593e+00   6.16552230e-01
C     6.176440400775000e+00   6.880494485114250e-01   1.330123928000000e+01 -1.24422261e+00  -8.99019500e-02   1.51635680e-01
C     6.213462359025000e+00   8.353504533351979e-01   3.719092176000000e+00  1.09279900e-02   6.57600490e-01  -7.18231820e-01
C     7.459588632525000e+00   1.532067488476926e+00   3.539061496000000e+00 -8.62338160e-01   2.03247370e-01   6.13020660e-01
C     8.589150109275000e+00   2.072437632652787e+00   1.313641163200000e+01  5.14553100e-01  -3.07749370e-01   1.07298283e+00
C     2.419310226675000e+00   2.775736964023023e+00   1.307075559200000e+01  1.60195961e+00  -9.35117630e-01  -1.41892230e-01
C     2.531477882475000e+00   2.921415898416015e+00   3.513650032000000e+00 -6.00595940e-01   8.11485530e-01   5.99141460e-01
C     3.761181968549999e+00   3.638646475951687e+00   3.734953584000000e+00 -9.82258610e-01   6.26623520e-01  -1.65351223e+00
C     3.683981644200000e+00   2.066618403748299e+00   1.308554110400000e+01  3.98488580e-01   7.75803600e-01   2.86770392e+00
C     4.922920902075000e+00   2.800149738815029e+00   1.344156924800000e+01 -1.04720189e+00  -2.01067900e-02  -1.97629018e+00
C     5.017222644599999e+00   2.989256265969574e+00   3.595946080000000e+00 -1.30869115e+00  -7.04001380e-01   1.65135300e+00
C     6.221485157549999e+00   3.718476190602373e+00   3.628513456000000e+00  5.78512100e-02  -8.35624920e-01  -5.03792000e-02
C     6.183084882225000e+00   2.165448334660611e+00   1.345029528000000e+01 -2.29830503e+00  -4.52541197e+00   3.81536000e-03
C     7.408722716624999e+00   2.746038627134002e+00   1.345733396000000e+01  1.04073380e+00   2.51881713e+00  -3.91902960e-01
C     7.434539733899999e+00   2.987546201035796e+00   3.554775888000000e+00 -2.31013750e-01  -1.79592249e+00  -4.08637570e-01
C     8.652989776200000e+00   3.635690014353197e+00   3.509524200000000e+00  2.44482475e+00   6.16887340e-01   8.28190130e-01
C     2.476970040000000e+00   4.167622676883666e+00   1.306760501600000e+01 -6.30652720e-01   8.51248980e-01   8.62846360e-01
C     3.697570289475000e+00   4.891583745174727e+00   1.319045463200000e+01 -1.04207046e+00   9.23118320e-01   1.81455380e-01
C     3.725386951725000e+00   5.065206505973414e+00   3.761899264000000e+00 -1.13980280e-01   4.00196140e-01  -6.20949570e-01
C     4.959456380250000e+00   5.742933571666091e+00   3.694983864000000e+00 -6.39101040e-01   3.15962079e+00  -4.73265820e-01
C     4.906342347375000e+00   4.225866392119173e+00   1.336049148800000e+01  8.67505810e-01  -1.50248676e+00   4.95968540e-01
C     6.140069942024999e+00   4.896554089699872e+00   1.343798646400000e+01  1.31648875e+00   7.87314940e-01   8.92626100e-02
C     6.196408860450000e+00   5.135291181651431e+00   3.690013336000000e+00  8.27943630e-01  -2.38439932e+00  -8.66301100e-01
C     7.441378001324999e+00   5.764138261568287e+00   3.585767296000000e+00  1.05479672e+00   1.75298102e+00   1.12904951e+00
C     7.459915306649998e+00   4.146193901998949e+00   1.353869038400000e+01 -2.08717655e+00   2.74284650e+00  -2.02053870e+00
C     8.636824638975000e+00   4.858020566752353e+00   1.316033607200000e+01  6.29459500e-02   2.59251418e+00   1.95508560e+00
C     8.675085407625000e+00   5.038277882523686e+00   3.674077400000000e+00  1.72554200e-02   1.93904971e+00  -1.23573194e+00
C     9.901037418600000e+00   5.838427460616551e+00   3.670948176000000e+00 -2.53443250e-01  -2.62283690e+00   8.89156070e-01
C     7.411710629400000e+00   3.841094545207920e-02   7.146869087999999e+00 -1.90412900e-01   2.27948448e+00  -7.69036890e-01
C     1.277166527175000e+00   7.414345735214418e-01   6.906930952000000e+00 -1.91875769e+00   1.64872417e+00   1.74770530e-01
C     1.215114638475000e+00   6.150665259388650e-01   1.017216120800000e+01 -3.32309894e+00   2.91358350e-01   7.14284610e-01
C     2.386095953925000e+00   1.333496044588508e+00   1.019710578400000e+01  2.33505009e+00   6.45158520e-01   3.67250980e-01
C     2.463699342750000e+00   4.684484071307040e-02   6.733044616000000e+00  1.88317840e+00  -2.72537630e-01   5.36421380e-01
C     3.687746586600000e+00   8.121678724355197e-01   6.666800648000000e+00  3.38630350e-01  -8.82374010e-01   3.42562660e-01
C     3.656194266150000e+00   6.393693396234145e-01   1.047376473600000e+01 -9.13672480e-01  -5.51213910e-01  -2.78850504e+00
C     4.883533246350000e+00   1.311899029849809e+00   1.022103593600000e+01 -8.16066330e-01   6.41020500e-01   1.62687229e+00
C     4.921663973925001e+00   4.844058964404660e-02   6.834728824000000e+00 -5.71354090e-01   1.29797150e+00   8.74356640e-01
C     6.116469021375000e+00   7.436777288794855e-01   7.099906112000000e+00  2.32445774e+00   5.61524400e-01  -1.44072888e+00
C     6.090413404424999e+00   6.134832653107158e-01   1.035821396800000e+01 -1.98817980e-01  -1.45837990e+00  -1.02946430e+00
C     7.277494152525000e+00   1.307849681647509e+00   1.020817863200000e+01  3.23422105e+00  -1.11745457e+00  -4.42151840e-01
C     8.655744709500000e+00   2.214133310784595e+00   6.842757583999999e+00  1.13499559e+00  -1.48542592e+00  -5.23344040e-01
C     2.491832769825000e+00   2.990836388511372e+00   6.626393960000000e+00 -4.35962830e-01  -2.19897078e+00   2.20531608e+00
C     2.380204727175000e+00   2.787607255966533e+00   1.006473943200000e+01  9.58237890e-01  -1.83560020e+00   4.35692960e-01
C     3.638490636149999e+00   3.463909886625989e+00   1.001841048800000e+01 -2.33523000e-01  -2.00140950e-01   1.20035309e+00
C     3.710244579974999e+00   2.248075557229702e+00   6.632915432000000e+00  3.44927870e-01  -5.45848810e-01   2.94154310e-01
C     4.973268354525000e+00   2.942994532934657e+00   6.738668487999999e+00 -2.95696980e-01  -3.02153119e+00   4.30431450e-01
C     4.883963635350000e+00   2.731583384590460e+00   1.015389844800000e+01 -1.22370711e+00   6.96173340e-01  -6.45651790e-01
C     6.085595081249999e+00   3.443507458105916e+00   1.023687381600000e+01  9.12892210e-01   7.68902100e-01  -4.42838000e-01
C     6.191682198299999e+00   2.155823951906024e+00   6.911108464000001e+00 -1.19784809e+00   5.23293230e-01   2.83393990e-01
C     7.417492151325000e+00   2.845514427451496e+00   6.933808087999999e+00  2.57537970e-01   2.50298585e+00  -5.14103940e-01
C     7.303568478824999e+00   2.676485440815787e+00   1.015539363200000e+01  3.89510250e-01   3.42222821e+00   1.00246655e+00
C     8.552458744499999e+00   3.443570604088415e+00   1.020475279200000e+01 -8.30743810e-01   1.64160660e-01  -6.69577920e-01
C     2.517581087550000e+00   4.355449569275205e+00   6.970435200000000e+00 -1.37057720e+00   4.35955280e-01  -1.17815484e+00
C     3.712433426025000e+00   5.074137115474027e+00   7.061180384000000e+00  2.32844881e+00  -2.57051288e+00  -1.14515664e+00
C     3.602894877600000e+00   4.875950247270103e+00   1.014758641600000e+01  2.11013754e+00   6.41950680e-01   4.55021700e-01
C     4.873846868625000e+00   5.622619789251465e+00   1.024800609600000e+01  1.06391280e-01  -1.64579016e+00  -5.61744570e-01
C     4.988971747950000e+00   4.299747511856597e+00   6.827039112000000e+00 -7.33669470e-01   3.14833310e+00   8.89199360e-01
C     6.246613737300000e+00   5.000111003338652e+00   6.819689536000000e+00 -2.60934431e+00   1.82741209e+00  -1.78905600e-01
C     6.107936707349999e+00   4.903324478981729e+00   1.030745958400000e+01  6.02489590e-01  -6.54360330e-01   1.64194530e-01
C     7.391073957524999e+00   5.601798906522819e+00   1.045723380000000e+01 -2.98435459e+00   3.52171530e-01  -6.01254320e-01
C     7.440880724550000e+00   4.335912740247489e+00   6.844698167999999e+00  8.10427630e-01  -2.55876647e+00   2.46094040e-01
C     8.659452821325001e+00   5.053857008279079e+00   6.905366000000000e+00 -2.04118050e-01  -6.92780770e-01   1.13251200e-02
C     8.578095915375000e+00   4.870389366127686e+00   1.036862612800000e+01 -1.61342460e-01  -6.77128690e-01  -5.16530770e-01
C     9.795365567774999e+00   5.573554592338333e+00   1.033788890400000e+01  4.39511600e-02   5.37010500e-01  -5.35340910e-01
