72
Lattice="7.395 0 0 3.6975 6.40425786098592 0 0 0 13.6 " PBC="1 1 1" Properties=species:S:1:pos:R:3:force:R:3 Energy="-574.37392873"
C     3.668958294974999e+00   6.158688833848552e+00   3.382525360000000e-01 -6.19892440e-01   2.95207870e-01   5.43988820e-01
C     1.252966241775000e+00   3.805436277869226e-01   3.874860320000000e-01 -1.84240767e+00   3.71297903e+00  -1.07280230e+00
C     1.459228912875000e+00   1.120028809258359e+00   3.423770216000000e+00 -1.85674700e-02   3.99569060e-01  -4.90308670e-01
C     2.691752897325000e+00   1.814353341748748e+00   3.415230232000000e+00  1.10978530e+00  -3.13897390e-01   1.54324920e-01
C     6.199783568699999e+00   6.142302707560220e+00   3.043539920000000e-01 -4.47364565e+00   8.11619500e-01   1.64845120e-01
C     3.639733254975000e+00   4.223881520480622e-01   1.936916080000000e-01  4.18415825e+00   1.66060700e+00   1.70244493e+00
C     3.981399374400000e+00   1.148338767085910e+00   3.365635384000000e+00 -5.85969560e-01  -1.10087487e+00  -4.85832220e-01
C     5.252747848350000e+00   1.818217094558265e+00   3.216431960000000e+00 -3.23786041e+00   7.02365430e-01   2.11240428e+00
C     8.601596448900001e+00   6.100080972511126e+00   3.381611440000000e-01 -2.65454383e+00   5.69721510e-01  -2.78869520e-01
C     6.055021452075000e+00   3.922954409600227e-01   3.284103520000000e-01  4.76664430e+00   1.75489978e+00  -7.57164060e-01
C     6.452230972800000e+00   1.053510920952891e+00   3.280075608000000e+00 -3.17786106e+00   5.86598667e+00  -1.42459310e-01
C     7.587618637275000e+00   1.760919160123523e+00   3.380286664000000e+00  5.14140430e+00   5.05079139e+00   1.27731190e-01
C     1.231121892450000e+00   1.843589227177698e+00   3.028692800000000e-01 -1.12630350e+00   9.37478010e-01   4.89043500e-01
C     2.423386202775000e+00   2.588252571341838e+00   4.313240000000000e-01  1.42211948e+00  -8.58585140e-01  -7.30777660e-01
C     2.687053559700000e+00   3.188963697117198e+00   3.394596040000000e+00  2.88164783e+00   2.55048510e+00  -7.82724460e-01
C     3.946611297750000e+00   3.924261134373980e+00   3.191891848000000e+00 -1.79640187e+00   2.52608645e+00   2.07938526e+00
C     3.663309254475000e+00   1.836893639627647e+00   3.999459440000000e-01 -1.97060240e-01   1.00828673e+00  -2.22961499e+00
C     4.883315648475000e+00   2.547084208625557e+00   1.621755120000000e-01  1.21876770e+00   1.09014467e+00   1.46547474e+00
C     5.138556033150000e+00   3.270646035481625e+00   3.399022160000000e+00  2.12499732e+00  -2.16704123e+00  -1.89902081e+00
C     6.338212940099999e+00   3.995009227123715e+00   3.426711488000000e+00  3.98885010e+00   3.00867030e-01  -6.17325720e-01
C     6.130562819100000e+00   1.762330466428132e+00   1.366617760000000e-01 -5.35561500e-01   5.11869433e+00   2.54954470e-01
C     7.388519206874999e+00   2.624963442502401e+00   1.760624720000000e-01 -1.30984545e+00  -2.39182136e+00  -1.00143821e+00
C     7.697742056250000e+00   3.323041574567115e+00   3.415024192000000e+00 -3.95543473e+00  -3.13516894e+00   5.42631060e-01
C     8.949449742975000e+00   3.973086619915414e+00   3.487787456000000e+00 -3.26039950e+00   8.53686150e-01  -1.06163204e+00
C     2.453113215375000e+00   4.010127950781553e+00   4.097252960000000e-01 -1.41162758e+00   1.42116740e-01   6.38026700e-01
C     3.612386360099999e+00   4.797315054795463e+00   4.037053920000000e-01  3.32534523e+00  -4.00117244e+00  -6.77029290e-01
C     3.974904050100000e+00   5.460564719212403e+00   3.229171896000000e+00 -2.01994638e+00  -3.38686548e+00   4.44681570e-01
C     5.195069695425000e+00   6.141664010923842e+00   3.280621240000000e+00 -1.19878338e+00  -9.45473670e-01   4.50516480e-01
C     4.911806106149999e+00   4.044685902577320e+00   3.010192720000000e-01 -2.11320901e+00  -8.61784070e-01  -4.77400910e-01
C     6.091620897000000e+00   4.803103351134489e+00   2.632163040000000e-01  2.27288903e+00  -5.13720771e+00  -1.59461825e+00
C     6.383878544100000e+00   5.411942312687711e+00   3.336587008000000e+00  2.83917640e-01  -7.39891210e-01   8.42354630e-01
C     7.603551645450000e+00   6.108302502581480e+00   3.431963807999999e+00  2.21048500e+00   1.67232220e-01  -9.28456890e-01
C     7.348211391300000e+00   4.077022153278875e+00   2.814996000000000e-02  9.20027490e-01  -1.97553171e+00   3.86638489e+00
C     8.619932388374998e+00   4.717388827978827e+00   4.697332560000000e-01 -2.05338771e+00  -1.28750186e+00  -3.34815939e+00
C     8.865417399975000e+00   5.410389728454711e+00   3.390199704000000e+00  5.81483090e-01   9.45344700e-02   4.20278540e-01
C     1.009066718175000e+01   6.165702584929088e+00   3.308755424000000e+00  9.22023740e-01  -7.34304179e+00  -1.46487250e-01
C     7.324543730775000e+00   3.006923948298270e-01   6.307832592000000e+00  1.51102847e+00  -3.15559524e+00   2.43642480e-01
C     1.175170361100000e+00   9.612117319933129e-01   6.350315456000000e+00  2.81991900e-02   2.00536340e-01   5.04808710e-01
C     1.066247668275000e+00   2.760649493143542e-01   1.039434862400000e+01  1.10910064e+00   1.72969288e+00  -6.83360760e-01
C     2.267227466775000e+00   9.696592683235460e-01   1.035463023200000e+01  2.53482514e+00   1.76193493e+00  -8.19188870e-01
C     2.411583560925000e+00   3.260477482936674e-01   6.476627360000000e+00 -8.47743200e-01  -4.57966601e+00  -4.35256330e-01
C     3.612109084575000e+00   9.899214435964855e-01   6.470563120000000e+00  1.37190208e+00  -1.92754159e+00   4.20662410e-01
C     3.529534296075000e+00   2.365105876639506e-01   1.016180181600000e+01 -1.23780080e-01   3.81144189e+00   1.92224470e+00
C     4.828957000125000e+00   1.082934194966824e+00   1.033153240000000e+01 -3.06871496e+00  -2.93057515e+00  -1.37240190e+00
C     4.837311020700000e+00   2.615163326912136e-01   6.457641080000000e+00  1.93577470e+00   3.27503000e-03  -8.57763420e-01
C     6.138285343650000e+00   9.785248746068796e-01   6.313166784000000e+00 -3.62475107e+00   4.04157500e-01   1.39144370e+00
C     5.980693567575000e+00   3.375158528435694e-01   1.029755184800000e+01  2.86976432e+00  -1.29264214e+00   1.14937930e-01
C     7.283915341949999e+00   1.039801710407460e+00   1.035241370400000e+01 -3.22662774e+00  -2.19783010e-01   6.67025810e-01
C     8.600398421925000e+00   2.328324238429590e+00   6.345993512000001e+00 -1.66454131e+00   4.23571642e+00   8.52472260e-01
C     2.439530855850000e+00   3.079243902097163e+00   6.481759184000000e+00 -2.73033413e+00   8.11950480e-01  -1.37975235e+00
C     2.281619615775000e+00   2.488140315878217e+00   1.036506959200000e+01  2.73609180e+00  -4.95200485e+00   4.56206360e-01
C     3.497416147200000e+00   3.125931326152035e+00   1.047202148800000e+01  3.60032020e+00   1.69381319e+00  -1.28838212e+00
C     3.610971474749999e+00   2.339738739341203e+00   6.491952656000000e+00  2.11280795e+00   4.31096390e+00   4.28922390e-01
C     4.852076432325000e+00   3.114614682300522e+00   6.530154376000000e+00 -2.32047700e-01  -1.65824277e+00  -3.10007440e-01
C     4.808932301475000e+00   2.479891119413908e+00   1.034624855200000e+01 -3.04189726e+00  -1.25190929e+00   1.01700056e+00
C     5.985538623674999e+00   3.164904501401643e+00   1.036309419200000e+01  2.56927929e+00  -3.68679750e-01   6.94671000e-02
C     6.086839031175000e+00   2.416066285581148e+00   6.440692488000000e+00  7.91366700e-02  -8.92916620e-01  -4.69313440e-01
C     7.296951580725000e+00   3.110069452412122e+00   6.363601976000000e+00  2.12909585e+00  -1.53742820e+00   3.94685840e-01
C     7.247503767000000e+00   2.462736994523005e+00   1.042444107200000e+01  1.26057129e+00  -3.03009160e-01  -1.36501025e+00
C     8.562407385900000e+00   3.192568141525963e+00   1.031396283200000e+01 -6.55669127e+00  -7.39799690e-01   6.33200020e-01
C     9.774894174149999e+00   4.542949972601040e+00   6.315247992000000e+00  1.95998459e+00  -7.84856740e-01   1.67275966e+00
C     3.678309605250000e+00   5.235964065848116e+00   6.365620624000000e+00 -3.45162814e+00   1.17480093e+00  -3.84049200e-02
C     3.583423731675000e+00   4.540279589201156e+00   1.042853453600000e+01 -1.79348586e+00   1.60455960e+00  -8.16544340e-01
C     4.858769757750000e+00   5.314889371203813e+00   1.033957299200000e+01 -4.11438503e+00  -3.27443067e+00   6.01532480e-01
C     4.861958851499999e+00   4.511663764018211e+00   6.507975768000000e+00  9.61144280e-01   1.02434184e+00  -4.41146540e-01
C     6.118771380675000e+00   5.232021540666921e+00   6.464086528000000e+00 -2.04727325e+00   1.71608478e+00   5.16824540e-01
C     6.018199528575000e+00   4.560704304538582e+00   1.029668797600000e+01 -6.79282400e-01   5.45946310e-01  -5.31662700e-02
C     7.197851481524999e+00   5.244594123527359e+00   1.018393377600000e+01  2.88901408e+00   8.70272790e-01   1.82823740e-01
C     7.278907226099999e+00   4.505277950420848e+00   6.424042960000000e+00  2.72063149e+00   9.83597730e-01   1.28695060e-01
C     8.538050881124999e+00   5.248722308143915e+00   6.396335816000000e+00 -2.84464200e-02  -3.16927040e-01   3.28651600e-02
C     8.462784497175001e+00   4.565719222698434e+00   1.024793415200000e+01  4.10695410e-01   7.69740000e-01  -2.20571080e-01
C     9.668377777349999e+00   5.245609262440747e+00   1.027390348800000e+01  2.63189451e+00   2.53289145e+00   7.03315250e-01
