72
Lattice="7.395 0 0 3.6975 6.40425786098592 0 0 0 13.6 " PBC="1 1 1" Properties=species:S:1:pos:R:3:force:R:3 Energy="-578.97385976"
C     3.713748515850000e+00   6.270544640992632e+00   1.354006847200000e+01 -1.46633471e+00  -1.18608102e+00  -6.06909590e-01
C     1.250290213125000e+00   5.248770276035286e-01   1.356576308800000e+01 -3.78740460e-01   1.05620530e+00  -4.35127900e-02
C     1.340029277625000e+00   9.963704031763483e-01   3.600298896000000e+00  1.10106787e+00  -1.96771530e+00  -4.02839920e-01
C     2.598642859050000e+00   1.645508733696828e+00   3.685913888000000e+00 -1.22068938e+00   2.63641186e+00  -1.12981413e+00
C     6.184039798574999e+00   6.247677918090609e+00   1.351334460800000e+01 -1.23995361e+00   4.66256750e-01   8.41788000e-03
C     3.691917514500000e+00   5.636252853170940e-01   1.349955570400000e+01  1.63303620e-01  -3.49956910e-01  -2.20967600e-01
C     3.801379302825000e+00   9.480650074157263e-01   3.587477632000000e+00  7.47067960e-01   1.52471146e+00   4.77564010e-01
C     5.032676641649999e+00   1.634801711151009e+00   3.605607383999999e+00  1.02401596e+00   8.84126600e-01  -1.09398461e+00
C     8.587541659799999e+00   6.202043161900186e+00   1.350033498400000e+01  2.22642280e-01   2.87750301e+00  -5.16523670e-01
C     6.115187061149999e+00   4.710651868923000e-01   1.352379824800000e+01  1.81355050e+00   3.06146322e+00   3.83970940e-01
C     6.320093156475000e+00   9.163575267508662e-01   3.494994096000000e+00 -2.40008748e+00   1.45248536e+00   6.04572420e-01
C     7.503643716450000e+00   1.668185826523616e+00   3.536283832000000e+00  1.36588390e+00  -5.87231880e-01   1.50697050e-01
C     1.240052686050000e+00   1.917120354223074e+00   8.624576000000000e-03 -9.61925180e-01   3.84488110e+00  -5.83977290e-01
C     2.466786126675000e+00   2.685872673901818e+00   7.665504000000000e-03 -7.76192540e-01   4.24667680e-01  -9.84372560e-01
C     2.600486247675000e+00   3.102021093474303e+00   3.594748328000000e+00 -6.62425860e-01   6.20368720e-01   5.38513900e-01
C     3.820479182775000e+00   3.866298694143686e+00   3.634184928000000e+00 -3.31990340e-01  -2.97202906e+00  -1.33302547e+00
C     3.707369145150000e+00   1.981966923354819e+00   1.347457712800000e+01 -2.36687843e+00  -6.69706780e-01   1.62123857e+00
C     4.882077614550000e+00   2.654902771614694e+00   3.467020800000000e-02  2.59825018e+00   1.45383748e+00  -1.04192225e+00
C     5.010207673649999e+00   3.091298380496727e+00   3.547412440000000e+00  1.57900558e+00  -1.64028535e+00   1.31846159e+00
C     6.288065485425000e+00   3.684310179387638e+00   3.610176032000000e+00  2.37613160e-01   4.98053861e+00  -7.02910860e-01
C     6.111617531624999e+00   1.914128348993461e+00   1.358943035200000e+01  1.33076184e+00   1.79932608e+00  -2.66390450e-01
C     7.366785671624999e+00   2.733607834542585e+00   1.352328756800000e+01  1.51641630e-01  -2.79160148e+00   1.29428770e+00
C     7.557963060375000e+00   3.061219438563086e+00   3.583647872000000e+00 -2.49792863e+00   5.55868010e-01  -2.67636590e-01
C     8.725044622575000e+00   3.836908402057731e+00   3.539926184000000e+00  2.00782303e+00  -1.22191183e+00   9.49345320e-01
C     2.424436995300000e+00   4.138423103596782e+00   1.353728509600000e+01  6.00422860e-01  -4.49424740e-01  -7.62576700e-01
C     3.681074854575000e+00   4.874759759776507e+00   1.347221616800000e+01  2.12058490e-01  -3.00831119e+00   1.12271449e+00
C     3.841346504700000e+00   5.238242060368917e+00   3.476622400000000e+00  4.47719910e-01   4.98806460e-01   7.24597650e-01
C     5.064638645100000e+00   5.965077679800439e+00   3.515431768000000e+00  7.86489400e-01  -5.24051970e-01   2.95993100e-01
C     4.914187887750000e+00   4.090498761178830e+00   1.358887084800000e+01 -4.58757500e-01   1.38600701e+00  -5.69808160e-01
C     6.142445031149999e+00   4.854300781659529e+00   1.351195020000000e+01 -5.35521530e-01  -1.47614952e+00   8.15217970e-01
C     6.317406996674999e+00   5.233012407443020e+00   3.577627151999999e+00 -1.57993540e+00  -1.47827876e+00  -2.07398550e-01
C     7.509357426225000e+00   5.995710077698342e+00   3.557874240000000e+00  6.38942220e-01  -3.99410359e+00   6.14151420e-01
C     7.373579606024999e+00   4.189865368899810e+00   1.356507628800000e+01 -1.07194052e+00  -3.73056228e+00  -1.22706750e+00
C     8.565505225350000e+00   4.856741316244818e+00   1.340888205600000e+01  2.18225960e+00  -2.64374350e+00   1.62929978e+00
C     8.744884187400000e+00   5.247368768245203e+00   3.621865096000000e+00  3.10263590e-01   2.09882760e-01  -1.37047984e+00
C     1.001833454220000e+01   5.907142585751207e+00   3.503542512000000e+00 -1.57950163e+00   9.45885780e-01   3.24062850e-01
C     7.431444926399999e+00   1.424291577845136e-01   7.047042095999999e+00 -1.27806850e-01   2.96610860e-01  -4.82754220e-01
C     1.284271606200000e+00   8.592072745023769e-01   6.999095568000000e+00 -2.25673627e+00   7.77205920e-01  -9.25795600e-02
C     1.100578918800000e+00   4.607115512951953e-01   9.896018240000000e+00  1.67885220e-01   1.08154934e+00   9.09520570e-01
C     2.350534027500000e+00   1.169680956404360e+00   1.000618748800000e+01 -1.30360900e+00   5.51109290e-01   1.42790000e-03
C     2.472162143775000e+00   1.768685027247138e-01   6.850519919999999e+00  1.68548394e+00  -1.22067069e+00   3.38302930e-01
C     3.754149693300000e+00   8.256779105615041e-01   6.810874560000000e+00 -1.26901361e+00   2.65273530e-01   3.79655100e-01
C     3.555032958600000e+00   4.796991511688376e-01   1.011677235200000e+01 -4.36389600e-02  -5.36332370e-01  -9.36737600e-01
C     4.750282963199999e+00   1.189311159511675e+00   9.980173408000001e+00  3.24370074e+00   6.32027190e-01   5.23472570e-01
C     4.985800845900000e+00   1.769514378640008e-01   6.917614704000000e+00  1.65029220e-01  -1.90482884e+00   2.36053240e-01
C     6.194226263175000e+00   9.109514365209259e-01   7.048500016000000e+00  5.22844310e-01  -2.24267840e+00  -1.03042999e+00
C     6.072897459525000e+00   4.574058655155990e-01   9.925865752000000e+00 -1.76146083e+00   2.07885693e+00   3.15806400e-01
C     7.279463588924999e+00   1.249985546775366e+00   9.879653224000000e+00 -7.67754000e-02  -2.80205279e+00  -1.83413470e-01
C     8.639929281824999e+00   2.292882178836249e+00   7.055706927999999e+00  1.13812070e-01  -1.00784578e+00  -1.46611526e+00
C     2.477239735650000e+00   2.945553994588406e+00   6.899362959999999e+00  4.94865260e-01   2.24344830e-01   8.87495280e-01
C     2.352009034200000e+00   2.589739063633722e+00   9.968956128000000e+00 -7.54789170e-01   8.46599080e-01   1.83053280e-01
C     3.554082072525000e+00   3.345361501933051e+00   9.906720488000001e+00  1.13006928e+00  -7.75290670e-01   5.98832560e-01
C     3.714111869174999e+00   2.206280601924399e+00   6.847253607999999e+00  7.15032860e-01   3.34429181e+00   2.73566200e-02
C     4.941786323550000e+00   3.010212278539066e+00   6.891198608000000e+00 -3.04096730e-01  -1.92386462e+00   2.53801100e-02
C     4.806243072750000e+00   2.659214758431832e+00   9.943706096000000e+00 -4.47606470e-01  -2.22069078e+00  -4.01160200e-01
C     6.079350188625000e+00   3.337501940516944e+00   9.880225104000001e+00 -2.44980177e+00  -1.86876086e+00  -6.05904400e-02
C     6.183530024250000e+00   2.300981579709213e+00   6.949602583999999e+00  1.76779000e-03   6.06138360e-01   1.04244660e-01
C     7.420033849799999e+00   2.991232235689699e+00   6.977295991999999e+00 -9.50737940e-01   1.86407500e+00  -7.60800600e-02
C     7.282692282899999e+00   2.659768214396093e+00   9.810023128000001e+00  4.85736670e-01  -1.80550288e+00   1.67308688e+00
C     8.494662123674999e+00   3.310599062183814e+00   9.992972503999999e+00  9.64841920e-01   1.76164064e+00  -7.58469840e-01
C     9.864910514175000e+00   4.349215472546545e+00   7.015157711999999e+00  9.00682250e-01   2.37273627e+00  -1.16225607e+00
C     3.743759052750000e+00   5.111023271172219e+00   6.974557496000000e+00 -2.72131483e+00   2.83535220e-01   3.22404820e-01
C     3.575336226899999e+00   4.765721954175983e+00   9.862907271999999e+00 -5.31603400e-01  -1.63215701e+00   7.31729690e-01
C     4.774452855150000e+00   5.438182734587804e+00   9.919974367999998e+00  1.96261418e+00   4.54890340e-01  -2.64584500e-01
C     4.939691541899999e+00   4.409014397760773e+00   6.951150264000000e+00  8.06254930e-01   7.81742770e-01  -5.95596020e-01
C     6.163654889475000e+00   5.171718536316533e+00   6.904995536000000e+00 -9.36987810e-01  -1.02404859e+00  -2.91009630e-01
C     6.026435931675000e+00   4.679418367382358e+00   9.913566456000000e+00 -3.07428780e-01   4.86428727e+00   1.04937660e+00
C     7.222878158174999e+00   5.458781709781601e+00   1.007809232000000e+01  8.72898760e-01  -6.69018570e-01  -5.43054460e-01
C     7.355085265649999e+00   4.460733519131090e+00   6.904745023999999e+00  3.10786574e+00  -1.50628923e+00   2.95795720e-01
C     8.648670800400000e+00   5.129951567618077e+00   6.958209208000000e+00 -1.64488700e-01  -1.85730820e-01  -1.56710420e-01
C     8.452794776550000e+00   4.768628206392851e+00   1.002909029600000e+01  2.49874788e+00  -9.47140780e-01  -2.98610400e-02
C     9.779991954374999e+00   5.448507999322588e+00   9.947176680000000e+00 -3.40219555e+00   1.16922241e+00   3.76761660e-01
