72
Lattice="7.395 0 0 3.6975 6.40425786098592 0 0 0 13.6 " PBC="1 1 1" Properties=species:S:1:pos:R:3:force:R:3 Energy="-580.15654867"
C     3.639108081675000e+00   6.177378635731704e+00   3.123226400000000e-01  1.47099626e+00   5.88925660e-01  -1.08644983e+00
C     1.194966332400000e+00   5.092533922560084e-01   2.782146560000000e-01 -6.30582570e-01  -1.18320842e+00   9.66467400e-02
C     1.397248940550000e+00   1.016590246304833e+00   3.434133008000000e+00  1.04067872e+00   1.21081579e+00  -1.18403000e-02
C     2.670340305074999e+00   1.725402170713221e+00   3.507962376000000e+00  2.11150300e-02  -8.81259170e-01  -7.29703750e-01
C     6.105428471250000e+00   6.172768658796340e+00   2.085475680000000e-01  1.64270585e+00   1.13005920e-01  -3.70709160e-01
C     3.695983803149999e+00   4.907911976972005e-01   2.164642640000000e-01 -2.02608914e+00  -6.47439040e-01   1.38270470e-01
C     3.939019147050000e+00   1.049630965370988e+00   3.399155304000000e+00 -2.02261903e+00  -4.61722250e-01   3.16593810e-01
C     5.140298775824999e+00   1.794422522777485e+00   3.324245960000000e+00 -2.91634490e-01  -2.50180030e-01  -2.09640000e-02
C     8.592370409925000e+00   6.193316015671786e+00   2.149950560000000e-01  1.94467783e+00  -1.27265423e+00  -6.47103990e-01
C     6.158271477374999e+00   5.251489523922642e-01   1.614582480000000e-01 -1.70271847e+00  -1.62397100e-02   6.65192220e-01
C     6.329156838225000e+00   1.089755882354139e+00   3.248286424000000e+00  2.53727875e+00  -2.35779928e+00   8.21007570e-01
C     7.602193701599999e+00   1.783255738559896e+00   3.410842328000000e+00 -2.23191855e+00   3.55820160e-01  -6.20398460e-01
C     1.184476266075000e+00   1.930255423051356e+00   3.151408320000000e-01  1.14267910e+00  -1.05917997e+00  -8.05949440e-01
C     2.443703743425000e+00   2.599048484986754e+00   3.900460960000000e-01  1.00823120e-01   1.50609600e-02  -4.41196090e-01
C     2.681914071675000e+00   3.123031029894976e+00   3.442979944000000e+00 -1.64493208e+00   1.34676874e+00   1.88901620e-01
C     3.861237464775000e+00   3.863036493274959e+00   3.285127600000000e+00  1.82347962e+00  -6.22683400e-02   4.82008570e-01
C     3.681450224774999e+00   1.901796950484031e+00   3.028955280000000e-01  7.87151810e-01   3.47979770e-01  -4.77333780e-01
C     4.917492713250000e+00   2.649530111610783e+00   1.532817920000000e-01 -1.40454241e+00   2.02738230e-01   1.24768860e-01
C     5.156157390300000e+00   3.202925875848099e+00   3.319182680000000e+00 -1.58043974e+00   8.49977210e-01   5.52101900e-02
C     6.356871412500000e+00   3.976617991741996e+00   3.379420344000000e+00 -1.05658108e+00  -2.46023184e+00  -1.98562700e-01
C     6.162277053075000e+00   2.001322447842518e+00   7.573091999999999e-02 -1.69426613e+00  -3.98237373e+00   1.33107500e-01
C     7.380708201150000e+00   2.618112359571509e+00   6.785244000000000e-02  1.11531765e+00   9.33745950e-01   8.09161120e-01
C     7.549256150400000e+00   3.250472367052311e+00   3.465681744000000e+00  2.43911857e+00  -2.13036681e+00   1.25897260e-01
C     8.837441116650000e+00   3.885704940353637e+00   3.510533864000000e+00 -7.43195920e-01  -1.10305711e+00  -9.01271630e-01
C     2.479859932050000e+00   4.004369562326734e+00   4.019923360000000e-01 -1.53508668e+00   7.59312780e-01  -1.16235736e+00
C     3.688018537725000e+00   4.731592447231050e+00   3.332605200000000e-01 -2.41345818e+00   2.47801245e+00  -9.86291400e-02
C     3.845184361800000e+00   5.281134577386268e+00   3.208899736000000e+00  7.64851780e-01   5.77313630e-01   7.48813170e-01
C     5.088601440074999e+00   6.015079755595911e+00   3.299079840000000e+00 -1.47595451e+00   4.82582810e-01   2.17398260e-01
C     4.857027273900000e+00   4.087768626053112e+00   1.552672560000000e-01  3.35523290e+00  -2.51289091e+00  -2.17905660e-01
C     6.117542516549999e+00   4.738577379151216e+00   4.743952000000000e-02  9.48292560e-01   1.28423092e+00   6.82801340e-01
C     6.302014821825000e+00   5.358899623345469e+00   3.374475792000000e+00  1.88806611e+00   2.86913170e-01   1.58807340e-01
C     7.565104670699999e+00   6.023129459427881e+00   3.425279816000000e+00  8.66365680e-01   4.42096160e-01  -5.47696510e-01
C     7.403663981999999e+00   4.006294554154293e+00   4.964367200000000e-02 -1.15468501e+00   2.23821458e+00   2.61040890e-01
C     8.630421752175000e+00   4.701637555772157e+00   2.038136800000000e-01 -9.27928900e-02   2.07039704e+00   4.26054590e-01
C     8.796694666650000e+00   5.269104050911101e+00   3.364680664000000e+00  6.14527670e-01   1.82902539e+00   2.76058120e-01
C     1.003394660737500e+01   5.994409244841818e+00   3.240852664000000e+00 -9.59462170e-01   1.91403637e+00   2.78989110e-01
C     7.370984663550000e+00   1.824943230418308e-01   6.463536951999999e+00 -1.61323029e+00   2.19353969e+00  -6.41710200e-02
C     1.201410853050000e+00   8.810121074086332e-01   6.523533759999999e+00  3.08919960e-01   1.27101755e+00   3.16012690e-01
C     1.090333072350000e+00   4.188151525453896e-01   1.024329070400000e+01 -1.95070920e-01  -6.69069760e-01   2.80298820e-01
C     2.321266466250000e+00   1.118394122439594e+00   1.035167576800000e+01  8.37600710e-01   4.47701100e-01  -3.84804480e-01
C     2.416987531125000e+00   1.761877301141958e-01   6.577228055999999e+00  1.10494802e+00  -1.71726410e-01  -7.15806200e-02
C     3.631745582700000e+00   9.362557480496221e-01   6.622671776000000e+00  5.69201530e-01  -3.68220970e-01  -2.83505550e-01
C     3.594274932825000e+00   4.442843096714023e-01   1.025995342400000e+01 -1.42460581e+00  -2.24344890e+00   3.92146000e-03
C     4.795330271250000e+00   1.122180063516112e+00   1.025370068800000e+01  7.62990570e-01  -1.35451400e-02  -1.55735040e-01
C     4.857655035450001e+00   1.720430865549396e-01   6.488686071999999e+00 -9.65084370e-01   1.10077008e+00   4.56979570e-01
C     6.060699111224999e+00   8.828760666587862e-01   6.448985904000000e+00  2.64717773e+00  -1.95613460e-01   6.07737940e-01
C     6.035649103349999e+00   3.836309283734928e-01   1.017204112000000e+01 -1.71822172e+00   2.56026780e-01   5.34735840e-01
C     7.221609398025000e+00   1.077127582450319e+00   1.022409512000000e+01  2.41130088e+00   1.32696142e+00   7.40534800e-02
C     8.623616910150000e+00   2.348197995463320e+00   6.568781503999999e+00  3.28032840e-01  -2.03851410e+00   9.17541000e-02
C     2.427232822950000e+00   3.125577683033006e+00   6.606548159999999e+00  9.06156340e-01  -2.16251733e+00   3.60028060e-01
C     2.337755874225000e+00   2.540129568845068e+00   1.041049658400000e+01 -6.36552410e-01   2.43793310e-01  -7.14429010e-01
C     3.590925552450000e+00   3.234730957402745e+00   1.038072795200000e+01 -2.50022222e+00   1.68186477e+00  -2.63364390e-01
C     3.669496687950000e+00   2.399091607995483e+00   6.681138176000000e+00 -1.59012905e+00  -2.16522183e+00  -5.81536500e-01
C     4.884202382925000e+00   3.049214913374830e+00   6.630991712000000e+00  2.13121888e+00   1.12417460e-01  -1.49688810e-01
C     4.762972672275000e+00   2.529148572147998e+00   1.030865856000000e+01  2.91791301e+00   6.93437660e-01  -9.32376100e-02
C     6.025514958375000e+00   3.261058925507784e+00   1.025017570400000e+01  2.23199460e-01  -4.74875590e-01  -2.34759290e-01
C     6.131957479124999e+00   2.281511931346448e+00   6.564996487999999e+00 -1.20725254e+00   8.08110370e-01   4.17340600e-02
C     7.385031503024999e+00   2.947380809142970e+00   6.584333783999999e+00 -6.62452890e-01   3.18579007e+00  -4.76103500e-02
C     7.268758956674999e+00   2.499838333285293e+00   1.024822628000000e+01 -1.63943317e+00   1.61975351e+00  -4.41926700e-02
C     8.466853041299998e+00   3.254613872525216e+00   1.027900212800000e+01  1.50842173e+00  -1.32674982e+00   5.44528600e-02
C     9.851319428549999e+00   4.513394450662297e+00   6.552872904000000e+00 -1.18473765e+00  -1.59420790e-01  -3.37419440e-01
C     3.657344151675000e+00   5.222693867178989e+00   6.491540576000000e+00  2.40899406e+00  -2.45568185e+00   6.13272950e-01
C     3.550889133375000e+00   4.699604460071922e+00   1.029343376800000e+01  1.54131179e+00  -1.45267415e+00   2.86995500e-02
C     4.793788117949999e+00   5.408192107370052e+00   1.024027164000000e+01  4.13414320e-01  -4.82704100e-01  -9.99845200e-02
C     4.932077354100000e+00   4.463837278660360e+00   6.572081000000000e+00 -1.24540070e+00   4.51302910e-01  -1.99297830e-01
C     6.175330226400000e+00   5.128563252599187e+00   6.541529415999999e+00 -2.60899600e-01   1.24132420e+00   4.66203050e-01
C     6.051459613350000e+00   4.696201173402539e+00   1.019342725600000e+01 -1.09627700e-02  -6.63225280e-01   4.35292240e-01
C     7.329547039875000e+00   5.380647586441929e+00   1.017294796800000e+01 -3.26459251e+00   1.66835319e+00   4.01751400e-02
C     7.427779668599999e+00   4.428321826271944e+00   6.581563600000000e+00 -2.79629811e+00  -1.65011028e+00  -2.03760420e-01
C     8.586322039424999e+00   5.155220783813701e+00   6.496365720000000e+00  1.16471046e+00   1.06160814e+00   4.73405480e-01
C     8.494003894724999e+00   4.661230915485745e+00   1.016262543200000e+01  1.14736696e+00  -1.68121340e-01   7.70662520e-01
C     9.729922036274999e+00   5.383755700866543e+00   1.022867723200000e+01 -3.47169660e-01  -4.44414320e-01  -3.84759890e-01
