72
Lattice="7.395 0 0 3.6975 6.40425786098592 0 0 0 13.6 " PBC="1 1 1" Properties=species:S:1:pos:R:3:force:R:3 Energy="-577.44451157"
C     3.681479028300000e+00   6.328776636436254e+00   1.321445210400000e+01  1.38855357e+00  -1.30334828e+00   8.33137830e-01
C     1.308739886400000e+00   6.186974199325921e-01   1.325299436800000e+01 -2.79271948e+00   8.98142320e-01   4.12067100e-01
C     1.311031005300000e+00   8.718684922915968e-01   3.679377184000000e+00 -5.41273000e-03  -9.58751110e-01  -2.42463920e-01
C     2.484033633075000e+00   1.637136511439029e+00   3.645294768000000e+00  2.17918267e+00  -3.33890695e+00  -1.14310940e-01
C     6.269260887825000e+00   6.314908664338474e+00   1.330518967200000e+01 -6.12036587e+00   1.51871113e+00  -4.40818100e-01
C     3.701687825475000e+00   6.237568476845706e-01   1.321780844800000e+01 -6.26866110e-01   2.27906821e+00   1.46574932e+00
C     3.743444839200000e+00   8.842474103943481e-01   3.601750696000000e+00 -1.20725872e+00  -2.25447080e+00   2.92122570e-01
C     5.013583380225000e+00   1.507173369664162e+00   3.563540136000000e+00 -2.48802880e+00   4.65162350e-01   1.00351085e+00
C     8.536177320900000e+00   6.335332034781750e+00   1.333132764800000e+01  4.36340912e+00  -1.26899144e+00  -2.07812550e-01
C     6.099700784925000e+00   5.369667294213223e-01   1.327688453600000e+01  2.49767188e+00   3.06058379e+00  -4.58666500e-02
C     6.191351863649999e+00   7.822309128986352e-01   3.645896024000000e+00  2.00351539e+00   2.15960796e+00   1.70835770e-01
C     7.434345467249999e+00   1.492413924872270e+00   3.672811648000000e+00  6.88693650e-01   1.79819021e+00  -3.89104880e-01
C     1.220493428700000e+00   2.053568447506977e+00   1.328010542400000e+01  4.95425410e-01   5.54655600e-01  -4.78073740e-01
C     2.472535961025000e+00   2.810608660411352e+00   1.327830995200000e+01 -1.31337552e+00  -1.29114454e+00   8.42268890e-01
C     2.502281091375000e+00   2.995197431943717e+00   3.635041864000000e+00  4.96254700e-01   2.66145298e+00  -3.12533840e-01
C     3.701622342749999e+00   3.712511521001884e+00   3.583591976000000e+00  3.72495183e+00  -2.85040900e-02   1.16655313e+00
C     3.670649198700000e+00   2.022873480009783e+00   1.335319032800000e+01  1.14815593e+00   2.60648503e+00  -1.91326286e+00
C     4.938376489049999e+00   2.719195500526705e+00   1.319150849600000e+01 -9.05674970e-01   1.31021233e+00   1.60969887e+00
C     4.956376399724999e+00   2.894926735140640e+00   3.710971752000000e+00  6.11236080e-01   3.14022702e+00  -1.76835734e+00
C     6.213242727525000e+00   3.605791032065423e+00   3.671018760000000e+00 -1.92254710e-01   1.49172300e+00  -2.40609910e-01
C     6.167008374074999e+00   1.973064172375897e+00   1.322596083200000e+01 -1.62810623e+00   1.08120704e+00  -1.89821320e-01
C     7.334959810125000e+00   2.741448183185112e+00   1.317730343200000e+01  2.18462329e+00   1.23194486e+00   5.33349750e-01
C     7.480570281149999e+00   2.949993810392429e+00   3.621548352000000e+00 -7.37626300e-01   1.26861310e-01   5.82460820e-01
C     8.729424200399999e+00   3.745349097008719e+00   3.647879312000000e+00 -2.96984872e+00  -2.13553410e+00  -4.51955180e-01
C     2.452837529775000e+00   4.238742024461545e+00   1.329875143200000e+01 -1.29724028e+00  -1.30047885e+00   1.86187920e-01
C     3.678340664250000e+00   4.880051790173961e+00   1.323540168000000e+01  5.98257850e-01   1.90121563e+00   4.51404470e-01
C     3.807839759700000e+00   5.182235928787117e+00   3.641632968000000e+00 -4.06288520e-01  -2.56715292e+00   8.05890900e-02
C     5.110893963374999e+00   5.853541957464201e+00   3.636058464000000e+00 -5.04835737e+00   9.01241500e-02   1.07931510e-01
C     4.903475564700000e+00   4.203355617869009e+00   1.325161927200000e+01  9.18035300e-01  -1.66892635e+00  -2.57229140e-01
C     6.128753003775000e+00   4.965131907546011e+00   1.327361985600000e+01  5.17063980e-01  -3.38436596e+00  -4.95106090e-01
C     6.223828670025000e+00   5.077706208379405e+00   3.626281152000000e+00  1.81892116e+00  -1.65933068e+00   4.83410480e-01
C     7.423653517425000e+00   5.799817534872762e+00   3.681774455999999e+00  1.88731099e+00   1.98520926e+00  -1.09749218e+00
C     7.338448955999999e+00   4.264384096549778e+00   1.317022463200000e+01  1.06600662e+00  -3.54768265e+00   1.56202415e+00
C     8.584618268400000e+00   4.957384484685033e+00   1.336120752800000e+01 -4.96213300e-01  -2.72972245e+00  -1.29087327e+00
C     8.714438158949999e+00   5.138309636466006e+00   3.638890392000000e+00 -1.75954957e+00  -5.31684440e-01   7.57525290e-01
C     9.923264717999999e+00   5.821391622368322e+00   3.731193728000000e+00  1.38284607e+00  -4.47656140e-01  -1.24422896e+00
C     9.428732227500000e-02   6.111474403414380e-02   6.765710456000000e+00 -3.92375446e+00   8.36830700e-01   2.94237130e-01
C     1.250679781725000e+00   7.777619577213487e-01   6.860953432000000e+00  4.79694440e-01   2.40549627e+00  -3.33724300e-02
C     1.174023396600000e+00   5.513926404638653e-01   1.027999832800000e+01 -1.93099349e+00   1.61163879e+00  -9.82643330e-01
C     2.339290373700000e+00   1.283199757186948e+00   1.016893134400000e+01  3.30097535e+00   2.70717030e-01  -2.31138040e-01
C     2.462795304000000e+00   1.255056502191492e-01   6.922019472000000e+00  2.79743083e+00  -1.20050259e+00  -1.13142160e-01
C     3.786779724075000e+00   7.501479505954435e-01   6.923749119999999e+00 -1.00109923e+00  -5.88529290e-01   4.32020450e-01
C     3.615214023225000e+00   5.838487148299806e-01   1.003573729600000e+01 -1.87871280e-01  -8.75628830e-01   2.24737330e+00
C     4.857907796550000e+00   1.315917317401487e+00   1.024724789600000e+01 -7.57538760e-01  -1.48830053e+00  -1.84349938e+00
C     5.050840980149999e+00   7.858856947741800e-02   6.969542631999999e+00 -1.64691074e+00  -5.22520940e-01  -1.31996311e+00
C     6.245537690849999e+00   8.454392728697916e-01   6.820448143999999e+00  3.45888760e-01  -1.17595166e+00   6.37214700e-01
C     6.129172485150000e+00   6.129880240504021e-01   1.017699913600000e+01 -1.74063619e+00  -2.55167760e-01   5.16478350e-01
C     7.338308414025000e+00   1.324009289335333e+00   1.025404612800000e+01  1.15124173e+00  -3.27404020e-01  -6.27648000e-03
C     8.605103564624999e+00   2.230767922277895e+00   6.877863263999999e+00  1.81863725e+00  -1.49241569e+00   3.92544770e-01
C     2.493345380100000e+00   2.836038495394104e+00   6.994434712000000e+00  4.75473000e-03   1.41567142e+00  -1.74683678e+00
C     2.407240958100000e+00   2.701234503188021e+00   1.020948817600000e+01 -8.45751730e-01   1.20247875e+00   1.06728200e-02
C     3.640793956800000e+00   3.404086176933842e+00   1.028314183200000e+01 -2.24882508e+00   2.01771294e+00  -9.29780910e-01
C     3.764731309725000e+00   2.126722171636663e+00   6.930224487999999e+00 -2.42758392e+00   1.61818964e+00   5.06947070e-01
C     4.902345793575000e+00   2.893883225364932e+00   6.949149432000000e+00  3.45648657e+00   1.66470015e+00  -2.16092330e-01
C     4.806898010925000e+00   2.728377989488952e+00   1.024689851200000e+01  3.79538681e+00  -1.16320845e+00   3.10749350e-01
C     6.068165435999999e+00   3.446080816999221e+00   1.022746261600000e+01  6.40917900e-01  -1.85595771e+00   2.80667910e-01
C     6.213381051000000e+00   2.282906202325149e+00   6.879240400000000e+00 -1.61221785e+00  -2.38528191e+00  -2.64924120e-01
C     7.422337244400000e+00   2.964531475734629e+00   6.819300576000000e+00 -7.62370450e-01   1.83590181e+00   5.58606950e-01
C     7.381482346725000e+00   2.765184540261944e+00   1.026017646400000e+01 -2.40837303e+00  -8.25300020e-01  -7.49893250e-01
C     8.592285034649999e+00   3.484603965049007e+00   1.017902077600000e+01 -6.12744730e-01  -2.08290831e+00   6.83393900e-01
C     2.474565259950000e+00   4.256249408216005e+00   6.808190056000001e+00 -2.24609150e-01   2.04291300e+00   1.12696911e+00
C     3.683224692000000e+00   5.068327621041486e+00   6.785064616000000e+00  1.39007289e+00  -2.75432508e+00   8.06875160e-01
C     3.654414474525000e+00   4.860492994541785e+00   1.023498368800000e+01 -2.42332182e+00  -4.83566710e-01  -2.77237640e-01
C     4.870754945174999e+00   5.561869511532135e+00   1.022642629600000e+01 -1.61347472e+00  -1.68903110e-01   2.26892000e-01
C     4.930551728625000e+00   4.323115560063901e+00   6.944585408000000e+00 -7.56549650e-01   1.77399823e+00  -8.32319520e-01
C     6.164745614999999e+00   5.127053640936428e+00   6.919365839999999e+00 -1.52352409e+00  -2.12560357e+00   1.55847490e-01
C     6.036808343550000e+00   4.823926539395964e+00   1.022727901600000e+01  1.90917909e+00   3.63047060e-01  -5.42356810e-01
C     7.277265240299999e+00   5.492433074834707e+00   1.014594000000000e+01 -9.24631960e-01   4.27894979e+00  -3.78782990e-01
C     7.372676269799999e+00   4.423317795350455e+00   6.876516184000000e+00  1.47626994e+00  -1.72468597e+00   9.22805500e-02
C     8.630299882574999e+00   5.040061468337696e+00   6.886958128000000e+00  2.12254024e+00   3.87405660e-01  -1.38763530e-01
C     8.476219548300000e+00   4.872372316488877e+00   1.017783118400000e+01  4.79908486e+00  -1.33052900e-02  -3.64874930e-01
C     9.780257471850000e+00   5.585383832988961e+00   1.015466168000000e+01  1.72945380e-01  -1.49039270e-01   3.49402640e-01
