72
Lattice="7.395 0 0 3.6975 6.40425786098592 0 0 0 13.6 " PBC="1 1 1" Properties=species:S:1:pos:R:3:force:R:3 Energy="-579.07174453"
C     1.103221547932500e+01   6.308019732243630e+00   1.358653532000000e+01  1.16270746e+00  -2.14338375e+00   1.24482860e-01
C     1.208771651175000e+00   5.346318650907234e-01   1.352324037600000e+01 -3.29058610e-01   4.20499660e-01   4.64544430e-01
C     1.265332086825000e+00   8.916255637471182e-01   3.333962344000000e+00  2.09878283e+00  -1.62540993e+00   6.55013530e-01
C     2.577807298650000e+00   1.498978417263928e+00   3.240896048000000e+00 -2.05483036e+00   3.09804697e+00   1.02563858e+00
C     6.153765297149999e+00   6.242544072862297e+00   3.064229600000000e-02 -4.60803880e-01   1.91483496e+00  -1.51919270e-01
C     3.690750398625000e+00   5.520203217767239e-01   3.045760800000000e-02 -1.30390081e+00   6.03164120e-01  -1.69060070e-01
C     3.807711567375000e+00   8.578103137353751e-01   3.394334240000000e+00  3.53364220e-01   3.13070460e+00  -1.73829310e-01
C     5.014905680175000e+00   1.608631543959640e+00   3.479348927999999e+00  9.52848410e-01   7.52532400e-02   1.59994840e-01
C     8.582369744699999e+00   6.259602069842722e+00   2.641296800000000e-02  1.11699377e+00   8.41902310e-01   3.39249110e-01
C     6.101197791750000e+00   5.458460408164765e-01   3.610609600000000e-02  9.07583120e-01   3.21630374e+00   1.42339390e-01
C     6.274946533574999e+00   8.752599951265171e-01   3.559146384000000e+00 -1.98316857e+00   6.31932080e-01  -5.76667200e-01
C     7.472933723474999e+00   1.605699162370704e+00   3.427702656000000e+00 -3.08767500e-02   2.16038510e-01  -1.05178400e-02
C     1.229854204575000e+00   1.917664524013438e+00   1.347917474400000e+01 -9.55229690e-01   4.08367585e+00   7.18751860e-01
C     2.484164154825000e+00   2.663126415090141e+00   1.335424487200000e+01 -1.93930388e+00   9.76890640e-01   1.45979536e+00
C     2.558458207200000e+00   2.950619250215036e+00   3.335273520000000e+00 -6.07516100e-02   9.16449550e-01   2.59632100e-02
C     3.757822789800000e+00   3.741225395372665e+00   3.447493648000000e+00 -1.62646000e-01  -2.10834797e+00   3.20176610e-01
C     3.693954652125000e+00   1.965331159095104e+00   1.355745702400000e+01 -9.01422170e-01   4.09838900e-01  -8.91465870e-01
C     4.869697201350000e+00   2.706204975798324e+00   3.082018400000000e-02  1.78934369e+00   5.71098450e-01   6.59174090e-01
C     5.005967750400000e+00   3.057650793955758e+00   3.488107872000000e+00  3.67746390e-01  -1.86786792e+00  -7.10179630e-01
C     6.259953245024999e+00   3.696292161588226e+00   3.413519080000000e+00 -5.23539500e-02   3.59103731e+00   6.27548620e-01
C     6.106856445750000e+00   2.016306682085296e+00   1.455174160000000e-01  1.54971715e+00  -3.26839560e-01  -5.90244130e-01
C     7.376814770625000e+00   2.760154379968386e+00   1.586639920000000e-01  7.59638820e-01  -1.89617513e+00  -1.46512665e+00
C     7.501569899625000e+00   3.019404245802945e+00   3.374644840000000e+00 -1.53672288e+00  -4.04040230e-01   1.83567220e-01
C     8.715577950300000e+00   3.713247754485470e+00   3.378072856000000e+00  8.50719200e-01  -4.66687640e-01  -4.58242260e-01
C     2.435676101174999e+00   4.122832001879191e+00   1.342684371200000e+01  9.17151780e-01   1.37191670e-01   1.05271568e+00
C     3.680347186575000e+00   4.873229270233124e+00   1.356711547200000e+01 -5.82393130e-01  -1.48878839e+00  -4.46340880e-01
C     3.714315157725000e+00   5.118020883522948e+00   3.591682616000000e+00  2.05753174e+00   1.40092124e+00  -6.50937600e-01
C     4.937934305025000e+00   5.881890661051806e+00   3.523067352000000e+00  2.04365388e+00  -9.71299690e-01  -6.31147150e-01
C     4.912787052900000e+00   4.123721489253366e+00   5.549140000000000e-02  1.41015720e-01   1.64706051e+00   1.35010740e-01
C     6.181983249075000e+00   4.891942127444572e+00   1.849983520000000e-01 -1.47066428e+00  -2.95222371e+00  -7.58256730e-01
C     6.248949152250000e+00   5.212116402769677e+00   3.448012352000000e+00 -1.16425121e+00  -1.78949544e+00   2.43269900e-02
C     7.496772097575000e+00   5.931163612089917e+00   3.427132136000000e+00 -4.40643470e-01  -5.76745265e+00  -2.96561570e-01
C     7.439480407349999e+00   4.233707060974591e+00   1.629126320000000e-01 -3.46044150e+00  -4.45564466e+00   2.23469000e-01
C     8.601809609775000e+00   4.885117750268956e+00   4.192635200000000e-02  3.09711941e+00  -1.50360895e+00  -1.10946098e+00
C     8.704847435550001e+00   5.127069779666235e+00   3.393437592000000e+00  2.29482480e-01   1.43917803e+00   1.06328951e+00
C     9.936665419350000e+00   5.844181045877975e+00   3.556791544000000e+00 -1.46425382e+00   4.68527590e-01  -5.24344900e-01
C     7.431716655675000e+00   1.260958025809482e-01   7.047825456000001e+00 -4.41269490e-01  -3.97181550e-01  -1.19013700e+00
C     1.282411578825000e+00   8.015100986326436e-01   6.858885143999999e+00 -1.51056994e+00   1.19478475e+00  -2.30404700e-02
C     1.138911345000000e+00   5.724851918109324e-01   1.008150972800000e+01  8.66020570e-01   2.55002740e-01   6.27407000e-02
C     2.390256159075000e+00   1.290498241571939e+00   1.000387508000000e+01 -1.10631628e+00   2.91294100e-02   6.49905000e-03
C     2.475722170725000e+00   1.174523600027778e-01   6.837516687999999e+00  1.32359551e+00  -1.68605085e+00  -1.73908480e-01
C     3.687268832625000e+00   8.642405728822866e-01   6.797184120000000e+00 -1.88184130e-01  -9.32053640e-01  -2.24515500e-02
C     3.611142742950000e+00   5.961478999223748e-01   1.007922302400000e+01 -1.30181666e+00  -1.12061700e+00   4.56525500e-01
C     4.783143422175000e+00   1.287414207156878e+00   1.011965868000000e+01  4.36918930e+00   9.85065430e-01  -3.60922590e-01
C     4.884435140550000e+00   1.629156101677104e-01   6.911610576000000e+00  1.48530155e+00  -2.41237192e+00  -1.05110910e-01
C     6.129633008775000e+00   8.362216885744723e-01   6.952414792000000e+00  1.54744240e+00  -2.79398901e+00   3.40089850e-01
C     6.092555772899999e+00   5.180706463924992e-01   1.020169020800000e+01 -1.33774905e+00   1.55386395e+00  -2.22576160e-01
C     7.305040268700000e+00   1.283019029030138e+00   1.013257310400000e+01 -9.99627080e-01  -7.85436590e-01   3.83318180e-01
C     8.678321607525000e+00   2.239321192905397e+00   6.726147512000000e+00  4.14380770e-01  -8.59199930e-01   9.47580800e-01
C     2.480474678400000e+00   3.014279622705952e+00   6.724466688000000e+00  8.55108830e-01  -1.59288753e+00  -1.05904740e-01
C     2.373520386675000e+00   2.700275465573486e+00   9.920568688000001e+00 -4.46886810e-01   2.85104400e-01   6.06830220e-01
C     3.604051344674999e+00   3.437526585733040e+00   9.939334647999999e+00  2.84449950e-01  -8.24904400e-02   6.07732200e-01
C     3.707372398950000e+00   2.250622338452888e+00   6.704907168000000e+00  8.15655150e-01   2.70467511e+00   4.89841820e-01
C     4.975074916050000e+00   2.982004212454067e+00   6.764309928000000e+00 -3.51377120e-01  -2.18985410e+00   4.31739940e-01
C     4.837754868599999e+00   2.756882124414819e+00   9.995306264000000e+00  7.90437000e-03  -1.91128934e+00   9.54050750e-01
C     6.100798905450000e+00   3.462032670562066e+00   1.015494224800000e+01 -2.33662518e+00  -3.09098152e+00  -2.03096170e-01
C     6.188917170824999e+00   2.186822929523833e+00   6.897931015999999e+00 -3.43405560e-01   3.24388161e+00  -7.35938500e-01
C     7.458646287674999e+00   2.849671175058108e+00   6.865653184000000e+00 -1.57842783e+00   3.49436489e+00  -2.42322110e-01
C     7.266330364725000e+00   2.713419820575664e+00   1.017668307200000e+01  1.51976247e+00  -1.53540945e+00  -8.68973630e-01
C     8.490157348500000e+00   3.364434982904596e+00   1.002882251200000e+01  1.22438593e+00   2.32204399e+00   8.03637750e-01
C     9.903602855024999e+00   4.404058975156441e+00   6.870184296000000e+00  2.67293400e-01   1.10510368e+00   3.54462680e-01
C     3.808933812975000e+00   5.107509318927016e+00   6.992175072000000e+00 -2.77971623e+00  -5.04629700e-02  -9.21023700e-01
C     3.634483211700000e+00   4.862378856353819e+00   1.010666061600000e+01  6.86231700e-01  -2.01583607e+00  -4.76492910e-01
C     4.856770297650000e+00   5.552417147143667e+00   1.010735734400000e+01  2.99574110e-01   7.82816200e-02   3.99856790e-01
C     5.019976357725000e+00   4.389771460126252e+00   6.826528160000001e+00 -1.60040531e+00  -4.52202810e-01   3.50874590e-01
C     6.221045968499999e+00   5.065375001997711e+00   6.839530984000000e+00  8.98445250e-01   1.48688597e+00   3.95166030e-01
C     6.090295158375000e+00   4.803486261711938e+00   1.018331212000000e+01 -2.10540890e-01   4.50408020e+00  -4.72462280e-01
C     7.302484593675000e+00   5.575835276647436e+00   1.019249103200000e+01  1.54315580e-01  -1.17569346e+00  -2.77776380e-01
C     7.442187458025000e+00   4.337708814364325e+00   6.882816520000000e+00 -3.02626900e-01  -9.62333220e-01  -3.64672010e-01
C     8.623035737099999e+00   5.089743971665954e+00   6.917090151999999e+00  1.42739095e+00   1.05199891e+00  -1.79036480e-01
C     8.491073921775000e+00   4.820389531822465e+00   1.014963702400000e+01  2.52019074e+00  -3.85838870e-01  -8.03191900e-02
C     9.829987330874999e+00   5.494097093154470e+00   1.019799060000000e+01 -4.16840501e+00   2.14191793e+00  -3.70731090e-01
