72
Lattice="7.395 0 0 3.6975 6.40425786098592 0 0 0 13.6 " PBC="1 1 1" Properties=species:S:1:pos:R:3:force:R:3 Energy="-579.13623159"
C     1.103194711477500e+01   6.300634982505264e+00   1.357948440000000e+01  1.05899377e+00  -1.53306696e+00   2.23121700e-01
C     1.205858280000000e+00   5.418345417781296e-01   1.352264469600000e+01 -2.96401420e-01   3.72723300e-02   4.38105090e-01
C     1.268230335225000e+00   8.885187301740750e-01   3.338731320000000e+00  1.79995773e+00  -1.61811505e+00   6.69042740e-01
C     2.578660348875000e+00   1.500604010036532e+00   3.249571216000000e+00 -2.17321817e+00   2.94617924e+00   1.05789505e+00
C     6.148619523375000e+00   6.244148019243334e+00   2.430224800000000e-02 -3.17876620e-01   1.94786508e+00  -1.33831770e-01
C     3.687835881225000e+00   5.528603042376414e-01   2.084716800000000e-02 -9.99303960e-01   5.36429930e-01  -7.67557500e-02
C     3.806258523825000e+00   8.535699265211120e-01   3.403367088000000e+00  5.30725210e-01   3.42251254e+00  -2.44219520e-01
C     5.013746772749999e+00   1.608346362357134e+00   3.476828304000000e+00  1.02004559e+00   7.15123900e-02   2.82012840e-01
C     8.591275875974999e+00   6.267188361575943e+00   1.538459200000000e-02  4.42066130e-01   2.92675360e-01   4.31167790e-01
C     6.100239880424999e+00   5.540248544869038e-01   3.193252800000000e-02  1.25539720e+00   3.00489723e+00   8.18343700e-02
C     6.275934209775000e+00   8.733693301210880e-01   3.555721768000000e+00 -2.24211300e+00   8.71186300e-01  -5.58816020e-01
C     7.469867238825000e+00   1.598236536856760e+00   3.429290864000000e+00  3.94527760e-01   8.54242110e-01  -6.19201000e-02
C     1.231584560625000e+00   1.923105837661609e+00   1.347946918400000e+01 -1.18167339e+00   3.97413635e+00   7.37627430e-01
C     2.477047946325000e+00   2.667425337221245e+00   1.335633804800000e+01 -1.36793756e+00   6.71380310e-01   1.48541011e+00
C     2.553330440250000e+00   2.948987061056837e+00   3.346551864000000e+00  3.05429800e-01   7.53665040e-01  -6.20120800e-02
C     3.765285638925000e+00   3.731570272180351e+00   3.444946776000000e+00 -7.27872700e-01  -1.51530264e+00   4.74289310e-01
C     3.695671290450000e+00   1.963345390860454e+00   1.356414237600000e+01 -1.11669542e+00   7.06744580e-01  -1.08310570e+00
C     4.873457041199999e+00   2.710624169892038e+00   2.356064000000000e-02  1.51791469e+00   4.15446740e-01   7.03069020e-01
C     5.012727815700000e+00   3.063200339561763e+00   3.496489960000000e+00 -7.06973200e-02  -2.45985377e+00  -8.51657730e-01
C     6.252312915899999e+00   3.697875998599583e+00   3.414276736000000e+00  7.26750760e-01   3.82412738e+00   6.28815320e-01
C     6.107312976075000e+00   2.024748966924084e+00   1.381633520000000e-01  1.56973360e+00  -5.59826900e-01  -5.50639520e-01
C     7.375908550349999e+00   2.761178484842778e+00   1.572713520000000e-01  8.52519150e-01  -1.99934567e+00  -1.57650164e+00
C     7.504911737100000e+00   3.028363738506507e+00   3.377746048000000e+00 -2.25770525e+00  -1.30231864e+00   2.21787060e-01
C     8.709840169800000e+00   3.706726939132418e+00   3.386636232000000e+00  1.36599423e+00  -1.37944160e-01  -5.03576370e-01
C     2.438642309625000e+00   4.118823320714302e+00   1.342344262400000e+01  6.52327340e-01   3.90229360e-01   1.16277145e+00
C     3.679141099050000e+00   4.872847384336932e+00   1.356789488800000e+01 -4.92131680e-01  -1.56032158e+00  -5.42530000e-01
C     3.712876571399999e+00   5.115204739214170e+00   3.589102424000000e+00  1.91178131e+00   1.33435386e+00  -6.85404760e-01
C     4.934383484850000e+00   5.873656898848940e+00   3.522202800000000e+00  2.16738303e+00  -5.98028720e-01  -6.22947530e-01
C     4.913197475400001e+00   4.126766457695482e+00   4.975056800000000e-02  1.18261000e-01   1.67729267e+00   1.64120260e-01
C     6.177652182450000e+00   4.894220442178267e+00   1.782017520000000e-01 -1.17790673e+00  -3.19702001e+00  -8.30392550e-01
C     6.247046751525000e+00   5.216375682544627e+00   3.449336584000000e+00 -1.25935692e+00  -2.09443182e+00   4.63734600e-02
C     7.495142091675000e+00   5.928497519542798e+00   3.434624647999999e+00 -2.92774360e-01  -5.91170796e+00  -3.84724010e-01
C     7.441275284774999e+00   4.218966700871123e+00   1.466137120000000e-01 -3.61541219e+00  -3.54472903e+00   4.03804380e-01
C     8.602743228524998e+00   4.881502674792144e+00   4.146517600000000e-02  3.14415029e+00  -1.20799782e+00  -1.25117843e+00
C     8.705465139899999e+00   5.116584984868157e+00   3.391213176000000e+00  1.74756370e-01   2.10379883e+00   1.18189972e+00
C     9.934853829224998e+00   5.855674703416739e+00   3.554714007999999e+00 -1.38411506e+00  -5.54405640e-01  -5.66928750e-01
C     7.426860617999999e+00   1.256575592155884e-01   7.051636856000000e+00 -1.01589940e-01  -3.97545250e-01  -1.21037344e+00
C     1.285422711900000e+00   7.990183940270533e-01   6.864769456000000e+00 -1.83900973e+00   1.32160967e+00  -3.23230600e-02
C     1.139947606350000e+00   5.717357655561552e-01   1.008189936800000e+01  9.13094840e-01   4.84749920e-01  -2.79078900e-02
C     2.387535649500000e+00   1.291993699824828e+00   1.001040294400000e+01 -7.63018610e-01   5.51552200e-02  -2.10675700e-02
C     2.474460213975000e+00   1.184502714625230e-01   6.839635840000000e+00  1.56688489e+00  -1.97183328e+00  -1.89954390e-01
C     3.686164944000000e+00   8.686481752692745e-01   6.797410151999999e+00 -2.51174930e-01  -1.23744331e+00   9.46172000e-03
C     3.619370789700000e+00   5.951280859007484e-01   1.008133796000000e+01 -2.08744227e+00  -9.52504650e-01   4.56271460e-01
C     4.780052312175000e+00   1.287144844071286e+00   1.012414980800000e+01  4.91045496e+00   1.19540123e+00  -4.73026900e-01
C     4.878863932425000e+00   1.581104314527738e-01   6.911797303999999e+00  1.80226355e+00  -2.22344689e+00  -1.23599710e-01
C     6.131672623725000e+00   8.332375605820266e-01   6.951184264000000e+00  1.18916855e+00  -2.96935501e+00   3.90311350e-01
C     6.090709315349999e+00   5.223983876839728e-01   1.019424203200000e+01 -1.31128870e+00   1.31812746e+00  -1.79783650e-01
C     7.304964654824999e+00   1.280216717918338e+00   1.012162945600000e+01 -1.11248384e+00  -6.79320540e-01   4.93082690e-01
C     8.676666273750000e+00   2.237559317525532e+00   6.731249824000000e+00  6.11856960e-01  -7.14187120e-01   1.01387767e+00
C     2.484176208675000e+00   3.020251529117823e+00   6.737198872000000e+00  5.58903910e-01  -1.99638617e+00  -2.71158090e-01
C     2.372815051575000e+00   2.709341589170416e+00   9.927251455999999e+00 -3.52860570e-01  -3.48889340e-01   5.47803660e-01
C     3.602372901524999e+00   3.433613968436052e+00   9.942544655999999e+00  5.92657560e-01   2.33586410e-01   5.94214810e-01
C     3.704425935150000e+00   2.250663069532878e+00   6.708114184000000e+00  1.07469748e+00   3.02215997e+00   5.44433580e-01
C     4.980142191900000e+00   2.988937974353932e+00   6.768651864000000e+00 -6.76697290e-01  -2.86885874e+00   3.99878650e-01
C     4.844186891700000e+00   2.753592385237294e+00   9.991657112000000e+00 -4.97174400e-01  -1.73453010e+00   9.86386260e-01
C     6.097521404475000e+00   3.462599767595569e+00   1.014666406400000e+01 -2.01307090e+00  -3.04664027e+00  -1.30998430e-01
C     6.188609871600000e+00   2.180646214945599e+00   6.904030751999999e+00 -2.72509350e-01   3.67905393e+00  -7.85357200e-01
C     7.457546244450000e+00   2.848564455257321e+00   6.873145968000000e+00 -1.51233045e+00   3.37830537e+00  -2.83081540e-01
C     7.262931659700000e+00   2.706322173717162e+00   1.017474561600000e+01  1.83121627e+00  -1.07874027e+00  -9.87486940e-01
C     8.495926631700000e+00   3.364691793644782e+00   1.002393603200000e+01  6.17388130e-01   2.32033301e+00   9.71454120e-01
C     9.901334771549999e+00   4.407068912308063e+00   6.870707624000000e+00  5.61768790e-01   1.10952520e+00   4.61050040e-01
C     3.810119268450000e+00   5.109565149742654e+00   6.997789832000000e+00 -2.94577517e+00  -1.26667700e-01  -9.89660610e-01
C     3.629336957250000e+00   4.862747869691712e+00   1.010496007200000e+01  1.11247045e+00  -1.99471173e+00  -5.25667680e-01
C     4.858587064275000e+00   5.560539603344926e+00   1.009873603200000e+01  1.17517450e-01  -4.83360180e-01   5.24821950e-01
C     5.015280717600000e+00   4.384750842176905e+00   6.827273440000001e+00 -1.03831276e+00   4.77391100e-02   4.06715900e-01
C     6.229676636024999e+00   5.056253225399978e+00   6.838145824000001e+00  2.83652980e-01   1.89803061e+00   4.32985200e-01
C     6.091509713175000e+00   4.807722806371485e+00   1.018212892000000e+01 -1.81832890e-01   4.43527371e+00  -5.37272830e-01
C     7.308642336225000e+00   5.580687014317014e+00   1.019175173600000e+01 -2.33800700e-02  -1.49127763e+00  -2.48086930e-01
C     7.445270766299999e+00   4.339852127342332e+00   6.885057528000000e+00 -3.11361340e-01  -1.34652598e+00  -3.51770120e-01
C     8.626792397100001e+00   5.085625393436188e+00   6.918556912000000e+00  1.22306619e+00   1.35252215e+00  -1.90248280e-01
C     8.494437241724999e+00   4.820636992346175e+00   1.015005916800000e+01  2.42909156e+00  -3.87496320e-01  -1.35845870e-01
C     9.827881123950000e+00   5.495441282836706e+00   1.019328554400000e+01 -4.14855990e+00   2.19898640e+00  -3.33889410e-01
