72
Lattice="7.395 0 0 3.6975 6.40425786098592 0 0 0 13.6 " PBC="1 1 1" Properties=species:S:1:pos:R:3:force:R:3 Energy="-567.01717992"
C     3.624278703300000e+00   6.262867088584907e+00   9.176178400000000e-02  2.38792069e+00  -4.78160627e+00  -4.36436100e-01
C     1.235533268775000e+00   3.808666585533810e-01   1.352379920000000e+01 -1.66729626e+00   1.91170187e+00   9.48182010e-01
C     1.349273582250000e+00   1.065222771556944e+00   3.252222128000000e+00  4.40017050e+00  -1.30959336e+00   7.30718850e-01
C     2.681228259375000e+00   1.626510822968031e+00   2.979207432000000e+00  5.05102710e-01   5.43451843e+00   2.28571656e+00
C     6.131016724200000e+00   6.126454090634077e+00   2.153132960000000e-01  1.46380070e+00   1.69254054e+00   2.58538500e-02
C     3.689442629849999e+00   4.618009155571813e-01   2.669088400000000e-01 -2.55103581e+00   1.69758930e-01  -1.42696969e+00
C     3.953466795525000e+00   1.089030279938601e+00   3.346561928000000e+00 -1.18546598e+00   8.24835760e-01   3.86535190e-01
C     5.180235325425000e+00   1.801598877965086e+00   3.630963496000000e+00 -1.64577066e+00   8.84003270e-01  -8.48060050e-01
C     8.567444748974999e+00   6.117782021023273e+00   3.345262720000000e-01  2.21580745e+00   5.62445209e+00  -7.16840680e-01
C     6.103385454600000e+00   4.163537400794772e-01   2.174157200000000e-01 -5.26612180e-01   4.68826118e+00   1.62473166e+00
C     6.397820485500000e+00   1.086866729505757e+00   3.826545912000000e+00 -1.52625190e-01  -4.20350630e-01  -1.40731341e+00
C     7.605780683324999e+00   1.794447499383139e+00   3.416874472000000e+00 -2.49301062e+00  -1.07342070e+00   9.13593670e-01
C     1.241986441575000e+00   1.745621949799127e+00   1.340057164000000e+01 -1.25568460e+00   6.05275204e+00   1.92328185e+00
C     2.457450161025000e+00   2.553035685454855e+00   1.316556105600000e+01 -1.46918495e+00   1.19767156e+00   2.78751579e+00
C     2.748911551500000e+00   3.179320421801925e+00   3.145281248000000e+00 -2.51082132e+00   8.48533740e-01   1.16283733e+00
C     3.844898545050000e+00   4.002369384511899e+00   3.619965992000000e+00  2.19129516e+00  -4.70226111e+00  -1.13885431e+00
C     3.643023142575000e+00   1.864784823033733e+00   1.353211247200000e+01  2.23976756e+00   3.15338290e-01   8.10688630e-01
C     4.853731026599999e+00   2.596695368521254e+00   2.899049440000000e-01  6.96602910e-01  -1.26921490e-01  -6.03931700e-02
C     5.103684577875000e+00   3.248249128936212e+00   3.607535047999999e+00  2.09410827e+00  -4.34968760e-01  -4.63546780e-01
C     6.408213603375000e+00   3.865472929135218e+00   3.478446840000000e+00 -2.12835115e+00   3.39815190e+00   1.19186672e+00
C     6.135792082425001e+00   1.874355858320345e+00   5.500709039999999e-01 -2.51031340e-01   9.31070290e-01  -2.57758584e+00
C     7.386349476900000e+00   2.645397059758253e+00   4.664232880000000e-01  8.88823550e-01  -1.14314990e+00  -2.31349819e+00
C     7.592885615100000e+00   3.152681142722312e+00   3.251310792000000e+00  1.75749466e+00   3.36910688e+00   4.82489250e-01
C     8.900830871775000e+00   3.939646403243951e+00   3.218821888000000e+00 -1.81795875e+00  -6.96291250e-01   5.37608760e-01
C     2.408638317300000e+00   4.037170249808296e+00   1.337804582400000e+01  1.44636782e+00   4.48718810e-01   1.65467630e+00
C     3.680883619874999e+00   4.824628253929684e+00   2.003416000000000e-03 -1.23434861e+00  -3.73385240e+00  -1.42069720e-01
C     3.845334591225000e+00   5.335698790310889e+00   3.966702344000000e+00  2.64258237e+00   1.42502928e+00  -1.83486555e+00
C     5.100008042700000e+00   6.164073597899819e+00   3.739281784000000e+00  8.99158980e-01  -4.67768946e+00  -7.93931690e-01
C     4.883444580300000e+00   4.006642049185777e+00   2.576196320000000e-01  8.73749210e-01   2.50552598e+00   6.46002700e-01
C     6.177812099324999e+00   4.818759263941623e+00   5.840679120000000e-01 -1.84738219e+00  -2.95175025e+00  -1.66436033e+00
C     6.392040072825000e+00   5.380300603751073e+00   3.580834712000000e+00 -9.31503110e-01   7.62072100e-02  -4.23893800e-01
C     7.622700184500000e+00   6.140796682281862e+00   3.487010896000000e+00 -7.45329390e-01  -4.08159049e+00  -3.19987300e-02
C     7.474158261524999e+00   4.246709561665170e+00   5.845197040000000e-01 -5.22911798e+00  -8.82975507e+00  -4.81044010e-01
C     8.614559366249999e+00   4.805261073692680e+00   2.694710800000000e-01  3.68204089e+00  -3.79847035e+00  -2.19599781e+00
C     8.835568776600001e+00   5.402271242893325e+00   3.511951936000000e+00  1.14890288e+00  -3.17827709e+00   5.69310690e-01
C     1.005725542552500e+01   5.996139419145276e+00   3.911720808000000e+00 -1.95966497e+00   4.03339714e+00  -1.75016095e+00
C     7.401967532024999e+00   2.203992680803914e-01   6.783767176000000e+00 -2.27500740e+00   1.01382893e+00  -6.59278820e-01
C     1.223496242400000e+00   9.129744775363212e-01   6.548385176000000e+00 -6.01712470e-01   1.10298927e+00   5.89845450e-01
C     1.093032691050000e+00   3.877839615105456e-01   1.016394123200000e+01 -1.72424230e-01  -9.45722150e-01   2.37991870e-01
C     2.311224684825000e+00   1.075602984824168e+00   9.741497352000000e+00 -1.67282068e+00  -4.10227400e-01   1.26349686e+00
C     2.442800037450000e+00   2.387362593980364e-01   6.744095568000000e+00 -1.56225013e+00  -8.65160020e-01  -7.30594860e-01
C     3.600302671275000e+00   9.818174957004415e-01   6.732856120000000e+00  1.13580144e+00  -2.24624040e-01  -5.31860480e-01
C     3.513546712800000e+00   3.431452595450880e-01   9.794927127999999e+00  1.88075250e+00   3.93338130e-01   1.38979248e+00
C     4.771366884674999e+00   1.074120655299892e+00   9.964639896000000e+00  6.87045920e-01  -3.31594860e-01   9.57043280e-01
C     4.809312737249999e+00   3.171266811372661e-01   6.810785072000000e+00  8.35731060e-01  -4.04857347e+00  -4.27086900e-02
C     6.027328323300000e+00   9.627756517627248e-01   6.749633759999999e+00  4.17229621e+00  -2.10890533e+00   6.43894800e-02
C     6.039390603600000e+00   2.731617070986804e-01   1.037466235200000e+01 -2.08030017e+00   2.36567830e+00  -1.53970732e+00
C     7.224886972949999e+00   1.099771309093657e+00   1.042889289600000e+01  1.45684280e+00  -2.10982424e+00  -1.56634564e+00
C     8.627843337525000e+00   2.355598179463129e+00   6.335137720000000e+00 -1.15743390e-01  -1.38564833e+00   1.40911249e+00
C     2.457533058975000e+00   3.088467634480028e+00   6.372612247999999e+00 -1.15467510e+00   1.37491833e+00   1.16783814e+00
C     2.255548321425000e+00   2.472795970215972e+00   9.638999728000000e+00  7.52189330e-01   1.98210545e+00   1.67691951e+00
C     3.533376072525000e+00   3.281038929179412e+00   9.733079224000001e+00  3.08581950e-01  -2.54977744e+00   9.91756090e-01
C     3.633792925424999e+00   2.353897849001299e+00   6.540083192000000e+00  1.19884143e+00   1.82350758e+00   3.11793000e-02
C     4.874034775575000e+00   3.053823929671515e+00   6.590405776000000e+00  2.25848950e+00   1.19187422e+00   7.96891200e-01
C     4.769611311675000e+00   2.597656327413147e+00   9.947719592000000e+00  1.06952743e+00  -3.77433717e+00   7.45220610e-01
C     6.055974630600000e+00   3.246870612431847e+00   1.031520954400000e+01 -3.53424204e+00  -2.63429679e+00  -9.89700700e-01
C     6.122021335275000e+00   2.327804853117144e+00   6.638434312000000e+00 -7.95340020e-01   7.88291100e-01  -7.01461700e-02
C     7.395922008599999e+00   2.956981752313789e+00   6.533898047999999e+00 -1.25303611e+00   4.11831617e+00   5.01495040e-01
C     7.244679172800000e+00   2.531807684054049e+00   1.032032069600000e+01 -2.33807619e+00  -3.86381645e+00   1.12283430e-01
C     8.381475104100000e+00   3.124720024820394e+00   9.980135464000000e+00  4.87239686e+00   3.70583772e+00  -9.64585980e-01
C     9.872988479400000e+00   4.509425219725826e+00   6.630046784000000e+00 -1.40305720e+00   6.70978100e-01   1.58698050e-01
C     3.756722265900000e+00   5.220109557004743e+00   6.773072136000000e+00 -1.63504693e+00  -8.24619920e-01  -1.63648530e-01
C     3.624197469225000e+00   4.632120745638587e+00   1.010265201600000e+01 -2.09690262e+00  -9.97578690e-01  -1.18654000e-01
C     4.838487269400000e+00   5.289709878660808e+00   1.026852740800000e+01 -1.80182842e+00   3.52707282e+00  -6.51368920e-01
C     5.026763082000000e+00   4.516153917289014e+00   6.717434808000000e+00 -7.19639233e+00  -2.92053208e+00  -5.22922880e-01
C     6.130153579800000e+00   5.219715823231510e+00   6.760231832000000e+00  4.70690822e+00   3.25373950e-01   4.24879910e-01
C     6.018676173299999e+00   4.587891211707804e+00   1.027258632800000e+01  5.76388260e-01   2.82874935e+00  -6.74684180e-01
C     7.172343981974999e+00   5.340092239288007e+00   1.007863836000000e+01  3.49253323e+00   1.69543270e-01  -4.33313210e-01
C     7.359474124199999e+00   4.440733662260095e+00   6.725540544000000e+00  1.01878500e-01  -3.55678800e-02  -7.44471210e-01
C     8.514278581350000e+00   5.222157638668371e+00   6.754121896000000e+00  3.68402315e+00   3.51205100e-02  -2.40819240e-01
C     8.410555497899999e+00   4.594274335516866e+00   1.001216074400000e+01  2.13082896e+00   8.38284000e-02   9.13233480e-01
C     9.773324215650000e+00   5.241879038407611e+00   1.021953123200000e+01 -3.57134483e+00   2.59715476e+00  -7.78871480e-01
