72
Lattice="7.395 0 0 3.6975 6.40425786098592 0 0 0 13.6 " PBC="1 1 1" Properties=species:S:1:pos:R:3:force:R:3 Energy="-580.65597565"
C     3.657070647600000e+00   6.246575553185168e+00   1.353437768800000e+01 -1.85941410e-01   2.16894502e+00   5.67505910e-01
C     1.178114014800000e+00   5.928180700906464e-01   1.353026967200000e+01  5.70954010e-01  -1.32549390e-01   8.07643100e-02
C     1.314811551150000e+00   8.273043358876296e-01   3.404943328000000e+00 -1.14877999e+00   1.46267063e+00   3.04225770e-01
C     2.531077886925000e+00   1.574074040461923e+00   3.367796424000000e+00  1.13699431e+00  -2.08918125e+00   8.06301900e-01
C     6.106188566325000e+00   6.295097220733721e+00   1.356844120000000e+01  8.63206090e-01  -1.33190698e+00   1.66199530e-01
C     3.658863084675000e+00   5.751307266903198e-01   1.354199028800000e+01  9.07164360e-01   1.59291180e-01   4.04873710e-01
C     3.805302276375000e+00   8.888384307264463e-01   3.468041616000000e+00 -1.08744344e+00  -1.83242314e+00  -4.41932800e-01
C     5.030382638699999e+00   1.607232533830123e+00   3.473519424000000e+00 -9.42515100e-01  -2.85685120e-01   4.63474790e-01
C     8.638775624850000e+00   6.305378808429902e+00   1.354215974400000e+01 -9.25984930e-01  -9.17243840e-01   5.93758970e-01
C     6.149104968150000e+00   6.719161623234060e-01   1.359076152000000e+01 -3.49223730e-01  -3.61661790e+00  -4.10642210e-01
C     6.218210281800000e+00   8.935966021886905e-01   3.506902256000000e+00  1.70140180e+00  -1.14186016e+00  -2.52808130e-01
C     7.475844284550000e+00   1.583477732490654e+00   3.439905256000000e+00 -5.67432970e-01  -1.49341570e-01   6.77846800e-02
C     1.193510441775000e+00   2.052789369538308e+00   1.350976590400000e+01  9.72002680e-01  -3.25976475e+00   2.16994830e-01
C     2.421103218375000e+00   2.706944219283104e+00   1.342939262400000e+01  1.52275583e+00  -1.53500310e-01   8.53959210e-01
C     2.538334156725000e+00   2.958186329174677e+00   3.435744336000000e+00  1.43131830e-01   8.19869100e-01  -3.62408310e-01
C     3.776464105800000e+00   3.654594999300445e+00   3.454038512000000e+00 -4.26985500e-02   2.07738387e+00   9.02411710e-01
C     3.670481701950000e+00   1.994364029549892e+00   1.356959325600000e+01  3.57729830e-01   7.70717000e-01  -1.11197043e+00
C     4.925167170300000e+00   2.750644889599807e+00   1.358783384800000e+01 -1.21614346e+00  -4.97049360e-01   4.59569510e-01
C     5.042585645850000e+00   3.012952660477360e+00   3.526304288000000e+00 -9.16248180e-01   1.10056761e+00  -1.15913621e+00
C     6.242102121749999e+00   3.811253905709250e+00   3.444550744000000e+00 -5.24293690e-01  -4.84178765e+00   4.42540940e-01
C     6.154618606200000e+00   2.062515836163183e+00   5.712761600000000e-02 -7.33205310e-01  -8.77958090e-01  -1.70706200e-01
C     7.396037851275000e+00   2.701825680231078e+00   8.249719200000000e-02 -1.11874745e+00   1.47131751e+00  -8.96723890e-01
C     7.441632722100000e+00   3.024013454227366e+00   3.415378336000000e+00  1.65621384e+00  -1.11087110e-01   2.43827320e-01
C     8.719889198324999e+00   3.673810142455853e+00   3.440455784000000e+00 -9.50764150e-01   1.04206761e+00  -4.40075720e-01
C     2.464201906950000e+00   4.114220900803213e+00   1.344307803200000e+01 -4.38083790e-01   1.55249460e-01   8.93892670e-01
C     3.664732496175000e+00   4.828236540893166e+00   1.354873860800000e+01  5.75570400e-01   1.43902973e+00  -4.99490790e-01
C     3.744159787800000e+00   5.119333180001040e+00   3.537110440000000e+00 -3.79526530e-01  -4.62954510e-01  -6.09865250e-01
C     4.973345299500000e+00   5.816841269073636e+00   3.494594528000000e+00 -3.81535440e-01   1.32273655e+00  -1.57414040e-01
C     4.913178137475000e+00   4.183994585719549e+00   6.393088000000000e-03 -7.43683720e-01  -2.13553537e+00   5.13635400e-02
C     6.128230399125000e+00   4.831135364170916e+00   7.951280800000000e-02  1.46663798e+00   1.82949537e+00  -9.01347350e-01
C     6.202612119225000e+00   5.163529667961265e+00   3.463762784000000e+00  1.54528251e+00   5.93978580e-01   8.39337700e-02
C     7.477495551075000e+00   5.786820862056835e+00   3.478132952000000e+00 -2.68347950e-01   3.82296217e+00  -5.44069870e-01
C     7.370085394575000e+00   4.080077560661302e+00   2.803259200000000e-02  1.30279066e+00   3.70669982e+00   5.53862080e-01
C     8.669544112274998e+00   4.827129757049800e+00   1.358456971200000e+01 -2.79976412e+00   1.23565000e+00  -8.58196840e-01
C     8.708591043375000e+00   5.113148011802431e+00   3.421780808000000e+00 -3.95461600e-01  -5.14298860e-01   8.67920860e-01
C     9.896895996749999e+00   5.871551435034886e+00   3.514560824000000e+00  1.42966350e+00  -8.61264270e-01  -3.31712410e-01
C     7.406979197475000e+00   1.110598859772402e-01   7.040014840000000e+00  6.72298260e-01  -6.70061400e-02  -7.80616810e-01
C     1.252217091300000e+00   8.114522606622433e-01   6.913003896000000e+00  8.49602830e-01  -6.15654000e-01  -2.54488340e-01
C     1.161715047675000e+00   5.924390020679130e-01   1.007741653600000e+01 -1.26630750e+00  -4.36996180e-01  -3.11902830e-01
C     2.368428448500000e+00   1.306972234278110e+00   1.006581138400000e+01  9.36331480e-01  -1.13530500e-01  -3.27671800e-02
C     2.509276946250000e+00   7.027558660482361e-02   6.850414248000000e+00 -9.11718770e-01   1.48505306e+00  -7.01400600e-02
C     3.681052521674999e+00   8.549588819657886e-01   6.803118752000000e+00  1.33740590e+00  -4.59934460e-01   2.49510090e-01
C     3.612614089125000e+00   5.823423052961515e-01   1.011840462400000e+01  9.60208310e-01   6.87738840e-01   3.63227980e-01
C     4.889596221974999e+00   1.309296531583240e+00   1.013563201600000e+01 -3.51457778e+00  -8.89610790e-01  -7.28909760e-01
C     4.905920240775000e+00   7.722888149116140e-02   6.905751560000001e+00  5.36854800e-01   1.98572203e+00  -2.72817560e-01
C     6.163176506925000e+00   7.511488080138042e-01   6.955090864000000e+00 -2.65286600e-01   2.76895924e+00   1.12213270e-01
C     6.041735151375000e+00   5.811327971567118e-01   1.012677488000000e+01  1.75619581e+00  -1.35950516e+00   9.53360000e-02
C     7.281176012100000e+00   1.246889024057477e+00   1.005216800000000e+01  1.20612185e+00   1.04703226e+00   7.07114230e-01
C     1.286391974550000e+00   2.220054175261323e+00   6.820460384000000e+00 -4.86603990e-01   8.88284850e-01   9.27583890e-01
C     2.509290922800000e+00   2.999400354249499e+00   6.828339000000001e+00 -7.44454840e-01   1.54973570e-01  -5.06026360e-01
C     2.366418154725000e+00   2.738104520156405e+00   1.000149276800000e+01  4.77754560e-01  -7.34222550e-01   1.82916310e-01
C     3.618587548275000e+00   3.422397935475519e+00   9.990856208000000e+00 -3.80781860e-01  -2.89605800e-02   3.06396250e-01
C     3.727037589675000e+00   2.321359223751368e+00   6.761661600000000e+00 -3.39518890e-01  -3.12348199e+00   5.67286850e-01
C     4.979733174450000e+00   2.942614312145508e+00   6.819239239999999e+00 -2.60450320e-01   1.51243221e+00   1.94491230e-01
C     4.853727957675000e+00   2.691564137862000e+00   9.998224823999999e+00 -3.34386690e-01   1.60981443e+00   7.84250820e-01
C     6.049754474250000e+00   3.410300996846344e+00   1.007862027200000e+01  1.85066526e+00   1.47349111e+00   3.77941140e-01
C     6.184217463450000e+00   2.226561413587711e+00   6.926860800000000e+00  2.91245590e-01  -1.55836026e+00  -4.92826960e-01
C     7.419576875775000e+00   2.926154152636315e+00   6.922571632000000e+00  1.00826725e+00  -1.26729281e+00  -5.14423960e-01
C     7.295006843624999e+00   2.657274844683459e+00   1.011385243200000e+01 -3.77712810e-01   2.07296126e+00  -8.14228560e-01
C     8.532108998624999e+00   3.426585039264388e+00   1.002721784800000e+01 -2.11114200e-01  -1.43515151e+00   9.21927520e-01
C     9.914099909625000e+00   4.445184173174746e+00   6.897836496000000e+00 -7.41939120e-01  -2.21665631e+00   3.45311920e-01
C     3.733193705325000e+00   5.108638261502576e+00   7.003267367999999e+00  1.60109947e+00  -5.05126650e-01  -9.90778530e-01
C     3.618961513424999e+00   4.828628097218726e+00   1.006960102400000e+01 -3.68921240e-01   1.57046872e+00  -2.10490540e-01
C     4.864662241650000e+00   5.583400434329719e+00   1.005210924800000e+01 -6.44055070e-01  -3.85382460e-01   7.93017010e-01
C     4.978759881524999e+00   4.374257273545560e+00   6.853372928000000e+00  5.44472230e-01   2.55975360e-01   4.64687900e-01
C     6.257697807000000e+00   5.053513035589418e+00   6.845080872000000e+00 -1.73969867e+00  -1.19400450e-01   4.38742070e-01
C     6.095135333775000e+00   4.921018610895388e+00   1.014488912800000e+01 -1.73393480e-01  -3.60031962e+00  -6.71962950e-01
C     7.347072561299999e+00   5.566911519702733e+00   1.017693168000000e+01 -8.50285730e-01   5.11925480e-01  -1.84239960e-01
C     7.466934196950000e+00   4.313021489037862e+00   6.893236568000000e+00 -4.72298300e-01   1.94944580e+00  -2.08755090e-01
C     8.670827329650001e+00   5.095133538910615e+00   6.922632016000000e+00 -1.00129162e+00  -1.14007616e+00  -2.41838800e-01
C     8.572379506424999e+00   4.820131696401021e+00   1.014568853600000e+01 -2.19353734e+00   7.92294250e-01  -1.85207050e-01
C     9.728291105999999e+00   5.560264540469840e+00   1.014029708800000e+01  3.17211273e+00  -7.25743740e-01  -2.39569250e-01
