72
Lattice="7.395 0 0 3.6975 6.40425786098592 0 0 0 13.6 " PBC="1 1 1" Properties=species:S:1:pos:R:3:force:R:3 Energy="-572.83178573"
C     3.756231237899999e+00   6.274905684424978e+00   1.320102332800000e+01 -2.78604878e+00   1.04264346e+00   9.71359330e-01
C     1.192751345025000e+00   6.521749734273775e-01   1.330795441600000e+01  9.91798810e-01  -8.00823230e-01  -7.07879890e-01
C     1.327506991350000e+00   8.910306722345028e-01   3.866893304000000e+00  6.53762180e-01   5.52016390e-01  -1.05486747e+00
C     2.599063264800000e+00   1.591412864149508e+00   3.845800112000000e+00 -2.55822625e+00   2.39057661e+00  -3.70726180e-01
C     6.058086716549999e+00   6.347763852054425e+00   1.323668824000000e+01  5.27707983e+00  -2.87298107e+00   3.92512200e-02
C     3.700375730625000e+00   6.409397276932650e-01   1.331346404800000e+01 -9.18674500e-02  -1.42030495e+00  -5.46840470e-01
C     3.753126558075000e+00   8.588524145743542e-01   3.703119112000000e+00  1.66622171e+00   1.89216803e+00  -4.27598530e-01
C     4.955688479850000e+00   1.586117823750861e+00   3.565401160000000e+00  3.47841581e+00   1.50373896e+00   1.54724191e+00
C     8.669000616749999e+00   6.241596626954490e+00   1.328021640000000e+01 -2.28538681e+00   1.58568191e+00   2.72966500e-01
C     6.227164591499999e+00   6.127850090762401e-01   1.318442901600000e+01 -2.99968650e+00  -1.70516731e+00  -2.18406360e-01
C     6.280654586174999e+00   9.610574534214654e-01   3.664593168000000e+00 -8.79940810e-01  -3.68836034e+00  -1.70720360e-01
C     7.530865007250000e+00   1.654136806056135e+00   3.821657392000000e+00 -2.38304451e+00  -2.33251619e+00  -6.87498290e-01
C     1.209100765650000e+00   2.062917383131004e+00   1.331392046400000e+01 -7.52083770e-01  -8.20891500e-01  -3.87170110e-01
C     2.410219627125000e+00   2.726595172185885e+00   1.351269262400000e+01  2.48381326e+00   1.50389875e+00  -1.19568022e+00
C     2.593572292425000e+00   3.111559467045830e+00   3.788166712000000e+00 -1.45584775e+00  -3.57819924e+00  -3.14573560e-01
C     3.864291895575000e+00   3.758022034589823e+00   3.609095512000000e+00 -3.39242844e+00  -1.40057007e+00   9.56538720e-01
C     3.716589379049999e+00   2.095646086754220e+00   1.332698421600000e+01 -2.59744561e+00  -3.48023776e+00   9.06045920e-01
C     4.901742324600000e+00   2.746518370090295e+00   1.309899803200000e+01  8.91791710e-01  -1.08740360e+00  -2.45597640e-01
C     5.015518097100000e+00   3.047338273694115e+00   3.682227880000000e+00  1.61213714e+00  -2.21956717e+00  -9.25221350e-01
C     6.270917404800000e+00   3.765124676769457e+00   3.730495096000000e+00 -1.71486935e+00  -2.80042364e+00  -2.64922750e-01
C     6.107239395825000e+00   2.008580777530727e+00   1.293180099200000e+01  2.53985597e+00   7.10390100e-02   1.48413853e+00
C     7.419671051100000e+00   2.742627271099716e+00   1.293490614400000e+01 -2.10016204e+00  -4.11355310e+00   1.36203735e+00
C     7.444199600549999e+00   3.022631927721807e+00   3.811510840000000e+00  2.34706085e+00   1.22427693e+00   8.92734900e-02
C     8.655429793425000e+00   3.731363414651473e+00   3.812556272000000e+00  2.94261745e+00   1.60075969e+00  -3.88874620e-01
C     2.408770576875000e+00   4.155801121342471e+00   1.349193956800000e+01  1.39420805e+00  -4.16822820e-01  -4.97583980e-01
C     3.703633080225000e+00   4.880806275792447e+00   1.334202785600000e+01 -1.26393945e+00  -1.25494100e+00  -6.78757510e-01
C     3.829058048325000e+00   5.116376398189657e+00   3.628732824000000e+00 -1.19358828e+00   2.87282339e+00  -2.21383420e-01
C     4.968738029624999e+00   5.889715895645783e+00   3.645921592000000e+00  4.27396950e+00  -6.83635670e-01   8.32475350e-01
C     4.885138072275000e+00   4.130160522233546e+00   1.303932558400000e+01  3.26345750e-01   1.67400989e+00   1.60069457e+00
C     6.108834312450000e+00   4.799957579673657e+00   1.300904423200000e+01  1.02476739e+00   3.30994568e+00   2.42077280e-01
C     6.287500988100000e+00   5.113380678490484e+00   3.683343488000000e+00 -1.62846175e+00   4.78940690e+00   6.14993100e-02
C     7.511086044450000e+00   5.894771480843046e+00   3.709958279999999e+00 -2.52501868e+00  -2.11956784e+00  -1.49371800e-02
C     7.394963505675000e+00   4.064835426954502e+00   1.294802688000000e+01 -1.66534040e+00   5.46593062e+00   2.07815860e+00
C     8.551556887274998e+00   4.772110649689383e+00   1.337326107200000e+01  1.66581556e+00   3.25251908e+00  -1.39607377e+00
C     8.679020287124999e+00   5.186297445079351e+00   3.741068144000000e+00  3.41654418e+00  -1.74783249e+00  -3.29955890e-01
C     1.000480239472500e+01   5.802562015536086e+00   3.672092072000000e+00 -2.63493664e+00   3.72416052e+00  -5.70745600e-02
C     7.377512636775000e+00   1.232670418841862e-01   6.486492800000000e+00  4.33886709e+00  -1.58630823e+00   2.69061162e+00
C     1.271354796675000e+00   8.650904179003086e-01   6.847651679999999e+00  1.65697500e-02  -3.33530912e+00  -1.56900340e-01
C     1.082122108050000e+00   5.658134921426988e-01   1.019855500000000e+01  3.10750049e+00  -3.02594597e+00  -1.05123486e+00
C     2.406328969725000e+00   1.218539616001508e+00   1.009052367200000e+01 -4.14398007e+00   1.59241473e+00   1.63818846e+00
C     2.539727892375000e+00   8.578189594834860e-02   7.116580935999999e+00 -3.43546687e+00   9.57831130e-01  -1.32485948e+00
C     3.744270601875000e+00   7.719726367010659e-01   7.245670912000000e+00  1.38069781e+00   2.05404530e+00  -1.27418757e+00
C     3.558678952425000e+00   5.101562004865327e-01   9.896371567999999e+00  1.77762701e+00   1.56764563e+00   5.26526650e-01
C     4.813039410525000e+00   1.213624604264272e+00   1.000335719200000e+01 -4.32732650e-01   1.58409715e+00   1.23034295e+00
C     5.008947232875000e+00   8.582608532758261e-02   6.940890288000000e+00 -7.40245070e-01   1.35487682e+00  -2.02682010e-01
C     6.222799286024999e+00   8.220836489227362e-01   6.650923328000000e+00 -3.00384060e+00   9.78388750e-01   1.61861048e+00
C     6.030229529700000e+00   5.680416615373500e-01   1.003203388000000e+01  2.19607140e+00  -1.44952836e+00   4.93412000e-02
C     7.297390178174999e+00   1.265845179025027e+00   1.021552712000000e+01 -2.42782603e+00  -3.45647120e-01  -2.14877980e-01
C     1.292127647475000e+00   2.229820604455244e+00   6.937633904000000e+00 -2.06597561e+00   2.44093930e+00   1.13590160e-01
C     2.488983550275000e+00   2.959126218058210e+00   7.155050984000000e+00  2.69373740e-01   1.43413340e-01  -1.13665622e+00
C     2.361032265300000e+00   2.658873411487894e+00   1.032293788000000e+01  2.06665250e-01  -4.35209640e-01  -1.22545980e+00
C     3.567143861024999e+00   3.414162444123030e+00   1.035873634400000e+01  8.46404740e-01  -3.30499542e+00  -4.58724210e-01
C     3.700729618350000e+00   2.270837378387979e+00   7.309179512000000e+00  2.75528431e+00  -1.39225735e+00  -1.50417656e+00
C     5.024095927349999e+00   2.984467290027023e+00   7.137547239999999e+00 -4.24221116e+00  -4.99576990e-01  -6.24739130e-01
C     4.859138620350000e+00   2.612954114120751e+00   1.032679647200000e+01 -2.20185527e+00   1.64160178e+00  -1.61532086e+00
C     6.086109699300000e+00   3.320142110863578e+00   1.021024175200000e+01 -2.28560678e+00   2.98996588e+00  -2.34548790e-01
C     6.173611887225000e+00   2.253825428021567e+00   6.860035160000000e+00  1.77451888e+00   6.26778990e-01   9.42577700e-02
C     7.403309317800000e+00   3.024562042955653e+00   6.845738568000000e+00  1.44306041e+00  -3.26759163e+00   2.50407560e-01
C     7.269112141875000e+00   2.663347233901154e+00   1.026515637600000e+01  2.52255260e+00   1.18499050e-01  -1.29127077e+00
C     8.512619439150001e+00   3.373359188147349e+00   1.018973036800000e+01  1.26735103e+00   8.75466060e-01  -4.89460750e-01
C     9.891380657850000e+00   4.369690461308172e+00   6.819347904000000e+00  6.89371620e-01  -1.71344818e+00   1.02715657e+00
C     3.714397796850000e+00   5.027033606785991e+00   6.700861984000000e+00 -1.12711711e+00   4.14491368e+00  -1.93140770e-01
C     3.504383531325000e+00   4.788770301830915e+00   1.026397494400000e+01  3.81529836e+00   7.03407690e-01  -3.91903130e-01
C     4.757269056675000e+00   5.473409547074469e+00   1.017237486400000e+01  1.92516978e+00   2.04104828e+00  -1.01183890e-01
C     4.918666040925000e+00   4.439629376077296e+00   6.959574376000001e+00  1.13557885e+00  -3.83551370e+00   3.93412230e-01
C     6.114614983950000e+00   5.083540295162129e+00   7.039667088000001e+00  4.68877980e+00   1.55792480e+00  -5.91603960e-01
C     6.055135446000000e+00   4.804109203873980e+00   1.005515034400000e+01 -9.01786480e-01  -5.48233640e-01   3.28231500e-02
C     7.256302633800000e+00   5.563707853750847e+00   9.768900263999999e+00  1.51697723e+00  -4.78721144e+00   1.91316895e+00
C     7.435652718375000e+00   4.391525970609578e+00   6.970784040000000e+00 -1.30231320e+00   1.08190761e+00   8.49163300e-02
C     8.715159726075001e+00   5.088357898137314e+00   6.884109200000000e+00 -2.82872089e+00   2.79602420e-01   3.95589100e-02
C     8.626562967224999e+00   4.796045154504404e+00   9.891923960000000e+00 -5.94742096e+00  -5.71939120e-01   7.36091140e-01
C     9.770449964025000e+00   5.523211233641502e+00   1.000063243200000e+01 -6.65028520e-01   1.39084053e+00   3.03862020e-01
