72
Lattice="7.395 0 0 3.6975 6.40425786098592 0 0 0 13.6 " PBC="1 1 1" Properties=species:S:1:pos:R:3:force:R:3 Energy="-573.11420288"
C     3.686402212575000e+00   6.283019046580076e+00   1.312448810400000e+01  8.54993480e-01  -2.00675500e-02   1.23825023e+00
C     1.331567770725000e+00   5.875961022741810e-01   1.318506114400000e+01 -3.62222047e+00   1.37764360e+00   4.31077330e-01
C     1.337961524700000e+00   9.191566357337365e-01   3.781534808000000e+00 -3.43009620e-01  -1.23345174e+00  -4.80817680e-01
C     2.511407371800000e+00   1.695392394764469e+00   3.731805048000000e+00  1.51849471e+00  -4.02601928e+00  -3.78065600e-02
C     6.283477590450000e+00   6.285598745688663e+00   1.324268733600000e+01 -6.23735443e+00   3.09876801e+00  -4.70041810e-01
C     3.710580867600000e+00   6.208724339870053e-01   1.314990337600000e+01 -1.42474661e+00   8.52936820e-01   1.66228715e+00
C     3.760854850725000e+00   9.189950563079287e-01   3.670377112000000e+00 -6.51892490e-01  -1.44828793e+00   1.23350880e-01
C     5.041410136650000e+00   1.530816416703974e+00   3.584406208000000e+00 -2.92432387e+00   8.96855360e-01   1.75678366e+00
C     8.526178097699999e+00   6.321692118306365e+00   1.328381577600000e+01  4.01857572e+00  -2.55061044e+00  -7.31510500e-02
C     6.068878055175000e+00   4.744966522962666e-01   1.320207515200000e+01  4.82324410e+00   4.83477331e+00  -4.54467000e-01
C     6.219307108200000e+00   7.875668124624301e-01   3.716080864000000e+00  8.85936020e-01   6.39888046e+00  -2.41916230e-01
C     7.434317920874999e+00   1.512658488436095e+00   3.766299816000000e+00  2.95723486e+00   2.97690603e+00  -5.41261130e-01
C     1.220706515625000e+00   2.033941766741485e+00   1.322241123200000e+01  1.73894570e-01   4.21022630e-01  -6.05431630e-01
C     2.457815104275000e+00   2.804666533798529e+00   1.326493571200000e+01 -3.92724610e-01  -2.53952957e+00   7.88936310e-01
C     2.500884730500000e+00   3.040080072091063e+00   3.718464536000000e+00  2.58775764e+00   2.98908362e+00  -5.90767380e-01
C     3.734114234925000e+00   3.746042870262693e+00   3.616011520000000e+00  2.65096409e+00   7.04309030e-01   1.84892118e+00
C     3.678495293700000e+00   1.976593879095436e+00   1.333854571200000e+01  6.43974920e-01   4.76603614e+00  -2.53079185e+00
C     4.939285778249999e+00   2.685592871875914e+00   1.306746398400000e+01 -1.01402778e+00   1.29278526e+00   2.19054003e+00
C     4.971265788525000e+00   2.941114114741803e+00   3.795030496000000e+00  4.74416810e-01   1.41106734e+00  -2.49630596e+00
C     6.211288266000000e+00   3.624219732355623e+00   3.752879064000000e+00  2.10179199e+00   2.76169815e+00  -4.33782500e-01
C     6.170425751474999e+00   1.937439463348389e+00   1.307861707200000e+01 -2.46618326e+00   4.12907320e-01   2.17726110e-01
C     7.318345537575000e+00   2.714355994989639e+00   1.303954427200000e+01  3.20529794e+00   1.34143522e+00   7.82208630e-01
C     7.545871347975000e+00   3.011777671287786e+00   3.695417976000000e+00 -4.02695273e+00  -1.57003799e+00   9.05900510e-01
C     8.746234847175000e+00   3.791543969591578e+00   3.739351280000000e+00 -2.60313443e+00  -2.05551091e+00  -6.29472270e-01
C     2.462606176875000e+00   4.211063590501568e+00   1.328166588800000e+01 -2.45658793e+00  -4.57683720e-01   2.85487560e-01
C     3.669973591500000e+00   4.873600012720639e+00   1.317972436800000e+01  1.25011296e+00   3.29661480e-01   3.48572920e-01
C     3.858844073025000e+00   5.247426086353051e+00   3.710347784000000e+00 -1.21394988e+00  -3.45121909e+00  -1.36031740e-01
C     5.154943981724999e+00   5.888333216373809e+00   3.696159992000000e+00 -5.71608507e+00   1.09423354e+00   3.27298400e-01
C     4.893466432199999e+00   4.175219919897827e+00   1.314249504800000e+01  1.04513084e+00  -1.08507053e+00  -1.06164400e-01
C     6.104566066349999e+00   4.970741845303634e+00   1.316232575200000e+01  1.64765290e+00  -5.79376590e+00  -8.36064870e-01
C     6.253504250399999e+00   5.116010266767800e+00   3.689351696000000e+00  1.51929234e+00  -2.51427263e+00   6.85544180e-01
C     7.427982365549999e+00   5.853974308912330e+00   3.769733136000000e+00  3.19336900e+00   9.07047710e-01  -1.41285692e+00
C     7.346438883750000e+00   4.253733175302811e+00   1.302767963200000e+01 -1.64778540e-01  -3.52396120e+00   2.34830188e+00
C     8.565500936250000e+00   4.932462315222843e+00   1.334778650400000e+01  8.25320100e-02  -2.76368802e+00  -2.01852686e+00
C     8.732706397199999e+00   5.162981143275555e+00   3.705185904000000e+00 -1.16904993e+00   1.87504391e+00   1.12711122e+00
C     9.959227527374999e+00   5.899784797938431e+00   3.812569872000000e+00  7.37335130e-01  -5.77901024e+00  -1.31479322e+00
C     1.080066002250000e-01   8.208907278111541e-02   6.684541168000000e+00 -3.82156782e+00   1.20725219e+00   8.18024530e-01
C     1.263959907600000e+00   7.982397643564344e-01   6.875255055999999e+00 -9.21496100e-01   3.10077741e+00  -2.99099820e-01
C     1.155472780275000e+00   4.935880011472410e-01   1.027774916000000e+01 -2.58844239e+00   3.14084628e+00  -1.16169514e+00
C     2.287174333050000e+00   1.218791367377984e+00   1.012408289600000e+01  5.34281168e+00   1.75834700e+00  -2.84467190e-01
C     2.455906528725000e+00   1.832649473901246e-01   6.995215895999999e+00  4.02156449e+00  -3.53490894e+00  -8.07427100e-02
C     3.798841560675000e+00   7.658536244861502e-01   7.026273535999999e+00 -9.39726400e-01  -9.26671330e-01   2.35529460e-01
C     3.603523304700000e+00   5.257268085789720e-01   9.915196280000000e+00 -1.70021247e+00  -7.14577700e-02   2.98196309e+00
C     4.825027740824999e+00   1.276589090096120e+00   1.020153911200000e+01  1.01459150e-01  -1.58824583e+00  -2.06199306e+00
C     5.078426067974999e+00   9.220933722180180e-02   7.015186136000000e+00 -1.66770662e+00   1.42680250e-01  -1.64709541e+00
C     6.269347335374999e+00   8.978607491996142e-01   6.785117928000000e+00 -5.21043490e-01  -2.71515415e+00   9.19930430e-01
C     6.112337693700000e+00   5.905678700489568e-01   1.011847724800000e+01 -2.11219194e+00  -1.15900692e+00   5.93715840e-01
C     7.316071427174999e+00   1.299357891895464e+00   1.025041071200000e+01  9.17013730e-01  -1.06461739e+00   6.30759700e-02
C     8.594998408049999e+00   2.249779538118513e+00   6.897484255999999e+00  2.75478670e+00  -9.07364870e-01   9.16725220e-01
C     2.510918488350000e+00   2.859176310531341e+00   7.104124696000000e+00 -1.23933766e+00   6.05736620e-01  -2.57969252e+00
C     2.380906475700000e+00   2.682761677561166e+00   1.021287253600000e+01 -4.00087060e-01  -1.05372194e+00  -2.16788730e-01
C     3.607217255100000e+00   3.359112660367464e+00   1.032287681600000e+01 -9.47602680e-01   2.06902302e+00  -1.32739253e+00
C     3.756852233025000e+00   2.122397376303804e+00   7.047622679999999e+00 -7.49486840e-01   3.92370564e+00   4.01969360e-01
C     4.910443799249999e+00   2.948803899282041e+00   7.037254312000000e+00  2.27255528e+00  -1.31798352e+00  -4.52789190e-01
C     4.801397535974999e+00   2.695832575725690e+00   1.026328243200000e+01  1.60553988e+00  -2.02315948e+00   2.19972120e-01
C     6.023259150600000e+00   3.390229924627947e+00   1.022535815200000e+01  2.02564422e+00  -1.40593769e+00   3.54875400e-01
C     6.212827202474999e+00   2.309432061998061e+00   6.895668111999999e+00 -1.01420110e+00  -1.20319718e+00  -2.19567000e-01
C     7.430231406899999e+00   2.999986343843689e+00   6.819841856000000e+00 -1.43484062e+00   1.93390014e+00   7.63254370e-01
C     7.353795688575000e+00   2.721083411701255e+00   1.028287989600000e+01 -1.34938590e+00  -1.27200590e-01  -1.44666168e+00
C     8.610189217049999e+00   3.448538386910417e+00   1.014088923200000e+01 -3.43024049e+00  -1.42293323e+00   1.09214048e+00
C     2.469081127950000e+00   4.253759688930352e+00   6.803502000000000e+00  3.44251110e-01   2.95993719e+00   1.46827239e+00
C     3.680327774700000e+00   5.095472452236567e+00   6.748009104000000e+00  1.30086232e+00  -3.41972790e+00   1.25474856e+00
C     3.621747653625000e+00   4.802612849024992e+00   1.023820240000000e+01 -1.94669094e+00   4.33914340e-01  -5.26476830e-01
C     4.855655279550000e+00   5.545112450628551e+00   1.020563339200000e+01 -2.55125450e+00  -3.17867682e+00   3.27315710e-01
C     4.926879445575000e+00   4.331812542237781e+00   6.998277391999999e+00 -6.80791030e-01   3.63713990e+00  -1.18654593e+00
C     6.169226541300000e+00   5.152619950654176e+00   6.974377840000001e+00 -2.65453199e+00  -7.14909530e-01   1.94578610e-01
C     5.995830393075000e+00   4.761650319156331e+00   1.019428840800000e+01  2.22998358e+00   1.82019439e+00  -8.57945130e-01
C     7.233030605774999e+00   5.449528581855158e+00   1.003132273600000e+01 -3.15630780e-01   3.47989915e+00  -3.64425900e-02
C     7.357324952325000e+00   4.484202242271953e+00   6.915272239999999e+00  2.70552351e+00  -3.29677466e+00  -5.54119600e-02
C     8.634046781175000e+00   5.063323269907102e+00   6.907573960000000e+00  2.18230625e+00   5.00654650e-01  -2.21345710e-01
C     8.449655636025000e+00   4.846374295748786e+00   1.009452275200000e+01  4.71541652e+00  -1.01307176e+00  -2.98416640e-01
C     9.750724578000000e+00   5.520723243505470e+00   1.007758436000000e+01  5.25812530e-01   1.42993037e+00   7.06715520e-01
