72
Lattice="7.395 0 0 3.6975 6.40425786098592 0 0 0 13.6 " PBC="1 1 1" Properties=species:S:1:pos:R:3:force:R:3 Energy="-573.58278802"
C     3.669131448900000e+00   6.170390501682608e+00   1.354583514400000e+01  1.55891620e+00   2.54032132e+00   8.41424450e-01
C     1.198464352275000e+00   6.226243187246082e-01   5.876043199999999e-02  3.78907780e-01  -4.05200371e+00  -9.39972300e-01
C     1.457410556325000e+00   9.832795877698794e-01   3.737168752000000e+00 -2.22998375e+00   4.86776120e-01  -5.03961430e-01
C     2.600431376775000e+00   1.819441012277889e+00   3.890114624000000e+00  3.46319100e-01  -2.22828789e+00  -5.15462420e-01
C     6.094278327225000e+00   6.199148117134572e+00   1.346548933600000e+01  1.97095959e+00   1.99080746e+00   7.99234260e-01
C     3.657364007250000e+00   5.538058929106705e-01   1.346679602400000e+01  5.29041040e-01  -3.26311800e-01   3.62066100e-01
C     3.779169862350000e+00   9.994209433228020e-01   3.763572880000000e+00  2.71519525e+00   9.56373900e-01  -1.16524694e+00
C     5.069695087275000e+00   1.691849239103424e+00   3.531861112000000e+00 -1.25455129e+00   6.46865290e-01   1.94973099e+00
C     8.677015909350001e+00   6.266577459418677e+00   1.333200098400000e+01 -4.18313776e+00  -2.04728833e+00   1.47193709e+00
C     6.192837999825000e+00   5.493145228308738e-01   1.346311205600000e+01 -7.76132190e-01  -1.27789886e+00  -1.31588410e-01
C     6.296837693250000e+00   1.028418398231624e+00   3.481932928000000e+00  1.02321143e+00  -5.44018730e-01   7.57188500e-02
C     7.561397187449999e+00   1.623426980680705e+00   3.678460544000000e+00  7.77149320e-01   4.54432135e+00   2.12801910e-01
C     1.215593982375000e+00   2.043730931050809e+00   1.043083280000000e-01 -1.47631039e+00  -3.55207267e+00  -4.13058520e-01
C     2.411611366125000e+00   2.735670517914134e+00   1.516186480000000e-01  1.77899357e+00  -4.01760198e+00  -1.30150000e-02
C     2.586858741675000e+00   3.263012224155084e+00   3.868130632000000e+00  2.95022265e+00  -4.38823507e+00  -1.03200629e+00
C     3.893591735999999e+00   3.786557678464361e+00   3.555118880000000e+00 -2.51367745e+00   4.36467445e+00   1.11462834e+00
C     3.632684710725000e+00   1.974919998218567e+00   1.196068320000000e-01  2.18121586e+00  -6.53313820e-01  -1.93317348e+00
C     4.940481253950001e+00   2.678913743268563e+00   1.348420130400000e+01 -1.64338675e+00  -2.82870430e+00   6.93542060e-01
C     5.119099825125000e+00   3.122676234009532e+00   3.668813792000000e+00 -2.77799216e+00  -2.28300044e+00  -1.55742020e+00
C     6.262621767750000e+00   3.844692201103354e+00   3.615460040000000e+00  4.72392202e+00  -1.47020618e+00   7.10889990e-01
C     6.205848134249999e+00   1.976999524788288e+00   1.344118368800000e+01 -6.47607036e+00  -4.16024666e+00   9.79871800e-02
C     7.325408834849998e+00   2.593931675084350e+00   1.350316990400000e+01  6.19253039e+00   4.31838992e+00  -2.12509140e-01
C     7.549811699775000e+00   3.169912887218478e+00   3.782270704000000e+00 -1.63799295e+00  -3.38668704e+00  -5.60024530e-01
C     8.755302965925001e+00   3.879679878601527e+00   3.836040072000000e+00  2.45836520e-01   1.51771330e-01  -1.08842430e+00
C     2.474689680825000e+00   4.052688855326911e+00   3.619490400000000e-02 -2.88393031e+00   4.72387233e+00  -1.71931700e-01
C     3.686547487350000e+00   4.740504164170976e+00   4.606061600000000e-02  5.32429340e-01   1.62587943e+00  -1.35732047e+00
C     3.893419691325000e+00   5.270556728721485e+00   3.408103288000000e+00  4.58112580e-01   4.19292110e-01   5.55049940e-01
C     5.181958656225000e+00   5.963947136160414e+00   3.499619048000000e+00 -2.87167394e+00   6.59616290e-01   6.24422610e-01
C     4.913437406174999e+00   4.035064081525878e+00   1.344572581600000e+01  6.88768570e-01   2.74581245e+00   1.04296352e+00
C     6.156028278075000e+00   4.778941687293173e+00   1.339126040000000e+01 -1.04769465e+00  -1.00532496e+00  -9.92715940e-01
C     6.334702459650000e+00   5.212184287902993e+00   3.610956536000000e+00  2.77082820e-01   2.03496866e+00   1.36494570e-01
C     7.531682524500000e+00   5.957206974975657e+00   3.701423192000000e+00  1.50557907e+00   1.44608000e-01  -8.64108450e-01
C     7.373233630949999e+00   3.965276947668036e+00   1.327279406400000e+01 -8.04402170e-01   5.24654776e+00   2.05514348e+00
C     8.546466576000000e+00   4.767901579296056e+00   1.347601886400000e+01  3.46210024e+00   7.63245450e-01  -1.16493693e+00
C     8.817719686949999e+00   5.222297379574876e+00   3.561807496000000e+00 -1.28468089e+00   5.43106844e+00   5.62932390e-01
C     1.004404928662500e+01   6.058827369122729e+00   3.406324272000000e+00 -4.92868330e-01  -5.56737767e+00   5.82684020e-01
C     7.424039610375000e+00   1.608600355223862e-01   6.950616463999999e+00  1.70515690e-01   1.87360430e-01   1.14569830e-01
C     1.228700436675000e+00   8.846558099180803e-01   7.043878872000000e+00  8.66928620e-01   1.79258709e+00  -7.92911100e-01
C     1.061191226100000e+00   4.133001899318293e-01   9.830571640000000e+00  2.50432286e+00   8.32680330e-01   7.36858600e-02
C     2.269187400600000e+00   1.145461077859098e+00   1.001858837600000e+01  2.15668935e+00  -6.09433900e-01   7.07886000e-03
C     2.474004053400000e+00   2.285235174738516e-01   6.922149080000000e+00  4.80451860e-01  -3.10172839e+00  -5.03579200e-02
C     3.787624639800000e+00   8.678580179345077e-01   6.878585151999999e+00 -2.16001818e+00  -4.77362210e-01   6.43868950e-01
C     3.579984095325000e+00   3.720820661319762e-01   1.003425244800000e+01 -2.62079612e+00   2.29034906e+00  -2.10506900e-01
C     4.797999755325000e+00   1.112055123967187e+00   9.937026864000000e+00 -8.08359410e-01  -3.11381190e-01   7.24846300e-02
C     5.021029960350000e+00   1.525337958360216e-01   6.923477800000000e+00 -3.05703300e-01   1.20034172e+00  -4.28031350e-01
C     6.261142915650000e+00   9.211183880014118e-01   6.973532464000000e+00 -2.70896783e+00  -1.59645940e+00  -5.34756520e-01
C     6.007576352249999e+00   4.934702268451956e-01   9.740694408000000e+00  1.24551466e+00  -3.27088596e+00   3.40821650e-01
C     7.286439994949999e+00   1.088485213552137e+00   9.646757711999999e+00 -2.97044829e+00   4.16173582e+00   1.51263105e+00
C     8.576820314850000e+00   2.348034174547261e+00   7.115605272000000e+00  2.49854958e+00  -3.03171550e-01  -4.55767810e-01
C     2.511607961175000e+00   3.007572891747224e+00   7.138182904000000e+00 -3.04432065e+00  -9.36943690e-01  -1.70118536e+00
C     2.298686795100000e+00   2.614187446099430e+00   1.005495192000000e+01  1.52492447e+00  -4.62713594e+00  -4.59729400e-02
C     3.556819553625000e+00   3.194610267229782e+00   1.001214755200000e+01 -7.58682500e-02   3.85491052e+00  -8.34807670e-01
C     3.694141819575000e+00   2.273232250614726e+00   6.946968400000000e+00  2.53081025e+00   1.46875175e+00   6.06061980e-01
C     4.942291808775000e+00   3.046515262516526e+00   6.965798688000000e+00 -8.18024310e-01  -2.98228923e+00  -3.82573440e-01
C     4.785924718650000e+00   2.483786125001782e+00   9.902164215999999e+00 -1.11843288e+00   2.99572854e+00  -2.64426680e-01
C     5.936487551699999e+00   3.264224358040245e+00   9.644776600000000e+00  3.27380565e+00  -7.13013400e-01   2.15471691e+00
C     6.206937417750000e+00   2.306863762468466e+00   6.998226120000000e+00 -8.48455230e-01   3.65100706e+00  -5.80179820e-01
C     7.398573005174999e+00   3.143555907825333e+00   7.044416480000000e+00  4.08300060e-01  -3.15719358e+00  -5.14958080e-01
C     7.249577288025000e+00   2.544970803531757e+00   9.708739575999999e+00  5.54500910e-01   7.73898100e-01   5.45269760e-01
C     8.541416382600000e+00   3.294194747803159e+00   9.901337744000001e+00 -4.67527151e+00   6.50227020e-01   1.98472400e-02
C     9.832877001075000e+00   4.409561513509753e+00   6.981061423999999e+00  2.48808171e+00  -5.05618300e-02   4.32547020e-01
C     3.645745057200000e+00   5.162877522383381e+00   6.948106040000001e+00  9.79331620e-01  -8.94588590e-01  -3.43529900e-01
C     3.476287522950000e+00   4.670284550779848e+00   9.777636767999999e+00  3.02367224e+00   6.48140660e-01   8.02280400e-01
C     4.784880063975000e+00   5.450042843761316e+00   9.715615600000000e+00 -1.72617571e+00  -3.86821803e+00   1.26968923e+00
C     4.875564616199999e+00   4.438946105806212e+00   6.956825952000000e+00  9.24940630e-01   1.40421920e-01  -4.68920790e-01
C     6.107716964925000e+00   5.108320994568192e+00   6.900039424000000e+00  2.35153958e+00   4.91983339e+00   1.10228980e-01
C     5.986465586925000e+00   4.696981019882151e+00   9.784400864000000e+00  2.19870310e-01  -7.56126500e-02   2.51614900e-02
C     7.253692457625000e+00   5.385300279777218e+00   9.945256632000000e+00 -1.06856371e+00  -5.88565300e-01  -1.89237930e-01
C     7.443810179849999e+00   4.557629812467732e+00   6.945276560000000e+00 -4.71438063e+00  -3.70971837e+00   5.65516000e-02
C     8.662149334125001e+00   5.123962625880298e+00   6.951699568000000e+00  6.13959060e-01   3.66547352e+00  -3.17842160e-01
C     8.497033293450000e+00   4.717080847218340e+00   9.949878320000000e+00 -9.80636670e-01  -5.80539100e-01  -4.63706650e-01
C     9.666188672475000e+00   5.462093991946793e+00   9.809439824000000e+00  1.87580688e+00  -1.29038453e+00   5.58546100e-01
