64
Lattice="9.86 0 0 4.93 8.53901048131456 0 0 0 30 " PBC="1 1 1" Properties=species:S:1:pos:R:3:force:R:3 Energy="-509.34485807"
C     4.983480640000000e+00   8.467086565507170e+00  -1.385322000000002e-01 -2.90257883e+00   5.59848999e+00  -2.30391200e-02
C     1.244047391100000e+00   6.618618617386776e-01  -1.831347000000001e-01  1.25181341e+00   4.64617330e-01   4.10018890e-01
C     1.187184721800000e+00   7.394409067020976e-01   3.504222600000000e+00 -1.18900920e-01   6.61076810e-01  -5.89316720e-01
C     2.430208398400000e+00   1.417690922744096e+00   3.496731300000000e+00  7.99165260e-01   1.21874422e+00  -9.10804000e-02
C     7.428739490300000e+00   8.515317202231040e+00  -9.706049999999777e-02 -4.82922930e-01  -1.75735191e+00  -7.30823920e-01
C     3.705638739800000e+00   6.375549706766240e-01  -9.290640000000039e-02  1.76790910e+00   3.53428975e+00   7.04943550e-01
C     3.607149319700000e+00   6.395162959937751e-01   3.447794700000000e+00  3.85787565e+00   3.62007655e+00   9.03960300e-02
C     4.972847270900000e+00   1.402505061116359e+00   3.467780700000000e+00 -3.74257844e+00  -2.26696160e-01  -1.44232090e-01
C     9.919535813900000e+00   8.495316277983735e+00  -5.764620000000065e-02 -2.64589546e+00   1.99457200e+00  -1.22232450e-01
C     6.184328462400000e+00   8.067021799124288e-01  -8.689559999999830e-02 -1.03170620e+00  -9.30444788e+00   2.60018620e-01
C     6.215740006700000e+00   7.364531923252504e-01   3.475355700000000e+00 -4.01624466e+00  -2.44654052e+00  -9.70625420e-01
C     7.390870829200001e+00   1.373970847526077e+00   3.408534000000000e+00  3.30003382e+00   1.92641652e+00   2.46644130e-01
C     7.374056521900000e+00   3.745611330020560e-02  -7.965779999999967e-02  2.08552935e+00  -1.02154750e+00   7.06212780e-01
C     8.626398243599999e+00   7.243751889518144e-01  -7.287000000000177e-02  5.12083570e-01  -1.12736210e+00  -3.33668210e-01
C     8.626811426900000e+00   7.194040332206728e-01   3.442161000000000e+00  1.85809553e+00   1.77034940e-01   1.70655620e-01
C     9.846135410299999e+00   1.484889775787818e+00   3.552844500000000e+00 -7.93237210e-01   9.56671830e-01  -1.03101431e+00
C     1.223123435800000e+00   2.100251602056608e+00  -1.654331999999989e-01  2.31401650e-01  -3.40120770e-01   1.35157932e+00
C     2.395695489700000e+00   2.888689094722631e+00   3.161640000000000e-02  2.59579222e+00  -6.83302719e+00  -7.04059070e-01
C     2.517887610300000e+00   2.894853235607934e+00   3.507683700000000e+00 -4.44326701e+00  -1.96705335e+00   3.34170910e-01
C     3.655070349400000e+00   3.622173102323776e+00   3.602891100000000e+00  4.32085350e+00  -7.91241967e+00  -1.02369692e+00
C     3.672158912600000e+00   2.168245010025494e+00   3.434010000000000e-02 -4.96220440e-01  -2.41420047e+00  -1.01293211e+00
C     4.872439587799999e+00   2.863766711785179e+00   4.740600000000000e-03  1.25723569e+00   4.63215380e-01  -2.21894480e-01
C     4.930891935599999e+00   2.810204402307702e+00   3.422558400000000e+00 -2.63896850e-01  -3.41450310e-01   7.12214880e-01
C     6.211445237200000e+00   3.397898553769720e+00   3.314535300000000e+00 -2.95078343e+00   5.26442340e+00   7.73020390e-01
C     6.146174403600000e+00   2.084682936589053e+00  -1.541958000000001e-01 -2.85595605e+00   7.90778683e+00   5.53227180e-01
C     7.310725692599999e+00   2.822918988912422e+00  -1.941759000000012e-01  4.46611062e+00   1.55305476e+00   7.92600710e-01
C     7.435479983499999e+00   2.778858292566356e+00   3.369235500000000e+00  6.31304800e-02   1.47732739e+00   3.43562170e-01
C     8.591077012100000e+00   3.634375433689801e+00   3.486076500000000e+00  1.32815493e+00  -8.57018890e-01  -4.11862890e-01
C     8.583212725399999e+00   2.139534295088591e+00  -4.502459999999786e-02  1.15796423e+00  -6.44508200e-01  -1.33067096e+00
C     9.894762169499998e+00   2.790297834126203e+00  -5.560769999999948e-02 -3.18805422e+00   2.03948345e+00   9.61129100e-02
C     9.842722913600001e+00   2.987282644477331e+00   3.485704500000000e+00  5.97229630e-01  -3.69384927e+00   5.24808870e-01
C     1.111029409550000e+01   3.635391746717131e+00   3.473544300000000e+00 -3.13701650e-01  -1.32558144e+00   5.70162370e-01
C     2.494798004600000e+00   4.175270428144816e+00   1.682850000000000e-01 -9.92991100e-01   7.94562291e+00   4.46756030e-01
C     3.709479899999999e+00   5.010463016523764e+00   5.193630000000000e-02 -1.97192607e+00  -1.34109042e+00   1.18402515e+00
C     3.699303344700000e+00   4.900375958662985e+00   3.652561200000000e+00  1.67709870e-01   8.48319011e+00  -1.11500930e+00
C     4.920752601799999e+00   5.680485012847445e+00   3.500388000000000e+00  5.66505820e-01  -1.65032468e+00  -5.13510130e-01
C     4.893247392299999e+00   4.353452166638775e+00   6.091710000000001e-02  3.28435726e+00  -4.07356725e+00  -7.03741260e-01
C     6.180577817000000e+00   4.975669622861537e+00  -1.406850000000048e-02  5.38834440e-01   1.62986173e+00  -1.65625949e+00
C     6.085536488200001e+00   4.911611844822883e+00   3.351279600000000e+00  4.22169880e+00   1.17293595e+00   6.27394070e-01
C     7.386758124600000e+00   5.790974001931518e+00   3.406751100000000e+00 -1.27924828e+00  -4.75923382e+00  -3.66476290e-01
C     7.465029762600000e+00   4.261904325211333e+00  -1.980488999999999e-01 -3.35076336e+00  -1.45711170e-01   6.66772110e-01
C     8.707772379900000e+00   4.995062142612142e+00  -1.782935999999999e-01 -1.88307399e+00  -5.42052997e+00   9.52574900e-01
C     8.666582722899999e+00   5.060115740052974e+00   3.494148600000000e+00 -5.54356019e+00  -1.36220076e+00  -7.32335760e-01
C     9.831412458299999e+00   5.716939158657927e+00   3.422859000000000e+00  2.78969506e+00   1.04645165e+00  -1.84150680e-01
C     9.883127517399998e+00   4.248931348149488e+00   6.159180000000001e-02  2.04780609e+00  -4.72337980e-01  -3.32864080e-01
C     1.113553229380000e+01   4.940389505601950e+00   2.789487000000000e-01 -1.46135600e+00   1.24662346e+00  -1.54591231e+00
C     1.106542877840000e+01   5.029587325955192e+00   3.478577100000000e+00  2.87860529e+00   1.25810260e-01  -9.39869900e-02
C     1.238205178410000e+01   5.646580786346500e+00   3.499366500000000e+00 -2.83941290e+00   3.70706710e+00  -1.91348880e-01
C     1.355284164300000e+01   6.396317775715068e+00   4.584810000000000e-02 -1.83342470e-01   1.81180119e+00  -5.33587090e-01
C     4.913063231500000e+00   7.143274292491137e+00  -1.521101999999992e-01  5.31402410e-01  -4.32623260e+00   7.75492180e-01
C     4.988527924700000e+00   7.106930897646580e+00   3.379578900000000e+00 -3.50750478e+00  -6.79541340e-01   6.21383570e-01
C     6.113333455099999e+00   7.855604694820283e+00   3.357732600000000e+00  2.53305650e+00   7.78092020e-01   5.19896060e-01
C     6.147385803200000e+00   6.438098129312450e+00  -1.647527999999987e-01  1.61266176e+00  -2.36468954e+00   7.54456710e-01
C     7.454989373899999e+00   7.056222496251729e+00  -1.338489000000003e-01 -4.17378363e+00   1.97757517e+00  -3.40253050e-01
C     7.354595346900000e+00   7.157797612295731e+00   3.359353500000000e+00 -3.92774900e-01  -6.42707400e-02  -1.95595300e-02
C     8.587778250500000e+00   7.816202114081161e+00   3.355439400000000e+00  6.24525270e-01  -5.97247320e-01   4.92659200e-02
C     8.594419650699999e+00   6.309494227225789e+00  -1.046241000000023e-01  3.27920455e+00   5.05663958e+00   3.68562890e-01
C     9.828390910600000e+00   7.089913418270884e+00   4.033800000000001e-03  1.59078352e+00  -3.93204740e-01   3.35557720e-01
C     9.828980390700000e+00   7.101933356373055e+00   3.300063300000000e+00  9.10736070e-01   2.43369766e+00   1.01382991e+00
C     1.107490842890000e+01   7.856531006677153e+00   3.375896100000000e+00  1.39812899e+00  -1.44590844e+00  -1.61031870e-01
C     1.107368766230000e+01   6.435560420787898e+00   1.966398000000000e-01  1.34100164e+00  -2.67939865e+00  -4.05347450e-01
C     1.234178655140000e+01   7.117520722273562e+00   9.632370000000000e-02 -1.97908774e+00   1.41008496e+00  -4.10241620e-01
C     1.237472141640000e+01   7.188724115062089e+00   3.353421900000000e+00 -1.26222620e+00  -3.60007634e+00   9.31887960e-01
C     1.361686459500000e+01   7.847769213413730e+00   3.388594800000000e+00 -7.84282270e-01  -9.48770800e-02   1.53180280e-01
