64
Lattice="9.86 0 0 4.93 8.53901048131456 0 0 0 30 " PBC="1 1 1" Properties=species:S:1:pos:R:3:force:R:3 Energy="-505.52897149"
C     5.099755035099999e+00   8.466184077489538e+00  -5.737698000000009e-01 -3.50028302e+00  -1.97277528e+00   1.07455208e+00
C     1.357666586800000e+00   5.434711285267264e-01  -4.391117999999992e-01  1.88984875e+00   4.09855635e+00   7.02762600e-01
C     1.146326360800000e+00   7.996375149819056e-01   3.524255700000000e+00 -1.54959657e+00   7.02240680e-01  -1.32747630e-01
C     2.278423755600000e+00   1.550139172738957e+00   3.712094100000000e+00  2.43029214e+00   1.55992599e+00   1.37851007e+00
C     7.569325490199999e+00   8.433601006690060e+00  -6.317799000000015e-01 -2.72362263e+00  -1.22008880e-01   4.31041250e-01
C     3.762699890900000e+00   6.713142047796183e-01  -5.572845000000015e-01  2.32314714e+00  -8.74212290e-01   4.18155080e-01
C     3.529677672800000e+00   8.321398921323488e-01   3.686763000000000e+00 -1.45625039e+00   8.63010070e-01   4.62353900e-02
C     4.784684651099999e+00   1.403889917836006e+00   3.750692400000000e+00  2.13256771e+00   4.18003922e+00  -3.99063250e-01
C     4.984965851800000e+00   3.683746199092960e-02  -4.800944999999999e-01  2.97518790e+00  -4.83650913e+00  -2.66401040e-01
C     6.263546808300000e+00   6.983481996186697e-01  -4.567040999999996e-01 -5.02571560e-01  -2.79408006e+00   7.14405090e-01
C     5.993255417100000e+00   7.249002527062296e-01   3.566189700000000e+00  3.92649156e+00   2.77808618e+00  -1.31956930e-01
C     7.319784863400000e+00   1.455898895917066e+00   3.446456100000000e+00 -2.44464322e+00   3.21839609e+00  -4.60417560e-01
C     1.238148374950000e+01   8.399488428333402e+00  -2.806850999999995e-01  1.31061089e+00   4.13259695e+00  -1.25460123e+00
C     8.719056016000000e+00   6.749450774258191e-01  -4.774560000000001e-01  8.68372220e-01  -5.30883094e+00   6.67919680e-01
C     8.595348906400000e+00   8.561683260626496e-01   3.354317100000000e+00 -2.70055025e+00  -4.93849950e-01   7.26564650e-01
C     9.798415179499999e+00   1.541979379714373e+00   3.543903300000000e+00 -8.99441700e-01   1.34815940e-01  -5.51556980e-01
C     1.324817060100000e+00   2.007723653006271e+00   4.405980000000000e-02  2.77534390e+00  -1.86335392e+00  -2.18138178e+00
C     2.650533746600000e+00   2.684940363390085e+00   1.860030000000000e-01 -3.85318088e+00   1.37612014e+00  -9.30358200e-02
C     2.258245660000000e+00   3.013643765290558e+00   4.109815200000000e+00  1.34435799e+00  -4.16432859e+00  -1.03087593e+00
C     3.545040883900000e+00   3.601335781999956e+00   4.117002000000000e+00  2.23149273e+00   1.02035620e+00  -1.71240753e+00
C     3.812141579100000e+00   2.021466678033203e+00  -2.775488999999993e-01 -2.75557956e+00   1.51099508e+00   1.78493479e+00
C     4.928407166300000e+00   2.777934200852211e+00  -2.341917000000002e-01  6.25948460e+00   4.78923400e-02  -1.41691412e+00
C     4.914761567199999e+00   2.869635744468293e+00   3.818625000000000e+00 -6.40350735e+00  -8.00459270e-01   1.44173017e+00
C     6.031204338599999e+00   3.614813841531693e+00   3.652874100000000e+00  2.95141885e+00  -4.52016760e-01  -1.58922986e+00
C     6.306628254200000e+00   2.080928846021626e+00  -4.753470000000029e-01 -1.41775496e+00   1.86398110e+00   5.07947830e-01
C     7.552165096900000e+00   2.773245088637223e+00  -4.549007999999972e-01 -1.58482938e+00   1.49330000e+00  -6.20401720e-01
C     7.269851161200000e+00   2.921252184237587e+00   3.389435700000000e+00  1.14080875e+00  -9.64427540e-01   1.29163503e+00
C     8.533541545700000e+00   3.672568036643906e+00   3.509231700000000e+00 -1.89002070e+00   1.41766420e-01  -1.89430650e-01
C     8.784791502099999e+00   2.028883150195501e+00  -4.523547000000008e-01 -1.38027897e+00   2.38458838e+00   7.72570360e-01
C     9.995603446099999e+00   2.725552153403279e+00  -1.216650000000001e-01 -2.36695400e-02  -1.58067375e+00   5.98618350e-01
C     9.701427190900000e+00   2.939346091274393e+00   3.714964800000000e+00  2.26366874e+00   8.94236790e-01   1.12895064e+00
C     1.089397235100000e+01   3.669369579488413e+00   4.185056400000000e+00 -7.08158180e-01   1.93788210e-01  -1.24880086e+00
C     2.564627412000000e+00   4.133948277849790e+00   4.676682000000000e-01  7.89260020e-01   4.97652810e-01  -1.65550658e+00
C     3.835416651400000e+00   4.925658687842693e+00   3.521748000000000e-01 -3.28101990e-01  -1.31442528e+00  -1.97850260e+00
C     3.543929908400000e+00   5.023841425803200e+00   3.926881500000000e+00  2.23278801e+00   1.58929196e+00   7.02572910e-01
C     4.871076738600000e+00   5.779934086062136e+00   3.724697100000000e+00 -2.45310345e+00  -1.15161459e+00  -3.52129390e-01
C     4.997053373700000e+00   4.172967200848046e+00  -1.229820000000004e-01  9.98174930e-01   1.64556720e+00   3.44396530e-01
C     6.289198732199999e+00   4.897960870328926e+00  -5.033984999999994e-01 -3.61361072e+00  -2.29328700e-01   1.18366164e+00
C     6.113581582000000e+00   5.004247983136002e+00   3.510585000000000e+00 -2.92887312e+00   2.77452298e+00   9.96429950e-01
C     7.311401250499999e+00   5.737927704857348e+00   3.376744200000000e+00 -6.97969440e-01   2.41344161e+00  -4.76579670e-01
C     7.490598024400001e+00   4.274563237467722e+00  -5.352254999999992e-01  2.99900175e+00  -5.31450663e+00   1.57428674e+00
C     8.773686331999999e+00   4.841247495204120e+00  -2.654034000000003e-01 -7.57472640e-01   4.29051480e-01  -1.34356564e+00
C     8.536346469200000e+00   5.136223001170061e+00   3.509758500000000e+00  2.53167949e+00  -2.48129242e+00   1.75030774e+00
C     9.773245360299999e+00   5.844320189053746e+00   3.898621200000000e+00 -2.89949583e+00   9.83469980e-01  -2.59932768e+00
C     9.954502923500000e+00   4.094774115641009e+00   6.692760000000000e-02 -1.34481940e-01   2.80854337e+00  -1.05455824e+00
C     1.115484478000000e+01   4.871664645995347e+00   2.091129000000000e-01  2.06588155e+00  -1.94854444e+00   6.47483990e-01
C     1.091181485910000e+01   5.091299523205095e+00   4.255865100000000e+00  1.30666799e+00   1.99155156e+00  -2.17805792e+00
C     1.219644053790000e+01   5.826809069482201e+00   3.983403300000000e+00  2.23399070e-01  -2.34851071e+00   1.08232903e+00
C     3.841279259499999e+00   6.317038784545288e+00   1.132110000000000e-01  4.62015710e-01   1.88569822e+00  -1.71902571e+00
C     5.148954265900000e+00   6.998542163580167e+00  -4.533392999999997e-01 -6.30806996e+00   1.71583025e+00   1.72486008e+00
C     4.728166490200000e+00   7.211356079218492e+00   3.637867500000000e+00  3.10590594e+00   9.85571260e-01  -2.33454629e+00
C     6.021444121799999e+00   7.941777570710984e+00   3.345366600000000e+00  3.19652470e-01  -2.69841015e+00   1.33069158e+00
C     6.265610210499999e+00   6.293352594155026e+00  -6.078086999999996e-01  4.76690520e+00   6.71726420e-01  -1.32303280e-01
C     7.621357893400000e+00   7.053184401713049e+00  -7.146009000000006e-01 -1.76347119e+00  -3.75100505e+00   4.61173800e-01
C     7.291660445900000e+00   7.189405784268708e+00   3.296209800000000e+00 -1.72392812e+00   1.37835638e+00   1.51222645e+00
C     8.470462836599999e+00   8.002749691922586e+00   3.558335100000000e+00  3.11505600e-01  -3.45539030e+00  -2.07861237e+00
C     8.839233985100000e+00   6.219530969973120e+00  -5.284118999999983e-01 -1.31924468e+00   2.70990186e+00   3.81630970e-01
C     1.002390559010000e+01   6.944162158459125e+00  -3.953115000000018e-01 -2.93551080e-01   3.52934002e+00  -2.70804630e-01
C     9.745385930299999e+00   7.323819714476065e+00   3.510747600000000e+00 -1.17902180e-01  -4.22243555e+00   3.02956888e+00
C     1.100862438170000e+01   7.907203544227988e+00   3.612727800000000e+00 -2.09154529e+00  -6.11974440e-01  -9.11757900e-02
C     1.123848927990000e+01   6.259169056621281e+00  -9.845849999999956e-02 -2.13982416e+00   6.23867590e-01   1.12608580e+00
C     1.238017932080000e+01   7.046223400369754e+00   2.038170000000000e-02  3.85864143e+00  -1.48174305e+00  -4.71546490e-01
C     1.221319982640000e+01   7.214350197853198e+00   3.758144100000000e+00  3.75715060e-01   1.23700729e+00  -1.17590434e+00
C     1.338673288520000e+01   8.023836607522735e+00   3.490663800000000e+00  2.12989991e+00  -5.23859574e+00   1.68465676e+00
