64
Lattice="9.86 0 0 4.93 8.53901048131456 0 0 0 30 " PBC="1 1 1" Properties=species:S:1:pos:R:3:force:R:3 Energy="-502.77874316"
C     4.971669986900000e+00   8.524773302436591e+00  -5.944332000000010e-01  4.66998012e+00  -1.48646426e+00   2.27741999e+00
C     1.361983738500000e+00   6.567089104744167e-01  -1.959386999999992e-01  2.00340400e-02  -5.09677385e+00  -5.29348901e+00
C     1.109196312300000e+00   7.871986530255848e-01   3.437592300000000e+00  1.05159100e-01   1.79802559e+00   7.30273140e-01
C     2.354120750400000e+00   1.502856963909101e+00   3.664845000000000e+00 -2.26957510e+00   1.36359654e+00   8.66593870e-01
C     7.529577365200000e+00   8.463362190696213e+00  -7.062959999999983e-01  1.97471158e+00   8.51709330e-01   3.16887949e+00
C     3.938083161900000e+00   7.122693484042136e-01  -6.216171000000017e-01 -4.64980745e+00  -2.11838086e+00   1.35801229e+00
C     3.519465375000000e+00   7.668108262134320e-01   3.662747400000000e+00  3.27198719e+00  -1.06433524e+00   7.32151320e-01
C     4.775850830600000e+00   1.514239806439360e+00   3.784059000000000e+00 -3.26114700e-01  -8.78152800e-01  -9.10511610e-01
C     1.009619018680000e+01   8.416956084341605e+00  -4.012802999999998e-01 -3.14326115e+00   3.39540475e+00  -2.17278452e+00
C     6.317222774899999e+00   6.308126533917208e-01  -4.253136000000026e-01  1.17955805e+00   1.45463994e+00   7.54149090e-01
C     6.025380726799999e+00   8.030608042833376e-01   3.514241100000000e+00 -6.91810210e-01  -7.83285160e-01   2.11246823e+00
C     7.287889045200000e+00   1.426817246364910e+00   3.454182600000000e+00  6.21099640e-01  -3.99843400e-01  -9.62192720e-01
C     1.250464634060000e+01   8.483071934686148e+00  -3.586245000000012e-01 -3.33336867e+00  -3.19672434e+00   1.48321658e+00
C     8.746447934099999e+00   6.059204131612632e-01  -3.757188000000014e-01 -1.25198437e+00   5.35811078e+00  -8.49070440e-01
C     8.524145557299999e+00   7.869218183058232e-01   3.238307700000000e+00  8.95107420e-01  -1.45524458e+00   2.92530153e+00
C     9.768995749600000e+00   1.548268617103208e+00   3.466775100000000e+00 -1.14776716e+00  -1.71457610e-01  -7.68402390e-01
C     1.331011900900000e+00   1.982343152156567e+00   1.258110000000000e-02 -1.32732394e+00   2.38713410e+00   7.82250300e-01
C     2.509538507400000e+00   2.670209716411037e+00   2.830734000000000e-01  3.40872645e+00   2.89375178e+00  -3.02279356e+00
C     2.312683262300000e+00   2.957279550304279e+00   4.033707900000000e+00  5.03760490e-01  -1.37192455e+00  -9.57001080e-01
C     3.589348519400000e+00   3.653467892612138e+00   4.060604100000000e+00 -1.85195903e+00   2.03645760e-01  -1.18466533e+00
C     3.690676337700000e+00   2.132733058631375e+00  -3.313856999999985e-01  4.94153395e+00  -1.96405434e+00   1.79552597e+00
C     5.078962809399999e+00   2.826915075036853e+00  -2.801583000000001e-01 -6.35494419e+00   2.31002313e+00  -8.91156000e-02
C     4.750185398499999e+00   2.939600212226277e+00   3.915972000000000e+00  4.64931326e+00  -1.54495953e+00  -1.43691926e+00
C     6.132189620499999e+00   3.558607427459084e+00   3.612816900000000e+00 -3.46139961e+00   1.69352319e+00   1.64097230e+00
C     6.197300475600001e+00   2.136328238213770e+00  -3.998847000000012e-01  4.77185352e+00  -3.66561421e+00  -4.77277870e-01
C     7.496683912200000e+00   2.816062334277192e+00  -3.959118000000004e-01 -2.25858800e-01  -4.70566286e+00  -3.87362450e-01
C     7.353282142799999e+00   2.790088030638709e+00   3.531166500000000e+00 -3.40283920e+00   4.80518765e+00  -1.12169485e+00
C     8.417659677200000e+00   3.684985209513608e+00   3.405058800000000e+00  5.60243397e+00  -1.98618842e+00   2.90770239e+00
C     8.723914925399999e+00   2.096118379423869e+00  -3.919916999999984e-01  4.10168070e-01  -2.08863405e+00   1.13375941e+00
C     9.966065203199999e+00   2.722883114897545e+00  -1.363506000000001e-01 -8.55012080e-01   9.61611680e-01   8.87829400e-01
C     9.748897865100000e+00   2.987688503645446e+00   3.705807900000000e+00 -2.74033234e+00  -1.61311102e+00  -1.85411966e+00
C     1.090398414570000e+01   3.663099640263263e+00   4.059534600000000e+00  9.62503710e-01  -4.09420560e-01   4.69509480e-01
C     2.616747766400000e+00   4.170153169944362e+00   3.055302000000000e-01 -1.15279899e+00  -5.48683340e-01   9.49902310e-01
C     3.850164894300000e+00   4.946106116947997e+00   2.425563000000000e-01  4.40873290e-01  -4.93494850e-01  -1.43080785e+00
C     3.603649216900000e+00   5.059282161849916e+00   3.788921700000000e+00 -2.23282436e+00  -9.75492800e-02   2.69724508e+00
C     4.793363078000000e+00   5.783754268570679e+00   3.765073800000000e+00  3.02119253e+00   1.41355900e-02  -1.50817786e+00
C     5.041733076300000e+00   4.317802139445194e+00  -2.305349999999997e-01 -1.84748253e+00  -4.53421007e+00   1.32874375e+00
C     6.227937566200000e+00   4.863932742785916e+00  -5.247440999999995e-01  4.82957781e+00   3.77335829e+00   7.29495480e-01
C     6.089954606299999e+00   5.040485238080293e+00   3.620682600000000e+00 -3.34613550e-01   1.22850740e-01  -8.77595420e-01
C     7.312626454100000e+00   5.851458118694188e+00   3.395837700000000e+00 -2.80254570e+00  -3.00168849e+00   1.46022592e+00
C     7.547325266600000e+00   4.123432315663461e+00  -5.090702999999976e-01 -2.58037660e+00   4.87372356e+00   6.94646080e-01
C     8.724039309300000e+00   4.848514961633543e+00  -2.658845999999997e-01  2.61900478e+00   1.06144603e+00  -9.71819180e-01
C     8.506583566200000e+00   5.087040179387566e+00   3.576143700000000e+00 -2.63427628e+00   9.63242280e-01  -1.38933804e+00
C     9.660561040499999e+00   5.833291203117779e+00   3.794331300000000e+00  3.50450926e+00  -4.25968120e+00   1.91959049e+00
C     9.963054550800001e+00   4.156063290311733e+00   2.983380000000000e-02 -3.20939700e-01  -1.21700452e+00  -6.85505770e-01
C     1.120536199700000e+01   4.825444860849412e+00   2.243571000000000e-01 -1.47451800e-02   2.70485424e+00  -1.83404552e+00
C     1.081599902730000e+01   5.059392144304899e+00   4.304235900000000e+00  3.39990996e+00   1.84994142e+00  -4.20966189e+00
C     1.217634709040000e+01   5.708960734215939e+00   3.954466500000000e+00 -8.42683560e-01   2.24874856e+00   6.87672970e-01
C     3.881196976500000e+00   6.391320661392067e+00   1.477521000000000e-01 -3.02787630e-01  -1.08502731e+00  -2.73972879e+00
C     4.916794304800000e+00   7.125254674845507e+00  -5.530152000000008e-01  5.28239848e+00  -3.39220874e+00   3.03070275e+00
C     4.844978748300000e+00   7.254250688293409e+00   3.598964700000000e+00 -1.56818866e+00  -4.62197449e+00   6.11686900e-02
C     5.999282046299999e+00   7.914468192783953e+00   3.384027600000000e+00  2.65137002e+00   2.14943806e+00   5.48953100e-01
C     6.392452109900000e+00   6.302980840811856e+00  -4.711538999999973e-01 -4.38209492e+00   5.84367700e-01  -1.69559324e+00
C     7.620767969599999e+00   6.963946960351181e+00  -6.351471000000011e-01 -2.51417048e+00   2.93291575e+00  -2.51391400e-01
C     7.232026525000000e+00   7.251467397827453e+00   3.447228900000000e+00  1.29437212e+00  -2.53754412e+00  -1.50169410e-01
C     8.491022415600000e+00   7.794381612090673e+00   3.625817700000000e+00  4.40558010e-01   6.02361599e+00  -1.43545310e+00
C     8.816779708500000e+00   6.271717815642479e+00  -5.217273000000020e-01 -1.30041800e-01  -1.23341260e-01   6.99088180e-01
C     1.001465222660000e+01   7.042400997718486e+00  -4.354380000000013e-01  9.90542870e-01  -3.36910761e+00   5.91294820e-01
C     9.776137101100000e+00   7.177199610347968e+00   3.634438500000000e+00 -1.88424459e+00   1.86857542e+00   1.05495261e+00
C     1.097889179820000e+01   7.928850533525522e+00   3.740335200000000e+00  8.35179390e-01  -9.05402480e-01  -1.50073959e+00
C     1.119573597480000e+01   6.265353947302049e+00  -1.923111000000013e-01  2.72608806e+00   1.63537710e-01   2.88456728e+00
C     1.250167769180000e+01   6.977587517252353e+00   6.756000000000001e-04 -3.86243915e+00   3.34597271e+00  -2.02964073e+00
C     1.223222957710000e+01   7.169669398566074e+00   3.759425100000000e+00 -5.75301840e-01  -1.04501960e-01   1.52514850e-01
C     1.349667553340000e+01   7.879258693141035e+00   3.570220800000000e+00 -3.01758468e+00   2.09309941e+00  -1.30474262e+00
