64
Lattice="9.86 0 0 4.93 8.53901048131456 0 0 0 30 " PBC="1 1 1" Properties=species:S:1:pos:R:3:force:R:3 Energy="-508.06378271"
C     1.696314893000000e-01   7.307249679249520e-02  -1.204926000000022e-01  1.11642211e+00  -1.61942668e+00  -1.76274750e-01
C     1.401952974000000e+00   7.830106953356688e-01  -1.469717999999993e-01 -4.61404230e-01  -3.21255450e-01   4.38764580e-01
C     1.071280027400000e+00   6.730123577937760e-01   3.888602700000000e+00 -6.85343700e-02   3.18277879e+00  -6.08444380e-01
C     2.337001867700000e+00   1.320056986987138e+00   3.749215800000000e+00 -4.27582850e-01   1.43968353e+00  -2.57272841e+00
C     2.640800496899999e+00   6.828945546222800e-02   5.261310000000000e-02 -1.81629875e+00   7.88783890e-01  -4.51174270e-01
C     3.852078473799999e+00   8.287895259804160e-01   1.818690000000000e-02  9.88699800e-02  -3.67482019e+00  -7.19675930e-01
C     3.515832458000000e+00   5.540909250804927e-01   3.400194300000000e+00 -7.48710430e-01   4.49297517e+00   1.66812737e+00
C     4.677149124700000e+00   1.405016725658946e+00   3.420962400000000e+00  1.56525391e+00  -9.19466990e-01  -1.05842109e+00
C     5.073027828900000e+00   9.721023005694000e-02  -4.645980000000094e-02 -4.99916880e-01  -2.66084734e+00   1.53629465e+00
C     6.319398531800000e+00   7.317863669276160e-01   1.161984000000000e-01  1.50255223e+00   1.15984162e+00  -2.21307198e+00
C     5.881687840900000e+00   7.123228026098184e-01   3.443631900000000e+00  5.25228253e+00  -8.13510000e-02   2.05609804e+00
C     7.259884623900000e+00   1.296749928662188e+00   3.757538100000000e+00 -4.83220453e+00   4.98837879e+00  -1.16791329e+00
C     7.635259704599999e+00   5.639094208908160e-02  -9.402359999999987e-02 -3.92681999e+00  -7.84553840e-01   5.52689520e-01
C     8.830151939100000e+00   7.995556258714024e-01  -1.644480000000001e-01 -2.74047660e-01  -1.66327397e+00   1.12324760e-01
C     8.459028293199999e+00   7.050631920700369e-01   3.881487900000000e+00  1.74697666e+00  -2.42051948e+00  -1.79382667e+00
C     9.699784169799999e+00   1.388794057378728e+00   3.775585200000000e+00  1.68507720e-01   2.20577250e+00   1.32503934e+00
C     1.363195138100000e+00   2.197446803455104e+00  -3.473168999999992e-01  1.45559519e+00  -5.44117700e-02   1.24953909e+00
C     2.637306211500000e+00   2.814118940882049e+00  -2.927730000000004e-01 -1.85802026e+00   4.76950548e+00  -1.22370335e+00
C     2.314273039400000e+00   2.780521435637546e+00   3.396282000000000e+00  1.29885275e+00  -2.93998351e+00   4.26550520e-01
C     3.528553780700000e+00   3.490727417549372e+00   3.204424800000000e+00  1.17735970e+00   9.08742120e-01   1.74849186e+00
C     3.826187987200000e+00   2.173810907836568e+00  -1.854501000000006e-01  1.11425184e+00  -4.56200990e-01   2.06427220e-01
C     5.060026482200000e+00   2.811938846116400e+00  -1.848647999999997e-01  5.59780400e-01   4.21374762e+00   5.99866180e-01
C     4.794097450799999e+00   2.808765920602241e+00   3.345069300000000e+00 -1.14171205e+00   3.71807870e-01   4.06241860e-01
C     6.093764904699999e+00   3.490379367482207e+00   3.541427400000000e+00 -3.44472484e+00  -2.29061126e+00  -6.53294570e-01
C     6.245600918099999e+00   2.172041368694798e+00  -1.108199999999826e-02  4.87793945e+00  -1.03081564e+00   3.91416000e-01
C     7.620919468499999e+00   2.944555229227612e+00  -7.458090000000084e-02 -2.90958778e+00  -5.53593468e+00   2.73832870e-01
C     7.256544548900000e+00   2.762926889933610e+00   3.709225200000000e+00  2.28227680e+00  -9.82138410e-01   2.65587450e-01
C     8.482248395999999e+00   3.519963196240691e+00   3.672114000000000e+00 -4.11692530e-01   1.37873912e+00  -6.49441360e-01
C     8.836955191200000e+00   2.175493946802176e+00  -1.837167000000015e-01 -2.66540720e-01   4.52250820e+00  -2.64663550e-01
C     1.006421139670000e+01   3.014045525733642e+00  -3.133097999999990e-01 -9.43304130e-01  -4.82830203e+00  -7.15153160e-01
C     9.745141352999999e+00   2.852487532842147e+00   3.662803800000000e+00 -1.79317403e+00  -2.72153926e+00  -6.25598610e-01
C     1.096473101410000e+01   3.456947092090492e+00   3.317188800000000e+00 -5.24797580e-01  -7.46405950e-01   1.55746574e+00
C     2.698824378400000e+00   4.284869310776454e+00  -4.120568999999996e-01 -2.61972815e+00  -2.02951040e-01   1.50059061e+00
C     3.927619976400000e+00   4.995495838954421e+00  -3.434255999999998e-01 -1.70621966e+00  -6.05288390e-01   2.99164200e-01
C     3.506221620200000e+00   4.932095393942516e+00   3.381854700000000e+00  3.97908290e-01  -4.57039900e-02  -1.25609584e+00
C     4.768344511200000e+00   5.611968846656973e+00   3.411155400000000e+00  6.23194020e-01   1.06411886e+00   7.64549070e-01
C     5.138107723599999e+00   4.293798212474972e+00  -1.456544999999991e-01 -4.37608570e-01  -1.38800669e+00   1.41127730e-01
C     6.336679808700000e+00   4.976174192990801e+00   1.632591000000000e-01 -6.13833570e-01   1.63794600e-02  -1.68647294e+00
C     6.052778265099999e+00   4.836059448606786e+00   3.520154400000000e+00 -1.37964787e+00   5.94064504e+00  -2.85353290e-01
C     7.261699406200000e+00   5.698087499831126e+00   3.540895500000000e+00 -3.93841812e+00  -2.04271966e+00   5.52375360e-01
C     7.562675462500000e+00   4.272605156974555e+00   2.180940000000000e-02  1.76771385e+00   3.29071982e+00  -6.54594920e-01
C     8.769763974700000e+00   5.044050616516111e+00  -2.257044000000015e-01  5.93803630e-01  -9.81678120e-01   6.94802680e-01
C     8.415606973100001e+00   5.021224133700976e+00   3.476623200000000e+00  4.84517794e+00  -4.06580814e+00   2.97930000e-02
C     9.721256538300000e+00   5.607797283867178e+00   3.342969900000000e+00  2.95263780e-01   1.31992502e+00   5.13700600e-01
C     1.011851243800000e+01   4.389857981649941e+00  -4.321581000000023e-01 -7.53954756e+00  -1.33815450e+00   1.52984581e+00
C     1.120950487320000e+01   5.065026610370126e+00  -2.138132999999982e-01  7.07741118e+00   4.38738160e-01  -1.30935530e+00
C     1.094320919770000e+01   4.817860767911391e+00   3.309496500000000e+00 -9.87619730e-01   4.86781995e+00  -1.21718700e-01
C     1.210356466230000e+01   5.629043878963305e+00   3.398864100000000e+00  2.49080671e+00   1.42767247e+00  -4.01693460e-01
C     3.794411770800000e+00   6.383244721450397e+00  -3.097925999999980e-01  2.19611575e+00   3.44814141e+00   1.36717005e+00
C     5.084169135900000e+00   7.164192477244202e+00  -6.562380000000090e-02 -1.65826598e+00  -1.56868662e+00  -6.25268950e-01
C     4.729414223899999e+00   7.124525870301039e+00   3.532140600000000e+00  2.18457179e+00  -1.75346599e+00   1.08169299e+00
C     5.944376389799999e+00   7.885796842685362e+00   3.831325800000000e+00  1.81337831e+00  -7.16675831e+00  -1.70687355e+00
C     6.308896448600000e+00   6.389905149624797e+00   1.079766000000000e-01 -1.68571009e+00   2.75525663e+00   4.32190000e-04
C     7.462741552399999e+00   7.201076306062038e+00   1.397163000000000e-01  2.62110886e+00  -2.08570043e+00  -6.95037690e-01
C     7.240740891600000e+00   7.053308900485848e+00   3.674509200000000e+00 -8.05698440e-01   3.57757739e+00  -9.49674100e-01
C     8.502974263900001e+00   7.729435350011576e+00   3.383476500000000e+00 -1.71441000e-03  -1.61417223e+00   1.68094020e+00
C     8.699767489599999e+00   6.421219921197682e+00  -5.620499999999851e-02  1.15569200e-01   2.08312194e+00   4.79108570e-01
C     9.913652943500001e+00   7.154248457979823e+00  -5.742840000000271e-02  1.68323926e+00   1.37468332e+00   1.02833600e-01
C     9.821801374000000e+00   7.081522474232607e+00   3.387580500000000e+00 -3.32033777e+00  -2.05972135e+00  -3.81489830e-01
C     1.097271268410000e+01   7.875020184509077e+00   3.496943100000000e+00 -1.06582211e+00  -2.44706695e+00  -1.20127241e+00
C     1.117207754570000e+01   6.454373910237853e+00  -6.333659999999952e-02  1.75779130e-01   1.49250960e+00  -1.20687488e+00
C     1.241389085800000e+01   7.149193107605349e+00  -2.208810000000021e-01  2.16541287e+00   4.15808610e-01   7.67055090e-01
C     1.220088404550000e+01   7.141751786922553e+00   3.462331500000000e+00 -2.38486364e+00  -2.23116376e+00   2.38911930e-01
C     1.338541203960000e+01   7.833427432971940e+00   3.575736900000000e+00  1.14342356e+00  -6.68143720e-01   8.30633760e-01
