64
Lattice="9.86 0 0 4.93 8.53901048131456 0 0 0 30 " PBC="1 1 1" Properties=species:S:1:pos:R:3:force:R:3 Energy="-512.53838756"
C     5.031483113300000e+00   8.259506038611828e+00  -3.824880000000164e-02 -1.72288634e+00   2.07426030e-01  -4.22677490e-01
C     1.293807705200000e+00   4.360882898948576e-01  -1.588838999999993e-01  1.40441013e+00   1.04520963e+00   2.38287370e+00
C     1.156811731300000e+00   9.378612954951240e-01   3.414874800000000e+00 -6.31265360e-01   1.96739817e+00  -8.82603060e-01
C     2.341239252000000e+00   1.716159225556776e+00   3.445990800000000e+00  2.07753500e+00  -7.91642960e-01  -2.44632750e-01
C     7.456608583100000e+00   8.258986866774643e+00  -2.965950000000106e-02 -2.43592610e-01   6.37843500e-02  -1.82256297e+00
C     3.710959836700000e+00   4.317877880468152e-01  -8.035259999999766e-02  3.19057497e+00   1.80752614e+00   1.47676180e-01
C     3.606613083600000e+00   9.728506594478672e-01   3.421822800000000e+00  1.42732700e-02   8.60729830e-01   4.06648730e-01
C     4.906635596100000e+00   1.595839188316974e+00   3.524303100000000e+00 -2.80206048e+00   3.23992918e+00  -6.41134000e-01
C     9.940553636399999e+00   8.293315823656863e+00  -1.781123999999998e-01 -2.02806994e+00  -6.08232230e-01   9.26919320e-01
C     6.199653564600000e+00   5.050092051820816e-01  -1.343037000000002e-01  1.68786782e+00  -3.69836071e+00   4.23854520e-01
C     6.137453677300000e+00   9.316698297762855e-01   3.518294100000000e+00 -1.09091604e+00   1.90559298e+00  -9.71957240e-01
C     7.333432927500001e+00   1.701343103082823e+00   3.349729200000000e+00 -1.41860720e+00   1.45772933e+00   2.25209980e-01
C     1.234476328540000e+01   8.288778022707582e+00   1.778820000000000e-02  2.32533437e+00   1.16632598e+00  -1.10329323e+00
C     8.713063995400001e+00   4.517496890162256e-01  -2.365889999999737e-02 -7.03783130e-01   2.33484290e-01   4.57112430e-01
C     8.523010079699999e+00   1.037965481593841e+00   3.315634800000000e+00  2.09222978e+00  -3.63524624e+00  -9.88823920e-01
C     9.790495430300000e+00   1.629605680578876e+00   3.243442500000000e+00  7.94755000e-03   3.31608559e+00   1.53382827e+00
C     1.362974964300000e+00   1.891925107205733e+00   6.213750000000001e-02 -9.43111080e-01  -1.45179108e+00  -1.00220728e+00
C     2.539291994100000e+00   2.646591581934300e+00   5.235540000000000e-02  2.12247239e+00  -2.53821795e+00   9.19846250e-01
C     2.362777386700000e+00   3.145405051892303e+00   3.450094500000000e+00 -6.76345360e-01  -2.06372424e+00   5.41140000e-04
C     3.596939684100000e+00   3.773690414352258e+00   3.438641100000000e+00  1.09660779e+00   9.92160530e-01   1.00726906e+00
C     3.784398299899999e+00   1.889904777326166e+00   2.731620000000000e-02 -5.88939750e-01  -1.27517054e+00  -9.98918860e-01
C     5.056620493100001e+00   2.517948485789537e+00  -5.855370000000093e-02 -1.49509365e+00   2.82721189e+00   3.94493960e-01
C     4.808461696000000e+00   3.052596852518013e+00   3.469506300000000e+00  2.49041769e+00  -9.34313300e-02   1.26861370e-01
C     6.077159185699999e+00   3.841846575860894e+00   3.459495000000000e+00 -1.41180465e+00  -2.74525087e+00  -7.44451900e-01
C     6.299458604499999e+00   1.855991584864217e+00  -1.530404999999995e-01 -1.21360548e+00   2.38596586e+00   6.64589230e-01
C     7.497825256500001e+00   2.599798999965367e+00  -5.139420000000072e-02  1.02479107e+00   7.55620770e-01  -7.23512900e-02
C     7.326883373199999e+00   3.171956848809549e+00   3.293424900000000e+00 -2.16938733e+00  -3.52554289e+00   1.47819981e+00
C     8.533011373499999e+00   3.772660097347742e+00   3.415550700000000e+00  3.11244869e+00   2.40400039e+00  -8.99045860e-01
C     8.742657257099999e+00   1.906383359750470e+00   2.282070000000000e-02  5.46956800e-02  -1.54840860e+00  -3.66042690e-01
C     1.001099870220000e+01   2.585417854685266e+00   9.797760000000000e-02 -2.66500837e+00   3.04633400e-01  -4.56967720e-01
C     9.797576586500000e+00   3.098096713690378e+00   3.362597700000000e+00 -5.34022470e-01  -1.38935024e+00  -3.84326700e-02
C     1.100552434840000e+01   3.845314182626717e+00   3.458676300000000e+00 -6.19579310e-01   1.48207900e-02  -3.57902270e-01
C     2.541539137400000e+00   4.032498856040054e+00   1.796124000000000e-01 -6.79936600e-02  -1.30567449e+00  -9.18470520e-01
C     3.722502297800000e+00   4.711106315060746e+00   4.353450000000000e-02  3.72700636e+00   1.88704530e-01  -1.88081980e-01
C     3.626796306400000e+00   5.202319724131129e+00   3.570620700000000e+00 -1.78155081e+00   1.37623781e+00  -1.45093513e+00
C     4.776804292600000e+00   5.956522701370841e+00   3.413533500000000e+00  3.61683283e+00  -9.92066360e-01   8.59217000e-01
C     5.000743971700000e+00   3.974420690870230e+00   1.889790000000000e-02 -2.98049290e-01   3.45596100e-02  -2.65365510e-01
C     6.227720744800000e+00   4.710039621871585e+00  -2.184060000000088e-02 -6.60621210e-01   2.17499740e-01  -8.46493820e-01
C     6.043787374800000e+00   5.189839106413562e+00   3.432320100000000e+00  1.63096333e+00   4.69715541e+00   2.87006080e-01
C     7.408874794799999e+00   5.956287024681594e+00   3.476052300000000e+00 -3.79486660e+00  -1.34881794e+00  -1.00850126e+00
C     7.471766607599999e+00   4.052923656767586e+00  -5.817839999999919e-02  2.54990130e-01  -1.34668594e+00  -1.14560870e-01
C     8.687431051999999e+00   4.788782107012905e+00  -1.046346000000007e-01  1.51437009e+00  -4.27372289e+00   9.45449300e-01
C     8.609774973800000e+00   5.214951653114404e+00   3.431928000000000e+00 -1.61086294e+00   5.10142860e-01   8.65188890e-01
C     9.786259672900000e+00   5.982900985595134e+00   3.541244400000000e+00  3.07437660e-01  -1.45958866e+00  -8.76542050e-01
C     9.942646618600000e+00   3.993099178564496e+00   6.113609999999999e-02  2.38358650e-01   1.53324857e+00  -3.28531030e-01
C     1.120706516410000e+01   4.676128051821626e+00   1.095417000000000e-01 -3.70536661e+00   3.00775111e+00   9.35963600e-02
C     1.100757458750000e+01   5.260588821575287e+00   3.469251600000000e+00  1.05119658e+00   1.16421896e+00   1.21334003e+00
C     1.226464284810000e+01   5.990031230126143e+00   3.555065700000000e+00 -9.22418730e-01  -1.73362139e+00  -4.03665550e-01
C     3.772906075500000e+00   6.112454340257065e+00  -1.024560000000001e-01 -3.36878650e-01   1.84202503e+00   1.91806765e+00
C     5.039884375600000e+00   6.818413359916558e+00  -7.890299999999684e-03 -1.93826353e+00   9.14644830e-01  -1.43634560e+00
C     4.836887878800000e+00   7.381669888066074e+00   3.385525500000000e+00 -3.16796940e-01   1.52159890e-01  -4.52264520e-01
C     6.066816637299999e+00   8.110436433937437e+00   3.412822800000000e+00  1.20133857e+00  -3.41660418e+00  -2.43238430e-01
C     6.219612176600000e+00   6.125850254507984e+00  -1.377363000000003e-01  3.40830941e+00   2.22307830e-01   6.89661560e-01
C     7.564416886400000e+00   6.866087338547237e+00  -1.828395000000000e-01 -5.36015927e+00  -6.98361860e-01   7.49816510e-01
C     7.333360505800000e+00   7.372944727157609e+00   3.394438200000000e+00 -1.71321798e+00  -7.94200000e-03   3.81894850e-01
C     8.508267506299999e+00   8.113323302600516e+00   3.366941700000000e+00  9.19625600e-01  -8.68323120e-01   1.11067576e+00
C     8.728196679700000e+00   6.152808679104287e+00  -1.425890999999986e-01  5.15870680e-01   7.35314450e-01   2.90117200e-02
C     9.949511249200000e+00   6.827650690673613e+00  -7.851929999999996e-02  1.70943670e-01   2.42914261e+00  -1.82210490e-01
C     9.722127965100000e+00   7.379075822072354e+00   3.531450600000000e+00  1.07552643e+00   1.39495507e+00  -8.51763040e-01
C     1.095224500030000e+01   8.105478684452750e+00   3.469681200000000e+00  2.47394029e+00  -2.37736399e+00   7.08906520e-01
C     1.112943388380000e+01   6.132856341826614e+00   6.856770000000001e-02  3.19393435e+00  -4.16842630e-01  -6.66090690e-01
C     1.239778750600000e+01   6.895731538109814e+00  -7.455000000007317e-04 -8.66870000e-01  -2.51878063e+00   9.98974400e-02
C     1.223876927140000e+01   7.409684844429067e+00   3.473347500000000e+00 -1.03540210e-01  -7.09087430e-01  -6.17761120e-01
C     1.348470100710000e+01   8.092731991168625e+00   3.275649900000000e+00 -1.54781164e+00   1.43724847e+00   1.79182905e+00
