64
Lattice="9.86 0 0 4.93 8.53901048131456 0 0 0 30 " PBC="1 1 1" Properties=species:S:1:pos:R:3:force:R:3 Energy="-510.94650138"
C     5.129168943400000e+00   8.534660195720859e+00  -1.669740000000175e-02 -1.19824706e+00  -2.43744185e+00  -9.90284130e-01
C     1.426353713200000e+00   7.031647992601232e-01  -9.604859999999960e-02 -2.34294930e-01  -6.81163650e-01   7.18903840e-01
C     1.047171094900000e+00   6.932466531974985e-01   3.613036200000000e+00  8.88382240e-01   3.44643426e+00   2.30689180e-01
C     2.328256590000000e+00   1.430823750082126e+00   3.547890000000000e+00 -2.29711583e+00   4.84677610e-01  -8.45584360e-01
C     7.603903819999999e+00   8.518901281099810e+00   5.028300000000000e-02 -1.10069019e+00   2.72380902e+00  -9.08358190e-01
C     3.894777795400000e+00   7.445487719910240e-01  -5.389920000000004e-02 -2.18467233e+00  -2.27110090e+00   1.31138020e-01
C     3.515871454300000e+00   6.972569140793256e-01   3.653840700000000e+00  1.79563950e-01   2.44242120e+00   1.81328600e-02
C     4.714869885800000e+00   1.432008281615912e+00   3.698051700000000e+00  1.61667517e+00  -7.62705440e-01  -1.05891303e+00
C     5.075516985899999e+00   1.203530832103600e-02  -1.133214000000002e-01  1.12043200e+00  -1.59127972e+00   1.28957908e+00
C     6.299611976800001e+00   6.937612993591280e-01   3.459000000000000e-02  3.47238180e-01   1.72508659e+00  -2.18927224e+00
C     5.944419231500000e+00   7.105031394765304e-01   3.695603700000000e+00  2.82594295e+00   2.27245314e+00   8.71551010e-01
C     7.283271459300000e+00   1.376405575584239e+00   3.807737400000000e+00 -1.99413802e+00   6.41380930e-01  -2.06855630e-01
C     7.554783124099999e+00   6.669778390875600e-02  -1.913885999999998e-01 -1.18397122e+00  -4.68131712e+00   8.34602700e-02
C     8.811585559100001e+00   6.518963241678888e-01  -1.427288999999980e-01 -2.63522360e-01   2.48980429e+00   7.14582500e-01
C     8.513638198999999e+00   7.291650614904657e-01   3.955482000000000e+00 -3.00814510e-01  -2.78624020e-01  -2.34685925e+00
C     9.680060669500000e+00   1.490007546328902e+00   3.634764300000000e+00  1.30076415e+00  -2.11451901e+00   1.37149274e+00
C     1.342048593300000e+00   2.098655234047372e+00  -3.130707000000008e-01  1.97427023e+00   4.59604460e-01  -1.04952548e+00
C     2.611996971900000e+00   2.778876736828993e+00  -6.028389000000018e-01 -2.14593384e+00   1.05218358e+00   1.31048458e+00
C     2.329431704800000e+00   2.900260222433975e+00   3.298134300000000e+00  8.05460010e-01  -2.98949719e+00   8.09963030e-01
C     3.589931491900000e+00   3.567521471279365e+00   3.268714500000000e+00 -6.98683760e-01   3.65313510e-01   1.12005739e+00
C     3.790877700300000e+00   2.101531172777036e+00  -2.795022000000031e-01  2.39542923e+00   2.35409852e+00  -5.33050050e-01
C     5.050053387999999e+00   2.851013870413509e+00  -2.510817000000003e-01 -9.16548270e-01   8.63669440e-01   1.32520400e-02
C     4.799288149200000e+00   2.816130987921451e+00   3.523235400000000e+00 -1.06504606e+00   1.01000482e+00   3.76691860e-01
C     6.051379229699999e+00   3.464218913415260e+00   3.739568100000000e+00 -4.15516470e-01   1.15227607e+00  -1.51170207e+00
C     6.227067914199999e+00   2.143157568015464e+00  -5.835480000000004e-02  3.12289923e+00   1.47560600e-02   4.16001700e-02
C     7.534931838200000e+00   2.864042692603892e+00  -1.179740999999979e-01 -1.14349548e+00  -1.25023229e+00   4.53877850e-01
C     7.304699260600000e+00   2.784746708803259e+00   3.705272100000000e+00 -1.01060401e+00   1.03190707e+00   1.49087964e+00
C     8.465089826800000e+00   3.594488264105939e+00   3.767677800000000e+00  1.49359710e+00   1.51996400e-02  -1.96183151e+00
C     8.757432812199999e+00   2.082479359544584e+00  -1.423541999999998e-01  2.55672610e-01   1.98744397e+00  -6.50514600e-02
C     9.986378775199999e+00   2.819721129487662e+00  -2.999373000000034e-01  4.05138880e-01  -2.29495710e-01  -4.85497950e-01
C     9.707115375599999e+00   2.888330029331947e+00   3.578531100000000e+00 -1.62693800e-02   6.59170320e-01   1.95982440e-01
C     1.095971197830000e+01   3.576681267821262e+00   3.370839600000000e+00 -7.51214800e-01  -7.58365570e-01  -6.35259910e-01
C     2.612087289500000e+00   4.228258659947723e+00  -7.752333000000000e-01 -5.37983270e-01  -2.28981640e-01   9.27277130e-01
C     3.797440565600000e+00   4.950293220736864e+00  -5.122827000000001e-01  1.35562401e+00   1.74566340e-01  -6.91316950e-01
C     3.534616891900000e+00   5.027077113044387e+00   3.382349100000000e+00 -5.22373490e-01  -3.19562334e+00  -8.69767580e-01
C     4.730632081800000e+00   5.591944867081373e+00   3.645750900000000e+00  4.15182825e+00   4.09132240e+00   9.34511170e-01
C     5.088870975500000e+00   4.315758071116492e+00  -3.541542000000000e-01 -2.08520017e+00  -2.01111554e+00   4.58937090e-01
C     6.263706786800000e+00   5.018572685556831e+00  -1.272890999999987e-01  3.55791156e+00  -4.63008980e-01  -7.31122070e-01
C     6.018204815999999e+00   4.876614710370603e+00   3.736941900000000e+00 -6.40796400e-02   2.10182082e+00   5.87259620e-01
C     7.273208294000000e+00   5.686900542201278e+00   3.869707800000000e+00 -2.95932852e+00   1.77224358e+00  -1.08516260e+00
C     7.545955318199999e+00   4.296495002764765e+00  -7.487370000000126e-02 -9.87051200e-02  -1.11150464e+00   7.67196400e-02
C     8.819101442699999e+00   4.966203873574143e+00  -5.533949999999876e-02 -3.75080400e-02   2.78580260e-01  -1.36470581e+00
C     8.464591748900000e+00   5.063080996832258e+00   3.641114400000000e+00  2.25349986e+00  -2.88869770e+00   1.58680320e+00
C     9.750785512799999e+00   5.717581036075709e+00   3.598942500000000e+00 -7.26698860e-01   7.41009760e-01  -1.08772569e+00
C     1.007541097630000e+01   4.246834935686543e+00  -4.724700000000013e-01 -3.99886221e+00   9.18726000e-02   1.85215717e+00
C     1.122083697120000e+01   4.982416636602205e+00  -7.272882000000003e-01  1.10122080e+00  -1.65510320e-01   7.86421350e-01
C     1.095741109800000e+01   4.955874147206383e+00   3.256782600000000e+00 -9.12930820e-01   3.33253290e+00   1.72598219e+00
C     1.217360857400000e+01   5.717823885533760e+00   3.297041700000000e+00  2.64319820e-01   1.77489892e+00   6.67450330e-01
C     3.772129058200000e+00   6.356477314518530e+00  -3.994329000000008e-01  1.80870859e+00   1.72716338e+00   6.25512810e-01
C     5.065132631100000e+00   7.066822140740763e+00  -9.100529999999907e-02  5.95478710e-01   1.23870885e+00  -1.44223500e+00
C     4.781837526800000e+00   7.103965213916771e+00   3.812893800000000e+00  5.21819410e-01  -2.08229039e+00  -6.38998640e-01
C     5.979191951200000e+00   7.863321483981164e+00   3.812670900000000e+00  1.81340088e+00  -2.20284471e+00  -3.68081000e-03
C     6.393752791800000e+00   6.432427201672472e+00  -1.838112000000010e-01 -4.94367605e+00  -5.52357910e-01   1.91528632e+00
C     7.550146311200000e+00   7.145300343507726e+00   7.338030000000001e-02  1.89492766e+00  -1.61706197e+00  -1.14954110e-01
C     7.266283122999999e+00   7.157296286990450e+00   3.848239800000000e+00 -1.46231130e+00  -1.20054584e+00  -1.70944370e-01
C     8.487850157799999e+00   7.868612596434991e+00   3.752289300000000e+00 -3.67343130e-01  -2.28815402e+00   3.63958420e-01
C     8.787395281600000e+00   6.398906974472813e+00   7.250010000000000e-02 -4.42086900e-02  -9.86246800e-01  -1.15947227e+00
C     9.980592631399999e+00   7.083422233284197e+00  -1.585190999999995e-01  3.18744520e-01   1.91630011e+00  -1.48928810e-01
C     9.736601952099999e+00   7.179585068315660e+00   3.706190700000000e+00  4.84505300e-02  -2.44031331e+00  -8.83697270e-01
C     1.094873725600000e+01   7.892750329699435e+00   3.610194300000000e+00  9.59684220e-01  -2.23609417e+00   2.83052010e-01
C     1.117013764000000e+01   6.423261086262821e+00  -5.253194999999984e-01  1.29198334e+00  -1.09148921e+00   2.75862150e-01
C     1.241869795310000e+01   7.100660531470906e+00  -4.504073999999996e-01  5.34745660e-01   2.22509457e+00   8.51044570e-01
C     1.224156951140000e+01   7.183963275159071e+00   3.540752100000000e+00 -2.54175638e+00  -1.74894450e+00  -1.36178340e-01
C     1.346277956490000e+01   7.840221155099933e+00   3.785628900000000e+00 -9.66031910e-01  -8.17154600e-02   1.58212370e-01
