64
Lattice="7.10842262195238 0 0 0 7.10842262195238 0 0 0 7.10842262195238 " PBC="1 1 1" Properties=species:S:1:pos:R:3:force:R:3 Energy="-514.49817667"
C     7.107338585550449e+00   7.091215830037576e+00   7.094964385622006e+00  7.17790990e-01   6.60980000e-01   5.10164780e-01
C     1.804053827320872e+00   1.766566067865552e+00   2.253085633635200e-03 -5.77741140e-01  -3.79330200e-02   6.02456240e-01
C     7.103592020324353e+00   1.772624647548804e+00   1.779656299204508e+00  4.38539690e-01   6.43286040e-01  -3.07004420e-01
C     1.770035120272565e+00   7.098704055678162e+00   1.836526239196652e+00 -4.89317610e-01  -1.60579160e-01  -1.97041403e+00
C     9.045957554268519e-01   8.697118822614638e-01   9.173075343455191e-01 -6.20157380e-01   3.68664140e-01  -7.20749220e-01
C     2.693143340728682e+00   2.671522717908821e+00   8.876607915454161e-01 -6.37386450e-01  -2.53821460e-01   1.77047300e-01
C     9.189282547028792e-01   2.665683148726491e+00   2.660948654924667e+00 -1.03769305e+00  -2.40627720e-01   9.42053500e-02
C     2.656463098082994e+00   8.841285452613120e-01   2.664022407949781e+00  6.75595880e-01   5.71126800e-02   3.97127700e-01
C     3.520618113129725e+00   7.085120926314735e+00   5.826774021614000e-04  6.94640170e-01   5.16917470e-01   4.49173920e-01
C     5.317334697706460e+00   1.766526687204237e+00   7.084340137174154e+00  3.81675610e-01   2.21134610e-01   8.81105060e-01
C     3.547498613267255e+00   1.773844666123075e+00   1.791869848781740e+00  5.68476960e-01   2.04993300e-02  -3.95678560e-01
C     5.359623983388911e+00   1.962671027495100e-02   1.775993471196875e+00 -1.06038670e+00  -2.32415770e-01  -1.75712340e-01
C     4.423719180532269e+00   8.852656796278334e-01   8.963051310409196e-01  3.58110500e-01  -6.61815100e-02  -4.26749610e-01
C     6.227062023422690e+00   2.662332238303423e+00   8.532048454217521e-01 -4.79773870e-01  -1.48035060e-01   9.54929550e-01
C     4.464338982078188e+00   2.649830228936272e+00   2.691454734935301e+00 -1.03352286e+00   7.21284850e-01  -1.19727152e+00
C     6.193707740636674e+00   9.287950296363440e-01   2.681893266753366e+00  1.00867772e+00  -7.72610950e-01  -4.87486200e-01
C     7.108314571976176e+00   3.566733222950488e+00   3.361004383188400e-03  1.90022910e-01  -4.55517080e-01  -2.31275280e-01
C     1.769385765866228e+00   5.333790340650629e+00   3.274139458772000e-03 -2.62558610e-01  -7.25786900e-02  -5.65420900e-02
C     7.094979384393734e+00   5.339080784185564e+00   1.764784697156980e+00 -1.95518100e-02  -1.23620890e-01   1.91654710e-01
C     1.799383877996437e+00   3.553405712464475e+00   1.780122753896833e+00 -7.87033800e-01   1.48268600e-02  -5.91660150e-01
C     8.651686050281170e-01   4.445711147349800e+00   9.034090753546691e-01  1.02578545e+00   1.21155400e-02  -5.97581200e-01
C     2.632925973440555e+00   6.210066993370115e+00   9.089109944625490e-01  8.36453820e-01   2.86624290e-01  -1.10617730e-01
C     8.357301390107800e-01   6.218996451696907e+00   2.674748662262230e+00  1.27949355e+00   3.79704600e-02   7.31780400e-02
C     2.671358371177847e+00   4.442625665427363e+00   2.644952287165976e+00 -6.05467100e-02   5.04065700e-01   3.96196240e-01
C     3.556296992280934e+00   3.569042678375498e+00   1.063029060707900e-02  5.40491300e-02  -1.34893590e-01  -2.44321190e-01
C     5.339266100763267e+00   5.334880985933215e+00   4.372532922014400e-03 -7.58691830e-01   2.16351700e-01   1.91460440e-01
C     3.560490464037151e+00   5.344578153902967e+00   1.780233218784348e+00 -1.37820130e-01  -1.91474620e-01  -1.49492880e-01
C     5.315644812397007e+00   3.549233850313024e+00   1.759093054249372e+00  6.34283890e-01  -3.66601990e-01   3.17823130e-01
C     4.426998509139554e+00   4.451024551089797e+00   9.019922956422768e-01  6.04439900e-01  -2.73187500e-02  -4.95101310e-01
C     6.233342812397043e+00   6.235507042747928e+00   8.716652767974398e-01 -4.45829020e-01  -4.57239590e-01   4.77438880e-01
C     4.477183972836754e+00   6.225840369911217e+00   2.661834790888476e+00 -6.87029980e-01  -1.51947240e-01  -1.49727290e-01
C     6.213264290780365e+00   4.432419818734924e+00   2.632253729913382e+00  1.27627950e-01   3.49520070e-01   7.69808410e-01
C     7.100523882953108e+00   4.448230514494780e-02   3.537661693708794e+00 -4.46126600e-02  -9.60204230e-01   1.40013645e+00
C     1.807556502566877e+00   1.776466465638010e+00   3.559342453784021e+00 -7.91301280e-01   5.69554130e-01  -1.60316770e-01
C     2.037401874499160e-02   1.766141908287817e+00   5.355070256774313e+00  2.74541400e-02   9.09051930e-01  -4.30331550e-01
C     1.781934335401540e+00   7.104467849075363e+00   5.313694972072341e+00 -6.94490120e-01  -3.25393560e-01  -2.93863800e-02
C     9.239782203005795e-01   9.132824611211704e-01   4.457952846280606e+00 -1.14088133e+00  -5.18643940e-01  -7.43385870e-01
C     2.685961061597661e+00   2.676798091587802e+00   4.409422081200890e+00  1.03997000e-02  -1.73225230e-01   1.13502437e+00
C     9.349201441553193e-01   2.676050996370440e+00   6.241920119467240e+00 -1.21857309e+00  -3.62127430e-01  -2.88458280e-01
C     2.644609021437656e+00   8.530156192116077e-01   6.207043212556020e+00  7.82913660e-01   8.61163040e-01   3.74065340e-01
C     3.553871811735668e+00   7.099506383339281e+00   3.518821956902104e+00  1.56105530e-01  -3.12118300e-02   1.21553712e+00
C     5.313046826097850e+00   1.777334048618781e+00   3.584052112737629e+00  4.01320300e-01   6.00802000e-03  -3.56401200e-02
C     3.533720428787135e+00   1.748023960713961e+00   5.326587020588652e+00  6.83509050e-01   1.04742715e+00   9.41616600e-02
C     5.334495638342986e+00   2.542753855400200e-03   5.344879053432471e+00 -1.83921180e-01  -5.53688270e-01  -2.87545780e-01
C     4.436600495330424e+00   8.674391773813973e-01   4.457541695116266e+00 -2.18513190e-01   3.25039390e-01  -3.38798310e-01
C     6.214295012060265e+00   2.658999809779167e+00   4.456429440228915e+00  4.03545200e-02   2.73261170e-01   1.32974460e-01
C     4.429754089168197e+00   2.676590454563072e+00   6.239405657133867e+00 -9.69154200e-02  -6.75135720e-01  -9.47720750e-01
C     6.229229097142623e+00   8.691936071682396e-01   6.224157095434800e+00 -2.26781710e-01   7.54883750e-01  -1.75022200e-01
C     7.085625766489207e+00   3.546737087951975e+00   3.525700350966121e+00  1.23941618e+00  -3.15303840e-01   1.14205570e+00
C     1.754722582769918e+00   5.313348223216938e+00   3.542121944565940e+00 -2.64704750e-01   9.98856700e-02   2.94699180e-01
C     7.106249077615483e+00   5.316312151112573e+00   5.330168457157286e+00  7.77175000e-02   5.28975160e-01  -6.96341900e-02
C     1.808592626247969e+00   3.561358544607505e+00   5.349667215825078e+00 -4.58075160e-01  -5.47084900e-01  -8.60132850e-01
C     8.978758791872610e-01   4.416636348233701e+00   4.465117212186626e+00 -7.60810300e-01   4.71220480e-01  -1.01835167e+00
C     2.623613015713414e+00   6.210273635215678e+00   4.402145828722832e+00  1.58106851e+00   1.77429790e-01   5.71712690e-01
C     8.832426225501814e-01   6.225663796693336e+00   6.197339718090136e+00  1.59341580e-01  -6.34508610e-01   5.45638030e-01
C     2.679632504023301e+00   4.456863693766770e+00   6.215703546002418e+00 -2.20998550e-01  -4.55933800e-02   2.75223830e-01
C     3.565672077621774e+00   3.578082814842484e+00   3.510732287623639e+00  2.87966510e-01  -7.60586060e-01   1.62476317e+00
C     5.366542468956506e+00   5.331270049410708e+00   3.553464712372221e+00 -9.79409490e-01   7.77922400e-02  -1.44022440e-01
C     3.543691626448888e+00   5.343062282779252e+00   5.302809631261657e+00  3.87457670e-01  -5.41255100e-02   5.59182440e-01
C     5.303612811933490e+00   3.571550885296966e+00   5.349326864550032e+00  8.13946120e-01  -7.34659360e-01  -4.30263790e-01
C     4.455923178369917e+00   4.450012596045614e+00   4.440540551820237e+00 -5.56787540e-01   2.81313980e-01  -5.18928140e-01
C     6.220346483320897e+00   6.225011456749498e+00   4.449366866934813e+00  4.66208080e-01   1.31499030e-01  -3.29153710e-01
C     4.441810826942432e+00   6.224267560322316e+00   6.232952133489848e+00 -4.22742490e-01  -2.61068160e-01  -5.42181630e-01
C     6.200979728061159e+00   4.452722611085263e+00   6.226917153769694e+00  6.64254890e-01  -2.87306510e-01  -1.60399660e-01
