32
Lattice="9.86 0 0 4.93 8.53901048131456 0 0 0 30 " PBC="1 1 1" Properties=species:S:1:pos:R:3:force:R:3 Energy="-256.56367207"
C     4.971982006599999e+00   8.208946984510272e+00   3.749700000000000e-03 -5.87836540e-01  -3.05740025e+00   1.97981900e-01
C     1.266312750100000e+00   3.411214286712232e-01   6.326220000000000e-02 -1.69307470e-01   5.46105020e-01  -1.34020651e+00
C     7.406259380500000e+00   8.146493942711123e+00  -5.668470000000170e-02  1.39772990e+00   1.87415492e+00   5.49841540e-01
C     3.782814685300000e+00   3.417259906132072e-01  -4.589099999999746e-02 -3.29844849e+00  -1.47660420e+00   7.34282220e-01
C     9.872385688300000e+00   8.152354094823339e+00   3.110910000000000e-02  2.90614619e+00   3.18800410e-01  -4.44810280e-01
C     6.240601405100000e+00   2.992606375951192e-01   6.465000000000000e-03 -2.36446697e+00   1.54275242e+00  -1.67692620e-01
C     1.237684826770000e+01   8.129769949125626e+00  -3.423269999999690e-02 -1.83412440e-01   1.33179570e-01   8.94758880e-01
C     8.658644831299998e+00   3.377787476287224e-01   2.086830000000000e-02  3.12141710e-01  -1.28587775e+00  -1.98881470e-01
C     1.237268739700000e+00   1.775573062745883e+00   1.461480000000000e-02  2.03356224e+00  -9.83422020e-01   1.52956298e+00
C     2.526875937000000e+00   2.414950685209463e+00   1.774038000000000e-01 -2.07544002e+00   1.79665493e+00  -9.45423240e-01
C     3.758806669900000e+00   1.718462282073337e+00   1.107201000000000e-01 -5.80806810e-01   1.75681733e+00  -2.61422750e-01
C     4.946735772400000e+00   2.494214733110901e+00   8.985420000000000e-02  1.66910510e+00  -2.58585523e+00  -3.29079440e-01
C     6.186251655400000e+00   1.762535786935123e+00  -1.440960000000047e-02  1.02038765e+00  -1.17121366e+00   3.08344220e-01
C     7.459211968199999e+00   2.430946813541646e+00  -3.840209999999900e-02 -2.54813791e+00   1.22118562e+00   1.87729700e-02
C     8.638372227600000e+00   1.718695994790174e+00   4.906530000000000e-02  1.81342434e+00   1.98848581e+00  -4.98994510e-01
C     9.891432792600000e+00   2.488820640190684e+00   6.392249999999999e-02 -3.58619350e-01  -1.64047283e+00   9.72993000e-02
C     2.473550246900000e+00   3.871487189039069e+00   1.909641000000000e-01  1.61940078e+00  -3.35511420e-01   2.22258900e-01
C     3.753404622400000e+00   4.557561585773996e+00   1.033794000000000e-01 -1.37726405e+00   8.28334360e-01   7.79020820e-01
C     4.980069129300000e+00   3.868958958816151e+00   6.751410000000001e-02  6.49929140e-01   1.63899194e+00  -4.02229530e-01
C     6.244190346500000e+00   4.607557919084921e+00  -6.567030000000074e-02 -2.08356363e+00  -1.91182350e+00  -7.78986400e-02
C     7.445950021700000e+00   3.873772740584146e+00  -1.104971999999975e-01  1.38285230e-01  -7.98653860e-01   6.19314780e-01
C     8.649332505000000e+00   4.565525408508064e+00  -2.212890000000201e-02  1.66046606e+00   1.88592328e+00   3.49767050e-01
C     9.925950631299999e+00   3.880365710575754e+00   1.412727000000000e-01 -2.46847811e+00   1.08785604e+00  -5.27969850e-01
C     1.110471417360000e+01   4.625479850450660e+00   2.364363000000000e-01  1.47935049e+00  -9.39584030e-01  -7.58690670e-01
C     3.740137400800000e+00   5.982237419090733e+00   1.326585000000000e-01 -8.82833980e-01   9.59434390e-01  -1.05915477e+00
C     4.941808829000000e+00   6.722191178762260e+00  -3.880290000000031e-02  4.94940550e-01   6.54460930e-01   5.24203020e-01
C     6.182624654400000e+00   5.991622816289511e+00  -1.178414999999973e-01 -4.47294930e-01   2.00666352e+00   6.02154070e-01
C     7.375978778199999e+00   6.757216150388704e+00  -6.450300000000198e-02  2.00344378e+00  -1.73625540e+00  -4.80518610e-01
C     8.642520033799999e+00   6.023248066283448e+00  -2.087189999999950e-02 -2.48079850e-01  -1.10237530e-01   1.39114880e-01
C     9.878535222400000e+00   6.760419987120800e+00   6.274770000000000e-02 -5.16382600e-01  -1.74286348e+00  -2.17973120e-01
C     1.112557236270000e+01   6.047058499276194e+00   1.266579000000000e-01 -1.65139676e+00  -7.80518310e-01   4.32885030e-01
C     1.232882809570000e+01   6.710804322897075e+00   1.039179000000000e-01  2.64345677e+00   3.16492980e-01  -2.88616520e-01
