32
Lattice="9.86 0 0 4.93 8.53901048131456 0 0 0 30 " PBC="1 1 1" Properties=species:S:1:pos:R:3:force:R:3 Energy="-252.85758422"
C     1.221697630500000e+00   7.490786316605592e-01   3.878069400000000e+00 -1.05909175e+00   7.33709800e-01  -1.57272656e+00
C     2.431070014499999e+00   1.491775975399310e+00   3.859145100000000e+00  1.86177417e+00   6.70574210e-01  -5.22539430e-01
C     3.761515261200000e+00   8.125160505878416e-01   3.605735400000000e+00 -9.55868217e+00  -4.00467698e+00   3.39392820e-01
C     4.858764260800000e+00   1.474032167792184e+00   3.593743200000000e+00  4.35608629e+00   4.01629570e+00   6.67776360e-01
C     6.065884029200000e+00   8.331106068437152e-01   3.623364300000000e+00  5.60852395e+00  -3.91457636e+00  -7.95525320e-01
C     7.433769224199999e+00   1.432174963100482e+00   3.567923700000000e+00 -5.80200923e+00   3.56287659e+00   1.87165840e-01
C     8.613168292799999e+00   8.110485362467489e-01   3.611689200000000e+00  1.55831418e+00  -4.52229722e+00  -9.82554130e-01
C     9.820849933300000e+00   1.465606469981253e+00   3.664938600000000e+00  2.63089287e+00   2.10584187e+00   2.11019122e+00
C     2.428973039000000e+00   2.942718231903049e+00   3.923313300000000e+00  1.53407642e+00  -1.84878179e+00  -2.07623320e-01
C     3.767727258400000e+00   3.578432021139976e+00   3.795909900000000e+00 -8.11370584e+00   5.46937017e+00   1.08977060e+00
C     4.850090418800000e+00   2.896804314112509e+00   3.745129500000000e+00  6.50288140e+00  -1.02786883e+00  -4.66560410e-01
C     6.150761965800000e+00   3.634154529488683e+00   3.764075700000000e+00  2.52960750e-01  -2.29390555e+00  -1.56046271e+00
C     7.377003922399999e+00   2.868752810784661e+00   3.543376500000000e+00  7.13151880e-01   9.56486800e-01   1.77995119e+00
C     8.613319101500000e+00   3.620282480013399e+00   3.667496400000000e+00 -1.64174104e+00   8.77138530e-01  -8.03391920e-01
C     9.848076252700000e+00   2.914325253546107e+00   3.816773700000000e+00 -6.06779960e-01  -3.31291260e-01  -6.18401430e-01
C     1.105816935340000e+01   3.630461749016502e+00   3.981516300000000e+00  9.59047970e-01   1.54310733e+00  -1.18689378e+00
C     3.696639369900000e+00   5.112639876636292e+00   3.811388700000000e+00 -8.16550270e-01  -3.48403132e+00  -6.94317900e-02
C     4.857640713800000e+00   5.779292977155298e+00   3.616169700000000e+00  3.87731834e+00  -1.84593496e+00   9.44581000e-01
C     6.209441241500000e+00   5.020117648722977e+00   3.680846100000000e+00 -5.05049870e+00   1.41759799e+00  -3.57019050e-01
C     7.331139639400000e+00   5.802462728191729e+00   3.533612400000000e+00  1.08480369e+00  -4.10125300e-01  -5.26204920e-01
C     8.499472386299999e+00   5.079200940816402e+00   3.554855400000000e+00  5.99685184e+00  -1.02824730e+00   1.11724599e+00
C     9.877870066800000e+00   5.819780183005589e+00   3.667732800000000e+00 -2.77196045e+00  -2.43842625e+00  -5.35870020e-01
C     1.112003518390000e+01   5.090244101509768e+00   3.829788300000000e+00 -3.67856028e+00  -9.23980640e-01   8.61075080e-01
C     1.229652698220000e+01   5.820910747993141e+00   3.910052700000000e+00  2.06468986e+00  -6.11090479e+00  -3.70024130e-01
C     4.914800366300000e+00   7.161206556059556e+00   3.599842800000000e+00  9.41247240e-01   1.84271004e+00  -5.00991000e-02
C     6.150425789100000e+00   7.885672941643296e+00   3.702069600000000e+00 -4.71026010e-01   3.10288180e-01  -1.01655931e+00
C     7.350511334900000e+00   7.226686591683760e+00   3.430504200000000e+00 -1.07939678e+00  -1.10780655e+00   1.47065032e+00
C     8.549777070999999e+00   7.887363580328231e+00   3.450790200000000e+00  2.30532421e+00   2.78214372e+00   4.53734970e-01
C     9.767850017600001e+00   7.213910097253059e+00   3.558163800000000e+00  3.81248208e+00  -2.72296000e-01   1.38831750e-01
C     1.107696246410000e+01   7.920575122299040e+00   3.629842200000000e+00 -1.34394955e+00  -3.25254040e-01   7.04990090e-01
C     1.235314467980000e+01   7.104538693860608e+00   3.805425300000000e+00 -1.18211318e+00   9.60482251e+00  -2.47594719e+00
C     1.360129762700000e+01   7.881190388091821e+00   3.531099600000000e+00 -2.88436194e+00  -2.55829000e-03   2.25247728e+00
