32
Lattice="9.86 0 0 4.93 8.53901048131456 0 0 0 30 " PBC="1 1 1" Properties=species:S:1:pos:R:3:force:R:3 Energy="-256.9345046"
C     4.967337305699999e+00   8.380523286057322e+00  -1.523838000000026e-01 -1.57279979e+00  -8.79502490e-01   1.99748360e-01
C     1.232055560500000e+00   5.454751488962777e-01  -1.511217000000009e-01  1.18453478e+00   3.71431040e-01   2.58998190e-01
C     7.416654334800000e+00   8.412414697007922e+00  -1.977998999999997e-01 -1.74382250e-01  -8.77123380e-01   5.98408080e-01
C     3.726367417800000e+00   5.785673155005744e-01  -6.760829999999984e-02 -3.19819420e-01  -1.14336894e+00  -8.51309580e-01
C     9.875204366500000e+00   8.362814403003060e+00  -9.976439999999798e-02  4.86278650e-01   1.37252210e+00   3.49383610e-01
C     6.193384132899999e+00   5.337748259563720e-01  -1.082784000000032e-01  2.49475900e-02   5.17130860e-01   4.72298460e-01
C     1.236663858280000e+01   8.411509391116832e+00  -4.404720000000140e-02 -1.32097970e-01  -1.10439765e+00  -3.20103330e-01
C     8.670753256399999e+00   6.039814600515696e-01  -1.067682000000012e-01 -5.20726670e-01  -3.11879107e+00  -2.52830950e-01
C     1.210796118700000e+00   1.956367823836827e+00   1.751700000000000e-02  8.09352400e-01   4.28972700e-01  -4.90399130e-01
C     2.440663843799999e+00   2.666264522789067e+00   8.985750000000001e-02  1.56959233e+00   7.87286830e-01   1.21547480e-01
C     3.728545590400000e+00   1.998071924070622e+00  -9.670500000002136e-03 -2.34749696e+00  -1.51578331e+00   3.60472530e-01
C     4.925157754000000e+00   2.649728558214338e+00  -1.857509999999962e-02  3.15214208e+00   1.39124755e+00  -1.34294720e-01
C     6.227551448600000e+00   1.952187380476133e+00  -9.109709999999893e-02 -3.32253540e+00  -7.43465900e-02  -2.49411480e-01
C     7.406977878699999e+00   2.670135341629756e+00  -1.517900999999995e-01  3.83707830e-01   6.56845740e-01   5.81661700e-02
C     8.621623489299999e+00   1.968390579812457e+00  -1.724211000000011e-01  1.63066084e+00   1.77366691e+00   6.89334590e-01
C     9.868552662599999e+00   2.685028656758448e+00  -3.577860000000044e-02 -8.52284000e-01  -4.05281520e-01  -3.94319610e-01
C     2.495852975300000e+00   4.094939772444321e+00   2.150466000000000e-01  3.13165810e-01   1.29357610e-01  -4.71248900e-01
C     3.796704615200000e+00   4.827621283840555e+00   1.569852000000000e-01 -3.51689991e+00  -1.07517134e+00  -4.88421690e-01
C     4.977233344000000e+00   4.076216027994510e+00  -3.259799999998592e-03 -2.54462640e-01   3.73284980e-01   2.07640000e-02
C     6.195620873899999e+00   4.786577419897073e+00  -1.589238000000002e-01 -5.81736470e-01   6.27559670e-01   8.22959020e-01
C     7.407519932200000e+00   4.097051896686549e+00  -1.443063000000002e-01  5.37813290e-01  -6.05161880e-01  -2.26341000e-01
C     8.628637301700000e+00   4.793570015579144e+00  -8.802599999999927e-02  4.10461540e-01   1.62229928e+00  -2.16109980e-01
C     9.864293783499999e+00   4.090936513551087e+00  -1.082400000000305e-02  6.95549590e-01   5.47659100e-01   6.60821360e-01
C     1.110816911760000e+01   4.797253488529902e+00   1.699290000000000e-01 -1.01295150e-01   7.99003670e-01  -2.31639960e-01
C     3.676528075800000e+00   6.240802072029325e+00   2.476200000000000e-02  1.66122897e+00   2.70803800e-02   2.40169300e-01
C     4.916524140799999e+00   6.926264477883151e+00  -1.124961000000013e-01  7.27229260e-01   1.10780492e+00   1.10488240e-01
C     6.162203411199999e+00   6.209572178220610e+00  -1.246022999999994e-01 -3.69545700e-02   1.00208945e+00  -8.31078260e-01
C     7.386490376300000e+00   6.967559901075374e+00  -2.131433999999999e-01  6.05876290e-01  -2.14629280e-01   5.04095030e-01
C     8.622727513499999e+00   6.251649774772802e+00  -1.204449000000025e-01  5.84653420e-01  -5.66335500e-01   1.65596440e-01
C     9.892407650799999e+00   6.964553059315051e+00  -2.407649999999961e-02 -2.00063362e+00  -1.15282608e+00  -7.35693600e-02
C     1.108512348750000e+01   6.242858692703432e+00   1.519779000000000e-01  1.33412562e+00   6.71142700e-02  -8.29081320e-01
C     1.233055482820000e+01   6.982843278202792e+00   4.633320000000000e-02 -3.77195480e-01  -8.69638020e-01   4.26908420e-01
