32
Lattice="9.86 0 0 4.93 8.53901048131456 0 0 0 30 " PBC="1 1 1" Properties=species:S:1:pos:R:3:force:R:3 Energy="-256.18132052"
C     5.074584574999999e+00   8.497733586460518e+00  -2.431757999999995e-01  3.83924300e-02   4.48180120e-01  -5.81774650e-01
C     1.371097040700000e+00   7.386974150596041e-01  -3.433665000000019e-01 -5.83072600e-01  -2.16316593e+00   1.32975837e+00
C     2.577285926500000e+00   2.478166004474160e-02  -3.697337999999988e-01 -5.93273100e-02  -4.11773243e+00  -7.48403290e-01
C     3.801400045799999e+00   6.270074141515184e-01  -3.269736000000023e-01  1.46788224e+00   2.63389137e+00  -6.68305820e-01
C     9.961742924299999e+00   8.449840411430818e+00  -4.875945000000002e-01  1.37928510e-01   2.93373276e+00   1.41056474e+00
C     6.255175914800000e+00   6.453000239621935e-01  -3.755439000000003e-01  1.45032669e+00   7.16910690e-01  -1.41747830e-01
C     1.244113911590000e+01   8.484943429613050e+00  -2.742378000000016e-01  2.17262140e-01   3.37878500e-01  -3.23245780e-01
C     8.771315741500000e+00   6.506556059451448e-01  -2.571933000000008e-01 -7.60311840e-01   9.20509840e-01   5.33188520e-01
C     1.423834384600000e+00   2.116119303671173e+00  -1.229171999999998e-01 -4.18237278e+00  -2.81476660e-01  -9.31080000e-03
C     2.590389620000000e+00   2.785979400356152e+00  -1.092389999999988e-01  3.46324667e+00   1.03354343e+00   4.95008880e-01
C     3.838706736200000e+00   2.071937438766395e+00  -2.102532000000004e-01 -3.34198610e-01  -6.40589560e-01  -5.21134840e-01
C     5.067279448900000e+00   2.781480622684764e+00  -2.994251999999982e-01 -2.03178400e-02  -7.06167710e-01   1.29157720e-01
C     6.315880040099999e+00   2.096525775613869e+00  -3.781587000000002e-01 -7.23238200e-01  -9.47513670e-01   5.63211920e-01
C     7.541155667399999e+00   2.838092127414544e+00  -2.789088000000000e-01  1.96998520e-01  -2.82767886e+00  -1.37843520e-01
C     8.781165388500000e+00   2.095559159627534e+00  -1.787588999999983e-01 -1.38178920e-01   5.11550800e-02  -1.13636920e-01
C     1.000569693090000e+01   2.821411597392388e+00  -2.470140000000143e-02 -1.45193610e-01  -5.93452150e-01  -1.28185999e+00
C     2.628272775300000e+00   4.198938088882337e+00   9.420899999999999e-03 -1.23612343e+00   1.40627271e+00  -8.79346860e-01
C     3.845919917800000e+00   4.896798369442179e+00  -1.748715000000018e-01 -6.89253040e-01   1.54268202e+00  -1.89667920e-01
C     5.036655669300000e+00   4.174659120384553e+00  -2.736422999999988e-01  1.82424028e+00   1.98242194e+00   2.06081900e-02
C     6.284759809500000e+00   4.936307431641985e+00  -3.424367999999980e-01  9.23124800e-02  -7.99049630e-01  -7.05188520e-01
C     7.520506017299999e+00   4.213196016241212e+00  -3.368933999999975e-01  5.87601570e-01   2.38540253e+00  -5.14599100e-02
C     8.778543762400000e+00   4.957106497198856e+00  -3.487098000000017e-01 -1.20661874e+00  -1.47609751e+00   4.76735850e-01
C     9.968732037399999e+00   4.237496076094882e+00  -1.385378999999993e-01  1.85482349e+00   1.53809770e-01   6.83489110e-01
C     1.124027758810000e+01   4.945708199059628e+00  -1.997820000000061e-02 -8.98309220e-01   6.47421000e-03  -4.89918970e-01
C     3.853934470900000e+00   6.370501870720989e+00  -3.173066999999996e-01 -1.28685121e+00  -1.68681049e+00   1.83960866e+00
C     5.062766132499999e+00   7.067756820827903e+00  -2.511182999999981e-01  1.99207987e+00   5.79970340e-01  -1.65923612e+00
C     6.339663592599999e+00   6.359470237691771e+00  -4.537997999999988e-01 -1.94071948e+00  -5.68237200e-01   1.26090262e+00
C     7.569845161500000e+00   7.031505476516321e+00  -4.902692999999978e-01 -2.38219771e+00   3.35839236e+00   3.20064740e-01
C     8.768746225499999e+00   6.355187838545946e+00  -4.418982000000007e-01 -7.29440000e-03  -1.69986020e-01   2.68775820e-01
C     9.944743396900000e+00   7.100139310271207e+00  -3.494675999999970e-01  2.45807484e+00  -2.85338427e+00   1.22366350e-01
C     1.118587415070000e+01   6.379515650183675e+00  -1.280996999999999e-01  1.23972636e+00  -4.99344510e-01  -7.77156840e-01
C     1.245792842810000e+01   7.068556584549460e+00  -2.167235999999981e-01 -4.27317170e-01  -1.60541040e-01  -1.74202910e-01
