32
Lattice="9.816 0 0 4.908 8.50090536354805 0 0 0 30 " PBC="1 1 1" Properties=species:S:1:pos:R:3:force:R:3 Energy="-257.9063809"
C     1.302884722211014e-03  -1.535855786883249e-02   2.997247282077498e+00 -3.22975190e-01   1.24409006e+00   2.38214280e-01
C     1.227361206073478e+00   7.033680693950726e-01   3.008791737780635e+00 -1.08218120e-01  -3.51198540e-01  -9.58341300e-02
C     2.444853080855387e+00  -8.998653966943359e-03   3.008540296166431e+00  1.06232747e+00   5.17234260e-01  -5.89820800e-02
C     3.693300633315564e+00   7.108666063719585e-01   3.010055953382941e+00 -1.12860844e+00  -5.74300930e-01   1.80728700e-02
C     4.907480378011273e+00  -1.070309280675398e-02   3.007111334238209e+00  1.47902220e-01   8.16069770e-01  -1.13434500e-01
C     6.130074376903577e+00   7.208289280298037e-01   2.992490810938302e+00  1.84514620e-01  -1.05254762e+00   5.35835200e-02
C     7.353601219980618e+00  -8.074234551651174e-03   2.989434235422793e+00  3.24464450e-01   6.84412900e-01   1.59316860e-01
C     8.585213260507485e+00   7.099944947473970e-01   3.009452969160673e+00  8.63292300e-02  -4.05756050e-01  -1.82851520e-01
C     1.229611617389272e+00   2.110779574268080e+00   2.997735679882364e+00 -2.23155790e-01   6.68274220e-01  -3.27177500e-02
C     2.457575948016888e+00   2.829923356602814e+00   2.989711350569528e+00 -3.36417410e-01  -8.09572300e-02   1.81933110e-01
C     3.674419465339335e+00   2.123689944358007e+00   3.008875056524658e+00  5.05182810e-01  -2.36041100e-01  -1.10253990e-01
C     4.905386646723134e+00   2.820699614779947e+00   2.999929132385903e+00 -6.30992000e-03   8.06900160e-01   2.07834000e-02
C     6.132249088328608e+00   2.126672786090598e+00   2.992932058823848e+00  2.81548020e-01   1.77822000e-03   1.26969000e-02
C     7.364063443998075e+00   2.836249059310551e+00   2.992065449709584e+00 -3.26380240e-01   1.61680320e-01   7.45244300e-02
C     8.593422365470220e+00   2.133272517595318e+00   3.009771212572401e+00 -5.29938850e-01  -6.76774620e-01  -1.44046670e-01
C     9.809870976533343e+00   2.822621163521177e+00   2.994189233772995e+00  7.96916040e-01   6.35622810e-01   1.84619330e-01
C     2.466000030791494e+00   4.243013844037042e+00   2.998278270585786e+00 -6.81008260e-01   5.83728500e-01  -1.68978900e-01
C     3.682033950779635e+00   4.971369250180219e+00   2.997910988500355e+00  4.82417340e-01  -9.69949770e-01  -6.02576000e-02
C     4.918556306219852e+00   4.243852885193985e+00   2.999491636888909e+00 -6.71797160e-01   1.72937180e-01   3.44663700e-02
C     6.137263760336639e+00   4.956460128661059e+00   3.004903071805310e+00 -2.67601440e-01   5.01017780e-01  -1.28508010e-01
C     7.350905828733308e+00   4.256040584098319e+00   2.993511564015740e+00  8.77454360e-01  -5.68449040e-01   1.47931420e-01
C     8.596195091011694e+00   4.946692995093417e+00   3.013931596565076e+00 -9.14871300e-01   6.36856080e-01  -1.42031890e-01
C     9.809619024096349e+00   4.253486077693966e+00   3.010328281902697e+00  6.32125660e-01  -6.77287440e-01  -2.04393820e-01
C     1.104027248506008e+01   4.962889311467269e+00   2.985842988406531e+00  4.29042510e-01  -6.36806560e-01   2.72126460e-01
C     3.685869735062747e+00   6.376946600623394e+00   2.983891312322385e+00  1.04583130e-01   2.23606590e-01   3.07966360e-01
C     4.915482347546367e+00   7.091176208538452e+00   3.013424772411536e+00 -1.63677980e-01  -7.78870720e-01  -2.99456070e-01
C     6.140115190633938e+00   6.383613586150291e+00   3.001807869539123e+00 -1.62983220e-01  -5.49549790e-01   5.84680000e-02
C     7.368576546898881e+00   7.079196849039716e+00   2.993607057333338e+00 -5.71833280e-01   1.48493920e-01   1.33602120e-01
C     8.576814336374715e+00   6.367977095917042e+00   3.001646706872365e+00  1.09233879e+00   6.96645000e-03  -6.78111000e-03
C     9.810434692062408e+00   7.086400306835587e+00   2.996210989779388e+00  2.33448190e-01  -7.98902750e-01   1.49367960e-01
C     1.105190110702150e+01   6.369437654785223e+00   3.004190787340844e+00 -6.18788070e-01   3.78622950e-01  -1.74090140e-01
C     1.227621474615549e+01   7.077829218519782e+00   2.998816441139233e+00 -2.06030160e-01   1.69099990e-01  -1.25055210e-01
