32
Lattice="10.1 0 0 5.05 8.74685657822283 0 0 0 30 " PBC="1 1 1" Properties=species:S:1:pos:R:3:force:R:3 Energy="-256.87429938"
C     1.822471681842754e-04   3.349043010299460e-03   2.996674300708505e+00 -9.30345600e-02  -1.61909310e-01   5.79740900e-02
C     1.263318758741843e+00   7.307573268509436e-01   3.003323668658885e+00 -5.33176900e-02  -3.28568000e-03  -1.08137610e-01
C     2.524551406889481e+00   2.786946223394058e-03   2.997072231586488e+00  5.82126000e-03  -9.31538000e-02   3.23744100e-02
C     3.787426070501592e+00   7.263663727369524e-01   2.997076997910480e+00 -1.86399100e-02   2.84787010e-01  -6.47045000e-03
C     5.047273817894550e+00   3.426785425889970e-03   2.999273923900680e+00  2.27859950e-01  -2.16467440e-01   1.09659400e-02
C     6.315536186058260e+00   7.260984717074777e-01   3.001483500479810e+00 -1.58268450e-01   9.67209000e-02  -6.23490100e-02
C     7.576061037632217e+00  -3.853369807428720e-03   2.998247821591951e+00 -1.10532730e-01   5.71350400e-02   1.57157800e-02
C     8.833404141652723e+00   7.296390496134745e-01   2.999707572636221e+00  2.63902400e-01  -1.11985770e-01  -5.40149100e-02
C     1.264456541706958e+00   2.188096408694999e+00   2.996045752159992e+00 -1.14002530e-01  -4.34163000e-03   6.19639000e-02
C     2.522211068450074e+00   2.913737274608492e+00   2.997580336316832e+00  2.01949230e-01   9.85688200e-02  -3.12533000e-03
C     3.788879324478986e+00   2.189067991271925e+00   2.995644485057308e+00 -5.99922400e-02  -7.86656800e-02   4.94793200e-02
C     5.051702783762042e+00   2.919252038086717e+00   3.001733090914455e+00  4.36772400e-02  -1.79218190e-01  -7.28659500e-02
C     6.314487935976027e+00   2.184020581913195e+00   2.995669191637361e+00  1.94759600e-02   7.94712900e-02   1.03899270e-01
C     7.578080735703198e+00   2.913674133162754e+00   3.002190661378589e+00 -5.80218100e-02  -1.94096600e-02  -9.36384000e-02
C     8.841136956297804e+00   2.182917266409928e+00   2.995405025546023e+00 -1.30358490e-01   2.32353150e-01   8.46229700e-02
C     1.010138272857227e+01   2.920291509905588e+00   2.998708393718684e+00 -1.46638700e-02  -3.46052750e-01  -4.60476600e-02
C     2.522242416248905e+00   4.374155356892626e+00   3.000780021129031e+00  1.75025560e-01  -1.64856090e-01  -4.51619700e-02
C     3.785389125120715e+00   5.100257143234474e+00   2.997132757866332e+00  1.50058880e-01   3.31902000e-02   3.36116200e-02
C     5.054538728717063e+00   4.374560680233631e+00   2.999718063717874e+00 -1.84889010e-01   6.06870400e-02  -9.45043000e-03
C     6.315170970293949e+00   5.105107227888855e+00   2.998083379676888e+00 -2.19300000e-04  -7.38799000e-02   2.95297400e-02
C     7.574880812092644e+00   4.371531864634059e+00   2.998762485306052e+00  1.46746780e-01   8.94735300e-02   4.06716000e-02
C     8.839907422149405e+00   5.102705641576178e+00   3.002807522946932e+00 -1.33039280e-01   2.49397100e-02  -6.58185900e-02
C     1.009989708324657e+01   4.370147630656364e+00   2.997233872747158e+00  6.50332200e-02   2.12968070e-01   5.29903000e-02
C     1.136647464404394e+01   5.097553785475033e+00   2.999300906075649e+00 -2.76278560e-01   1.73800130e-01  -6.76583000e-03
C     3.786335203099257e+00   6.557594177491012e+00   2.996634288910248e+00 -6.00532300e-02   2.99616700e-02  -8.20329000e-03
C     5.046351521925017e+00   7.288553442801518e+00   2.997409830011620e+00  2.15524500e-01   8.06748600e-02   8.97315000e-03
C     6.316432122338633e+00   6.562054748765978e+00   3.000824604145352e+00 -2.21371900e-01   2.53904000e-03  -5.04851100e-02
C     7.575547862927155e+00   7.290861767829466e+00   2.997424022732105e+00 -1.09205600e-02   6.60410800e-02   3.00463500e-02
C     8.836512756007581e+00   6.564581464640453e+00   2.999752562513499e+00  1.21827610e-01  -1.87787060e-01   1.44369400e-02
C     1.010160927934523e+01   7.290036177379573e+00   3.001309725350142e+00 -1.36889470e-01   2.22705600e-02  -3.12416500e-02
C     1.136030006031943e+01   6.556918881124825e+00   2.998352328887236e+00  8.16459900e-02   3.80770300e-02   1.21225000e-02
C     1.262160428886532e+01   7.286591424753350e+00   2.995987668087871e+00  1.15945020e-01  -4.26461700e-02   2.43983200e-02
