32
Lattice="9.86 0 0 4.93 8.53901048131456 0 0 0 30 " PBC="1 1 1" Properties=species:S:1:pos:R:3:force:R:3 Energy="-256.57411553"
C     9.778006951499998e+00   1.110948745726820e+00   3.755778300000000e+00  9.42048930e-01   1.23933802e+00  -1.07945670e-01
C     1.188650657300000e+00   1.827640020708102e+00   3.689760300000000e+00 -1.37008485e+00  -1.04759170e-01  -5.13596710e-01
C     2.394994098600000e+00   1.107367399341403e+00   3.626209500000000e+00  8.71318570e-01   2.90126210e-01   7.49681500e-01
C     3.610777208100000e+00   1.878192841332007e+00   3.658423200000000e+00  3.41189030e-01  -9.42763850e-01  -8.36320170e-01
C     4.862696428800000e+00   1.189372298826712e+00   3.600139500000000e+00 -7.95230650e-01  -9.85669300e-01   1.59405580e-01
C     6.100219014200000e+00   1.847371709954971e+00   3.612552900000000e+00  1.68189940e+00  -1.62044897e+00  -1.97615670e-01
C     7.348816548799999e+00   1.128122659774510e+00   3.611811600000000e+00 -2.84066640e-01   1.29797583e+00   4.24457780e-01
C     8.569412570799999e+00   1.885639797761720e+00   3.732388800000000e+00 -2.05462700e-02  -2.05252233e+00   7.03603100e-02
C     1.106609275080000e+01   3.266183804775091e+00   3.537331200000000e+00 -1.88600179e+00  -1.13880160e-01   4.00737450e-01
C     2.373151733600000e+00   3.999011247860429e+00   3.394431600000000e+00  2.90179927e+00  -1.28097578e+00   1.01472876e+00
C     3.639447623100000e+00   3.286569582224729e+00   3.556268400000000e+00 -4.24726510e-01  -3.89578530e-01  -4.05155810e-01
C     4.914171495500000e+00   3.898341010756993e+00   3.575635200000000e+00 -4.64604420e-01   3.49491806e+00   1.53577650e-01
C     6.173465897599999e+00   3.210813274438369e+00   3.625064700000000e+00 -1.75767022e+00   3.50344646e+00   3.30112440e-01
C     7.355612849600000e+00   4.020792555792813e+00   3.717518700000000e+00  3.44123110e-01  -1.04408860e+00   7.33056210e-01
C     8.576593510199999e+00   3.283556250816441e+00   3.808143000000000e+00  1.25748895e+00   1.85143585e+00  -1.33114999e+00
C     9.845978389799999e+00   4.024102617815280e+00   3.631659300000000e+00 -1.56802224e+00  -1.93636672e+00   7.92732530e-01
C     1.226968934400000e+01   5.384971549221263e+00   3.393272700000000e+00  5.57379600e-02   1.47218940e+00  -1.31724260e-01
C     3.646994220600000e+00   6.118977546533051e+00   3.426043800000000e+00  2.03452570e-01  -5.91588000e-01   8.63457830e-01
C     4.878172191799999e+00   5.414808901200899e+00   3.594855900000000e+00  2.50966430e-01  -1.83503973e+00  -9.80276780e-01
C     6.093086093000000e+00   6.151814140553681e+00   3.633990000000000e+00  6.06381440e-01  -1.08792204e+00   1.21527647e+00
C     7.350359688099999e+00   5.451095511625764e+00   3.802247400000000e+00 -1.00962125e+00  -8.52975550e-01  -1.51144308e+00
C     8.578030950299999e+00   6.137159405377800e+00   3.709270200000000e+00  3.99045890e-01   1.57018080e-01   3.98454240e-01
C     9.804404587200001e+00   5.435920409151232e+00   3.622260600000000e+00  9.74996130e-01  -8.63340280e-01  -2.79849970e-01
C     1.105803762380000e+01   6.088199707939149e+00   3.482740500000000e+00 -1.14505850e+00   3.08542296e+00  -5.40040570e-01
C     1.351701060020000e+01   7.540304209159322e+00   3.553138200000000e+00 -1.66307371e+00  -9.63408670e-01  -9.49401000e-03
C     4.849066802899999e+00   8.212023504596111e+00   3.733787700000000e+00  1.01762110e+00   2.39732671e+00  -4.67923540e-01
C     6.095820418900000e+00   7.559568643752725e+00   3.706691700000000e+00  3.65377100e-01  -1.14287071e+00  -2.62665620e-01
C     7.354360925399999e+00   8.205904364296039e+00   3.681528300000000e+00 -9.20611100e-01   2.29556071e+00   2.07575760e-01
C     8.588101757099999e+00   7.548628634305959e+00   3.684705600000000e+00  1.78258000e-03   6.26044100e-02  -5.35267050e-01
C     9.788630657799999e+00   8.305454027054184e+00   3.553188600000000e+00  9.54445440e-01  -1.06154517e+00  -5.82535000e-03
C     1.102975820710000e+01   7.579673060807047e+00   3.419793900000000e+00  2.99039290e-01  -1.19433807e+00   1.21522285e+00
C     1.227966519900000e+01   8.275246594360345e+00   3.537456600000000e+00 -1.59395030e-01  -1.08328106e+00  -6.12543110e-01
