32
Lattice="9.86 0 0 4.93 8.53901048131456 0 0 0 30 " PBC="1 1 1" Properties=species:S:1:pos:R:3:force:R:3 Energy="-257.06505928"
C     4.933897657999999e+00   8.318895112670543e+00  -5.746467000000024e-01  1.52973530e+00   1.47385393e+00   1.06869560e-01
C     1.267107663300000e+00   5.195180940589640e-01  -5.801435999999995e-01 -1.17505986e+00   6.35371420e-01   7.01471980e-01
C     7.428871367799999e+00   8.370785654676245e+00  -6.230925000000020e-01 -8.15480440e-01  -1.22289499e+00   4.17606800e-01
C     3.718445893800000e+00   5.217757230397713e-01  -4.878429000000004e-01  2.18078020e-01   2.62515270e-01  -4.09893970e-01
C     9.881399897500000e+00   8.356501854115615e+00  -4.766972999999979e-01  3.45001600e-01  -1.27178532e+00   4.84507570e-01
C     6.203716919899999e+00   5.092261955076296e-01  -4.705799999999982e-01 -9.01049630e-01  -3.69025720e-01  -5.42089900e-02
C     1.237167408480000e+01   8.340265694198839e+00  -4.424808000000020e-01 -1.15809791e+00  -3.73953400e-01   2.09317670e-01
C     8.656220158699998e+00   4.967718779423400e-01  -5.471420999999985e-01  1.99960300e-02   1.23776857e+00  -1.22705520e-01
C     1.226497232000000e+00   1.941368112637554e+00  -3.281936999999999e-01  1.08229355e+00  -2.54295270e-01  -1.41098287e+00
C     2.501350714100000e+00   2.667920322311244e+00  -2.815862999999972e-01 -1.60258387e+00  -1.34716644e+00   3.70436540e-01
C     3.697900661100000e+00   1.931998171047745e+00  -3.995837999999985e-01  1.58933531e+00   9.17008400e-01   2.99601020e-01
C     4.985045569900000e+00   2.646063358746007e+00  -4.141958999999993e-01 -2.69954198e+00  -1.15107440e-01  -2.74749690e-01
C     6.147167305599999e+00   1.917318843521681e+00  -5.140349999999998e-01  3.09537203e+00   4.34506620e-01  -2.23815190e-01
C     7.417618790699999e+00   2.644050030855033e+00  -5.846079000000017e-01 -8.06933380e-01  -3.92379950e-01  -6.67918500e-02
C     8.659432250900000e+00   1.960400969266740e+00  -6.063936000000005e-01 -1.37996008e+00  -1.89556074e+00   6.44041240e-01
C     9.845955958300001e+00   2.647265651421591e+00  -4.335339000000005e-01  2.04625331e+00   9.94444710e-01   3.04288840e-01
C     2.503331489500000e+00   4.065679316012714e+00  -1.109064000000011e-01 -7.70499200e-01   4.85497250e-01  -5.04783420e-01
C     3.722793562200000e+00   4.764705683843705e+00  -1.581936000000006e-01  1.34410667e+00   1.14781475e+00  -1.55132885e+00
C     4.978680939900000e+00   4.065953759809542e+00  -4.338347999999996e-01 -1.43592733e+00   9.67629900e-02   1.03995434e+00
C     6.181278024900000e+00   4.776395333020512e+00  -5.717987999999998e-01  3.70186030e-01   3.36131050e-01   4.93873200e-02
C     7.414734001199999e+00   4.054620187369752e+00  -5.879285999999979e-01  2.52523860e-01   7.16918670e-01   2.85953110e-01
C     8.643788769299999e+00   4.792110357127694e+00  -4.617174000000013e-01  4.47936000e-02  -8.27649810e-01  -4.90894580e-01
C     9.892758173800001e+00   4.083206915874487e+00  -3.597627000000010e-01 -1.07109398e+00  -1.13616840e-01   2.40016470e-01
C     1.110833560370000e+01   4.786781843807964e+00  -1.752770999999989e-01  7.73498660e-01  -2.39413330e-01  -1.42675100e-02
C     3.715086838300000e+00   6.215385792725709e+00  -3.099530999999978e-01  4.96240900e-02  -9.68493840e-01   6.26024760e-01
C     4.947591176700000e+00   6.929204032240890e+00  -4.937301000000005e-01 -7.00544960e-01  -1.47292988e+00  -2.77904020e-01
C     6.166084652300000e+00   6.203224363219884e+00  -6.119418000000003e-01  2.25534980e-01   2.92963000e-01   3.04125420e-01
C     7.383684762600000e+00   6.932484976237621e+00  -6.459875999999980e-01  1.00456868e+00  -2.17115630e-01   2.95715490e-01
C     8.617906762299999e+00   6.200840783834496e+00  -4.997943000000014e-01  3.67559100e-01   8.57255750e-01   2.43143100e-02
C     9.856549690200000e+00   6.910268178770757e+00  -3.800643000000008e-01  7.33755950e-01   5.63791770e-01  -2.08285120e-01
C     1.112631008790000e+01   6.210825961129389e+00  -2.158520999999993e-01 -2.14955939e+00  -1.98207820e-01  -2.59087860e-01
C     1.232992807730000e+01   6.913649199970314e+00  -2.594327999999990e-01  1.57411523e+00   8.26992240e-01  -5.33932980e-01
