32
Lattice="9.86 0 0 4.93 8.53901048131456 0 0 0 30 " PBC="1 1 1" Properties=species:S:1:pos:R:3:force:R:3 Energy="-253.27862564"
C     9.594128600299999e+00   8.472830587076856e-01   3.876537600000000e+00  2.09177624e+00  -1.77725041e+00   2.98684290e-01
C     9.779186947000000e-01   1.562038881573570e+00   4.014469500000001e+00 -1.20403756e+00   1.65509627e+00   7.93039920e-01
C     2.189622525000000e+00   9.314665159367568e-01   3.927734099999999e+00  2.87309937e+00  -2.76322072e+00  -6.33668070e-01
C     3.410033228300000e+00   1.660844113398070e+00   4.281084000000000e+00  2.64853240e-01  -2.47551051e+00  -6.71307800e-01
C     4.619271910700000e+00   8.663101941998504e-01   4.295935500000000e+00  4.99351850e-01   2.93607540e-01  -1.37543733e+00
C     5.881809464000000e+00   1.498053941294310e+00   4.260325200000000e+00  7.70936740e-01   3.40034473e+00   9.69449820e-01
C     7.152610042399999e+00   9.124429668289936e-01   4.171816200000000e+00 -1.60930820e+00  -2.10401518e+00  -5.58515660e-01
C     8.408942746999999e+00   1.516896975720526e+00   4.111893000000000e+00 -8.41211470e-01   2.23544012e+00   2.97636380e-01
C     1.087899294040000e+01   2.963499621708226e+00   4.413446400000000e+00  1.69474150e-01   3.78207130e-01  -6.14819100e-02
C     2.287129445400000e+00   3.750659251455917e+00   4.561182900000000e+00 -2.93511650e+00  -1.21670000e-02  -1.49704355e+00
C     3.482407501700000e+00   3.076769851895740e+00   4.415453100000000e+00 -5.92482810e-01  -2.30460209e+00   5.33812910e-01
C     4.701885843400000e+00   3.697406395718235e+00   4.341771600000000e+00  2.57172830e+00   2.56891620e+00  -2.54208534e+00
C     5.939460686800000e+00   2.921227762667614e+00   4.278609600000000e+00 -1.97410156e+00   2.12178736e+00   2.09173190e-01
C     7.151561727199999e+00   3.680552267613021e+00   4.220935200000000e+00  1.27231834e+00  -1.78901131e+00  -1.32691682e+00
C     8.386430296400000e+00   2.934912551643072e+00   4.256537099999999e+00  9.24691090e-01   1.07134179e+00   4.73497690e-01
C     9.625154273500000e+00   3.656142737644998e+00   4.432850700000000e+00  9.04831790e-01  -3.78090900e-01  -1.09937664e+00
C     1.211744261230000e+01   5.171563660013951e+00   4.419888300000000e+00 -3.22204900e-01  -2.66164600e-01  -4.14398130e-01
C     1.327344961970000e+01   5.915945579740196e+00   4.038066300000000e+00  2.22490337e+00  -2.45429849e+00   8.39234470e-01
C     4.715407600900000e+00   5.169204502198538e+00   3.856199999999999e+00 -1.94224485e+00  -2.32396711e+00   3.20318397e+00
C     5.941540210099999e+00   5.798654414907754e+00   3.731213100000000e+00  1.91130170e+00   5.09920040e-01  -1.57034605e+00
C     7.247096894099999e+00   5.019737662756617e+00   3.794272800000000e+00 -2.15949733e+00   3.13584819e+00   1.80526379e+00
C     8.448084482000001e+00   5.816706993133837e+00   3.936971100000000e+00  1.28268652e+00  -1.72398913e+00   9.59942000e-03
C     9.731275037800000e+00   5.060954697832633e+00   4.285361100000000e+00 -5.61665239e+00   1.43377044e+00  -2.66408340e-01
C     1.084512221350000e+01   5.831697823762211e+00   4.359370200000001e+00  3.31964140e+00   4.37639640e-01  -1.98428930e-01
C     1.332790546300000e+01   7.299904934775252e+00   4.062098100000000e+00 -1.41769551e+00   8.39037450e-01  -1.58261993e+00
C     4.722972538000000e+00   7.892439680498173e+00   3.766611900000000e+00 -1.89419917e+00   4.02059271e+00   1.70061480e-01
C     5.921617439200000e+00   7.255182550507091e+00   3.505982400000000e+00  2.62301569e+00  -1.31955971e+00   1.11945506e+00
C     7.195751683599999e+00   7.993024442106704e+00   3.528801300000000e+00 -5.55046700e-02   6.51842980e-01   2.34940370e+00
C     8.468589239400000e+00   7.250147266807245e+00   3.808634400000000e+00 -2.87750946e+00   4.13398750e-01  -7.62420950e-01
C     9.619138687500000e+00   8.021002253774109e+00   4.038663300000000e+00  7.30213250e-01  -2.52448248e+00   1.00349369e+00
C     1.088803741980000e+01   7.228990160540948e+00   4.184367300000000e+00 -2.52234672e+00   3.66582950e+00  -4.89858140e-01
C     1.202055465340000e+01   8.078874628791366e+00   4.092882000000000e+00  3.52929007e+00  -4.61629122e+00   9.75323790e-01
