32
Lattice="9.86 0 0 4.93 8.53901048131456 0 0 0 30 " PBC="1 1 1" Properties=species:S:1:pos:R:3:force:R:3 Energy="-249.89304014"
C     7.948103108999999e-01   1.054541750298036e+00   4.224364200000000e+00 -1.46694400e+00   4.66011511e+00  -3.30643037e+00
C     1.953772705400000e+00   1.888772760706832e+00   3.682646100000000e+00 -1.38862419e+00  -2.33783025e+00   2.44586548e+00
C     3.107598089200000e+00   1.142604479988171e+00   3.680630400000000e+00  3.63667514e+00   1.07911031e+00   2.54384250e-01
C     4.389710158200000e+00   1.811353651409702e+00   3.606525300000000e+00  5.83404700e-01   1.80691278e+00   2.39415802e+00
C     5.663083605000000e+00   1.097255673911197e+00   3.959778300000000e+00 -4.25979840e+00   1.82261132e+00  -2.76830486e+00
C     6.787108765699999e+00   1.889772081103307e+00   3.857909400000000e+00  3.23105132e+00   5.26607240e-01   3.08994090e-01
C     8.105519389399999e+00   1.126303167421432e+00   3.783694200000000e+00 -2.51489610e+00  -7.62178320e-01   2.50318810e+00
C     9.333237240100001e+00   1.706877406555121e+00   3.916340400000000e+00  2.39016072e+00   3.68272510e+00  -1.05900350e-01
C     1.992870021100000e+00   3.281605343092076e+00   3.596116500000000e+00 -3.03720318e+00  -1.75118970e-01   1.33583820e+00
C     3.170897563700000e+00   4.023033789873498e+00   3.580437300000000e+00  1.83298112e+00   9.27873460e-01  -1.23542273e+00
C     4.370243708099999e+00   3.282553002475146e+00   3.691109400000000e+00  1.46175699e+00   1.08583000e-02  -1.25861430e+00
C     5.597747054499999e+00   4.133732155494541e+00   3.721032000000000e+00 -1.32314324e+00  -3.00071429e+00   9.70390000e-03
C     6.809327782700000e+00   3.431492814190241e+00   3.888711000000000e+00 -2.72409321e+00  -6.67864102e+00  -9.83975030e-01
C     8.059375181000000e+00   3.827979649791898e+00   3.800004300000000e+00  4.67910841e+00   7.31148350e+00  -3.14962260e-01
C     9.311056332000000e+00   3.213309568762093e+00   3.736506300000000e+00  1.37144010e+00  -3.27006273e+00   1.90907160e+00
C     1.057174784680000e+01   3.902417619750250e+00   3.889500000000000e+00  6.72554010e-01   1.26863809e+00  -2.51401646e+00
C     3.298063364100000e+00   5.504652526916743e+00   3.464228400000000e+00 -7.85033301e+00  -2.34068085e+00   1.90186201e+00
C     4.372838169900000e+00   6.191114680117567e+00   3.743398500000000e+00  3.71261978e+00   4.14873290e+00   1.16022159e+00
C     5.555875134800000e+00   5.504776257178599e+00   3.637764300000000e+00  5.44437181e+00   3.43308000e-02   1.94046889e+00
C     6.979029918900000e+00   6.099071319911970e+00   3.871420800000000e+00 -2.02866172e+00  -5.27732950e-01  -3.85327690e-01
C     8.210579267000000e+00   5.377373708476370e+00   3.818642100000000e+00 -1.85323049e+00  -2.05166281e+00  -3.85725220e-01
C     9.435799037399999e+00   6.101151849815422e+00   3.777991200000000e+00 -1.37606482e+00  -2.88506329e+00   7.83205410e-01
C     1.068404575320000e+01   5.310553560547435e+00   3.834534900000000e+00 -1.72874439e+00   3.64072401e+00  -4.42629150e-01
C     1.184796974900000e+01   6.204273892997981e+00   3.728714700000000e+00  2.53560520e-01  -4.20335325e+00   2.97437020e-01
C     1.422976184990000e+01   7.636592396864631e+00   4.165374600000000e+00  4.45973591e+00  -4.45411157e+00  -6.51270190e-01
C     5.734889055000000e+00   8.246756015113617e+00   4.358892600000000e+00 -1.33299668e+00  -3.08135124e+00  -1.85668274e+00
C     6.991257058400000e+00   7.468765062478720e+00   4.092089400000000e+00 -2.51096418e+00   3.37960102e+00   9.87017250e-01
C     8.119388120300000e+00   8.333834026115197e+00   3.987544200000000e+00 -6.80149500e-01  -5.50973184e+00  -1.66047079e+00
C     9.267435248300000e+00   7.474502509010336e+00   3.751523700000000e+00  2.83250761e+00   4.24126709e+00   9.68380410e-01
C     1.048381528220000e+01   8.240877077178347e+00   3.827948100000000e+00  2.37490058e+00  -9.11811580e-01   1.32821052e+00
C     1.173298449960000e+01   7.565119769075669e+00   4.018931100000000e+00  1.47007673e+00  -7.56589730e-01  -2.24325410e+00
C     1.304565029290000e+01   8.213712862429475e+00   4.027227600000001e+00 -4.33105834e+00   4.40504364e+00  -4.15020490e-01
