32
Lattice="9.86 0 0 4.93 8.53901048131456 0 0 0 30 " PBC="1 1 1" Properties=species:S:1:pos:R:3:force:R:3 Energy="-253.6596824"
C     4.908626625900000e+00   8.183714635492397e+00  -2.163773999999989e-01  3.91259522e+00   2.00137245e+00  -3.27760500e-02
C     1.285047045900000e+00   3.848319401975048e-01  -1.484451000000000e-01 -1.04663884e+00   9.36008290e-01  -8.48379100e-01
C     7.465088774700000e+00   8.303449323563795e+00  -2.267895000000024e-01 -6.79825200e-02  -4.22256409e+00   5.57908680e-01
C     3.753607097499999e+00   4.202432166580648e-01  -1.318830000000020e-01  2.00733397e+00   2.17019757e+00   1.84474856e+00
C     9.997881894899999e+00   8.274807945391988e+00   7.682490000000000e-02 -3.33280495e+00  -7.03000060e-01  -2.01010106e+00
C     6.233846960000000e+00   4.732828533040608e-01  -9.574950000000015e-02  1.32119693e+00  -2.53932837e+00   1.00142523e+00
C     1.241529916180000e+01   8.246474740108406e+00   2.006400000000000e-03 -1.99078649e+00   1.97063751e+00  -1.40829900e-01
C     8.687645359099999e+00   3.941194803361816e-01  -1.370163000000026e-01 -1.23389540e-01   2.12316344e+00  -1.53187320e-01
C     1.304784399500000e+00   1.816564411774913e+00  -2.725320000000053e-02 -1.50039467e+00   3.64824560e-01   1.32054738e+00
C     2.466599883600000e+00   2.532126061059795e+00   4.092033000000000e-01  2.56377975e+00  -7.19942490e-01  -2.03545190e+00
C     3.745116996600000e+00   1.869192126555354e+00   1.765584000000000e-01  8.02544560e-01  -1.19940257e+00  -7.78858780e-01
C     5.052360381500000e+00   2.575909239565262e+00   8.519760000000000e-02 -3.41286522e+00  -9.83993470e-01   5.33010140e-01
C     6.220891215800000e+00   1.848055855474629e+00  -1.907186999999979e-01  9.86127410e-01   1.41034567e+00   7.03383890e-01
C     7.458341182300000e+00   2.569854398014103e+00  -2.233452000000007e-01  6.99780250e-01  -1.96095208e+00   5.86840890e-01
C     8.737903504600000e+00   1.876608940278072e+00  -1.282011000000018e-01 -3.86530768e+00  -2.44181040e+00  -1.58129420e+00
C     9.897958584300000e+00   2.562435876489289e+00  -1.130861999999979e-01  3.75056316e+00  -9.85108600e-02   2.15041841e+00
C     2.579896361500000e+00   3.950637155760495e+00   5.614149000000001e-01 -2.89204360e+00   6.33415930e-01   9.05481700e-02
C     3.769414748099999e+00   4.661280761959421e+00   4.030965000000000e-01  3.64573520e-01   1.65765784e+00   7.82608420e-01
C     5.020928476300000e+00   3.973110465102178e+00   2.617239000000000e-01 -7.38780920e-01  -2.68148100e-01  -8.44430970e-01
C     6.224922526099999e+00   4.644962712932141e+00   3.767550000000000e-02 -4.21556320e-01   1.38830588e+00   6.01412100e-02
C     7.417251850800000e+00   3.937883033537253e+00  -1.593266999999976e-01  3.01840544e+00   2.62474255e+00   6.88764000e-03
C     8.720288811800000e+00   4.710188371434145e+00  -1.372397999999997e-01 -4.66601200e-01  -2.25344361e+00   1.77653618e+00
C     9.933781295399999e+00   3.928136777755590e+00   2.483544000000000e-01 -3.93192950e-01   3.39723102e+00  -1.63666745e+00
C     1.117225827950000e+01   4.697690761085722e+00   5.967108000000000e-01 -1.04262850e+00  -1.33125461e+00  -1.86449639e+00
C     3.690801017400000e+00   6.149163290140271e+00   3.253806000000000e-01  3.26998159e+00  -1.81214219e+00  -2.10114517e+00
C     4.929367776799999e+00   6.805522869695951e+00  -1.880021999999997e-01  4.90529200e-02  -2.73231789e+00   3.45014797e+00
C     6.187617906300000e+00   6.054363281181415e+00   4.084800000000000e-03  1.92556748e+00   2.49519432e+00  -2.41534307e+00
C     7.516704543600000e+00   6.783151345359189e+00  -2.049795000000003e-01 -5.16092238e+00   2.55337024e+00   3.15775160e-01
C     8.693538533200000e+00   6.129595122944092e+00  -1.430526000000008e-01  2.84410659e+00  -1.31940405e+00   1.03436633e+00
C     9.951794628000000e+00   6.826363691014067e+00   1.057350000000000e-01 -1.09169816e+00   8.50265980e-01   1.24062690e-01
C     1.110044918130000e+01   6.120251652286772e+00   4.423902000000000e-01  2.52252539e+00   3.28853580e-01  -3.41222470e-01
C     1.239215241740000e+01   6.895559050098118e+00   3.149475000000000e-01 -2.49054022e+00  -2.31937200e+00   4.44826900e-01
