32
Lattice="9.612 0 0 4.806 8.32423618117602 0 0 0 30 " PBC="1 1 1" Properties=species:S:1:pos:R:3:force:R:3 Energy="-256.45843767"
C     4.844895129681334e-03   9.081006468094406e-03   2.990011995738020e+00 -2.77351290e-01  -6.42439110e-01   2.33798370e-01
C     1.200698284808363e+00   6.931165192616110e-01   2.999172438367048e+00 -2.12320690e-01   9.59036800e-02  -9.95014100e-02
C     2.387562432073484e+00  -3.150327046075336e-03   2.999604066398759e+00  9.35946670e-01   1.57841770e-01   1.16775730e-01
C     3.595934262837195e+00   6.877742319944596e-01   3.009477359981129e+00  1.98528400e-02   1.32181600e-02  -1.62225230e-01
C     4.806832359766872e+00   6.820365460286098e-04   2.992468474415404e+00 -6.46051560e-01   2.49582250e-01   1.96297290e-01
C     6.002622080863861e+00   6.900649513598693e-01   3.013207318450580e+00  3.70294100e-01   3.66399100e-01  -1.25273390e-01
C     7.200553323869745e+00  -1.076135908635241e-02   3.008182568734636e+00  8.58624320e-01   6.16349270e-01   2.13852400e-02
C     8.418321335433596e+00   7.016430098850706e-01   3.010469151635895e+00 -8.90827540e-01  -9.25827500e-01  -1.83910410e-01
C     1.195585761768056e+00   2.069725963099169e+00   2.993952747039603e+00  6.41472680e-01   1.12904343e+00  -2.79856900e-02
C     2.413201061765561e+00   2.779669278821594e+00   2.988959514309224e+00 -1.18498430e+00  -6.91536190e-01   9.06399500e-02
C     3.598010707138631e+00   2.074499764658799e+00   3.003925270881191e+00  2.80668970e-01   6.35853000e-03   5.20920900e-02
C     4.798046277193413e+00   2.767410257823774e+00   3.012170194668311e+00  3.10268290e-01   1.46419450e-01  -1.53196340e-01
C     6.004759081371475e+00   2.089057033822743e+00   3.006431512974536e+00  8.95325200e-02  -7.23124260e-01   6.51099000e-02
C     7.210796493413508e+00   2.771920080502507e+00   2.996824424065846e+00 -3.74798260e-01   4.58299940e-01   8.37508100e-02
C     8.406834750130177e+00   2.077295620405588e+00   2.996377774072035e+00  2.61896080e-01   5.33202070e-01   7.31034600e-02
C     9.610672603525074e+00   2.778355042952774e+00   2.996740712128592e+00  1.81460300e-02  -5.42088050e-01   3.57663200e-02
C     2.402968485815263e+00   4.159781370336606e+00   2.993829015683234e+00  3.33747470e-01   2.95821300e-01   2.56395500e-02
C     3.614463367239781e+00   4.846016680009854e+00   3.010897215062415e+00 -6.08948940e-01   8.30634020e-01  -2.86295660e-01
C     4.804606131962140e+00   4.153351132795876e+00   2.991649331139263e+00  3.56665140e-01   3.15895870e-01   1.57307360e-01
C     6.004662056103953e+00   4.869650304881201e+00   2.988277606312380e+00 -1.38118370e-01  -1.14704662e+00   1.22591290e-01
C     7.207076851707813e+00   4.169535845322331e+00   3.003760083747677e+00 -4.12456720e-01  -5.39769470e-01  -1.77238530e-01
C     8.398120905752338e+00   4.848429984601030e+00   2.995752671501276e+00  8.34679220e-01   9.83577320e-01   2.01433380e-01
C     9.609818226467958e+00   4.158717489882505e+00   3.010705847315136e+00  1.29486500e-02   4.55175310e-01  -2.74742830e-01
C     1.081715581138691e+01   4.857276972280299e+00   2.988760434116671e+00 -4.97558190e-01   1.23323060e-01   2.56751870e-01
C     3.606608606730042e+00   6.252017048119934e+00   2.989508891541663e+00  7.51325060e-01  -1.20457021e+00   2.16688380e-01
C     4.815601421859715e+00   6.936155732241948e+00   3.005576364774871e+00 -8.42802420e-01   6.48095000e-01  -1.87693560e-01
C     5.998667713984781e+00   6.241049596517092e+00   3.003535380044100e+00  8.36381040e-01   4.51081330e-01  -3.25894000e-03
C     7.209904439360331e+00   6.941653077405072e+00   3.010745470928226e+00 -8.03485260e-01  -2.75377900e-01  -9.88709300e-02
C     8.400758637010437e+00   6.255934782355804e+00   3.003700198623025e+00  2.87289390e-01  -9.97221750e-01  -6.76263200e-02
C     9.599038602868992e+00   6.946549073051041e+00   2.994404401467083e+00  7.10090130e-01  -5.15315360e-01   1.13160290e-01
C     1.080891217597038e+01   6.249783991352852e+00   3.011151881259863e+00  5.76232400e-02  -3.99525740e-01  -2.69251390e-01
C     1.202678433325235e+01   6.924786596311752e+00   2.997920371790110e+00 -1.07774830e+00   7.27621270e-01   5.47793400e-02
