26
Lattice="8.88768389401873 1.33226762955019e-15 0 4.44384194700937 7.69696003302603 0 0 0 30 " PBC="1 1 1" Properties=species:S:1:pos:R:3:force:R:3 Energy="-208.4066499"
C     8.664244857186486e-01   9.984884477701512e-01   3.310390500000000e+00 -1.14971752e+00  -1.63152400e-02  -8.26575300e-02
C     3.231088726795411e+00   3.745270708261727e-01   3.183532800000000e+00  1.83348108e+00  -8.27592300e-02   6.68384510e-01
C     4.645493983135752e+00   7.595560278564779e-01   3.247218000000000e+00 -1.78759043e+00   1.74519337e+00   2.96510980e-01
C     1.007766131239023e+01   7.498318117059364e+00   3.368665500000000e+00  6.20466660e-01  -2.04162325e+00   9.29479850e-01
C     7.007757660817604e+00   1.722006231191765e-01   3.530590500000000e+00  2.10398580e-01   7.56835930e-01  -1.03753160e+00
C     1.251659343976825e+01   6.938650832698781e+00   3.529662000000000e+00 -1.16967964e+00  -2.16059930e+00  -4.68529160e-01
C     4.979887805600406e+00   7.340949228039596e+00   3.412291200000000e+00 -1.97973510e-01  -1.46378112e+00  -5.49677030e-01
C     5.983825734721947e+00   6.323775178283015e+00   3.292093500000000e+00  4.76808450e-01  -5.00086400e-01   1.58827897e+00
C     7.370340816871039e+00   6.698714344349194e+00   3.346618500000000e+00 -7.35039750e-01  -4.45177760e-01  -8.08154860e-01
C     8.391794637845049e+00   5.687142065132847e+00   3.462949500000000e+00 -1.53647189e+00   3.86916200e-01  -7.02391700e-02
C     9.715341990541507e+00   6.064780247203146e+00   3.455949300000000e+00  1.59597277e+00   2.70367872e+00  -5.33709040e-01
C     1.074981786825028e+01   5.134508955574081e+00   3.413238300000000e+00  1.20909086e+00  -1.79845674e+00   4.02301260e-01
C     3.262708576422455e+00   5.510450573714567e+00   3.451335300000000e+00  9.14573000e-02   3.43226060e-01   8.04451200e-02
C     4.281338424711471e+00   4.489970448716300e+00   3.408051000000000e+00 -3.80271680e-01   7.62186770e-01  -2.28385940e-01
C     5.663540225032124e+00   4.926817957634976e+00   3.431301300000000e+00 -7.69894350e-01  -3.31761570e-01  -1.01993961e+00
C     6.693893772717042e+00   3.929463272077244e+00   3.395455800000000e+00 -5.23015000e-01   1.73989230e-01   1.93302013e+00
C     8.053117666143214e+00   4.313648719257862e+00   3.529955700000000e+00 -9.38305610e-01   2.91558290e-01  -1.12940261e+00
C     9.043648124188174e+00   3.323043267041635e+00   3.436767600000000e+00  4.34670490e-01   8.76811030e-01  -1.62269770e-01
C     1.038859937494142e+01   3.721372032216578e+00   3.371738100000000e+00  1.90815512e+00   2.78626050e-01   2.42497410e-01
C     2.531280408850460e+00   2.706685178124091e+00   3.308762700000000e+00  7.08098280e-01   1.81517769e+00  -8.18526800e-01
C     3.922421308272229e+00   3.081667678075239e+00   3.279268200000000e+00 -8.34552390e-01   2.93660671e+00   9.37048580e-01
C     4.963945919224350e+00   2.193001380253136e+00   3.344268000000000e+00  9.61089250e-01  -3.31985361e+00   1.87642090e-01
C     6.336391397817335e+00   2.548756874049343e+00   3.557829000000000e+00 -1.97929820e-01   5.55182390e-01  -2.31042358e+00
C     7.360618665000927e+00   1.557636418237510e+00   3.436445100000000e+00 -7.34179100e-01   1.03908120e-01   9.96932770e-01
C     8.709945811368019e+00   1.974720288947954e+00   3.346802700000000e+00  1.57312020e-01  -1.32690743e+00   6.39205340e-01
C     2.204518755010140e+00   1.357772612892112e+00   3.204107400000000e+00  7.47619820e-01  -2.42574910e-01   3.17699680e-01
