2
Lattice="2.475 0 0 1.2375 2.14341287436649 0 0 0 30 " PBC="1 1 1" Properties=species:S:1:pos:R:3:force:R:3 Energy="-16.12845972"
C     0.000000000000000e+00   0.000000000000000e+00   3.000000000000000e+00 -0.00000000e+00   0.00000000e+00   0.00000000e+00
C     1.237500000000000e+00   7.144709581221618e-01   3.000000000000000e+00  0.00000000e+00   0.00000000e+00   0.00000000e+00
