32
Lattice="9.86 0 0 4.93 8.53901048131456 0 0 0 30 " PBC="1 1 1" Properties=species:S:1:pos:R:3:force:R:3 Energy="-255.9756843"
C     1.239305174800000e+00   8.630424002792592e-01   3.338939100000000e+00  9.23693800e-01   3.89722000e-03   1.32310200e-01
C     2.503868711600000e+00   1.595367066427534e+00   3.220346400000000e+00 -1.56034910e+00   2.29183800e-02   6.34058480e-01
C     3.727461779200000e+00   8.610943104283519e-01   3.427115400000000e+00 -7.34006670e-01   2.98856545e+00  -9.07095000e-01
C     4.945678484600000e+00   1.636837453944493e+00   3.414341100000000e+00  2.36098590e-01  -3.80043506e+00   5.47423210e-01
C     6.184267083899999e+00   9.194035412217656e-01   3.504628800000000e+00 -9.25971820e-01  -2.31424988e+00  -6.94167540e-01
C     7.394342042200001e+00   1.604366329572406e+00   3.444547200000000e+00 -4.41499400e-01   1.23908791e+00   9.23982710e-01
C     8.620371860899999e+00   9.065439622190952e-01   3.453838500000000e+00 -1.16381798e+00  -1.47599570e+00  -3.71520650e-01
C     9.836505591999998e+00   1.539962209268683e+00   3.385507500000000e+00  2.51353116e+00   1.95732863e+00  -8.26024670e-01
C     2.450835567700000e+00   3.051695218401430e+00   3.066477900000000e+00  9.07538210e-01  -1.52223268e+00   1.67391720e-01
C     3.703203467700000e+00   3.750350566227064e+00   3.110763300000000e+00 -3.25641810e-01  -1.13061812e+00   2.04953270e-01
C     4.939248877200000e+00   2.983393637544320e+00   3.351342000000000e+00 -1.62111506e+00   4.53604154e+00  -7.10672900e-01
C     6.110436439199999e+00   3.765611400366816e+00   3.453561600000000e+00  2.18165365e+00   3.64726800e-02  -8.93942500e-02
C     7.340274239199999e+00   3.030970613015946e+00   3.525154500000000e+00  2.08197527e+00   5.04716490e-01  -9.11227580e-01
C     8.664062753400000e+00   3.698153559135235e+00   3.416668800000000e+00 -2.44857761e+00  -3.00204000e-03  -3.32602140e-01
C     9.864834801699999e+00   2.975377129115591e+00   3.246312000000000e+00 -3.45355050e-01   4.72344120e-01   5.15857460e-01
C     1.105931799410000e+01   3.746317079236732e+00   3.068677200000000e+00  1.10948588e+00  -1.59024344e+00   4.88458280e-01
C     3.667898357299999e+00   5.161213183850724e+00   3.077730600000000e+00  2.83013962e+00  -5.16001500e-02   1.01624062e+00
C     4.936688531000000e+00   5.886301807128143e+00   3.395937900000000e+00 -1.62001397e+00   1.06533744e+00  -6.83987260e-01
C     6.175335254999999e+00   5.234945233812694e+00   3.435954900000000e+00 -5.11452350e-01  -2.51457812e+00   8.47968090e-01
C     7.433171165899999e+00   5.890079550754599e+00   3.604260300000000e+00 -1.67401850e-01  -1.77042218e+00  -1.20298691e+00
C     8.653441955800000e+00   5.118245480846098e+00   3.390346800000000e+00 -4.91620030e-01   6.30667370e-01   1.65106905e+00
C     9.859173929199999e+00   5.834557282201648e+00   3.418929600000000e+00  9.46514170e-01   1.26994337e+00  -1.12267448e+00
C     1.112724200580000e+01   5.149936481220731e+00   3.164724600000000e+00 -3.70963813e+00  -2.17208340e-01  -6.82760300e-02
C     1.230227225630000e+01   5.829933493416833e+00   3.045346500000000e+00  1.81104263e+00   2.99791277e+00   1.76457580e+00
C     4.924141188000000e+00   7.326752779185840e+00   3.528866400000000e+00 -4.70434350e-01  -1.26564409e+00  -1.53062307e+00
C     6.192574133899999e+00   7.971709449536633e+00   3.483549900000000e+00 -9.22807830e-01   1.33135303e+00   8.07607940e-01
C     7.421129838100001e+00   7.278905714812733e+00   3.624260700000000e+00 -4.84495800e-02   1.09198014e+00  -8.66718270e-01
C     8.631769133499999e+00   8.025483697254224e+00   3.522322500000000e+00  7.27925000e-03  -1.63610534e+00   3.53537370e-01
C     9.825280968000000e+00   7.289717212151775e+00   3.464682000000000e+00  2.21294041e+00  -1.00542715e+00   1.04487340e-01
C     1.110270125460000e+01   7.971389151253528e+00   3.431112000000000e+00 -9.53899020e-01   1.68472523e+00   3.78431120e-01
C     1.233467897040000e+01   7.280680377360790e+00   3.359271900000000e+00 -1.31986235e+00  -1.02962466e+00  -1.40563884e+00
C     1.351779018110000e+01   8.026521016247333e+00   3.376627500000000e+00  2.02002134e+00  -5.05904830e-01   1.18525695e+00
