32
Lattice="9.86 0 0 4.93 8.53901048131456 0 0 0 30 " PBC="1 1 1" Properties=species:S:1:pos:R:3:force:R:3 Energy="-257.26654458"
C     9.859504781500000e+00   3.935980029661680e-02   3.604629300000000e+00 -1.88441341e+00   5.84391170e-01   1.72424810e-01
C     1.213422822700000e+00   7.330013827288152e-01   3.591094500000000e+00  1.55448328e+00   1.49102721e+00   5.18867890e-01
C     2.458684817900000e+00   4.258378909344560e-02   3.700545300000000e+00  6.69713700e-02  -3.22039040e-01  -2.07095630e-01
C     3.678063475000000e+00   7.774458222058529e-01   3.668760000000000e+00 -3.55839350e-01   1.20688540e+00   3.18768190e-01
C     4.919649169200000e+00   9.885441652486400e-02   3.706662600000000e+00 -1.34697689e+00  -1.50486938e+00  -1.26606010e-01
C     6.137721277699999e+00   7.636924649762408e-01   3.679842600000000e+00  2.08733040e-01   3.63650850e-01   5.37971210e-01
C     7.335748942900000e+00   2.959322167001200e-02   3.736633500000000e+00  2.50119344e+00   1.06790836e+00  -4.85061980e-01
C     8.597947953099998e+00   7.339946404278488e-01   3.638265900000000e+00 -1.45327320e-01   1.35647890e+00   1.86991640e-01
C     1.111796068920000e+01   2.192855975250741e+00   3.619258200000000e+00 -1.49147769e+00  -1.48408702e+00  -9.51172600e-02
C     2.441811991500000e+00   2.934200141998726e+00   3.664168200000000e+00  7.94143360e-01  -8.60104410e-01  -1.12486240e-01
C     3.672755294700000e+00   2.240871770470934e+00   3.670259700000000e+00 -1.94647200e-02  -2.30597079e+00   2.94454300e-02
C     4.911543263200000e+00   2.884465443968909e+00   3.705965700000000e+00  1.31973180e-01   2.09155749e+00  -2.12273140e-01
C     6.132860692100000e+00   2.168082683436270e+00   3.704495700000000e+00  8.81136280e-01   1.24812378e+00  -2.83189190e-01
C     7.375770830800000e+00   2.910636998749480e+00   3.680787000000000e+00 -3.07485390e-01  -8.88023250e-01  -1.06914770e-01
C     8.599659550500000e+00   2.193429369804472e+00   3.633417900000000e+00  9.41413180e-01  -1.41545923e+00   1.38248690e-01
C     9.880876430099999e+00   2.872821222327857e+00   3.640204500000000e+00 -1.50995928e+00   4.67351760e-01  -2.14923970e-01
C     1.230204996260000e+01   4.326939307609318e+00   3.687362100000000e+00 -5.34726950e-01   1.39161189e+00  -4.32925800e-02
C     3.651431072699999e+00   5.053701406160607e+00   3.715970700000000e+00  1.67487940e+00  -1.23101960e+00   1.20084270e-01
C     4.900275698900000e+00   4.353725414974135e+00   3.701991900000000e+00  7.63980920e-01  -9.39748270e-01   1.13090830e-01
C     6.150439248000000e+00   5.069138997817294e+00   3.714486600000000e+00 -4.08601630e-01  -6.35998590e-01   6.69563000e-03
C     7.391296238900001e+00   4.320715308260551e+00   3.679044600000000e+00 -1.52176042e+00   6.47907300e-01   3.04705850e-01
C     8.602407285999998e+00   5.021929199796309e+00   3.686025300000000e+00  1.28895603e+00  -2.48006690e-01   1.02975280e-01
C     9.840567271099999e+00   4.290952245672091e+00   3.663774600000000e+00  7.22556190e-01   1.23650617e+00  -1.67103660e-01
C     1.108165247170000e+01   5.048930831785641e+00   3.657780900000000e+00 -1.30203862e+00  -5.10000770e-01   5.30801250e-01
C     1.357461848830000e+01   6.442343981493420e+00   3.753431100000000e+00 -1.89437438e+00   1.66753928e+00  -3.82702790e-01
C     4.907185981300000e+00   7.175927127006237e+00   3.661048800000000e+00  1.23227762e+00  -3.30563430e-01   5.69010720e-01
C     6.156645279899999e+00   6.507270518458310e+00   3.738160800000000e+00 -5.42829280e-01  -2.31265188e+00  -2.05583360e-01
C     7.398093673600000e+00   7.134936204927731e+00   3.787360500000000e+00 -3.41624440e-01   2.36307266e+00  -7.05787230e-01
C     8.607307410200001e+00   6.441426977157973e+00   3.739751700000000e+00  1.04018472e+00   3.80521960e-01   1.72000000e-04
C     9.831654570600000e+00   7.208389968538158e+00   3.719465700000000e+00  1.18770880e-01  -1.13214760e+00   1.52990620e-01
C     1.105617645020000e+01   6.473724588837106e+00   3.731916000000000e+00  1.13769029e+00   1.71908280e-01  -9.64461700e-02
C     1.233335595560000e+01   7.180747996152931e+00   3.779088600000000e+00 -1.45244341e+00  -1.61575250e+00  -3.58660360e-01
