32
Lattice="9.756 0 0 4.878 8.44894383932098 0 0 0 30 " PBC="1 1 1" Properties=species:S:1:pos:R:3:force:R:3 Energy="-257.83052881"
C    -1.125448060330242e-03   6.831650232196823e-04   2.999006604459260e+00  7.22584700e-02  -3.83086000e-02   2.57164800e-02
C     1.219824125262336e+00   7.028930330558014e-01   3.001063790669511e+00 -3.39571000e-02   5.24060300e-02  -1.80201500e-02
C     2.438820914917053e+00  -6.022221466009206e-04   2.999243825382050e+00  2.60679200e-02   2.07532800e-02   1.41744300e-02
C     3.658292257279733e+00   7.028918861439029e-01   3.000362125122184e+00  1.74948100e-02   8.94650600e-02   6.92640000e-04
C     4.878900890371370e+00   2.659380807089887e-04   3.000751194485253e+00 -3.32053600e-02  -1.58810000e-03   3.64556000e-03
C     6.098296361134894e+00   7.035217889277362e-01   3.000820666039341e+00 -2.50526600e-02   6.78673700e-02   1.83275000e-03
C     7.316469618376867e+00  -8.821653181854667e-04   3.000523702748038e+00  5.89327100e-02   1.93934300e-02   1.75722000e-03
C     8.536433016785802e+00   7.042166725815961e-01   2.999720918823180e+00 -3.18057900e-02  -2.06301000e-02  -4.25612000e-03
C     1.220575956703879e+00   2.111214483887748e+00   3.001017715394076e+00 -7.27231300e-02   1.58135300e-02  -1.41499200e-02
C     2.438163263063351e+00   2.816178388826706e+00   2.999297826639213e+00  6.96149900e-02   1.26902000e-03   1.70164200e-02
C     3.657706576614115e+00   2.112272052278326e+00   3.000958277095251e+00  6.34096900e-02  -2.86911200e-02  -1.49759500e-02
C     4.879033358123370e+00   2.817134064795988e+00   2.999999164137068e+00 -9.04893700e-02  -8.18813100e-02   1.35227300e-02
C     6.098282830977465e+00   2.113295432553928e+00   3.000719046159965e+00 -1.37699100e-02  -9.03860200e-02  -1.16156700e-02
C     7.316906306064226e+00   2.815955323543143e+00   2.999045356925671e+00  6.15416200e-02   2.38287200e-02   1.95888000e-02
C     8.537682369963983e+00   2.111384890956980e+00   2.999459547183709e+00 -6.50602900e-02   6.78411900e-02  -6.10950000e-03
C     9.756485676958908e+00   2.816674860084954e+00   2.999325705631234e+00  3.58289000e-02  -8.09772100e-02   1.86407100e-02
C     2.439736208577826e+00   4.224501461586005e+00   2.998972357541815e+00 -7.38187500e-02   7.97664000e-03  -4.46317000e-03
C     3.657363815657122e+00   4.928711915975457e+00   2.999145553812601e+00  1.05458710e-01  -5.26580900e-02  -6.19370000e-04
C     4.877368867338769e+00   4.223334091348970e+00   3.000380299699564e+00  3.69624300e-02   9.79025300e-02  -5.82230000e-03
C     6.098364449975744e+00   4.927818272437983e+00   3.000748901017636e+00 -1.12619780e-01   3.62831900e-02  -1.76804000e-03
C     7.315964513984357e+00   4.224803707529381e+00   3.000806926545907e+00  8.57615800e-02  -5.47312300e-02  -1.83032700e-02
C     8.535991521031839e+00   4.928491293411501e+00   2.999204945440922e+00  5.74803000e-02  -5.23313400e-02   1.54188200e-02
C     9.757104789354459e+00   4.223352652686018e+00   3.000857073082267e+00 -5.17747300e-02   1.01237180e-01  -2.69940100e-02
C     1.097632780188388e+01   4.929675537498192e+00   2.999002505904132e+00 -2.94416900e-02  -1.06743560e-01   1.18780700e-02
C     3.659630012933277e+00   6.335761832980729e+00   2.998888929835920e+00 -2.42530200e-02   6.74049700e-02   2.09589900e-02
C     4.878597023412479e+00   7.041677703582710e+00   3.001062917752221e+00 -1.23253400e-02  -6.41298800e-02  -2.79090000e-02
C     6.097816891794401e+00   6.336296625128164e+00   2.999928586074271e+00  2.35241700e-02   4.71701900e-02   8.26279000e-03
C     7.317736893356940e+00   7.041866531825036e+00   2.999180071422650e+00 -2.88215500e-02  -1.28656850e-01  -3.03985000e-03
C     8.536789465397868e+00   6.335545273387905e+00   2.998972532550585e+00  2.48699100e-02   1.04488160e-01   8.38858000e-03
C     9.756878310401831e+00   7.041936256044793e+00   3.000956300127765e+00 -3.01490100e-02  -9.79001200e-02  -1.44591100e-02
C     1.097577082905347e+01   6.336034381103207e+00   2.999997227351526e+00  2.20959600e-02   8.39987700e-02   5.10715000e-03
C     1.219614963450122e+01   7.040024604281462e+00   3.000689603753348e+00 -3.20347000e-02  -5.48571000e-03  -1.40967100e-02
