32
Lattice="9.728 0 0 4.864 8.42469512801502 0 0 0 30 " PBC="1 1 1" Properties=species:S:1:pos:R:3:force:R:3 Energy="-257.66109005"
C     2.229684199258220e-03   8.433711275722124e-04   3.002102085110997e+00 -2.84558000e-02  -1.70987450e-01  -4.03884600e-02
C     1.218556232834681e+00   7.050045973505837e-01   3.000377104963623e+00 -6.09796200e-02  -2.26312760e-01   5.97728000e-03
C     2.436160945904273e+00  -8.725222076583043e-04   3.003533714996448e+00 -1.71965210e-01   1.44293310e-01  -5.59303200e-02
C     3.650320415728774e+00   7.022761119114422e-01   2.997747658539579e+00 -4.36877000e-02  -2.15774800e-02   5.95966000e-02
C     4.863902734538259e+00   1.325355878945457e-03   2.999639931892210e+00  7.49619700e-02  -2.12013110e-01  -2.03350000e-02
C     6.077460868212850e+00   7.049792269793609e-01   3.001602504303317e+00  1.58014940e-01  -2.48713120e-01  -3.68348300e-02
C     7.296661990668831e+00   8.200939001238407e-04   3.002243411252485e+00 -1.71060030e-01  -1.39550800e-02  -1.54760100e-02
C     8.510152176805226e+00   6.999091824022406e-01   3.000841577649980e+00  2.32670520e-01   1.94304800e-01   2.45649200e-02
C     1.213600193683539e+00   2.105437528082469e+00   2.996012052792756e+00  8.56511700e-02   1.35593380e-01   3.94402600e-02
C     2.429923979475205e+00   2.806061521979298e+00   2.996639061594760e+00  8.71163500e-02   1.11968920e-01   3.04619400e-02
C     3.648278043388833e+00   2.104710022942828e+00   3.002080545788127e+00 -9.50466000e-03   1.82153830e-01  -4.11443800e-02
C     4.865942845539128e+00   2.810469169688270e+00   3.002379200169901e+00 -1.69508360e-01  -2.43446440e-01  -6.68897100e-02
C     6.077160873435036e+00   2.103879709516279e+00   2.996024970524215e+00  1.08928300e-01   2.15915630e-01   9.36316300e-02
C     7.292238789530596e+00   2.808984993554784e+00   3.003375590963511e+00  2.36365120e-01  -1.21497130e-01  -3.61355800e-02
C     8.513494920118895e+00   2.107716016389525e+00   3.003337626726957e+00 -2.40591560e-01  -6.30780200e-02   2.04560000e-04
C     9.726499605848662e+00   2.811872644099742e+00   3.002705807792104e+00  7.63644300e-02  -1.99605660e-01  -2.48404300e-02
C     2.431456733181586e+00   4.213604055042978e+00   3.000025307227193e+00  7.00697800e-02  -1.26535930e-01   8.12654000e-03
C     3.646086742691418e+00   4.915119212737133e+00   3.004351658060711e+00  2.03777570e-01  -1.03418330e-01  -6.16122900e-02
C     4.868657651288150e+00   4.209361526493175e+00   2.996795375028722e+00 -3.87405500e-01   3.19658440e-01   6.48076800e-02
C     6.077455920334929e+00   4.916840078605786e+00   2.997241956886613e+00  3.51331010e-01  -3.02526310e-01   1.98532600e-02
C     7.298491633027297e+00   4.211014926497048e+00   3.002426940534241e+00 -2.35960170e-01   1.56975930e-01  -2.69941200e-02
C     8.512910485867433e+00   4.915400852556432e+00   2.999926082626641e+00  4.12875300e-02  -1.98595610e-01   4.29684400e-02
C     9.730453359398885e+00   4.211869184426581e+00   3.003040083501611e+00 -5.33165400e-02   2.48743100e-01  -3.76495100e-02
C     1.094683162954824e+01   4.918701537395263e+00   2.999248795777149e+00 -1.32457340e-01  -3.34398810e-01   3.63335600e-02
C     3.645029538706266e+00   6.320513408931723e+00   3.002242008044636e+00  2.71431080e-01  -1.63093980e-01  -1.46274000e-02
C     4.866676441124797e+00   7.016301904244624e+00   2.997255572772723e+00 -1.60164420e-01   2.99900190e-01   6.11829900e-02
C     6.079612830724554e+00   6.315056989821080e+00   2.999958703514293e+00  1.24901820e-01   2.73662460e-01  -2.65982600e-02
C     7.297421475195537e+00   7.023076089717398e+00   3.001543884630821e+00 -6.63114300e-02  -2.46084550e-01   9.18481000e-03
C     8.511617233834155e+00   6.316124455277225e+00   3.000413808631825e+00  9.04150500e-02   2.14062510e-01  -2.78896500e-02
C     9.730312121910778e+00   7.017716956853734e+00   2.996713770702250e+00 -1.16088590e-01   1.46006770e-01   5.95317100e-02
C     1.094567616166207e+01   6.316057374443055e+00   3.002048862553098e+00  3.15927700e-02   2.77269360e-01  -4.45346300e-02
C     1.216218791128042e+01   7.021113948131818e+00   3.001377719419764e+00 -1.97422490e-01   7.53311400e-02   2.20144000e-02
