2
Lattice="2.433 0 0 1.2165 2.10703980740754 0 0 0 30 " PBC="1 1 1" Properties=species:S:1:pos:R:3:force:R:3 Energy="-16.10617329"
C     0.000000000000000e+00   0.000000000000000e+00   3.000000000000000e+00 -0.00000000e+00   0.00000000e+00   0.00000000e+00
C     1.216500000000000e+00   7.023466024691796e-01   3.000000000000000e+00  0.00000000e+00  -0.00000000e+00  -0.00000000e+00
