52
Lattice="8.88768389401873 1.33226762955019e-15 0 4.44384194700937 7.69696003302603 0 0 0 30 " PBC="1 1 1" Properties=species:S:1:pos:R:3:force:R:3 Energy="-417.95446778"
C     1.304221253181998e+01   7.445542986978466e+00  -2.128256999999998e-01  2.63032058e+00  -3.11541210e-01  -8.29071400e-02
C     9.368464843353479e+00   7.179708922063940e+00  -1.804242000000009e-01 -3.67839600e-01   1.55962720e-01   1.73811660e-01
C     1.070117037608763e+01   6.769945707007629e+00  -1.483023000000010e-01  4.62610360e-01   2.69080840e+00   2.78687340e-01
C     1.102880986473216e+01   5.450170445786817e+00  -1.034190000000024e-01  1.56081904e+00  -3.14808294e+00  -2.21758050e-01
C     6.951116455595487e+00   6.651274977869893e+00  -2.009954999999977e-01  5.38186870e-01  -2.10489037e+00   2.19542000e-02
C     8.372251598967152e+00   6.227443875027551e+00  -1.858997999999978e-01 -3.37343970e+00  -9.62748760e-01  -4.85142900e-02
C     8.635119824842333e+00   4.812860308032409e+00  -1.725899999999996e-01  2.53660488e+00   2.03124811e+00   7.90065230e-01
C     1.004245052873996e+01   4.420966201442547e+00  -6.729329999999933e-02 -1.42508862e+00   4.48339600e-01  -8.27349050e-01
C     1.033850278885451e+01   3.040921049250824e+00  -1.497008999999991e-01  1.77009329e+00   1.41726101e+00  -4.75945900e-01
C     4.510719903784792e+00   6.043897163128151e+00  -2.201175000000006e-01  9.34717950e-01   3.56921700e-01   2.63251390e-01
C     5.887092493896946e+00   5.653868029953557e+00  -1.885610999999976e-01  9.02771590e-01   3.20309100e-01   7.87706000e-02
C     6.237904929578992e+00   4.263701606231185e+00  -1.300914000000013e-01  2.24063240e-01  -1.49304720e-01  -7.01841850e-01
C     7.623903592379863e+00   3.906208446738604e+00  -1.443288000000003e-01 -1.06360353e+00  -4.16089128e+00  -1.51449900e-01
C     8.012836948408975e+00   2.394947367225849e+00  -1.862865000000014e-01 -4.94602058e+00   5.08219280e+00   5.40096910e-01
C     9.311970010785336e+00   2.113815209403696e+00  -2.248644000000013e-01  2.85386733e+00  -2.96295448e+00   3.97539100e-02
C     3.533621045596867e+00   5.035498340532173e+00  -1.823553000000011e-01 -1.43071244e+00  -3.06705490e-01   1.65933550e-01
C     3.842372961641272e+00   3.626228062015341e+00  -2.283356999999988e-01  7.78490700e-01   1.04096191e+00  -8.45052200e-02
C     5.229045844125237e+00   3.242873270761161e+00  -2.178380999999980e-01 -6.28382580e-01  -7.79149600e-02   5.76373670e-01
C     5.553171453575544e+00   1.841417484853987e+00  -1.620923999999988e-01  1.39973506e+00   1.86034755e+00  -1.62074910e-01
C     6.932506753138711e+00   1.491845574806681e+00  -1.331579999999981e-01  3.83832800e-02  -1.08525977e+00  -2.60068670e-01
C     7.251911224918806e+00   1.091043314556497e-01  -1.439568000000016e-01  9.66412700e-02  -3.15096780e-01  -2.24710400e-01
C     2.824113195205001e+00   2.638672607180603e+00  -2.830428000000005e-01  6.05118400e-01   2.42234110e-01   5.57877780e-01
C     3.244699193173965e+00   1.274556698618967e+00  -3.241496999999995e-01 -2.24763463e+00  -2.56197550e-01   8.74742460e-01
C     4.573591642876384e+00   8.457010202690404e-01  -1.971822000000003e-01 -8.23049600e-02   9.67396110e-01  -4.75331970e-01
C     8.141732587003236e-01   7.398990695142622e-01  -2.689013999999972e-01 -1.48887895e+00  -1.66180897e+00   4.28713480e-01
C     2.180008433011976e+00   3.085537324730321e-01  -2.433125999999994e-01 -2.73338610e-01   9.45671990e-01  -5.82327040e-01
C     2.372451231856296e-01   2.610132279389363e-01   3.532525800000000e+00 -2.52750440e-01   7.20312340e-01   5.31766480e-01
C     7.052225903151877e+00   7.414765614724107e+00   3.558626400000000e+00  1.21974545e+00   1.63992930e-01   2.33472710e-01
C     3.995152912010048e+00   1.216248993668504e-01   3.582353400000000e+00  4.25526100e-02  -2.90711330e-01   3.58234790e-01
C     9.498262533951635e+00   6.838177872220774e+00   3.607186500000000e+00 -4.41104800e-01   9.73204000e-02   5.64868430e-01
C     1.087147106469189e+01   7.266124308682356e+00   3.632535600000000e+00 -1.03739061e+00  -3.10226150e+00  -1.09776120e-01
C     1.184844682710151e+01   6.186439167133329e+00   3.628602600000000e+00 -1.13737328e+00   9.69275930e-01  -5.53474320e-01
C     4.304538213955830e+00   6.577039953529352e+00   3.585825300000000e+00  8.00311310e-01   6.95954610e-01  -2.80368840e-01
C     5.317545313515033e+00   5.625488799535745e+00   3.552551400000000e+00  2.27289147e+00  -1.30732852e+00  -2.19230830e-01
C     6.748310618436069e+00   6.044015311464612e+00   3.556264800000000e+00 -2.26935574e+00  -7.80569610e-01   5.91277710e-01
C     7.754454337408879e+00   5.065371396952608e+00   3.705638700000000e+00  1.33982480e+00  -5.12478280e-01  -1.08445831e+00
C     9.162591865759790e+00   5.458187445414865e+00   3.713042400000000e+00 -9.85463390e-01  -1.42471090e+00  -7.59377680e-01
C     1.015481778276013e+01   4.372299862564862e+00   3.620039700000000e+00 -1.05673410e+00   3.05704463e+00   5.33196590e-01
C     1.147047562738378e+01   4.810748339169778e+00   3.545940900000000e+00  2.25237863e+00  -1.21549800e-01   3.80995170e-01
C     3.631933626615345e+00   3.806143348172587e+00   3.512096700000000e+00 -1.57581130e-01   2.50086683e+00   1.60016230e-01
C     4.998341923766288e+00   4.211677776418814e+00   3.512223900000000e+00 -2.77441550e-01   1.72141035e+00   4.61791300e-02
C     6.024362681148011e+00   3.262965954010675e+00   3.508263600000000e+00  1.89554348e+00   3.03829300e-01   5.03802110e-01
C     7.429567762647611e+00   3.670829790240382e+00   3.585324300000000e+00 -7.25164320e-01  -3.84592370e-01   3.05033520e-01
C     8.447881831532088e+00   2.656620840396159e+00   3.597269700000000e+00  6.55025790e-01   2.65853630e-01  -5.22180700e-02
C     9.837689356174653e+00   3.026052369743271e+00   3.649861500000000e+00 -1.12084209e+00  -8.45477120e-01  -5.98743810e-01
C     1.979263606818309e+00   2.025896298613020e+00   3.593572500000000e+00 -2.13592528e+00   2.00597269e+00   2.21314510e-01
C     3.296012725716214e+00   2.476391364330488e+00   3.571306200000000e+00  1.06597106e+00  -1.85235519e+00   9.49318300e-02
C     4.334248893576157e+00   1.506324480258314e+00   3.632767500000000e+00  3.25748500e-01  -6.78409820e-01  -7.33818080e-01
C     5.702591195174545e+00   1.903487925684716e+00   3.586888800000000e+00  3.63717520e-01  -1.19684243e+00  -6.22943800e-02
C     6.751511958833263e+00   9.024714113927111e-01   3.605628000000000e+00  4.01786900e-01   1.55149396e+00  -4.48576250e-01
C     8.144899975804789e+00   1.267338027685231e+00   3.527265300000000e+00 -1.86761892e+00   6.01408330e-01   5.57978370e-01
C     1.582086122248282e+00   7.025355625014326e-01   3.596424300000000e+00  8.10412360e-01  -2.14750966e+00  -6.52323750e-01
