52
Lattice="8.88768389401873 1.33226762955019e-15 0 4.44384194700937 7.69696003302603 0 0 0 30 " PBC="1 1 1" Properties=species:S:1:pos:R:3:force:R:3 Energy="-417.58515652"
C     1.273979566671620e+01   6.916229972979393e+00  -1.081445999999993e-01 -2.32527234e+00   2.36216005e+00  -5.88369400e-01
C     8.928355846756920e+00   6.810646077102265e+00  -3.428196000000021e-01 -1.13465560e-01  -2.78521530e-01   2.97339230e-01
C     1.033188808788060e+01   6.427030897690270e+00  -4.128852000000016e-01 -2.01917024e+00  -2.61007494e+00   9.83755880e-01
C     1.064641339892916e+01   4.998717955211216e+00  -3.604565999999991e-01  4.13734000e-02   7.00594660e-01   5.43781290e-01
C     6.544630678037249e+00   6.162083753480001e+00  -2.741349000000000e-01 -1.50549148e+00   1.76945357e+00   1.04084824e+00
C     7.863359128041603e+00   5.790123618823833e+00  -3.024447000000023e-01  3.64793892e+00   9.14587860e-01  -9.59168090e-01
C     8.282609040510751e+00   4.455823116452006e+00  -4.037885999999986e-01 -2.40931054e+00  -2.88836433e+00   1.11526406e+00
C     9.605244427431408e+00   4.014740432246424e+00  -3.854922000000016e-01  1.72903436e+00   6.95360350e-01  -1.21635360e-01
C     1.001159853274473e+01   2.644220575970227e+00  -2.952456000000012e-01 -1.65222308e+00  -6.29297690e-01   4.36255110e-01
C     4.171898374500385e+00   5.587726820902162e+00  -9.110130000000183e-02 -1.23977100e-01  -1.77961710e+00  -1.63080280e-01
C     5.538984312588196e+00   5.190738250407643e+00  -1.782740999999994e-01 -5.74235810e-01  -1.64191883e+00   5.70319680e-01
C     5.869702628182847e+00   3.771457536584593e+00  -1.074452999999984e-01  1.18285611e+00   1.86203741e+00  -6.95296790e-01
C     7.247837201619009e+00   3.370366640333285e+00  -2.292461999999986e-01 -4.39164950e-01   4.45904333e+00  -5.32882140e-01
C     7.565596118778947e+00   2.067793545992320e+00  -2.483258999999975e-01  2.21644761e+00  -4.31390503e+00   6.45666720e-01
C     8.975313521277133e+00   1.627778968930101e+00  -2.272967999999977e-01 -1.22359960e+00   1.35613185e+00  -3.15390190e-01
C     3.106047104996393e+00   4.593910196961421e+00  -1.083432000000002e-01  1.01302621e+00   1.55437712e+00  -1.07071647e+00
C     3.509000027026627e+00   3.263956937614538e+00  -1.496978999999996e-01 -7.27104990e-01  -2.25214331e+00   6.04482380e-01
C     4.864247125752150e+00   2.810604760333933e+00  -9.947850000000003e-02 -2.19519070e-01   7.69144090e-01  -4.35631470e-01
C     5.225723360095724e+00   1.455770000115671e+00  -2.342675999999990e-01 -1.83701854e+00  -1.31069584e+00   1.15805313e+00
C     6.564514556593457e+00   1.005344053099272e+00  -1.853642999999998e-01  4.66743700e-01   2.22581374e+00  -6.15836050e-01
C     1.134252075502396e+01   7.341549360013136e+00  -2.196864000000005e-01  1.68621582e+00   4.01658720e-01   3.85812400e-02
C     2.479700512918916e+00   2.269757620821104e+00  -1.710828000000006e-01 -5.89903760e-01  -5.99014190e-01  -2.53226520e-01
C     2.739501732399849e+00   8.566096138411582e-01  -1.344923999999992e-01  2.26989987e+00   1.09078196e+00  -1.74749040e-01
C     4.147103510673440e+00   4.913800858832240e-01  -1.826355000000000e-01 -5.10742100e-02  -8.83152880e-01  -7.85221210e-01
C     3.698359908504410e-01   2.460285552437314e-01  -1.587857999999969e-01  1.28395690e+00   3.02609770e-01   2.29810770e-01
C     6.183154399293252e+00   7.575410714780644e+00  -1.570380000000000e-01  2.56643260e-01  -1.29060763e+00  -4.28636680e-01
C     6.224852923475632e-01   7.455321666818180e-01   3.725118000000000e+00  3.40495530e-01   2.95021340e-01   1.74571850e-01
C     3.056076410478108e+00   1.055120832400484e-01   3.821686800000000e+00 -1.54899725e+00   1.08061545e+00  -4.45244850e-01
C     4.396002475895436e+00   5.228118536793338e-01   3.705230100000000e+00  2.04561690e-01  -1.24656345e+00  -5.73929750e-01
C     9.839533020034992e+00   7.204265072434850e+00   3.491030400000000e+00 -6.42183240e-01   7.84332320e-01   9.01484170e-01
C     1.118348027355691e+01   7.570739429738437e+00   3.472428000000000e+00  1.84037315e+00   1.66695448e+00  -3.05536720e-01
C     1.227453887973346e+01   6.635543930960579e+00   3.469805400000000e+00 -9.23658500e-02   1.38010704e+00   5.93944520e-01
C     4.741753291888217e+00   7.080417214041736e+00   3.623941500000000e+00 -1.49972300e-01  -1.22056844e+00   2.16029300e-02
C     5.760661902375917e+00   6.049892171356317e+00   3.665538300000000e+00 -5.75793890e-01   1.42274664e+00   5.48550880e-01
C     7.113777735054904e+00   6.443645709550228e+00   3.672406200000000e+00  1.00991390e+00  -6.05451220e-01   5.65668200e-02
C     8.122389474936590e+00   5.417993689229403e+00   3.544767000000000e+00  3.69271140e-01   2.48353253e+00   2.52987640e-01
C     9.492044087521300e+00   5.848320179671462e+00   3.519365700000000e+00  8.10694600e-02  -9.50999240e-01  -7.84132100e-01
C     1.055115160341732e+01   4.895827533526986e+00   3.447460500000000e+00  7.55651550e-01  -9.33926100e-02   1.22546060e+00
C     3.083878555519402e+00   5.286383677554835e+00   3.532737300000000e+00 -2.71886684e+00  -9.72326900e-01  -1.86870820e-01
C     4.053537087839404e+00   4.294481749391156e+00   3.714365100000000e+00  5.49571170e-01  -5.93894260e-01  -6.39587620e-01
C     5.413584780697822e+00   4.697881271833862e+00   3.763722300000000e+00  7.34932600e-01  -1.70890791e+00  -1.94286970e+00
C     6.446209398229991e+00   3.674110619453170e+00   3.518528400000000e+00 -2.02558922e+00   8.01582660e-01   1.83322804e+00
C     7.773096875867859e+00   4.082982680477207e+00   3.502705500000000e+00  1.78915168e+00  -1.63782551e+00   3.05885700e-01
C     8.827278437379547e+00   3.089355863570805e+00   3.628244400000000e+00 -7.32177560e-01   9.79811960e-01  -5.47329600e-01
C     1.021238579932421e+01   3.536504214097630e+00   3.647970900000000e+00 -1.52016464e+00  -1.28516924e+00  -5.56579140e-01
C     2.307344281275623e+00   2.529498079449480e+00   3.730103700000000e+00  1.97844683e+00  -6.25169830e-01   3.02295850e-01
C     3.696509848522890e+00   2.917519152721847e+00   3.654371400000000e+00  3.87021000e-03  -1.14703183e+00   9.25759040e-01
C     4.718711968021887e+00   1.874956526367110e+00   3.665298600000000e+00  1.70027060e-01   2.63105034e+00   1.81681960e-01
C     6.095220584671408e+00   2.309164439813097e+00   3.620425200000000e+00 -6.75026350e-01  -1.31550230e+00  -1.12286742e+00
C     7.089512621583554e+00   1.281617197024086e+00   3.510913200000000e+00 -3.23317800e-01   2.90120020e-01   6.55923470e-01
C     8.427837393007792e+00   1.719500331914798e+00   3.631688700000000e+00  2.48475213e+00  -5.06487970e-01  -6.76297600e-02
C     2.022251733426792e+00   1.126356890204537e+00   3.888122099999999e+00 -1.29335816e+00   1.22910370e-01  -1.29512057e+00
