52
Lattice="8.88768389401873 1.33226762955019e-15 0 4.44384194700937 7.69696003302603 0 0 0 30 " PBC="1 1 1" Properties=species:S:1:pos:R:3:force:R:3 Energy="-417.40252635"
C     4.351153449959630e+00   7.465335103938808e+00  -1.961633999999997e-01 -2.02512383e+00   2.58971228e+00  -1.72298480e-01
C     9.434867040633680e+00   7.395529218277931e+00  -1.884096000000000e-01 -4.72500250e-01  -3.11462524e+00  -1.29454885e+00
C     1.076432754667166e+01   6.997041664817568e+00  -4.180841999999991e-01  1.84383746e+00  -2.61268265e+00   9.04652400e-01
C     1.114479551715038e+01   5.546719188163129e+00  -4.220213999999984e-01 -4.81546920e-01   1.58959777e+00   8.48184560e-01
C     7.027901689470600e+00   6.698408236248802e+00  -6.032220000000166e-02  1.25047324e+00   2.20783758e+00  -1.05326704e+00
C     8.422900954214468e+00   6.385826145804868e+00  -2.187758999999971e-01 -7.15027900e-01  -1.31008063e+00   1.05488383e+00
C     8.774476130925388e+00   4.991711797343909e+00  -2.512329000000015e-01 -1.26042450e+00  -3.51189510e-01  -4.72882800e-01
C     1.011187862684680e+01   4.589759611265243e+00  -3.402068999999983e-01  6.80226200e-01  -1.45996581e+00   6.37461140e-01
C     1.045897396646795e+01   3.157135678442986e+00  -1.599257999999999e-01  4.36974070e-01   3.36623788e+00  -4.59879870e-01
C     4.687698353413357e+00   6.129902609655369e+00  -2.913527999999985e-01 -1.00016721e+00  -1.37830810e+00   7.24126490e-01
C     6.033303026168051e+00   5.730600794793435e+00  -2.347871999999995e-01  4.52556000e-01  -5.63666660e-01   5.24951450e-01
C     6.389417143040996e+00   4.335563734764079e+00  -2.649864000000015e-01  3.65146250e-01   2.39410549e+00   2.07257790e-01
C     7.731930590469643e+00   3.948165422527738e+00  -2.415936000000016e-01  1.31809491e+00   2.77721813e+00  -2.17977390e-01
C     8.072891695180457e+00   2.626567444202221e+00  -2.627802000000017e-01  9.67507560e-01  -2.52531552e+00  -1.23941370e-01
C     9.469717956597686e+00   2.213172649464556e+00  -1.758273000000017e-01 -2.50562696e+00  -1.91415694e+00   7.43915340e-01
C     3.618120789134192e+00   5.152972269354844e+00  -2.617289999999990e-01  6.23170920e-01   1.61177780e-01  -1.01984364e+00
C     3.981836808675798e+00   3.768753440586854e+00  -1.828571999999973e-01  2.09451460e-01   1.46567931e+00   2.47604650e-01
C     5.389246657431974e+00   3.428445976479658e+00  -2.157105000000001e-01 -3.15296410e+00  -4.33464812e+00  -5.06189100e-01
C     5.659299153672388e+00   1.967051961609266e+00  -3.114512999999981e-01  9.38697870e-01   2.30376635e+00   8.49483900e-01
C     7.053849501479166e+00   1.617822643252895e+00  -3.475724999999983e-01 -1.57481700e-01  -1.16389119e+00   6.26024220e-01
C     7.391592064719214e+00   1.957618644366098e-01  -3.151166999999973e-01  8.88203930e-01   1.48151824e+00  -2.90001930e-01
C     2.929450069239148e+00   2.841021145162885e+00  -5.620470000000211e-02  9.78881620e-01  -2.83766911e+00  -3.24383540e-01
C     3.241668715246422e+00   1.408253894944870e+00   9.045000000000000e-04  1.47789007e+00   1.24721331e+00  -5.55894030e-01
C     4.624290813589439e+00   1.000291691565979e+00  -1.594757999999992e-01 -6.15171630e-01   3.22108937e+00   2.74782440e-01
C     8.734155821759060e-01   7.998513839143349e-01  -1.390920000000051e-02  3.78705880e-01   6.49490280e-01  -1.26492527e+00
C     2.243504490918657e+00   4.370176117353385e-01  -1.339229999999958e-02 -3.97200480e-01  -1.82030872e+00   5.70328480e-01
C     1.618333030857425e-01   1.887928059166469e-01   3.713874000000000e+00 -9.26786960e-01   1.62169564e+00  -8.08717030e-01
C     6.949040381915196e+00   7.266377230788941e+00   3.608954100000000e+00  2.09009787e+00   3.73053280e-01  -1.35054057e+00
C     3.904144228735949e+00   1.823640739907900e-03   3.524695800000000e+00 -9.85450440e-01  -2.55382357e+00   2.14028080e-01
C     9.350197319719774e+00   6.628149769338159e+00   3.503268900000000e+00 -8.94022760e-01   2.08809414e+00   1.26452460e-01
C     1.070537669484150e+01   7.017527431815815e+00   3.617118300000000e+00  4.12588420e-01   1.40400759e+00   3.49682210e-01
C     1.177104287708733e+01   6.100732054776874e+00   3.710277000000000e+00  7.23181210e-01   6.65627280e-01  -7.21302180e-01
C     4.251723019114522e+00   6.562069289301402e+00   3.699247800000000e+00  2.04269920e-01  -3.65383612e+00   8.36380370e-01
C     5.280625696797248e+00   5.494568897297467e+00   3.734592000000000e+00 -7.74549870e-01   1.43919685e+00  -1.55517630e-01
C     6.635208886072776e+00   5.867237229245994e+00   3.541635000000000e+00 -6.27050360e-01   7.04061820e-01   7.14678550e-01
C     7.624790761603537e+00   4.857206343245254e+00   3.450962100000000e+00  6.02060030e-01   1.45052856e+00   3.49287050e-01
C     8.980205127104899e+00   5.273655291722823e+00   3.434992800000000e+00  1.09980003e+00   3.32025040e-01   3.18727410e-01
C     1.006207155735712e+01   4.362700752802648e+00   3.513503100000000e+00 -7.28473900e-02  -1.61481737e+00  -6.82236850e-01
C     1.146166473303920e+01   4.743956583056647e+00   3.611757900000000e+00 -1.07277057e+00  -1.73573605e+00   8.16196200e-01
C     3.559636406439419e+00   3.705519912125993e+00   3.770150400000000e+00 -2.14455500e-02   9.11216290e-01  -1.26305468e+00
C     4.940791637539668e+00   4.136307835321849e+00   3.882861600000000e+00 -1.01763135e+00  -1.64868847e+00  -1.72668347e+00
C     5.928503499928029e+00   3.105456595470360e+00   3.698355000000000e+00  9.25159090e-01   1.11116417e+00   7.36633070e-01
C     7.300482464030894e+00   3.518578763883763e+00   3.573954900000000e+00 -6.11314380e-01  -1.90992039e+00   3.13311230e-01
C     8.324120433323902e+00   2.511670996384796e+00   3.635443500000000e+00  3.99965800e-01   2.05721271e+00  -1.14071124e+00
C     9.703589581931579e+00   2.970475392272252e+00   3.460275600000000e+00 -1.08545970e-01  -1.26624029e+00   1.51306120e+00
C     1.830233545711526e+00   1.951605317373060e+00   3.544859400000000e+00  5.42138870e-01   1.24054959e+00  -1.06254462e+00
C     3.203554238993079e+00   2.334300248243868e+00   3.495071100000000e+00  2.11503640e-01   1.16693791e+00   1.89473869e+00
C     4.221819070136265e+00   1.362360539857195e+00   3.577232100000000e+00  9.00803910e-01  -2.25084210e-01   3.75177300e-02
C     5.607498798872399e+00   1.730930625437749e+00   3.707483400000000e+00 -1.07678223e+00  -5.65835900e-02  -5.33221680e-01
C     6.598117333851223e+00   7.195666259598136e-01   3.711181800000000e+00  5.08415200e-01   3.68433140e-01  -3.31893000e-01
C     7.966676717157872e+00   1.161753054233698e+00   3.704153100000000e+00  8.99457540e-01  -1.31978216e+00   1.64703760e-01
C     1.526531476536652e+00   5.876477352792409e-01   3.577085100000000e+00 -1.29025774e+00  -9.44193370e-01   8.67878140e-01
