52
Lattice="8.88768389401873 1.33226762955019e-15 0 4.44384194700937 7.69696003302603 0 0 0 30 " PBC="1 1 1" Properties=species:S:1:pos:R:3:force:R:3 Energy="-419.22977083"
C     1.263017230732486e+01   6.936366451931478e+00  -2.319275999999988e-01  5.71626120e-01  -1.80212821e+00   3.07642000e-02
C     8.882418874827518e+00   6.658692846129205e+00  -3.742079999999959e-02 -2.01438580e-01   1.92048123e+00   7.64976900e-02
C     1.026061526213797e+01   6.308148733060509e+00  -4.420499999998384e-03 -7.23351740e-01  -1.09374440e+00  -7.06060710e-01
C     1.057793659411936e+01   4.909785200845389e+00  -4.688219999999887e-02  5.70215380e-01   9.24384480e-01  -9.54707400e-02
C     6.497510133300972e+00   6.097502410348286e+00  -1.823997000000013e-01 -7.41051630e-01   1.20907643e+00   9.47670100e-02
C     7.844374990745260e+00   5.684084524730530e+00  -2.650979999999947e-02  3.46811350e-01   5.21301530e-01  -1.67775820e-01
C     8.171562185121884e+00   4.310815545240419e+00   3.516900000000000e-02  7.46500720e-01  -2.66822300e-02  -3.46329860e-01
C     9.564628645206870e+00   3.931542836738149e+00  -5.934599999999790e-03 -5.67817000e-01  -2.42987750e-01  -1.76432260e-01
C     9.917557016244693e+00   2.562411512051364e+00  -1.436912999999969e-01 -3.15801800e-01  -7.05170210e-01   5.91454860e-01
C     4.071906198132969e+00   5.512593946174121e+00  -2.572748999999988e-01  6.63771560e-01   2.42595773e+00  -8.86047000e-02
C     5.444789616889405e+00   5.159875595836152e+00  -2.648282999999978e-01  7.87976500e-02  -1.95159438e+00   9.99916500e-02
C     5.778047810354304e+00   3.750727391105395e+00  -2.707727999999996e-01  4.44491590e-01  -1.55112300e-01   7.28230840e-01
C     7.141955690435231e+00   3.351434196838693e+00  -6.429539999999889e-02 -1.75934730e-01  -1.04573512e+00  -8.59021340e-01
C     7.492719377156817e+00   1.939219292323184e+00  -1.447782000000011e-01  5.96181850e-01   1.33979515e+00   2.47074390e-01
C     8.877110480123164e+00   1.564914971520279e+00  -1.445234999999983e-01  7.60521300e-02   1.11047366e+00  -3.67613860e-01
C     3.062804656702524e+00   4.553074514309458e+00  -2.213363999999984e-01 -5.26523390e-01  -9.53238330e-01   5.14613170e-01
C     3.421208240962189e+00   3.183680338437648e+00  -2.313563999999992e-01 -7.22847870e-01  -1.83969785e+00  -2.38879510e-01
C     4.761839587965722e+00   2.725242394817221e+00  -3.012458999999978e-01  6.59376890e-01   2.37032092e+00   3.84096280e-01
C     5.126420379173444e+00   1.377382157960543e+00  -2.150187000000017e-01 -6.61481730e-01  -1.17990651e+00   8.24155200e-02
C     6.478384545253665e+00   9.701894196758517e-01  -1.961402999999997e-01  1.18873430e-01  -2.56667140e-01   1.64392440e-01
C     1.127235146858862e+01   7.279754855199482e+00  -1.641756000000001e-01 -2.72584280e-01   1.01876816e+00   3.00772870e-01
C     2.405314064881957e+00   2.155263031286845e+00  -1.799889000000015e-01 -4.07536640e-01   1.63016191e+00  -3.38143780e-01
C     2.753052428478575e+00   7.934917706895473e-01  -2.071013999999991e-01 -1.02617646e+00  -9.73233750e-01   3.32289910e-01
C     4.097007369346043e+00   3.887014075694192e-01  -1.407966000000016e-01  7.48730900e-01  -1.27164232e+00  -1.61009650e-01
C     3.420309606546387e-01   2.109670550366742e-01  -2.436165000000017e-01 -1.49595840e-01  -9.02145720e-01   2.90418030e-01
C     6.146303839913146e+00   7.496604157999885e+00  -2.175936000000007e-01  8.88788660e-01  -6.25307700e-02  -1.67337500e-02
C     6.656288651609295e-01   7.906369682144203e-01   3.453450000000000e+00  1.27702138e+00  -5.95226990e-01   4.26482200e-02
C     3.111161386519535e+00   1.972527655944208e-01   3.391259100000000e+00 -1.06606962e+00  -2.70740930e-01   1.76024200e-01
C     4.466581306809290e+00   5.920931915141677e-01   3.520245900000000e+00  2.74319120e-01   7.77538640e-01  -2.41039740e-01
C     9.936831161691607e+00   7.325480878376107e+00   3.717010500000000e+00 -2.09125340e-01  -1.78620460e-01  -4.85460200e-01
C     6.858025117118248e+00   8.767915048574200e-03   3.727612200000000e+00 -3.42407510e-01   5.08115870e-01  -3.73144970e-01
C     1.230044172340950e+01   6.708773193534000e+00   3.648717600000000e+00  8.25725550e-01  -2.80854960e-01   2.92502360e-01
C     4.786518600357521e+00   7.089392023375917e+00   3.505654500000000e+00 -5.97627870e-01   9.75128740e-01   1.74399300e-01
C     5.815069325828377e+00   6.129914462973816e+00   3.499405800000000e+00 -1.67574000e-01  -7.95291370e-01  -1.75274470e-01
C     7.183890451385461e+00   6.510332940946151e+00   3.473112300000000e+00  6.49825130e-01   4.63835210e-01   4.29332900e-02
C     8.224427685047027e+00   5.546551009586474e+00   3.572337600000000e+00  1.10697850e-01   3.48459290e-01   5.78056480e-01
C     9.601127964580430e+00   5.951192667438822e+00   3.707714100000000e+00 -8.01829430e-01  -8.76954550e-01  -3.20656980e-01
C     1.060608797735340e+01   4.940305494634745e+00   3.705564300000000e+00  1.36314700e-01  -2.55302540e-01  -4.30463950e-01
C     3.080735203938292e+00   5.315149449305353e+00   3.687251700000000e+00 -2.83489130e-01   9.99314350e-01  -5.39508360e-01
C     4.087783689138158e+00   4.347365637517277e+00   3.537770400000000e+00  7.70482120e-01  -5.37856680e-01   2.45036970e-01
C     5.455068356349022e+00   4.737425558531991e+00   3.537380100000000e+00  7.71017990e-01   8.35214060e-01   2.45887860e-01
C     6.519722631332188e+00   3.800040736443201e+00   3.621322200000000e+00 -1.16142583e+00  -1.33862243e+00  -6.84137640e-01
C     7.870114833271531e+00   4.176011372123000e+00   3.641261400000000e+00  1.04609519e+00   3.95132500e-02  -3.68297070e-01
C     8.902463132739429e+00   3.195142805253524e+00   3.582541200000000e+00  1.33317500e-02  -1.55662939e+00   2.90878270e-01
C     1.028706385220480e+01   3.551243738615879e+00   3.535968600000000e+00 -1.27702451e+00   8.33312110e-01   2.48812830e-01
C     2.399509163297981e+00   2.573883754006479e+00   3.382840500000000e+00  1.81927210e-01  -1.24749982e+00   3.43543290e-01
C     3.766023712698387e+00   2.961804689828856e+00   3.456660600000000e+00  5.77130500e-02  -1.22094000e-02  -4.25563360e-01
C     4.807304845495859e+00   1.989267312495853e+00   3.444148800000000e+00  2.29668050e-01  -9.46146900e-02   6.78633100e-01
C     6.183642863040143e+00   2.403511543742429e+00   3.562111200000000e+00 -7.36595280e-01  -2.43653450e-01   3.77737300e-01
C     7.182443844198557e+00   1.401786909127664e+00   3.663265500000000e+00  6.17375610e-01  -2.18299320e-01  -8.29331300e-02
C     8.558326545670305e+00   1.774696309864332e+00   3.620116500000000e+00 -2.12338320e-01   1.43611943e+00  -7.00722900e-01
C     2.055970717358374e+00   1.159164258697208e+00   3.314138400000000e+00 -8.16109000e-02   1.26238131e+00   7.06491380e-01
