52
Lattice="8.88768389401873 1.33226762955019e-15 0 4.44384194700937 7.69696003302603 0 0 0 30 " PBC="1 1 1" Properties=species:S:1:pos:R:3:force:R:3 Energy="-417.92660029"
C     1.285870798909226e+01   7.153286951612156e+00   2.164530000000000e-02 -1.56052290e-01  -2.45907900e-01  -3.98221780e-01
C     9.086576484030493e+00   6.900050501178731e+00  -1.148999999999987e-01  1.12626360e+00   3.63467570e-01  -6.07848970e-01
C     1.047832298971288e+01   6.475095180354407e+00  -2.303511000000000e-01  1.07788750e-01   3.46975903e+00   1.45186178e+00
C     1.084962913575799e+01   5.126320775554967e+00  -1.830746999999988e-01 -1.52651702e+00   4.67290710e-01   5.28150520e-01
C     6.703943167340682e+00   6.349970781140317e+00  -8.584229999999948e-02 -2.02682400e-02  -1.92059537e+00   1.38520230e-01
C     8.031911608977275e+00   5.905408301305171e+00  -1.392767999999975e-01  2.23398570e+00   1.80262397e+00   3.21725900e-02
C     8.431865515382334e+00   4.557364338012578e+00  -1.744547999999995e-01 -1.80465127e+00  -5.71669230e-01   1.76172540e-01
C     9.779100322687842e+00   4.173653408417810e+00  -1.994384999999994e-01  1.33881812e+00  -1.77471220e+00   3.91273690e-01
C     1.015524554594077e+01   2.763665234438979e+00  -9.413129999999725e-02 -2.31797443e+00   8.42941400e-01  -1.97925720e-01
C     4.304588962122495e+00   5.794496030908075e+00   6.147900000000000e-03  5.96025950e-01  -2.36480007e+00   5.10342810e-01
C     5.692382537065409e+00   5.347776401054921e+00  -3.417899999999818e-02 -1.89851715e+00   2.29310964e+00   4.93664800e-02
C     5.996493437942557e+00   4.007535307962341e+00  -3.020040000000179e-02 -4.60841600e-01  -1.80813346e+00   3.69725230e-01
C     7.346395439164073e+00   3.593992346744098e+00  -7.645049999999998e-02  1.24398334e+00   9.60982000e-02  -4.38748500e-01
C     7.668040007241140e+00   2.228054567743361e+00  -8.312820000000087e-02  2.57274844e+00  -9.02663110e-01   3.07816550e-01
C     9.072717737458893e+00   1.776578601439669e+00  -8.150129999999933e-02  5.62637840e-01   1.55453440e+00   3.42298260e-01
C     3.293149204336545e+00   4.774472720487589e+00   6.051270000000000e-02  8.22384110e-01  -5.62278220e-01  -1.85390128e+00
C     3.618482516706012e+00   3.363423828447024e+00  -4.769280000000009e-02 -6.50132900e-02   2.37232115e+00   1.48051156e+00
C     4.937248072791865e+00   2.993398940451200e+00   4.467120000000000e-02  3.00278840e+00   5.58546910e-01  -1.27020925e+00
C     5.328035533103167e+00   1.647590251320918e+00  -8.932109999999938e-02  3.81154420e-01  -1.52594495e+00   1.16935969e+00
C     6.700510829365053e+00   1.217407694031420e+00  -5.050769999999716e-02 -9.37794510e-01   1.14046767e+00  -4.46741160e-01
C     1.152942905845330e+01   7.578168920407394e+00  -6.379950000000179e-02 -2.75371425e+00  -3.12468451e+00  -5.15063430e-01
C     2.626274640377597e+00   2.407504495697192e+00  -1.458090000000212e-02 -1.50683401e+00  -2.33510141e+00  -4.85291370e-01
C     2.945125676061994e+00   9.941786119709530e-01  -7.826099999999059e-03  1.57642751e+00   7.83089060e-01  -6.30542700e-02
C     4.355531563043628e+00   6.325339431469913e-01  -2.272740000000084e-02 -2.02222777e+00  -1.49149323e+00  -6.72293080e-01
C     5.334404760026290e-01   4.077693945301394e-01   3.176700000000000e-03  2.04089720e+00   8.73019540e-01  -3.98440340e-01
C     6.397088238502160e+00   7.692126339101160e+00  -4.662090000000063e-02 -2.11138939e+00   2.07060463e+00   4.39774390e-01
C     4.569714215900477e-01   5.271119143392939e-01   3.545781300000000e+00 -2.29309800e-01   8.54701180e-01  -1.61246190e-01
C     7.331738451223156e+00   7.644158499346198e+00   3.609889200000000e+00 -6.92874350e-01   8.65201220e-01  -4.17951860e-01
C     4.264582738206233e+00   3.367874903462773e-01   3.527070900000000e+00 -1.47946428e+00   2.30730004e+00  -4.30741490e-01
C     9.706501367621460e+00   7.117347151296076e+00   3.338662200000000e+00  1.11536396e+00  -2.34024900e+00   9.81839810e-01
C     1.107682153437432e+01   7.486177163216843e+00   3.352643100000000e+00 -5.93150800e-02   5.46036450e-01  -2.94227150e-01
C     1.206629369145006e+01   6.480144309164487e+00   3.373884300000000e+00  4.07016140e-01  -2.02663650e-01   3.33618620e-01
C     4.543764535193006e+00   6.833752966869127e+00   3.490097400000000e+00  1.04105751e+00   8.30869310e-01  -2.07841610e-01
C     5.612967704515411e+00   5.851203614837901e+00   3.476852100000000e+00 -1.20075277e+00   2.23109907e+00   1.04923366e+00
C     6.952780318664137e+00   6.293526279304316e+00   3.514755600000000e+00  9.11259010e-01  -4.59271820e-01  -4.23812730e-01
C     8.002827907359803e+00   5.346316980463633e+00   3.391589400000000e+00  8.58271200e-02  -1.46266833e+00   7.32266290e-01
C     9.365006289089095e+00   5.708928387467362e+00   3.401871300000000e+00  1.73786530e-01   1.28343726e+00  -8.84915510e-01
C     1.038259552294009e+01   4.734998322186532e+00   3.361004700000000e+00 -1.35694888e+00  -1.90623754e+00   4.32055080e-01
C     1.171643783538451e+01   5.098509349878567e+00   3.397775700000000e+00  1.67232627e+00   4.72216380e-01   3.10343950e-01
C     3.881585201107974e+00   4.143648580041662e+00   3.535261200000000e+00 -3.80140800e-02  -1.50636905e+00  -3.76256930e-01
C     5.267118994075919e+00   4.514196784349926e+00   3.597964500000000e+00 -4.37634160e-01  -8.62136710e-01  -2.12051340e+00
C     6.294049050390319e+00   3.556082971325941e+00   3.357969600000000e+00  9.36644050e-01  -9.19265450e-01   2.47123311e+00
C     7.697334258843638e+00   3.947344079922936e+00   3.413261100000000e+00 -2.02641235e+00   2.51867240e-01  -5.35888530e-01
C     8.690500448413946e+00   2.942779267057102e+00   3.479467800000000e+00 -9.98585940e-01   4.05855220e-01  -4.29263380e-01
C     1.001416862917655e+01   3.326061706887000e+00   3.447786900000000e+00  2.64238919e+00   2.97602270e-01   3.49886270e-01
C     2.162292436264661e+00   2.316381648324428e+00   3.550178100000000e+00  6.31825650e-01   6.72448840e-01  -4.48477950e-01
C     3.566121926490963e+00   2.725440129720392e+00   3.490142700000000e+00 -8.73406590e-01   3.71117940e-01   6.64862240e-01
C     4.605661562063210e+00   1.744591805855795e+00   3.487818000000000e+00 -3.69384050e-01   7.47667400e-02   6.90039430e-01
C     5.980181070606569e+00   2.158540012019618e+00   3.516939300000000e+00 -1.01608055e+00   4.09281290e-01  -1.88839030e+00
C     6.989295320165535e+00   1.179284035246028e+00   3.378900000000000e+00 -3.38113570e-01  -4.33910570e-01   9.07586120e-01
C     8.327228544656027e+00   1.586422817840909e+00   3.473426700000000e+00  1.27517951e+00  -2.27239297e+00  -1.09058300e-02
C     1.832292199262137e+00   9.220140698784813e-01   3.622858800000000e+00  1.97135860e-01   5.00931000e-01  -2.92681400e-01
