52
Lattice="8.88768389401873 1.33226762955019e-15 0 4.44384194700937 7.69696003302603 0 0 0 30 " PBC="1 1 1" Properties=species:S:1:pos:R:3:force:R:3 Energy="-417.7750379"
C     1.253342529088298e+01   6.717726066532095e+00  -8.794860000000071e-02 -2.60422057e+00   1.27205452e+00   9.82476400e-01
C     8.685210856807540e+00   6.541208911258495e+00   1.696938000000000e-01 -2.73648820e-01  -1.40920434e+00  -1.03091544e+00
C     1.003770290687669e+01   6.140611621053909e+00   1.077027000000000e-01  1.88953389e+00  -2.08448260e-01   3.34415660e-01
C     1.044286295184957e+01   4.754966314683560e+00   1.176600000000000e-01 -2.26754735e+00  -2.82892520e-01  -6.74676300e-01
C     6.308930145463405e+00   5.945010469142726e+00   6.690090000000000e-02 -8.47275000e-02  -1.55982346e+00  -4.50677140e-01
C     7.668586068674773e+00   5.515321363960752e+00   1.078941000000000e-01 -1.75949600e-01   7.37449470e-01   2.48414170e-01
C     7.987631611331953e+00   4.118698268347615e+00   6.647400000000001e-02  8.91041180e-01   1.12666096e+00   1.05409840e-01
C     9.357097982248169e+00   3.742840085253853e+00   1.190346000000000e-01  1.59829556e+00   1.08764534e+00  -1.41814230e-01
C     9.746675695454389e+00   2.377952094631608e+00   9.158460000000000e-02  7.95470030e-01   2.19845753e+00  -3.18267980e-01
C     3.955094968714604e+00   5.348926172944203e+00  -1.652141999999976e-01 -1.09924906e+00  -4.40115550e-01   9.57297420e-01
C     5.271657401233776e+00   4.908692001612327e+00  -4.526910000000228e-02  1.82094237e+00   3.29436169e+00  -2.61050650e-01
C     5.647375171389582e+00   3.590391785811664e+00  -5.630280000000099e-02 -8.84479090e-01  -1.93925696e+00   2.84405000e-03
C     6.960366043695421e+00   3.144438388329497e+00  -3.118860000000012e-02  2.07920502e+00   1.55002396e+00   4.84404700e-01
C     7.369174349632224e+00   1.823963781320359e+00   8.928000000000000e-04 -9.44420020e-01  -2.08972361e+00  -1.66331010e-01
C     8.750534308003305e+00   1.442607505737968e+00   1.375470000000000e-02 -1.89975960e+00  -2.29330927e+00   5.41681410e-01
C     2.901212209866678e+00   4.389648887442083e+00  -6.885720000000006e-02  5.48102920e-01  -1.55391031e+00  -4.62030260e-01
C     3.269388735725378e+00   2.951243844910894e+00  -1.584305999999991e-01  2.16843100e-02   3.01325463e+00   1.60937254e+00
C     4.655072196825847e+00   2.607229678792450e+00  -6.703649999999683e-02 -1.88578860e+00  -2.66345554e+00  -1.15289421e+00
C     4.946695501820535e+00   1.157332690088469e+00  -8.647589999999994e-02  8.06354980e-01   2.42994662e+00   9.56075240e-01
C     6.328329289754794e+00   8.106532206508366e-01   2.169990000000000e-02  3.17399260e-01  -9.91817070e-01  -3.72476320e-01
C     1.110129657133703e+01   7.103126940671051e+00   6.093300000000000e-02  1.06526546e+00   5.05089870e-01  -8.23790120e-01
C     2.230909799567811e+00   2.055307383492454e+00   3.896580000000000e-02  1.57052900e-01  -3.69404175e+00  -7.42025420e-01
C     2.555082913654742e+00   6.018711786274787e-01   3.301770000000000e-02 -6.87855900e-02   2.06974098e+00  -1.06098200e-02
C     3.896764073919111e+00   2.046229896711473e-01   2.617800000000000e-03  9.26957380e-01   1.78819090e-01   3.27658660e-01
C     1.749336601691390e-01   4.466784511169930e-02   3.526170000000000e-02  6.60729220e-01  -4.78478230e-01  -7.20487280e-01
C     5.997979994104382e+00   7.323976507538243e+00   5.734830000000000e-02 -1.33061688e+00   1.92543890e-01   5.95002400e-02
C     8.664244857186486e-01   9.984884477701512e-01   3.310390500000000e+00 -1.14002823e+00  -2.22477900e-02  -5.52801600e-02
C     3.231088726795411e+00   3.745270708261727e-01   3.183532800000000e+00  1.81818649e+00  -1.16741020e-01   7.57422570e-01
C     4.645493983135752e+00   7.595560278564779e-01   3.247218000000000e+00 -1.77443710e+00   1.74184504e+00   3.49945440e-01
C     1.007766131239023e+01   7.498318117059364e+00   3.368665500000000e+00  5.91371920e-01  -2.03378242e+00   9.48051120e-01
C     7.007757660817604e+00   1.722006231191765e-01   3.530590500000000e+00  2.19980920e-01   7.69727940e-01  -1.02847655e+00
C     1.251659343976825e+01   6.938650832698781e+00   3.529662000000000e+00 -1.16159438e+00  -2.15602349e+00  -4.65294040e-01
C     4.979887805600406e+00   7.340949228039596e+00   3.412291200000000e+00 -1.91908840e-01  -1.47099092e+00  -5.16716000e-01
C     5.983825734721947e+00   6.323775178283015e+00   3.292093500000000e+00  4.53108310e-01  -4.93055350e-01   1.62813664e+00
C     7.370340816871039e+00   6.698714344349194e+00   3.346618500000000e+00 -7.28962580e-01  -4.02904590e-01  -7.65142030e-01
C     8.391794637845049e+00   5.687142065132847e+00   3.462949500000000e+00 -1.52651086e+00   3.82626440e-01  -4.65257300e-02
C     9.715341990541507e+00   6.064780247203146e+00   3.455949300000000e+00  1.58601541e+00   2.69053695e+00  -4.88790980e-01
C     1.074981786825028e+01   5.134508955574081e+00   3.413238300000000e+00  1.21436936e+00  -1.77553651e+00   4.42987070e-01
C     3.262708576422455e+00   5.510450573714567e+00   3.451335300000000e+00  7.01813100e-02   3.54422840e-01   6.72737900e-02
C     4.281338424711471e+00   4.489970448716300e+00   3.408051000000000e+00 -3.82687040e-01   7.25880920e-01  -2.34406940e-01
C     5.663540225032124e+00   4.926817957634976e+00   3.431301300000000e+00 -7.73233600e-01  -3.08088590e-01  -1.00074677e+00
C     6.693893772717042e+00   3.929463272077244e+00   3.395455800000000e+00 -5.12389520e-01   1.96339930e-01   1.92993653e+00
C     8.053117666143214e+00   4.313648719257862e+00   3.529955700000000e+00 -9.17921670e-01   2.86429450e-01  -1.10526243e+00
C     9.043648124188174e+00   3.323043267041635e+00   3.436767600000000e+00  4.14563480e-01   8.54090400e-01  -1.22211840e-01
C     1.038859937494142e+01   3.721372032216578e+00   3.371738100000000e+00  1.93485886e+00   2.66741350e-01   2.71897840e-01
C     2.531280408850460e+00   2.706685178124091e+00   3.308762700000000e+00  6.91671240e-01   1.82350570e+00  -7.85877390e-01
C     3.922421308272229e+00   3.081667678075239e+00   3.279268200000000e+00 -8.23435030e-01   2.95301954e+00   9.54267840e-01
C     4.963945919224350e+00   2.193001380253136e+00   3.344268000000000e+00  9.77456620e-01  -3.32067654e+00   2.05383410e-01
C     6.336391397817335e+00   2.548756874049343e+00   3.557829000000000e+00 -2.27590040e-01   5.47534180e-01  -2.32672205e+00
C     7.360618665000927e+00   1.557636418237510e+00   3.436445100000000e+00 -7.32305050e-01   7.74163700e-02   1.00058642e+00
C     8.709945811368019e+00   1.974720288947954e+00   3.346802700000000e+00  1.58771410e-01  -1.29605074e+00   6.77069650e-01
C     2.204518755010140e+00   1.357772612892112e+00   3.204107400000000e+00  7.27056520e-01  -2.41148640e-01   4.07416320e-01
