52
Lattice="8.88768389401873 1.33226762955019e-15 0 4.44384194700937 7.69696003302603 0 0 0 30 " PBC="1 1 1" Properties=species:S:1:pos:R:3:force:R:3 Energy="-418.41585923"
C     1.260799335879329e+01   6.913900872874315e+00  -2.541825000000024e-01  2.55747560e-01   3.86424030e-01   7.22930420e-01
C     8.908146497789385e+00   6.691466963754547e+00   1.048260000000000e-02 -8.00676800e-02  -1.15042584e+00  -5.43101620e-01
C     1.026562240546645e+01   6.275105683651720e+00  -1.757099999998957e-03 -8.10889400e-01   2.21918792e+00  -1.18936510e-01
C     1.055433139454609e+01   4.934358592406766e+00  -4.487100000002187e-03  9.14875190e-01  -1.81327192e+00  -6.68590550e-01
C     6.511451665338960e+00   6.127054965353071e+00  -1.340832000000027e-01 -6.70756890e-01  -2.21734993e+00  -4.58633350e-01
C     7.895746647971253e+00   5.702284833387068e+00  -2.938680000000105e-02 -1.38289259e+00  -4.72358800e-02   5.22543870e-01
C     8.203671920543005e+00   4.302186252441984e+00   5.496810000000000e-02 -8.07056110e-01   4.75164470e-01  -1.04959486e+00
C     9.562382060899726e+00   3.913298809348640e+00  -2.344319999999911e-02 -1.20789700e-01   1.41891940e-01   6.47158960e-01
C     9.928841797348140e+00   2.549288195200214e+00  -1.006470000000022e-01 -1.47541083e+00  -6.31883150e-01  -8.48301000e-03
C     4.040745578510525e+00   5.576741873486547e+00  -2.928660000000001e-01  1.26474617e+00  -3.67229447e+00   4.41658470e-01
C     5.445648433758903e+00   5.121710219527396e+00  -2.488808999999996e-01 -2.11189950e-01   1.26090187e+00  -1.27266100e-02
C     5.781986920723829e+00   3.739395156853226e+00  -2.653988999999974e-01 -2.64830400e-01   4.48390200e-02   8.42716200e-01
C     7.146623857516996e+00   3.344323283345377e+00  -8.008620000000022e-02  2.37424700e-02  -3.56936940e-01  -2.96631900e-01
C     7.473562818871459e+00   1.953947348370989e+00  -1.251215999999999e-01  4.53609750e-01   2.18563050e-01  -2.97015550e-01
C     8.838781454584360e+00   1.572936743263545e+00  -1.549286999999993e-01  1.71125535e+00  -5.25664620e-01   6.01901770e-01
C     3.005383775195844e+00   4.543129811041897e+00  -1.998381000000009e-01  1.75950847e+00   3.62577270e-01  -2.88068870e-01
C     3.369160053231338e+00   3.154470298154198e+00  -2.804276999999971e-01  1.59564875e+00   9.37802450e-01   8.19334120e-01
C     4.743060889567413e+00   2.749924544423823e+00  -2.721558000000002e-01  7.52634570e-01  -8.06871400e-01  -3.71656430e-01
C     5.113199371652908e+00   1.323953479003498e+00  -2.234183999999999e-01 -3.08199290e-01   1.89500421e+00   1.69594420e-01
C     6.472261375412590e+00   9.316131796406952e-01  -1.895823000000014e-01 -2.83294760e-01   1.90980294e+00   3.13272970e-01
C     1.126210090281958e+01   7.290649825152348e+00  -1.363172999999982e-01 -3.24693120e-01  -1.22323706e+00  -1.21449150e-01
C     2.411193489973676e+00   2.165094743181166e+00  -1.422369000000003e-01 -1.44188277e+00  -1.73954668e+00  -5.63146260e-01
C     2.738166135640031e+00   7.592459173368692e-01  -1.589156999999979e-01 -1.37173550e-01   1.51637280e-01  -1.09306930e-01
C     4.121649494979926e+00   3.351464984678812e-01  -1.510242000000019e-01 -1.64187352e+00   1.26376850e+00   2.22911500e-01
C     3.017799290027529e-01   1.674948556960351e-01  -1.713327000000007e-01  7.24606500e-01   1.60181093e+00  -7.67639940e-01
C     6.128247354675027e+00   7.470930332063017e+00  -1.964319000000003e-01  5.12171940e-01   1.36660115e+00   6.84587050e-01
C     7.197923660857939e-01   8.041044931181121e-01   3.469949400000000e+00 -1.30866549e+00  -3.23317940e-01  -7.61394400e-01
C     3.115004998741445e+00   2.102160626465471e-01   3.368619300000000e+00 -1.03991600e-02   5.06997740e-01  -3.39342300e-01
C     4.492623198298821e+00   6.638328614129833e-01   3.456843900000000e+00 -8.12214190e-01  -1.89544146e+00   4.16626180e-01
C     9.924217094155114e+00   7.350859064078222e+00   3.700102500000000e+00  4.66845480e-01  -2.68076700e-01  -8.31532510e-01
C     6.857230913697675e+00   2.698846670999140e-02   3.719880300000000e+00  2.88644960e-01  -5.06076770e-01  -2.60552740e-01
C     1.232893510468536e+01   6.686527593594495e+00   3.672679800000000e+00 -9.40837770e-01   1.64955645e+00  -1.51106400e-01
C     4.770858456916430e+00   7.107107577489765e+00   3.495316500000000e+00  1.03073109e+00   6.05420420e-01   4.13498990e-01
C     5.781744866192447e+00   6.109078638233406e+00   3.483279600000000e+00  1.15126608e+00   1.29392134e+00  -1.23659310e-01
C     7.170877237970609e+00   6.543626372464717e+00   3.459166500000000e+00  5.58393390e-01  -1.00016261e+00   7.13113700e-02
C     8.225728797540672e+00   5.562820304910685e+00   3.565148100000000e+00  7.43043600e-02  -5.78362800e-01   5.57083540e-01
C     9.598282483708509e+00   5.954735116323029e+00   3.670005300000000e+00  4.00367400e-02  -1.42853310e-01   1.34744910e-01
C     1.064315806246734e+01   4.929438926464392e+00   3.696631200000000e+00 -1.55268775e+00   9.33685920e-01  -1.07170107e+00
C     3.105434477415353e+00   5.316651818933608e+00   3.657804900000000e+00 -4.90015400e-02  -2.01716310e-01   1.08652970e-01
C     4.100386202673029e+00   4.302643451867767e+00   3.554481300000000e+00 -7.52316300e-02   1.70469191e+00  -2.53267470e-01
C     5.447811384704902e+00   4.746265825004848e+00   3.540998400000000e+00  7.92586420e-01  -4.26456310e-01   4.60041100e-02
C     6.495432235748634e+00   3.792609475473436e+00   3.596854500000000e+00  1.77051714e+00   8.46335400e-02   2.33365090e-01
C     7.920290652608650e+00   4.161155854417098e+00   3.664069500000000e+00 -1.89143923e+00   6.61716990e-01  -8.02448140e-01
C     8.935807856258837e+00   3.160880095558381e+00   3.602311200000000e+00 -8.11895840e-01   1.52030807e+00  -4.77431120e-01
C     1.027678235730709e+01   3.579484577692352e+00   3.462199800000000e+00  9.65560150e-01  -1.35946596e+00   1.54566937e+00
C     2.404974422287553e+00   2.533110416730759e+00   3.423461700000000e+00 -2.07667690e-01   2.21942921e+00  -1.19993552e+00
C     3.755316364407105e+00   2.959275314823798e+00   3.413343300000000e+00  4.24188650e-01  -2.62045190e-01   4.28129080e-01
C     4.829122065307851e+00   2.034427993958273e+00   3.428903400000000e+00 -1.15110828e+00  -9.52893160e-01   3.48173850e-01
C     6.154156194218445e+00   2.434539067197763e+00   3.598726800000000e+00  1.55931900e+00  -1.33893172e+00  -3.19678160e-01
C     7.197544463515197e+00   1.406921397224477e+00   3.643137900000000e+00 -9.28764000e-02   6.81608290e-01   1.38362490e-01
C     8.569479211388250e+00   1.816257815847124e+00   3.574372200000000e+00  3.76412710e-01  -1.91443209e+00   3.46563600e-02
C     2.079256760236830e+00   1.186442054134727e+00   3.253212000000000e+00 -6.08005140e-01  -6.60865600e-01   1.77464096e+00
