52
Lattice="8.88768389401873 1.33226762955019e-15 0 4.44384194700937 7.69696003302603 0 0 0 30 " PBC="1 1 1" Properties=species:S:1:pos:R:3:force:R:3 Energy="-418.91583418"
C     1.224482575259526e+01   6.464928958577183e+00  -1.665774000000013e-01  5.94595880e-01   6.85476120e-01   3.00676830e-01
C     8.452486631808890e+00   6.315067684370677e+00  -2.847305999999996e-01  1.90914615e+00  -2.21247500e-02   4.04014710e-01
C     9.880275628612699e+00   5.908259178330683e+00  -2.192366999999997e-01 -2.02719308e+00   3.26042460e-01  -1.92168590e-01
C     1.021265491903401e+01   4.524187207560065e+00  -2.090663999999975e-01  2.18656830e-01  -2.81082560e-01   8.19221000e-02
C     6.083413609900949e+00   5.708864810577515e+00  -1.342947000000017e-01  7.57553510e-01  -9.72300840e-01  -4.66465760e-01
C     7.447582387951440e+00   5.323383118358246e+00  -2.472789000000013e-01 -1.13250410e-01   5.87896400e-01   1.88259650e-01
C     7.765984906691806e+00   3.946197155908866e+00  -2.521686000000010e-01  3.50298790e+00   1.31203779e+00   4.29442710e-01
C     9.178122070031023e+00   3.544884587208693e+00  -2.125686000000009e-01 -8.51302620e-01  -3.99373130e-01  -3.28180720e-01
C     9.486733782862512e+00   2.136305110854554e+00  -2.035805999999987e-01  9.25263580e-01   1.32542531e+00   1.62513300e-01
C     3.747549729906775e+00   5.087029641872223e+00  -1.096761000000015e-01 -1.56873764e+00   1.82737000e-02  -3.86841410e-01
C     5.102484737652878e+00   4.695833264709080e+00  -1.081767000000013e-01 -6.97837300e-01   4.14321220e-01   1.78602330e-01
C     5.430935982868224e+00   3.318665544054972e+00  -1.109076000000009e-01 -7.32576500e-02   1.12686847e+00   5.23436100e-02
C     6.805085274468323e+00   3.007833742321861e+00  -1.621941000000007e-01 -1.51784669e+00  -4.62646716e+00  -2.44524380e-01
C     7.148799827997435e+00   1.548855572296086e+00  -1.928622000000004e-01 -2.50760186e+00   2.29527590e+00   6.30462330e-01
C     8.461626944772359e+00   1.171797741012049e+00  -1.715520000000019e-01  1.92148391e+00  -1.94807017e+00  -4.29986370e-01
C     2.705574823233847e+00   4.102994853524808e+00  -1.602290999999987e-01 -7.25559980e-01   6.93322120e-01   2.43911080e-01
C     3.005886505855755e+00   2.727684563265140e+00  -1.497425999999997e-01  8.17103490e-01   8.22578000e-02  -3.00253600e-02
C     4.395844631826090e+00   2.364757503930579e+00  -1.071515999999981e-01 -5.68314410e-01  -6.03199470e-01  -4.53994480e-01
C     4.733051090008207e+00   9.955178830161731e-01  -1.914636000000023e-01 -1.05127924e+00  -3.67993670e-01   2.44460800e-01
C     6.074955775528961e+00   6.083548668479499e-01  -1.504829999999977e-01  1.63422865e+00  -1.21653717e+00  -4.79471980e-01
C     1.087656326293927e+01   6.900671261005150e+00  -1.725867000000001e-01  2.51646940e-01  -1.20513400e-02  -6.22509200e-02
C     1.982567736433625e+00   1.739492338927120e+00  -2.061227999999993e-01 -7.84963680e-01   6.99492320e-01   1.67933800e-02
C     2.310349072486622e+00   3.790421845493710e-01  -2.530161000000000e-01  1.68394190e-01  -7.64385880e-01   5.36707420e-01
C     3.680452245961949e+00   1.610273310916270e-02  -2.627109000000019e-01  5.49086130e-01  -9.00431540e-01   1.33832610e-01
C     4.394299600161094e+00   7.448509087495626e+00  -1.810425000000002e-01 -1.66202593e+00   9.78394130e-01   3.55015840e-01
C     5.730338192118539e+00   7.055477524152530e+00  -1.614480000000000e-01  9.25360240e-01   1.53949020e+00  -4.37919390e-01
C     1.089675639536111e+00   1.237295099356934e+00   3.641856300000000e+00 -3.50024900e-02  -1.55831882e+00   1.43029330e-01
C     3.461930495926202e+00   6.290883220199615e-01   3.703722300000000e+00 -1.60874740e-01  -5.24292220e-01  -2.63563510e-01
C     4.824640538895665e+00   9.761089207261237e-01   3.627154800000000e+00  1.02873170e-01   1.58724281e+00  -4.28790720e-01
C     5.846646640585001e+00   2.364914060097590e-02   3.498823800000000e+00  1.07279352e+00  -7.39156930e-01   9.44083080e-01
C     7.235809097157913e+00   4.347701763761788e-01   3.530614500000000e+00  2.77822200e-01  -1.50548976e+00  -3.10086350e-01
C     1.273855472400043e+01   7.143084554122790e+00   3.539687400000000e+00 -1.56249898e+00  -3.22633480e-01   1.90079450e-01
C     5.225398608073408e+00   7.531787347145015e+00   3.641687400000000e+00 -1.76933495e+00   4.56319680e-01  -4.33828710e-01
C     6.209360934422278e+00   6.562546423853661e+00   3.637176300000000e+00  1.69699217e+00  -2.30006829e+00  -1.79313070e-01
C     7.593111546936437e+00   6.938457639002029e+00   3.662141400000000e+00 -1.42661001e+00  -1.64341110e-01  -4.60503100e-02
C     8.571033181145662e+00   5.922839298806711e+00   3.595660800000000e+00  1.67675900e+00   2.32882130e-01   3.26031450e-01
C     9.957883062371536e+00   6.335716626921559e+00   3.575384700000000e+00 -2.41791500e-01  -5.81445710e-01  -5.34970230e-01
C     1.097912020161454e+01   5.327579347027401e+00   3.551722500000000e+00 -7.36807500e-02   1.13664873e+00  -1.70014640e-01
C     3.455892784519868e+00   5.753845537114434e+00   3.516010500000000e+00  1.74881677e+00  -2.64323590e-01   1.24946930e-01
C     4.539478048352407e+00   4.772707268765507e+00   3.508030800000000e+00 -1.50840873e+00  -6.69197250e-01   6.88142520e-01
C     5.913336535359156e+00   5.113856318482385e+00   3.550575900000000e+00 -1.12809027e+00   2.31830292e+00  -6.36641400e-02
C     6.906623153055564e+00   4.123744395343282e+00   3.524199900000000e+00  5.22964560e-01   2.22982440e-01   4.48271290e-01
C     8.279782579321747e+00   4.520004525540562e+00   3.594474000000000e+00 -1.67292944e+00   1.42752197e+00  -8.67888690e-01
C     9.278124822707619e+00   3.566679530138442e+00   3.511184700000000e+00  1.82749520e-01  -1.11526466e+00   8.56624800e-01
C     1.061041756748107e+01   3.953668287131586e+00   3.564969600000000e+00  2.25936487e+00   5.98951110e-01   2.31346760e-01
C     2.784807013492573e+00   3.003311701334636e+00   3.678907800000000e+00 -2.50710210e-01  -3.39393960e-01  -5.70501550e-01
C     4.161290789032506e+00   3.386540724261926e+00   3.631245900000000e+00  4.24366830e-01  -2.62966460e-01  -5.79274390e-01
C     5.178170296851785e+00   2.359226468453021e+00   3.576564300000000e+00  2.26246150e-01   7.87615570e-01   2.69204880e-01
C     6.567596584306199e+00   2.747607836424393e+00   3.517171200000000e+00 -1.03303643e+00   3.59384160e-01  -8.83800000e-04
C     7.598343634218866e+00   1.786459419938980e+00   3.528223500000000e+00 -2.29847470e-01   1.15449070e-01   1.43468970e-01
C     8.963048340112239e+00   2.177317284800004e+00   3.578861100000000e+00 -1.04077122e+00   8.93707270e-01  -4.85102730e-01
C     2.423466047919776e+00   1.621063756151927e+00   3.694816500000000e+00  1.95231251e+00   1.91007780e-01   1.00721860e-01
