52
Lattice="8.88768389401873 1.33226762955019e-15 0 4.44384194700937 7.69696003302603 0 0 0 30 " PBC="1 1 1" Properties=species:S:1:pos:R:3:force:R:3 Energy="-419.04833705"
C     1.285825889443163e+01   7.163028224226124e+00   4.855710000000000e-02  1.63528516e+00   3.78234100e-02  -8.64507000e-03
C     9.113747689075668e+00   6.975117643868116e+00  -1.045596000000018e-01  7.80416250e-01  -2.17912240e-01   2.58941610e-01
C     1.051522767510490e+01   6.580114196334934e+00  -1.484337000000018e-01 -2.10081892e+00  -2.44840780e-01  -3.02910760e-01
C     1.081557935230591e+01   5.207261391473645e+00  -1.796469000000016e-01  1.56534762e+00  -4.27274320e-01   4.03605130e-01
C     6.754647937210047e+00   6.374418327405205e+00   1.141416000000000e-01 -1.21870514e+00   3.76481750e-01  -2.65525500e-01
C     8.096154187851955e+00   5.971772414319035e+00  -1.103376000000011e-01  1.59647130e-01   1.28077397e+00   4.91055610e-01
C     8.445518864290525e+00   4.618224354908988e+00  -1.897313999999994e-01  5.17561030e-01  -1.01571704e+00   1.60950050e-01
C     9.824836832847492e+00   4.233838017071588e+00  -1.644638999999977e-01 -1.11702897e+00  -1.23891809e+00   1.34415470e-01
C     1.015269042574815e+01   2.838963362898864e+00   7.700400000000000e-03 -4.08544100e-01  -5.01604800e-02   9.06630000e-04
C     4.314157309281320e+00   5.791585579411930e+00   3.413550000000000e-02  8.53349780e-01  -5.35960880e-01   1.41969270e-01
C     5.704995982529005e+00   5.422418671550650e+00   9.598980000000000e-02 -3.58556300e-02  -2.25625306e+00  -8.80693650e-01
C     6.053909342316043e+00   3.970966204194207e+00  -5.476589999999959e-02  4.86789190e-01   2.17684786e+00   6.77036470e-01
C     7.455426434450635e+00   3.614625279618117e+00  -1.397052000000016e-01 -1.65063982e+00  -1.26002263e+00   3.72462760e-01
C     7.765933401422238e+00   2.189097328186719e+00  -6.295439999999886e-02  2.14500970e-01   1.73492387e+00  -7.17721500e-02
C     9.133076665097743e+00   1.833062434741422e+00   5.584200000000000e-02  1.23970500e-01  -1.95563220e-01  -1.70327760e-01
C     3.299496610421650e+00   4.781469565033260e+00  -6.725159999999875e-02  4.74271400e-02   1.53690803e+00   1.34768520e-01
C     3.639854330259404e+00   3.438676775751533e+00   4.110330000000000e-02  9.72626190e-01  -2.08364680e+00   1.39583530e-01
C     5.033779740516216e+00   3.001330888670915e+00   5.013300000000000e-02 -3.61204510e-01   3.83266600e-01  -4.11635530e-01
C     5.407078060878984e+00   1.612092333480160e+00   2.583690000000000e-02 -2.68195837e+00   9.65125990e-01   6.78649000e-03
C     6.722573838051735e+00   1.226719245366913e+00  -5.035140000000027e-02  1.82061537e+00  -5.63709020e-01  -6.32635000e-02
C     1.152252270590237e+01   7.531171898221016e+00  -8.878260000000182e-02 -2.22019920e-01   1.64389912e+00   4.10992600e-01
C     2.617989585907314e+00   2.428371339186524e+00   1.253115000000000e-01  4.25414340e-01   8.74500730e-01  -4.27499950e-01
C     2.965966983757740e+00   1.059806510757947e+00   1.832541000000000e-01  2.46909480e-01  -5.61382990e-01  -1.46884020e-01
C     4.346003521542351e+00   6.525429604409793e-01   6.293520000000000e-02 -4.17940100e-01  -1.82784740e-01  -1.86385780e-01
C     5.946684857973370e-01   4.437409063215435e-01   1.704324000000000e-01 -1.95484373e+00   4.36263840e-01  -3.64592530e-01
C     1.922920533470701e+00   6.666952838785400e-02   2.296050000000000e-01  2.32329086e+00  -5.92557820e-01  -5.67361870e-01
C     4.337623016462278e-01   5.468904846499837e-01   3.504421800000000e+00  1.01128157e+00  -7.89644710e-01  -6.05222400e-02
C     7.277839003412772e+00   7.670883883962365e+00   3.392983200000000e+00 -1.93367850e-01  -1.85041262e+00   4.84551220e-01
C     4.188842518239627e+00   3.461800906708863e-01   3.327228300000000e+00  8.09219810e-01  -7.01131230e-01  -8.98296100e-02
C     9.686718583074697e+00   7.048153866683985e+00   3.201360600000000e+00 -8.65022230e-01   2.11910260e-01   4.44318980e-01
C     1.103697578110730e+01   7.441902324884277e+00   3.298077300000000e+00  9.81261010e-01   8.12253000e-02   1.69001590e-01
C     1.207568624019867e+01   6.442035351572752e+00   3.386330700000000e+00 -1.55717790e-01   4.54007550e-01   1.18645780e-01
C     4.568580592833455e+00   6.830751383366228e+00   3.538764000000000e+00 -1.45116936e+00   1.37928504e+00  -4.90463850e-01
C     5.574107728747011e+00   5.868448653785116e+00   3.554357100000000e+00  5.04741800e-01  -1.22546027e+00  -1.80809400e-01
C     6.939409509241379e+00   6.255095203935326e+00   3.455062200000000e+00  2.00461270e-01   5.52980630e-01  -4.41170620e-01
C     7.944985794026477e+00   5.261435521009596e+00   3.307400700000000e+00  1.24961227e+00   2.11994300e-01   1.97798280e-01
C     9.361744864583253e+00   5.669569058718754e+00   3.166671300000000e+00 -1.55662274e+00  -1.10909200e+00   7.23162200e-01
C     1.037297304972809e+01   4.648187311822573e+00   3.254800200000000e+00 -2.87650580e-01   1.39618546e+00  -2.62406800e-02
C     1.173050397270681e+01   5.060588044172364e+00   3.360932100000000e+00 -6.71129000e-02   5.28408510e-01  -4.83890500e-02
C     3.865077172581762e+00   4.096686579023420e+00   3.465831300000000e+00 -1.22881210e-01  -3.37465100e-01   4.18364820e-01
C     5.214123956926780e+00   4.461792801681674e+00   3.535270200000000e+00  7.23034960e-01   1.57171582e+00  -7.12108000e-03
C     6.226721467562081e+00   3.492028562077879e+00   3.514584900000000e+00  7.65928040e-01  -8.66956470e-01  -3.68011240e-01
C     7.603359311095414e+00   3.864739920032975e+00   3.403004100000000e+00  3.58127320e-01   1.13807539e+00  -3.09341940e-01
C     8.649951679356041e+00   2.905919680017437e+00   3.341861100000000e+00  7.35675800e-02  -6.52149470e-01   5.31841890e-01
C     1.003512609883139e+01   3.284935079145903e+00   3.336361200000000e+00 -7.42142940e-01   1.91044020e-01   1.38473920e-01
C     2.189484482891640e+00   2.334616054513899e+00   3.462303000000000e+00 -1.52108001e+00  -1.04097144e+00  -1.11048770e-01
C     3.525523253115619e+00   2.731072303252744e+00   3.520982100000000e+00  6.06036810e-01  -1.13640357e+00  -6.69713180e-01
C     4.528838555534047e+00   1.701277779043773e+00   3.445356900000000e+00  4.79986440e-01   1.17297571e+00   1.04993850e-01
C     5.899353184829906e+00   2.100098995721436e+00   3.446236500000000e+00 -1.93166820e-01   4.15438510e-01   3.25691400e-02
C     6.929685535411975e+00   1.138504925250285e+00   3.382609200000000e+00  2.09156840e-01  -8.09244040e-01   1.50322110e-01
C     8.304248149199799e+00   1.517967055938893e+00   3.433333200000000e+00 -1.90592090e-01   5.01746420e-01  -2.05104140e-01
C     1.822875564876956e+00   9.397679548532797e-01   3.479883600000000e+00 -6.59833710e-01   7.06295290e-01   2.31881800e-02
