32
Lattice="9.86 0 0 4.93 8.53901048131456 0 0 0 30 " PBC="1 1 1" Properties=species:S:1:pos:R:3:force:R:3 Energy="-246.95872515"
C     4.917042974000000e+00   8.450759806689200e+00   3.594178500000000e+00  1.70917895e+00   5.23913279e+00  -1.31552180e-01
C     1.261756345500000e+00   7.483748464167975e-01   3.640100400000000e+00 -3.18684706e+00  -1.82230755e+00   1.62975840e-01
C     2.523897428200000e+00   6.154474725439039e-02   3.568556700000000e+00 -1.02258061e+01  -4.90606149e+00  -9.83460420e-01
C     3.588397325200000e+00   7.254934577642751e-01   3.544902900000000e+00  9.60688833e+00   3.23926000e-01  -3.45280080e-01
C     9.767181657500000e+00   8.477811306499735e+00   3.474358500000000e+00  4.51299664e+00   1.87603354e+00  -1.08897249e+00
C     6.193730810500000e+00   6.389195899414328e-01   3.512084400000000e+00 -3.41154426e+00   2.35578972e+00  -3.44723040e-01
C     7.442254740200000e+00   1.147352682155680e-01   3.631367700000000e+00 -1.20914780e+00  -2.74578516e+00  -1.68804756e+00
C     8.637434837399999e+00   7.866626593377551e-01   3.638681700000000e+00  1.67275205e+00  -2.35620931e+00   4.28737810e-01
C     1.101065327390000e+01   2.149911839915039e+00   3.762954900000000e+00  4.82514071e+00  -1.07033400e-02   4.91414050e-01
C     2.586533669800000e+00   2.761596255930512e+00   3.829184400000000e+00 -9.66242910e+00   7.42211367e+00   8.01368240e-01
C     3.660806601600000e+00   2.124923365036472e+00   3.600956400000000e+00  4.87152055e+00  -2.64415001e+00  -9.11736020e-01
C     4.891656432000000e+00   2.761866771782518e+00   3.379738500000000e+00  3.09815884e+00   1.86012320e+00  -4.29348340e-01
C     6.226128206900000e+00   2.014432411979988e+00   3.302113800000000e+00 -3.20523333e+00   5.42382515e+00   3.00751770e+00
C     7.337009741099999e+00   2.968647022615674e+00   3.674043600000000e+00  5.81369580e-01  -2.81877831e+00  -3.28423011e+00
C     8.587595889799999e+00   2.152341956907542e+00   3.695246400000000e+00  1.28538646e+00   5.39245707e+00   6.14333130e-01
C     9.849010537000000e+00   2.921046052524600e+00   3.762051600000000e+00 -1.19686061e+00   5.13302300e-02  -1.11215219e+00
C     2.537552739400000e+00   4.369679616764862e+00   3.871380900000000e+00 -1.52822082e+00  -7.00212786e+00  -4.40248240e-01
C     3.655598303100000e+00   5.010191049039977e+00   3.618280800000000e+00  3.07490403e+00   1.79865801e+00  -1.52520227e+00
C     4.936874441300000e+00   4.231079607449895e+00   3.345566700000000e+00 -6.08453698e+00  -2.45205091e+00   1.92163485e+00
C     6.020260379500000e+00   4.967906039923227e+00   3.482566500000000e+00  4.01295680e+00   4.48042214e+00  -2.93010598e+00
C     7.256516398600000e+00   4.446581603587323e+00   3.423287400000000e+00  6.87045804e+00  -4.71693497e+00   2.60083626e+00
C     8.725251103300000e+00   5.186877692188993e+00   3.523761600000000e+00 -4.16191272e+00  -3.64226305e+00  -1.52732695e+00
C     9.954057497999999e+00   4.364697616490411e+00   3.531372600000000e+00 -4.81859951e+00  -1.54044568e+00   1.98425715e+00
C     1.115587288220000e+01   4.995329499030270e+00   3.709313400000000e+00  1.48682245e+00  -2.08130964e+00   6.38860400e-02
C     1.344369952820000e+01   6.487872875301417e+00   3.487127400000000e+00  5.58889993e+00  -2.17371553e+00  -5.01441900e-01
C     4.931932362800000e+00   7.069587840845130e+00   3.454605300000000e+00 -3.99123204e+00   2.41565932e+00  -2.98599500e-01
C     6.090541572099999e+00   6.416854010529362e+00   3.225024300000000e+00  1.04661187e+00  -1.53091548e+00   2.38529383e+00
C     7.295487456999998e+00   7.130037716175774e+00   3.327407100000000e+00  2.16523608e+00   2.71492519e+00   4.53259020e-01
C     8.581991416499999e+00   6.576467585344457e+00   3.341892900000000e+00  1.97270131e+00  -4.80280147e+00  -1.86907500e-01
C     9.905510161099999e+00   7.090367266677895e+00   3.258529200000000e+00 -1.00032024e+00   1.24112495e+00   2.32908133e+00
C     1.119353877240000e+01   6.281825356957551e+00   3.513894600000000e+00 -2.52012124e+00   1.09618261e+01  -2.66674647e+00
C     1.236885910410000e+01   7.299346227319547e+00   3.333864000000000e+00 -2.17917076e+00  -6.31078732e+00   3.15148597e+00
