32
Lattice="9.86 0 0 4.93 8.53901048131456 0 0 0 30 " PBC="1 1 1" Properties=species:S:1:pos:R:3:force:R:3 Energy="-253.50894275"
C     5.036064020000000e+00   8.023978525876913e+00  -1.315423799999998e+00  1.09136096e+00   3.51962785e+00  -3.25319430e-01
C     1.384180176100000e+00   3.174482175768904e-01  -1.470656699999999e+00 -2.42447248e+00   3.08928300e-01   3.00151778e+00
C     7.531553752899999e+00   8.191018563496568e+00  -1.375565699999999e+00 -1.10845221e+00  -1.16075896e+00  -3.02895190e-01
C     3.796869622300000e+00   3.637834501445144e-01  -1.204594800000002e+00  1.50197722e+00  -2.82236471e+00  -6.84529110e-01
C     9.990036243599999e+00   8.117735153145217e+00  -1.262219099999999e+00 -1.87480398e+00   3.12836170e-01   1.36452363e+00
C     6.275784990999999e+00   2.098784600056144e-01  -1.215128100000001e+00  2.54970257e+00   4.66249476e+00  -9.20086990e-01
C     1.250804439240000e+01   8.145937626178352e+00  -1.189716300000001e+00 -2.23480734e+00  -1.63322578e+00   1.11911173e+00
C     8.807184597399999e+00   3.071758733595552e-01  -1.301788800000001e+00 -1.16029689e+00  -4.10119680e-01  -2.18572610e-01
C     1.331978476700000e+00   1.736814494177162e+00  -1.037232300000003e+00  7.51602010e-01   1.19159900e-02  -2.37881182e+00
C     2.595064640400000e+00   2.475109551062949e+00  -9.533403000000007e-01 -1.28949991e+00  -7.64406930e-01   1.44419321e+00
C     3.813307721300000e+00   1.730079435051167e+00  -1.018230300000003e+00 -2.20218404e+00  -7.03558070e-01  -7.42807480e-01
C     5.016236743199999e+00   2.335818138069416e+00  -1.128037199999998e+00  3.79710363e+00   3.45314046e+00   8.06637700e-02
C     6.289882375299999e+00   1.707339708582508e+00  -1.301869199999999e+00  4.67341410e-01  -1.87726409e+00   2.11636190e-01
C     7.570586732099999e+00   2.453634025095853e+00  -1.378433100000002e+00 -4.26230531e+00  -1.73975930e-01   4.71775130e-01
C     8.768090584799999e+00   1.749978488903445e+00  -1.385134200000000e+00  1.50043795e+00  -3.42202910e-01   7.40683490e-01
C     9.969396601400000e+00   2.490093635873043e+00  -1.149738599999999e+00  6.64746260e-01  -8.91094040e-01  -6.68994010e-01
C     2.603932182100000e+00   3.865224166412409e+00  -6.350001000000027e-01 -4.52852930e-01   1.22456690e-01  -1.02453516e+00
C     3.884506386900000e+00   4.575256891801597e+00  -6.958257000000003e-01 -2.80987546e+00  -3.21874719e+00  -1.25680280e+00
C     5.044958676700000e+00   3.756077680556001e+00  -1.048833300000002e+00  4.91885620e-01   3.95875987e+00   1.59893567e+00
C     6.271358343999999e+00   4.604064866067867e+00  -1.075265399999999e+00 -5.16592600e-01  -2.49307403e+00  -2.09684363e+00
C     7.461812099499999e+00   3.886665280167270e+00  -1.272458700000001e+00  3.52187884e+00  -8.54913050e-01   4.84500840e-01
C     8.786193396900000e+00   4.556850713151537e+00  -1.165661400000001e+00 -5.27307962e+00   3.27323655e+00  -8.93013080e-01
C     9.975318172300000e+00   3.926068031686601e+00  -1.137591600000000e+00  2.33359245e+00  -2.47791753e+00   2.28003604e+00
C     1.118123122460000e+01   4.596837447597595e+00  -6.932853000000030e-01  1.03751367e+00  -2.97903994e+00  -9.86016770e-01
C     3.717300605500000e+00   5.943318402515094e+00  -9.027125999999974e-01  3.09487593e+00   2.03573816e+00   7.70753270e-01
C     4.963353422000000e+00   6.637764445124613e+00  -1.103298299999999e+00  1.32086633e+00   9.16061490e-01  -1.70049599e+00
C     6.256118875899999e+00   6.013882564979089e+00  -1.305644099999999e+00 -2.98972385e+00  -1.09058679e+00   1.88300154e+00
C     7.413878695500000e+00   6.752013587473554e+00  -1.387319399999999e+00  3.82116150e+00  -3.97462720e-01   6.64009640e-01
C     8.655956551599999e+00   6.014335901045472e+00  -1.172981099999998e+00  2.23036271e+00   3.39879330e-01  -2.21604630e-01
C     9.946850183100000e+00   6.735371397608453e+00  -1.057967399999999e+00 -1.18763015e+00  -2.89955265e+00   3.96296590e-01
C     1.116815656880000e+01   5.941871467189258e+00  -7.026423000000008e-01 -4.56511070e-01   6.22349424e+00  -1.84474954e+00
C     1.240965820650000e+01   6.744361609402216e+00  -8.505222000000003e-01  6.66787600e-02  -1.94830485e+00  -2.45560310e-01
