32
Lattice="9.86 0 0 4.93 8.53901048131456 0 0 0 30 " PBC="1 1 1" Properties=species:S:1:pos:R:3:force:R:3 Energy="-252.19390547"
C     9.787847478000000e+00   5.723107825218784e-01   4.699023299999999e+00 -5.25273959e+00   4.34353180e+00   7.83171540e-01
C     1.089261561500000e+00   1.333119111318394e+00   4.738342800000000e+00  4.38038150e-01   2.66444200e-02  -7.50830350e-01
C     2.290384970900000e+00   6.582747942162392e-01   4.449929100000000e+00  6.33212340e-01  -2.15844779e+00   3.10246580e-01
C     3.559133436800000e+00   1.238544873796630e+00   4.453830900000000e+00  1.51605359e+00   1.66800555e+00  -6.11024990e-01
C     4.830123031399999e+00   4.488991965377920e-01   4.450623300000000e+00 -1.09050749e+00   5.00907008e+00  -3.51135600e-02
C     6.004223533200000e+00   1.305253160688277e+00   4.434182100000000e+00 -8.86159140e-01  -7.29289650e-01  -3.97740850e-01
C     7.219154935900000e+00   5.534927673963689e-01   4.459006500000000e+00  1.74078082e+00   1.16220546e+00   1.19750275e+00
C     8.459952027300000e+00   1.302154951515818e+00   4.650648000000000e+00  8.97788710e-01   9.60424150e-01   4.82694450e-01
C     1.090116359410000e+01   2.741321485617114e+00   4.815802200000000e+00  8.72814840e-01   9.32442260e-01  -1.06930056e+00
C     2.280164982300000e+00   3.361755911061548e+00   4.457456700000000e+00  1.78871474e+00   2.27919447e+00   2.01722999e+00
C     3.548560410900000e+00   2.738997337744668e+00   4.394972400000000e+00 -5.63222510e-01  -2.81142253e+00   9.36511300e-01
C     4.731991578600000e+00   3.522830766740085e+00   4.501633500000001e+00  6.97388620e-01  -2.83977856e+00  -6.89512340e-01
C     5.955697838999999e+00   2.780218642325925e+00   4.361892600000000e+00  1.33277497e+00  -2.60287939e+00   9.71569700e-02
C     7.244505587499999e+00   3.396692247759210e+00   4.277675400000001e+00 -1.10933103e+00   2.05822705e+00   3.02997696e+00
C     8.448166763699998e+00   2.808150684897158e+00   4.776832800000000e+00  3.73817450e-01  -3.23162064e+00  -2.17451643e+00
C     9.709388056300000e+00   3.535636976927255e+00   4.899275400000000e+00 -2.37537425e+00  -2.14248713e+00  -5.91596520e-01
C     1.229075469170000e+01   4.817106602505797e+00   4.585139400000000e+00 -6.14892825e+00  -1.25745323e+00   4.50765200e-02
C     3.523778681300000e+00   5.603549809274217e+00   4.560129600000000e+00  3.38900521e+00   1.10430540e-01   2.55240060e-01
C     4.754415782200000e+00   4.883884311552647e+00   4.649193899999999e+00  1.73935374e+00   2.25647311e+00  -2.75072096e+00
C     6.067415188599999e+00   5.554494474918188e+00   4.327482600000000e+00 -6.94833426e+00   4.00050457e+00   2.15002885e+00
C     7.171686332299999e+00   4.849601294546809e+00   4.358396400000000e+00  5.54134031e+00  -1.69543427e+00  -7.40553760e-01
C     8.426358662199998e+00   5.572578049752313e+00   4.460823600000000e+00 -8.49286580e-01   2.85124812e+00   1.47812490e-01
C     9.628296310400000e+00   4.933592624040080e+00   4.736923500000000e+00  3.79954547e+00  -1.83907211e+00  -1.14635690e-01
C     1.099913891380000e+01   5.494852389978952e+00   4.689546600000000e+00 -1.99753775e+00   1.64875620e+00  -1.66975826e+00
C     1.335654407950000e+01   7.034760034970668e+00   4.508280000000000e+00  3.08667665e+00  -2.20317020e+00   1.53274361e+00
C     4.673331776400000e+00   7.800183869711834e+00   4.679550000000001e+00  4.73754841e+00  -5.51893633e+00  -2.24281703e+00
C     5.986487513100000e+00   7.062319691294868e+00   4.411098300000001e+00 -1.30266219e+00  -2.79552307e+00   3.51260190e-01
C     7.202548329499999e+00   7.718053532162573e+00   4.305589200000000e+00 -1.78433100e-01   3.36664413e+00   1.15376099e+00
C     8.434501444600000e+00   7.088559472769174e+00   4.413380100000000e+00  1.22979481e+00  -5.52542941e+00  -3.00849550e-01
C     9.766650795099999e+00   7.608883307857031e+00   4.476799499999999e+00 -3.13736059e+00   1.30587456e+00  -6.87451800e-01
C     1.092784830370000e+01   6.886323170972846e+00   4.409445300000001e+00  3.44740879e+00  -5.84714950e-01   2.42839711e+00
C     1.218922617310000e+01   7.620734771282432e+00   4.559723399999999e+00 -5.42218091e+00   3.95598278e+00  -2.09238770e+00
