32
Lattice="9.86 0 0 4.93 8.53901048131456 0 0 0 30 " PBC="1 1 1" Properties=species:S:1:pos:R:3:force:R:3 Energy="-249.37557338"
C     9.732674467600001e+00   1.519422985800720e-01   4.355919900000000e+00  4.99758560e+00  -1.99122340e-01  -1.22008631e+00
C     1.262123137500000e+00   8.478500490035576e-01   4.381826100000001e+00 -6.02830475e+00   2.42582891e+00   9.81872450e-01
C     2.389855165200000e+00   1.218479223849888e-01   4.170004200000000e+00  5.86641910e-01   3.44009590e+00   6.00108230e-01
C     3.564726127400000e+00   9.325214252914560e-01   4.300602300000000e+00  1.44251179e+00  -2.34595112e+00  -9.23076670e-01
C     4.814814198200000e+00   3.196491475281104e-01   4.121838600000000e+00  2.39649404e+00  -3.86226651e+00  -1.80651767e+00
C     6.149878904199999e+00   8.894445083427904e-01   4.143797100000000e+00 -5.60077340e-01  -7.25908760e-01   1.45362180e-01
C     7.353081787599999e+00   1.150182510228752e-01   4.381626600000001e+00  4.37333130e-01   6.70947409e+00  -2.24168909e+00
C     8.606543408099999e+00   9.600355686897976e-01   4.318488000000000e+00 -1.75002570e+00  -3.35414208e+00   2.16912897e+00
C     1.109236383340000e+01   2.382668102188775e+00   4.663127400000000e+00 -2.57630236e+00  -2.06660890e+00  -2.46477380e-01
C     2.381694339000000e+00   3.103945850479073e+00   4.719930900000000e+00  2.43987590e+00  -1.61855627e+00  -4.70665920e-01
C     3.620891103100000e+00   2.300647747094497e+00   4.410236700000000e+00 -1.04796085e+00   2.60196900e+00   4.37862950e-01
C     4.848559998900000e+00   2.870286160896554e+00   4.074013500000000e+00  2.73287495e+00   4.73845093e+00  -1.34466316e+00
C     6.201736933299999e+00   2.233119885976980e+00   3.846909300000000e+00 -1.23006581e+00   3.82310544e+00   4.47584003e+00
C     7.394556645100000e+00   3.121137013327933e+00   4.390887600000000e+00 -1.61879810e+00  -1.61476964e+00  -2.95821113e+00
C     8.599635541400000e+00   2.323691035385720e+00   4.582472400000000e+00  1.81749820e-01   5.15459580e+00  -6.95525190e-01
C     9.838435341899999e+00   3.198567906459526e+00   4.679547300000000e+00 -3.78768070e-01  -5.79928435e+00  -1.05092542e+00
C     1.218936500190000e+01   4.502975192769654e+00   4.785525900000000e+00  4.47509627e+00   4.64873980e-01  -3.61713985e+00
C     3.579011541900000e+00   5.104227072731186e+00   4.204615200000000e+00  1.46390862e+00   1.11267230e+00   1.34073050e+00
C     4.875020245600000e+00   4.434063926564273e+00   3.901710000000000e+00 -3.27964916e+00  -2.25193648e+00   2.26258027e+00
C     6.046119659199999e+00   5.214352556139127e+00   3.874027500000000e+00  2.64402268e+00  -1.16811164e+00  -1.41682830e-01
C     7.320580023100000e+00   4.596884497545340e+00   4.203880800000000e+00  1.04865455e+00  -3.15280458e+00   7.49144000e-02
C     8.609763733399999e+00   5.266281011351359e+00   4.243515000000000e+00 -2.26911251e+00   1.01222578e+00  -1.90854326e+00
C     9.845379246899999e+00   4.536342059341091e+00   4.323079500000000e+00 -1.18182411e+00   1.13016190e+00   2.23109651e+00
C     1.106431676760000e+01   5.233220695256153e+00   4.454797200000000e+00 -1.53056844e+00   2.33698020e+00  -1.01914476e+00
C     1.352021993160000e+01   6.570635697356932e+00   4.230102300000000e+00 -2.37586447e+00  -2.89262861e+00  -8.81811360e-01
C     4.864587971200000e+00   7.166793886786935e+00   4.148750400000000e+00  5.58917430e-01   6.43188553e+00  -6.25007210e-01
C     6.103614453099999e+00   6.633384872039525e+00   3.769777500000000e+00 -2.73511624e+00  -2.20068046e+00   1.89162380e+00
C     7.268182306900000e+00   7.331429168275212e+00   3.878152200000000e+00  2.75635007e+00  -1.02493387e+00  -1.35676480e-01
C     8.519940760299999e+00   6.677586035107988e+00   3.911946600000000e+00  3.73117283e+00  -1.29021963e+00  -1.19651010e-01
C     9.842009690499999e+00   7.406898138358919e+00   3.771410400000000e+00 -1.99666881e+00  -5.64220840e-01   3.80002626e+00
C     1.108643836780000e+01   6.666534591574457e+00   4.119463800000000e+00 -2.39315766e+00  -9.78326400e-01  -9.20269200e-01
C     1.230211898260000e+01   7.359919149791208e+00   4.136941500000000e+00  1.05907477e+00  -4.27184729e+00   1.91561734e+00
