32
Lattice="9.86 0 0 4.93 8.53901048131456 0 0 0 30 " PBC="1 1 1" Properties=species:S:1:pos:R:3:force:R:3 Energy="-254.14903067"
C     9.594164441399998e+00   7.474095112820336e-01   4.445195399999999e+00  2.35906418e+00   2.59565580e+00  -4.41991870e-01
C     1.079124249000000e+00   1.382285965151291e+00   4.394927700000000e+00 -4.06291359e+00   3.85455946e+00   1.98906400e-01
C     2.249216759400000e+00   6.926239031631920e-01   4.157240100000000e+00  4.90842340e-01   4.14780041e+00   9.51523170e-01
C     3.390579941300000e+00   1.577795917612314e+00   4.252835399999999e+00  1.47433193e+00   1.28505110e-01  -8.33095540e-01
C     4.589463947500000e+00   8.760646474315735e-01   4.197407700000000e+00  3.52896898e+00  -6.78235110e-01   6.03427340e-01
C     5.928418916499999e+00   1.463369420015703e+00   4.219714800000000e+00 -1.49070172e+00   3.59754028e+00  -5.34037460e-01
C     7.149402584400000e+00   8.083473056715056e-01   4.224031800000001e+00  1.64799030e-01  -2.57823237e+00   2.06746010e-01
C     8.380740583400000e+00   1.461333292966747e+00   4.305970200000000e+00  1.13458366e+00   2.54775706e+00   1.03114088e+00
C     1.090206859420000e+01   2.941129292832931e+00   4.484012100000000e+00  1.97412390e-01  -2.77403515e+00  -1.29517934e+00
C     2.229114684400000e+00   3.681053507528197e+00   4.306704300000000e+00  1.34483730e+00  -1.31081160e-01   8.96475180e-01
C     3.491552898200000e+00   3.048798871436718e+00   4.286045100000000e+00 -1.26712832e+00  -4.18856271e+00  -6.87182110e-01
C     4.765199910700000e+00   3.635872663787364e+00   4.160908500000001e+00  2.18159040e-01  -1.68129800e-02   3.37496440e-01
C     6.008409201799999e+00   2.942372743539029e+00   4.157228699999999e+00 -1.04111908e+00  -3.08063914e+00   6.74179400e-01
C     7.242622228900000e+00   3.599871341702636e+00   4.268051100000000e+00 -1.39631911e+00   1.94917774e+00  -5.33842710e-01
C     8.452497818000001e+00   2.916387680747341e+00   4.413973500000000e+00 -3.23056720e-01  -1.08706644e+00  -1.12229376e+00
C     9.670537141999999e+00   3.667084881844384e+00   4.421680200000000e+00  3.32352390e-01  -6.52647545e+00   1.07906697e+00
C     1.213928892130000e+01   5.080842309410868e+00   4.323864300000000e+00 -3.21132156e+00   7.39204670e-01  -4.05881500e-01
C     3.491299249700000e+00   5.749314304552219e+00   4.217082300000000e+00  2.02972347e+00   1.20975288e+00   7.49925350e-01
C     4.802637295400000e+00   5.012311712292685e+00   4.182091200000000e+00 -3.30668045e+00   2.67120461e+00  -1.26343340e-01
C     5.985385707399999e+00   5.749070857363433e+00   4.160604000000000e+00 -7.17919600e-01   2.21579308e+00   8.31981690e-01
C     7.172580585000000e+00   5.065794267412278e+00   4.183970100000001e+00  3.67090791e+00  -2.06771840e+00   7.02592770e-01
C     8.453545344400000e+00   5.689166454022251e+00   4.304265000000000e+00 -1.43836318e+00   3.51681361e+00  -7.62556170e-01
C     9.655249557099999e+00   4.982117344284881e+00   4.444000200000000e+00 -1.10506919e+00   4.32177496e+00  -5.60818800e-01
C     1.079789103870000e+01   5.743726717654526e+00   4.380111900000000e+00  4.60123887e+00   2.75420537e+00   9.04057000e-03
C     1.333370294580000e+01   7.211591414347319e+00   4.322933400000000e+00  1.67488720e-01  -1.96813459e+00  -2.62317870e-01
C     4.673191665799999e+00   7.943676134301107e+00   4.464084000000001e+00  2.68642134e+00  -4.29938232e+00  -1.17010640e+00
C     6.007971171299999e+00   7.193980473743263e+00   4.334310600000000e+00 -1.92456994e+00  -2.21329090e-01  -1.53990809e+00
C     7.244772941400000e+00   7.866330460494106e+00   4.049250000000001e+00 -1.37406134e+00  -1.94285408e+00   1.81279851e+00
C     8.498316942199999e+00   7.198964950330754e+00   4.155520500000001e+00 -2.72872976e+00  -2.93716858e+00   3.43890580e-01
C     9.589453629199999e+00   8.005413009291297e+00   4.278617400000000e+00  2.76496522e+00  -1.95636977e+00  -5.92311510e-01
C     1.085088286920000e+01   7.217572308067722e+00   4.326726600000000e+00 -8.94228910e-01  -4.47040310e-01  -3.66936150e-01
C     1.210522158600000e+01   7.888656044954485e+00   4.231980600000000e+00 -8.83914320e-01   6.51392600e-01   8.05611360e-01
