32
Lattice="9.86 0 0 4.93 8.53901048131456 0 0 0 30 " PBC="1 1 1" Properties=species:S:1:pos:R:3:force:R:3 Energy="-244.99864561"
C     9.743280623099999e+00   3.258888586561608e-01   4.757389800000000e+00  2.68574320e-01   1.14629730e-01  -6.00606520e-01
C     1.179641969700000e+00   1.054660954884337e+00   4.909988999999999e+00 -3.44951015e+00   8.85241960e-01  -4.88870380e-01
C     2.287414941700000e+00   4.446799860695192e-01   4.292302200000000e+00  9.83738070e-01   9.65889870e-01   1.61719825e+00
C     3.463642442700000e+00   1.272342021106156e+00   4.457131199999999e+00  3.81239030e+00  -8.44934567e+00  -2.85315304e+00
C     4.872776750500000e+00   4.923409854042680e-01   4.225743300000000e+00 -2.88381497e+00  -3.21134963e+00   1.67138429e+00
C     6.105524335099999e+00   1.041820503265142e+00   4.449506400000001e+00 -1.40836682e+00   6.77919499e+00  -2.29106970e-01
C     7.385281145899999e+00   5.484173503472664e-01   4.452386400000000e+00 -1.92730246e+00  -4.53674679e+00   2.33245593e+00
C     8.536637043399999e+00   1.133608974007910e+00   5.020805400000000e+00  2.27750414e+00   5.01048010e-01  -3.72038793e+00
C     1.105667073200000e+01   2.529806695033217e+00   5.335245000000000e+00 -1.50737763e+00  -1.26665650e-01  -2.68835631e+00
C     2.461716767900000e+00   3.226187335857086e+00   5.174378400000000e+00 -2.78243769e+00   1.47950512e+00  -6.21624380e-01
C     3.568140596100000e+00   2.549358723499588e+00   4.656380100000000e+00  2.55077270e-01   2.81629442e+00   7.14440840e-01
C     4.780033639799999e+00   3.188251330167904e+00   4.277864400000000e+00  7.75544630e-01   2.24329014e+00   2.45801928e+00
C     6.040445919400000e+00   2.540743630436211e+00   4.500472800000000e+00  2.00377217e+00  -9.64513250e-01  -1.85378117e+00
C     7.336157639899999e+00   3.221680104565322e+00   4.440057900000000e+00 -2.13495134e+00   3.43304038e+00   1.14629530e+00
C     8.613649510099998e+00   2.620482532710442e+00   4.856424900000000e+00 -4.32453348e+00  -2.12706078e+00  -3.64227600e-01
C     9.703872322999999e+00   3.383276523003977e+00   5.017686299999999e+00  4.68819714e+00   1.05108109e+00   2.38601381e+00
C     1.225271826270000e+01   4.648115657161777e+00   5.043463200000000e+00  2.75696218e+00   1.45705910e+00  -2.83089540e-01
C     3.596943135100000e+00   5.502767625743388e+00   4.559353800000000e+00 -2.16558903e+00  -1.08141206e+01   7.92902590e-01
C     4.710548050600000e+00   4.597119064163225e+00   4.264133700000000e+00  2.65348154e+00   3.49907773e+00  -4.29715690e-01
C     6.038543235199999e+00   5.413240114195514e+00   4.030407300000000e+00 -3.66188010e+00  -7.86431144e+00   6.74692170e-01
C     7.196318337799999e+00   4.787943576183768e+00   4.257948600000001e+00  7.37980055e+00  -4.96414717e+00  -1.74177000e-03
C     8.582579417600000e+00   5.521634825569262e+00   4.238700300000000e+00 -2.37278500e+00  -2.84802421e+00   2.24727196e+00
C     9.737960512199999e+00   4.910459590748713e+00   4.976098800000000e+00 -7.47987630e-01  -5.12022930e+00  -1.80774180e+00
C     1.109390386680000e+01   5.389848178106392e+00   5.113578600000000e+00 -3.93648212e+00   1.22224389e+00  -2.09076543e+00
C     1.334145339880000e+01   6.760780333363056e+00   4.266994800000000e+00 -1.43144843e+00   6.68008106e+00   9.76714410e-01
C     4.693440753400000e+00   7.398982561034064e+00   4.129017000000000e+00  3.85945192e+00   4.15337639e+00   1.74740247e+00
C     5.967487391699999e+00   6.678242685013900e+00   3.957928200000000e+00  1.87127000e-02   1.20305519e+01  -6.20136850e-01
C     7.223989293900000e+00   7.635740203618727e+00   3.869004600000000e+00  1.23439880e-01  -4.03218692e+00   1.08779827e+00
C     8.521624355300000e+00   6.869374772191932e+00   3.965674200000000e+00 -2.09065080e-01   3.14234666e+00   1.67607096e+00
C     9.747250012599999e+00   7.549874902885515e+00   4.379739600000001e+00 -3.83137980e-01  -2.61472610e-01  -1.98117348e+00
C     1.096694335160000e+01   6.697616931282077e+00   4.625636999999999e+00  1.18918872e+00   8.01554341e+00   3.84977000e-03
C     1.213688170090000e+01   7.652774846405489e+00   4.515105900000000e+00  2.28083440e+00  -5.14932187e+00  -8.98031470e-01
