32
Lattice="9.86 0 0 4.93 8.53901048131456 0 0 0 30 " PBC="1 1 1" Properties=species:S:1:pos:R:3:force:R:3 Energy="-253.14082516"
C     4.991737699800000e+00   8.420293812758027e+00  -8.125382999999999e-01 -1.50308412e+00  -2.59390320e+00   8.59247000e-03
C     1.270134387500000e+00   6.349954022852440e-01  -8.717067000000007e-01 -5.99555440e-01  -5.20740264e+00   8.82115000e-01
C     7.353598303700000e+00   8.394037465603390e+00  -8.300888999999998e-01  5.59852759e+00  -7.19453700e-01  -1.21077461e+00
C     3.815001422800000e+00   5.135097901149216e-01  -9.397100999999992e-01 -3.92000314e+00   1.49841336e+00   1.62542856e+00
C     9.932912629400001e+00   8.319804858847082e+00  -8.062857000000001e-01 -7.61991170e-01   2.13894014e+00   6.23271580e-01
C     6.205439166100000e+00   5.520889540734568e-01  -6.854132999999969e-01  3.40861330e-01  -1.05577794e+00  -1.08468518e+00
C     1.234742297110000e+01   8.414318298614228e+00  -7.143084000000002e-01  4.61808720e-01  -5.46567330e+00   3.28038500e-02
C     8.640517418499998e+00   4.640418507725000e-01  -8.071482000000003e-01  1.13580668e+00   4.60036637e+00  -5.91349660e-01
C     1.288529450000000e+00   1.940239255452098e+00  -6.448157999999999e-01 -5.97321990e-01   4.80102293e+00  -1.96424943e+00
C     2.522192732800000e+00   2.684152041942571e+00  -6.724755000000009e-01  1.42526109e+00  -1.57618256e+00   6.34372770e-01
C     3.783515731300000e+00   1.970782356647905e+00  -7.818503999999997e-01  1.10493364e+00  -7.82389730e-01   1.68399820e-01
C     5.064708207400000e+00   2.687010048750227e+00  -6.861621000000007e-01 -4.41797043e+00   7.66790770e-01  -7.19037340e-01
C     6.239197686200000e+00   1.955258520985369e+00  -7.780392000000020e-01 -1.23667258e+00   3.68972220e-01   6.52556310e-01
C     7.409235670799999e+00   2.688750982206889e+00  -8.199942000000000e-01  2.51693021e+00  -2.74711379e+00  -1.24614450e+00
C     8.630293485899999e+00   1.943272738925118e+00  -9.598703999999998e-01  1.39378798e+00  -6.07991590e-01   1.72636090e+00
C     9.902198236399999e+00   2.626627802382584e+00  -8.533460999999996e-01 -1.03869932e+00   1.08529438e+00   9.09121560e-01
C     2.559126468700000e+00   4.053090594422470e+00  -5.200464000000018e-01 -2.54958069e+00   3.49971527e+00  -6.89791590e-01
C     3.815424712600000e+00   4.878934930298229e+00  -5.201775000000026e-01 -3.20972909e+00  -5.42794097e+00  -9.63769840e-01
C     4.955730458800000e+00   4.155628483898091e+00  -7.070559000000003e-01  2.97292026e+00  -2.96797340e+00   3.22864930e-01
C     6.185764423500000e+00   4.809433789248889e+00  -8.910102000000002e-01  1.10950422e+00  -8.97667640e-01   2.05675810e-01
C     7.435896815000000e+00   4.047525977462968e+00  -9.018537000000002e-01 -2.73530812e+00   2.39545051e+00   4.22151470e-01
C     8.601075101399999e+00   4.743796892002168e+00  -7.705070999999997e-01  2.48996515e+00   2.30628221e+00  -4.77931800e-01
C     9.849784201900000e+00   4.085311355007282e+00  -7.512291000000033e-01  3.93188460e-01  -2.09956732e+00  -6.16550000e-02
C     1.104178459700000e+01   4.773020289128291e+00  -6.389484000000003e-01  4.74694684e+00   1.54328795e+00   1.16248754e+00
C     3.777892129600000e+00   6.197623370075737e+00  -7.435818000000012e-01  3.39224960e-01   2.18251499e+00   9.15804620e-01
C     4.938101271799999e+00   6.965155913454939e+00  -7.362974999999992e-01  4.02520169e+00   2.34410810e-01  -1.79166388e+00
C     6.205920679200000e+00   6.183850116951707e+00  -9.186240000000012e-01 -7.01705000e-03   3.76255890e+00   1.33165653e+00
C     7.469943592200000e+00   6.966107842343249e+00  -8.520606000000015e-01 -2.04307218e+00  -1.44171029e+00  -5.09053600e-02
C     8.693075655499999e+00   6.184023373474346e+00  -7.387025999999999e-01 -1.26248424e+00   1.71798880e+00  -8.86013800e-02
C     9.900970025499999e+00   6.953023089634222e+00  -6.263366999999995e-01  1.42553381e+00  -1.94528256e+00  -7.46919400e-01
C     1.118923517820000e+01   6.287632396424580e+00  -5.872130999999996e-01 -4.41062804e+00  -5.66808784e+00  -2.33591280e-01
C     1.241607997520000e+01   6.772933565418821e+00  -7.120098000000006e-01 -1.18728505e+00   8.30210887e+00   2.97406520e-01
