32
Lattice="9.86 0 0 4.93 8.53901048131456 0 0 0 30 " PBC="1 1 1" Properties=species:S:1:pos:R:3:force:R:3 Energy="-252.97799104"
C     9.693908497199999e+00   4.957727283260752e-01   4.507966200000000e+00 -1.05721845e+00   4.59710176e+00  -1.45477433e+00
C     1.062923184400000e+00   1.212034491080213e+00   4.333309200000000e+00  2.06703003e+00   2.16243530e-01   6.83733510e-01
C     2.350178722400000e+00   4.492089918380064e-01   4.717818599999999e+00 -1.03808682e+00   4.62151168e+00  -1.67368855e+00
C     3.582605906300000e+00   1.257093910092020e+00   4.624474800000000e+00 -2.46746418e+00   9.33880450e-01  -1.68901000e-01
C     4.784047103499999e+00   5.873649726080137e-01   4.819703400000000e+00  1.26223976e+00  -2.22280744e+00   7.23417000e-02
C     6.064525814200000e+00   1.171061244753400e+00   4.719889200000000e+00 -8.44227510e-01   2.89002789e+00  -5.70066660e-01
C     7.257550515399999e+00   4.883514743179072e-01   4.481194200000000e+00 -1.01622444e+00  -2.05267356e+00   9.91426650e-01
C     8.392472011399999e+00   1.212682772755854e+00   4.353343500000000e+00  4.39355343e+00   3.10157861e+00  -8.30517180e-01
C     1.098159481860000e+01   2.663244104002081e+00   3.942333000000000e+00 -6.71904370e-01  -2.35774207e+00   1.39368666e+00
C     2.344137894800000e+00   3.381228868290874e+00   4.027232400000001e+00  5.72758940e-01  -1.47684144e+00   2.62685030e-01
C     3.539831451500000e+00   2.729089694664933e+00   4.358377800000000e+00  1.98027834e+00  -4.01616666e+00   9.36695310e-01
C     4.822436668400000e+00   3.343423253291722e+00   4.631945400000000e+00 -9.77753830e-01  -8.91556310e-01   4.22411260e-01
C     6.072699458399999e+00   2.611999965089715e+00   4.748494500000001e+00 -1.27958631e+00  -4.43484750e-01  -1.16238660e+00
C     7.219034495999999e+00   3.404133568442006e+00   4.525716000000000e+00  1.85811329e+00  -7.91256530e-01   4.76986940e-01
C     8.466904066800000e+00   2.766121760704702e+00   4.184962200000000e+00 -4.82460360e-01  -4.14192375e+00   9.03655810e-01
C     9.755515699899998e+00   3.397681919073842e+00   3.985732500000000e+00 -2.43918570e+00  -7.50929940e-01   1.15588740e+00
C     1.226249183980000e+01   4.752079732167768e+00   4.065363300000000e+00 -3.03159999e+00   3.23070393e+00   1.63559411e+00
C     3.537904659600000e+00   5.438608489650336e+00   4.571143800000000e+00  1.79685440e+00  -5.23298290e-01  -9.24652260e-01
C     4.762139465299999e+00   4.705002374199327e+00   4.837059300000000e+00  9.38972870e-01   3.77014094e+00  -6.46910300e-02
C     5.986028135700000e+00   5.538650255582445e+00   5.100037500000000e+00 -8.96536010e-01  -2.20785977e+00  -1.32671960e+00
C     7.213156062600000e+00   4.770610751151045e+00   4.835727900000000e+00 -4.37247530e-01   3.30146152e+00  -1.64442910e-01
C     8.409671203799999e+00   5.546749421632620e+00   4.686284400000000e+00  2.84346068e+00  -3.86407310e+00  -7.36520920e-01
C     9.689246245500000e+00   4.765474450957219e+00   4.276605300000000e+00  2.21742590e-01   3.22415083e+00  -3.36859500e-02
C     1.094312987400000e+01   5.496341081066035e+00   4.207261800000000e+00  5.83579900e-01  -6.72182800e-01   3.80978700e-02
C     1.344315984110000e+01   6.857048539783842e+00   4.561337400000000e+00  1.23124570e-01   1.76139528e+00   8.35656200e-01
C     4.761963365700000e+00   7.722460686251511e+00   4.771602600000000e+00  3.76988280e-01  -5.99838160e+00   7.84025840e-01
C     5.966057741000000e+00   6.972699787653601e+00   5.083545000000000e+00  1.27889752e+00  -1.03192690e-01  -9.23301830e-01
C     7.273374287099999e+00   7.636772057645131e+00   4.998023100000000e+00 -1.54321388e+00  -9.28009900e-01   1.27015820e-01
C     8.498435311500000e+00   6.908202848305960e+00   4.904068800000000e+00  1.02788097e+00   2.31717691e+00   4.56954040e-01
C     9.749087818000000e+00   7.701786631808068e+00   4.890228000000000e+00 -2.51037700e-02  -3.47892822e+00  -2.28140172e+00
C     1.100840263030000e+01   6.887383374514042e+00   4.460826900000001e+00 -2.94408845e+00   1.28640452e+00   1.65890985e+00
C     1.223095536930000e+01   7.554744444391945e+00   4.497766200000000e+00 -1.73573960e-01   1.66953099e+00  -5.20013430e-01
