32
Lattice="9.86 0 0 4.93 8.53901048131456 0 0 0 30 " PBC="1 1 1" Properties=species:S:1:pos:R:3:force:R:3 Energy="-250.61950883"
C     5.044429046800000e+00   8.473186834594081e+00  -5.210625000000029e-01 -5.13604299e+00   2.23041293e+00  -9.27952350e-01
C     1.240663389800000e+00   7.377664067469696e-01  -6.393123000000003e-01  7.30806560e-01  -1.57998835e+00   1.21339521e+00
C     2.463346330100000e+00   1.064748856475304e-01  -6.063954000000003e-01  2.03748707e+00  -7.25852245e+00  -1.20543289e+00
C     3.754106457200000e+00   5.795291496410416e-01  -5.124554999999980e-01  4.65405030e-01   5.68196749e+00   2.82646846e+00
C     9.961871202899999e+00   8.505593147876626e+00  -2.747118000000022e-01 -2.65688280e+00  -5.98189890e-01  -1.00165377e+00
C     6.275724351999999e+00   7.655876983522768e-01  -2.970839999999981e-01 -2.16467742e+00  -8.21337177e+00  -1.82403630e-01
C     1.237159624010000e+01   8.483290789524752e+00  -3.773729999999986e-01  1.33556967e+00  -8.08082130e-01   1.77927929e+00
C     8.648104491300000e+00   6.552236349915256e-01  -5.550482999999993e-01  1.30188491e+00   5.12735180e-01   1.14605249e+00
C     1.103048281850000e+01   2.057023800792761e+00  -2.605418999999998e-01  1.45066251e+00   1.89094835e+00  -6.88487250e-01
C     2.397976797900000e+00   2.752318706434097e+00  -1.714739999999892e-02  3.09082025e+00  -2.34180130e+00  -4.79955900e-02
C     3.730025477800000e+00   2.060257951012061e+00  -1.148688000000000e-01  6.07038400e-02  -7.29922910e-01  -2.51931883e+00
C     4.993332998500000e+00   2.789237972145425e+00  -2.968614000000009e-01 -3.78844257e+00   2.72757810e-01   6.94828110e-01
C     6.174764607499999e+00   2.052969820177276e+00  -4.918952999999995e-01 -5.98932280e-01   4.40669054e+00  -2.30908100e-02
C     7.343234704200000e+00   2.770165836068030e+00  -6.009875999999998e-01  2.99713550e+00   8.39439000e-02   6.12688590e-01
C     8.577787457599999e+00   2.126138466227776e+00  -4.930602000000022e-01  2.10243634e+00  -3.01142389e+00  -1.37616403e+00
C     9.866468702299999e+00   2.785516159037612e+00  -3.753212999999995e-01 -2.30515856e+00   1.16456419e+00   1.33346322e+00
C     2.514904270100000e+00   4.072164352911855e+00   2.484516000000000e-01 -1.11932238e+00   7.31333721e+00  -9.82760550e-01
C     3.842462015800000e+00   4.943045479421650e+00   5.115180000000000e-02 -4.37625465e+00  -3.58795294e+00   9.72488990e-01
C     4.970864129100000e+00   4.251754430404281e+00  -2.719994999999997e-01  2.81049958e+00  -3.11698637e+00   5.94918130e-01
C     6.247454302300000e+00   4.874461598878072e+00  -3.716654999999989e-01 -2.38464446e+00   2.51612213e+00  -2.12776198e+00
C     7.450707520999999e+00   4.139902871417913e+00  -5.206046999999998e-01 -2.75427241e+00   1.81085689e+00   1.73257670e-01
C     8.617021137100000e+00   4.869996037957450e+00  -3.788100000000014e-01  1.53249871e+00  -1.97707474e+00   6.99526920e-01
C     9.849579113899999e+00   4.188888185888006e+00  -1.247882999999987e-01  1.92226909e+00   1.61003383e+00  -1.20112710e-01
C     1.108484326630000e+01   4.971647492755143e+00   1.841943000000000e-01  4.27352710e-01  -2.13769698e+00  -8.62694190e-01
C     3.738099782500000e+00   6.299358592566239e+00   5.555190000000000e-02  1.02931725e+00   3.70894929e+00  -1.92697465e+00
C     4.908809282400000e+00   7.113773292134309e+00  -4.408293000000008e-01  8.84176500e-01  -4.08687066e+00   9.33871260e-01
C     6.098317414600000e+00   6.334372719649375e+00  -6.374063999999997e-01  2.96998587e+00  -4.15016360e-01   1.38466049e+00
C     7.386811023500000e+00   7.021308360981315e+00  -7.023773999999996e-01 -1.64388122e+00   1.57722478e+00   1.36131242e+00
C     8.521796510900000e+00   6.212688490095287e+00  -3.439292999999992e-01  2.64466035e+00   7.29518926e+00  -9.99123160e-01
C     9.812349824499998e+00   7.098184559992125e+00  -1.860800999999981e-01  1.58280550e+00  -1.51748395e+00   3.13481230e-01
C     1.109205565910000e+01   6.472874188783402e+00   6.832080000000000e-02 -8.58827440e-01  -4.99642234e+00   6.56228920e-01
C     1.238778867720000e+01   7.002043755607700e+00   6.321480000000000e-02 -1.58913807e+00   4.30107323e+00  -1.70399498e+00
