32
Lattice="9.86 0 0 4.93 8.53901048131456 0 0 0 30 " PBC="1 1 1" Properties=species:S:1:pos:R:3:force:R:3 Energy="-251.55205777"
C     5.070226257800000e+00   7.864356241271129e+00  -1.339758300000000e+00  1.33968282e+00   4.48235480e-01  -5.60768280e-01
C     1.342837491900000e+00   1.397903473758792e-01  -1.505171699999998e+00  2.15028737e+00  -4.78918888e+00   1.61838575e+00
C     7.483387159899999e+00   7.815325840825703e+00  -1.408943400000002e+00  1.78286857e+00   5.02504668e+00  -2.83194900e-02
C     8.764701702800000e+00   8.526741629742336e+00  -1.205747700000003e+00 -4.83086700e-02   7.79150420e-01  -1.20044268e+00
C     1.008533910890000e+01   7.781606483901650e+00  -1.344310800000002e+00 -3.53360471e+00   4.67038972e+00   1.74687006e+00
C     6.313620522499999e+00   3.898749943968880e-02  -1.339473599999998e+00  1.72414300e+00  -4.57203520e-01  -1.24885755e+00
C     1.249995973470000e+01   7.950215052356377e+00  -1.375219800000000e+00  4.76151450e-01  -3.30295682e+00   1.98980835e+00
C     8.846076972999999e+00   2.862208000812160e-02  -1.517657400000001e+00 -3.11798148e+00   2.42409405e+00   6.05249160e-01
C     1.409018157000000e+00   1.492007297193213e+00  -1.217700600000001e+00  2.55339549e+00   2.32757918e+00   2.16688626e+00
C     2.683360102300000e+00   2.261458641617375e+00  -7.868858999999979e-01 -1.57946467e+00  -2.50747965e+00  -5.87069320e-01
C     3.844627912700000e+00   1.454311066918310e+00  -9.484425000000023e-01  2.57033000e+00  -8.85023630e-01  -1.07042469e+00
C     5.170643406500000e+00   2.128898701365436e+00  -1.059095400000000e+00 -1.39541026e+00   1.40456621e+00   7.62254710e-01
C     6.410298069000000e+00   1.410641286472017e+00  -1.398369000000002e+00 -1.84538331e+00   4.27209708e+00   3.84453180e-01
C     7.667980262500000e+00   2.220608015481055e+00  -1.544034000000000e+00 -3.23532907e+00  -9.63437000e-03   2.15377987e+00
C     8.835254390499999e+00   1.488646940399018e+00  -1.488791400000000e+00  2.98126813e+00   3.52760400e-01   6.67464550e-01
C     1.010275310140000e+01   2.193260724347493e+00  -1.064061899999999e+00 -3.63381120e+00   2.25840420e+00  -1.57992435e+00
C     2.696015412300000e+00   3.629411536117567e+00  -3.568379999999998e-01 -3.00247499e+00   7.39150280e-01  -2.08823453e+00
C     3.861668457700000e+00   4.398615505408125e+00  -5.557442999999971e-01  1.84345067e+00  -5.46683165e+00   6.06556770e-01
C     5.120195012300000e+00   3.597522601480007e+00  -8.190795000000008e-01 -2.22033140e-01  -3.97970190e-01  -3.80649230e-01
C     6.334559908699999e+00   4.315238386938679e+00  -1.004442600000001e+00  1.86483500e-02  -2.61011540e-01  -1.16127023e+00
C     7.578748495000000e+00   3.671379662555405e+00  -1.237978500000001e+00  2.05074470e-01  -2.77890030e+00  -8.97856100e-01
C     8.770511904999999e+00   4.404792710979461e+00  -1.171028100000001e+00  2.45533365e+00  -1.48330764e+00   1.00394870e+00
C     1.004250145150000e+01   3.675263119131604e+00  -8.480522999999991e-01  5.33144400e-02  -2.76242490e-01  -1.01509030e-01
C     1.125622189830000e+01   4.438557922389791e+00  -4.414529999999992e-01 -5.22250200e-02  -3.87850564e+00  -9.70287600e-01
C     3.798420797500000e+00   5.723938073207754e+00  -6.517544999999991e-01  1.58080921e+00   7.56004797e+00  -2.11993643e+00
C     5.042716266200000e+00   6.483499364913771e+00  -1.022452500000000e+00  1.99746717e+00  -2.72965152e+00  -5.67815140e-01
C     6.351907592700000e+00   5.697903313375073e+00  -1.218595199999999e+00 -2.33557875e+00   2.72600607e+00   8.62122530e-01
C     7.578529603000000e+00   6.452258541171643e+00  -1.461590400000002e+00 -2.99279705e+00  -1.41434325e+00   7.84917590e-01
C     8.787634534499999e+00   5.808690997045736e+00  -1.271012700000000e+00  9.83156590e-01  -1.53248559e+00   1.08198571e+00
C     1.000568731740000e+01   6.467950509950529e+00  -1.011071400000002e+00  1.09912455e+00  -1.72098977e+00  -5.33788680e-01
C     1.123020623900000e+01   5.822224218585174e+00  -5.945177999999984e-01  2.69367700e-02   1.82904171e+00  -1.46331749e+00
C     1.244295286290000e+01   6.605086249748386e+00  -8.086584000000023e-01  1.15295962e+00  -2.92484299e+00   1.25787620e-01
