32
Lattice="9.86 0 0 4.93 8.53901048131456 0 0 0 30 " PBC="1 1 1" Properties=species:S:1:pos:R:3:force:R:3 Energy="-253.13701224"
C     4.950054944199999e+00   8.427953305158587e+00  -4.281566999999988e-01 -9.33302460e-01   2.00577318e+00   1.57371820e+00
C     1.244477188500000e+00   5.721901263037960e-01  -4.096502999999991e-01  2.05762182e+00   2.50907076e+00   1.32409540e-01
C     7.472336959300000e+00   8.429864762654535e+00  -4.282919999999990e-01 -4.05005650e+00  -1.90186835e+00   1.54164408e+00
C     3.677349857499999e+00   5.865414704373224e-01  -2.056283999999984e-01  2.82479838e+00   2.93598154e+00  -3.62811805e+00
C     9.854743535399999e+00   8.464367744570337e+00  -4.678977000000017e-01  1.69421704e+00  -9.29427480e-01   1.04381730e+00
C     6.169335494299999e+00   6.414081991557240e-01  -5.463881999999991e-01 -7.94926020e-01  -1.87587389e+00   2.11515998e+00
C     1.232427415610000e+01   8.521025359956710e+00  -2.572988999999986e-01 -5.52045900e-02  -1.18957513e+00  -2.49684866e+00
C     8.607070523699999e+00   6.642667886502648e-01  -2.279237999999992e-01  2.55668832e+00  -1.37865920e-01  -2.08314166e+00
C     1.304430573400000e+00   2.064353431218478e+00  -3.541530000000002e-01 -1.93195815e+00  -1.56569494e+00  -1.25445670e-01
C     2.505776128600000e+00   2.794026563832504e+00  -4.356024000000005e-01 -1.17475766e+00   2.43527100e-02   2.91760100e-02
C     3.696388334299999e+00   2.080106624702506e+00  -4.658015999999989e-01  1.40815540e-01  -2.77954603e+00   1.87680481e+00
C     4.918182346300000e+00   2.726269942624228e+00  -4.069305000000014e-01  9.67983890e-01   1.11368034e+00  -5.54950210e-01
C     6.161482300099999e+00   1.978815857707489e+00  -4.395218999999990e-01  1.19531100e-01   5.17427640e+00   8.10180930e-01
C     7.387391777500000e+00   2.761099029350262e+00  -2.621877000000019e-01  8.58806310e-01   4.72782020e-01  -1.86988339e+00
C     8.654024238100000e+00   2.089425588399750e+00  -4.131305999999988e-01 -1.00320179e+00  -1.36802020e+00   2.79583805e+00
C     9.893220410600000e+00   2.774884834819697e+00  -2.948708999999994e-01  1.44287680e-01  -1.16935978e+00  -1.64194950e+00
C     2.457919386100000e+00   4.235014895819708e+00  -4.741472999999985e-01  3.60927438e+00  -3.44556391e+00   1.38291150e-01
C     3.677293556900000e+00   4.911520392020642e+00  -4.481360999999993e-01  7.80752390e-01   1.16896970e+00  -1.20962471e+00
C     4.890007790699999e+00   4.166958982294108e+00  -3.946110000000012e-01  1.91315608e+00   6.30552970e-01  -6.09063150e-01
C     6.161904554600000e+00   4.896560814170625e+00  -4.548282000000015e-01  1.96020000e-02   1.36940800e-01   2.51024041e+00
C     7.419665036500000e+00   4.213135389266804e+00  -3.124223999999991e-01 -7.08683850e-01  -1.67879770e-01  -7.68818960e-01
C     8.683118238700001e+00   4.980624383692557e+00  -4.022015999999979e-01 -1.19106274e+00  -4.94530065e+00  -2.56053720e-01
C     9.840865979800000e+00   4.140720908621898e+00  -4.735425000000006e-01  2.60428899e+00   3.39023219e+00   9.79833210e-01
C     1.117081738840000e+01   4.878895650850021e+00  -4.909538999999974e-01 -6.09538877e+00  -1.22058550e+00   3.31465900e-02
C     3.693302203600000e+00   6.355290562842021e+00  -6.575483999999996e-01  2.32572261e+00   4.80195180e-01   2.89898184e+00
C     5.012472589600000e+00   7.043092999127786e+00  -3.736779000000006e-01 -2.71778584e+00  -1.15617891e+00  -1.11837745e+00
C     6.224578559999999e+00   6.340820014122193e+00  -2.156775000000017e-01 -6.46254530e-01  -2.28518134e+00  -2.60413157e+00
C     7.482509669200000e+00   6.956794343612714e+00  -3.506156999999988e-01 -2.07933675e+00   4.15545255e+00  -1.86246570e-01
C     8.680168521099999e+00   6.348092945518324e+00  -4.989339000000008e-01  2.70771995e+00  -3.33030180e-01   1.39202392e+00
C     9.972288736599999e+00   7.032226425171147e+00  -4.163060999999999e-01 -3.64344160e+00  -2.20858580e-01  -8.24566750e-01
C     1.110177229470000e+01   6.214060025958585e+00  -4.195110000000000e-01  2.91194246e+00   7.14869224e+00  -1.32579390e+00
C     1.237179003840000e+01   7.144567525628332e+00  -5.593857000000000e-01 -1.21184771e+00  -4.65514205e+00   1.43174796e+00
