32
Lattice="9.86 0 0 4.93 8.53901048131456 0 0 0 30 " PBC="1 1 1" Properties=species:S:1:pos:R:3:force:R:3 Energy="-250.05703457"
C     5.170220461800000e+00   7.466813215463201e+00  -2.571146999999989e-01  7.79266130e-01   2.13708685e+00   7.32075340e-01
C     6.454096829900000e+00   8.162467015715013e+00  -1.769901000000011e-01 -3.22397411e+00   2.97757513e+00   1.97422415e+00
C     7.763201092599999e+00   7.610997993802403e+00   1.697640000000000e-02 -6.27607987e+00  -4.96744959e+00  -1.30697705e+00
C     8.917829425499999e+00   8.209879017504164e+00  -8.349750000000000e-02  2.96686540e+00   3.15126992e+00   9.17276020e-01
C     1.010509623180000e+01   7.430627450752105e+00   4.708440000000000e-02  1.67245900e+00   3.66820111e+00   5.92083200e-02
C     1.140581417010000e+01   8.098152555021329e+00  -4.394939999999892e-02 -5.15520891e+00   4.03054452e+00   7.31435580e-01
C     1.254870934950000e+01   7.418582066398703e+00   3.957150000000000e-02  3.33902193e+00   8.57544740e-01  -1.02839934e+00
C     1.377114145140000e+01   8.164521245466187e+00  -1.796948999999977e-01  9.94742450e-01   3.70386340e-01   9.57817540e-01
C     1.289427696000000e+00   1.019660148657551e+00   2.176299000000000e-01  7.08807327e+00   1.33314649e+00  -2.12849438e+00
C     2.698795291400000e+00   1.744795992662923e+00   2.589942000000000e-01 -3.44737752e+00   2.31972791e+00   2.05977328e+00
C     3.899893952199999e+00   1.135432906646438e+00   4.442010000000000e-02  1.49528853e+00  -1.29871476e+00   4.35267840e-01
C     5.109817165100000e+00   1.844691570735614e+00   2.123484000000000e-01  4.32931434e+00  -8.89662720e-01  -1.20378170e+00
C     6.377005236699999e+00   1.076063813872247e+00   2.470890000000000e-02 -3.07272000e-02  -1.56418444e+00   1.12380509e+00
C     7.632770103899999e+00   1.721905211098873e+00   2.263212000000000e-01 -2.48127544e+00   3.41185878e+00  -2.62621332e+00
C     8.815453242699999e+00   1.034804510694354e+00  -1.915890000000076e-02  2.14415088e+00   1.88284754e+00   8.38791950e-01
C     1.008280996960000e+01   1.884202853078145e+00   1.447446000000000e-01 -2.95511075e+00  -3.32544457e+00  -3.27517550e-01
C     2.726912659000000e+00   3.234791328206838e+00   6.306504000000001e-01  1.33572620e-01  -1.85231303e+00  -3.08941732e+00
C     3.996999817100000e+00   3.926866429166481e+00   5.041932000000000e-01  2.19768430e-01   1.92720380e+00  -3.19954652e+00
C     5.291399713900000e+00   3.259156113759946e+00   3.179391000000000e-01 -4.00361315e+00   1.41728220e+00   4.51164130e-01
C     6.433728879999999e+00   4.134449346984757e+00   1.301565000000000e-01  1.50530715e+00  -7.15585246e+00  -2.06862750e-01
C     7.627075362299999e+00   3.243302586902779e+00   6.687630000000000e-02  2.09297839e+00   1.49530725e+00   2.04526467e+00
C     8.958539097699999e+00   3.995180733149205e+00   2.258223000000000e-01 -6.28168502e+00   3.80285160e-01  -8.39375410e-01
C     1.011309781900000e+01   3.309807901515315e+00   2.442231000000000e-01  1.51986735e+00  -2.86334938e+00   2.48979230e-01
C     1.133895272130000e+01   3.935311852091620e+00   3.517803000000000e-01  3.14476310e+00   1.73363099e+00   8.24296650e-01
C     3.987215640500000e+00   5.417162508659501e+00  -1.184075999999976e-01 -1.60824363e+00  -5.14181649e+00   5.13437102e+00
C     5.154690912500000e+00   6.113296799031021e+00  -3.957120000000103e-02  1.35628849e+00  -1.67934490e-01  -2.36330478e+00
C     6.418300099900000e+00   5.488804294246072e+00  -5.344140000000053e-02 -4.15432030e-01  -2.83726330e-01   1.28343646e+00
C     7.624680762699999e+00   6.152823195422103e+00   6.241740000000000e-02  2.95027383e+00   8.26539960e-01   4.55312840e-01
C     8.842678970500000e+00   5.421628752700960e+00   3.010293000000000e-01  9.28867110e-01  -4.36430490e-01  -2.95876360e-01
C     1.009021241390000e+01   6.137472957842626e+00   4.026534000000000e-01  1.62459014e+00  -3.79469300e+00  -2.17761343e+00
C     1.145277922350000e+01   5.369943488507197e+00   2.060070000000000e-01 -6.67606083e+00  -2.15980744e+00   2.54344055e+00
C     1.260373648120000e+01   6.019538378570517e+00   1.519836000000000e-01  2.26932993e+00   1.98094050e+00  -2.02256074e+00
