32
Lattice="9.86 0 0 4.93 8.53901048131456 0 0 0 30 " PBC="1 1 1" Properties=species:S:1:pos:R:3:force:R:3 Energy="-251.29266694"
C     5.148966640199999e+00   7.630625421731311e+00  -1.585466999999987e-01  2.68086664e+00  -3.96152281e+00   2.69176140e-01
C     6.436092568499999e+00   8.175989734271559e+00  -1.558506000000008e-01  3.95621890e-01   4.53487538e+00  -8.33558370e-01
C     7.693332146600000e+00   7.533030167691829e+00  -1.256978999999987e-01 -9.73161210e-01   2.33784333e+00  -2.18766320e-01
C     8.887232711599999e+00   8.357111283293573e+00  -6.946950000000029e-02 -9.70838860e-01  -1.02572658e+00  -2.54416719e+00
C     1.008683437790000e+01   7.581652403436311e+00  -1.976163000000000e-01  1.43524071e+00   2.26815447e+00  -1.58556860e-01
C     1.132525092020000e+01   8.346534864913044e+00  -1.972389000000021e-01  1.39850995e+00  -1.20301962e+00   1.78956980e+00
C     1.262239643260000e+01   7.701016583842983e+00   6.838890000000000e-02 -2.03299746e+00  -2.98585838e+00  -4.59443389e+00
C     1.388698708440000e+01   8.374925879297578e+00  -3.572250000000210e-02 -3.36449327e+00   2.28041928e+00  -1.24258050e-01
C     1.526146970400000e+00   1.172507923908922e+00  -3.956328000000013e-01 -2.45063198e+00  -3.77094072e+00   1.84934593e+00
C     2.623402477600000e+00   1.877606125921926e+00  -5.875410000000016e-01  5.48335367e+00   1.89839621e+00  -5.85759340e-01
C     3.882117062400000e+00   1.257564836519992e+00  -4.593479999999985e-01  1.61805067e+00  -3.40104398e+00   1.48406656e+00
C     5.138787915700000e+00   1.885617340164158e+00  -4.890528000000032e-01  1.08381928e+00   1.71349660e+00   8.83463090e-01
C     6.385515747800000e+00   1.198217518222525e+00  -2.382807000000007e-01 -1.09064289e+00   5.24028870e-01  -9.46253900e-02
C     7.612844621500000e+00   1.934815361385307e+00  -1.171983000000019e-01  2.67825297e+00  -6.37072573e+00  -3.50335710e-01
C     8.952590263899999e+00   1.295653348936346e+00  -1.484421000000005e-01 -9.51147870e-01  -2.29727174e+00   1.39665736e+00
C     1.024345268850000e+01   1.945468801640364e+00  -2.397837000000003e-01 -4.58085620e+00  -2.86286330e-01  -9.47491040e-01
C     2.747236238900000e+00   3.309512366362602e+00  -7.762065000000007e-01  2.56155504e+00  -1.82951833e+00   5.08446510e-01
C     4.004103897799999e+00   4.005400989402613e+00  -6.716651999999996e-01 -1.88744062e+00   2.88653176e+00  -3.94593420e-01
C     5.229277819200000e+00   3.370504895809251e+00  -4.752408000000017e-01 -4.76737637e+00  -5.38618353e+00  -1.31758812e+00
C     6.416411515500000e+00   3.884952525445192e+00  -3.810660000000006e-01  3.47313733e+00   7.77091197e+00   1.67149676e+00
C     7.647324942899999e+00   3.220364072270145e+00  -2.375238000000017e-01 -4.87660330e-01   5.57061905e+00  -1.35594307e+00
C     8.813193084199998e+00   3.962323047772689e+00  -4.683605999999969e-01  3.74453262e+00   2.83465741e+00   9.63843660e-01
C     1.014694059280000e+01   3.334700995646821e+00  -4.688979000000018e-01  9.11336730e-01  -7.89795300e-02  -8.51154570e-01
C     1.146546416280000e+01   3.971670531764936e+00  -7.635086999999992e-01 -7.69339536e+00   5.11312312e+00   1.20720703e+00
C     3.893646606900000e+00   5.504813914214815e+00  -6.203928000000012e-01  4.97589760e-01  -2.05774232e+00   1.37502962e+00
C     5.087262957400000e+00   6.153289681564626e+00  -2.520401999999997e-01  3.29568251e+00   2.37884410e-01  -4.06344780e-01
C     6.421726499199999e+00   5.401437493910057e+00  -1.995915000000004e-01 -1.62080682e+00   2.65352500e-02  -1.83012781e+00
C     7.682277508999999e+00   6.153973997864492e+00  -3.046196999999999e-01 -3.24258647e+00  -8.77655680e-01   1.63503084e+00
C     8.837643320600000e+00   5.481044126911954e+00  -4.159298999999983e-01  2.99926416e+00  -3.67019229e+00  -6.58708460e-01
C     1.012717804690000e+01   6.194591252844394e+00  -4.306589999999986e-01 -4.13157017e+00  -1.24190621e+00   5.73789900e-01
C     1.125246538620000e+01   5.461091191903547e+00  -6.208038000000009e-01  6.15558216e+00  -3.12992650e-01  -6.00347580e-01
C     1.252764222700000e+01   6.229385756577984e+00  -5.311815000000024e-01 -1.66790190e-01   7.60089330e-01   2.25963677e+00
