32
Lattice="9.86 0 0 4.93 8.53901048131456 0 0 0 30 " PBC="1 1 1" Properties=species:S:1:pos:R:3:force:R:3 Energy="-249.14325255"
C     9.740671519199999e+00   6.013283894954335e-01   4.452424799999999e+00 -2.01469359e+00   4.92639260e-01  -9.64101030e-01
C     1.062186100100000e+00   1.289503382808441e+00   4.286117700000000e+00 -1.90308316e+00   4.54673930e+00  -3.86362560e-01
C     2.292983919000000e+00   6.322216755110256e-01   4.403172300000000e+00 -1.35300861e+00   3.11824742e+00   3.81485300e-01
C     3.451884294100000e+00   1.390961685189076e+00   4.343048100000000e+00  2.22908221e+00   2.67792887e+00   3.04119910e-01
C     4.652644461100000e+00   7.357815137608936e-01   4.598246700000000e+00  3.41299051e+00   1.11432525e+00   2.23171880e-01
C     5.943472967300000e+00   1.534449338712690e+00   4.486360200000000e+00 -1.28317700e-01  -4.13235205e+00  -6.05749660e-01
C     7.202838164199999e+00   6.779504675543601e-01   4.245491400000000e+00 -4.00058966e+00   4.42304461e+00   2.37127132e+00
C     8.431215007999999e+00   1.274900394036069e+00   4.396363500000000e+00  3.88822037e+00   2.79746577e+00  -8.06572550e-01
C     1.079609597640000e+01   2.858673875154698e+00   4.071386400000001e+00  5.26524570e+00  -2.05197116e+00   5.95008350e-01
C     2.230250655000000e+00   3.540050364493843e+00   4.189428600000000e+00 -1.83384300e+00   1.16412981e+00  -3.76220430e-01
C     3.468368143500000e+00   2.915077881929814e+00   4.237065600000000e+00  6.34326870e-01  -2.22071937e+00   1.08382500e+00
C     4.619737795700000e+00   3.699599298999604e+00   4.492409100000001e+00  4.22115101e+00  -3.94798549e+00   6.78933800e-01
C     5.978805389900000e+00   2.889757154153470e+00   4.545028800000000e+00 -1.55258326e+00   2.26386309e+00  -1.03260228e+00
C     7.281565334200000e+00   3.558394720708027e+00   4.404898800000001e+00  2.46812270e-01  -6.88090309e+00   1.04498234e+00
C     8.531495645000000e+00   2.702932570812074e+00   4.357214700000000e+00 -2.72643389e+00   4.45841004e+00  -1.59070362e+00
C     9.695720913099999e+00   3.677643453693009e+00   4.018161300000000e+00 -2.88446384e+00  -7.84109505e+00   1.79545463e+00
C     1.208464174470000e+01   4.957551465034969e+00   4.329252300000000e+00  3.60331649e+00   8.55509750e-01  -5.32838380e-01
C     3.636320228300000e+00   5.766744815864833e+00   4.507079700000000e+00 -5.74095939e+00  -1.38480950e-01  -9.29764840e-01
C     4.857281218200000e+00   5.081944781053941e+00   4.714606500000000e+00 -5.05190568e+00  -3.58942893e+00  -1.66095236e+00
C     6.101607597999999e+00   5.537187779257534e+00   4.679575199999999e+00  1.94937060e-01   6.62859413e+00   1.20406486e+00
C     7.314534364100000e+00   4.856624630666609e+00   4.640961900000001e+00  7.24433510e-01   5.95832528e+00  -2.09045868e+00
C     8.424989502599999e+00   5.752135337444495e+00   4.311125100000000e+00  1.56525095e+00  -1.01352004e+00   2.37055134e+00
C     9.663862119199999e+00   5.017579257077587e+00   4.097934600000000e+00 -1.86186813e+00   3.16162619e+00   3.21604960e-01
C     1.088669217070000e+01   5.687664015128295e+00   4.189617000000000e+00  9.77931070e-01  -1.02311815e+00   7.37605200e-01
C     1.331123678790000e+01   7.149944455137484e+00   4.285810800000000e+00  1.35162435e+00  -8.26237050e-01   1.70518124e+00
C     4.789796666700000e+00   7.737917149121359e+00   4.468118400000000e+00 -3.05486066e+00   1.12089003e+00  -2.36717330e-01
C     5.960095546900000e+00   7.081781633200674e+00   4.680272700000000e+00  4.62248158e+00  -2.65071933e+00   9.55234000e-02
C     7.222818221699999e+00   7.866697894115060e+00   4.756673400000000e+00 -1.86296507e+00  -3.45895576e+00  -8.88011300e-01
C     8.458524052799998e+00   7.196231442295896e+00   4.692849000000000e+00 -1.57171033e+00  -3.72114711e+00   4.76369600e-02
C     9.650161304099999e+00   7.854559007596901e+00   4.865247600000000e+00  1.57876274e+00  -9.16737650e-01  -3.74859436e+00
C     1.084771021700000e+01   7.023753848192682e+00   4.432268100000000e+00 -5.23021420e-01   6.63991958e+00   1.38608673e+00
C     1.197575569410000e+01   7.903564217961412e+00   4.311078000000000e+00  3.54774068e+00  -7.00828724e+00  -4.96857840e-01
