32
Lattice="9.86 0 0 4.93 8.53901048131456 0 0 0 30 " PBC="1 1 1" Properties=species:S:1:pos:R:3:force:R:3 Energy="-255.18482788"
C     9.824901653800000e+00   7.143377529127840e-02   3.729883500000000e+00  8.36413280e-01  -1.44564948e+00   3.45941400e-02
C     1.234579769800000e+00   7.459893030589999e-01   3.850730100000000e+00  5.54246080e-01   4.26164160e-01  -2.32988410e-01
C     2.530127419900000e+00   3.272379369218960e-02   3.581563800000000e+00 -4.03834710e+00   6.46355600e-01   6.82773830e-01
C     3.669943271999999e+00   8.296391575231760e-01   3.585440400000000e+00  3.57246680e-01  -5.75968760e-01   5.24232400e-02
C     4.861782949099999e+00   1.262607976109480e-01   3.427634100000000e+00  3.65081160e+00  -2.74243625e+00   5.68267220e-01
C     6.195685802000000e+00   7.538689311497343e-01   3.496871700000000e+00 -4.45379127e+00   2.04288766e+00   7.05278590e-01
C     7.376309679799999e+00   8.569255655120160e-02   3.596748300000000e+00 -6.87656500e-01  -3.58225392e+00   7.99357520e-01
C     8.540996593100001e+00   7.386168068006729e-01   3.827255700000000e+00  4.29738168e+00   1.95110932e+00  -6.05317090e-01
C     1.110358140750000e+01   2.190191718590876e+00   4.114117500000000e+00 -1.54017305e+00  -1.66130777e+00  -8.64545820e-01
C     2.455104947700000e+00   2.910925190353180e+00   4.040300100000000e+00 -9.28133530e-01   1.49082746e+00  -6.87205380e-01
C     3.635228134700000e+00   2.221548160534903e+00   3.788751000000000e+00  2.74442836e+00   8.90055000e-01  -1.05971110e-01
C     4.941730047600000e+00   2.938489201572725e+00   3.672182700000000e+00 -9.94519960e-01  -2.14770533e+00  -1.34962790e-01
C     6.166974073600000e+00   2.189562137348185e+00   3.653844900000000e+00 -2.47686590e-01  -8.62668420e-01  -1.14825212e+00
C     7.397630549400000e+00   2.868776207673376e+00   3.628627500000000e+00 -5.54503010e-01   1.85014330e+00   1.32611150e-01
C     8.623825325899999e+00   2.176664047408250e+00   3.845457600000000e+00 -1.45544295e+00  -8.94366920e-01   1.54119670e-01
C     9.809521434200001e+00   2.867493648299280e+00   4.070274000000000e+00  2.22476012e+00   1.55776130e-01  -1.33399070e-01
C     1.225139199410000e+01   4.364747057361090e+00   3.900361500000000e+00  1.64524222e+00  -8.93072070e-01   2.80032070e-01
C     3.661464904499999e+00   5.052865607814824e+00   3.709832700000000e+00  5.47464250e-01  -1.07090948e+00  -4.37859390e-01
C     4.967638134300000e+00   4.309409658385031e+00   3.537275100000000e+00 -2.68891402e+00   2.53829253e+00   4.96652200e-01
C     6.168874785800000e+00   5.067552278889901e+00   3.337859100000000e+00 -2.34433550e-01  -2.97872197e+00   9.00050510e-01
C     7.353304032000000e+00   4.303184292794587e+00   3.439440900000000e+00  3.05210150e+00  -4.10915180e-01   7.27378460e-01
C     8.671866894099999e+00   4.974888047232303e+00   3.544148100000000e+00 -3.44158458e+00  -1.12094040e-01   1.36735570e-01
C     9.826992072400000e+00   4.290306611089699e+00   3.974380800000000e+00 -1.68770414e+00  -2.81719600e-01  -1.61277806e+00
C     1.097805606460000e+01   5.027478531927051e+00   3.841047300000000e+00  4.06009525e+00   3.99137710e-01   6.75645090e-01
C     1.354211391370000e+01   6.469737639453889e+00   3.642433500000000e+00  5.01878600e-01   8.71762600e-02  -4.73415300e-02
C     4.941996070399999e+00   7.171269352959712e+00   3.483675000000000e+00 -5.46861880e-01   4.27301090e-01   1.35252990e+00
C     6.194049189899999e+00   6.435816249541879e+00   3.418913100000000e+00 -1.70481243e+00   3.03882534e+00  -5.40024400e-01
C     7.410870853199999e+00   7.155703249195301e+00   3.410263800000000e+00  5.15302250e-01  -4.81698450e-01  -2.28078890e-01
C     8.612499587599999e+00   6.378165718016892e+00   3.365099700000000e+00  1.84363772e+00   2.16141506e+00   1.00036620e+00
C     9.829532353499999e+00   7.173900136698495e+00   3.483802500000000e+00 -1.17871050e-01   2.78514550e-01  -4.65442210e-01
C     1.107573558430000e+01   6.430298340969704e+00   3.656672100000000e+00 -1.43296692e+00   2.18664036e+00   1.65083480e-01
C     1.230436563290000e+01   7.177065206323012e+00   3.740521800000000e+00 -7.56070500e-02  -4.29133910e-01  -1.61973254e+00
