32
Lattice="9.86 0 0 4.93 8.53901048131456 0 0 0 30 " PBC="1 1 1" Properties=species:S:1:pos:R:3:force:R:3 Energy="-254.81725384"
C     9.817941824900000e+00   1.179424437007617e+00   3.487796700000000e+00  3.22312520e+00  -4.14007087e+00   1.39201805e+00
C     1.263561317100000e+00   1.820092730905249e+00   3.639756300000000e+00 -3.13215670e+00   2.15858903e+00  -7.20331870e-01
C     2.457584491200000e+00   1.133502919497749e+00   3.548634000000000e+00  1.68354261e+00  -1.76795376e+00   7.53786260e-01
C     3.702958052300000e+00   1.809493257196425e+00   3.785034000000000e+00 -8.69890720e-01   5.82645140e-01  -1.53652289e+00
C     4.944551634500000e+00   1.070335504081844e+00   3.679143600000000e+00 -2.07421173e+00   2.46302069e+00   2.04834983e+00
C     6.092895992200001e+00   1.884896391509331e+00   3.863042700000000e+00  1.64910810e+00  -4.70088850e+00  -1.34756611e+00
C     7.331768263699999e+00   1.092798566610951e+00   3.760153200000000e+00  2.88181330e-01   2.09717869e+00   9.59714330e-01
C     8.599686813399998e+00   1.774886099352766e+00   3.609621900000000e+00 -1.94904986e+00   7.10293700e-02   1.20200874e+00
C     1.104054041290000e+01   3.275943296022997e+00   3.789194100000000e+00  2.21534637e+00  -2.25819823e+00   4.85661740e-01
C     2.457322708200000e+00   3.973239831110951e+00   3.847620000000000e+00 -2.07198674e+00  -2.80611770e-01  -8.33017000e-02
C     3.660400221700000e+00   3.283903703152873e+00   3.827001000000000e+00  4.76667780e-01  -2.79530856e+00   3.08623010e-01
C     4.862511060799999e+00   3.984211947237121e+00   3.811443600000000e+00  1.52275622e+00   6.75615660e-01  -1.24769220e+00
C     6.095956289699999e+00   3.239761800817142e+00   3.755299200000000e+00 -9.08969820e-01   1.55670799e+00  -5.18755700e-02
C     7.338322452200000e+00   3.843245863508251e+00   3.603838200000000e+00  8.30705520e-01   3.34133228e+00   7.73604100e-01
C     8.560007067499999e+00   3.139543533538412e+00   3.822065100000000e+00  1.39753130e-01   2.16149695e+00  -1.59852514e+00
C     9.781934041600000e+00   3.871902099558293e+00   3.892479300000000e+00  2.41963200e-01   1.84958085e+00  -1.21763888e+00
C     1.232481423760000e+01   5.372304439514813e+00   3.889756500000000e+00 -1.06750024e+00   1.13108374e+00  -4.66214480e-01
C     3.628849602099999e+00   6.157740982337744e+00   3.717268200000000e+00  2.50223532e+00  -3.32545306e+00   1.02234346e+00
C     4.893885827300000e+00   5.399643533198314e+00   3.610786800000000e+00 -4.48174550e-01   2.69005990e-01   9.03148500e-02
C     6.138215806000000e+00   6.060145130567528e+00   3.411689700000000e+00 -1.11582000e-03   1.27194816e+00   9.07574550e-01
C     7.369836737700000e+00   5.318873886969042e+00   3.432552600000000e+00 -5.95922420e-01  -9.67233210e-01   8.89499330e-01
C     8.599549808700001e+00   6.026025379442068e+00   3.561387000000000e+00 -7.01314300e-02   5.94595310e-01  -1.44114070e-01
C     9.807378067399998e+00   5.307933279791542e+00   3.748314300000000e+00  1.26052883e+00   1.02689441e+00   9.49137460e-01
C     1.109409165050000e+01   6.061257336682548e+00   3.871117500000000e+00 -1.94537786e+00   3.92065340e-01  -7.24881400e-02
C     1.356222688400000e+01   7.497615304846867e+00   3.872444100000000e+00 -6.70257810e-01   4.23265759e+00  -9.02892480e-01
C     4.958803081299999e+00   8.230769706643484e+00   3.592062000000000e+00 -3.24891438e+00   1.73706186e+00   2.37944670e-01
C     6.156815069100000e+00   7.575431905081841e+00   3.474738900000000e+00 -4.26914780e-01  -4.47904524e+00  -8.19318830e-01
C     7.374367604900000e+00   8.192509645506586e+00   3.424901100000000e+00  1.68040869e+00   2.64629956e+00   5.31426820e-01
C     8.584975841300000e+00   7.467404883499360e+00   3.543470700000000e+00  1.52816774e+00   4.77619630e-01   3.06756700e-02
C     9.845292528199998e+00   8.217343393515256e+00   3.731325600000000e+00 -5.12814220e-01  -1.81524508e+00  -6.80782500e-01
C     1.109192925390000e+01   7.531869459997282e+00   3.885966600000000e+00 -1.78340336e+00  -2.01134043e+00   3.27033230e-01
C     1.226292858850000e+01   8.277674491210124e+00   4.029405000000000e+00  2.53430239e+00  -2.19507954e+00  -2.02045124e+00
