32
Lattice="9.86 0 0 4.93 8.53901048131456 0 0 0 30 " PBC="1 1 1" Properties=species:S:1:pos:R:3:force:R:3 Energy="-246.16335256"
C     9.895709074599999e+00   1.220841114148656e-01   4.414929600000000e+00 -7.06862095e+00   4.27346058e+00   3.75285220e-01
C     1.088266194500000e+00   9.609634175685544e-01   4.567618800000000e+00  5.67699278e+00   4.39816250e-01  -1.68627407e+00
C     2.321392797500000e+00   1.989913070337192e-01   4.118560500000000e+00  2.62991900e+00   6.41660030e-01   1.38706642e+00
C     3.709875286000000e+00   8.004803153162815e-01   4.356531300000000e+00 -2.56374932e+00   2.74282821e+00  -1.10818333e+00
C     5.000410605100000e+00   1.741152909231736e-01   4.089966900000000e+00 -5.64672813e+00   2.50079183e+00  -1.63383820e-01
C     6.135901417500000e+00   9.824964110761800e-01   4.191845400000000e+00 -3.63936910e-01  -4.18732330e-01  -1.14069678e+00
C     7.330202397100000e+00   2.567174088014536e-01   4.341150600000000e+00  1.25591981e+00  -3.74312582e+00  -1.33472600e+00
C     8.525094532999999e+00   7.964748362803232e-01   4.443365099999999e+00  5.11419274e+00   6.02724039e+00   2.44185707e+00
C     1.106614283960000e+01   2.459411775756936e+00   4.792355400000000e+00  3.77980160e-01  -4.08903431e+00   4.21444140e-01
C     2.517001689300000e+00   3.068271657885834e+00   4.842884700000000e+00 -2.92930257e+00  -1.42121179e+00  -2.69387450e-01
C     3.652098939800000e+00   2.294684016785160e+00   4.524105899999999e+00  1.50129340e+00  -1.47438564e+00  -1.14755559e+00
C     4.802573451900000e+00   3.020131961623577e+00   4.032264300000000e+00 -1.66072794e+00   1.99919935e+00   1.17869027e+00
C     6.012303310200000e+00   2.378286394351067e+00   3.913414800000000e+00  5.35864845e+00  -1.04490593e+00   2.88796006e+00
C     7.380946196900000e+00   3.106260520049887e+00   4.262030999999999e+00 -1.13873971e+00  -1.80359456e+00   4.31570980e-01
C     8.595807840099999e+00   2.513799380597304e+00   4.722979800000000e+00 -1.21404665e+00  -5.59715003e+00  -2.52951555e+00
C     9.860654260299999e+00   3.132338658055807e+00   4.809204900000000e+00 -2.02448103e+00   4.18426429e+00  -6.91297240e-01
C     1.234230637060000e+01   4.468312360577666e+00   4.860528300000000e+00 -3.80846011e+00   5.73295720e-01  -2.19641659e+00
C     3.556872341600000e+00   5.063188502974201e+00   4.326954600000001e+00  2.78160400e+00   2.98376941e+00   2.16326100e-02
C     4.688634545699999e+00   4.473643008650015e+00   3.964537200000000e+00  7.70926528e+00  -3.40951542e+00  -1.08528539e+00
C     6.162857030600000e+00   5.237656540420304e+00   3.734466600000000e+00 -4.24818700e+00  -2.80330293e+00   2.18237238e+00
C     7.415583440199999e+00   4.465800183694450e+00   4.227701700000000e+00 -4.33567765e+00   4.87024943e+00  -3.04924616e+00
C     8.496465677900000e+00   5.350016512090650e+00   4.261150200000000e+00  4.53632009e+00  -3.40221599e+00  -4.73613900e-02
C     9.844861744799999e+00   4.672645928737987e+00   4.552190400000000e+00 -1.32769728e+00  -2.41746501e+00   6.04487260e-01
C     1.111253892170000e+01   5.271765703172768e+00   4.494087600000000e+00 -1.95884604e+00   6.90799910e-01   8.49073280e-01
C     1.353865744140000e+01   6.434091625595234e+00   4.250318700000000e+00 -1.22111767e+00   7.06646976e+00  -3.79194560e-01
C     4.846818574999999e+00   7.373257938062016e+00   4.081879800000000e+00  4.97466100e-02  -6.77575982e+00  -6.80916800e-01
C     5.977287541500000e+00   6.642084928257178e+00   3.719445600000000e+00  4.48830153e+00  -7.98872890e-01   2.31402890e-01
C     7.256012059600000e+00   7.334550774336385e+00   3.688908600000000e+00 -1.40296359e+00   2.46078737e+00   1.44426830e+00
C     8.489684660100000e+00   6.647005447656174e+00   3.770418300000000e+00  7.96191320e-01   1.50525669e+00   8.66580560e-01
C     9.731042391100001e+00   7.378501488227470e+00   3.824025600000000e+00  3.75948755e+00  -2.61602698e+00   1.56510331e+00
C     1.101734131190000e+01   6.734139389176399e+00   4.162255500000000e+00  2.21078016e+00  -4.47226488e+00  -1.83595930e-01
C     1.239553942600000e+01   7.240121614602677e+00   4.206927900000000e+00 -5.33336033e+00   3.32767510e+00   8.04241910e-01
