32
Lattice="9.86 0 0 4.93 8.53901048131456 0 0 0 30 " PBC="1 1 1" Properties=species:S:1:pos:R:3:force:R:3 Energy="-252.29946863"
C     6.330529189999999e-02   4.945598472774960e-02   3.622192800000000e+00 -4.65622491e+00  -3.41431514e+00  -1.13615250e-01
C     1.189335878000000e+00   7.327227548168528e-01   3.750776700000000e+00  2.41896637e+00   2.83404552e+00   6.10689580e-01
C     2.346212143000000e+00   4.510339491577920e-02   3.596643300000000e+00  5.98553760e+00   5.25133140e-01  -6.36691070e-01
C     3.767396849800000e+00   6.969716257391888e-01   3.577408500000000e+00 -4.61008137e+00   1.06939512e+00   2.50091820e-01
C     9.844679236200001e+00   8.494234983086653e+00   3.379899300000000e+00  2.26745161e+00   2.81141521e+00   5.21517110e-01
C     6.102056868900000e+00   7.601977895471960e-01   3.569553300000000e+00  2.06359272e+00   7.75668810e-01  -1.14184574e+00
C     7.414615977000000e+00   5.304330842050240e-02   3.669612900000000e+00 -1.08903214e+00  -1.52277640e-01  -1.82893823e+00
C     8.714960665000000e+00   7.134503789437023e-01   3.692167200000000e+00 -3.97644313e+00   2.45979191e+00   1.21174008e+00
C     1.108009720460000e+01   2.137003332382318e+00   3.986227200000000e+00 -2.46163177e+00   1.27825837e+00  -3.99974820e-01
C     2.396966690200000e+00   2.857667808939944e+00   3.967978800000000e+00  4.97955344e+00  -7.93799840e-01  -7.63133690e-01
C     3.763361102500000e+00   2.110546318481401e+00   3.722036400000000e+00 -2.76155238e+00   1.12368123e+00  -3.28197720e-01
C     4.909851583000000e+00   2.941538652995342e+00   3.450424800000000e+00 -3.14397548e+00  -3.14580061e+00   1.01707036e+00
C     6.086766178100000e+00   2.275863781516926e+00   3.421187100000000e+00  3.52253834e+00  -5.25093799e+00   1.64103138e+00
C     7.375747610499999e+00   2.849845136049111e+00   3.626077800000000e+00  1.55713670e-01   2.15025740e+00  -5.96702590e-01
C     8.620844253500000e+00   2.198270647186213e+00   3.873435300000000e+00 -1.32705072e+00  -3.10381640e+00  -1.43114839e+00
C     9.797744650199999e+00   2.893082501004696e+00   3.934056000000000e+00  2.94092454e+00   1.45427242e+00  -5.55172970e-01
C     2.535325069600000e+00   4.274947322159114e+00   3.943231200000000e+00 -2.38984615e+00   2.23993471e+00  -1.11208880e+00
C     3.746788611700000e+00   5.063800152294884e+00   3.627012900000000e+00 -4.58026895e+00  -2.19557763e+00   1.12293613e+00
C     4.816466093300000e+00   4.280998321155557e+00   3.462227700000000e+00  5.40153709e+00   3.25078986e+00  -5.24080020e-01
C     6.115260986499999e+00   4.981213916976096e+00   3.363199800000000e+00  7.65621250e-01  -1.49192077e+00  -4.40864190e-01
C     7.399441979300000e+00   4.280237324541578e+00   3.465669900000000e+00 -4.58187650e-01   1.49216229e+00   3.51667000e-01
C     8.615615643399998e+00   5.107704413968957e+00   3.515732100000000e+00  3.40996900e-01  -3.02601521e+00  -1.44050900e-01
C     9.867267017200000e+00   4.332662664773643e+00   3.677109300000000e+00  3.47667890e-01   6.46912400e-01   1.82503071e+00
C     1.115169914420000e+01   5.038331785027341e+00   3.840683700000000e+00 -1.62588437e+00  -1.44687370e-01  -1.49859677e+00
C     1.351752544010000e+01   6.449757891952576e+00   3.558976800000000e+00 -7.03753830e-01   6.33846620e-01  -2.30951780e-01
C     4.853944939300000e+00   7.143420651130763e+00   3.513541500000000e+00  3.81197009e+00  -1.54078800e-01  -1.35739417e+00
C     6.120549348199999e+00   6.352463125691884e+00   3.260219400000000e+00 -1.13665040e-01   4.70900796e+00   1.89581522e+00
C     7.361851271600001e+00   7.248887421201026e+00   3.332743200000000e+00 -2.76114390e-01  -5.03141080e+00   1.39735350e-01
C     8.667616889000000e+00   6.508751439045856e+00   3.391867500000000e+00 -3.06934288e+00  -8.46346360e-01  -7.77579500e-01
C     9.913235668300000e+00   7.107158547665977e+00   3.297228600000000e+00 -3.12489198e+00   2.20355027e+00   9.60976790e-01
C     1.108614453980000e+01   6.526569962994682e+00   3.546320700000000e+00  1.57141520e-01  -7.28988244e+00   5.00529760e-01
C     1.225052884970000e+01   7.129055644580470e+00   3.480656100000000e+00  5.20873409e+00   4.38274378e+00   1.83219531e+00
