32
Lattice="9.86 0 0 4.93 8.53901048131456 0 0 0 30 " PBC="1 1 1" Properties=species:S:1:pos:R:3:force:R:3 Energy="-252.28413486"
C     9.728691027600000e+00   6.223871263609999e-01   4.567795800000000e+00 -1.51841946e+00  -2.78385360e-01  -7.60895820e-01
C     1.088713789200000e+00   1.301848998770320e+00   4.658186400000000e+00 -3.11604191e+00   2.53378730e+00   1.16606709e+00
C     2.206363769700000e+00   6.794815975235288e-01   4.334502300000000e+00  5.44494749e+00  -4.24720640e+00  -4.78144900e-01
C     3.393885506299999e+00   1.408375801601569e+00   4.383137100000000e+00  3.37451409e+00  -9.92502700e-02   3.87028590e-01
C     4.694719743299999e+00   6.293567521048808e-01   4.298615700000000e+00 -1.41558307e+00   3.00111370e+00   1.32554408e+00
C     5.928163641099999e+00   1.275747036925161e+00   4.474138200000000e+00  3.31336058e+00   1.02546111e+00  -4.81907120e-01
C     7.230329816199999e+00   5.890926705984321e-01   4.445666699999999e+00 -1.27148550e-01   2.76645786e+00   1.20779719e+00
C     8.539282678599999e+00   1.385800792645069e+00   4.710150600000000e+00 -3.99645315e+00  -2.67008001e+00  -1.49082346e+00
C     1.093000182630000e+01   2.706255014399737e+00   5.017558200000000e+00  6.60001850e-01   1.42197734e+00  -8.02043730e-01
C     2.307880505600000e+00   3.504218968717667e+00   4.975938600000000e+00 -4.66538020e-01   9.72228220e-01  -1.27646833e+00
C     3.510388357600000e+00   2.851821831585126e+00   4.679842800000000e+00 -4.40880020e-01  -3.96607643e+00  -5.45724980e-01
C     4.794486329200000e+00   3.416272625740374e+00   4.533711900000000e+00  1.18576900e-01   2.27447343e+00  -2.15814500e-01
C     6.046196172800000e+00   2.692895988674091e+00   4.496778900000000e+00 -3.41214119e+00   4.02851250e-01  -1.36951500e-01
C     7.168451118399999e+00   3.492280578165579e+00   4.510566000000000e+00  3.56715188e+00  -9.57600340e-01  -4.70188170e-01
C     8.442345567600000e+00   2.784008596737368e+00   4.763666700000000e+00 -4.08898050e-01  -4.88205800e-01   3.58605300e-02
C     9.676594633000001e+00   3.424778334079503e+00   4.983204000000000e+00  2.99115000e-03   5.04636260e-01  -6.51905900e-01
C     1.222664265460000e+01   4.965022330694025e+00   4.792134300000000e+00 -5.07608176e+00  -2.90161600e-01   1.06957013e+00
C     3.496888686500000e+00   5.693878365395221e+00   4.572939900000000e+00  4.33146206e+00  -2.71078344e+00  -8.92022830e-01
C     4.811071391500000e+00   4.829531375094827e+00   4.411384200000000e+00 -7.99804560e-01   3.60328665e+00  -2.27722080e-01
C     6.057416162599999e+00   5.617229560233492e+00   4.095888000000000e+00 -3.31665434e+00  -2.07592566e+00   5.07993120e-01
C     7.221740178599999e+00   4.877856965615234e+00   4.133947200000000e+00  1.42256074e+00  -2.08897150e-01   1.58903474e+00
C     8.486246527399999e+00   5.579471592912817e+00   4.270170900000000e+00  3.95438500e-01  -2.91862853e+00   1.33234649e+00
C     9.596993275399999e+00   4.810033654735109e+00   4.804378800000000e+00  3.06650756e+00   4.12904942e+00  -1.46796487e+00
C     1.086116724360000e+01   5.689036661062955e+00   4.757782500000000e+00  7.57514970e-01  -5.06636019e+00   1.00863382e+00
C     1.339149141980000e+01   7.104955909912661e+00   4.407739200000000e+00 -6.41693520e-01  -2.02796181e+00  -6.70016440e-01
C     4.715531738300000e+00   7.777587854789553e+00   4.168884599999999e+00  4.08481705e+00   3.34760050e-01   1.44829094e+00
C     6.078350027199999e+00   7.019759469870347e+00   4.045383300000000e+00 -3.39529574e+00   5.64815150e-01   5.55249970e-01
C     7.298669919900000e+00   7.644778233871179e+00   4.164870600000000e+00 -6.44488820e-01   3.90745802e+00  -6.53967490e-01
C     8.575270150300000e+00   6.966447097229620e+00   4.197496200000000e+00 -3.23177906e+00   2.35349232e+00   7.31183740e-01
C     9.664093089700000e+00   7.825132552801564e+00   4.476272400000000e+00  6.44329140e-01  -4.41754028e+00  -1.01062309e+00
C     1.085825238110000e+01   7.034560563685854e+00   4.635959400000001e+00  1.90242229e+00   3.40120555e+00  -1.23862348e+00
C     1.215041499460000e+01   7.753311021044389e+00   4.430814000000000e+00 -1.07869502e+00  -7.73990360e-01   1.10720825e+00
