32
Lattice="9.86 0 0 4.93 8.53901048131456 0 0 0 30 " PBC="1 1 1" Properties=species:S:1:pos:R:3:force:R:3 Energy="-251.67417735"
C     5.082099275399999e+00   7.955432473149761e+00  -8.738093999999990e-01  1.89991172e+00   5.72808510e-01   2.33986950e-01
C     1.502753085100000e+00   1.651599182921688e-01  -7.246604999999988e-01 -6.36358317e+00   2.38486566e+00  -1.89045328e+00
C     7.562119555699999e+00   8.045087557514208e+00  -8.822301000000010e-01  3.47541025e+00  -1.46859844e+00   2.91709500e-01
C     3.832415513900000e+00   2.314373267149944e-01  -1.127848499999999e+00  1.08354148e+00  -2.17203456e+00   2.51077408e+00
C     1.005977257260000e+01   7.990697732531113e+00  -8.946596999999983e-01 -4.84380790e+00  -1.02581604e+00  -2.88362922e+00
C     6.212698689700000e+00   1.949404004620072e-01  -8.657738999999971e-01  6.25915919e+00   2.01376761e+00  -4.84088810e-01
C     1.251247631450000e+01   8.086881915088776e+00  -1.098007500000001e+00 -2.67029474e+00  -2.73719853e+00   1.05509850e+00
C     8.834074789400001e+00   1.344132470865184e-01  -7.673208000000002e-01 -2.67879961e+00   2.31412375e+00  -1.16950532e+00
C     1.416180165200000e+00   1.595478073563774e+00  -1.065356400000002e+00 -3.00231839e+00   8.19979800e-02  -1.46029337e+00
C     2.549751827200000e+00   2.335643942255624e+00  -1.505292900000001e+00  1.25106626e+00  -4.06951408e+00   2.18566725e+00
C     3.776784753000000e+00   1.611782972514915e+00  -1.210920300000002e+00  1.64041638e+00   8.83234800e-01  -1.29293072e+00
C     5.053036678900000e+00   2.299815193572697e+00  -1.157228100000001e+00 -2.48751991e+00   2.55442741e+00  -9.35682710e-01
C     6.196143749699999e+00   1.652851087248161e+00  -8.537898000000013e-01  3.36426115e+00  -1.23788223e+00   1.85902430e-01
C     7.495269051499999e+00   2.382126643534238e+00  -8.329766999999997e-01 -1.44217798e+00  -2.48691428e+00  -3.91481620e-01
C     8.700654396599999e+00   1.626183330568597e+00  -7.773938999999999e-01  2.19133072e+00  -2.60133900e-02  -1.34094562e+00
C     9.910770273900001e+00   2.290621070208671e+00  -1.232306999999999e+00  2.88206734e+00  -8.72917750e-01   2.79285777e+00
C     2.601085205700000e+00   3.654707159203100e+00  -1.807173300000002e+00  1.14244825e+00   3.52637035e+00   9.55685510e-01
C     3.867052954400000e+00   4.434005007391960e+00  -1.656609300000003e+00 -1.40275270e+00  -1.78179560e-01  -4.50685350e-01
C     5.069735081899999e+00   3.742235090666873e+00  -1.425734400000000e+00  1.40290354e+00   8.08152350e-01   1.38355815e+00
C     6.308846014700000e+00   4.517665194058817e+00  -1.150594200000000e+00  4.45871200e-02   2.13348900e-01  -2.45449750e-01
C     7.512897696200000e+00   3.776448087786775e+00  -1.048179299999997e+00  5.52121010e-01  -4.66133670e-01   1.08235482e+00
C     8.773794989199999e+00   4.413517701107716e+00  -1.034983499999999e+00  1.77923515e+00   3.14213624e+00  -1.77502762e+00
C     1.005281851180000e+01   3.720962110028363e+00  -1.312906500000000e+00 -3.57904299e+00  -1.05373996e+00   8.37254400e-02
C     1.125515065860000e+01   4.362065210339637e+00  -1.656852900000001e+00 -7.87630000e-01   2.20128663e+00  -3.43531020e-01
C     3.853023850600000e+00   5.877213567494069e+00  -1.514368800000000e+00 -1.18443083e+00   2.91052880e-01   9.20813500e-02
C     5.061288512900000e+00   6.551482611460187e+00  -1.231254000000000e+00  2.47318388e+00   2.53283987e+00   1.94462333e+00
C     6.425450818400000e+00   6.000730183307059e+00  -1.006514400000000e+00 -6.02779264e+00  -5.40734610e+00  -1.42147423e+00
C     7.586688802299999e+00   6.622837144734210e+00  -7.474343999999995e-01  2.07819441e+00   1.22633472e+00  -1.75451734e+00
C     8.795734475200000e+00   5.922684993761536e+00  -1.059322499999997e+00 -9.10493790e-01  -3.38707771e+00   1.02060091e+00
C     1.000416562360000e+01   6.555979339769059e+00  -1.253610899999998e+00  1.79356753e+00   4.89666570e-01   2.74376160e-01
C     1.119839285040000e+01   5.803869786338624e+00  -1.665938100000002e+00  8.16281200e-01   3.22631254e+00   2.59719312e+00
C     1.243187254000000e+01   6.661630979416213e+00  -1.440485400000000e+00  1.25095806e+00  -1.87336048e+00  -8.50499270e-01
