32
Lattice="9.86 0 0 4.93 8.53901048131456 0 0 0 30 " PBC="1 1 1" Properties=species:S:1:pos:R:3:force:R:3 Energy="-250.75520271"
C     9.677185246999999e+00   7.111067621273617e-01   4.274425200000000e+00 -1.68567800e-01   5.75539878e+00  -7.30632550e-01
C     9.893221791000000e-01   1.604646836066674e+00   4.316838300000001e+00  8.68471190e-01  -1.95944497e+00   7.17666710e-01
C     2.235079688600000e+00   8.656047865440976e-01   4.276043100000000e+00  7.36212310e-01  -1.34982352e+00  -1.61297783e+00
C     3.545019093300001e+00   1.491979716189362e+00   4.123238100000000e+00 -8.44391900e-01  -1.89796767e+00   1.14118289e+00
C     4.837134230900000e+00   7.236337466718360e-01   4.103992500000000e+00 -2.78163182e+00   1.94720938e+00  -4.23997590e-01
C     5.990819306900000e+00   1.470963503595986e+00   4.225387500000000e+00  2.41951427e+00   8.28526690e-01   1.21747190e-01
C     7.311274598800000e+00   8.554105742726544e-01   4.400268900000000e+00 -3.92313676e+00   2.23113790e-01  -1.39917455e+00
C     8.506020609500000e+00   1.591090303028627e+00   4.473344100000000e+00 -9.99357600e-01  -3.53689572e+00  -1.20996482e+00
C     1.083970887630000e+01   3.025075024010239e+00   4.552088100000001e+00 -3.85105720e-01  -1.80902634e+00   6.22263600e-02
C     2.310731869700000e+00   3.589618551819300e+00   4.573855800000000e+00 -2.20308329e+00  -2.60503000e-03  -9.40527510e-01
C     3.472089356800000e+00   2.863002299567010e+00   4.269323400000000e+00  2.83474615e+00   1.37375555e+00   5.83807690e-01
C     4.754145618199999e+00   3.639634012513699e+00   4.206999600000000e+00 -4.90396339e+00  -2.83303167e+00  -6.75913840e-01
C     5.927508739899999e+00   2.883761573335042e+00   4.109336700000000e+00 -2.97738310e-01   1.16708279e+00   1.46419805e+00
C     7.030371727700000e+00   3.676496664585545e+00   4.307222700000000e+00  6.68093071e+00   1.05527800e-01  -1.84720819e+00
C     8.425727425000000e+00   2.972094648096975e+00   4.346904900000000e+00 -4.47363642e+00   7.75404030e-01   1.82076408e+00
C     9.505287387399999e+00   3.752120446929255e+00   4.584244200000001e+00  4.83185721e+00  -3.25812414e+00  -1.05158551e+00
C     1.217866527500000e+01   4.989343823464000e+00   4.516105200000000e+00 -1.13971579e+00   2.07253811e+00   3.49722100e-01
C     3.467533198700000e+00   5.800512674368412e+00   4.345067400000000e+00 -2.08896588e+00   5.10949470e-01  -7.50256030e-01
C     4.540511216700000e+00   4.981260198412898e+00   4.130624100000000e+00  7.34143961e+00   4.46758354e+00  -6.12224130e-01
C     5.909558807100000e+00   5.815210189986797e+00   3.934682100000000e+00 -1.10702129e+00  -2.87917449e+00  -4.72766950e-01
C     7.176367811000000e+00   5.111713137828898e+00   4.028769300000000e+00 -2.14810773e+00   2.25000990e-01   1.38265743e+00
C     8.410729428300000e+00   5.891366208853726e+00   4.111438500000000e+00  8.75508800e-02  -4.11254087e+00   2.45346730e-01
C     9.589224729300000e+00   5.058562494046662e+00   4.369514700000000e+00  1.64348152e+00   5.65752562e+00  -3.47556900e-01
C     1.095809336070000e+01   5.686381626534408e+00   4.419502200000000e+00 -2.66410464e+00   1.90610734e+00   2.95274330e-01
C     1.323062621000000e+01   7.299514701996317e+00   4.169044200000000e+00  7.65852972e+00  -5.50490049e+00  -1.83363998e+00
C     4.613222061199999e+00   7.971769649560517e+00   3.768500100000000e+00  1.72805744e+00  -2.39376370e+00   2.91367406e+00
C     5.886826133400000e+00   7.173722098329987e+00   3.722702100000000e+00  4.84970970e-01   3.39344188e+00   2.38825064e+00
C     7.132819346200000e+00   7.953251780653379e+00   4.120982400000000e+00  5.67623120e-01  -1.80413510e-01  -2.28758613e+00
C     8.457077344300000e+00   7.266835652719042e+00   4.044729600000000e+00 -2.22493431e+00   6.45321580e-01   1.86011230e-01
C     9.735784706000000e+00   7.881351263049264e+00   4.040886900000000e+00  2.00213490e-01  -1.16625615e+00   2.12444258e+00
C     1.096237265000000e+01   7.145312127342189e+00   4.361774400000000e+00 -1.93057858e+00   4.32832010e-01  -1.91732630e+00
C     1.213713401830000e+01   7.971162782085703e+00   4.230186900000001e+00 -3.79955737e+00   1.39664893e+00   2.31636672e+00
