32
Lattice="9.86 0 0 4.93 8.53901048131456 0 0 0 30 " PBC="1 1 1" Properties=species:S:1:pos:R:3:force:R:3 Energy="-252.32951061"
C     4.946090041000001e+00   8.053099625657486e+00  -9.656444999999998e-01  5.56946383e+00  -1.47542040e-01  -6.46701120e-01
C     1.396988907700000e+00   1.693949259298296e-01  -1.038844200000000e+00 -3.73095831e+00   1.34871924e+00   8.69054290e-01
C     7.504324278299999e+00   7.998097212062557e+00  -8.800998000000000e-01  1.71962001e+00  -6.36143110e-01  -8.78787160e-01
C     3.886818211800000e+00   2.051365767058608e-01  -8.782569000000002e-01 -2.02088978e+00  -1.09267301e+00  -2.93402059e+00
C     1.000829765380000e+01   8.061591159239217e+00  -1.233456900000000e+00 -1.16239950e-01  -2.38740985e+00   2.33753468e+00
C     6.332126460700000e+00   1.172779293661976e-01  -1.139120399999999e+00 -5.73009130e-01   4.37841181e+00   9.13649310e-01
C     1.249340219380000e+01   7.940991640186406e+00  -9.388001999999993e-01 -2.75774257e+00   3.20428945e+00  -2.10296413e+00
C     8.695967938599999e+00   2.158929974273072e-01  -8.947430999999995e-01  1.47936658e+00  -6.01027770e-01  -7.76160000e-03
C     1.347688118900000e+00   1.590352874083574e+00  -1.213384800000000e+00  5.78247520e-01   6.58615710e-01   1.50414114e+00
C     2.622617030000000e+00   2.259571776471609e+00  -1.305461399999999e+00 -1.34845527e+00   2.92579470e+00  -6.03975630e-01
C     3.855366290800000e+00   1.574161970922341e+00  -1.212285000000001e+00 -2.37594100e-02   2.09231125e+00   9.28504380e-01
C     5.071812386700000e+00   2.415699983379083e+00  -1.225392899999999e+00 -3.70737280e-01  -5.20961314e+00   4.59617290e-01
C     6.266971334200000e+00   1.661913624460690e+00  -1.076991599999999e+00  3.05550423e+00  -1.63870751e+00   1.99783480e-01
C     7.599785445899999e+00   2.363085333284676e+00  -9.492917999999975e-01 -4.59514468e+00  -3.03207130e+00   5.01150800e-02
C     8.770035765599999e+00   1.623075813874715e+00  -9.192062999999990e-01 -2.37759610e-01   9.29295380e-01   2.34741460e-01
C     9.955990550999999e+00   2.374350593640626e+00  -1.032852299999998e+00  3.57147264e+00  -2.73395312e+00  -2.33675756e+00
C     2.598369170100000e+00   3.771665473407031e+00  -1.491416399999999e+00  1.29763760e-01   2.98754950e-01  -3.60494810e-01
C     3.870455344600000e+00   4.526153397426461e+00  -1.555426199999999e+00 -1.68867194e+00  -3.72446550e-01   1.31448934e+00
C     5.061195187999999e+00   3.771679221213904e+00  -1.247100600000000e+00  2.66060380e-01   2.79347438e+00  -9.84338850e-01
C     6.296024169299999e+00   4.450165853236303e+00  -1.096454100000003e+00  6.15651340e-01   4.70434780e-01   5.57744030e-01
C     7.565362953399999e+00   3.715487921189845e+00  -9.138573000000001e-01 -9.77167080e-01   2.85764148e+00  -1.81748164e+00
C     8.801178772800000e+00   4.352447893616223e+00  -1.189630800000000e+00 -1.58149174e+00   5.86190807e+00   1.70427872e+00
C     1.000343238470000e+01   3.751618096942716e+00  -1.375198200000000e+00 -4.39594490e-01  -8.18188130e-01   1.29925002e+00
C     1.113814884200000e+01   4.565936305692362e+00  -1.510728000000000e+00  5.24638921e+00  -4.07059542e+00   4.36866150e-01
C     3.879678783000000e+00   6.015643735890588e+00  -1.482223800000000e+00 -9.68909450e-01  -4.51011857e+00   2.13263170e-01
C     5.054809802699999e+00   6.667454157613048e+00  -1.182608699999999e+00 -1.35707910e-01  -3.16585000e-01   2.85763270e-01
C     6.277005067399999e+00   5.901870643375908e+00  -1.071096900000001e+00 -3.06944147e+00  -2.60899746e+00  -7.30053610e-01
C     7.419513044599999e+00   6.534537030552731e+00  -9.958379999999991e-01  8.34039930e+00   3.41367658e+00   1.20065889e+00
C     8.847037632799999e+00   5.867162298258060e+00  -1.033119900000003e+00 -3.98347558e+00  -1.56343953e+00  -1.18664110e+00
C     1.001775812660000e+01   6.616468494547912e+00  -1.188192600000001e+00  3.89336230e-01   2.21064000e-01   4.29545400e-02
C     1.130069961880000e+01   5.920279042168691e+00  -1.314746700000001e+00 -4.04019152e+00   3.60948410e-01  -1.17400675e+00
C     1.248394684820000e+01   6.622370146251058e+00  -1.368929999999999e+00  1.69807212e+00  -7.58286800e-02   1.21157530e+00
