72
Lattice="7.395 0 0 3.6975 6.40425786098592 0 0 0 13.6 " PBC="1 1 1" Properties=species:S:1:pos:R:3:force:R:3 Energy="-576.6758192"
C     3.633167604225000e+00   6.104861302705566e+00   4.348859760000000e-01  5.43059150e-01   3.07455458e+00  -1.69779065e+00
C     1.203064633875000e+00   4.285065238371918e-01   4.150800240000000e-01 -1.99011428e+00   9.74373930e-01  -3.57993740e-01
C     1.470606231300000e+00   1.089244374278861e+00   3.431524120000000e+00  8.16343520e-01   1.20620587e+00  -1.98960670e-01
C     2.756973876300000e+00   1.790691978531456e+00   3.548483304000000e+00 -5.09511120e-01  -5.46572390e-01  -1.02426486e+00
C     6.106446392999999e+00   6.136632505736133e+00   3.003175120000000e-01  1.26846002e+00  -7.52646100e-01  -6.05945190e-01
C     3.671843343300000e+00   4.497214605519636e-01   2.797204480000000e-01 -1.47662513e+00  -1.17966014e+00   5.02747150e-01
C     4.024939914225000e+00   1.131505495513793e+00   3.380654408000000e+00 -2.14839197e+00  -1.80156810e-01   2.92220020e-01
C     5.225664954975000e+00   1.868578577304840e+00   3.251777000000000e+00 -1.09390349e+00   9.44491900e-01   3.55238270e-01
C     8.561271624824998e+00   6.147777771647312e+00   3.116155760000000e-01  2.41570724e+00  -1.23671641e+00  -1.13427257e+00
C     6.111195277125000e+00   4.771946380475274e-01   2.033871840000000e-01  1.99215600e-01  -4.15037680e-01   1.28605455e+00
C     6.389924474249999e+00   1.167581256422381e+00   3.140107944000000e+00  3.59781199e+00  -2.41131076e+00   1.13850724e+00
C     7.667726786549999e+00   1.843251594703319e+00   3.375458120000000e+00 -1.89245646e+00   2.04199449e+00  -5.35975780e-01
C     1.170382320450000e+00   1.901151465334321e+00   4.288358799999999e-01  1.90983257e+00  -2.10904964e+00  -5.76105600e-01
C     2.452778295825000e+00   2.560104449110408e+00   5.523996320000000e-01 -4.13064420e-01  -1.08202813e+00  -9.78690280e-01
C     2.751542840400000e+00   3.182225905507849e+00   3.467697400000000e+00 -7.95386410e-01   1.76653791e+00  -1.44096150e-01
C     3.926563046025000e+00   3.923478341935752e+00   3.199187296000000e+00  1.26246051e+00   5.90016690e-01   1.23774254e+00
C     3.690150109500000e+00   1.829627688872584e+00   4.181362160000000e-01 -1.13990690e-01   1.93371945e+00  -8.84520300e-01
C     4.889160915300000e+00   2.601543135550960e+00   1.776505440000000e-01 -6.88602370e-01   2.96861750e-01   6.88281240e-01
C     5.230742435925000e+00   3.305687636830980e+00   3.282893528000000e+00 -2.11830716e+00  -8.99055560e-01  -4.03278880e-01
C     6.397398822599999e+00   4.074601343807795e+00   3.348384872000000e+00  1.16634827e+00  -2.23163781e+00  -9.07821000e-02
C     6.137178718875000e+00   1.943543361514755e+00   9.065542400000000e-02 -6.25537510e-01  -3.02931765e+00   1.08518240e-01
C     7.392034235249999e+00   2.587315564374341e+00   1.092067760000000e-01 -6.29661890e-01  -4.94323950e-01   5.00892600e-01
C     7.632261032100000e+00   3.382221144003702e+00   3.481837592000000e+00  8.73119430e-01  -4.31746674e+00  -8.06801800e-02
C     8.928014374124999e+00   3.973396970251309e+00   3.555882248000000e+00 -1.20731802e+00  -2.21771772e+00  -1.18672721e+00
C     2.491088647950000e+00   3.942385440288095e+00   5.556345280000000e-01 -2.55290668e+00   2.42629568e+00  -1.43822602e+00
C     3.682567757174999e+00   4.713236435267560e+00   4.757386080000000e-01 -2.47408632e+00   3.56383710e-01  -3.81944750e-01
C     3.891609247425000e+00   5.359399155458549e+00   3.090215256000000e+00  2.11453609e+00   1.62674590e-01   1.25356327e+00
C     5.157208663500000e+00   6.101717132309199e+00   3.212541816000000e+00 -2.10569478e+00   3.12868690e-01   4.73783430e-01
C     4.832068076624999e+00   4.055787363364737e+00   2.363394400000000e-01  4.02383740e+00  -2.70157555e+00  -6.96154880e-01
C     6.100672746749999e+00   4.704739714236963e+00   8.383760799999999e-02  7.86187930e-01   8.36825170e-01   6.73506660e-01
C     6.360715407450000e+00   5.454735691793388e+00   3.326279296000000e+00  1.83062553e+00   3.76067350e-01   3.54676940e-01
C     7.616761814624999e+00   6.127990664222427e+00   3.412175264000000e+00  1.99062107e+00  -1.46322442e+00  -9.21060390e-01
C     7.385635082924999e+00   3.961534747672702e+00   3.135099200000000e-02 -8.45647500e-02   3.08864158e+00   1.43071949e+00
C     8.622669019049999e+00   4.671215601787535e+00   3.178621920000000e-01 -3.89919300e-01   6.00244340e-01  -1.30957160e-01
C     8.863792570575001e+00   5.306530341717205e+00   3.321706296000000e+00  8.52942070e-01   5.19531267e+00   1.21133740e-01
C     1.011224072617500e+01   6.079576396078186e+00   3.129238960000000e+00 -2.56561185e+00   1.05488512e+00   7.36744700e-01
C     7.332188201099999e+00   2.549754079684812e-01   6.322067575999999e+00 -1.92542177e+00   2.67501897e+00  -3.28542100e-01
C     1.163102608500000e+00   9.501068769492300e-01   6.367028496000000e+00 -9.88721400e-02   1.53931039e+00   4.11398840e-01
C     1.062059953725000e+00   3.188292530893470e-01   1.033455255200000e+01  8.32857070e-01  -1.19194740e+00   3.69513320e-01
C     2.280947262375000e+00   9.868800615387715e-01   1.049753794400000e+01  2.10421122e+00   2.20811891e+00  -5.20154730e-01
C     2.365530680775000e+00   2.673838496999670e-01   6.404810791999999e+00  1.97335814e+00  -1.81483986e+00  -1.70744800e-02
C     3.578735301675000e+00   1.018040362412073e+00   6.448554240000000e+00  9.11388920e-01  -5.83170160e-01  -1.34008220e-01
C     3.583383170099999e+00   3.429353279724373e-01   1.037413739200000e+01 -2.45870355e+00  -2.80823485e+00   1.43508730e-01
C     4.766340170399999e+00   1.022027717398288e+00   1.037675675200000e+01  2.12540016e+00   2.17375410e-01  -5.26630360e-01
C     4.806584388974999e+00   2.268272216944734e-01   6.310114672000000e+00 -1.14353408e+00   2.00713256e+00   6.20701550e-01
C     6.004447158000000e+00   9.604988100083377e-01   6.283236040000000e+00  2.85390827e+00  -1.64399509e+00   7.00271610e-01
C     6.032337363524999e+00   2.748688901164206e-01   1.024605232000000e+01 -2.73460230e+00   2.47414310e-01   8.04424740e-01
C     7.220220321225000e+00   9.547636049669718e-01   1.029761100800000e+01  9.89736340e-01   2.07568365e+00   2.64386850e-01
C     8.589178210275000e+00   2.411229918130434e+00   6.415167328000000e+00  6.83393140e-01  -1.68087774e+00   2.11970680e-01
C     2.392422820125000e+00   3.219839328728622e+00   6.448504056000000e+00  4.27364720e-01  -2.68827269e+00   5.04285640e-01
C     2.319139294500000e+00   2.445553858343997e+00   1.057969459200000e+01 -9.08798030e-01  -1.19075970e+00  -8.72324030e-01
C     3.574436255400000e+00   3.113154703636178e+00   1.055511939200000e+01 -2.88527435e+00   3.03772352e+00  -5.49132960e-01
C     3.618549427050000e+00   2.487156942083814e+00   6.529130296000000e+00 -8.53793510e-01  -2.08297923e+00  -6.14079170e-01
C     4.841095153125000e+00   3.145464504752770e+00   6.481853568000000e+00  2.12063323e+00  -1.69881990e+00  -1.14123600e-01
C     4.742165878424999e+00   2.438768355013591e+00   1.042817672000000e+01  3.05935656e+00  -3.75881590e-01   3.89626400e-02
C     5.997205086600000e+00   3.156555846812769e+00   1.035012672800000e+01  7.93216860e-01  -8.89546880e-01  -2.63458300e-01
C     6.095846178150000e+00   2.327199202451324e+00   6.409005168000000e+00 -1.72875385e+00   2.47410393e+00   2.41111510e-01
C     7.352057530800000e+00   2.984022834531539e+00   6.440055056000000e+00 -8.82874910e-01   4.15921525e+00  -1.32514220e-01
C     7.241468189850000e+00   2.368998384566814e+00   1.035547139200000e+01 -8.48111990e-01   2.96191523e+00  -2.11415690e-01
C     8.459510619749999e+00   3.155995089994547e+00   1.040397470400000e+01  5.98606240e-01  -2.00046205e+00   5.98296700e-02
C     9.807026262600001e+00   4.607780531088134e+00   6.393066648000000e+00 -7.20563450e-01  -9.09606670e-01  -2.46654340e-01
C     3.614128289325000e+00   5.307986285699097e+00   6.331322512000000e+00  2.64340865e+00  -2.90105478e+00   7.87450150e-01
C     3.519994857000000e+00   4.597488888707115e+00   1.043011009600000e+01  2.77995112e+00  -1.63126811e+00   1.14076000e-03
C     4.790240662500000e+00   5.326497472830534e+00   1.034226552000000e+01 -5.41783990e-01  -2.28369212e+00  -1.01071600e-01
C     4.898594605875000e+00   4.530734811371770e+00   6.421984464000000e+00 -1.40059598e+00   1.22213266e+00  -3.60198710e-01
C     6.147410921550000e+00   5.172934384671254e+00   6.363632303999999e+00 -4.42135060e-01   2.77578816e+00   6.94841590e-01
C     6.040312390350000e+00   4.582052449816842e+00   1.028006904800000e+01  5.13070000e-03   2.17435360e-01   5.87230960e-01
C     7.327582964850000e+00   5.271243585376970e+00   1.026318111200000e+01 -3.89866610e+00   1.84425061e+00  -2.26159900e-02
C     7.402642473675000e+00   4.497433567095870e+00   6.416901463999999e+00 -3.85738053e+00  -2.95066962e+00  -2.20662100e-02
C     8.541347830949999e+00   5.213587332714961e+00   6.326211495999999e+00  1.58952062e+00   2.10577454e+00   5.18911240e-01
C     8.484219126525000e+00   4.559068272825667e+00   1.025661435200000e+01  9.06376480e-01  -6.41813540e-01   9.29591950e-01
C     9.706986665624999e+00   5.270848122454114e+00   1.033720264800000e+01  9.23633600e-02   2.15104040e-01  -5.06800480e-01
