72
Lattice="7.395 0 0 3.6975 6.40425786098592 0 0 0 13.6 " PBC="1 1 1" Properties=species:S:1:pos:R:3:force:R:3 Energy="-575.28014272"
C     3.685195792275000e+00   6.266273193127748e+00   1.349503574400000e+01  4.70518080e-01  -7.86426000e-01   7.90081460e-01
C     1.132641753075000e+00   6.550907039458783e-01   1.355585208800000e+01  3.65150954e+00  -5.90005752e+00  -3.78177340e-01
C     1.377318010500000e+00   9.172258800741036e-01   3.666486832000000e+00 -1.52055159e+00   2.30443400e-02  -9.74273600e-02
C     2.588844003375000e+00   1.648757933922099e+00   3.770016695999999e+00 -1.06245866e+00   7.22814620e-01   2.65282030e-01
C     6.061138115400000e+00   6.232021877198318e+00   1.343118524000000e+01  3.00326770e+00   1.68476521e+00   1.38987410e-01
C     3.641771834625000e+00   6.078061468881402e-01   1.342997620000000e+01  1.19671502e+00  -1.10607113e+00   8.85660670e-01
C     3.757255075650000e+00   8.771751884395500e-01   3.706992800000000e+00  2.73877057e+00   4.25505522e+00  -1.10887597e+00
C     4.990703509050000e+00   1.668671013099090e+00   3.493750648000000e+00  1.87931044e+00  -1.37098128e+00   1.68256915e+00
C     8.684438012025000e+00   6.253494521249376e+00   1.332969007200000e+01 -3.63788272e+00   3.91998800e-01   1.49882666e+00
C     6.231650546399999e+00   5.858370447677749e-01   1.341314660800000e+01 -4.34850805e+00   4.76523600e-02  -4.07108360e-01
C     6.297748387500000e+00   9.764078831286780e-01   3.466197184000000e+00 -2.21768899e+00  -1.67876495e+00   4.16574400e-02
C     7.513711491300000e+00   1.637626373122740e+00   3.643184591999999e+00  9.01242320e-01   1.01670277e+00  -2.03829350e-01
C     1.219484528850000e+00   1.984925562400981e+00   3.423120000000000e-03 -7.11611560e-01   3.06502624e+00  -1.07981840e-01
C     2.439930592575000e+00   2.732549338803484e+00   7.213045600000000e-02  2.77131730e-01  -1.83745880e+00   3.64234340e-01
C     2.606151002550000e+00   3.126735957109565e+00   3.810875992000000e+00 -1.29085513e+00  -2.09195129e+00  -1.58849343e+00
C     3.847884498150000e+00   3.769866389289000e+00   3.466207520000000e+00 -2.66821116e+00   2.11591200e-02   2.32347494e+00
C     3.679993372799999e+00   2.083576238135793e+00   1.109513840000000e-01 -2.60683310e-01  -4.25959938e+00  -2.89148244e+00
C     4.881665860949999e+00   2.731397533027363e+00   1.335460622400000e+01  1.37650397e+00  -3.11633289e+00   1.36423093e+00
C     5.069038781025000e+00   3.104496339137193e+00   3.613178368000000e+00 -2.58360826e+00  -3.69194216e+00  -1.80585345e+00
C     6.252891241875000e+00   3.724392636141177e+00   3.551394384000000e+00  2.92660220e+00   4.41533210e+00   6.30989770e-01
C     6.158530930950000e+00   2.023134645645313e+00   1.332983790400000e+01 -3.97433660e-01  -1.50658674e+00   5.34998010e-01
C     7.384389173324999e+00   2.686579063543776e+00   1.344330039200000e+01  9.53228900e-02   3.53064340e-01  -1.11466595e+00
C     7.483930569149999e+00   3.088643559443442e+00   3.707130704000000e+00 -2.80673600e-01  -2.42221752e+00   5.09196500e-02
C     8.668898417849999e+00   3.814113278758583e+00   3.809611192000000e+00  4.11867561e+00  -1.44551384e+00  -1.54873039e+00
C     2.467889571600000e+00   4.090609170584337e+00   1.741480000000000e-02 -1.62521309e+00   3.28942536e+00   1.48473940e-01
C     3.698202672900000e+00   4.817725552680440e+00   2.695914400000000e-02  8.87260700e-02   2.70309440e-01  -1.57196265e+00
C     3.806549480100000e+00   5.148225220825488e+00   3.438873968000000e+00  9.08527730e-01   3.09211459e+00  -3.48095930e-01
C     5.063233373249999e+00   5.876280979464496e+00   3.511515919999999e+00 -5.94380400e-01   1.68450176e+00   4.14909000e-01
C     4.916518237125000e+00   4.066487853567540e+00   1.338063458400000e+01  8.98702900e-02   4.43421681e+00   6.21401020e-01
C     6.167726169750000e+00   4.786644280349131e+00   1.329131767200000e+01 -1.40961020e+00   1.31100734e+00  -3.09970920e-01
C     6.301947527325000e+00   5.236199038069000e+00   3.572875311999999e+00 -1.69759800e+00  -3.43001406e+00   1.25477020e-01
C     7.489089986700000e+00   5.926629333482459e+00   3.672535432000000e+00  1.86502291e+00  -2.42801994e+00  -1.45539438e+00
C     7.413479439450001e+00   4.071007402381920e+00   1.320071120800000e+01 -1.53309462e+00   1.79801951e+00   2.47147889e+00
C     8.563076374574999e+00   4.800142854853546e+00   1.349982824800000e+01  3.73290166e+00   1.87365835e+00  -1.77576889e+00
C     8.743049672774999e+00   5.149202958872973e+00   3.487184431999999e+00 -4.12185870e-01   4.13407275e+00   1.56681204e+00
C     9.995043139274999e+00   5.914224606220531e+00   3.404886072000000e+00 -1.03164738e+00  -8.71869970e-01   4.21971170e-01
C     7.411908741450000e+00   9.158293676051521e-02   6.833662448000000e+00  6.55576470e-01   2.72708419e+00   3.00966070e-01
C     1.261035222075000e+00   8.160120282159846e-01   6.971434936000000e+00 -1.14719888e+00   1.99762138e+00  -3.23495170e-01
C     1.102532012250000e+00   5.068209270356233e-01   9.998090048000000e+00  5.69937510e-01   7.95640860e-01  -8.81940120e-01
C     2.361696595125000e+00   1.246381358536915e+00   1.012885146400000e+01 -4.73338520e-01  -2.16998946e+00  -6.06326600e-01
C     2.458689895800000e+00   1.162953027352116e-01   6.998593320000000e+00  2.61385909e+00  -3.84086930e-01  -5.08888860e-01
C     3.779694352725000e+00   8.445318535736082e-01   7.002666520000001e+00 -3.15133605e+00  -4.86463010e-01   1.00398190e-01
C     3.628041168375000e+00   5.217931212736242e-01   9.992007448000001e+00 -5.71674792e+00  -2.45536376e+00   9.93782090e-01
C     4.762243414349999e+00   1.150957340039707e+00   1.004722181600000e+01  6.34842398e+00   3.90353141e+00  -1.39555077e+00
C     4.985378332575000e+00   1.329381116785722e-01   6.904886328000000e+00 -3.37777560e-01  -5.48491400e-01  -4.99607540e-01
C     6.186878147475000e+00   8.538150815119927e-01   6.824514679999999e+00  9.39975730e-01  -1.84819363e+00   6.55675980e-01
C     6.066732617774999e+00   4.877313073342710e-01   9.839753408000000e+00 -1.98112867e+00   2.15629642e+00   7.82554210e-01
C     7.257706907325000e+00   1.200620502509228e+00   9.835385768000000e+00  1.24216929e+00   8.56557760e-01   1.63340135e+00
C     8.626624826400001e+00   2.336080627251572e+00   7.023200072000001e+00  2.64891594e+00  -3.56616538e+00   6.47472310e-01
C     2.476101903975000e+00   3.042287555732825e+00   7.173420911999999e+00  4.47331620e-01  -4.64007266e+00  -1.99074377e+00
C     2.347618696650000e+00   2.643279684024580e+00   1.019017291200000e+01 -8.43561800e-01  -6.28614040e-01  -7.28063760e-01
C     3.572567797724999e+00   3.303751501594744e+00   1.016985043200000e+01  9.80745570e-01   2.72085497e+00  -1.29082953e+00
C     3.713301155324999e+00   2.256946479047060e+00   7.065534968000001e+00  1.10418529e+00   1.59036301e+00   1.96418750e-01
C     4.969797474299999e+00   3.020236351026695e+00   7.017095848000000e+00 -1.02485497e+00  -4.00621372e+00  -3.48952360e-01
C     4.800851415225000e+00   2.592029290287037e+00   9.998425831999999e+00 -2.92684040e-01   1.28139005e+00   7.13088340e-01
C     6.046453716000000e+00   3.369251240985630e+00   9.839208456000000e+00 -7.65601490e-01  -2.97761933e+00   1.46434027e+00
C     6.220683428625000e+00   2.210852729695810e+00   6.977421792000000e+00 -9.63355550e-01   4.47471304e+00  -4.84294140e-01
C     7.449068727375000e+00   2.988481286725935e+00   7.012593976000000e+00 -2.58186758e+00   1.23441216e+00  -6.61692000e-01
C     7.261269189749999e+00   2.614117895859070e+00   9.945221816000000e+00  7.59274940e-01   1.21172676e+00  -1.00775534e+00
C     8.504247966374999e+00   3.325132500715827e+00   9.963605751999999e+00 -3.25471950e-01   1.53407789e+00   1.38385857e+00
C     9.864541244849999e+00   4.360995144241336e+00   6.909362767999999e+00  1.66707728e+00   3.46488567e+00   7.61025870e-01
C     3.712307969850000e+00   5.129264006494228e+00   6.896562039999999e+00 -1.19490603e+00  -2.19504531e+00  -4.93842580e-01
C     3.523190347424999e+00   4.805254477307084e+00   9.980592831999999e+00  3.19062085e+00  -2.51040123e+00   8.84793600e-02
C     4.745519030250000e+00   5.509279347050279e+00   9.873244904000000e+00  2.87190729e+00  -1.84476407e+00   1.30268222e+00
C     4.896967557975000e+00   4.394479742419767e+00   6.933309239999999e+00  3.13432525e+00   8.03696980e-01   1.30673190e-01
C     6.188765906100000e+00   5.065472602887497e+00   6.927327007999999e+00 -2.07150086e+00   3.14346066e+00   2.33084810e-01
C     6.047928020175000e+00   4.729360947622311e+00   9.900781367999999e+00 -5.08933830e-01   3.93184125e+00  -1.99406450e-01
C     7.328722645274999e+00   5.493066904235111e+00   9.915654463999999e+00 -3.13316318e+00  -6.57502730e-01   2.67133500e-01
C     7.423479328200000e+00   4.468092395667701e+00   6.970271319999999e+00  7.28695770e-01  -3.77317814e+00  -1.46514460e-01
C     8.683847225474999e+00   5.093801517318314e+00   6.908124896000000e+00 -1.67777136e+00   1.88202704e+00  -1.25483500e-01
C     8.507163186300000e+00   4.799950919245482e+00   9.953510472000000e+00  1.67416439e+00  -1.46285255e+00  -2.41002190e-01
C     9.782932576124999e+00   5.547902593650417e+00   9.899538192000000e+00 -3.35399526e+00  -3.50462184e+00   6.06090240e-01
