72
Lattice="7.395 0 0 3.6975 6.40425786098592 0 0 0 13.6 " PBC="1 1 1" Properties=species:S:1:pos:R:3:force:R:3 Energy="-564.95865532"
C     1.097002060830000e+01   6.386861462034254e+00   1.316649184000000e+01  3.15488575e+00  -2.51693575e+00   2.98187960e-01
C     1.252654320675000e+00   5.316540132709807e-01   1.307262640800000e+01 -2.96323555e+00   3.46982040e+00   6.38072160e-01
C     1.248839609925000e+00   7.928792083998786e-01   3.447106592000000e+00 -1.58640010e-01   1.81653062e+00   4.94233670e-01
C     2.513455971675000e+00   1.413645459791565e+00   3.383699584000000e+00  2.67440270e+00   2.29338703e+00   1.55279449e+00
C     6.273663870825000e+00   6.288441659795295e+00   1.318136602400000e+01 -1.02415179e+01  -1.34426444e+00   6.03933300e-01
C     3.659234202750000e+00   5.379835334417544e-01   1.321517616800000e+01  3.25518075e+00   7.04832698e+00  -8.01988200e-01
C     3.855139325925000e+00   9.071402626684398e-01   3.696418663999999e+00 -3.34957225e+00  -4.70129882e+00  -1.14617488e+00
C     5.109010050149999e+00   1.587239081216989e+00   3.796183368000000e+00 -5.03761783e+00   9.78349700e-01  -7.58328880e-01
C     8.522711062875000e+00   6.328184690882254e+00   1.310158448000000e+01  6.13946843e+00   5.58471240e-01   1.72431824e+00
C     6.034432773749999e+00   6.943299120669912e-01   1.327980010400000e+01  2.44310913e+00  -1.84566867e+00  -6.55810180e-01
C     6.209682219899999e+00   8.362632522079837e-01   3.801443304000000e+00  3.07580297e+00  -1.55162189e+00  -1.13405031e+00
C     7.410006340724999e+00   1.550317958270882e+00   3.530220816000000e+00  1.06542420e+00   6.27171110e-01   3.44876090e-01
C     1.180860628725000e+00   2.014195390396589e+00   1.301420910400000e+01  1.36486816e+00   1.04534970e+00   1.67818556e+00
C     2.506181805974999e+00   2.696774001631109e+00   1.276044901600000e+01 -2.58104721e+00   1.32922252e+00   2.15630715e+00
C     2.507784820125000e+00   2.826278214287728e+00   3.529493624000000e+00  1.87185234e+00   1.17132466e+00  -2.69619490e-01
C     3.610388046225000e+00   3.626270952105602e+00   3.760045856000000e+00  7.06358817e+00   8.51324860e-01   1.92863190e-01
C     3.693159393825000e+00   1.993102710964365e+00   1.300982813600000e+01  5.30224850e-01   1.18838363e+00   1.75432529e+00
C     4.856452719375000e+00   2.774588680588725e+00   1.342258990400000e+01  1.10749419e+00   2.89596500e-01  -7.74988670e-01
C     5.020427452724999e+00   2.969366754461507e+00   3.738198136000000e+00 -6.12098240e-01   3.14283656e+00  -2.46063670e-01
C     6.266805230175000e+00   3.780525700113762e+00   3.643849496000000e+00 -1.99176583e+00  -4.14528224e+00   3.00128170e-01
C     6.120141674174999e+00   2.015299740621968e+00   1.358723259200000e+01  3.11357550e-01   5.05625670e+00  -3.65141410e-01
C     7.441122799875000e+00   2.835084837356172e+00   1.358854580800000e+01 -7.13405690e-01  -2.06719392e+00  -2.27345771e+00
C     7.471695874424999e+00   3.005164762706707e+00   3.494605408000000e+00  1.23935327e+00   1.37792000e-03   4.45853660e-01
C     8.865856810875000e+00   3.669335615574229e+00   3.525839032000000e+00 -9.23176144e+00  -4.42869360e-01  -3.43037680e-01
C     2.504799680475000e+00   4.159073056683145e+00   1.283081487200000e+01 -1.71163128e+00  -3.90792970e-01   1.92294782e+00
C     3.631170362625000e+00   4.902703970437674e+00   1.311409797600000e+01  2.32820551e+00   1.47274601e+00   1.77848850e-01
C     3.665441269950000e+00   5.111636158649421e+00   3.922489696000000e+00  8.18071060e-01  -1.43004581e+00  -1.96447932e+00
C     4.941007371225000e+00   5.891548281904686e+00   3.762572599999999e+00 -9.03220740e-01  -5.28274944e+00   3.27482670e-01
C     4.891819713599999e+00   4.252453604582383e+00   1.338054292000000e+01  3.66480480e-01  -1.57942510e+00   2.85047800e-01
C     6.195130412849999e+00   4.971929707051507e+00   1.353674395200000e+01 -1.71038268e+00  -2.18681115e+00  -6.36189090e-01
C     6.187761591150000e+00   5.147081676542006e+00   3.740957168000000e+00  7.64325110e-01   1.95973836e+00  -6.73020930e-01
C     7.461277983300000e+00   5.771542928548597e+00   3.682346608000000e+00  1.59162200e-02   3.21782833e+00   1.74957000e-03
C     7.433641574175000e+00   4.360769906492400e+00   1.358550661600000e+01  2.44196041e+00  -5.52395089e+00  -1.57154374e+00
C     8.710581037875000e+00   4.976138905529993e+00   1.311434345600000e+01 -3.30177893e+00  -3.85669461e+00   1.01182412e+00
C     8.689692862050000e+00   5.075777566124867e+00   3.651241640000000e+00 -6.42867990e-01  -1.62263995e+00  -7.74990000e-02
C     9.832949287199998e+00   5.783061242480122e+00   3.763802039999999e+00  3.49571023e+00   3.04171787e+00   9.29384200e-01
C     7.455699269249999e+00   1.333850648346216e-01   7.416515336000000e+00 -2.30080773e+00  -2.89904823e+00  -2.03047834e+00
C     1.221609297225000e+00   7.345761256940107e-01   6.991592992000000e+00  3.12182236e+00   1.34121929e+00  -1.71242391e+00
C     1.102741290750000e+00   5.906216658149809e-01   1.014463644000000e+01  5.63630919e+00  -1.03064729e+00   1.03423680e+00
C     2.396146387500000e+00   1.342097795448010e+00   1.024008287200000e+01 -3.39241050e-01  -1.52766701e+00  -3.11826820e-01
C     2.446132816050000e+00   2.997269529574320e-02   6.647706520000000e+00  3.89871060e-01   1.86826445e+00   9.73413980e-01
C     3.610067177175000e+00   8.733506296881366e-01   6.515284000000000e+00  1.87581156e+00  -1.53898649e+00   8.68405830e-01
C     3.633257860200000e+00   7.115786278464864e-01   1.060719488000000e+01 -9.11513000e-03  -2.94066432e+00  -2.82709922e+00
C     4.878729306449999e+00   1.400368728779420e+00   1.033907863200000e+01 -1.22658542e+00  -2.79155216e+00   7.06378620e-01
C     4.805279319375000e+00   1.318791035988426e-01   6.823721800000000e+00  2.36253462e+00  -1.75236506e+00   1.51876649e+00
C     6.098230584975000e+00   7.627033700448163e-01   7.221237288000000e+00  6.21146000e-03  -7.17843900e-02  -1.48283490e+00
C     6.081451551824999e+00   5.244196355071674e-01   1.043368825600000e+01  2.95693360e-01   2.48933192e+00  -1.77421452e+00
C     7.331446667474999e+00   1.207095847631474e+00   1.009786318400000e+01 -4.08771400e+00   4.19395788e+00   1.36851141e+00
C     1.352587466625000e+00   2.148779332302603e+00   6.749969680000000e+00 -3.06797056e+00   1.47298188e+00   1.68918636e+00
C     2.482186288125000e+00   3.033051335047134e+00   6.543795856000000e+00  7.77711790e-01  -4.87425880e-01   1.96620387e+00
C     2.404739081700000e+00   2.699094456381523e+00   9.984917904000000e+00 -9.78676250e-01   2.69241891e+00   2.22600820e-01
C     3.632072885400000e+00   3.448075230981982e+00   9.861639208000000e+00 -1.82023342e+00   1.55777455e+00   1.94022749e+00
C     3.713194371525000e+00   2.301614512513516e+00   6.440972104000000e+00 -1.12934322e+00  -1.50363426e+00   1.17697552e+00
C     4.965217307100000e+00   2.841781193417166e+00   6.629078192000001e+00  1.08053585e+00   4.50428566e+00   1.48448674e+00
C     4.794784668150000e+00   2.790916656215688e+00   1.002549880800000e+01  4.71278844e+00  -1.57531964e+00   9.12775970e-01
C     6.066321973425000e+00   3.517585060474485e+00   1.019647624000000e+01  9.68188870e-01  -2.78624547e+00  -1.28329600e-01
C     6.142214418075000e+00   2.155459229420897e+00   7.008882128000000e+00  1.43473786e+00  -5.99328670e-01  -3.26375860e-01
C     7.476409225575000e+00   2.793453190626298e+00   7.036157200000000e+00 -6.62995970e-01   4.07849010e-01  -1.61791368e+00
C     7.316158207499999e+00   2.757039797243332e+00   1.017081344800000e+01 -2.52159264e+00  -2.69451306e+00  -4.91972430e-01
C     8.511848473424999e+00   3.429829052040791e+00   1.014276494400000e+01  1.86308720e+00  -1.38528082e+00  -2.68339540e-01
C     9.904018490999999e+00   4.439226612300480e+00   6.995635864000000e+00  7.03599540e-01  -1.82030105e+00  -8.75834540e-01
C     3.864097998675000e+00   5.059766345091658e+00   7.254386879999999e+00 -3.51478245e+00   9.55221790e-01  -2.04088223e+00
C     3.758651917199999e+00   4.891747373963049e+00   1.012574019200000e+01 -5.52993749e+00  -1.54538320e+00  -4.01992200e-02
C     4.943187602100000e+00   5.580280920326112e+00   1.020833788800000e+01 -2.02609786e+00   1.67653229e+00   2.96737710e-01
C     5.032537171950000e+00   4.393841045783390e+00   6.810772016000000e+00 -7.23483230e-01  -2.64787379e+00   6.25757260e-01
C     6.282427019775000e+00   5.058380847946227e+00   6.721988496000000e+00 -8.62034150e-01  -3.27658724e+00   1.09977719e+00
C     6.129624208725000e+00   4.895459217776128e+00   1.041394554400000e+01 -1.46625355e+00  -1.38988042e+00  -1.19139037e+00
C     7.290012852224999e+00   5.513215852229085e+00   1.065881055200000e+01  3.82169474e+00   4.03462220e+00  -1.22122943e+00
C     7.492065882600000e+00   4.167534682380670e+00   6.867865496000000e+00 -2.10067472e+00   4.55920295e+00  -6.20232640e-01
C     8.583817500824999e+00   5.033680778146620e+00   6.936046376000000e+00  2.32520880e+00   1.57748315e+00  -1.19741300e-02
C     8.499667762199998e+00   4.765344999558343e+00   1.045657787200000e+01  1.97983232e+00   3.56899822e+00  -1.58564680e-01
C     9.793864789499999e+00   5.527173099681433e+00   1.044786217600000e+01  6.80620610e-01  -6.74551110e-01  -1.83138541e+00
