72
Lattice="7.395 0 0 3.6975 6.40425786098592 0 0 0 13.6 " PBC="1 1 1" Properties=species:S:1:pos:R:3:force:R:3 Energy="-559.47824793"
C     1.104967215330000e+01   6.392733397980931e+00   1.318066440000000e+01 -1.30003493e+00   1.65748010e-01   1.06081895e+00
C     1.236498944850000e+00   5.543320667364481e-01   1.311428239200000e+01 -1.11956607e+00   3.51498320e+00   1.25043670e+00
C     1.214481737400000e+00   8.499267363522938e-01   3.386549056000000e+00  1.00191481e+00  -3.42977320e+00   1.76335019e+00
C     2.577142414200000e+00   1.320277848493204e+00   3.368182800000000e+00 -5.40098690e+00   8.12621134e+00   5.12770830e-01
C     6.135135406425000e+00   6.293104087602533e+00   1.327892997600000e+01  2.16132711e+00   1.41691893e+00  -2.59104800e-01
C     3.739461189675000e+00   6.444710354772690e-01   1.311597858400000e+01 -2.77705290e+00  -1.72648918e+00   2.21824854e+00
C     3.748586730600000e+00   7.738394138246772e-01   3.640729656000000e+00  4.73859234e+00   6.46927167e+00  -3.81705200e-01
C     5.013183939299999e+00   1.573178661170517e+00   3.686389480000000e+00 -3.55419440e-01  -1.54118402e+00   7.34074980e-01
C     8.630997896625001e+00   6.321368254986385e+00   1.314470328000000e+01 -2.61396344e+00   7.81129930e-01   1.30645601e+00
C     6.021603631950000e+00   6.573512148427224e-01   1.331411671200000e+01  6.80363877e+00   2.22615519e+00   8.19019050e-01
C     6.311222558174999e+00   7.529847806571091e-01   3.715900528000000e+00 -5.90125885e+00   4.38504452e+00  -1.34623600e-02
C     7.394910224699999e+00   1.559740350732564e+00   3.508116464000000e+00  4.17625069e+00   9.68680700e-02  -8.39802000e-01
C     1.304922217650000e+00   1.997564877628320e+00   1.311296999200000e+01 -3.21615711e+00   2.91281046e+00   8.01094160e-01
C     2.482611537600000e+00   2.700783003008891e+00   1.270710179200000e+01 -9.47924000e-03   1.55937814e+00   4.59614226e+00
C     2.534570027775000e+00   2.844251763971819e+00   3.516374792000000e+00  1.04359527e+00   4.74235860e-01  -6.47614290e-01
C     3.768501872324999e+00   3.633074963741223e+00   3.660385736000000e+00 -5.38284549e+00   1.23078131e+00   9.56409640e-01
C     3.721270598925000e+00   2.026280481148724e+00   1.320069393600000e+01 -2.20177590e+00   1.46265702e+00  -3.32582759e+00
C     4.865889848625000e+00   2.785565834731079e+00   1.338202069600000e+01  1.58569518e+00  -3.06581500e-01   2.66865703e+00
C     4.952983499775000e+00   3.050180803545275e+00   3.831593824000000e+00  3.13201573e+00  -6.38161026e+00  -2.48200874e+00
C     6.187535304150000e+00   3.606277051194418e+00   3.608044232000000e+00  4.58522961e+00   5.84147679e+00  -5.24351700e-02
C     6.015494955225000e+00   2.015261955500594e+00   1.485914240000000e-01  3.40700583e+00   2.88754801e+00  -2.77846813e+00
C     7.416048351524999e+00   2.933215999693379e+00   7.725384800000000e-02  4.88619200e-01  -5.92269213e+00  -2.64552003e+00
C     7.536830886524999e+00   2.967818332996117e+00   3.405030912000000e+00 -8.70497892e+00  -2.18985164e+00   1.45589436e+00
C     8.669435590650000e+00   3.628044867490243e+00   3.507305632000000e+00  4.60027664e+00   1.63557032e+00  -7.22140500e-01
C     2.426002701675000e+00   4.161308398846599e+00   1.285201781600000e+01  9.18397910e-01   1.93925402e+00   3.02948352e+00
C     3.660499413300000e+00   5.027785722829069e+00   1.316327326400000e+01  8.44260290e-01  -6.41197986e+00  -4.76378400e-02
C     3.647435628150000e+00   5.051470589672708e+00   3.856236072000000e+00  2.61730533e+00  -5.69658300e-02  -1.14710719e+00
C     4.790738272050000e+00   5.867876415704504e+00   3.722723104000000e+00  5.83174042e+00  -2.24899923e+00  -1.10081716e+00
C     4.933798392449999e+00   4.183513946167156e+00   1.352467422400000e+01 -1.45403668e+00   3.81333060e+00  -1.63220773e+00
C     6.189311472225000e+00   4.969590551868142e+00   6.003244000000001e-02 -1.82160268e+00  -1.61653712e+00  -1.38638934e+00
C     6.267756005324999e+00   5.115336602883507e+00   3.637115320000000e+00 -3.82968631e+00  -3.51503520e-01   7.97719390e-01
C     7.483954085250000e+00   5.911380667432641e+00   3.727256120000000e+00 -4.18840110e-01  -1.22296577e+01  -2.03931285e+00
C     7.462853081325001e+00   4.344867493800234e+00   1.354170999200000e+01 -3.05813408e+00  -4.20567871e+00   1.64796434e+00
C     8.624268927299999e+00   4.954934215627797e+00   1.326976820000000e+01  3.53447672e+00  -2.40636931e+00  -2.59245024e+00
C     8.665527961725001e+00   5.063670124512800e+00   3.523472768000000e+00  5.36063560e-01   1.98136018e+00   2.84591907e+00
C     9.894855827175000e+00   5.782964730314172e+00   3.815649320000000e+00 -2.03753586e+00  -1.84513588e+00  -1.72315957e+00
C     7.355111148149999e+00   1.052334843039480e-01   7.519259392000000e+00  4.35624525e+00  -2.00828391e+00  -4.24698635e+00
C     1.288954305075000e+00   7.983041271479274e-01   6.976933279999999e+00 -1.05013852e+00  -4.02810428e+00   2.04344780e-01
C     1.174964003625000e+00   5.784815624878290e-01   1.017793046400000e+01  1.06964994e+00   2.92205117e+00  -1.69044890e-01
C     2.461206636150000e+00   1.328717123330797e+00   1.028918988800000e+01 -3.24770898e+00   9.96054400e-02  -1.97300721e+00
C     2.491333163625000e+00   7.225802462538661e-02   6.616342744000000e+00 -2.41200424e+00  -2.73292688e+00   1.08436800e+00
C     3.638813390924999e+00   8.178252017013078e-01   6.407057376000000e+00  1.61455716e+00  -5.38908120e-01   1.56211029e+00
C     3.628765027950000e+00   6.294938459181372e-01   1.052747236000000e+01 -2.90635450e-01   2.39311223e+00  -6.03078800e-02
C     4.814198576774999e+00   1.396571580251648e+00   1.052809986400000e+01  4.26644255e+00  -1.35116030e-01  -4.13401264e+00
C     4.791875660024999e+00   1.202756130377802e-01   6.876418944000000e+00  4.16160003e+00  -1.70533398e+00   1.94427080e-01
C     6.146299416075000e+00   7.663987549151934e-01   7.187061032000000e+00 -3.38710389e+00  -2.09806996e+00  -5.09613930e-01
C     6.089660778299999e+00   5.752226277906108e-01   1.038181717600000e+01  4.70516000e-03   1.32418028e+00   1.87580020e-01
C     7.304828475899999e+00   1.332104463398109e+00   1.003780463200000e+01 -7.32463290e-01  -8.52471770e-01   2.53362132e+00
C     1.303624469100000e+00   2.120119573910738e+00   6.709908704000000e+00 -5.03116750e-01   4.16244903e+00   2.02828925e+00
C     2.509492843275000e+00   2.973099027857158e+00   6.611949399999999e+00 -1.76184691e+00  -1.09372190e-01  -5.13117570e-01
C     2.411947801650000e+00   2.741439025096372e+00   9.967729272000000e+00 -2.47288340e-01  -9.31009850e-01   7.19867410e-01
C     3.551724657450000e+00   3.534589709986936e+00   9.862566320000001e+00  5.38323431e+00  -2.63195714e+00   1.00772614e+00
C     3.620684474475000e+00   2.214354449808501e+00   6.301732720000000e+00  4.99958411e+00   2.49002094e+00   2.98435977e+00
C     5.044782478500000e+00   2.932679515012448e+00   6.590228432000000e+00 -3.98604322e+00  -2.13205834e+00   1.05333145e+00
C     4.941087717899999e+00   2.806910905965566e+00   9.928020807999999e+00 -5.32257011e+00  -2.23535820e+00   2.71207982e+00
C     6.121155343800000e+00   3.514602661631661e+00   1.012633328800000e+01 -7.52833380e-01  -3.99535380e-01   8.34053670e-01
C     6.122906220975000e+00   2.125370488972731e+00   7.050259720000001e+00  2.94027494e+00   3.52073769e+00  -1.86971741e+00
C     7.496566923300000e+00   2.802709968979721e+00   7.017369071999999e+00 -2.80020921e+00   5.59600100e-02  -9.95140940e-01
C     7.265977956000000e+00   2.800805214607000e+00   1.019834243200000e+01  4.33623275e+00  -4.27844702e+00  -1.78638819e+00
C     8.572411230975000e+00   3.389371049606342e+00   1.007371026400000e+01 -2.17740626e+00   3.87961200e+00   2.48568461e+00
C     9.893511638025000e+00   4.423163772948921e+00   6.930038440000000e+00  2.06125559e+00  -2.06790149e+00   8.27690620e-01
C     3.859215375975000e+00   5.009990915981852e+00   7.276431528000001e+00 -5.65725940e+00   2.75027606e+00  -1.98393198e+00
C     3.683320457250000e+00   4.886259949658287e+00   1.012587782400000e+01 -8.64363240e-01   2.50127390e-01  -6.31787240e-01
C     4.939559615099999e+00   5.601077979215519e+00   1.015755018400000e+01 -1.31134507e+00  -1.32986625e+00   1.24225137e+00
C     5.012351299275000e+00   4.365991938351444e+00   6.818899920000001e+00 -8.03258580e-01  -2.29143263e+00   1.75482670e-01
C     6.216974281500001e+00   4.969994212241058e+00   6.658354775999999e+00  2.58447090e+00   2.55734987e+00   1.83664191e+00
C     6.135623143649999e+00   4.854575780492038e+00   1.044306151200000e+01 -7.46606680e-01   4.49013727e+00  -1.11966790e+00
C     7.258398413774999e+00   5.691353742904229e+00   1.076086780800000e+01  3.46247321e+00  -6.52259684e+00  -2.88785326e+00
C     7.450846522349999e+00   4.178411417759779e+00   6.852961528000000e+00 -3.95446880e-01   3.88331228e+00  -7.45355390e-01
C     8.614303129500000e+00   5.054046766439471e+00   6.950627207999999e+00 -3.68274600e-01   3.31978170e-01  -5.58753920e-01
C     8.591429876850000e+00   4.829710865095117e+00   1.051432836800000e+01 -8.39180960e-01  -1.81486500e-02  -1.31712432e+00
C     9.857600149949999e+00   5.491182451359806e+00   1.044162480800000e+01 -1.96988186e+00   3.81395739e+00  -8.44373740e-01
