72
Lattice="7.395 0 0 3.6975 6.40425786098592 0 0 0 13.6 " PBC="1 1 1" Properties=species:S:1:pos:R:3:force:R:3 Energy="-574.23201707"
C     3.719156072625000e+00   6.123143537618508e+00   1.159443520000000e-01 -1.42475744e+00   4.42581907e+00  -7.83130020e-01
C     1.224325924425000e+00   5.158401074224398e-01   1.358055132000000e+01 -2.21278620e-01  -2.92740680e-01   1.02982373e+00
C     1.448878981800000e+00   9.890218374948913e-01   3.292688248000000e+00 -2.34566036e+00   9.70772780e-01   8.48408520e-01
C     2.606143829400000e+00   1.826424151005855e+00   3.096560064000000e+00  7.30324330e-01  -3.52858080e+00   7.19436710e-01
C     6.142472318699999e+00   6.205699993138245e+00   2.042926720000000e-01 -9.63710190e-01  -4.62602110e-01  -2.17096740e-01
C     3.625986245775000e+00   5.606296937030790e-01   2.138533360000000e-01  2.94445881e+00  -1.02248738e+00  -1.21201163e+00
C     3.833468093550000e+00   1.048435162343369e+00   3.265991992000000e+00  4.79319590e-01  -9.62621280e-01   1.41353754e+00
C     5.068097841224999e+00   1.725766316815140e+00   3.575460264000000e+00 -5.55293730e-01  -3.96036700e-01  -1.98422871e+00
C     8.641122132300000e+00   6.244301145048767e+00   3.056983520000000e-01 -2.32568005e+00  -1.78898877e+00  -1.13174199e+00
C     6.151300580625000e+00   5.374786857946506e-01   2.297928080000000e-01  1.23159098e+00  -3.04740348e+00  -8.65812300e-02
C     6.300988617674999e+00   1.006314806696199e+00   3.692657855999999e+00  5.93676600e-02   2.27381067e+00  -7.69406800e-01
C     7.528337322300001e+00   1.667187146552928e+00   3.424653944000000e+00  2.54907154e+00   2.63869906e+00  -4.44138050e-01
C     1.190163168975000e+00   2.009715483938362e+00   1.352220174400000e+01  1.06477971e+00  -3.86888697e+00  -2.85519340e-01
C     2.386908997200000e+00   2.697875085684979e+00   1.335398824000000e+01  3.07596134e+00  -1.89398886e+00   8.62451230e-01
C     2.603691277650000e+00   3.222978888059330e+00   3.138674232000000e+00  2.41890297e+00  -7.31704150e-01   1.66744976e+00
C     3.873651562200000e+00   3.818895081932331e+00   3.563704696000000e+00 -1.75754438e+00   3.65641216e+00  -1.54237175e+00
C     3.688071448950000e+00   1.938303974116910e+00   1.344035232000000e+01 -8.07325040e-01   6.05806230e-01   2.79724855e+00
C     4.921797971325000e+00   2.634286504924675e+00   2.664970320000000e-01 -8.14887210e-01  -2.60971870e-01  -1.82568090e+00
C     5.085806019150000e+00   3.148015640871301e+00   3.438200632000000e+00 -1.20337770e-01  -1.13863145e+00   1.63421577e+00
C     6.280796422274999e+00   3.869597655452529e+00   3.482735736000000e+00  3.05744344e+00  -1.87967056e+00  -4.22577940e-01
C     6.166547665574999e+00   1.908949609917550e+00   3.508821760000000e-01 -8.52186760e-01   1.15140306e+00  -9.28723720e-01
C     7.390353388725000e+00   2.620525676060893e+00   1.996541200000000e-01 -1.70302694e+00   3.45832730e-01   1.49452041e+00
C     7.572592293074999e+00   3.191282999101197e+00   3.293611416000000e+00 -2.26672077e+00  -2.96360844e+00   6.21406260e-01
C     8.792472454424999e+00   3.894144919659595e+00   3.181106776000000e+00 -7.34658780e-01   7.38318360e-01   1.92049192e+00
C     2.476878785700000e+00   4.069618318852086e+00   1.351977441600000e+01 -2.76351390e+00   8.54061790e-01  -1.60515430e-01
C     3.685242084975000e+00   4.753874525433033e+00   1.357330564800000e+01  1.19145555e+00   8.91813300e-02   1.04771126e+00
C     3.931904565450000e+00   5.325611763968497e+00   3.760357296000000e+00 -2.30598376e+00  -1.83383418e+00  -1.18899201e+00
C     5.183761631175000e+00   5.963651899873067e+00   3.599070000000000e+00 -2.92912958e+00   2.85669700e+00  -6.79698580e-01
C     4.908544948125000e+00   4.074409408199731e+00   2.329314160000000e-01 -8.25531060e-01  -1.79410437e+00  -4.83671890e-01
C     6.081523727024999e+00   4.751873963362726e+00   4.199526320000000e-01  3.35694121e+00   1.11878981e+00   1.71437200e-02
C     6.332465361224999e+00   5.243169688494137e+00   3.501668160000000e+00  7.91137210e-01   1.90929490e-01  -6.34237170e-01
C     7.523173800524999e+00   5.945195341061177e+00   3.362762928000000e+00  2.29325751e+00   2.74100881e+00   9.18066980e-01
C     7.360021058399999e+00   3.956221070883682e+00   5.405728000000000e-01  1.07457732e+00   4.94313799e+00  -3.94029250e+00
C     8.624329640250000e+00   4.753254529229607e+00   1.241465120000000e-01 -1.31231950e+00   1.13265099e+00   2.51522249e+00
C     8.795128923300000e+00   5.267014085401069e+00   3.539640992000000e+00 -1.92282950e-01   2.01892662e+00  -1.09145698e+00
C     1.001777133900000e+01   6.059409452119624e+00   3.755432872000000e+00  7.84445840e-01  -4.87417192e+00  -8.51902250e-01
C     7.371085568324999e+00   1.626714158155086e-01   6.724325248000000e+00  2.64468962e+00  -1.09866727e+00   1.38980510e-01
C     1.199529675975000e+00   9.009122499847471e-01   6.606861096000000e+00  6.46010860e-01  -5.30774360e-01   3.34625250e-01
C     1.095992207025000e+00   4.304453488617282e-01   1.018161973600000e+01  7.39251530e-01   1.10685915e+00   1.73434330e-01
C     2.270424584100000e+00   1.128001405825694e+00   9.819203672000000e+00  2.48800355e+00   4.27089020e-01   1.40460299e+00
C     2.448265940775000e+00   2.127456675970626e-01   6.727947063999999e+00  4.46026490e-01  -1.56552026e+00   2.51790340e-01
C     3.723266509425000e+00   8.759473000800522e-01   6.737918176000000e+00 -5.11319010e-01  -6.20380070e-01  -2.98877340e-01
C     3.575555932350000e+00   3.884728034859672e-01   9.925504128000000e+00 -4.77380330e-01   2.03643116e+00  -9.23498400e-02
C     4.878890332575000e+00   1.137797806946401e+00   1.001105533600000e+01 -4.40396848e+00  -8.23837240e-01   6.51684600e-01
C     4.974237469275000e+00   1.289526139271370e-01   6.850245744000000e+00 -1.36770600e-02   2.66877818e+00  -2.44215200e-01
C     6.245207688974999e+00   8.765881101215239e-01   6.823618983999999e+00 -4.82189300e+00   1.98708388e+00  -9.84266130e-01
C     6.008821300499999e+00   4.758924602968536e-01   1.033256300800000e+01  2.60638784e+00  -2.37011114e+00  -1.07565080e-01
C     7.298089412400000e+00   1.122084127733369e+00   1.042788513600000e+01 -1.69640974e+00   1.70079179e+00  -1.75985901e+00
C     8.591792786475001e+00   2.304227705890711e+00   6.501517808000000e+00  1.06441170e-01   1.67500604e+00  -1.74945620e-01
C     2.469667662375000e+00   2.992077917940111e+00   6.434684551999999e+00 -1.44802978e+00   1.95579170e-01   1.99047633e+00
C     2.308474003650000e+00   2.615999082562866e+00   9.791039432000000e+00  1.23393334e+00  -3.10829176e+00   6.88671210e-01
C     3.562845110550000e+00   3.253367988201131e+00   9.858290072000001e+00  1.06451605e+00   1.47993248e+00   1.76010304e+00
C     3.682286340450000e+00   2.282599182203340e+00   6.594211464000000e+00  1.06098172e+00   3.04515860e-01  -4.93923900e-02
C     4.920752059500000e+00   3.018617226554530e+00   6.662277424000000e+00 -1.09764026e+00  -6.04480530e-01   1.99365100e-01
C     4.805845776375000e+00   2.511071657742048e+00   1.011238118400000e+01 -1.46923089e+00   2.33106671e+00  -1.13173196e+00
C     5.967919666425001e+00   3.236050938990270e+00   1.031901387200000e+01  3.20491490e+00   1.75313306e+00  -8.78616310e-01
C     6.161026854375000e+00   2.345620601887563e+00   6.639068072000001e+00  7.71376030e-01  -7.22521260e-01   8.14722790e-01
C     7.358501274975000e+00   3.125600546233565e+00   6.549192064000001e+00  8.45774490e-01  -3.69707154e+00   5.78716230e-01
C     7.272625802175000e+00   2.527596692383363e+00   1.026370212800000e+01  4.25955540e-01   2.05877844e+00   5.01503900e-01
C     8.575543013474999e+00   3.322342293651381e+00   1.008489980000000e+01 -4.38563697e+00  -1.57001004e+00  -1.94642640e-01
C     9.817064901149999e+00   4.420085054067884e+00   6.698500344000000e+00  1.80511499e+00  -1.36087566e+00  -1.25116363e+00
C     3.634414364250000e+00   5.128331418464655e+00   6.712242328000000e+00  7.43238800e-01   6.54567530e-01   6.68820140e-01
C     3.543925668600000e+00   4.675490315823928e+00   1.014891010400000e+01  2.08601990e-01   1.29059453e+00   4.03476180e-01
C     4.799956324425000e+00   5.462423170800797e+00   1.031079607200000e+01 -5.16890860e-01  -3.77758626e+00  -1.29117906e+00
C     4.840319121825000e+00   4.414271973250941e+00   6.759729312000000e+00  3.38453460e+00   1.22956735e+00  -2.79709270e-01
C     6.154958961075000e+00   5.153916876913405e+00   6.842895216000000e+00 -2.65441021e+00   1.52912205e+00  -1.02690114e+00
C     6.013129812374999e+00   4.724605529990947e+00   1.023559691200000e+01  7.27974300e-02  -1.40628084e+00   3.50177630e-01
C     7.276278858225000e+00   5.407693023555023e+00   1.012365585600000e+01 -1.14851549e+00  -2.96300790e-01  -1.00982210e-01
C     7.374261942674999e+00   4.504226179152500e+00   6.713065808000000e+00  5.99495730e-01  -4.87065870e-01   6.95288300e-02
C     8.658381322799999e+00   5.145548497210322e+00   6.771454144000000e+00 -2.43336739e+00   5.13464680e-01   5.69073000e-02
C     8.527572683774999e+00   4.722025894924939e+00   1.010993930400000e+01 -1.99213852e+00  -2.69804740e-01   5.28137760e-01
C     9.666712941000000e+00   5.446605870695590e+00   1.023481953600000e+01  4.02727074e+00  -5.08909480e-01  -5.11932240e-01
