72
Lattice="7.395 0 0 3.6975 6.40425786098592 0 0 0 13.6 " PBC="1 1 1" Properties=species:S:1:pos:R:3:force:R:3 Energy="-576.83147301"
C     3.647299227375000e+00   6.212481653913936e+00   3.457891120000000e-01 -1.11130977e+00  -1.05529716e+00  -1.59648135e+00
C     1.143179110425000e+00   4.895619004009734e-01   3.262195280000000e-01  2.97189946e+00  -5.92273890e-01  -3.52702050e-01
C     1.426211568975000e+00   1.057755727105077e+00   3.445081280000000e+00 -1.45872669e+00  -1.12819223e+00  -5.43662710e-01
C     2.684008594500000e+00   1.695412376048992e+00   3.619996456000000e+00 -1.51967394e+00   2.41500055e+00  -9.59293680e-01
C     6.101358041399999e+00   6.167273805552460e+00   1.591802480000000e-01  5.98223520e-01   6.58353000e-03   4.00322410e-01
C     3.644677736850000e+00   4.614082064652060e-01   3.050028480000000e-01  1.88985763e+00   4.71787980e-01  -2.03791715e+00
C     3.893983818900000e+00   1.020956541228624e+00   3.462496352000000e+00  1.98212333e+00   2.28684796e+00  -2.80768430e-01
C     5.116792659075000e+00   1.801491670688510e+00   3.343575504000000e+00  1.18161419e+00  -6.85782080e-01  -1.24119590e+00
C     8.659619874375000e+00   6.161941044075016e+00   1.101816240000000e-01 -2.94819037e+00   1.98000915e+00   3.93024420e-01
C     6.139425430799999e+00   5.621646021843852e-01   1.179109120000000e-01 -7.13166700e-02  -3.27263225e+00   7.14100410e-01
C     6.393672593024999e+00   1.092560050700719e+00   3.150711728000000e+00 -2.99746072e+00  -1.33441147e+00   6.25049200e-01
C     7.579319968275000e+00   1.795252770766455e+00   3.347812448000000e+00  1.60461118e+00  -4.28244150e-01   7.47473400e-01
C     1.208329060425000e+00   1.899917300802121e+00   4.111237840000000e-01 -5.82471630e-01   4.25594980e-01  -1.24316538e+00
C     2.452502684175000e+00   2.588461478233230e+00   5.547916000000001e-01 -4.71489870e-01   7.43743180e-01  -1.48176759e+00
C     2.653138758600000e+00   3.174599459077847e+00   3.563407672000000e+00  1.57736478e+00  -1.54337568e+00  -4.44353390e-01
C     3.929197255950000e+00   3.868992517127338e+00   3.333771264000000e+00 -3.80250381e+00   1.19175452e+00  -6.92799260e-01
C     3.696735948600000e+00   1.927305942093932e+00   3.283902240000000e-01 -1.79957693e+00  -1.79179378e+00   1.38739346e+00
C     4.880580940500000e+00   2.646388054619509e+00   1.834246960000000e-01  1.69657378e+00  -1.05810360e+00  -1.38953697e+00
C     5.142185129400000e+00   3.248834670232352e+00   3.178286544000000e+00  5.33583490e-01  -3.08155166e+00   2.15913216e+00
C     6.371350378800000e+00   3.926244789203537e+00   3.291430112000000e+00  8.75412060e-01   1.22951687e+00   8.90428440e-01
C     6.110609038500000e+00   1.924328218359347e+00   1.359873248000000e+01  1.58296683e+00   1.82652504e+00   8.02579800e-01
C     7.413057554699999e+00   2.627379704950401e+00   5.862062400000000e-02 -1.31307098e+00  -6.31622460e-01   1.38343634e+00
C     7.588870832624999e+00   3.196154974225613e+00   3.575442719999999e+00 -1.96470404e+00  -3.10824020e-01  -2.13739013e+00
C     8.801186722425001e+00   3.858222924982226e+00   3.537429632000000e+00  2.04913561e+00   1.98487926e+00  -1.66762730e-01
C     2.398228153950000e+00   4.014584737868906e+00   4.973691360000000e-01  1.71147032e+00   1.06579912e+00  -1.94744156e+00
C     3.646798548900000e+00   4.760542958929758e+00   4.143291680000000e-01  1.40878729e+00  -4.52379430e-01  -1.55505967e+00
C     3.831352014300000e+00   5.267188921640646e+00   3.078677968000000e+00  9.20397530e-01   1.40363994e+00   1.45007238e+00
C     5.024897286524999e+00   6.029618189449054e+00   3.248284384000000e+00  3.63124698e+00   4.35243020e-01   5.56381550e-01
C     4.947185376075000e+00   4.024357443235529e+00   8.557908800000000e-02 -2.60241000e+00   2.51575912e+00   1.27477918e+00
C     6.181210471575000e+00   4.737673290069120e+00   1.349518765600000e+01 -1.89462447e+00   1.01441597e+00   1.98147780e+00
C     6.369809741475000e+00   5.377462620922993e+00   3.380464416000000e+00 -1.95287022e+00  -1.67268823e+00  -9.97414680e-01
C     7.626051117825000e+00   6.050642727577649e+00   3.371858608000000e+00 -1.37458782e+00  -1.60115885e+00   6.57842760e-01
C     7.395881668874999e+00   4.040200296329598e+00   5.471048799999999e-02  6.03742860e-01   4.64619730e-01  -1.32376642e+00
C     8.630783441624999e+00   4.762475443739014e+00   8.713356799999999e-02  1.91183190e-01  -1.29900271e+00   2.24314778e+00
C     8.823941729025000e+00   5.298564085365151e+00   3.340492928000000e+00  8.03899700e-02   2.09443110e-01  -7.26175800e-01
C     1.001388493372500e+01   6.021173406949702e+00   3.034418400000000e+00  6.60446040e-01   1.97202470e-01   2.11017687e+00
C     7.312592560349999e+00   2.382406979248296e-01   6.434032432000000e+00  3.15413422e+00  -2.46732679e+00   5.43301010e-01
C     1.201654851075000e+00   9.185940216807356e-01   6.544787159999999e+00 -1.09896390e-01  -1.27625773e+00  -7.79396200e-02
C     1.102669448325000e+00   4.100532952393879e-01   1.022260347200000e+01  1.58273351e+00   4.18876100e-02   1.14731572e+00
C     2.365882756725000e+00   1.127563034375177e+00   1.050457526400000e+01 -2.11339507e+00  -4.47538450e-01  -4.42209690e-01
C     2.448594241800000e+00   1.672501399725156e-01   6.504275344000000e+00 -1.39175846e+00   4.09169810e-01   4.74703880e-01
C     3.624573504975000e+00   9.373292937946939e-01   6.574610600000000e+00 -1.07077700e-02   3.39639900e-01  -5.33459840e-01
C     3.570611265600000e+00   3.928889235359088e-01   1.049415453600000e+01  1.09152660e-01   1.49401650e+00  -1.68941069e+00
C     4.798110569400000e+00   1.087146979829711e+00   1.027607336800000e+01  1.79233080e-01   1.49511714e+00   1.37100639e+00
C     4.799903930850000e+00   2.126936009806608e-01   6.338215264000000e+00  2.84244447e+00  -7.09703440e-01   1.67827967e+00
C     6.090945770475000e+00   8.699169227939190e-01   6.435847080000000e+00 -1.63753718e+00   1.02119211e+00  -2.11217300e-01
C     5.988570314850000e+00   3.755064868522968e-01   1.014072970400000e+01  2.38184790e+00  -2.03505200e-01   3.16113500e-01
C     7.270285173749999e+00   1.095354804788244e+00   1.016236812000000e+01 -2.22440812e+00  -1.68009920e-01  -2.64304340e-01
C     8.632944408524999e+00   2.310991242616657e+00   6.654471568000000e+00 -1.54272830e+00   1.56868873e+00  -3.44622320e-01
C     2.429631465150000e+00   3.099418851378049e+00   6.626502216000000e+00 -2.66001290e-01  -4.94929590e-01   9.42052780e-01
C     2.324224836000000e+00   2.561687517610822e+00   1.059769664000000e+01 -1.05316630e-01  -1.42155497e+00  -1.26000798e+00
C     3.542856573450000e+00   3.277780634907979e+00   1.048116708000000e+01  2.17930179e+00  -1.60640613e+00   1.15300690e-01
C     3.628880537850000e+00   2.383950917733185e+00   6.687265248000000e+00  2.31009574e+00  -5.67743940e-01  -1.02670646e+00
C     4.942455792900000e+00   3.066745864798216e+00   6.582125823999999e+00 -2.91414813e+00  -1.15864600e+00  -6.46473600e-02
C     4.844876401500001e+00   2.532970441111110e+00   1.039426185600000e+01 -2.83756929e+00   8.10764600e-02  -7.93954960e-01
C     6.035907003975000e+00   3.248174327204406e+00   1.021170905600000e+01 -8.10897380e-01   5.19722070e-01  -9.04058100e-02
C     6.106018222499999e+00   2.275618797306254e+00   6.532627400000000e+00  1.13050395e+00   1.97051726e+00   6.09183920e-01
C     7.355078388299999e+00   3.015495919358723e+00   6.641456776000000e+00  7.64933470e-01  -2.35258734e+00  -6.26517230e-01
C     7.198568020050001e+00   2.503134028422628e+00   1.016024937600000e+01  3.68270112e+00  -1.52836400e-02   1.22661686e+00
C     8.471901903599999e+00   3.186615640015408e+00   1.038741126400000e+01 -5.12715180e-01   2.30061738e+00  -1.18100399e+00
C     9.829627933874999e+00   4.531507677210314e+00   6.585542144000000e+00  1.26817991e+00  -1.11800005e+00  -8.76332350e-01
C     3.726280452600000e+00   5.174865396501200e+00   6.479283848000000e+00 -3.53758724e+00   2.42740406e+00   7.63969700e-02
C     3.571217766525000e+00   4.655309154412918e+00   1.031223930400000e+01  4.70867180e-01   9.40433730e-01  -1.70432100e-01
C     4.806335621175000e+00   5.381607712780299e+00   1.022040598400000e+01  5.04666110e-01  -1.94635020e-01  -1.44126000e-02
C     4.911898802474999e+00   4.488768093870661e+00   6.472230071999999e+00  1.80361825e+00  -1.65268191e+00   6.52859800e-01
C     6.169756873724999e+00   5.130926487792105e+00   6.467999656000000e+00 -2.63187790e-01   1.49369116e+00  -4.12920000e-03
C     6.058879793325000e+00   4.681460429043598e+00   1.018387597600000e+01 -9.82865990e-01   6.72472310e-01   5.59687080e-01
C     7.259783090549999e+00   5.448480781226683e+00   1.023011801600000e+01  1.18217066e+00  -3.94729099e+00   2.40919310e-01
C     7.379694198750000e+00   4.388168794596787e+00   6.534602528000000e+00  2.22499490e-01   2.71744577e+00  -1.40973280e-01
C     8.602822281074999e+00   5.187377843380332e+00   6.431516704000000e+00 -1.73811911e+00  -8.80232600e-02   6.37348020e-01
C     8.526334317074999e+00   4.646616399049226e+00   1.022270724000000e+01 -1.97474426e+00  -1.09735870e-01   7.88943460e-01
C     9.739813440375000e+00   5.349239440789445e+00   1.023294613600000e+01 -6.94385860e-01   5.90093010e-01  -1.86884570e-01
