72
Lattice="7.395 0 0 3.6975 6.40425786098592 0 0 0 13.6 " PBC="1 1 1" Properties=species:S:1:pos:R:3:force:R:3 Energy="-578.27519462"
C     3.664393472400000e+00   6.159599199103350e+00   2.269272880000000e-01  2.05084020e-01   3.22278305e+00   3.22004960e-01
C     1.270084261725000e+00   4.430353513035450e-01   2.522076480000000e-01 -3.18916803e+00   2.68301808e+00  -4.46803280e-01
C     1.394638616475000e+00   1.044585755071459e+00   3.421687512000000e+00  2.68099500e-01  -1.67450560e-01  -2.07796760e-01
C     2.632912509225000e+00   1.748925778343944e+00   3.399142248000000e+00  5.69039040e-01  -1.15883095e+00   1.21676090e-01
C     6.189450387300000e+00   6.183129851417720e+00   2.240814880000000e-01 -2.58492114e+00   5.69543710e-01  -1.91393390e-01
C     3.664560969150000e+00   4.773927217431372e-01   1.488273840000000e-01  2.12674833e+00   3.59151920e-01   1.19963173e+00
C     3.911367393300000e+00   1.057199773480251e+00   3.373712424000000e+00 -4.97276800e-01  -7.90785000e-03  -1.27564650e-01
C     5.177283943950000e+00   1.750977382349395e+00   3.296245328000000e+00 -2.98960953e+00   4.81093130e-01   1.34980937e+00
C     8.603550799499999e+00   6.183519230295608e+00   2.472707120000000e-01 -1.61410924e+00  -1.13279099e+00  -2.88733310e-01
C     6.068294700600000e+00   4.661679789919153e-01   2.249551520000000e-01  4.62374537e+00   1.37998205e+00  -2.77920990e-01
C     6.358239931200000e+00   9.879874217653440e-01   3.350999336000000e+00 -1.17079900e+00   4.88084242e+00   5.64463200e-02
C     7.535283704625000e+00   1.692091063880217e+00   3.416164688000000e+00  3.41283988e+00   4.45661958e+00  -3.08485810e-01
C     1.219697541825000e+00   1.915655380237599e+00   2.097211120000000e-01 -4.08315810e-01  -4.66653370e-01   8.05688800e-02
C     2.425777708800000e+00   2.634857700683208e+00   2.608821360000000e-01  1.87538109e+00  -1.79350859e+00   7.67290000e-04
C     2.618229219075000e+00   3.117800800585872e+00   3.382501424000000e+00  2.91707623e+00   2.23123103e+00  -3.37661290e-01
C     3.875312331300000e+00   3.844553356792949e+00   3.271621168000000e+00 -1.27862567e+00   2.41592774e+00   1.53173112e+00
C     3.678547317525000e+00   1.860503704739480e+00   2.829455520000000e-01 -1.62693710e-01   2.77746987e+00  -1.73168638e+00
C     4.917052673774999e+00   2.614847917212531e+00   1.243749920000000e-01 -5.38601740e-01   4.45342950e-01   1.17320738e+00
C     5.100778638675000e+00   3.205133231404705e+00   3.427356944000000e+00  1.87203410e-01  -2.80262038e+00  -1.57217266e+00
C     6.282517275749999e+00   3.906953755592488e+00   3.424564728000000e+00  4.44849242e+00   1.14400792e+00  -3.56745860e-01
C     6.143845496249999e+00   1.879067662955684e+00   1.325302320000000e-01 -3.69128250e-01   2.00716697e+00  -1.11753490e-01
C     7.384082502675000e+00   2.665842460848567e+00   1.279910960000000e-01 -6.18303030e-01  -2.24495219e+00  -4.18512700e-01
C     7.630629325349999e+00   3.255800325336359e+00   3.396901920000000e+00 -4.13806427e+00  -4.00167702e+00   7.32780240e-01
C     8.869065575324999e+00   3.894988744675228e+00   3.451496264000000e+00 -2.42091096e+00  -1.71733670e-01  -7.54720070e-01
C     2.482684415325000e+00   4.024660620802622e+00   2.741530160000000e-01 -2.37557672e+00   2.01587550e+00   2.55561010e-01
C     3.650540271000000e+00   4.816285363172884e+00   2.623566480000000e-01  1.41835686e+00  -3.98106981e+00  -2.43408960e-01
C     3.883520707350000e+00   5.349566890493826e+00   3.328519216000000e+00 -5.23386010e-01  -2.01610549e+00   8.20274800e-02
C     5.129582570400000e+00   6.042767475729785e+00   3.347977416000000e+00 -2.11436280e+00  -2.66917020e-01   2.41675080e-01
C     4.895949525300000e+00   4.091025959685865e+00   2.029132240000000e-01 -3.16558690e-01  -1.11452707e+00  -2.86068610e-01
C     6.090674041200000e+00   4.822519780114437e+00   1.896373120000000e-01  2.67770215e+00  -3.79521485e+00  -1.00838157e+00
C     6.313828408275000e+00   5.330370575856526e+00   3.366837352000000e+00  7.99320780e-01  -5.54811900e-01   6.58721150e-01
C     7.539150106425000e+00   6.039626891717820e+00   3.439392263999999e+00  2.12451504e+00  -1.26595524e+00  -9.12128180e-01
C     7.368328490474999e+00   4.073033645526245e+00   4.278410400000000e-02  9.08885000e-03   6.10082040e-01   2.36717128e+00
C     8.629407490949999e+00   4.765493194085224e+00   3.148727760000000e-01 -8.56482090e-01  -1.21364969e+00  -2.04309333e+00
C     8.799985959299999e+00   5.283480072784914e+00   3.390814152000000e+00  4.99227340e-01   3.26206902e+00   6.58993640e-01
C     1.003300518690000e+01   6.081600846030310e+00   3.390360592000000e+00 -1.25238220e-01  -6.86495025e+00  -4.89138760e-01
C     7.368874130549999e+00   2.157886507192416e-01   6.484679104000000e+00  4.48214350e-01  -1.67696775e+00   1.08843300e-01
C     1.213944268800000e+00   8.835773969370349e-01   6.523600264000000e+00 -4.49098080e-01   1.28436023e+00   2.60780880e-01
C     1.082904351150000e+00   3.868705862545524e-01   1.028067819200000e+01  1.21138338e+00   1.74814424e+00  -5.06560100e-01
C     2.277456822375000e+00   1.084423441089589e+00   1.023737416000000e+01  3.30527999e+00   1.89611625e+00  -4.70248880e-01
C     2.432915510700000e+00   2.493504202048860e-01   6.625225856000000e+00  4.26343000e-01  -4.48035649e+00  -3.35435060e-01
C     3.642882748499999e+00   9.245915451240468e-01   6.632502128000000e+00  1.36170138e+00  -1.99791405e+00   2.04622220e-01
C     3.581675997375000e+00   3.727390149032550e-01   1.010331664800000e+01 -1.71072099e+00   2.15125692e+00   1.59556094e+00
C     4.819092957524999e+00   1.162665668301938e+00   1.024840988000000e+01 -1.00154185e+00  -1.79034949e+00  -1.18377756e+00
C     4.877390293800000e+00   1.817236346509584e-01   6.612053440000000e+00  1.20317532e+00   5.68582400e-01  -7.42961940e-01
C     6.159385903875000e+00   9.167524132905138e-01   6.484595464000000e+00 -2.34649770e+00  -1.22538364e+00   1.12559454e+00
C     6.012600552225000e+00   4.326117812106091e-01   1.021711913600000e+01  1.43481253e+00  -1.27951528e+00   2.84637430e-01
C     7.290550764524999e+00   1.125857068166431e+00   1.026012478400000e+01 -2.85791953e+00   3.22885990e-01   4.08748920e-01
C     8.627438646149999e+00   2.281988087918339e+00   6.519352848000000e+00 -9.35116730e-01   2.54806889e+00   6.64772650e-01
C     2.477453229300000e+00   3.035062079887438e+00   6.622991648000000e+00 -2.54943419e+00   1.00915040e-01  -9.98978900e-01
C     2.312174535600000e+00   2.593355419962107e+00   1.025525516800000e+01  2.11753703e+00  -4.83397723e+00   1.39221510e-01
C     3.536813305500000e+00   3.230988565279675e+00   1.031387429600000e+01  2.43132779e+00   2.06099501e+00  -7.93327760e-01
C     3.650119865250000e+00   2.286388197323630e+00   6.639203392000000e+00  1.82857562e+00   3.76967671e+00   1.95638660e-01
C     4.888852654725000e+00   3.064671845890254e+00   6.651831400000000e+00  3.03073930e-01  -3.22704562e+00  -1.57816030e-01
C     4.819758914249999e+00   2.575551967366779e+00   1.024201692800000e+01 -2.53794341e+00  -1.30855974e+00   7.16910130e-01
C     5.995459164074999e+00   3.273867697398098e+00   1.025918910400000e+01  2.67919053e+00  -9.87654030e-01   1.38565540e-01
C     6.135469179749999e+00   2.319986599164234e+00   6.591505472000000e+00 -7.06416150e-01   8.64500360e-01  -3.44511940e-01
C     7.348483860075000e+00   3.014193229267420e+00   6.542065528000000e+00  1.80668726e+00   1.55072410e-01   2.46911240e-01
C     7.258457093100001e+00   2.545195400854907e+00   1.030688512000000e+01  1.15941394e+00   4.56453900e-01  -1.06752826e+00
C     8.569708617300000e+00   3.275940819709958e+00   1.021031668800000e+01 -6.03499552e+00   2.62616900e-02   6.35726930e-01
C     9.820856280674999e+00   4.487172537067420e+00   6.508957007999999e+00  1.63139847e+00  -1.08255439e+00   9.75185880e-01
C     3.698496069525000e+00   5.185471551985725e+00   6.526716976000000e+00 -1.74045956e+00   1.14913800e-02   1.42702400e-01
C     3.580918231725000e+00   4.663315117163703e+00   1.028434774400000e+01 -3.07301580e-01   6.17768630e-01  -2.83148140e-01
C     4.866095540550000e+00   5.432610005568346e+00   1.024387577600000e+01 -3.77505023e+00  -3.81246183e+00   3.41888310e-01
C     4.912414862549999e+00   4.435376628645363e+00   6.628061456000000e+00  6.09138600e-02   2.04812525e+00  -3.42254500e-01
C     6.168021045374999e+00   5.138734815145332e+00   6.605580248000000e+00 -2.07618762e+00   2.70254421e+00   3.98957630e-01
C     6.025522575225000e+00   4.666374559228582e+00   1.022644071200000e+01  4.60584680e-01   1.46896537e+00  -2.34102560e-01
C     7.242127084349999e+00   5.366194009005429e+00   1.014441761600000e+01  1.27033712e+00   3.93146120e-01   4.56111000e-02
C     7.349697749324999e+00   4.452405742422838e+00   6.593985568000000e+00  1.23736815e+00  -1.31384106e+00  -7.38692600e-02
C     8.578036977225000e+00   5.161400380307972e+00   6.564933520000000e+00  5.40888710e-01   9.97539750e-01   6.17618600e-02
C     8.479847831099999e+00   4.667583362899657e+00   1.017396592800000e+01  8.10660650e-01   3.35029990e-01   1.08855900e-02
C     9.703348695375000e+00   5.347197122957891e+00   1.020882436000000e+01  1.36933033e+00   2.55120530e+00   1.32071490e-01
