72
Lattice="7.395 0 0 3.6975 6.40425786098592 0 0 0 13.6 " PBC="1 1 1" Properties=species:S:1:pos:R:3:force:R:3 Energy="-573.26525903"
C     3.694303659150000e+00   6.219067088228796e+00   2.478027440000000e-01  1.09565403e+00  -4.96419482e+00   1.32855552e+00
C     1.215098443425000e+00   5.032485679587366e-01   2.879304960000000e-01  9.72831490e-01  -2.64712108e+00  -7.77449360e-01
C     1.467931755600000e+00   1.166426952985695e+00   3.383674424000000e+00  1.59018407e+00  -2.04157185e+00  -4.99008590e-01
C     2.682988897950000e+00   1.840174092631275e+00   3.257452144000000e+00  9.57150890e-01   1.79449628e+00   6.28396170e-01
C     6.124720658174999e+00   6.173370210737129e+00   3.092147680000000e-01  2.18074279e+00  -1.09906063e+00  -2.60438560e-01
C     3.746869537649999e+00   4.564150627820784e-01   1.925373760000000e-01 -4.84179070e+00   4.70331990e-01   1.17129077e+00
C     3.880843421550000e+00   1.101502636163530e+00   3.320760416000000e+00  5.27854200e-01   1.86212330e-01  -3.21501490e-01
C     5.118396006000000e+00   1.792139981233602e+00   3.297120896000000e+00  1.56338426e+00  -6.78002990e-01   1.38847186e+00
C     8.570420940675000e+00   6.096243989499464e+00   3.568797760000000e-01  2.84447976e+00   1.94773354e+00   6.79584350e-01
C     6.187011220500000e+00   3.845541661865904e-01   4.335202640000000e-01 -3.88168987e+00   1.83598649e+00  -2.24386495e+00
C     6.406101073725000e+00   1.139883033305617e+00   3.451729368000000e+00  5.57482120e-01  -2.14740390e+00  -4.74426550e-01
C     7.687022449124999e+00   1.873319521313440e+00   3.388380704000000e+00 -3.87918936e+00  -7.69768499e+00   2.42650280e-01
C     1.239011913750000e+00   1.845808430611345e+00   1.757627280000000e-01 -2.34078052e+00   3.76586163e+00   6.52111670e-01
C     2.443334991750000e+00   2.586254506932096e+00   2.339529120000000e-01 -1.26103839e+00   2.31986923e+00  -3.64206640e-01
C     2.719154256375000e+00   3.337132927179051e+00   3.263861280000000e+00 -3.01853703e+00  -1.92378501e+00   2.69030780e-01
C     3.921360663525000e+00   4.036733287294508e+00   3.310996976000000e+00  2.37886870e+00  -4.21597890e+00   8.20538330e-01
C     3.648970608300000e+00   1.903021508629441e+00   2.453574640000000e-01  2.33255463e+00  -1.15190260e+00  -9.31894210e-01
C     4.922177260875000e+00   2.551690407048783e+00   2.312807840000000e-01 -1.65698454e+00   8.85105940e-01   5.29591780e-01
C     5.122845688425000e+00   3.160155103772667e+00   3.429861928000000e+00  1.37985774e+00   4.89279996e+00  -8.93920540e-01
C     6.452756313599999e+00   3.889825183690446e+00   3.484068400000000e+00 -4.69219545e+00   5.27922840e-01  -8.52497060e-01
C     6.106796509275000e+00   1.804500903371767e+00   2.159617440000000e-01  1.72049931e+00   7.36345380e-01   9.71421910e-01
C     7.320619019400000e+00   2.543263620514017e+00   2.028460400000000e-01  1.99123745e+00   1.62582473e+00  -4.77674320e-01
C     7.600320215325000e+00   3.140168567758022e+00   3.364536776000000e+00  2.88162373e+00   9.50867760e+00   1.67921630e-01
C     8.812933605974999e+00   3.979681212319013e+00   3.344860432000000e+00  2.00871747e+00   7.30259550e-01   3.33766610e-01
C     9.750988949250001e+00   4.087640028555284e+00   2.590152640000000e-01  3.57119034e+00  -3.55794985e+00   7.16392160e-01
C     3.682873096724999e+00   4.698700178862089e+00   2.757074960000000e-01 -1.05568147e+00   1.97214127e+00   2.22080000e-03
C     3.972703630875000e+00   5.393167526302757e+00   3.431107008000000e+00  4.55483900e-01   1.04560028e+00  -8.34062200e-02
C     5.178467587649999e+00   6.137044043346217e+00   3.393178104000000e+00  1.61443271e+00  -1.63423858e+00   2.92369580e-01
C     4.919101088775000e+00   3.966074213729028e+00   3.440828560000000e-01 -9.68303000e-02   7.69728320e-01  -8.76488180e-01
C     6.171150609374999e+00   4.704103707388886e+00   3.977601520000000e-01 -3.93788044e+00   2.90999918e+00  -1.16435623e+00
C     6.443186592000000e+00   5.333055945219804e+00   3.400422688000000e+00 -7.77814790e-01   1.13344514e+00   3.59919590e-01
C     7.671691393950001e+00   6.106397876293916e+00   3.401049240000000e+00 -3.37370696e+00   8.04410900e-01   2.35011600e-02
C     7.350985921350000e+00   4.082402626477376e+00   2.428046080000000e-01 -8.73062310e-01  -6.35736254e+00   8.17460220e-01
C     8.514604848750000e+00   4.718327756223682e+00   4.633947040000000e-01  3.08400284e+00   9.87141950e-01  -2.22765636e+00
C     8.884031687249999e+00   5.509667445076595e+00   3.490214648000000e+00 -2.24889940e-01  -7.05670427e+00  -7.06015200e-01
C     1.013925506790000e+01   6.022672835842463e+00   3.520184832000000e+00 -1.02543720e-01   6.26293840e+00  -6.81207850e-01
C     7.369622134799999e+00   2.209119289220844e-01   6.308390191999999e+00 -1.11708573e+00   1.50730876e+00   1.18598503e+00
C     1.184782086300000e+00   9.860633265338856e-01   6.361531784000000e+00 -3.40487630e-01  -1.27060119e+00   3.24144840e-01
C     1.115512270875000e+00   3.052752817544430e-01   1.042207059200000e+01 -2.31067311e+00  -1.85260800e-02  -1.32132655e+00
C     2.364123671100000e+00   1.026782494603866e+00   1.013780366400000e+01 -4.20549868e+00  -2.70268074e+00   6.95236540e-01
C     2.435838717225000e+00   2.199039627774990e-01   6.536673127999999e+00 -9.75279120e-01   6.23648834e+00  -6.17302160e-01
C     3.713087107050000e+00   8.880392433880968e-01   6.522218912000000e+00 -1.41690878e+00   2.41167519e+00   3.39827790e-01
C     3.486638785125000e+00   2.871649371224634e-01   1.000884438400000e+01  4.40362029e+00  -4.49366230e-01   1.10633569e+00
C     4.748836316324999e+00   1.004855276329905e+00   1.019566880800000e+01  4.07964630e-01   6.21728770e-01  -5.53648000e-03
C     4.968832759575000e+00   2.968266567003738e-01   6.591486024000000e+00 -1.67110403e+00  -2.66986477e+00  -8.49673180e-01
C     6.141688522650000e+00   1.007264366009101e+00   6.429551912000000e+00  1.89756328e+00   3.18043090e-01   3.15962000e-03
C     6.041424228600000e+00   3.506091659106036e-01   1.036689416800000e+01 -1.59420309e+00   1.64728340e-01  -9.61978060e-01
C     7.226172963449999e+00   1.118852411132056e+00   1.045818430400000e+01  3.32558101e+00  -2.86336470e+00  -1.73259500e-02
C     8.522293763024999e+00   2.422934467880527e+00   6.311169080000000e+00  5.03779260e-01  -2.17160095e+00   6.22252430e-01
C     2.380514873475000e+00   2.969859882316728e+00   6.444214071999999e+00  2.19383687e+00   4.15178384e+00  -1.05026419e+00
C     2.343812194350000e+00   2.360026531645583e+00   1.013003194400000e+01 -1.14049479e+00   6.92458437e+00   1.22485618e+00
C     3.555539959800000e+00   3.191999315342838e+00   1.028828113600000e+01 -1.01901131e+00  -3.79547978e+00  -9.22591400e-01
C     3.680231713650000e+00   2.332046841395872e+00   6.470057744000000e+00 -2.75298782e+00  -2.05419837e+00   6.65303500e-01
C     4.854549209400000e+00   3.028374497659712e+00   6.573035719999999e+00  8.98200470e-01   4.91357279e+00  -3.27589250e-01
C     4.773741899850000e+00   2.458662605672473e+00   1.030136828000000e+01  1.04800243e+00  -9.67971450e-01   1.71913290e-01
C     6.068286381224999e+00   3.154878891892128e+00   1.038173176800000e+01 -3.73243716e+00   7.32085310e-01   6.81031300e-02
C     6.103560383325000e+00   2.460098504327264e+00   6.451142728000000e+00  1.46902668e+00  -2.85173750e+00  -2.77649500e-01
C     7.332539315699999e+00   3.186392643756723e+00   6.297404792000000e+00 -1.63719831e+00  -4.77784330e-01   1.28901870e+00
C     7.291895545275000e+00   2.548078405615743e+00   1.043292584000000e+01 -3.11031369e+00  -4.43716348e+00  -3.90454560e-01
C     8.428110562350000e+00   3.171022168722408e+00   1.023637279200000e+01  6.70448118e+00   1.51951613e+00  -1.09652910e-01
C     9.810008518199998e+00   4.427615692800301e+00   6.321945040000000e+00 -2.35556211e+00   1.33278419e+00   1.91206493e+00
C     3.600173443650000e+00   5.189680750464211e+00   6.410887272000000e+00  1.25940730e+00   3.06408790e-01   9.68229800e-02
C     3.553314249675000e+00   4.567454008067551e+00   1.037869910400000e+01 -3.24426087e+00   1.20074990e-01  -6.44665360e-01
C     4.735527608775000e+00   5.176288614725428e+00   1.037137020000000e+01  3.06653425e+00   6.40875775e+00   3.48292840e-01
C     4.846602468450000e+00   4.544798753760065e+00   6.586873992000000e+00 -1.76713462e+00  -2.02469806e+00  -3.75458300e-01
C     5.996980019774999e+00   5.326958515353875e+00   6.615345048000000e+00  2.68746825e+00  -6.46861771e+00  -4.48454620e-01
C     5.975581662900000e+00   4.549070137582371e+00   1.031380099200000e+01  1.22607048e+00  -3.09597460e-01  -5.89269400e-01
C     7.174880097225000e+00   5.280707477429584e+00   1.010202940800000e+01  1.83463671e+00  -4.48080000e-02   1.02052263e+00
C     7.251072150300000e+00   4.583062529366521e+00   6.448521327999999e+00  2.59444286e+00   1.12861581e+00   6.82135630e-01
C     8.562043403999999e+00   5.267766969955090e+00   6.481590680000000e+00  7.37968160e-01  -2.28770227e+00  -5.89038060e-01
C     8.471854612574999e+00   4.614235318542650e+00   1.022359300800000e+01 -1.50551000e-02   1.19975130e-01  -9.33783640e-01
C     9.751796594175000e+00   5.340627250989631e+00   1.023901758400000e+01 -1.64022653e+00  -1.03294129e+00   1.07950122e+00
