72
Lattice="7.395 0 0 3.6975 6.40425786098592 0 0 0 13.6 " PBC="1 1 1" Properties=species:S:1:pos:R:3:force:R:3 Energy="-577.31764366"
C     3.704704541775000e+00   6.246245669862799e+00   1.237931840000000e-01 -1.62782050e-01  -4.10769512e+00   1.21532983e+00
C     1.215593205900000e+00   5.179480688970588e-01   1.672186640000000e-01  1.37282893e+00  -6.19722580e-01  -6.15708190e-01
C     1.409368199325000e+00   1.064892888234576e+00   3.382781312000000e+00  7.55449850e-01  -8.59082660e-01  -3.63824850e-01
C     2.629115805300000e+00   1.758646224966431e+00   3.231655664000000e+00  2.17813370e-01   1.33045765e+00   7.87174820e-01
C     6.144701578425000e+00   6.210428064588548e+00   2.339933040000000e-01  9.52534830e-01  -6.49301690e-01  -2.65834390e-01
C     3.722544609525000e+00   4.962159243175135e-01   1.317403440000000e-01 -2.95247944e+00   5.94865730e-01   9.66875310e-01
C     3.826976466750000e+00   1.034871584621675e+00   3.321505832000000e+00  4.27747180e-01  -7.43491390e-01  -6.58064000e-02
C     5.057677583700000e+00   1.710487230540489e+00   3.358819608000000e+00  1.66133447e+00   2.88276340e-01   1.18033019e+00
C     8.577349501050000e+00   6.156443308915099e+00   2.821008560000000e-01  2.48263020e+00   1.63508938e+00   9.69155100e-02
C     6.181052847149999e+00   4.411333507617036e-01   2.966067520000000e-01 -2.76196388e+00   1.45037564e+00  -1.25881898e+00
C     6.336574614825000e+00   1.056673791782209e+00   3.525080696000000e+00  4.78624530e-01  -2.10968126e+00  -5.67448560e-01
C     7.604568236100000e+00   1.782983045260217e+00   3.403667512000000e+00 -2.66341565e+00  -5.91058320e+00   5.74245050e-01
C     1.234052715825000e+00   1.895321605361785e+00   5.128532800000000e-02 -1.00347887e+00   2.60578207e+00   9.79702230e-01
C     2.478952787400000e+00   2.627138136343921e+00   4.324800000000000e-02 -2.84758402e+00   2.18890028e+00   1.42597470e-01
C     2.658601223250000e+00   3.235664826283890e+00   3.258959296000000e+00 -2.67865837e+00  -1.10689892e+00   1.56443120e-01
C     3.859838441699999e+00   3.943779134883588e+00   3.370344112000000e+00  1.88598479e+00  -3.58053750e+00   6.79401200e-01
C     3.673240110900000e+00   1.949119228620564e+00   1.160894640000000e-01  8.89216990e-01  -1.83585958e+00  -6.65501040e-01
C     4.900248608549999e+00   2.602127203867791e+00   1.664470000000000e-01  7.61736100e-01   9.40459490e-01   6.10243690e-01
C     5.061392683799999e+00   3.098102264047191e+00   3.482236480000000e+00  1.42120702e+00   3.73285993e+00  -1.19989922e+00
C     6.380690411700000e+00   3.828163067737008e+00   3.470011984000000e+00 -4.00183341e+00   9.55834200e-02  -3.02904150e-01
C     6.108540065400000e+00   1.860332903182354e+00   2.214841600000000e-01  1.94471908e+00   1.24692294e+00   1.29261800e-01
C     7.354199381625000e+00   2.610198554091328e+00   1.873983440000000e-01  4.00204300e-01   7.96045300e-01  -8.26711630e-01
C     7.535850161625000e+00   3.079858518723987e+00   3.338437016000000e+00  2.73266974e+00   7.33615613e+00   6.80278000e-02
C     8.761426950299999e+00   3.909677614545503e+00   3.303584432000000e+00  1.44019369e+00  -2.03054740e-01   5.45531410e-01
C     9.772092171674998e+00   4.123042061536998e+00   8.606406400000000e-02  3.28113378e+00  -3.17151293e+00   8.07314760e-01
C     3.684165890625000e+00   4.753347455011155e+00   1.272968160000000e-01 -3.19798520e-01   1.36578823e+00   2.34750360e-01
C     3.895510035975000e+00   5.308218119833629e+00   3.529307440000000e+00  4.04675080e-01   8.23120600e-01  -3.94642140e-01
C     5.104479244575000e+00   6.047898246914325e+00   3.449281368000000e+00  1.66852997e+00  -1.42170534e+00   8.53469700e-02
C     4.927414695674999e+00   4.017589807784553e+00   2.503662080000000e-01 -6.77142200e-01   1.07157001e+00  -6.63176190e-01
C     6.175631831475000e+00   4.763422377306194e+00   3.503883600000000e-01 -3.61629334e+00   1.90935950e+00  -1.22810299e+00
C     6.371221557900000e+00   5.264645790844440e+00   3.405668616000000e+00 -7.65198510e-01   9.96283110e-01   3.79103220e-01
C     7.599284027925000e+00   6.024539997221546e+00   3.397370304000000e+00 -2.68223692e+00   7.74825350e-01  -4.96602900e-02
C     7.349349296925000e+00   4.125379999911370e+00   2.102210480000000e-01  9.92171550e-01  -5.33132069e+00   9.10782640e-01
C     8.556527547449999e+00   4.774069135785550e+00   3.342950720000000e-01  1.15700217e+00   1.99080820e-01  -1.97551230e+00
C     8.813516997524999e+00   5.392726016765888e+00   3.474453880000000e+00 -2.29262920e-01  -5.29615174e+00  -4.71411470e-01
C     1.006196711280000e+01   5.945418145192126e+00   3.599024032000000e+00 -1.60770410e-01   5.51270135e+00  -8.70363120e-01
C     7.401334076325000e+00   1.669845553990614e-01   6.536173872000000e+00 -1.13793447e+00   9.45893450e-01   7.33548480e-01
C     1.216331670600000e+00   9.187562415323293e-01   6.546527007999999e+00  3.68579500e-02  -1.19240509e+00   1.99079030e-01
C     1.123646290200000e+00   4.240213018449408e-01   1.029295124000000e+01 -1.76719809e+00  -6.53214010e-01  -9.54165910e-01
C     2.371054043250000e+00   1.122782960351052e+00   1.002061300800000e+01 -3.62289706e+00  -1.26881356e+00   7.54001080e-01
C     2.462394679875000e+00   1.566377083152882e-01   6.676913064000000e+00 -6.88566710e-01   4.68982299e+00  -4.29274160e-01
C     3.735841522050000e+00   8.285176865817853e-01   6.665631728000000e+00 -1.13706454e+00   2.29691834e+00   1.89531450e-01
C     3.510398180625000e+00   3.978041274008802e-01   9.964026128000000e+00  4.33798293e+00  -8.05950120e-01   1.30370527e+00
C     4.774317970349999e+00   1.112622092915533e+00   1.014799768000000e+01  8.87045500e-02   2.63968880e-01  -3.27926770e-01
C     4.988696173275000e+00   2.105309471439174e-01   6.758701968000000e+00 -1.67452321e+00  -1.71853429e+00  -8.17209660e-01
C     6.165514547100000e+00   9.271376218788685e-01   6.626994808000000e+00  1.88634392e+00   4.32852950e-01  -1.06017270e-01
C     6.056433157574999e+00   4.369282510082490e-01   1.030509223200000e+01 -1.33523992e+00   7.56406470e-01  -7.29575350e-01
C     7.262525563274999e+00   1.192635289553908e+00   1.035212511200000e+01  2.07554653e+00  -2.04279547e+00  -1.67683150e-01
C     8.574474916649999e+00   2.347330218523290e+00   6.487989208000000e+00  1.40288920e-01  -1.73749932e+00   4.68531370e-01
C     2.417993694825000e+00   2.940530046424971e+00   6.570779480000000e+00  2.31529433e+00   2.84959556e+00  -6.89129050e-01
C     2.357905400475000e+00   2.479454605198171e+00   1.001166053600000e+01 -1.05649913e+00   5.30759456e+00   1.06451897e+00
C     3.579497689200000e+00   3.284811997697631e+00   1.013714080000000e+01 -1.38783455e+00  -2.41000197e+00  -5.15749850e-01
C     3.712066892849999e+00   2.281697206526338e+00   6.589054480000000e+00 -2.21101393e+00  -1.90408521e+00   6.24284590e-01
C     4.900342635974999e+00   2.980534115062304e+00   6.672973143999999e+00  5.51552500e-01   3.76093282e+00  -2.21480810e-01
C     4.783622950950000e+00   2.556895083369027e+00   1.018257486400000e+01  1.65249047e+00  -7.01554250e-01   3.78064600e-01
C     6.074864788349999e+00   3.254222700455126e+00   1.028561064000000e+01 -3.01847213e+00   8.36732050e-01   1.14227290e-01
C     6.147890302424999e+00   2.375542959716527e+00   6.605819336000000e+00  7.17491860e-01  -2.34717457e+00  -8.15622500e-02
C     7.375469878950000e+00   3.092740491281641e+00   6.495434255999999e+00 -1.19630854e+00  -2.24685070e-01   7.87618420e-01
C     7.299255640875000e+00   2.618031858050208e+00   1.032339796800000e+01 -2.10013481e+00  -2.89503704e+00  -4.86445450e-01
C     8.454043126500000e+00   3.271480894536254e+00   1.014614631200000e+01  5.22934463e+00   8.44920410e-01   8.39484300e-02
C     9.843628850400000e+00   4.382303903333757e+00   6.522390543999999e+00 -1.82144663e+00   1.24835527e+00   1.35021722e+00
C     3.645401559450000e+00   5.133237848496358e+00   6.593512152000000e+00  9.26536790e-01   4.08046620e-01  -1.92990000e-04
C     3.568653032625000e+00   4.679180128989967e+00   1.024568607200000e+01 -2.31450653e+00  -1.65431130e-01  -3.36450170e-01
C     4.751636802825000e+00   5.321369647604611e+00   1.027819796000000e+01  3.12240004e+00   4.54090536e+00   1.46136270e-01
C     4.885854684750000e+00   4.474021201424175e+00   6.698049232000000e+00 -1.09643276e+00  -1.80105105e+00  -2.63814230e-01
C     6.054275925150000e+00   5.236736547431190e+00   6.736634472000000e+00  2.52138372e+00  -4.92254233e+00  -4.37374930e-01
C     6.011437059900000e+00   4.666240646196730e+00   1.026138074400000e+01  1.22133550e-01  -5.65307230e-01  -5.90838230e-01
C     7.216543490249999e+00   5.385642459274679e+00   1.010586515200000e+01  1.33938550e+00   3.39347550e-01   5.30099420e-01
C     7.319203357575000e+00   4.493795564375918e+00   6.619706295999999e+00  1.56448236e+00   1.29096275e+00   5.37848490e-01
C     8.609384825925000e+00   5.189627659166551e+00   6.674405360000000e+00  3.65008220e-01  -2.06466616e+00  -6.88627360e-01
C     8.498339398349998e+00   4.711443050939025e+00   1.018495962400000e+01 -3.72236050e-01  -3.91395100e-02  -7.95056400e-01
C     9.753804188775000e+00   5.440046181497328e+00   1.019465656000000e+01 -9.40754160e-01  -1.34770052e+00   6.02434850e-01
