72
Lattice="7.395 0 0 3.6975 6.40425786098592 0 0 0 13.6 " PBC="1 1 1" Properties=species:S:1:pos:R:3:force:R:3 Energy="-569.87675203"
C     3.714695112824999e+00   6.379656351728860e+00   1.333304233600000e+01  3.23400100e-01  -1.11565494e+00   6.81283000e-01
C     1.174298046900000e+00   7.442749259249304e-01   1.332213826400000e+01  2.57240019e+00  -3.14733903e+00   1.07834790e+00
C     1.229991714600000e+00   7.658883996063300e-01   3.394192936000000e+00  2.63128023e+00  -9.01709390e-01   9.21633310e-01
C     2.479455462525000e+00   1.528494553016831e+00   3.393904616000000e+00  1.49792091e+00  -3.98786793e+00   4.92855690e-01
C     6.028691591549999e+00   6.357755903252754e+00   1.343980981600000e+01  5.31218840e+00   4.64698140e-01  -6.77115320e-01
C     3.728267932800000e+00   7.459119823191036e-01   1.321497624800000e+01 -1.32980953e+00  -3.47316747e+00   3.13712642e+00
C     3.744066721725000e+00   7.644158685965803e-01   3.511321168000000e+00 -3.67514840e+00  -1.67777664e+00   4.49387900e-02
C     4.880740783425000e+00   1.477388959549503e+00   3.538105824000000e+00  5.06763706e+00   7.01760040e-01   8.26967800e-01
C     8.690868482174999e+00   6.390398469607753e+00   1.335279225600000e+01 -1.83181847e+00  -9.71315800e-01   5.30360780e-01
C     6.254546131950000e+00   6.815940206311236e-01   1.343854692000000e+01 -5.57477569e+00   1.54982159e+00   8.73283290e-01
C     6.182991113625000e+00   7.960929930791838e-01   3.556455488000000e+00  9.76793410e-01  -1.87752691e+00   5.27363580e-01
C     7.500511342350000e+00   1.514660139230238e+00   3.441910848000000e+00 -6.05365951e+00  -2.85356267e+00   1.77241030e-01
C     1.277170298625000e+00   2.121084631527662e+00   1.336977811200000e+01 -3.06914585e+00   6.99839030e-01  -6.09828390e-01
C     2.446381990575000e+00   2.812210877642767e+00   1.305226476000000e+01  6.11936620e-01   1.01959629e+00   3.02240466e+00
C     2.573401764375000e+00   2.886819072775038e+00   3.449193512000000e+00 -4.49970133e+00   2.73918195e+00  -3.48086020e-01
C     3.777316305600000e+00   3.640642555041492e+00   3.537373872000000e+00 -7.16576800e-01  -3.86387030e+00   1.12493670e+00
C     3.674930940674999e+00   2.141491158772766e+00   1.336619682400000e+01  1.09994531e+00  -7.86474360e-01  -2.51431586e+00
C     4.935331228050000e+00   2.809368219706449e+00   1.348870358400000e+01 -2.23184375e+00   1.64588247e+00   1.62863183e+00
C     4.977851479725000e+00   2.887845547224838e+00   3.718166832000000e+00 -6.53807680e-01   1.29378284e+00  -2.86588622e+00
C     6.220918293824999e+00   3.607177169636641e+00   3.526880112000000e+00 -4.58554273e+00   6.51094830e-01   7.07044260e-01
C     6.103618618950000e+00   2.170206762293170e+00   1.575908160000000e-01  3.78499577e+00  -4.82482065e+00  -2.59975909e+00
C     7.397979075749999e+00   2.785780057156496e+00   3.725162400000000e-02  2.85556280e-01   8.96280000e-03  -4.93404770e-01
C     7.325223146399999e+00   2.869054878280391e+00   3.374082616000000e+00  6.15620190e+00   2.38417913e+00   4.74761450e-01
C     8.554318919775000e+00   3.622744255387258e+00   3.436387616000000e+00  4.18185850e+00  -5.23488220e-01  -7.74742920e-01
C     9.798972589949999e+00   4.243915704173746e+00   1.316818857600000e+01  4.66315368e+00  -1.97651777e+00   6.68001940e-01
C     3.730636366425000e+00   4.932281266853141e+00   1.331810273600000e+01 -2.36849384e+00   1.21398616e+00   5.79922700e-02
C     3.724104584775000e+00   4.986481910059050e+00   3.630051888000000e+00 -7.28098000e-01   3.04726799e+00   1.67805900e-02
C     4.909346972850000e+00   5.692315726477380e+00   3.568034800000000e+00  2.32028613e+00   3.11366734e+00  -7.54738520e-01
C     4.918298361525000e+00   4.248945159998939e+00   1.582060800000000e-02 -1.24604735e+00  -1.70039364e+00  -1.30089313e+00
C     6.113296307550000e+00   4.914968956793095e+00   1.100648000000000e-01  2.20891395e+00   2.38969111e+00  -1.71555543e+00
C     6.181765207500000e+00   5.046769095892524e+00   3.506828544000000e+00  4.74495090e-01  -1.62527417e+00   7.59249220e-01
C     7.450486607699999e+00   5.683004447889569e+00   3.609144744000000e+00 -2.61282427e+00   4.59814208e+00  -2.00007466e+00
C     7.396503070724999e+00   4.148251397921631e+00   1.356601332800000e+01 -9.54167800e-01   3.43817758e+00   8.61589400e-01
C     8.628811306050000e+00   4.833825728855324e+00   1.341780148000000e+01 -2.16351652e+00   5.56224479e+00  -7.15482530e-01
C     8.651001556499999e+00   5.063714121764298e+00   3.467514208000000e+00  9.11410470e-01  -3.08995477e+00   1.81078167e+00
C     9.900779037300000e+00   5.731635051864322e+00   3.702635632000000e+00 -5.81407720e-01   1.85308594e+00  -2.24589435e+00
C     3.704013811800000e+00   6.391523505586020e+00   7.283362904000000e+00 -1.43589600e-01   3.51309166e+00  -2.68586016e+00
C     1.300217185875000e+00   7.229954342909298e-01   6.923039607999999e+00 -3.03464720e+00   1.16046762e+00   1.07197620e-01
C     1.313797031100000e+00   6.633477776473549e-01   1.021449406400000e+01 -8.37102147e+00  -2.04328163e+00  -8.62308710e-01
C     2.432303574450000e+00   1.347919906268536e+00   1.024118134400000e+01  2.64006769e+00   2.63197659e+00  -1.05246854e+00
C     2.466855269924999e+00   1.213818204979380e-02   6.663648712000000e+00  1.47347909e+00   3.52818970e-01  -1.50641670e-01
C     3.735272661675000e+00   7.183387703157667e-01   6.453799080000000e+00 -5.05151890e-01   9.51338350e-01   2.22751992e+00
C     3.642200855550000e+00   6.382684476972804e-01   1.036299844800000e+01  2.60140605e+00   9.16966190e-01   1.97183401e+00
C     4.913027168550000e+00   1.368555321689556e+00   1.047410772800000e+01 -2.26935017e+00   1.36986505e+00  -3.97852483e+00
C     4.961093559300000e+00   1.589818588197840e-02   6.915554304000000e+00 -3.05487946e+00   1.38332691e+00  -2.22135328e+00
C     6.112738835475000e+00   6.982986947054118e-01   7.046919831999999e+00  4.95149999e+00   3.44763548e+00   1.16245395e+00
C     6.112035090300000e+00   7.048303332542473e-01   1.028588644800000e+01 -9.67487700e-02  -2.28456709e+00   1.11797462e+00
C     7.250379608549999e+00   1.440070644530918e+00   1.011113977600000e+01  6.07754755e+00  -5.40435824e+00   6.18187990e-01
C     8.614855942724999e+00   2.221800552337166e+00   6.775157968000000e+00  2.11515000e+00  -4.05455484e+00   1.10927196e+00
C     2.474841167400000e+00   2.875515749779873e+00   6.708457312000000e+00  1.06382444e+00   2.65684430e-01  -1.57159113e+00
C     2.419634867175000e+00   2.800803101201906e+00   1.003301335200000e+01  9.16180700e-01   2.02078200e-02   8.25311130e-01
C     3.685147170150000e+00   3.522875553850053e+00   9.993177592000000e+00 -1.83534727e+00  -1.98547361e+00   4.05155590e-01
C     3.721989282000000e+00   2.184553708836299e+00   6.401627576000000e+00 -5.85911360e-01  -1.30482758e+00   2.64086841e+00
C     4.945774742849999e+00   2.924375626186014e+00   6.636968776000000e+00  6.71401200e-01  -3.56275999e+00   9.21511330e-01
C     4.918996708350000e+00   2.763631699858630e+00   1.000760420000000e+01  1.07007540e-01   8.17958660e-01   2.36948756e+00
C     6.158821887224999e+00   3.486731139297206e+00   1.010846968800000e+01 -1.32174477e+00   1.65150251e+00   1.06434072e+00
C     6.214776154725000e+00   2.195661701966733e+00   6.958932184000000e+00 -4.46338103e+00  -3.08510507e+00  -1.70155053e+00
C     7.389913127400000e+00   2.835159703130555e+00   6.902803624000000e+00  1.49842182e+00   4.71923337e+00  -3.37587210e-01
C     7.368107453924999e+00   2.739854547659229e+00   1.016470759200000e+01 -5.36737920e-01   5.95563096e+00  -3.82776330e-01
C     8.590598272125000e+00   3.515552861370350e+00   1.013039805600000e+01  1.07224278e+00   2.10950500e-02   1.23258640e+00
C     2.531193322875000e+00   4.290993852000656e+00   6.866240704000000e+00 -4.70037001e+00   3.80328270e-01   8.77254730e-01
C     3.624521074425000e+00   5.041870543097989e+00   7.101128344000000e+00  5.85793473e+00  -2.84105205e+00  -1.55111193e+00
C     3.574667829825000e+00   4.904314257033992e+00   1.011593513600000e+01  4.87405159e+00   1.22086010e+00  -3.05944890e-01
C     4.881924796874999e+00   5.622534868792242e+00   1.016162501600000e+01  4.22516900e-01   1.35070296e+00   1.07662731e+00
C     4.947027381900000e+00   4.254884404695725e+00   6.835955544000000e+00 -1.11850144e+00   4.21234500e+00   3.03716510e-01
C     6.196752617025000e+00   4.970827598316380e+00   6.707011904000000e+00 -2.88835333e+00   2.04589254e+00   1.31578362e+00
C     6.108552562949999e+00   4.968860146259209e+00   1.036012572000000e+01  1.86262388e+00  -2.72511175e+00  -1.01328260e+00
C     7.412049653174999e+00   5.666652776508524e+00   1.061914615200000e+01 -2.70076761e+00  -1.16199064e+00  -2.69735199e+00
C     7.390486461749999e+00   4.366507545151753e+00   6.798485096000000e+00  2.79180423e+00  -3.92907488e+00   1.59950540e-01
C     8.651080941825001e+00   5.053612621799142e+00   6.910123007999999e+00 -4.80416000e-02  -3.60915514e+00  -3.63075570e-01
C     8.650627036724998e+00   4.948602005668722e+00   1.045195414400000e+01 -2.20387056e+00  -1.48677238e+00  -9.89141840e-01
C     9.846156239550000e+00   5.647854678624959e+00   1.034355058400000e+01 -1.25770789e+00   1.13012943e+00  -4.88447900e-01
