72
Lattice="7.395 0 0 3.6975 6.40425786098592 0 0 0 13.6 " PBC="1 1 1" Properties=species:S:1:pos:R:3:force:R:3 Energy="-570.90206374"
C     3.702796557825000e+00   6.386960535903349e+00   1.330644182400000e+01 -1.34934723e+00  -6.93004120e-01   8.42171250e-01
C     1.191401868450000e+00   6.765454160749285e-01   1.327781885600000e+01  1.49100832e+00  -1.98549390e-01   1.12477355e+00
C     1.212708786150000e+00   8.021117786585904e-01   3.385750192000000e+00  2.60142316e+00  -2.64762543e+00   1.27374947e+00
C     2.517252416775000e+00   1.443330988164866e+00   3.382767032000000e+00 -8.53589500e-01   1.01308151e+00   7.07783530e-01
C     6.051910671374999e+00   6.344317144516752e+00   1.340215209600000e+01  5.01320849e+00   1.51407310e-01  -4.42210420e-01
C     3.730662322874999e+00   7.280546699151726e-01   1.320289686400000e+01 -1.46741024e+00  -3.70305630e+00   2.86782615e+00
C     3.743560792800000e+00   7.499078549682721e-01   3.543629600000000e+00 -7.19362260e-01   1.38049359e+00  -2.11955030e-01
C     4.904850443100000e+00   1.501569964249555e+00   3.569714127999999e+00  3.76088788e+00  -2.64532800e-02   8.90073180e-01
C     8.682521745675000e+00   6.374227590426096e+00   1.330476290400000e+01 -3.14907526e+00  -1.19550125e+00   8.25425110e-01
C     6.169842729675000e+00   6.626659163130006e-01   1.340773421600000e+01 -5.50043270e-01   2.37662207e+00   9.25648910e-01
C     6.232597291274999e+00   7.668808674468943e-01   3.591192200000000e+00 -1.68657711e+00   1.08296244e+00   3.17115940e-01
C     7.470946428150000e+00   1.536909939972607e+00   3.460126416000000e+00 -3.30874504e+00  -3.08937892e+00   5.04850000e-03
C     1.300148005650000e+00   2.072204837879577e+00   1.331426522400000e+01 -4.35753901e+00   2.12602159e+00  -5.87453000e-02
C     2.453839848075000e+00   2.770333819751698e+00   1.297987019200000e+01  1.01171483e+00   1.67289037e+00   3.49122264e+00
C     2.557980564150000e+00   2.865823161679078e+00   3.469585080000000e+00 -2.68151840e+00   1.30825265e+00  -4.88458100e-01
C     3.787612364100000e+00   3.640869137684579e+00   3.556901295999999e+00 -3.68432654e+00  -2.39612076e+00   9.96196270e-01
C     3.699550485600000e+00   2.101575789106794e+00   1.335256853600000e+01 -7.91316110e-01   3.11793000e-01  -3.15578074e+00
C     4.913376249525000e+00   2.798667921631382e+00   1.345452202400000e+01 -1.03604187e+00   1.47472123e+00   1.97205699e+00
C     4.951237392375000e+00   2.955650371147274e+00   3.737018744000000e+00  1.83943671e+00  -2.85090742e+00  -2.79845903e+00
C     6.207312381224999e+00   3.583780622481860e+00   3.534619600000000e+00 -9.55740780e-01   3.26582748e+00   5.14593420e-01
C     6.057616357575000e+00   2.127873401029576e+00   1.468224720000000e-01  5.44809884e+00  -2.28711383e+00  -2.62192801e+00
C     7.403287798350000e+00   2.861674355352212e+00   5.164192000000000e-02  1.74479630e-01  -4.01242837e+00  -1.21755161e+00
C     7.410346288875000e+00   2.893673165707124e+00   3.387956384000000e+00 -5.51330000e-01   1.50996686e+00   7.95030250e-01
C     8.567012400299999e+00   3.608536985708055e+00   3.463024440000000e+00  5.79036535e+00   1.10438837e+00  -8.40484840e-01
C     9.797646999225000e+00   4.222350710724347e+00   1.310313460800000e+01  3.15646478e+00  -7.00389930e-01   1.42082157e+00
C     3.707848008375000e+00   4.983426822889515e+00   1.329898997600000e+01 -7.10395870e-01  -2.44249887e+00   3.19450600e-02
C     3.698783365275000e+00   4.995500514062659e+00   3.677681536000000e+00 -2.45694750e-01   2.24962137e+00  -2.49416740e-01
C     4.842619040774999e+00   5.735476774026800e+00   3.606842536000000e+00  5.68670915e+00   2.01810350e+00  -1.10216334e+00
C     4.938397860600000e+00   4.221420236099867e+00   1.359094008800000e+01 -1.99353171e+00   1.02971613e+00  -1.49239737e+00
C     6.141739548149999e+00   4.931787050274084e+00   9.361138399999999e-02  7.19813060e-01   1.26303996e+00  -1.73434391e+00
C     6.220985847150000e+00   5.070444356349372e+00   3.533536224000000e+00 -2.33233045e+00  -1.54972628e+00   8.27029810e-01
C     7.467751862100000e+00   5.772944436338681e+00   3.635429464000000e+00 -2.13178609e+00  -1.22024357e+00  -2.13016838e+00
C     7.436969435100000e+00   4.223626502932637e+00   1.355662660800000e+01 -3.48424253e+00   5.50747920e-01   1.32158742e+00
C     8.613442906125000e+00   4.871319136283800e+00   1.339445572000000e+01  1.97040705e+00   4.20885131e+00  -1.72095545e+00
C     8.643453590924999e+00   5.061558384526044e+00   3.463912112000000e+00  1.21112084e+00  -1.53201363e+00   2.39134284e+00
C     9.906074596800000e+00   5.744628394466162e+00   3.719252520000000e+00 -1.65400711e+00   3.27033710e-01  -2.15878489e+00
C     7.376472382124999e+00   2.444819033797140e-02   7.332460263999999e+00  1.73247057e+00   1.08741313e+00  -3.22652723e+00
C     1.300744375425000e+00   7.506048303511759e-01   6.928858912000001e+00 -2.75571445e+00  -2.17159170e-01   1.59195860e-01
C     1.284774466200000e+00   6.460761346247209e-01   1.020628959200000e+01 -5.64651414e+00  -2.72109510e-01  -8.34223510e-01
C     2.442584658075000e+00   1.336586355176272e+00   1.025887848000000e+01  4.95617830e-01   2.18762617e+00  -1.39189529e+00
C     2.476654754175000e+00   3.828907242500340e-02   6.659298344000000e+00  2.64211050e-01  -1.33797510e+00   1.14538290e-01
C     3.699919976775000e+00   7.457391313994622e-01   6.456858808000000e+00  1.80200390e-01   5.35673700e-01   1.92644668e+00
C     3.633643842225000e+00   6.233349351767538e-01   1.039435787200000e+01  1.84658643e+00   3.44575989e+00   1.26860952e+00
C     4.875932036775001e+00   1.372923601933284e+00   1.048687160000000e+01  9.12074690e-01   8.67859000e-01  -4.28269536e+00
C     4.903110066825000e+00   4.335125400786180e-02   6.900333455999999e+00 -5.80869000e-02   8.27996490e-01  -1.54638378e+00
C     6.126471572324999e+00   7.143746627855838e-01   7.064094728000001e+00  1.39378922e+00   1.68042247e+00   7.90591220e-01
C     6.113117977124999e+00   6.649914304271238e-01   1.030020983200000e+01 -4.65572810e-01  -6.79640820e-01   1.06367461e+00
C     7.272718424550000e+00   1.434424138460914e+00   1.009348520800000e+01  3.70506840e+00  -5.92826678e+00   1.12824763e+00
C     8.637729934874999e+00   2.186608771140994e+00   6.748395752000000e+00  1.71071826e+00  -1.99019145e+00   1.51393404e+00
C     2.483977209225000e+00   2.903182207777652e+00   6.694004184000000e+00  6.81004800e-02   6.33324200e-02  -1.49808614e+00
C     2.416490180400000e+00   2.792807449306275e+00   1.002380044000000e+01  9.46705940e-01  -7.69449450e-01   7.61006180e-01
C     3.635465341650000e+00   3.551651037181447e+00   9.970447232000000e+00  1.22480205e+00  -3.83779527e+00   4.30804180e-01
C     3.673253458875000e+00   2.184500745623797e+00   6.387409320000000e+00  2.18688438e+00   6.35841680e-01   2.81579296e+00
C     4.984852030424999e+00   2.947120924359012e+00   6.629459263999999e+00 -1.57178198e+00  -5.21581200e+00   7.43442570e-01
C     4.946123565000000e+00   2.790717868051714e+00   9.986614639999999e+00 -2.99944425e+00  -5.17646180e-01   2.59081548e+00
C     6.154104579749999e+00   3.490377403509797e+00   1.011714798400000e+01 -1.30666061e+00   1.85329785e+00   1.07041455e+00
C     6.188661821475000e+00   2.166819230098123e+00   6.982245440000000e+00 -1.45576372e+00  -7.76768860e-01  -1.91979019e+00
C     7.427108276549999e+00   2.807454243202409e+00   6.931045520000001e+00 -1.01789707e+00   3.86053819e+00  -4.62456100e-01
C     7.321868885325000e+00   2.750519302103173e+00   1.018418918400000e+01  1.98704502e+00   3.80684509e+00  -7.35890400e-01
C     8.593407041024999e+00   3.466390447822903e+00   1.011208987200000e+01 -7.14362920e-01   2.03497404e+00   1.81484686e+00
C     2.521885827975000e+00   4.329939809154360e+00   6.877309064000000e+00 -2.15359862e+00   3.87845400e-02   1.10075608e+00
C     3.703939824825000e+00   5.026561420853973e+00   7.139926968000000e+00  1.82981049e+00  -9.34412240e-01  -1.87616120e+00
C     3.600112323974999e+00   4.899529892157100e+00   1.012963836000000e+01  4.48651492e+00   1.35658768e+00  -6.38583110e-01
C     4.906111771275000e+00   5.622211069514840e+00   1.015361842400000e+01 -3.29740790e-01   3.75322790e-01   1.24794854e+00
C     4.972411421924999e+00   4.276335786610688e+00   6.823501616000001e+00 -1.31977555e+00   3.53556798e+00   5.54036530e-01
C     6.205885626900000e+00   4.957196199503948e+00   6.694113256000000e+00 -1.38884368e+00   2.94101800e+00   1.51162450e+00
C     6.118045783274999e+00   4.934186021225862e+00   1.037720868000000e+01  1.12008150e+00  -3.26894690e-01  -1.08844454e+00
C     7.359959162249999e+00   5.710831716802212e+00   1.064100026400000e+01 -2.07486400e-02  -5.82982838e+00  -2.48878465e+00
C     7.396048315200000e+00   4.306033675201658e+00   6.816109879999999e+00  2.54493053e+00  -2.02014592e+00  -1.41212400e-02
C     8.642103744600000e+00   5.059201553590985e+00   6.916780480000000e+00 -3.36296710e-01  -2.63705787e+00  -3.95843610e-01
C     8.643191586075000e+00   4.922261293090542e+00   1.045789204000000e+01 -2.56083394e+00  -1.22353186e+00  -9.80241370e-01
C     9.862532504024999e+00   5.582813740267164e+00   1.036586016000000e+01 -2.66945201e+00   3.47753331e+00  -3.37850860e-01
