72
Lattice="7.395 0 0 3.6975 6.40425786098592 0 0 0 13.6 " PBC="1 1 1" Properties=species:S:1:pos:R:3:force:R:3 Energy="-579.6330676"
C     3.714475481325000e+00   6.315417802838344e+00   1.324759707200000e+01 -2.13909402e+00   4.03907100e-01  -2.28068740e-01
C     1.165941216225000e+00   6.526549085114058e-01   1.320429032000000e+01  2.47275196e+00   1.19692880e-01   4.07351290e-01
C     1.305305389575000e+00   8.225648648583367e-01   3.584016160000000e+00 -5.09376630e-01   1.87627280e-01   1.70104140e-01
C     2.544104512200000e+00   1.528866448270762e+00   3.554668992000000e+00 -2.18880706e+00   2.30347337e+00  -1.57417790e-01
C     6.063324853875000e+00   6.357178559406675e+00   1.327265901600000e+01  4.23615674e+00  -1.51373192e+00   7.59070000e-03
C     3.668685160650000e+00   6.795582351425868e-01   1.324286944000000e+01  4.53630370e-01  -1.06099335e+00   4.77500620e-01
C     3.705632059650000e+00   7.978336063229533e-01   3.599159216000000e+00  2.59091084e+00   1.96791769e+00   3.73306140e-01
C     4.928615458800000e+00   1.536087505178226e+00   3.685954008000000e+00  2.40849560e+00   3.18363870e-01  -8.42412890e-01
C     8.667452621399999e+00   6.322933519649948e+00   1.330200645600000e+01 -2.79855183e+00   9.79972100e-01  -5.48293550e-01
C     6.200057738325000e+00   6.628946764037599e-01   1.327796342400000e+01 -1.95261769e+00  -1.97689232e+00   3.16116540e-01
C     6.241399005149999e+00   8.533624926090264e-01   3.685074632000000e+00 -2.00481962e+00  -1.53903531e+00  -2.43309200e-02
C     7.463873665274999e+00   1.543696083728799e+00   3.599590744000000e+00 -1.29051910e-01  -1.02551413e+00   7.66053300e-02
C     1.236279091500000e+00   2.066611487149810e+00   1.318334101600000e+01 -1.33211917e+00  -1.33416770e-01   6.13649020e-01
C     2.439256242525000e+00   2.777896095517943e+00   1.315929091200000e+01  7.30049120e-01   5.96541370e-01   1.34315760e-01
C     2.530763932200000e+00   3.039960056298766e+00   3.553339864000000e+00  3.96670000e-03  -3.18809569e+00   5.50518440e-01
C     3.813821871000000e+00   3.702827770776935e+00   3.694256400000000e+00 -3.59814793e+00  -9.37546200e-01  -1.04643183e+00
C     3.696153851175000e+00   2.127626837101966e+00   1.319558713600000e+01 -1.19966181e+00  -2.91742990e+00   5.54546660e-01
C     4.912524456450000e+00   2.783379741310569e+00   1.332499399200000e+01  7.94454540e-01  -1.20773325e+00  -1.40562270e-01
C     4.982119319100000e+00   2.986167364318539e+00   3.633370288000000e+00  1.95774420e-01  -2.45288046e+00   7.12912900e-01
C     6.212336729100000e+00   3.649415107458120e+00   3.659983040000000e+00  6.22652950e-01   3.52410760e-01  -3.38150420e-01
C     6.126929100975000e+00   2.056068733818099e+00   1.334985710400000e+01  2.04725922e+00   7.22483730e-01  -7.98947300e-02
C     7.407598269899999e+00   2.770792300571896e+00   1.332647802400000e+01 -1.34183662e+00  -1.43152749e+00  -4.07969200e-02
C     7.415477235674999e+00   2.923227278709137e+00   3.587453696000000e+00  1.30621683e+00   1.51875482e+00  -1.06309930e-01
C     8.630317149900000e+00   3.666726072624015e+00   3.558505280000000e+00  1.91291635e+00   9.17505570e-01   5.46958670e-01
C     9.813645970800000e+00   4.193086902731126e+00   1.316462347200000e+01  1.54042095e+00   5.73272820e-01   2.67796180e-01
C     3.697741409775000e+00   4.914229072882530e+00   1.317560071200000e+01 -2.63760230e-01  -1.58614995e+00   1.01513415e+00
C     3.762320798550000e+00   5.077210710948777e+00   3.701126984000000e+00  8.86057700e-02   1.97666395e+00   1.74227240e-01
C     4.950085769025000e+00   5.809394333991448e+00   3.682940792000000e+00  3.50079207e+00  -5.29354730e-01  -4.45570550e-01
C     4.949048953049999e+00   4.154203963474766e+00   1.332573628000000e+01 -1.49972966e+00   2.84303857e+00  -4.68684810e-01
C     6.157617870299999e+00   4.869462734057922e+00   1.335430172000000e+01 -4.79846950e-01   1.82750335e+00   2.24182150e-01
C     6.262129889324999e+00   5.054060407508713e+00   3.667438968000000e+00 -2.04946667e+00   2.24397535e+00  -2.43486660e-01
C     7.478172415425000e+00   5.830200358841860e+00   3.626040296000000e+00 -1.78562030e+00  -2.58662899e+00   2.71571390e-01
C     7.390722658050001e+00   4.144390334900415e+00   1.338727913600000e+01 -4.10649320e-01   2.65615070e+00  -7.60296770e-01
C     8.588870911050000e+00   4.885507833615208e+00   1.322510131200000e+01  1.13985494e+00   1.09820392e+00   9.86684260e-01
C     8.672455708649998e+00   5.105959168312003e+00   3.674331040000000e+00  1.30064168e+00  -2.26950080e-01  -5.28075320e-01
C     9.947522980200000e+00   5.798829550012700e+00   3.715439080000000e+00 -1.70296101e+00   6.50337310e-01  -3.62990430e-01
C     7.380085763999999e+00   6.768365536372441e-02   6.986050992000000e+00  3.60668267e+00  -1.13172214e+00  -5.63424110e-01
C     1.258641201750000e+00   8.252843048734285e-01   6.874538744000000e+00 -5.12906300e-02  -2.89377296e+00   3.18079310e-01
C     1.151486542500000e+00   6.221997804710688e-01   1.022358865600000e+01  2.44536098e+00  -1.57086508e+00   9.14733000e-02
C     2.453105968275000e+00   1.325603565287001e+00   1.018631649600000e+01 -3.50942034e+00  -1.88224380e-01  -1.15882770e-01
C     2.540519564100000e+00   6.728057137401601e-02   6.810088888000000e+00 -3.20703337e+00   4.05806300e-02   3.76477710e-01
C     3.756010016475000e+00   7.500800654621275e-01   6.771342896000000e+00 -4.75802900e-01   1.20854726e+00   3.76899500e-01
C     3.619920903750000e+00   5.836606217766324e-01   1.027662036000000e+01  2.64920870e-01   1.53506496e+00  -4.64595300e-01
C     4.842481900500000e+00   1.269913227660277e+00   1.023777590400000e+01  1.48541852e+00   1.72363746e+00   1.05470880e-01
C     4.972642108950000e+00   6.268410742273681e-02   6.899125096000001e+00  9.84904550e-01   2.76187100e-02   1.31066950e-01
C     6.214067233050000e+00   7.743581587113372e-01   6.993840664000000e+00 -2.19228284e+00   5.74503490e-01  -7.63623300e-01
C     6.082157848274999e+00   6.006883266173790e-01   1.028221213600000e+01  1.21135753e+00   3.20729240e-01  -3.00453300e-01
C     7.354655061524999e+00   1.311653298475720e+00   1.024983992000000e+01 -2.57169482e+00   5.39124310e-01  -5.77390640e-01
C     8.643173985974999e+00   2.208440886185734e+00   6.881968015999999e+00 -5.50536860e-01   1.30817387e+00  -6.99376900e-01
C     2.484558530175000e+00   2.891498920163654e+00   6.775902975999999e+00 -1.69118710e-01   5.87276170e-01   8.47412320e-01
C     2.392043160825000e+00   2.748182260324902e+00   1.011433196800000e+01  4.51163900e-02  -7.36152650e-01   5.17026220e-01
C     3.599835418200000e+00   3.464326291472046e+00   1.014451512800000e+01  2.02371829e+00  -1.26712500e+00   3.40406700e-02
C     3.700497711150000e+00   2.185233072510087e+00   6.756016784000000e+00  2.26640197e+00   4.48279320e-01   4.09683790e-01
C     4.994421123450000e+00   2.920912459705641e+00   6.836302071999999e+00 -3.12220753e+00  -3.94299560e-01   3.08082000e-03
C     4.898506198650000e+00   2.699397249693144e+00   1.020051204000000e+01 -2.60031869e+00   1.08201648e+00  -1.16302910e-01
C     6.118247112150000e+00   3.419010659450787e+00   1.024439094400000e+01 -1.67257378e+00   1.16972861e+00  -3.83272090e-01
C     6.180084656775000e+00   2.194433365309185e+00   6.890928103999999e+00  1.42652573e+00   1.41098534e+00   2.07892430e-01
C     7.402510214100000e+00   2.982646815687739e+00   6.867835712000001e+00  6.16040740e-01  -3.43853551e+00   3.49233420e-01
C     7.303141010849999e+00   2.734410736350493e+00   1.018541672000000e+01  2.34949861e+00  -7.52846280e-01   6.17211200e-01
C     8.541322281225000e+00   3.435818698246935e+00   1.020010159200000e+01  6.79609240e-01   1.34510514e+00  -2.95920340e-01
C     9.874676831850000e+00   4.322966404898342e+00   6.909101648000000e+00  1.15763847e+00  -9.76152850e-01  -5.91045500e-01
C     3.717880546050000e+00   4.995021539617309e+00   6.917544528000000e+00 -1.77728942e+00   3.40075428e+00   4.30477740e-01
C     3.585904199550000e+00   4.866248437037989e+00   1.017711813600000e+01  1.92662148e+00   3.48765190e-01   3.92289190e-01
C     4.827010636124999e+00   5.563248220164235e+00   1.025575524000000e+01  1.41396280e+00   6.99747490e-01  -5.60288970e-01
C     4.926454824675000e+00   4.367606707928264e+00   6.893339384000000e+00  1.72435650e+00  -2.79996226e+00  -3.11783740e-01
C     6.140029343475000e+00   5.044561099910132e+00   6.872913136000000e+00  2.83380817e+00   1.46486782e+00  -2.38239820e-01
C     6.106385901900000e+00   4.857166046626094e+00   1.026835686400000e+01 -1.32344410e+00   6.82333700e-01   1.10175780e-01
C     7.304037950399999e+00   5.626397084579872e+00   1.033258531200000e+01  1.47487062e+00  -3.85657077e+00  -4.96390120e-01
C     7.427987505075000e+00   4.355485112906328e+00   6.849509576000000e+00 -1.00216584e+00   1.16781864e+00   2.61626820e-01
C     8.694643666649998e+00   5.056387394602144e+00   6.899082392000000e+00 -2.11719127e+00  -2.82153200e-02  -4.91783700e-02
C     8.605911542325000e+00   4.886391172901839e+00   1.029740061600000e+01 -3.43858387e+00  -6.10349310e-01  -4.45202310e-01
C     9.794681715150000e+00   5.601861988462741e+00   1.025546420000000e+01 -1.96342210e-01  -4.11079490e-01  -1.46888080e-01
