72
Lattice="7.395 0 0 3.6975 6.40425786098592 0 0 0 13.6 " PBC="1 1 1" Properties=species:S:1:pos:R:3:force:R:3 Energy="-568.34227035"
C     1.096630587795000e+01   6.277320217723355e+00   1.351101492800000e+01  2.95354208e+00   1.95761491e+00  -1.93281548e+00
C     1.275691002825000e+00   5.189924112262890e-01   1.344772039200000e+01 -3.91330029e+00   2.27685093e+00   1.48133370e-01
C     1.283909620950000e+00   8.774918149481484e-01   3.734322000000000e+00 -2.46969850e-01   6.78203800e-02  -2.65932000e-03
C     2.567087543625000e+00   1.505604966914248e+00   3.824890656000000e+00 -2.11781690e-01   8.43181140e-01  -6.65823780e-01
C     6.232935316724999e+00   6.230229645636197e+00   1.333032913600000e+01 -5.24533380e+00   3.44007957e+00   8.95206600e-01
C     3.682414163025000e+00   5.157633844132770e-01   1.347922030400000e+01 -1.28784411e+00   3.09078993e+00  -3.57353230e-01
C     3.866795250975000e+00   9.109379875794199e-01   3.674299624000000e+00 -2.80071000e-01   5.56049000e-03   5.87012600e-02
C     5.148724306049999e+00   1.638474937289190e+00   3.623584544000000e+00 -5.44734283e+00   8.67324960e-01  -1.41518934e+00
C     8.551401629250000e+00   6.355339064421548e+00   1.335626270400000e+01  3.09136105e+00  -5.10122022e+00  -5.92157420e-01
C     6.002695578299999e+00   6.136493277170256e-01   1.323173498400000e+01  6.94859062e+00   2.12519175e+00   1.04053334e+00
C     6.261480386474999e+00   8.516377619247498e-01   3.504958680000000e+00  1.87667000e-02   4.24742542e+00   4.40813800e-01
C     7.421407914750000e+00   1.549163975047088e+00   3.721432192000000e+00  4.57980085e+00   4.43780844e+00   2.65306600e-01
C     1.225681427925000e+00   1.997082188713412e+00   1.348831136000000e+01 -1.19120907e+00  -5.36248800e-02  -5.34194600e-01
C     2.434556683050000e+00   2.691380399703996e+00   1.280408720000000e-01  1.96583613e+00  -4.63119640e-01  -1.39693204e+00
C     2.514973832400000e+00   2.886142591017286e+00   3.800394336000000e+00  4.76834304e+00   1.39394404e+00  -3.98117760e-01
C     3.728259206700000e+00   3.632878801322972e+00   3.596211824000000e+00  9.73209410e-01   3.27432394e+00  -1.31943533e+00
C     3.691162928700000e+00   1.878852479891587e+00   1.353829734400000e+01 -3.31347080e-01   6.45127243e+00  -5.62369500e-02
C     4.901593426274999e+00   2.740008890273655e+00   1.317489079200000e+01 -9.64508780e-01  -4.42241870e-01   1.05967875e+00
C     5.030184970350000e+00   3.078164144221967e+00   3.399749624000000e+00  3.99119060e-01  -1.93839931e+00   2.86786941e+00
C     6.230014143824999e+00   3.835904470595598e+00   3.566746744000000e+00  2.75494211e+00  -1.22181643e+00   6.02268710e-01
C     6.145238936100000e+00   2.033759949860839e+00   1.303014340800000e+01 -6.72870680e-01   7.78465170e-01   1.31849426e+00
C     7.390455402750000e+00   2.792187645230584e+00   1.313083916800000e+01  1.10825420e+00  -2.36000003e+00   1.39436630e+00
C     7.576288646849999e+00   3.143854922624817e+00   3.868921472000000e+00 -6.03504002e+00  -4.68884049e+00  -2.06147215e+00
C     8.832210559199998e+00   3.690095209555154e+00   3.845302760000000e+00 -4.00207310e+00   2.52898572e+00  -6.09546880e-01
C     2.520653266350000e+00   4.125142594072500e+00   1.155873520000000e-01 -3.81336103e+00   3.29813840e-01  -1.96897871e+00
C     3.668217463875000e+00   4.882704241651837e+00   1.355117110400000e+01  1.31982211e+00  -7.87422660e-01  -3.01524770e-01
C     3.711155015400000e+00   5.179532307288940e+00   3.450827959999999e+00  6.99051190e-01  -1.72019559e+00   8.82454030e-01
C     4.948651286924999e+00   5.903561004543002e+00   3.608688872000000e+00  1.11265200e-01  -2.14748381e+00  -9.14366410e-01
C     4.876534063725000e+00   4.208692349986324e+00   1.319538504000000e+01  1.40722030e+00  -6.09210170e-01   1.18412820e-01
C     6.146268061274999e+00   4.980571036224585e+00   1.296122200800000e+01  6.04840130e-01  -7.57616630e+00   1.70023537e+00
C     6.210668491049999e+00   5.224268097803555e+00   3.608142832000000e+00  3.94731910e-01   6.24482480e-01  -1.10294750e-01
C     7.484905636875000e+00   5.913197363259787e+00   3.600293592000000e+00  1.07240410e+00  -2.88385684e+00   6.77457730e-01
C     7.450247971050000e+00   4.219322841650717e+00   1.315730721600000e+01 -1.41973837e+00  -4.54349200e-01  -1.10068301e+00
C     8.678825280975000e+00   4.925824365993532e+00   1.332749054400000e+01 -5.34312040e-01  -2.62212134e+00   1.96964812e+00
C     8.736953419650000e+00   5.091656795403579e+00   3.606374288000000e+00 -5.61280180e-01   3.67441284e+00  -6.20325520e-01
C     9.885984230549999e+00   5.943322159679705e+00   3.388091296000000e+00  1.06166852e+00  -7.40909881e+00   1.18053107e+00
C     7.427998375724999e+00   1.483413765131298e-01   6.555986488000000e+00  2.97355710e-01  -1.57862642e+00   8.72435880e-01
C     1.290680150175000e+00   7.745485572975150e-01   6.823731184000001e+00 -1.58035808e+00   1.45108636e+00   3.74785680e-01
C     1.104035526675000e+00   5.291076803458445e-01   1.004254246400000e+01  2.16129199e+00   1.83862825e+00   1.13054847e+00
C     2.290287258300000e+00   1.237428398176371e+00   1.021720712800000e+01  3.84336249e+00   1.38385812e+00  -1.09158545e+00
C     2.460712058550000e+00   1.526366482172532e-01   7.138092464000000e+00  1.78003259e+00  -4.56757300e+00  -9.88927950e-01
C     3.641421644400000e+00   9.098885218439016e-01   7.325075055999999e+00  1.25750554e+00  -2.72259349e+00  -2.42419113e+00
C     3.635270816175000e+00   5.198243243223031e-01   9.932973248000000e+00 -2.71020544e+00   2.56327388e+00   9.45419490e-01
C     4.841696440574999e+00   1.331762283900649e+00   9.954706320000000e+00  3.98657950e-01  -2.85639132e+00   9.34212120e-01
C     4.763078790524999e+00   1.555222146812334e-01   6.808560111999999e+00  4.00056489e+00  -6.77572050e-01   8.25854930e-01
C     6.135622441124999e+00   8.319445409200927e-01   6.600238168000000e+00 -1.75168236e+00  -3.11780231e+00   1.33867375e+00
C     6.040387227750000e+00   5.318973110270820e-01   9.932012543999999e+00  4.49639600e-01  -1.14859952e+00   5.67100000e-01
C     7.299501857399999e+00   1.205016705317225e+00   1.012285930400000e+01 -3.46408386e+00   2.05663102e+00  -9.37284680e-01
C     1.314605415525000e+00   2.165484967015570e+00   6.957192064000001e+00 -2.85984810e-01   3.46730076e+00   1.61663860e-01
C     2.560907800950000e+00   3.039627931486146e+00   7.125307104000000e+00 -3.66458290e+00  -5.56150870e-01  -1.21620900e-02
C     2.323076022750000e+00   2.734636294312323e+00   1.035000351200000e+01  2.50049489e+00  -4.55928449e+00  -3.41592460e-01
C     3.580294685325000e+00   3.368333574876871e+00   1.036045511200000e+01  1.26590909e+00   2.25424894e+00  -8.99963210e-01
C     3.692938911900000e+00   2.292069030215765e+00   7.412123623999999e+00  2.60983434e+00   2.46639929e+00  -2.78476836e+00
C     4.980689347949999e+00   2.967840940026363e+00   7.101620120000000e+00 -1.16375018e+00  -2.43331825e+00   6.37991800e-02
C     4.844508980924999e+00   2.733855807406925e+00   1.019350260000000e+01 -2.86060275e+00  -2.19134352e+00   1.71755030e-01
C     5.995086493049999e+00   3.448406843453972e+00   1.014740540000000e+01  4.32250770e+00  -1.62197606e+00  -1.15034031e+00
C     6.142713839400000e+00   2.160667235955228e+00   6.862879191999999e+00  1.78088458e+00   3.35052927e+00   7.32890370e-01
C     7.445721380625000e+00   2.832438982263891e+00   6.934312104000000e+00  1.84459690e-01   8.61456510e-01  -1.96592160e-01
C     7.240266687225000e+00   2.662905852449443e+00   1.011788401600000e+01  1.47944485e+00  -1.59245470e-01   4.08105270e-01
C     8.556253414799999e+00   3.374056739913460e+00   1.016321662400000e+01 -5.39701898e+00   4.52965230e-01  -1.22582176e+00
C     9.890577671774999e+00   4.491984440253110e+00   6.905160776000000e+00  1.97303810e+00  -1.99158672e+00  -8.45647550e-01
C     3.839611157025000e+00   5.132846228128218e+00   6.694351256000000e+00 -3.42968807e+00  -7.40458380e-01   1.08465412e+00
C     3.660141125550000e+00   4.804145451973468e+00   1.023495948000000e+01 -1.53268555e+00   2.81292000e-02  -9.42249750e-01
C     4.955139290175000e+00   5.587376773992414e+00   1.008095960800000e+01 -5.27565352e+00  -4.00839993e+00  -7.72244400e-02
C     5.051164067699999e+00   4.336793069532924e+00   6.882569408000000e+00 -1.26094401e+00   2.23063429e+00   2.56980310e-01
C     6.292928215574999e+00   5.014027519711010e+00   6.984000656000000e+00 -2.04951036e+00   2.57864437e+00  -4.05500000e-02
C     6.082506300675000e+00   4.823549264565432e+00   9.917121767999999e+00  3.22184190e-01   1.28697636e+00   9.58795590e-01
C     7.280343298125000e+00   5.530802584738431e+00   9.722614975999999e+00  2.20959397e+00  -1.20822524e+00   1.47716210e+00
C     7.479534574425000e+00   4.270222538227847e+00   7.016391231999999e+00 -1.58223228e+00  -1.91986700e-02  -5.96459340e-01
C     8.578492620150000e+00   5.081498873926676e+00   6.824249208000000e+00  2.48394420e+00   2.02082665e+00   5.06205800e-01
C     8.504200305600000e+00   4.728771435686298e+00   9.811568767999999e+00  7.42151220e-01   1.70556406e+00   1.43627772e+00
C     9.734572677825000e+00   5.396051747872586e+00   9.967964552000000e+00  1.83528552e+00   4.16338605e+00   1.08159760e-01
