72
Lattice="7.395 0 0 3.6975 6.40425786098592 0 0 0 13.6 " PBC="1 1 1" Properties=species:S:1:pos:R:3:force:R:3 Energy="-573.20553666"
C     3.662852724150000e+00   6.274591363449209e+00   1.316769503200000e+01 -4.65194120e-01   2.30414805e+00  -3.82110980e-01
C     1.126475876025000e+00   6.635174264380662e-01   1.307304556000000e+01  2.25076996e+00  -3.01942170e+00   2.70170880e-01
C     1.292680497675000e+00   8.081117357198886e-01   3.541639376000000e+00  5.82550300e-02   5.19130190e-01   4.50908360e-01
C     2.553426353400000e+00   1.557928201928499e+00   3.480424552000000e+00 -2.77731140e-01  -1.88206263e+00   7.48178310e-01
C     6.025525866000000e+00   6.294104496722843e+00   1.313969752800000e+01  4.36940722e+00   1.10462997e+00   1.51214616e+00
C     3.666479786775000e+00   6.844091402586439e-01   1.324480839200000e+01 -3.01925610e-01  -3.36761442e+00  -1.99903509e+00
C     3.791584144649999e+00   8.214642931450956e-01   3.685197032000000e+00 -5.13342190e-01   1.60330287e+00  -3.67396500e-01
C     4.974180121050000e+00   1.614661601032881e+00   3.845472216000000e+00  1.88694762e+00  -1.66221567e+00  -2.06186418e+00
C     8.670776821799999e+00   6.365493143343735e+00   1.316183669600000e+01 -2.80835726e+00  -1.51854474e+00   7.77793400e-01
C     6.183413922750000e+00   6.720079993811184e-01   1.322395741600000e+01 -1.44524444e+00   1.61509220e-01   2.35973650e-01
C     6.238733736224999e+00   8.679129024243678e-01   3.813703704000000e+00 -5.55985130e-01   1.47608461e+00  -8.83728500e-01
C     7.480355567325000e+00   1.570352141964005e+00   3.573815072000000e+00 -7.89037990e-01  -3.29146210e-01   8.69481920e-01
C     8.568458862300000e+00   2.062840916292156e+00   1.300980052800000e+01  1.60118790e+00  -1.23487907e+00   9.75017110e-01
C     2.407728103725000e+00   2.756420057210220e+00   1.293261454400000e+01  1.90649003e+00  -1.29453447e+00  -1.72659860e-01
C     2.556439778925000e+00   2.962365235513484e+00   3.539111000000000e+00 -7.10106380e-01   2.60235480e-01   8.47252810e-01
C     3.791754858225000e+00   3.667057492968270e+00   3.839517592000000e+00 -1.98953090e+00   8.73319060e-01  -2.24788925e+00
C     3.688397642400000e+00   2.045415186825411e+00   1.294937083200000e+01  1.44005390e-01   1.19721628e+00   3.73513473e+00
C     4.908313484624999e+00   2.789100344644014e+00   1.340143605600000e+01 -5.27372380e-01  -2.07118320e-01  -2.63572398e+00
C     5.039501672025000e+00   3.040237424706682e+00   3.653020248000000e+00 -1.35145111e+00  -1.61638373e+00   2.07371537e+00
C     6.242407609199999e+00   3.755966459944499e+00   3.692855600000000e+00  3.90481350e-01  -5.75741790e-01   8.92161900e-02
C     6.191687042024999e+00   2.183283808545240e+00   1.340582178400000e+01 -3.37066466e+00  -6.19084863e+00  -9.49530200e-02
C     7.425275093025000e+00   2.704352416127162e+00   1.339636896800000e+01  6.08626850e-01   4.18864120e+00   3.10882400e-02
C     7.458133999049998e+00   3.023443731448140e+00   3.597121120000000e+00 -1.55831880e+00  -2.34663932e+00  -5.51822620e-01
C     8.646364817549999e+00   3.660035288267358e+00   3.535070032000000e+00  4.53322406e+00   1.31722589e+00   1.13051305e+00
C     2.479779363525000e+00   4.135225393604705e+00   1.292906412800000e+01 -8.33428000e-01   1.40474420e+00   1.15385784e+00
C     3.700075493625000e+00   4.871877331398878e+00   1.307451612800000e+01 -1.32055505e+00   4.35692740e-01   1.64851720e-01
C     3.739550743125000e+00   5.090515748780663e+00   3.872710976000000e+00 -2.75485300e-01   5.46612400e-01  -6.31272830e-01
C     4.962606576300000e+00   5.753616770372671e+00   3.797711736000000e+00  4.07842740e-01   4.22035903e+00  -8.36880010e-01
C     4.900110396000001e+00   4.207752012804741e+00   1.327361849600000e+01  9.02191340e-01  -1.64731546e+00   8.68978440e-01
C     6.131044381500001e+00   4.866367428149027e+00   1.338752801600000e+01  1.53707239e+00   1.37428876e+00  -1.61285000e-02
C     6.224515480649999e+00   5.178109153107290e+00   3.791865776000000e+00 -7.77968800e-02  -3.14941839e+00  -1.21404797e+00
C     7.458308853824999e+00   5.792447771097788e+00   3.647517415999999e+00  1.54171982e+00   1.66404966e+00   1.46938237e+00
C     7.489925288924999e+00   4.108275123763411e+00   1.352115155200000e+01 -2.66755137e+00   3.14470534e+00  -2.58711701e+00
C     8.627555339250000e+00   4.817846721239152e+00   1.304608995200000e+01  5.61894930e-01   3.14371660e+00   2.55401921e+00
C     8.691182215049999e+00   5.053301695080039e+00   3.761777952000000e+00 -3.18766300e-02   2.74074450e+00  -1.59391140e+00
C     9.924424438874999e+00   5.883912101002736e+00   3.765647560000000e+00 -6.37354760e-01  -3.72860549e+00   9.46974300e-01
C     7.422376955550000e+00   4.982230827734160e-02   7.203092304000000e+00 -6.56508280e-01   3.14720783e+00  -7.91190740e-01
C     1.288115268375000e+00   7.554175020478087e-01   6.928681975999999e+00 -2.41491473e+00   2.03800318e+00   3.37344450e-01
C     1.213113144750000e+00   5.799735624414732e-01   1.017092428800000e+01 -4.34859079e+00   6.55764220e-01   7.18640900e-01
C     2.363802395325000e+00   1.305178849949575e+00   1.017812154400000e+01  2.95903445e+00   8.56325590e-01   4.87044630e-01
C     2.460371814600000e+00   6.338755110607920e-02   6.732495040000000e+00  2.43044793e+00  -3.33510870e-01   6.21897010e-01
C     3.687637029674999e+00   8.361516259934838e-01   6.665621664000000e+00  3.08709690e-01  -8.47961810e-01   4.07812660e-01
C     3.638170617525000e+00   6.221743555673647e-01   1.050377898400000e+01 -9.53402160e-01  -9.93079390e-01  -3.37259409e+00
C     4.866997841474999e+00   1.270786320134331e+00   1.020760022400000e+01 -8.21938440e-01   1.04257659e+00   1.99980163e+00
C     4.925385470699999e+00   6.144898225185720e-02   6.856826919999999e+00 -9.39476720e-01   1.87613250e+00   8.85732220e-01
C     6.096919451474999e+00   7.615808317271154e-01   7.163306864000000e+00  3.33000627e+00   4.44286490e-01  -1.60073350e+00
C     6.071329423725000e+00   5.823311618874750e-01   1.038519582400000e+01 -3.54470800e-01  -1.85449083e+00  -1.23909437e+00
C     7.248084496350000e+00   1.277261729299156e+00   1.021725785600000e+01  3.75452616e+00  -2.15277960e+00  -6.56075920e-01
C     8.657877316575000e+00   2.244034214349728e+00   6.868098056000000e+00  1.61863919e+00  -1.95001363e+00  -8.43773340e-01
C     2.493705997275000e+00   3.033819461734862e+00   6.604607984000000e+00 -3.80661420e-01  -3.02344500e+00   2.64607185e+00
C     2.352190840275000e+00   2.769108941393394e+00   1.002206861600000e+01  1.28572238e+00  -2.37694233e+00   4.89694880e-01
C     3.617918707499999e+00   3.439540916957746e+00   9.973330704000000e+00 -5.76131700e-02  -5.97115800e-01   1.55041600e+00
C     3.707900882624999e+00   2.279688511048549e+00   6.633510432000000e+00  7.29642370e-01  -6.80723770e-01   2.80785320e-01
C     4.988644667099999e+00   2.978191117324223e+00   6.754291896000000e+00 -7.40532420e-01  -4.61269016e+00   4.28691270e-01
C     4.878304241850000e+00   2.693005928434021e+00   1.016106524000000e+01 -2.30066095e+00   8.22718560e-01  -1.12897232e+00
C     6.065122578374999e+00   3.395930930932340e+00   1.025137780800000e+01  1.12749642e+00   1.48665110e+00  -5.71178650e-01
C     6.197494335525000e+00   2.161348456863796e+00   6.949854047999999e+00 -1.39132223e+00   1.07499527e+00   2.48996780e-01
C     7.424155268174999e+00   2.853920656318532e+00   6.964217280000001e+00 -4.98250100e-02   2.96821432e+00  -5.55153940e-01
C     7.267494189824999e+00   2.618550218681397e+00   1.013052684800000e+01  1.03668424e+00   4.86311806e+00   1.36298672e+00
C     8.526515198775000e+00   3.400546991912671e+00   1.019230797600000e+01 -1.03503307e+00   7.13007950e-01  -9.09844960e-01
C     2.530833630075000e+00   4.373263973151474e+00   7.001920288000000e+00 -1.85600587e+00   9.90481370e-01  -1.29853656e+00
C     3.707102888175000e+00   5.103828279594245e+00   7.110304400000000e+00  3.15859240e+00  -3.46699279e+00  -1.42734189e+00
C     3.566188611900000e+00   4.842604173189183e+00   1.013042253600000e+01  2.89355732e+00   8.59779740e-01   5.70355680e-01
C     4.843006797600000e+00   5.603229297515851e+00   1.026677831200000e+01  8.36977970e-01  -2.67302399e+00  -7.60035820e-01
C     5.005754034900000e+00   4.309039065330199e+00   6.843969344000000e+00 -1.06101787e+00   4.44452095e+00   1.17595538e+00
C     6.259357503825000e+00   5.011118449620684e+00   6.836818327999999e+00 -3.05005601e+00   2.36657011e+00  -2.72244260e-01
C     6.091839049499999e+00   4.872188770458609e+00   1.033099302400000e+01  4.55169070e-01  -5.80079060e-01   1.25228320e-01
C     7.390489086975000e+00   5.576324049607311e+00   1.048855772800000e+01 -3.88400239e+00   3.39705980e-01  -7.62416060e-01
C     7.445998767075000e+00   4.362734476633533e+00   6.852860479999999e+00  1.45796310e+00  -3.12595338e+00   4.09670440e-01
C     8.674028514225000e+00   5.079690631719904e+00   6.921973640000000e+00 -6.37063090e-01  -1.30899664e+00   8.15056800e-02
C     8.569915714275000e+00   4.841434947831682e+00   1.037471280800000e+01 -8.87777170e-01  -1.32134460e+00  -5.85792780e-01
C     9.773330427449999e+00   5.536047992138664e+00   1.034992816800000e+01  2.58977790e-01   9.23775420e-01  -7.11754160e-01
