72
Lattice="7.395 0 0 3.6975 6.40425786098592 0 0 0 13.6 " PBC="1 1 1" Properties=species:S:1:pos:R:3:force:R:3 Energy="-577.98209928"
C     7.405237748925000e+00   3.303745289464620e-02   1.356440880000000e+01  8.21966600e-01  -2.35465752e+00   5.05576000e-02
C     1.292126205450000e+00   6.798615407948364e-01   1.359482696800000e+01 -2.11515792e+00   1.40524760e+00  -4.38378550e-01
C     1.189280427825000e+00   7.747591292959518e-01   3.428297792000000e+00  4.85399330e+00  -3.33085344e+00  -4.70963630e-01
C     2.462837085750000e+00   1.457588595310848e+00   3.420194095999999e+00  4.01582670e-01  -1.65557825e+00  -2.68544060e-01
C     6.188830538400000e+00   6.378518251064560e+00   1.357938457600000e+01  3.37571050e-01   2.12033433e+00   1.24955690e-01
C     3.743130292875000e+00   7.531831845656118e-01   1.356873890400000e+01 -2.96978790e+00  -3.46717233e+00  -3.50242780e-01
C     3.715271146350000e+00   7.312855539629640e-01   3.400619208000000e+00 -3.75245640e+00  -1.82586246e+00   6.41846100e-02
C     4.878903088950000e+00   1.387283805290183e+00   3.420537224000000e+00  3.69434592e+00   1.85799379e+00  -1.55594060e-01
C     8.587946831850001e+00   6.390042713083631e+00   1.358628412800000e+01  1.87018515e+00   7.63864500e-02  -1.02344020e-01
C     6.129695052825000e+00   5.995929423530046e-01   1.868504000000000e-03  1.09661592e+00   5.09852819e+00  -2.32365950e-01
C     6.157673332800000e+00   6.847910261548357e-01   3.422165960000000e+00  7.33802700e-01   2.07528440e-01  -2.41211500e-01
C     7.443661170599999e+00   1.449989559104487e+00   3.389612592000000e+00 -4.98636163e+00  -2.51955565e+00   2.36523580e-01
C     1.265537372025000e+00   2.097882773811825e+00   1.356036769600000e+01 -9.65649940e-01   2.21897496e+00   5.46171440e-01
C     2.498328722700000e+00   2.830507265965579e+00   1.359044477600000e+01 -2.34431838e+00   1.60193686e+00  -9.47799630e-01
C     2.507589740025000e+00   2.825423502033733e+00   3.382942064000000e+00 -3.27737475e+00   4.24023985e+00   2.46382520e-01
C     3.667505621175000e+00   3.637214804107084e+00   3.449129184000000e+00  2.47785467e+00  -4.88372365e+00  -6.46247690e-01
C     3.707540672175000e+00   2.105903978696318e+00   1.348520308000000e+01 -6.20799700e-02   2.28060066e+00   1.57521629e+00
C     4.927854772124999e+00   2.776185646328695e+00   4.950005600000000e-02 -5.79571170e-01   3.75785575e+00  -1.05949643e+00
C     4.867925174474999e+00   2.813177920579627e+00   3.410026464000000e+00  2.61862535e+00   2.02620845e+00   6.65800610e-01
C     6.217429037024999e+00   3.484510142671358e+00   3.445183552000000e+00 -4.70628430e+00   2.40821407e+00  -4.66613550e-01
C     6.108934255874999e+00   2.105627827097395e+00   8.959135999999999e-03  3.22755807e+00  -1.16004644e+00   2.78935430e-01
C     7.368978880724999e+00   2.884877301791886e+00   1.359321604800000e+01  9.90735600e-01  -1.61913842e+00   1.00792740e-01
C     7.404474215175000e+00   2.800755197353113e+00   3.389989040000000e+00  1.56817202e+00   3.61137740e+00  -1.09725170e-01
C     8.596216179675000e+00   3.604452414087525e+00   3.352899392000000e+00  1.60923616e+00  -1.89506227e+00   9.51726200e-01
C     9.781218747899999e+00   4.322943605740360e+00   1.355994677600000e+01  5.19880665e+00  -2.91837867e+00  -6.17849400e-02
C     3.718633098224999e+00   5.017658221577001e+00   1.353004772000000e+01 -1.53029808e+00  -1.24746624e+00   6.52278130e-01
C     3.726366197625000e+00   4.999762803838803e+00   3.416901536000000e+00 -7.32641800e-02   7.31070360e-01  -2.67859000e-02
C     4.950518376524999e+00   5.711855693591448e+00   3.387589456000000e+00 -1.51971210e-01   3.00078340e-01   5.09133910e-01
C     4.946308698825000e+00   4.274198941933121e+00   1.874773600000000e-02 -1.36923349e+00  -1.36761450e+00  -1.73537130e-01
C     6.147572909025000e+00   4.995582616648425e+00   1.647218400000000e-02  9.39827030e-01  -6.99173720e-01   6.03235800e-02
C     6.177057772350000e+00   4.966567165775015e+00   3.418290504000000e+00  6.00598200e-01  -3.55723580e-01  -2.38910740e-01
C     7.419089027625000e+00   5.716802342362512e+00   3.384382576000000e+00 -2.28437671e+00   2.91695800e-01   6.93377240e-01
C     7.403269236900000e+00   4.347889214786317e+00   1.392748800000000e-02 -2.28136210e+00  -4.73555949e+00  -2.24255870e-01
C     8.599308251025001e+00   4.990738179832806e+00   1.355881906400000e+01 -2.38131920e-01   1.01474163e+00   3.88405300e-01
C     8.609395548675000e+00   5.045780470606676e+00   3.474323864000000e+00  1.23865103e+00  -3.80794775e+00  -1.22007398e+00
C     9.880683864300000e+00   5.632001834888630e+00   3.420443112000000e+00 -5.30064180e-01   4.60820509e+00   3.61206840e-01
C     3.712356259200000e+00   6.392248723746086e+00   6.834359176000000e+00 -7.72188970e-01   1.55262427e+00   4.54677530e-01
C     1.257591518475000e+00   7.409771814250806e-01   6.827968128000000e+00 -1.85470599e+00  -6.71521900e-01  -1.46558790e-01
C     1.305890740800000e+00   6.966816836383405e-01   1.019744741600000e+01 -6.66918233e+00  -1.25676539e+00   1.72986850e-01
C     2.440643507550000e+00   1.364292135317311e+00   1.017177904800000e+01  2.30442070e+00   3.76236838e+00   4.21584540e-01
C     2.456238970950000e+00   3.600460960376280e-02   6.756104640000000e+00  1.15329929e+00  -8.89470800e-01   4.50798410e-01
C     3.720300374925000e+00   6.682620849162259e-01   6.740443832000000e+00  5.14910340e-01   1.58785098e+00   1.48686530e-01
C     3.632552525100000e+00   6.924156793926373e-01   1.026725349600000e+01  4.21169250e+00  -1.06202510e-01  -1.02001155e+00
C     4.945544869275000e+00   1.408438541981071e+00   1.018017079200000e+01 -2.10022440e+00   5.38287730e-01   1.13312904e+00
C     5.011509082725000e+00   5.015494543059000e-03   6.804117944000000e+00 -3.64869516e+00  -2.29339710e-01   2.02381090e-01
C     6.168264821549999e+00   7.374852598269157e-01   6.887353344000000e+00  2.81671867e+00   7.75371380e-01  -1.08334814e+00
C     6.187114380749999e+00   7.244531074224445e-01   1.024044028000000e+01 -9.32170830e-01  -4.63594050e-01  -6.82075860e-01
C     7.359157211474999e+00   1.510552768451727e+00   1.020405674400000e+01  3.22673872e+00  -5.38032723e+00  -1.47363580e-01
C     8.610175388400000e+00   2.158354274186510e+00   6.846877568000000e+00  8.32240160e-01  -2.10777302e+00  -6.84563410e-01
C     2.447478558150000e+00   2.780093460432288e+00   6.749151503999999e+00  1.62812522e+00   2.39281435e+00   7.84575010e-01
C     2.467340899575000e+00   2.810888014139205e+00   1.017933956000000e+01 -3.08995700e-02   1.83476932e+00  -2.29157600e-02
C     3.702504862050000e+00   3.606262961827126e+00   1.016599252000000e+01 -1.28946604e+00  -4.16678715e+00   2.50995620e-01
C     3.698270780850000e+00   2.100330673293653e+00   6.740715424000000e+00 -4.01602310e-01  -4.33842940e-01   1.02180840e-01
C     4.895819336324999e+00   2.859461235963532e+00   6.789873440000000e+00  2.47014671e+00  -8.29273010e-01  -2.27288040e-01
C     4.915604658825000e+00   2.871656223780544e+00   1.021488016800000e+01  1.50272541e+00  -1.68718516e+00  -6.84102650e-01
C     6.177003197249999e+00   3.532208734999745e+00   1.018308500000000e+01 -1.36462233e+00   1.31906562e+00   6.29351600e-02
C     6.213924583500000e+00   2.201113198384901e+00   6.780257832000000e+00 -4.39201794e+00  -3.76980288e+00   7.38206910e-01
C     7.397999855699999e+00   2.814518651962618e+00   6.796612240000000e+00  3.24637920e-01   5.06602377e+00   7.10790200e-02
C     7.412584089825000e+00   2.852969367856008e+00   1.015501827200000e+01 -8.63612290e-01   1.66388200e+00   5.84767320e-01
C     8.638714098449999e+00   3.551019961611923e+00   1.022066764800000e+01  7.22231680e-01   5.05211420e-01  -4.49665960e-01
C     2.497133136075000e+00   4.219654646250444e+00   6.831573080000000e+00 -3.40514882e+00   9.89349340e-01  -5.02104860e-01
C     3.646285409850000e+00   4.982428078876248e+00   6.818171504000000e+00  3.40131342e+00  -1.11992835e+00   1.67117080e-01
C     3.677492457750000e+00   4.963139350798029e+00   1.015533392800000e+01  1.69425159e+00   1.39793027e+00   4.85361970e-01
C     4.946576656650000e+00   5.647396902273126e+00   1.022384991200000e+01 -2.07497920e+00   2.49133765e+00  -5.21642110e-01
C     4.946430716325000e+00   4.237939442866530e+00   6.823640200000001e+00 -2.48077646e+00   2.67160407e+00  -1.70311000e-01
C     6.141580814475000e+00   5.020864833487503e+00   6.817490280000000e+00 -7.67585840e-01  -1.20009366e+00  -4.81175760e-01
C     6.119781537674999e+00   4.969430701591957e+00   1.020619738400000e+01  2.68306818e+00  -1.39752949e+00   1.83031190e-01
C     7.354024157100000e+00   5.701174224034490e+00   1.024419932000000e+01  5.10946130e-01  -7.97449290e-01   2.08074750e-01
C     7.329839142374999e+00   4.316021563632379e+00   6.773998704000000e+00  3.34249626e+00  -1.23830721e+00   4.34331240e-01
C     8.612952617625000e+00   5.013048692939688e+00   6.824075128000000e+00  1.22286701e+00  -2.56538460e+00  -2.34209120e-01
C     8.608123423799999e+00   4.996318529919117e+00   1.025806288800000e+01  1.11587101e+00  -6.77538130e-01  -5.40015000e-01
C     9.890365842000000e+00   5.657670612732138e+00   1.019474985600000e+01 -2.60856733e+00   2.40595104e+00   4.92949690e-01
