72
Lattice="7.395 0 0 3.6975 6.40425786098592 0 0 0 13.6 " PBC="1 1 1" Properties=species:S:1:pos:R:3:force:R:3 Energy="-583.48406469"
C     3.671087278500000e+00   6.305096124487961e+00   1.353490128800000e+01  4.76294600e-01  -1.11233030e+00  -9.93582600e-02
C     1.195566473625000e+00   6.083086249598358e-01   1.354180872800000e+01  7.91530530e-01  -9.26694610e-01   2.39444000e-03
C     1.296199852125000e+00   8.544482064440322e-01   3.466869704000000e+00  2.03230080e-01   1.11710000e-02  -6.58620000e-02
C     2.539763869050000e+00   1.547839062181012e+00   3.489098224000000e+00 -4.84905590e-01   1.05606741e+00  -2.18881890e-01
C     6.130260770325000e+00   6.278654672933643e+00   1.353891709600000e+01  5.68874390e-01   6.97899410e-01  -1.00900130e-01
C     3.678495219749999e+00   5.990841240660276e-01   1.351374036800000e+01 -1.48975660e-01  -1.28738630e-01   1.67186770e-01
C     3.762044040675000e+00   8.444223407642022e-01   3.486412632000000e+00  6.57799130e-01   1.04696565e+00   5.76016600e-02
C     5.001663897374999e+00   1.581809871616174e+00   3.495576992000000e+00  3.03973300e-02  -6.42553200e-01  -2.91760420e-01
C     8.614459496774998e+00   6.278904951330812e+00   1.352645854400000e+01 -2.72824890e-01   3.00907070e-01  -1.77554360e-01
C     6.162266219399999e+00   5.933082519872508e-01   1.354482044800000e+01 -1.36957796e+00   5.69610230e-01   6.97665400e-02
C     6.242247137699999e+00   8.593007766671328e-01   3.460439488000000e+00 -7.50022910e-01  -1.18343680e-01   1.34965120e-01
C     7.460979410174999e+00   1.574140132403038e+00   3.449160192000000e+00  3.03165100e-01  -6.09210000e-02   7.48614500e-02
C     1.209956293200000e+00   2.004475840370203e+00   1.354689648800000e+01 -1.77825110e-01   1.13318542e+00   1.10485000e-03
C     2.448498809325000e+00   2.725687688847123e+00   1.352762923200000e+01 -4.18598810e-01  -4.81068100e-02  -1.07794470e-01
C     2.539072991175000e+00   2.994874657347574e+00   3.474061928000000e+00 -6.78550600e-02  -6.61760020e-01   1.22180150e-01
C     3.769281342300000e+00   3.706207809990286e+00   3.505520632000000e+00 -2.74835620e-01  -3.14649470e-01  -3.83959830e-01
C     3.673761717225000e+00   2.043376775591151e+00   1.351287704000000e+01  3.60757560e-01  -1.45743247e+00   4.18586840e-01
C     4.903925217675000e+00   2.742716610496863e+00   1.358982026400000e+01  2.17569220e-01  -7.73665830e-01  -3.14561720e-01
C     5.005294435650000e+00   3.006573507308171e+00   3.484402280000000e+00 -4.39313380e-01  -9.74981500e-01   2.74707870e-01
C     6.228777699824999e+00   3.687221555010794e+00   3.487587808000000e+00  5.43688300e-01   1.52207691e+00  -2.55566780e-01
C     6.149004913800000e+00   2.027795792600978e+00   1.359202169600000e+01 -5.31449570e-01  -4.38196420e-01  -1.47685800e-01
C     7.366508950724999e+00   2.730665590396544e+00   1.357723414400000e+01  6.50350610e-01  -1.39156300e-02   6.82968200e-02
C     7.461155300250000e+00   2.996282249182623e+00   3.453965208000000e+00  6.23504500e-02  -4.00463960e-01   7.60865700e-02
C     8.696328728325000e+00   3.705338047730319e+00   3.452209856000000e+00  8.84419000e-02  -3.55741330e-01   2.54100230e-01
C     2.453134217175000e+00   4.135701614219175e+00   1.350957863200000e+01 -6.03260160e-01   9.08074660e-01  -3.99101000e-02
C     3.676310403975000e+00   4.863994330399004e+00   1.350974768000000e+01 -2.25702030e-01   8.00571100e-02   3.52443660e-01
C     3.759638816925000e+00   5.112408704275072e+00   3.469748280000000e+00  3.90792680e-01   7.16697360e-01   1.01959700e-01
C     4.995123463574999e+00   5.839642540460329e+00   3.465184392000000e+00  3.56509000e-02  -2.77538150e-01   5.96190500e-02
C     4.894139599050000e+00   4.139355563541198e+00   1.358127810400000e+01  8.66902270e-01   1.23055943e+00  -2.46021220e-01
C     6.148007069475000e+00   4.861279181236679e+00   1.356609588000000e+01 -7.88698600e-01  -2.20110900e-02   1.88958940e-01
C     6.236279261775000e+00   5.136295305241301e+00   3.477439624000000e+00 -5.05632990e-01  -5.97912610e-01  -1.13913700e-02
C     7.457476731449999e+00   5.849751341279446e+00   3.476161088000000e+00  4.75655570e-01  -1.14137558e+00   1.16594510e-01
C     7.374780849824999e+00   4.158889766823192e+00   1.357939967200000e+01 -2.57170060e-01  -4.37371210e-01  -4.04979410e-01
C     8.595583537425000e+00   4.851787046406901e+00   1.349995119200000e+01  1.01819234e+00   4.78307150e-01   4.96668840e-01
C     8.691525971625000e+00   5.113077693051128e+00   3.490837528000000e+00  2.08255460e-01   9.35071290e-01  -3.58436860e-01
C     9.933444638025000e+00   5.825817540932790e+00   3.468920856000000e+00 -4.78455900e-01   3.26037270e-01   7.78095100e-02
C     7.426174362000000e+00   9.677422818183121e-02   6.982691655999999e+00 -7.95024000e-03   1.72578340e-01  -3.23231440e-01
C     1.264531652025000e+00   8.039017046878819e-01   6.929335728000000e+00  1.37392630e-01   5.17012100e-01  -1.41105100e-01
C     1.135700177175000e+00   5.878148717226787e-01   1.006071981600000e+01  1.19731599e+00  -2.01919760e-01   2.95153990e-01
C     2.392027557375000e+00   1.303473780336928e+00   1.009910160000000e+01 -5.79492420e-01  -4.87835260e-01   3.00798000e-03
C     2.496706666425000e+00   9.868762830266341e-02   6.853708984000001e+00  1.22628030e-01  -2.57411230e-01   1.41858240e-01
C     3.738933112725000e+00   8.134640301838051e-01   6.821814807999999e+00 -6.14341970e-01  -3.85258200e-02   2.46915120e-01
C     3.628969869450000e+00   5.977474273654885e-01   1.015955047200000e+01 -1.11660617e+00  -7.01501630e-01  -3.83807890e-01
C     4.833072613424999e+00   1.291368452129956e+00   1.010340110400000e+01  1.44790151e+00   5.14705180e-01   5.86087900e-02
C     4.960831480500000e+00   1.042898809508556e-01   6.887804183999999e+00  1.07710600e-02  -5.43534510e-01   1.01324860e-01
C     6.183491755124999e+00   8.149833763185115e-01   6.962757047999999e+00  4.50398870e-01  -7.39684160e-01  -4.16751720e-01
C     6.083881216050000e+00   5.692118475335292e-01   1.008728537600000e+01 -4.42643190e-01   7.94624560e-01   1.55552400e-02
C     7.311551714099999e+00   1.284207403118640e+00   1.004726642400000e+01 -4.10950890e-01   6.35324380e-01   4.73309500e-02
C     8.664151641300000e+00   2.244081285644999e+00   6.928034208000000e+00  5.20089800e-02  -6.33907650e-01  -3.75950250e-01
C     2.494528284300000e+00   2.966340422409764e+00   6.861263512000000e+00  2.58934710e-01  -1.08658544e+00   3.39171510e-01
C     2.385947129550000e+00   2.714684981715907e+00   1.006291186400000e+01 -7.58979800e-02   1.11918070e-01   1.82230640e-01
C     3.614413403550000e+00   3.426034721386478e+00   1.004219743200000e+01  5.63973100e-02   5.40429570e-01   1.63349980e-01
C     3.728491298775000e+00   2.234809521328184e+00   6.829201376000000e+00  2.26599200e-01   6.00132540e-01   1.06608090e-01
C     4.965892877325000e+00   2.956867180140674e+00   6.864353296000000e+00 -9.43737400e-02  -7.57072710e-01   4.01986000e-02
C     4.843198660875000e+00   2.720937522707204e+00   1.005016444800000e+01  3.09725470e-01  -9.36997500e-02   1.61943940e-01
C     6.093448090575000e+00   3.435773099930972e+00   1.005326388800000e+01 -7.61260200e-01  -5.06978960e-01  -1.37925600e-02
C     6.192912023774999e+00   2.214826955953412e+00   6.911555767999999e+00  4.47687800e-02   1.34929818e+00  -7.79520000e-04
C     7.435267882575000e+00   2.935306605629198e+00   6.925420831999999e+00 -3.82753290e-01   3.89975940e-01  -1.41885480e-01
C     7.311527828249999e+00   2.720756346252345e+00   1.003130247200000e+01  2.42578920e-01  -5.32259960e-01   5.12137950e-01
C     8.542353772800000e+00   3.418392904737611e+00   1.008263336000000e+01  1.06523700e-02   6.92866690e-01  -1.25137210e-01
C     9.892810961774998e+00   4.368276337130106e+00   6.934247232000000e+00  4.25078540e-01   4.90372730e-01  -3.41018920e-01
C     3.742811050725000e+00   5.083030964534523e+00   6.948491872000000e+00 -5.99809440e-01   1.58929200e-02  -1.73262000e-01
C     3.607388412375000e+00   4.866194192973914e+00   1.003544516800000e+01  6.29147140e-01  -8.87442840e-01   3.55713900e-01
C     4.839520387875000e+00   5.567678173411154e+00   1.006593650400000e+01  4.62578410e-01  -1.96479800e-01  -2.74204800e-02
C     4.973074309725000e+00   4.380184926535619e+00   6.895914272000000e+00 -3.99837520e-01  -6.12922490e-01  -6.99024800e-02
C     6.194095334700000e+00   5.070380185685615e+00   6.874178615999999e+00  8.09088980e-01   8.50841840e-01  -2.88003200e-02
C     6.086674048725000e+00   4.841171989003951e+00   1.008463500800000e+01 -1.91237060e-01   1.15248141e+00   2.07106810e-01
C     7.321174827599999e+00   5.570466651325977e+00   1.015552378400000e+01 -4.42688010e-01  -2.23224800e-01  -2.08654660e-01
C     7.443695557349999e+00   4.370887032846735e+00   6.886386383999999e+00 -9.47211830e-01  -7.62336810e-01   2.06020500e-02
C     8.659959674625000e+00   5.069428448925041e+00   6.911622952000000e+00  3.29928740e-01   9.32591040e-01  -6.20758200e-02
C     8.537986951350000e+00   4.854692722240562e+00   1.013050903200000e+01  6.04446550e-01  -3.35829790e-01  -1.42301560e-01
C     9.788259009750000e+00   5.567363404137335e+00   1.009259617600000e+01 -9.88966110e-01  -2.94793910e-01   7.85667100e-02
