72
Lattice="7.395 0 0 3.6975 6.40425786098592 0 0 0 13.6 " PBC="1 1 1" Properties=species:S:1:pos:R:3:force:R:3 Energy="-574.54155137"
C     3.684237141450000e+00   6.233614103787471e+00   2.696253040000000e-01  4.83814240e-01  -5.71025125e+00   1.44798044e+00
C     1.225926461250000e+00   4.555789228758768e-01   3.306459200000000e-01  7.47959010e-01  -2.08008570e-01  -1.04808294e+00
C     1.458865670475000e+00   1.159199683948106e+00   3.401662600000000e+00  1.09854941e+00  -1.58929093e+00  -5.46414530e-01
C     2.672404730250000e+00   1.818693059002420e+00   3.309022256000000e+00  1.96814852e+00   2.04587983e+00   5.57719160e-01
C     6.158468258325000e+00   6.164192909223750e+00   3.082301280000000e-01 -5.02359500e-02  -5.50030600e-01  -1.58970730e-01
C     3.718430734050000e+00   4.385906042209692e-01   1.805402720000000e-01 -2.64248869e+00   6.03280170e-01   1.66521746e+00
C     3.917571354600000e+00   1.127041663742795e+00   3.340102064000000e+00 -1.36826990e-01  -1.23307426e+00  -4.87304190e-01
C     5.169892197750000e+00   1.806583375900103e+00   3.254630824000000e+00  9.80756000e-03  -1.05776327e+00   1.87045720e+00
C     8.574388321199999e+00   6.078879292610124e+00   3.475426960000000e-01  1.84349454e+00   2.86129439e+00   5.35279070e-01
C     6.144600784574999e+00   3.761204630533350e-01   4.095234720000000e-01 -1.83859800e+00   1.59317446e+00  -1.95565031e+00
C     6.436251893774999e+00   1.102239446030323e+00   3.394330432000000e+00 -1.33967773e+00  -7.11642200e-02  -3.99509080e-01
C     7.652393956575001e+00   1.844036692674377e+00   3.385537760000000e+00 -1.48752180e+00  -3.35104726e+00  -1.29404000e-02
C     1.255844745525000e+00   1.820347470935394e+00   2.150055280000000e-01 -2.92886455e+00   3.93863235e+00   7.46164720e-01
C     2.437136798550000e+00   2.574610285291044e+00   3.072041440000000e-01 -5.36523430e-01   2.17037316e+00  -5.41302910e-01
C     2.711684677800000e+00   3.285899696852573e+00   3.311528736000000e+00 -1.49454016e+00  -6.09379580e-01  -1.25289540e-01
C     3.921174235575000e+00   3.999675305357933e+00   3.256334632000000e+00  2.00331820e+00  -1.02107030e+00   1.68401083e+00
C     3.640033713825000e+00   1.882278565718952e+00   3.131794400000000e-01  2.41614256e+00  -6.16253140e-01  -1.75759510e+00
C     4.909414230375000e+00   2.540708001414984e+00   1.982310160000000e-01 -5.06668260e-01   1.33531678e+00   1.13249664e+00
C     5.111040569250000e+00   3.177689513495297e+00   3.431181400000000e+00  2.24406834e+00   4.07738654e+00  -1.55362438e+00
C     6.419144892374999e+00   3.929911034700651e+00   3.470604672000000e+00 -1.96938539e+00  -6.12812560e-01  -9.56996300e-01
C     6.109689913950000e+00   1.755874077909151e+00   1.834584240000000e-01  1.09459325e+00   4.21112591e+00   7.64932820e-01
C     7.341335927025000e+00   2.577156169918130e+00   2.009643440000000e-01  7.85620390e-01  -3.39179190e-01  -9.93868410e-01
C     7.637164545675001e+00   3.174415464749529e+00   3.377719120000000e+00  5.64158800e-01   6.11623702e+00   6.10331320e-01
C     8.868191190525000e+00   3.968417147424530e+00   3.397695344000000e+00 -3.42905840e-01   1.05677009e+00  -2.28953120e-01
C     2.374439178450000e+00   4.085318356995876e+00   3.052808320000000e-01  2.94180068e+00  -3.97883763e+00   8.94753720e-01
C     3.644830443600000e+00   4.731143700882800e+00   3.237012160000000e-01  1.26747243e+00   1.00791152e+00  -3.58729970e-01
C     3.991462083675000e+00   5.438159615216929e+00   3.360227208000000e+00 -2.33075768e+00  -2.65216093e+00  -4.72749600e-02
C     5.173700216025000e+00   6.147954529164248e+00   3.350445408000000e+00  1.82417368e+00  -1.33329121e+00   4.40325450e-01
C     4.930936453499999e+00   3.998006291717038e+00   3.351331040000000e-01 -1.74949008e+00  -5.29244230e-01  -9.18639350e-01
C     6.149930767800000e+00   4.740509799917892e+00   3.610555200000000e-01 -1.84370661e+00   1.02119477e+00  -1.35280021e+00
C     6.425937643574999e+00   5.359150285998108e+00   3.373025896000000e+00 -5.28579840e-01   4.38015800e-01   6.51310490e-01
C     7.660385917949998e+00   6.091170472380194e+00   3.415577031999999e+00 -2.70422402e+00   2.53649291e+00  -4.17285190e-01
C     7.346646313500000e+00   4.123038795365490e+00   1.486991360000000e-01  3.38437540e-01  -6.57247983e+00   2.21330604e+00
C     8.555459672474999e+00   4.718676468064159e+00   4.881544560000000e-01 -2.32561200e-02   2.32716990e-01  -2.94151926e+00
C     8.883733668749999e+00   5.525869705121766e+00   3.455518600000000e+00 -1.16150229e+00  -8.25683478e+00  -1.75661670e-01
C     1.009824243487500e+01   6.052359709109915e+00   3.450274304000000e+00  3.73581497e+00   4.96762373e+00  -6.28031430e-01
C     7.345449026025000e+00   2.596786308982866e-01   6.302643784000000e+00  7.25990270e-01  -8.47986090e-01   8.69705690e-01
C     1.180459080225000e+00   9.897906686509843e-01   6.354273736000001e+00  6.22830200e-02  -1.92954171e+00   4.39352520e-01
C     1.106697837600000e+00   2.892411334780968e-01   1.042151816000000e+01 -1.67900573e+00   5.83461670e-01  -1.35538244e+00
C     2.341335054225000e+00   1.018198675666372e+00   1.021431114400000e+01 -2.44888445e+00  -2.38361989e+00   1.21241730e-01
C     2.439798037200000e+00   2.370778127826108e-01   6.520043864000000e+00 -1.67157830e+00   4.80121611e+00  -6.46339010e-01
C     3.680949028650000e+00   9.160537728005665e-01   6.500694328000000e+00 -8.72689840e-01   1.73600318e+00   4.62909760e-01
C     3.479164214925000e+00   2.497526716410726e-01   1.005060876000000e+01  3.87920392e+00   2.18580251e+00   1.50678494e+00
C     4.797013336275000e+00   1.041244013320111e+00   1.025050550400000e+01 -2.47669535e+00  -8.94280430e-01  -8.92293140e-01
C     4.913886541499999e+00   2.990634718431360e-01   6.552444232000000e+00  9.10562040e-01  -2.35947818e+00  -1.07455490e+00
C     6.157347878850000e+00   9.859591933010821e-01   6.381800952000000e+00 -1.58369261e+00   1.53950414e+00   8.18366290e-01
C     6.008638533075000e+00   3.517849236111210e-01   1.034582192000000e+01  1.00289665e+00  -5.74385450e-01  -5.58027180e-01
C     7.240643462474999e+00   1.108767049896706e+00   1.041734078400000e+01  1.71588305e+00  -2.79768907e+00   4.65021850e-01
C     8.556317899200000e+00   2.376163212090268e+00   6.317537960000000e+00 -7.77808310e-01   1.03515652e+00   7.65904730e-01
C     2.402141698875000e+00   2.982062683328329e+00   6.468385216000000e+00  6.12651540e-01   4.12821109e+00  -1.49535853e+00
C     2.321543815725000e+00   2.381989741848717e+00   1.020552404800000e+01 -4.45515680e-01   5.06418847e+00   1.04577440e+00
C     3.524369591100000e+00   3.194195719618504e+00   1.036195111200000e+01  8.83521330e-01  -4.56741589e+00  -1.28018695e+00
C     3.659870468549999e+00   2.332453255599667e+00   6.472920952000000e+00 -1.29613211e+00  -7.43742930e-01   6.94115160e-01
C     4.860880956300000e+00   3.030647496859383e+00   6.559896080000000e+00 -9.99362570e-01   4.90081260e+00  -2.31135860e-01
C     4.793035269974999e+00   2.474126134573493e+00   1.031208712000000e+01 -3.35123820e-01  -1.04654382e+00   5.97706160e-01
C     6.047895814950000e+00   3.152481201791922e+00   1.037449996800000e+01 -2.13697375e+00   1.03489312e+00   9.13947000e-02
C     6.075553965374999e+00   2.471912182631292e+00   6.452649608000000e+00  3.53442995e+00  -4.21965767e+00  -7.28289340e-01
C     7.321186363800001e+00   3.183125191396551e+00   6.314489520000000e+00 -6.16386660e-01  -3.20219205e+00   9.39330790e-01
C     7.282708921650000e+00   2.540265659324593e+00   1.043776118400000e+01 -1.53845501e+00  -3.67216875e+00  -9.50634440e-01
C     8.465148678675000e+00   3.184976854471612e+00   1.025965313600000e+01  3.28364662e+00  -6.13045220e-01   4.33104760e-01
C     9.801688033949999e+00   4.465350989048149e+00   6.303737495999999e+00 -1.17695351e+00   6.12462430e-01   2.24255157e+00
C     3.642760731000000e+00   5.196828414576599e+00   6.396584152000000e+00 -1.45614292e+00   1.11049957e+00  -2.03570700e-01
C     3.589969785675000e+00   4.539106841501833e+00   1.040213680000000e+01 -3.98863315e+00   2.64419616e+00  -7.84291870e-01
C     4.789607465625000e+00   5.198223454066243e+00   1.035542596800000e+01 -5.82334160e-01   5.05127011e+00   6.35500030e-01
C     4.850251457250000e+00   4.541405265605209e+00   6.561424584000000e+00 -1.34552820e-01  -1.41458117e+00  -2.85663130e-01
C     6.037054486124999e+00   5.330181394079342e+00   6.562448799999999e+00  8.68076870e-01  -6.79669823e+00  -1.20704610e-01
C     5.985963059700000e+00   4.563892664314184e+00   1.031022664000000e+01  9.72125200e-01  -1.75343423e+00  -3.93494200e-01
C     7.156209497024999e+00   5.263732351545869e+00   1.012634416800000e+01  3.52236143e+00   5.82972420e-01   6.98273600e-01
C     7.235552078924999e+00   4.525699527671923e+00   6.435743992000000e+00  3.49517975e+00   4.42548527e+00   6.74329480e-01
C     8.550899915475000e+00   5.278452410151922e+00   6.454813776000000e+00  5.16329480e-01  -2.75227458e+00  -5.17802960e-01
C     8.467190142374999e+00   4.589156116677732e+00   1.023745168000000e+01  1.85608940e-01   1.03587353e+00  -8.28329080e-01
C     9.717326280675000e+00   5.302873638564303e+00   1.024270604000000e+01  2.57544700e-01   1.34770120e-01   1.25266536e+00
