72
Lattice="7.395 0 0 3.6975 6.40425786098592 0 0 0 13.6 " PBC="1 1 1" Properties=species:S:1:pos:R:3:force:R:3 Energy="-571.43956232"
C     3.619195343325000e+00   6.157586276815374e+00   4.588868480000000e-01  4.61392180e-01  -4.72666980e-01  -2.26826526e+00
C     1.119428662875000e+00   4.964710699506559e-01   4.200607520000000e-01  2.31056572e+00  -2.92598474e+00  -1.13981890e-01
C     1.493395772550000e+00   1.100423646799277e+00   3.429890216000000e+00 -6.16065920e-01   9.79806450e-01  -2.28050550e-01
C     2.788383806025000e+00   1.756615114586132e+00   3.610233016000000e+00 -1.71757288e+00   1.57590155e+00  -1.58211825e+00
C     6.051948940499999e+00   6.122787909179542e+00   2.860682480000000e-01  2.53171300e+00  -3.59034940e-01  -4.83205250e-01
C     3.687153951300000e+00   4.501637385997753e-01   3.518598800000000e-01 -2.65476422e+00  -1.14439547e+00  -8.72703410e-01
C     4.005619478400000e+00   1.113671238438159e+00   3.394210752000000e+00 -5.77140150e-01   2.59451640e-01   4.24381480e-01
C     5.168284081050000e+00   1.922901733963611e+00   3.290042096000000e+00  2.92105173e+00  -2.83555021e+00  -1.14516460e+00
C     8.567956593900000e+00   6.149775579886740e+00   2.682016560000000e-01  2.78243610e+00  -9.19379410e-01  -1.27294045e+00
C     6.178266965774999e+00   5.317603239514567e-01   1.499976640000000e-01 -3.60702741e+00  -1.65610642e+00   1.69701362e+00
C     6.411941053125000e+00   1.219954444647939e+00   3.077364752000000e+00  1.39099858e+00  -2.48091638e+00   1.73445900e+00
C     7.706252702924999e+00   1.957629398592668e+00   3.361717496000000e+00 -3.21588448e+00  -5.29799959e+00  -1.05995125e+00
C     1.170601914975000e+00   1.894226477267725e+00   4.965486479999999e-01  5.76000930e-01  -1.15491982e+00  -1.60338454e+00
C     2.469499278225000e+00   2.509712546138998e+00   6.041604160000000e-01 -1.60051934e+00   2.52205723e+00  -9.83049940e-01
C     2.789068028400000e+00   3.233712424232691e+00   3.506996096000000e+00 -3.70491674e+00  -1.82735736e+00   5.28840680e-01
C     3.928964276475000e+00   3.948421645448881e+00   3.239924328000000e+00  2.73491191e+00  -1.70336975e+00   2.43771640e-01
C     3.699787495350000e+00   1.870426397825185e+00   4.011300960000000e-01 -1.40571970e-01  -4.47278260e-01   3.88034810e-01
C     4.885933256625000e+00   2.644011626655399e+00   2.081509920000000e-01 -6.54356820e-01  -2.33779255e+00  -4.16167250e-01
C     5.248490509874999e+00   3.291280362178809e+00   3.192980256000000e+00 -1.71687054e+00   2.56212968e+00   1.16373139e+00
C     6.485698783124999e+00   4.084109937580273e+00   3.294571440000000e+00 -4.24708234e+00  -2.09309316e+00  -1.56698020e-01
C     6.124269230399999e+00   2.011294453713745e+00   6.505328800000000e-02 -3.71206180e-01  -5.77358461e+00   7.92835900e-02
C     7.373643535799999e+00   2.541641550083236e+00   7.493192000000000e-02  1.93400586e+00   2.95438417e+00   1.81651882e+00
C     7.587883858950000e+00   3.310921644652222e+00   3.524268776000000e+00  4.25688471e+00   7.60265060e-01  -2.75642110e-01
C     8.876815424400000e+00   3.924363474414583e+00   3.567329096000000e+00  1.73398686e+00   1.90777115e+00  -1.41545217e+00
C     2.449897092900000e+00   3.962355965658090e+00   6.178864880000000e-01 -7.05017540e-01  -7.40530460e-01  -2.48558635e+00
C     3.693017151000000e+00   4.629355066881746e+00   5.089579679999999e-01 -2.74761865e+00   4.84744710e+00  -8.30185920e-01
C     3.877114455825000e+00   5.289611189047186e+00   3.032299928000000e+00  1.28452364e+00   3.60176249e+00   1.18320435e+00
C     5.077027155824999e+00   6.081501900246373e+00   3.181979896000000e+00  2.54319514e+00   1.19633411e+00   9.64002210e-01
C     4.854648080550000e+00   4.007477676751349e+00   1.804656080000000e-01  2.42133796e+00   1.91951010e-01  -3.50411500e-02
C     6.135493952999999e+00   4.631783689547415e+00   1.357801519200000e+01 -6.39892610e-01   4.39987290e+00   2.19251685e+00
C     6.390298883100000e+00   5.481913953214499e+00   3.331004208000000e+00  2.77946660e-01  -9.58903250e-01  -4.10620690e-01
C     7.679933269350000e+00   6.106695802369563e+00   3.375377064000000e+00 -9.67102930e-01   9.18560760e-01  -3.47321490e-01
C     7.410590545724999e+00   3.951810778708393e+00   8.148848000000000e-02 -1.52876088e+00   1.03709695e+00  -8.42549350e-01
C     8.608698902699999e+00   4.648867815899908e+00   2.052626240000000e-01  1.33863240e+00   2.53683068e+00   2.17386034e+00
C     8.883505496025000e+00   5.366822330744075e+00   3.283724216000000e+00 -7.42654710e-01  -2.01798299e+00   7.98460200e-01
C     1.007666068200000e+01   6.001942637405115e+00   3.031515888000000e+00  4.66378370e-01   4.88159354e+00   1.06251488e+00
C     7.298056245824999e+00   2.662499118032755e-01   6.324497080000000e+00 -5.27645270e-01   2.21993933e+00  -1.15148500e-01
C     1.150937685600000e+00   9.835128948837192e-01   6.388435304000000e+00  7.43809570e-01  -1.21826512e+00   7.80089500e-02
C     1.086144840150000e+00   3.321342909212328e-01   1.030351463200000e+01 -1.00763591e+00  -1.88020417e+00   1.12038387e+00
C     2.350159064025000e+00   1.051063918067163e+00   1.057157240000000e+01 -2.18214729e+00  -3.68611388e+00  -7.24751090e-01
C     2.380366160025000e+00   1.685934330586506e-01   6.358103087999999e+00  4.12867670e-01   5.54484645e+00   7.10799450e-01
C     3.584362748775000e+00   1.010989786848842e+00   6.433068600000000e+00 -6.46040400e-01   2.17920170e-01  -4.51600440e-01
C     3.564504585525000e+00   3.662910800046498e-01   1.051992123200000e+01 -7.26377800e-02  -3.96561708e+00  -1.22309510e+00
C     4.759097988074999e+00   9.700410901771590e-01   1.038770570400000e+01  2.13923792e+00   2.36054867e+00   3.71608770e-01
C     4.771987288200000e+00   2.508847523029848e-01   6.227482704000000e+00 -7.09424630e-01   2.71702920e-01   1.36084548e+00
C     5.970308140500000e+00   9.108494166932161e-01   6.285882600000000e+00  4.01535648e+00   2.22111216e+00   4.31802970e-01
C     6.019403286675000e+00   2.387159579006202e-01   1.023236256000000e+01 -2.62713959e+00   2.27736979e+00   7.62623770e-01
C     7.177619611950000e+00   9.500865114092353e-01   1.027115724000000e+01  4.39410520e+00   1.53038031e+00   1.40358000e-02
C     8.586754868774999e+00   2.445434675105222e+00   6.467152376000000e+00  2.17651354e+00  -3.73363652e+00  -2.07211720e-01
C     2.358231963675000e+00   3.249255109760860e+00   6.433285792000000e+00  2.49963158e+00  -2.60663202e+00   1.45777375e+00
C     2.341483619775000e+00   2.366509754004997e+00   1.069889451200000e+01 -1.78664972e+00   6.44200507e+00  -1.55519621e+00
C     3.584051936925000e+00   3.181824038327135e+00   1.058972568000000e+01 -2.43270371e+00  -2.19275921e+00   1.35817430e-01
C     3.618280766699999e+00   2.559056776567091e+00   6.540645823999999e+00 -1.48833668e+00  -5.16526825e+00  -1.09824237e+00
C     4.878285088800000e+00   3.108154387184247e+00   6.447480520000000e+00  1.97630740e-01   2.62546506e+00  -1.15637750e-01
C     4.746834009150000e+00   2.402945434205316e+00   1.048564705600000e+01  2.66109135e+00   1.65980578e+00  -8.62073720e-01
C     6.034765733625000e+00   3.127825257328972e+00   1.033638216000000e+01 -1.79275336e+00   1.32764251e+00  -3.40017960e-01
C     6.058643929800001e+00   2.325653726944548e+00   6.393196392000000e+00  1.09292364e+00   3.40593330e-01   4.81284820e-01
C     7.382849904075000e+00   2.993535142773576e+00   6.486359792000000e+00 -4.69772857e+00   3.27587429e+00  -5.17845970e-01
C     7.225902861074999e+00   2.372132180065448e+00   1.030138827200000e+01 -1.88058697e+00   6.04767700e-01   3.91458720e-01
C     8.368801848899999e+00   3.094796642310173e+00   1.046343132000000e+01  5.98187950e+00   9.54075860e-01  -1.48247730e-01
C     9.824518099799999e+00   4.623782081691973e+00   6.442927512000000e+00 -2.12910367e+00  -6.76962190e-01  -1.05617711e+00
C     3.616597110075000e+00   5.298268720992648e+00   6.327275424000000e+00  3.55726208e+00  -1.21392730e+00   5.98822550e-01
C     3.530274313725000e+00   4.601962711120375e+00   1.042779388000000e+01  1.10133606e+00  -2.23636015e+00   4.08734250e-01
C     4.722788020425000e+00   5.256176480037484e+00   1.034357860000000e+01  4.71174066e+00   3.08279923e+00  -5.16217940e-01
C     4.894279031775000e+00   4.581473697034034e+00   6.357584928000000e+00 -1.01889193e+00  -2.01395677e+00   1.93316240e-01
C     6.143439325874999e+00   5.206286670882297e+00   6.317914544000000e+00  4.57031260e-01  -1.79839186e+00   5.52698740e-01
C     6.049663811549999e+00   4.610055323480006e+00   1.028232202400000e+01 -5.03912930e-01  -1.96249546e+00   8.26629920e-01
C     7.334425262550000e+00   5.330200414725186e+00   1.031329112800000e+01 -3.07874171e+00  -1.03041518e+00   8.30631100e-02
C     7.409256894449999e+00   4.427501825095550e+00   6.411510423999999e+00 -2.10278022e+00   1.95399641e+00  -4.05967160e-01
C     8.573829998699999e+00   5.237639291619135e+00   6.294622368000000e+00 -1.69032532e+00  -2.66273480e-01   9.55306120e-01
C     8.517924020550000e+00   4.542701871651544e+00   1.028265862400000e+01 -1.42729074e+00   1.12643520e-01   1.46810160e+00
C     9.747301247625000e+00   5.302437764774351e+00   1.036867196000000e+01 -2.22165580e+00  -3.33353404e+00  -6.36991430e-01
