72
Lattice="7.395 0 0 3.6975 6.40425786098592 0 0 0 13.6 " PBC="1 1 1" Properties=species:S:1:pos:R:3:force:R:3 Energy="-576.26903557"
C     3.654980265975000e+00   6.220095804168848e+00   3.537316480000000e-01 -1.83266716e+00  -1.75494420e+00  -1.70569028e+00
C     1.118221909800000e+00   5.124606445922965e-01   3.176758720000000e-01  4.48285955e+00  -1.55096539e+00  -1.98895850e-01
C     1.430758791450000e+00   1.047030324339199e+00   3.445681312000000e+00 -1.69957726e+00  -4.64536080e-01  -4.75461250e-01
C     2.695961687625000e+00   1.681473188603809e+00   3.608091968000000e+00 -2.09022802e+00   2.85897428e+00  -9.83707900e-01
C     6.087234996449999e+00   6.168751908266549e+00   1.679704720000000e-01  1.25959756e+00  -5.02988400e-02   2.38278340e-01
C     3.653553992325000e+00   4.698275640608551e-01   3.009665040000000e-01  1.21766408e+00  -1.99943000e-02  -1.91849470e+00
C     3.894135638250000e+00   1.021055551055140e+00   3.450540999999999e+00  2.10577282e+00   1.55991085e+00  -1.62570770e-01
C     5.102698898324999e+00   1.812920709265466e+00   3.349760376000000e+00  2.03217688e+00  -1.23102229e+00  -1.34841812e+00
C     8.652295533600000e+00   6.157483616561878e+00   1.315402880000000e-01 -1.95949807e+00   2.01946572e+00   9.02311800e-02
C     6.167887565625000e+00   5.771225789699370e-01   1.183127920000000e-01 -1.81285492e+00  -3.49322366e+00   8.64150750e-01
C     6.389365745025000e+00   1.111651399551693e+00   3.160903296000000e+00 -2.40270213e+00  -1.93838219e+00   7.93798360e-01
C     7.590339960300000e+00   1.834464696749085e+00   3.362407152000000e+00  5.81822370e-01  -3.62837601e+00   1.23381700e-01
C     1.199945755650000e+00   1.903526548404281e+00   4.039507360000000e-01 -1.45623000e-01   5.31241290e-01  -1.30550863e+00
C     2.460249612225000e+00   2.574921980521090e+00   5.334163439999999e-01 -8.83242290e-01   1.54538249e+00  -1.29907286e+00
C     2.670694044900000e+00   3.178492863601255e+00   3.539907688000000e+00  1.03669130e-01  -1.88281911e+00  -1.12728220e-01
C     3.922551924075000e+00   3.874030810828379e+00   3.328354112000000e+00 -2.72910923e+00   2.06414670e-01  -6.22851250e-01
C     3.704162636175000e+00   1.943807473108902e+00   3.151227440000000e-01 -2.04639369e+00  -2.61317722e+00   1.41238860e+00
C     4.875231101700000e+00   2.665194926336343e+00   1.872313360000000e-01  2.13572095e+00  -2.19300913e+00  -1.39242538e+00
C     5.147642639399999e+00   3.239665950424504e+00   3.189745496000000e+00  3.54055690e-01  -1.71864857e+00   2.10408501e+00
C     6.387381481649999e+00   3.943939497500403e+00   3.305729016000000e+00 -7.97145120e-01   2.98775710e-01   5.76709000e-01
C     6.115432057500000e+00   1.952639521081049e+00   8.848703999999999e-03  1.41402010e+00   4.16624650e-01   6.41340950e-01
C     7.412346266624999e+00   2.614248862932306e+00   4.717404800000000e-02 -1.28299576e+00   3.50386940e-01   1.59142038e+00
C     7.567952854950000e+00   3.185839315877619e+00   3.562532920000000e+00 -4.14864660e-01   1.76963765e+00  -1.50405498e+00
C     8.788507662150000e+00   3.848235292721820e+00   3.536818856000000e+00  2.76127084e+00   2.29592527e+00  -2.99878710e-01
C     2.405131238550000e+00   4.014667352795300e+00   4.957258480000000e-01  1.58094297e+00   2.82239450e-01  -1.98457101e+00
C     3.650621320200000e+00   4.739483453553248e+00   4.083893680000000e-01  1.33238970e+00   6.98638820e-01  -1.41067220e+00
C     3.829813077824999e+00   5.250289686212571e+00   3.093571464000000e+00  5.52517640e-01   1.98911902e+00   1.24346952e+00
C     5.008293884624999e+00   6.018483618648502e+00   3.252687520000000e+00  4.18012464e+00   9.94630380e-01   6.49409750e-01
C     4.938052588050000e+00   4.014007842320876e+00   9.157056800000000e-02 -2.23273772e+00   3.54801632e+00   1.13592536e+00
C     6.184316778299999e+00   4.713823129330115e+00   1.350732307200000e+01 -2.23719413e+00   2.23361692e+00   2.03378185e+00
C     6.365421067800000e+00   5.385141390139712e+00   3.385201160000000e+00 -1.80957903e+00  -1.89268714e+00  -9.39086370e-01
C     7.626775938749999e+00   6.039128704498890e+00   3.379196760000000e+00 -1.69028425e+00  -3.20505500e-01   5.58288530e-01
C     7.396893526725000e+00   4.029598303612683e+00   6.379243200000001e-02  6.05986150e-01   3.25584730e-01  -1.40681452e+00
C     8.628439226624998e+00   4.739555373369017e+00   9.159096799999999e-02  2.85008080e-01   5.50447600e-02   2.27806953e+00
C     8.819618094374999e+00   5.309758728104431e+00   3.345863432000000e+00 -6.75743300e-02  -1.43239280e+00  -4.03651290e-01
C     1.001019375645000e+01   5.988382133727193e+00   3.061354968000000e+00  1.07267113e+00   2.15975186e+00   1.74549461e+00
C     7.312363722075000e+00   2.304586920714078e-01   6.436621192000000e+00  2.76571808e+00  -1.80803922e+00   4.86248190e-01
C     1.199535296175000e+00   9.225882292228602e-01   6.540458688000000e+00  3.53166200e-02  -1.63388134e+00  -5.29374900e-02
C     1.097445805200000e+00   4.213634067478836e-01   1.021809656800000e+01  1.15365299e+00  -6.92126120e-01   1.13840655e+00
C     2.382773491350000e+00   1.143506626445383e+00   1.048073963200000e+01 -3.10936298e+00  -1.45177743e+00  -4.84962810e-01
C     2.446278941250000e+00   1.349994501559704e-01   6.513763384000000e+00 -9.77271090e-01   2.79953415e+00   5.47609280e-01
C     3.632907854850000e+00   9.320979757617529e-01   6.587713792000000e+00 -8.32741650e-01   7.32092760e-01  -5.11448090e-01
C     3.565308569925000e+00   4.136737502928030e-01   1.046303991200000e+01  1.00359808e+00   2.18957500e-01  -1.65543079e+00
C     4.795641563775000e+00   1.080518636987190e+00   1.026340333600000e+01  8.68477400e-02   1.78131266e+00   1.32769050e+00
C     4.800959825924999e+00   2.080285474277010e-01   6.354832424000000e+00  2.52038072e+00  -7.06513760e-01   1.53672841e+00
C     6.074331239099999e+00   8.563289448497784e-01   6.437311528000000e+00 -5.84270490e-01   1.70573204e+00  -9.73681500e-02
C     5.994109021950000e+00   3.636769259887764e-01   1.014298295200000e+01  1.80778887e+00   8.14194840e-01   3.60812740e-01
C     7.252678824974999e+00   1.086839639495010e+00   1.017563424000000e+01 -9.96103820e-01   1.52457610e-01  -3.06444420e-01
C     8.633172618225000e+00   2.326866373170339e+00   6.641037352000000e+00 -1.14532861e+00   4.45746510e-01  -3.33355260e-01
C     2.417419325175000e+00   3.118025461951601e+00   6.613886040000000e+00  6.13412520e-01  -1.03548346e+00   1.08481594e+00
C     2.336487298950000e+00   2.531596471629826e+00   1.057403318400000e+01 -9.17371480e-01   1.27326521e+00  -1.37012694e+00
C     3.554203017750000e+00   3.288094692191509e+00   1.046101691200000e+01  1.21862894e+00  -2.57174886e+00   2.43503960e-01
C     3.632892177450000e+00   2.414045165843111e+00   6.695244232000000e+00  1.84207779e+00  -2.17888213e+00  -1.13576145e+00
C     4.947829221750000e+00   3.049804937651472e+00   6.592047704000001e+00 -3.28177027e+00   5.65702080e-01  -6.75921100e-02
C     4.825044120749999e+00   2.520894316319980e+00   1.038586916000000e+01 -1.34193577e+00   9.15391940e-01  -9.47088570e-01
C     6.051789171525001e+00   3.239667295318655e+00   1.022122144000000e+01 -2.10945939e+00   1.28086235e+00  -1.85741160e-01
C     6.097123183725000e+00   2.272322717913448e+00   6.534967551999999e+00  1.93264248e+00   1.20078970e+00   5.65733340e-01
C     7.374122029274999e+00   3.007628096449977e+00   6.634744496000000e+00 -4.17567100e-01  -2.39715613e+00  -5.54904720e-01
C     7.205391534449999e+00   2.504658113708151e+00   1.016978447200000e+01  2.87974488e+00  -4.47724130e-01   1.07344889e+00
C     8.440323515774999e+00   3.189008334794482e+00   1.037253857600000e+01  1.99498792e+00   1.86591764e+00  -9.10566350e-01
C     9.835820913599999e+00   4.531808229031684e+00   6.587386576000000e+00  8.34913040e-01  -8.17144230e-01  -9.71061420e-01
C     3.716471798550000e+00   5.175013462942924e+00   6.478624248000000e+00 -2.64515016e+00   2.37175180e+00   1.87912990e-01
C     3.568030669425000e+00   4.667395782186938e+00   1.030831597600000e+01  3.59087000e-02   4.88954370e-01  -5.35667600e-02
C     4.774121263350000e+00   5.370573112444941e+00   1.022628540000000e+01  2.59594274e+00   1.10993431e+00  -1.77069040e-01
C     4.908335632649999e+00   4.502360682880460e+00   6.487573320000000e+00  1.97759674e+00  -2.46115297e+00   5.58499930e-01
C     6.168097509674999e+00   5.142204513968722e+00   6.479891496000000e+00  1.43122540e-01  -3.43077500e-01   7.07624600e-02
C     6.067667197875000e+00   4.692809542482462e+00   1.017953920800000e+01 -1.35322023e+00  -2.10060710e-01   6.79716640e-01
C     7.281469815450000e+00   5.453022296645524e+00   1.021800884800000e+01  2.71322320e-01  -3.55002892e+00   2.00233540e-01
C     7.396828117949999e+00   4.367625088148322e+00   6.546467712000000e+00 -3.06975530e-01   4.08002335e+00  -3.36392540e-01
C     8.616413477624999e+00   5.186404908526241e+00   6.437131600000000e+00 -2.39382152e+00  -4.79342130e-01   7.05948360e-01
C     8.536287284549999e+00   4.648967209981895e+00   1.020261704800000e+01 -2.38282030e+00  -2.39574800e-02   9.93677810e-01
C     9.744721427925001e+00   5.372946722535593e+00   1.023448783200000e+01 -8.07345570e-01  -8.85064320e-01  -2.32755690e-01
