72
Lattice="7.395 0 0 3.6975 6.40425786098592 0 0 0 13.6 " PBC="1 1 1" Properties=species:S:1:pos:R:3:force:R:3 Energy="-574.84682903"
C     3.721630032900000e+00   6.125561849429022e+00   1.151917280000000e-01 -8.24407630e-01   3.84181381e+00  -6.99347400e-02
C     1.212541881000000e+00   5.681113398628669e-01   3.892075200000000e-02  1.59856460e-01  -2.47546338e+00   5.47736090e-01
C     1.452565833000000e+00   1.015387526678725e+00   3.319924968000000e+00 -1.59262996e+00   2.37936920e-01   3.86772690e-01
C     2.637225790875000e+00   1.841108409810470e+00   3.129235560000000e+00 -1.29815356e+00  -2.63845451e+00   6.53516590e-01
C     6.109996880400000e+00   6.200700573282416e+00   2.219407120000000e-01  1.36593728e+00   5.75479310e-01  -3.70947020e-01
C     3.661449042225000e+00   5.558884935241638e-01   1.919963680000000e-01  9.51992740e-01  -1.17617461e+00  -6.05577850e-01
C     3.796633006950000e+00   1.004377966991599e+00   3.269834672000000e+00  2.04508124e+00   2.15256382e+00   9.94754260e-01
C     5.026290911249999e+00   1.708620261289141e+00   3.512820296000000e+00  1.60495782e+00   4.79145550e-01  -1.08970696e+00
C     8.650320883725000e+00   6.235516744755098e+00   3.103239840000000e-01 -2.70913785e+00  -1.55726489e+00  -7.87318320e-01
C     6.185362616174999e+00   5.064400658206890e-01   2.693945120000000e-01 -5.92534900e-02  -7.64447180e-01  -6.88075450e-01
C     6.309301152300000e+00   1.037852638570348e+00   3.649511175999999e+00 -2.68055500e-01   2.82777030e-01  -7.65320380e-01
C     7.560318737625000e+00   1.676176995438746e+00   3.417917184000000e+00  1.13314369e+00   3.10265379e+00  -2.76058220e-01
C     1.181910792675000e+00   2.010276753097213e+00   1.356526560000000e+01  1.84375228e+00  -3.42029272e+00  -1.93360300e-01
C     2.401955196975000e+00   2.715840117706116e+00   1.344640921600000e+01  1.85754431e+00  -3.62073536e+00   4.19591090e-01
C     2.603606567925000e+00   3.267966558035579e+00   3.156194160000000e+00  2.13892355e+00  -2.14014945e+00   1.41811832e+00
C     3.908269997550000e+00   3.857830279932830e+00   3.519139536000000e+00 -3.11426680e+00   2.24522056e+00  -1.37302935e+00
C     3.696956652374999e+00   1.956632127558709e+00   1.350190388000000e+01 -1.12408561e+00  -2.69818280e-01   2.18777080e+00
C     4.926568005149999e+00   2.636154178644387e+00   2.528045520000000e-01 -7.27097930e-01  -9.57049130e-01  -1.38759202e+00
C     5.113816245524999e+00   3.161395352349835e+00   3.440834951999999e+00 -2.77287287e+00  -3.31526310e+00   9.68180510e-01
C     6.289809226425000e+00   3.811061201590242e+00   3.485511224000000e+00  4.06569690e+00   2.66838536e+00  -4.41548170e-01
C     6.169600469475000e+00   1.948016735629965e+00   3.111070720000000e-01 -2.01495792e+00  -3.14356552e+00  -3.85754700e-01
C     7.362217595249999e+00   2.596964731606846e+00   1.873538720000000e-01  3.87301810e-01   2.25593390e-01   5.64316080e-01
C     7.559276153550000e+00   3.197979611332507e+00   3.303644272000000e+00 -2.00609577e+00  -4.20101813e+00   4.92529880e-01
C     8.732232858374999e+00   3.919787055790406e+00   3.198058904000000e+00  2.57413513e+00  -1.20260456e+00   1.28298427e+00
C     2.445664010025000e+00   4.054867711936041e+00   1.356883886400000e+01 -1.22223941e+00   3.34376405e+00   3.83838330e-01
C     3.712946010450000e+00   4.736097906678138e+00   1.237341600000000e-02 -1.19222572e+00   2.95447900e-01   7.85841790e-01
C     3.914551532400000e+00   5.296009362862218e+00   3.692541440000000e+00 -2.04388920e-01   3.87571120e-01  -7.38666840e-01
C     5.177034584549999e+00   5.964528066390895e+00   3.554095616000000e+00 -1.88747166e+00   2.32481181e+00  -4.54426740e-01
C     4.901793941699999e+00   4.030698619155609e+00   2.470479440000000e-01  6.53834880e-01   9.31019820e-01  -3.77151200e-01
C     6.099664327574999e+00   4.752883274401463e+00   4.063375360000000e-01  1.73823809e+00  -2.70595060e-01  -2.71595850e-01
C     6.356367480225000e+00   5.255883293112652e+00   3.474196160000000e+00 -3.76389660e-01  -8.88999510e-01  -4.17916080e-01
C     7.537072998824999e+00   6.001756593714282e+00   3.354703840000000e+00  1.53409218e+00  -1.37157670e+00   1.14887019e+00
C     7.374593756325000e+00   3.904311166671716e+00   4.581408880000000e-01 -5.11986950e-01   8.63092107e+00  -2.08682325e+00
C     8.563686868800000e+00   4.751748503951249e+00   1.897240800000000e-01  1.38700275e+00   2.08330300e-02   9.96903990e-01
C     8.801405614425001e+00   5.235340739430602e+00   3.530492408000000e+00 -1.68166780e-01   6.01485625e+00  -5.80166770e-01
C     1.006992405885000e+01   6.060575539390773e+00   3.723821168000000e+00 -1.41801053e+00  -4.40321081e+00  -1.12464699e+00
C     7.387287236850000e+00   1.465674611284884e-01   6.644428784000000e+00  3.01194470e-01   4.86329960e-01   6.63328780e-01
C     1.213179810675000e+00   8.845059502841564e-01   6.585003312000000e+00 -5.47821200e-01   1.52390859e+00   6.18941000e-03
C     1.089671441700000e+00   4.295950555456560e-01   1.022893277600000e+01  1.65745780e+00   3.81193520e-01  -3.53617920e-01
C     2.298113867475000e+00   1.115105343900748e+00   9.862812615999999e+00  1.52222709e+00   8.62878590e-01   1.39389424e+00
C     2.439608059650000e+00   2.313371641220640e-01   6.703188808000000e+00  1.08923815e+00  -3.13569715e+00   5.22253270e-01
C     3.755740690575000e+00   8.595149990925499e-01   6.714243703999999e+00 -1.40427747e+00  -7.66624830e-01  -1.14802020e-01
C     3.608853694650000e+00   4.105810701296304e-01   9.935001143999999e+00 -4.05198746e+00  -4.52951080e-01  -2.27035000e-02
C     4.783978872300000e+00   1.094812364147502e+00   1.003107943200000e+01  2.81084319e+00   1.48339149e+00   1.59132048e+00
C     5.009428647375000e+00   1.397215016038842e-01   6.829019408000000e+00 -8.89395500e-01   1.66803753e+00  -4.81591260e-01
C     6.221014096050000e+00   9.286002262889353e-01   6.771307264000000e+00 -1.38248517e+00  -2.04027668e+00  -8.41937140e-01
C     6.037611403574999e+00   4.675805661480954e-01   1.033815818400000e+01 -5.34795800e-02  -7.24496090e-01  -7.06184730e-01
C     7.302951292125000e+00   1.133214151510841e+00   1.042657368800000e+01 -2.06609327e+00   1.42759691e+00  -1.40334069e+00
C     8.553617134274999e+00   2.352598296996347e+00   6.497493432000000e+00  1.63584999e+00  -9.80046940e-01  -1.62861890e-01
C     2.447457223575000e+00   3.005763304646302e+00   6.465085719999999e+00 -5.88392140e-01  -2.45162124e+00   1.14821506e+00
C     2.337284073225000e+00   2.604149476372244e+00   9.851626344000000e+00 -3.05771060e-01  -3.62823092e+00   6.51377370e-01
C     3.575765691525000e+00   3.221916613808092e+00   9.932905384000000e+00  5.12133300e-01   2.88514098e+00   1.49195566e+00
C     3.690736126275000e+00   2.246411474867360e+00   6.587991368000000e+00  8.21272610e-01   2.89964633e+00   9.24153600e-02
C     4.916419144124999e+00   3.062660140411272e+00   6.671810616000000e+00 -6.04953350e-01  -4.68788363e+00  -2.92845860e-01
C     4.797633037275000e+00   2.489593698156965e+00   1.015072352800000e+01 -7.72822130e-01   2.57029730e+00  -9.42492800e-01
C     6.005440195575000e+00   3.257357264464703e+00   1.031699726400000e+01  9.40409880e-01  -9.11093980e-01  -6.25082870e-01
C     6.192562720949999e+00   2.316253685342797e+00   6.614103640000000e+00 -1.84336765e+00   2.80171663e+00   7.53617460e-01
C     7.353400795574999e+00   3.118332353988252e+00   6.512666680000000e+00  1.11595473e+00  -8.01798090e-01   8.63482230e-01
C     7.270968028050000e+00   2.537078004017357e+00   1.028504420000000e+01  1.28355056e+00   1.99993783e+00   6.26969600e-02
C     8.556816544049999e+00   3.294620374780535e+00   1.010626961600000e+01 -3.24907881e+00   4.36568420e-01   5.28810300e-02
C     9.798367641975000e+00   4.376059559792521e+00   6.639681840000000e+00  2.63945477e+00   1.06040574e+00  -4.58950330e-01
C     3.610948032600000e+00   5.127396652987409e+00   6.661434632000000e+00  9.55810230e-01   2.73505170e-01   5.57856530e-01
C     3.481766774250000e+00   4.700725653495471e+00   1.018190016800000e+01  4.13604297e+00  -7.65610210e-01   1.37442520e-01
C     4.753912281300000e+00   5.443944261128974e+00   1.031755364000000e+01  7.50965510e-01  -3.43413561e+00  -1.11943732e+00
C     4.827414255224999e+00   4.416385250259583e+00   6.743581079999999e+00  2.47121463e+00   2.03079087e+00  -2.13059470e-01
C     6.099391784849999e+00   5.126506076889397e+00   6.827720472000000e+00  3.51334300e-02   4.00774028e+00  -1.17122197e+00
C     6.011341183724999e+00   4.670810276307575e+00   1.024975764000000e+01 -1.70398600e-02   1.91798362e+00  -1.34812370e-01
C     7.299030389175000e+00   5.413847899613954e+00   1.010844996800000e+01 -2.71662154e+00  -8.97084860e-01   3.88494330e-01
C     7.387654583474999e+00   4.583706093238873e+00   6.678974960000000e+00 -2.05745384e+00  -4.90864540e+00  -4.39432500e-02
C     8.661082198650000e+00   5.119898547884921e+00   6.738277624000000e+00 -1.69262459e+00   3.07671098e+00   1.63430540e-01
C     8.507448485399999e+00   4.745553152982643e+00   1.014001801600000e+01  6.60019530e-01  -1.56982717e+00  -1.11435600e-02
C     9.729041069925000e+00   5.475972787240356e+00   1.022263040000000e+01 -1.01260278e+00  -1.53913873e+00  -2.27942190e-01
