72
Lattice="7.395 0 0 3.6975 6.40425786098592 0 0 0 13.6 " PBC="1 1 1" Properties=species:S:1:pos:R:3:force:R:3 Energy="-569.61163567"
C     3.718585141650000e+00   6.375496978376527e+00   1.334306200000000e+01  6.86445510e-01  -9.60375960e-01   6.29224130e-01
C     1.172370651075000e+00   7.628048134893186e-01   1.333866824800000e+01  2.76802474e+00  -3.85448920e+00   1.02345876e+00
C     1.240092471150000e+00   7.516409752303452e-01   3.398612664000000e+00  2.25795282e+00  -1.08923550e-01   7.79288440e-01
C     2.468544398850000e+00   1.552227259666684e+00   3.398498968000000e+00  1.94100966e+00  -5.30222670e+00   3.93968060e-01
C     6.029438671425000e+00   6.362837105481457e+00   1.345135390400000e+01  5.20552530e+00   5.95865780e-01  -7.29245810e-01
C     3.725286379725000e+00   7.461309438953371e-01   1.322396652800000e+01 -1.26934507e+00  -3.18637369e+00   3.12467765e+00
C     3.739221369825000e+00   7.674312493673826e-01   3.500532288000000e+00 -4.02343563e+00  -2.07615502e+00   1.34768360e-01
C     4.880558200875000e+00   1.470278440132702e+00   3.528942008000000e+00  4.79646620e+00   6.69292000e-01   7.46004620e-01
C     8.690281984724999e+00   6.394137147261263e+00   1.336977158400000e+01 -1.55672879e+00  -9.02582530e-01   3.86348930e-01
C     6.275452314600000e+00   6.907267485097981e-01   1.345024373600000e+01 -6.53309003e+00   1.09684211e+00   8.15672470e-01
C     6.167069123999999e+00   8.038465640277072e-01   3.545662936000000e+00  1.83142526e+00  -2.69986145e+00   5.57075600e-01
C     7.501402070099999e+00   1.502431208846568e+00   3.436082704000000e+00 -6.27709946e+00  -2.46722444e+00   1.89481170e-01
C     1.263922784700000e+00   2.139127539324376e+00   1.338752067200000e+01 -2.07321161e+00  -1.01095140e-01  -8.23210770e-01
C     2.445070043625000e+00   2.828099585223113e+00   1.308141921600000e+01  3.83118320e-01   5.91199550e-01   2.80278918e+00
C     2.571886196100000e+00   2.897737243702501e+00   3.441786544000000e+00 -4.81533467e+00   2.91220546e+00  -2.98211440e-01
C     3.771739403324999e+00   3.634599689452532e+00   3.532639304000000e+00  6.11069800e-02  -3.49509504e+00   1.11093470e+00
C     3.667816137225000e+00   2.153966396913732e+00   1.336643455200000e+01  1.64030923e+00  -1.20195045e+00  -2.17716197e+00
C     4.939313657400000e+00   2.815650028156165e+00   1.350282432800000e+01 -2.14934509e+00   1.35104771e+00   1.49023923e+00
C     4.986540567750000e+00   2.865841605941714e+00   3.707250248000000e+00 -1.35907773e+00   2.49799659e+00  -2.72486857e+00
C     6.219211379925000e+00   3.617040751422299e+00   3.525384112000000e+00 -5.06339387e+00  -5.16776560e-01   6.96945130e-01
C     6.125991414974999e+00   2.177390354292153e+00   1.569996240000000e-01  2.22683469e+00  -5.37556187e+00  -2.52470074e+00
C     7.396603716674999e+00   2.758839457744570e+00   3.140280800000000e-02  3.83766400e-01   1.81135872e+00  -2.58876960e-01
C     7.304549869275000e+00   2.864608722261086e+00   3.370339080000000e+00  7.51131175e+00   2.19367029e+00   3.99166070e-01
C     8.557349649599999e+00   3.627186184596375e+00   3.426223928000000e+00  3.69503611e+00  -9.51279340e-01  -6.80942440e-01
C     9.806512051275000e+00   4.248266436750937e+00   1.319117706400000e+01  4.51616555e+00  -1.97728729e+00   5.33987520e-01
C     3.735061608375000e+00   4.915863311403244e+00   1.332457633600000e+01 -2.90370015e+00   2.33922478e+00   4.11237400e-02
C     3.731462092125000e+00   4.988241672033820e+00   3.614132952000000e+00 -6.96010580e-01   2.82830026e+00   6.27759400e-02
C     4.936791555675000e+00   5.682563898991379e+00   3.553749632000000e+00  5.41211900e-01   3.42388936e+00  -5.97791200e-01
C     4.909187499674999e+00   4.256352836980445e+00   2.191626400000000e-02 -5.98954170e-01  -2.43080754e+00  -1.12372069e+00
C     6.106890129975000e+00   4.912880080006899e+00   1.127816720000000e-01  2.46864724e+00   2.47883117e+00  -1.66445817e+00
C     6.168295104075000e+00   5.036252984273512e+00   3.499184528000000e+00  1.74000032e+00  -1.53612927e+00   6.97888480e-01
C     7.440572168175000e+00   5.658658981847672e+00   3.597102488000000e+00 -2.32345955e+00   5.62454552e+00  -1.89167337e+00
C     7.380530240474999e+00   4.127685148485499e+00   1.357069716800000e+01 -1.22399530e-01   4.16655656e+00   6.93160640e-01
C     8.631865810800001e+00   4.829925023477955e+00   1.342409284000000e+01 -2.99901050e+00   5.56135087e+00  -4.69058790e-01
C     8.655181691174999e+00   5.059870222154148e+00   3.471838600000000e+00  4.96434820e-01  -3.10361457e+00   1.58277362e+00
C     9.897674653274999e+00   5.729822454762206e+00   3.693505000000000e+00 -1.82849800e-01   2.07488393e+00  -2.19063045e+00
C     3.712741390799999e+00   6.383987743447314e+00   7.262474119999999e+00 -6.19243530e-01   3.93813265e+00  -2.44318861e+00
C     1.295162555475000e+00   7.152620367546654e-01   6.921306423999999e+00 -2.79707077e+00   1.38855993e+00   4.41886200e-02
C     1.310708472375000e+00   6.662794547679270e-01   1.021582686400000e+01 -8.25805974e+00  -2.02120252e+00  -8.04220470e-01
C     2.432559700275000e+00   1.355923115188442e+00   1.023346932800000e+01  2.61732244e+00   2.21543403e+00  -9.11008170e-01
C     2.465631878100000e+00   3.328420894999200e-03   6.664921944000000e+00  1.55377377e+00   1.02672113e+00  -1.56307530e-01
C     3.746464920225000e+00   7.106095995896898e-01   6.456256600000000e+00 -6.53340280e-01   9.80328940e-01   2.27951368e+00
C     3.649047738149999e+00   6.456456404113716e-01   1.035549723200000e+01  2.53387484e+00   1.81380100e-01   2.04208826e+00
C     4.922888992650000e+00   1.369118255955450e+00   1.046330728800000e+01 -3.18805786e+00   1.45833720e+00  -3.68490477e+00
C     4.976502557775000e+00   8.857024577801400e-03   6.917265864000000e+00 -3.61760142e+00   1.38625034e+00  -2.29514207e+00
C     6.114982219650000e+00   6.979325632835557e-01   7.042976920000000e+00  5.48839803e+00   3.66222691e+00   1.12152801e+00
C     6.111324393824999e+00   7.149921613284450e-01   1.028291838400000e+01  1.77798620e-01  -2.63316824e+00   1.04810716e+00
C     7.251873842249999e+00   1.432645547968034e+00   1.011817301600000e+01  6.64075018e+00  -4.17087010e+00   4.95464740e-01
C     8.610622268249999e+00   2.227568931434246e+00   6.786009000000000e+00  1.88834622e+00  -4.23318537e+00   9.38270070e-01
C     2.473187460525000e+00   2.866647197537924e+00   6.710749320000000e+00  1.23846019e+00   3.00492140e-01  -1.49157198e+00
C     2.422183036274999e+00   2.803228137483174e+00   1.003738235200000e+01  8.79267130e-01   2.18550450e-01   8.35566150e-01
C     3.699863589900000e+00   3.509267274408496e+00   1.000141334400000e+01 -2.80300614e+00  -1.01060926e+00   3.89900440e-01
C     3.738350164875000e+00   2.183205548514191e+00   6.410705576000000e+00 -1.65512582e+00  -1.97420617e+00   2.44889438e+00
C     4.932951073349999e+00   2.910175721403351e+00   6.640846816000000e+00  1.57961829e+00  -2.29119754e+00   1.06110328e+00
C     4.908973340475000e+00   2.755480168326686e+00   1.001851480000000e+01  1.14338244e+00   1.13434772e+00   2.17612097e+00
C     6.158242230150000e+00   3.488266432033984e+00   1.010729424000000e+01 -1.20122073e+00   1.53544702e+00   1.03746301e+00
C     6.217290084975000e+00   2.201032312608129e+00   6.948337648000000e+00 -4.89452425e+00  -3.41828126e+00  -1.56185164e+00
C     7.378955512199999e+00   2.851815896972843e+00   6.892817824000001e+00  2.26266539e+00   4.46950473e+00  -2.88424400e-01
C     7.383562929975000e+00   2.745575086950096e+00   1.015749388000000e+01 -1.31312788e+00   5.42820873e+00  -2.83846460e-01
C     8.590763920124999e+00   3.532728952865713e+00   1.013870072000000e+01  1.53691475e+00  -6.73741230e-01   9.87370860e-01
C     2.527508024625000e+00   4.278548585786476e+00   6.864045392000000e+00 -4.94277278e+00   4.43260780e-01   7.90255240e-01
C     3.606178923150000e+00   5.042998653120028e+00   7.085575112000000e+00  6.62042199e+00  -3.16015414e+00  -1.39459945e+00
C     3.574076266800000e+00   4.907917612718921e+00   1.011072266400000e+01  4.50570221e+00   1.17691769e+00  -1.19116870e-01
C     4.874262837374999e+00   5.624525824475759e+00   1.016609547200000e+01  6.78378070e-01   1.46839010e+00   9.77644100e-01
C     4.936676378550001e+00   4.254547924987761e+00   6.840723160000000e+00 -1.00393924e+00   3.76534723e+00   1.40306710e-01
C     6.189410232449999e+00   4.979092357127289e+00   6.713498288000000e+00 -2.81998274e+00   1.42517585e+00   1.22851051e+00
C     6.108155895149999e+00   4.976814234521330e+00   1.035277192800000e+01  1.94290595e+00  -3.24155456e+00  -9.56783950e-01
C     7.426090280850000e+00   5.648309893273648e+00   1.060758098400000e+01 -3.65094705e+00   4.11872250e-01  -2.64154037e+00
C     7.393221983175000e+00   4.380916677038702e+00   6.792828584000000e+00  2.30030735e+00  -4.22226128e+00   1.73158740e-01
C     8.653914779774999e+00   5.046154095010229e+00   6.907312296000000e+00 -1.60051500e-02  -3.43936754e+00  -3.39814280e-01
C     8.649298598925000e+00   4.955057625676759e+00   1.044840005600000e+01 -1.69519332e+00  -1.47735837e+00  -9.96526680e-01
C     9.838049211974999e+00   5.672366014945430e+00   1.033541057600000e+01 -5.73721130e-01  -3.57338900e-02  -5.56011660e-01
