72
Lattice="7.395 0 0 3.6975 6.40425786098592 0 0 0 13.6 " PBC="1 1 1" Properties=species:S:1:pos:R:3:force:R:3 Energy="-579.69978141"
C     3.652452174300000e+00   6.312917388442065e+00   2.209578400000000e-02  6.76728080e-01  -3.20281543e+00  -3.86070450e-01
C     1.219651286100000e+00   5.102171049787813e-01   1.353217353600000e+01 -2.53902630e-01   2.38221913e+00   5.30216080e-01
C     1.276992855600000e+00   8.905512494911033e-01   3.317465544000000e+00  1.60991935e+00  -3.65244730e-01   5.77710250e-01
C     2.554184303925000e+00   1.527298749989212e+00   3.208738440000000e+00  1.27637600e-01   2.25829400e+00   8.00556710e-01
C     6.171840119175000e+00   6.252876510365886e+00   6.113322400000000e-02 -1.25540355e+00  -2.70050000e-03  -7.20093500e-02
C     3.687218472675000e+00   5.558056224274555e-01   7.562007999999999e-02 -1.32224680e+00   6.54816960e-01  -6.31618570e-01
C     3.814702319700000e+00   9.038207436918660e-01   3.347674000000000e+00 -1.15696948e+00  -1.38061776e+00   2.17759710e-01
C     5.029522378349999e+00   1.610722213938037e+00   3.491887584000000e+00 -2.16620910e-01  -8.55590000e-02  -5.29895550e-01
C     8.559827418299999e+00   6.238326997146644e+00   8.474119199999999e-02  3.02297697e+00   2.14654193e+00  -1.65114800e-01
C     6.112403620125000e+00   5.424533852151414e-01   5.982109600000000e-02 -1.52339800e-02   2.01390364e+00   3.42843490e-01
C     6.252635966474999e+00   8.884731318581118e-01   3.569293072000000e+00  2.54245050e-01  -5.43264290e-01  -5.88571910e-01
C     7.482394701600000e+00   1.633437219971357e+00   3.420418360000000e+00 -1.20743961e+00  -3.23169788e+00   2.02062870e-01
C     1.213183360275000e+00   1.936056527906101e+00   1.348589559200000e+01  1.38693980e-01   2.20932004e+00   5.36746350e-01
C     2.489913138750000e+00   2.657641232275630e+00   1.336046592000000e+01 -3.11106965e+00   1.99090363e+00   1.17185435e+00
C     2.577017771475000e+00   2.972310407544278e+00   3.279973608000000e+00 -1.93306721e+00   1.35539300e+00   4.57552360e-01
C     3.727937930925000e+00   3.759348996818416e+00   3.461767120000000e+00  2.63901621e+00  -2.50322126e+00  -3.70130450e-01
C     3.679362320475000e+00   1.976340206441601e+00   1.351651640000000e+01  6.03747030e-01  -4.29722530e-01   3.10114020e-01
C     4.874049491625000e+00   2.692365182435128e+00   7.425844800000000e-02  1.71490116e+00   7.93826950e-01   1.24978090e-01
C     4.982171860575000e+00   3.018539030566059e+00   3.440079336000000e+00  1.76991890e+00   1.64295106e+00   2.97479480e-01
C     6.286209229499999e+00   3.724119366458291e+00   3.416842376000000e+00 -2.88867626e+00   6.26834360e-01   3.94138280e-01
C     6.121598674050000e+00   1.974011426155969e+00   1.752508240000000e-01  8.20058240e-01   1.15869909e+00  -6.58635420e-01
C     7.388275911375000e+00   2.734600622596042e+00   1.505835520000000e-01 -1.07909410e-01  -8.48017990e-01  -5.35375870e-01
C     7.477816309200000e+00   2.984974251079220e+00   3.360354096000000e+00  1.46053179e+00   3.75605530e+00  -6.33751600e-02
C     8.746743105524999e+00   3.737143129284966e+00   3.330273616000000e+00 -1.39711425e+00  -1.09123781e+00  -1.31985400e-02
C     2.434837582125000e+00   4.140514029745494e+00   1.345464143200000e+01  1.45703873e+00  -1.14625826e+00   3.56874790e-01
C     3.679241449200000e+00   4.859875303871188e+00   1.355965981600000e+01 -2.98742040e-01  -4.58126210e-01   1.81633400e-01
C     3.745881380775000e+00   5.147510441605733e+00   3.597240936000000e+00  1.14190420e+00   3.41828190e-01  -6.16720740e-01
C     4.977187371750000e+00   5.906828264775438e+00   3.519951592000000e+00  8.21339550e-01  -2.14743413e+00  -5.60053610e-01
C     4.912457790525000e+00   4.125066703616859e+00   8.563362400000001e-02  6.20774900e-02   3.20749610e-01  -5.40672200e-02
C     6.181505532075000e+00   4.853828851897826e+00   2.111791680000000e-01 -2.48711692e+00   3.01620830e-01  -4.94491780e-01
C     6.247580226825000e+00   5.174288052655122e+00   3.441128168000000e+00 -1.09227060e-01   1.61620100e-02  -1.31200910e-01
C     7.496993097150000e+00   5.889674203927114e+00   3.387009416000000e+00 -1.18983806e+00  -1.73747630e-01   1.25548440e-01
C     7.399679962724999e+00   4.246246021481264e+00   2.441216320000000e-01  7.89074300e-01  -5.74684751e+00  -1.19585177e+00
C     8.626045058399999e+00   4.880918542432733e+00   3.445464800000000e-02 -3.99491750e-01  -2.11619960e+00   2.15847780e-01
C     8.704956289949999e+00   5.183593631453438e+00   3.414863848000000e+00  2.49773100e-01  -2.80916157e+00   1.56079050e-01
C     9.930521209649999e+00   5.806778899124003e+00   3.562071744000000e+00  2.68816000e-02   4.23063272e+00  -1.48105240e-01
C     7.445789266724999e+00   1.240732098636030e-01   7.014904752000000e+00 -1.70671278e+00  -1.53728100e-01  -8.94527820e-01
C     1.256395673025000e+00   8.244568107153378e-01   6.828966231999999e+00  7.45679120e-01  -3.08665230e-01   6.13792500e-02
C     1.141121969325000e+00   5.759723742582811e-01   1.008192752000000e+01 -2.82853800e-01  -6.35447770e-01   5.69697140e-01
C     2.386547492625000e+00   1.282600895034459e+00   9.971568280000000e+00 -1.72021521e+00  -2.09637830e-01   2.41515540e-01
C     2.492257205850000e+00   1.006297194987084e-01   6.824907856000000e+00 -4.39833370e-01   1.36666386e+00  -1.20656370e-01
C     3.693116280975000e+00   8.367590058089263e-01   6.795263120000000e+00  7.21295200e-01   8.32517820e-01  -1.51297170e-01
C     3.569408173050000e+00   5.866834314865524e-01   1.007376697600000e+01  2.93993584e+00  -1.16884073e+00   2.69981770e-01
C     4.836956393474999e+00   1.295176551938670e+00   1.009446998400000e+01 -4.29645180e-01  -7.19897630e-01   2.53400100e-01
C     4.924091900325000e+00   1.575354571821030e-01   6.909686856000000e+00 -4.15729200e-01  -1.91579804e+00  -2.56023900e-02
C     6.142828905600000e+00   8.262231690757045e-01   6.961273560000000e+00  2.45189533e+00   1.91116260e-01  -2.29232520e-01
C     6.086117427075000e+00   5.176947804986959e-01   1.023606352800000e+01 -9.91824910e-01   2.03055415e+00  -4.13486750e-01
C     7.297454514675000e+00   1.286712044325107e+00   1.019047252000000e+01  4.45428650e-01  -9.09641290e-01  -3.14058300e-01
C     8.686501734675000e+00   2.237591146687096e+00   6.710613456000000e+00 -1.23183614e+00  -4.15403380e-01   5.70214620e-01
C     2.475997893300000e+00   2.973424172028710e+00   6.661747840000000e+00  1.61226356e+00   1.04640512e+00   8.52482950e-01
C     2.371055078550000e+00   2.668020228733860e+00   9.894953903999999e+00 -4.82587790e-01   2.93547197e+00   8.70041290e-01
C     3.610874711175000e+00   3.450649038173337e+00   9.930348583999999e+00 -1.00949507e+00  -1.79614571e+00   5.72654740e-01
C     3.726399512100000e+00   2.272475587548567e+00   6.693685672000000e+00 -1.06206034e+00  -1.05431693e+00   2.18702110e-01
C     4.951022641574999e+00   2.934771337757259e+00   6.747926008000000e+00  1.36049525e+00   2.26991809e+00   5.18200060e-01
C     4.813363237575000e+00   2.749122917719379e+00   1.002450913600000e+01  2.03308347e+00  -1.91013232e+00   6.15959110e-01
C     6.087915558300000e+00   3.428398532962604e+00   1.019340114400000e+01 -1.81027892e+00  -2.98873340e-01  -5.00801500e-01
C     6.185877049349999e+00   2.243883009821653e+00   6.859648240000000e+00 -2.00235550e-01  -1.18452931e+00  -1.80116340e-01
C     7.446644313599999e+00   2.895425818955670e+00   6.825280903999999e+00 -7.52069230e-01   1.97168980e+00  -9.92525100e-02
C     7.294063537424999e+00   2.725981900453212e+00   1.017832309600000e+01 -9.21672230e-01  -2.22424310e+00  -1.36409860e-01
C     8.484375641700000e+00   3.388576345248495e+00   1.006020315200000e+01  3.05275059e+00   8.61970460e-01  -1.30294350e-01
C     9.913110902324998e+00   4.399965245447172e+00   6.869515992000000e+00 -1.27993132e+00   1.64292270e-01  -4.11232050e-01
C     3.774774348300000e+00   5.097150239710730e+00   6.953884408000000e+00 -7.60613930e-01   1.19558350e-01  -4.92098140e-01
C     3.658154643675000e+00   4.839830681237753e+00   1.011090286400000e+01 -2.50000827e+00  -3.07097440e-01   1.50559500e-02
C     4.853507623650000e+00   5.521033209585894e+00   1.015383316800000e+01  5.48008700e-01   2.38126228e+00  -2.30215950e-01
C     5.017674405149999e+00   4.403709238634707e+00   6.826080448000000e+00 -2.67870950e+00  -1.55522777e+00   6.39037000e-02
C     6.194570500425000e+00   5.119132790772601e+00   6.850541000000000e+00  1.75187462e+00  -2.27623907e+00   1.25286720e-01
C     6.081084685875000e+00   4.826741274768013e+00   1.018483464000000e+01 -3.60977650e-01   2.02014660e-01  -4.70523100e-02
C     7.276680591600000e+00   5.543885138652261e+00   1.019246369600000e+01  1.34674555e+00   9.84202190e-01  -4.01529450e-01
C     7.424394681299999e+00   4.324136847064834e+00   6.867078464000000e+00  3.15556550e-01   2.08058212e+00  -3.01161410e-01
C     8.622701409150000e+00   5.116435765660019e+00   6.907676776000000e+00  1.48308335e+00  -1.21518421e+00  -1.36574430e-01
C     8.502827978475000e+00   4.816099447567209e+00   1.014752630400000e+01  1.40981615e+00   3.87815640e-01   2.34407650e-01
C     9.796850631674999e+00   5.508594155501838e+00   1.021647082400000e+01 -1.27415343e+00   4.10877300e-01  -6.39701220e-01
