72
Lattice="7.395 0 0 3.6975 6.40425786098592 0 0 0 13.6 " PBC="1 1 1" Properties=species:S:1:pos:R:3:force:R:3 Energy="-582.58251304"
C     3.696104637450000e+00   6.281428036799917e+00   1.352268631200000e+01 -4.47932590e-01   6.72791310e-01  -8.00443600e-02
C     1.252558592400000e+00   5.823861744624925e-01   1.355090590400000e+01 -1.60906703e+00   1.75550618e+00  -1.40568210e-01
C     1.308029448750000e+00   8.576159445093240e-01   3.514995072000000e+00 -5.58874000e-03   8.72958000e-02  -2.47318660e-01
C     2.513448095999999e+00   1.605762884736410e+00   3.572977856000000e+00  9.42912020e-01  -1.54570480e+00  -5.80241720e-01
C     6.170770284525000e+00   6.314583328039187e+00   1.350395816000000e+01 -1.08132706e+00  -1.40822287e+00   8.48575800e-02
C     3.684044575650000e+00   6.039032000205204e-01   1.350086837600000e+01 -2.97167020e-01   1.98802690e-01  -6.64979700e-02
C     3.754224974400000e+00   8.764801983765828e-01   3.511998720000000e+00 -1.00418878e+00  -1.99191589e+00   1.10523170e-01
C     4.986555394725000e+00   1.528698976927723e+00   3.481344048000000e+00 -1.33165540e-01   8.68440310e-01  -1.20734370e-01
C     8.581461047099999e+00   6.299512123974670e+00   1.349271789600000e+01  1.38055170e+00  -3.48405600e-01  -9.11357100e-02
C     6.119132293650000e+00   5.805742818287413e-01   1.350886449600000e+01  1.29604620e+00  -1.65207360e-01   7.64663000e-02
C     6.208468182749999e+00   8.325521128632709e-01   3.433316464000000e+00  1.36169257e+00   1.64697330e-01   1.80038970e-01
C     7.466591993324998e+00   1.548149092304014e+00   3.467883176000000e+00 -7.73931530e-01  -5.11506410e-01   7.41156200e-02
C     1.214499929100000e+00   2.051653574406837e+00   1.357435624800000e+01  3.51849320e-01  -1.42876611e+00  -2.37530020e-01
C     2.445114709425000e+00   2.750042056807446e+00   1.359845381600000e+01 -1.55026990e-01   3.41696370e-01  -5.60153790e-01
C     2.523735798150000e+00   3.003097148056606e+00   3.526867192000000e+00 -1.75211020e-01   7.31379540e-01   7.37385100e-02
C     3.752735140725000e+00   3.706801676821643e+00   3.506379472000000e+00  1.16760022e+00  -7.69511000e-02  -4.91703360e-01
C     3.671951051475000e+00   2.002354173783764e+00   1.351599892000000e+01  2.72675340e-01   1.76568212e+00   7.23070610e-01
C     4.918809873674999e+00   2.711549905365702e+00   1.355046635200000e+01 -5.97601740e-01   9.79260830e-01  -4.66260210e-01
C     4.968809465325000e+00   2.938738006990586e+00   3.479771480000000e+00  1.02270216e+00   2.16651796e+00   3.19110310e-01
C     6.236081482499999e+00   3.683959802440117e+00   3.498451216000000e+00 -1.29366881e+00  -1.62043963e+00  -2.78008020e-01
C     6.127466902350000e+00   1.985956007490655e+00   1.351528900000000e+01  8.34116230e-01   1.22943449e+00   1.65860000e-02
C     7.373484543300000e+00   2.731531766272109e+00   1.349781191200000e+01 -7.52893660e-01   2.09030010e-01   4.41398470e-01
C     7.460054998200000e+00   2.953863775332070e+00   3.496494312000000e+00  6.29636140e-01   1.57607524e+00  -7.10108600e-02
C     8.697709818524999e+00   3.708399282987399e+00   3.495109968000000e+00 -8.95189080e-01  -4.59223700e-02   2.91089400e-01
C     9.815690614350000e+00   4.199912945013787e+00   1.356077324800000e+01  1.35866990e+00  -1.70012395e+00  -2.87187310e-01
C     3.677363784750000e+00   4.875209274635700e+00   1.351694711200000e+01  5.01859800e-02  -7.01202000e-03   3.14074170e-01
C     3.794904166874999e+00   5.149612831376013e+00   3.422514392000000e+00 -8.82755700e-01  -1.23617496e+00   4.48987670e-01
C     5.026479742575000e+00   5.842583375669641e+00   3.447549408000000e+00 -4.36662790e-01  -3.76005550e-01   2.25462140e-01
C     4.917961778100000e+00   4.175823713328868e+00   1.352884956000000e+01 -8.44684740e-01  -1.59819910e+00  -5.11801400e-02
C     6.125137144575000e+00   4.876070967530763e+00   1.348139970400000e+01  7.66804630e-01   6.06118120e-01   2.22974920e-01
C     6.228461637524999e+00   5.080765778529441e+00   3.487796568000000e+00  6.54453140e-01   1.28729448e+00  -7.30480400e-02
C     7.463951164875000e+00   5.806787032531485e+00   3.491196024000000e+00 -7.90194960e-01   1.94647145e+00   2.23400020e-01
C     7.343050420799999e+00   4.165980881338677e+00   1.348721941600000e+01  1.43196246e+00  -5.96821150e-01  -1.32092700e-01
C     8.609335981949998e+00   4.887446274384273e+00   1.348045124000000e+01 -1.84474036e+00  -4.85595780e-01   4.57341140e-01
C     8.697495252600000e+00   5.153198639394406e+00   3.508911248000000e+00 -9.41959700e-02  -2.16548830e+00  -5.23484040e-01
C     9.928505850299999e+00   5.825601397230015e+00   3.437116848000000e+00  6.89751650e-01   7.71757640e-01   1.56107750e-01
C     7.446572545125000e+00   9.917512041096660e-02   6.897139223999999e+00 -6.42605610e-01  -4.86797830e-01   1.08234040e-01
C     1.261802268450000e+00   8.270080749190261e-01   6.929530615999999e+00  6.31847670e-01  -1.18472136e+00  -1.99545290e-01
C     1.167120570825000e+00   5.812210478300226e-01   1.007793374400000e+01 -1.30503111e+00  -1.41906310e-01   1.58212810e-01
C     2.374218437700000e+00   1.280997845249523e+00   1.013268870400000e+01  5.15105470e-01   8.31706100e-01   6.31659700e-02
C     2.512244079075000e+00   1.047928073206014e-01   6.873908520000000e+00 -9.59993840e-01   6.17742700e-01   2.27723940e-01
C     3.743260223025000e+00   7.767009002791039e-01   6.866557855999999e+00  1.00014698e+00   8.52912560e-01   1.59531540e-01
C     3.587035634550000e+00   5.662023586799581e-01   1.015203293600000e+01  2.07776228e+00   5.97358400e-01  -4.59972340e-01
C     4.876998173924999e+00   1.311702483176085e+00   1.008962552800000e+01 -2.32520703e+00  -8.55434330e-01   4.77417720e-01
C     5.009735096175000e+00   8.603217434551741e-02   6.881383760000000e+00 -1.05058951e+00   6.04828220e-01   2.24557800e-02
C     6.233065135950000e+00   8.139789965583277e-01   6.918385279999999e+00 -5.36242760e-01   9.56884950e-01  -4.01821060e-01
C     6.086947478850000e+00   6.150266274123972e-01   1.005191191200000e+01  5.54098630e-01  -7.69177270e-01   5.51450600e-02
C     7.330346180549999e+00   1.324584583818897e+00   1.004606894400000e+01  2.16646560e-01  -8.46868910e-01  -1.53701800e-02
C     8.652135136049999e+00   2.219448716723238e+00   6.979243104000000e+00 -3.96231270e-01   1.02158204e+00  -7.25315810e-01
C     2.503090141350000e+00   2.879389941529702e+00   6.933139511999999e+00 -4.04980600e-02   2.23760015e+00   1.30038270e-01
C     2.387395403325000e+00   2.715060719524554e+00   1.013891247200000e+01  6.69600600e-02   6.21902120e-01  -1.04152600e-01
C     3.623809194750000e+00   3.444155569001347e+00   1.010996310400000e+01 -5.19180050e-01  -1.21322112e+00   1.02822690e-01
C     3.745825141800000e+00   2.210493771042757e+00   6.903125943999999e+00 -8.73776930e-01  -1.23858269e+00  -7.02131900e-02
C     4.949412454275000e+00   2.914824636226503e+00   6.910760303999999e+00  8.57555880e-01   2.06132462e+00  -1.04196710e-01
C     4.850556094274999e+00   2.723338094723446e+00   1.010656922400000e+01  3.11762040e-01  -9.07896800e-02  -3.70272630e-01
C     6.074509125825001e+00   3.414230329256347e+00   1.003178282400000e+01  6.81860290e-01   1.35819244e+00   2.51273590e-01
C     6.204247930199999e+00   2.281771111662042e+00   6.900410568000000e+00 -2.36383450e-01  -2.54591076e+00   1.41613090e-01
C     7.413502733700000e+00   2.984684394368477e+00   6.915294544000000e+00  8.33856030e-01  -9.72595350e-01   1.40920360e-01
C     7.338954921899999e+00   2.737366941778669e+00   1.001763501600000e+01 -8.14810850e-01   4.20482700e-02   6.91626460e-01
C     8.563369697250000e+00   3.460308003920368e+00   1.011422493600000e+01  1.81948650e-01  -1.24074622e+00  -3.72409630e-01
C     9.895620470174999e+00   4.339875502883521e+00   6.922925776000000e+00 -9.72158050e-01  -4.76141300e-01  -3.31312040e-01
C     3.700223541525000e+00   5.061325909965726e+00   6.885618800000000e+00  1.52143550e+00   3.61315770e-01   2.91938780e-01
C     3.628249374600000e+00   4.836750425334828e+00   1.004719992000000e+01 -1.12089234e+00   1.47824372e+00   3.93827970e-01
C     4.858204964624999e+00   5.552432325234795e+00   1.007210546400000e+01 -9.73734120e-01   1.08602029e+00  -1.76053790e-01
C     4.950058481475000e+00   4.358722080999086e+00   6.922334448000000e+00 -4.09282880e-01   1.29925570e-01  -3.84344960e-01
C     6.170229636075000e+00   5.114017838104976e+00   6.896230472000000e+00  2.11362110e-01  -1.99024259e+00  -1.97214500e-01
C     6.065395712699999e+00   4.873965311588974e+00   1.005544043200000e+01  5.54118670e-01  -2.32322054e+00   2.91598110e-01
C     7.286587894949999e+00   5.550769075425975e+00   1.011225973600000e+01  1.16516208e+00   9.40811110e-01  -4.59038600e-02
C     7.400041578225000e+00   4.381835816126769e+00   6.884631984000000e+00  9.33494400e-01   1.26002891e+00   1.29384590e-01
C     8.665393113899999e+00   5.087338916669209e+00   6.893782200000000e+00  7.57917000e-03  -1.33292522e+00  -1.03044800e-02
C     8.553783041099999e+00   4.863022740439064e+00   1.010310680000000e+01 -6.81276750e-01   5.24841720e-01  -9.16169000e-03
C     9.762377545050001e+00   5.577887008738045e+00   1.005744439200000e+01  1.45278929e+00   5.29827100e-02   2.15934410e-01
