72
Lattice="7.395 0 0 3.6975 6.40425786098592 0 0 0 13.6 " PBC="1 1 1" Properties=species:S:1:pos:R:3:force:R:3 Energy="-580.93888338"
C     3.653034863325000e+00   6.219910721116693e+00   1.702373200000000e-01  2.04670571e+00   4.37720450e-01  -1.42185210e-01
C     1.278566215800000e+00   5.021053438881480e-01   2.053567360000000e-01 -3.08278685e+00   1.44404915e+00  -5.54078230e-01
C     1.317731171100000e+00   9.340777880365931e-01   3.412455968000000e+00  1.43766885e+00  -5.60565510e-01  -4.24814800e-02
C     2.550475674450000e+00   1.661171242889559e+00   3.539456440000000e+00  1.07644847e+00  -2.70056665e+00  -3.55786240e-01
C     6.186155766899999e+00   6.215462515734873e+00   6.679884799999999e-02 -1.07583146e+00   1.14687228e+00   5.03938520e-01
C     3.700253195475000e+00   5.184132101454306e-01   1.324691680000000e-01 -1.43271692e+00   8.14636880e-01  -3.42227270e-01
C     3.828362881349999e+00   9.441710265091104e-01   3.469852320000000e+00 -1.47809036e+00  -1.05905924e+00  -5.49592750e-01
C     5.060346661050000e+00   1.625429976368999e+00   3.334179400000000e+00 -1.42805522e+00   6.96653000e-01   1.16110660e-01
C     8.587486973775000e+00   6.261939047578415e+00   2.737068000000000e-02  1.60661731e+00  -2.52854964e+00   4.38607320e-01
C     6.105847545900000e+00   4.981671095597196e-01   7.493640800000000e-02  2.26850077e+00   2.48588172e+00  -1.82706780e-01
C     6.249994583399999e+00   8.989185404703506e-01   3.227415320000000e+00  1.23887177e+00   1.70065091e+00   2.27506400e-01
C     7.497297068625000e+00   1.597594702134031e+00   3.337207712000000e+00 -7.18478580e-01   2.27437668e+00   3.59352480e-01
C     1.238221499175000e+00   1.952438107171352e+00   2.416596240000000e-01 -7.10635120e-01   1.65962720e-01  -1.08437090e-01
C     2.452892548575000e+00   2.678365730923483e+00   3.659610400000000e-01  1.72926150e-01  -5.06960810e-01  -1.18423710e+00
C     2.564121002400000e+00   3.024278718587927e+00   3.526437296000000e+00  3.37873910e-01   2.86428595e+00  -7.32747160e-01
C     3.766802612250000e+00   3.764501670564836e+00   3.343414208000000e+00  1.71705058e+00   3.00102130e-01  -9.09568200e-02
C     3.674300701800000e+00   1.901910241805574e+00   2.534865920000000e-01  1.05045440e+00   3.08689981e+00  -3.98704470e-01
C     4.935648954225000e+00   2.640831912627909e+00   7.080200800000000e-02 -1.63567011e+00   1.58859957e+00   2.84824960e-01
C     5.027527096425000e+00   3.047411218191140e+00   3.289317896000000e+00  2.03966000e-03   8.12322790e-01   5.70525280e-01
C     6.265327228500000e+00   3.775207028003612e+00   3.318591624000000e+00  6.28009600e-02  -5.39977660e-01   3.47594690e-01
C     6.146388414900000e+00   1.947721435300041e+00   1.358679725600000e+01  5.03960280e-01  -2.58531080e-01   7.26968650e-01
C     7.378496726400000e+00   2.686829918324152e+00   7.432060000000000e-02  8.25139260e-01  -5.12254110e-01  -2.94287400e-01
C     7.513978302900000e+00   3.067322760346245e+00   3.452659608000000e+00 -3.83082950e-01  -6.19469750e-01  -7.74313830e-01
C     8.768744968349999e+00   3.786997779064500e+00   3.480888040000000e+00 -1.82264906e+00  -1.16142707e+00  -2.09208950e-01
C     2.450008868325000e+00   4.113865400449405e+00   2.743488560000000e-01  5.37039780e-01  -7.02120600e-01  -2.55956900e-01
C     3.698026006350000e+00   4.814251114706233e+00   2.401332960000000e-01 -7.18141210e-01  -8.16929500e-02  -7.79582350e-01
C     3.792679898775000e+00   5.216795417604772e+00   3.205761944000000e+00  3.39007910e-01  -8.90327880e-01   6.80357760e-01
C     5.058832830600000e+00   5.923417085825039e+00   3.298985320000000e+00 -1.95901185e+00  -5.79286630e-01   6.36618600e-02
C     4.920681622125000e+00   4.136590525210144e+00   6.057181599999999e-02  3.39696270e-01  -2.25358306e+00   2.03351660e-01
C     6.142254942675000e+00   4.851793450664761e+00   1.353064380800000e+01  9.30271370e-01  -2.69199500e+00   4.88204190e-01
C     6.248924600850000e+00   5.193328743826424e+00   3.363851744000000e+00  1.42120491e+00   1.32528040e-01  -7.92880300e-02
C     7.502578540649999e+00   5.898222991574114e+00   3.395744016000000e+00 -3.33201100e-02   5.87390870e-01   1.46129850e-01
C     7.401187359524998e+00   4.125084891709181e+00   1.356567904000000e+01 -4.85026010e-01  -9.78381250e-01   5.54140150e-01
C     8.640468340349999e+00   4.829380533474698e+00   8.448251999999999e-02 -1.15325269e+00  -4.66100330e-01  -8.29230300e-02
C     8.745375437250001e+00   5.187945324669307e+00   3.338119592000000e+00 -4.92534170e-01   6.38264360e-01  -9.03954400e-02
C     9.946618867500000e+00   5.931666410374505e+00   3.165153976000000e+00  6.15118840e-01  -2.16730600e+00   1.09032047e+00
C     7.426682028750000e+00   1.419693320701656e-01   6.590058568000000e+00 -1.13554235e+00   3.04046230e-01   3.83881540e-01
C     1.253074578525000e+00   8.389892245660927e-01   6.709394760000000e+00 -5.25519910e-01   8.89157330e-01   7.13827400e-02
C     1.153372415400000e+00   5.222393059187305e-01   1.019971984000000e+01 -2.23769546e+00   7.15864080e-01  -1.26557510e-01
C     2.312918102850000e+00   1.227358727372778e+00   1.038144929600000e+01  2.75966590e+00   1.43064258e+00  -3.58824980e-01
C     2.471921399550000e+00   1.708301201162556e-01   6.708482335999999e+00  5.16075250e-01  -2.23628875e+00  -2.67907400e-02
C     3.685980586650000e+00   8.650256708533441e-01   6.745262856000000e+00  1.56976190e+00  -9.40618210e-01  -4.03195550e-01
C     3.581464389450000e+00   5.170594140764052e-01   1.031535778400000e+01  1.40061330e-01   7.46173990e-01  -7.23749000e-01
C     4.835313076575000e+00   1.268544957968488e+00   1.021276387200000e+01 -9.11289110e-01  -1.12047275e+00   3.27198210e-01
C     4.936946554874999e+00   1.464573719358750e-01   6.576088376000000e+00 -4.08329950e-01   1.30411780e-01   8.58128910e-01
C     6.178195456125000e+00   8.610608588547966e-01   6.592724712000000e+00  1.48494850e-01  -4.75392220e-01   2.58322780e-01
C     6.055421780400000e+00   5.502514017132133e-01   1.008873282400000e+01 -2.08275860e-01  -1.20860479e+00   2.42124790e-01
C     7.286014560600000e+00   1.257590667026694e+00   1.010184363200000e+01  5.73429240e-01  -7.24350540e-01   4.61679310e-01
C     8.640623598374999e+00   2.254995614017747e+00   6.802756312000000e+00  2.28246900e-01   4.99743200e-01  -2.01132880e-01
C     2.492204479500000e+00   2.969756197381974e+00   6.844192111999999e+00 -6.50790310e-01   8.79535830e-01  -4.40798860e-01
C     2.335514006025000e+00   2.692703583420451e+00   1.041662134400000e+01  1.12316425e+00  -1.53341779e+00  -5.59826310e-01
C     3.592795784924999e+00   3.376626704550099e+00   1.036202210400000e+01 -5.24025170e-01   5.88157350e-01  -3.33297010e-01
C     3.717060329625000e+00   2.254384135477274e+00   6.840654480000000e+00 -4.12083250e-01   1.36673477e+00  -3.78341300e-01
C     4.929148675275000e+00   2.990776572742959e+00   6.764987072000000e+00  1.31950959e+00  -9.83604240e-01  -2.72292150e-01
C     4.822072587899999e+00   2.690787621596475e+00   1.026316384000000e+01 -6.33058000e-02  -9.55343270e-01  -1.82101370e-01
C     6.026065516125000e+00   3.397272879124325e+00   1.013467416800000e+01  1.44965077e+00  -8.64662970e-01   2.65140980e-01
C     6.192771518774999e+00   2.284230538808018e+00   6.704505560000000e+00 -1.72160081e+00  -9.64378390e-01   4.20989700e-02
C     7.397759074500000e+00   2.952637231866722e+00   6.761662008000000e+00  1.24732574e+00   2.07105090e+00  -3.24891920e-01
C     7.288388873250000e+00   2.664958224965837e+00   1.014402906400000e+01 -3.00336140e-01   7.59870180e-01   1.82655410e-01
C     8.541801403275000e+00   3.388489183299020e+00   1.025577768000000e+01 -2.01505852e+00  -4.57641390e-01  -2.20067070e-01
C     9.886627188824999e+00   4.415367101345001e+00   6.702776591999999e+00 -1.04186753e+00  -2.16645000e-01   7.92699300e-02
C     3.709809680024999e+00   5.142042742415178e+00   6.642389600000000e+00  9.34737260e-01  -1.61297062e+00   3.82583000e-02
C     3.605551161600000e+00   4.790041098718076e+00   1.022090551200000e+01 -2.30520080e-01   6.04041480e-01  -2.69502060e-01
C     4.873014339525000e+00   5.526383646815031e+00   1.014959024000000e+01 -3.25753611e+00  -5.89120100e-01   3.29293510e-01
C     4.974895032675000e+00   4.378592699946465e+00   6.678707311999999e+00 -1.65353375e+00   2.02952320e+00   2.64210000e-01
C     6.197889931050000e+00   5.112916113625320e+00   6.665079160000000e+00 -1.29204001e+00   9.77066530e-01   4.85616800e-02
C     6.033194481000000e+00   4.808922515996399e+00   1.013829952000000e+01  1.69741820e+00  -5.05218880e-01   8.35526900e-02
C     7.268119030350000e+00   5.501083690181679e+00   1.014925432000000e+01  4.03197640e-01   9.45833550e-01   5.24383940e-01
C     7.395340798575000e+00   4.419971634661183e+00   6.690670959999999e+00  7.55979700e-01  -1.65430969e+00   2.25038920e-01
C     8.606991212324999e+00   5.125774006173421e+00   6.626337928000000e+00  2.05800699e+00  -5.30964300e-02   2.15984070e-01
C     8.492514098025000e+00   4.791507225469965e+00   1.016564966400000e+01  1.36472420e+00   4.91986260e-01  -1.12651400e-02
C     9.744402148799999e+00   5.477907321412125e+00   1.012786587200000e+01  2.56606860e-01   1.71645544e+00   3.88028470e-01
