72
Lattice="7.395 0 0 3.6975 6.40425786098592 0 0 0 13.6 " PBC="1 1 1" Properties=species:S:1:pos:R:3:force:R:3 Energy="-580.8723002"
C     3.728079619124999e+00   6.371652438340590e+00   1.349484167200000e+01 -4.28263140e-01   1.21199903e+00   3.39076500e-01
C     1.221976274100000e+00   7.585876737310873e-01   1.351897786400000e+01  9.27499220e-01  -2.09847288e+00   1.06934470e-01
C     1.286973036675000e+00   7.001313371346295e-01   3.419140368000000e+00 -1.76659761e+00   1.99151653e+00  -1.12739910e-01
C     2.452276212300000e+00   1.512631270340190e+00   3.417181424000000e+00  9.66219510e-01  -2.19134426e+00  -2.18919940e-01
C     2.448516557325000e+00   2.545116116142600e-03   1.354692654400000e+01  6.28921800e-01  -3.48563900e-01  -1.88231330e-01
C     3.687917411100000e+00   7.028707584342444e-01   1.345091448800000e+01  5.56551580e-01   5.91493020e-01   9.04290610e-01
C     3.664407190124999e+00   7.332705536866710e-01   3.423204728000000e+00  8.08656420e-01  -4.37571890e-01   2.68890710e-01
C     4.936713649349999e+00   1.428291549219335e+00   3.447260679999999e+00 -1.37409387e+00  -2.60229960e-01   1.33116120e-01
C     8.645634191550000e+00   6.400936996129277e+00   1.352951228800000e+01 -5.53929280e-01  -5.02679150e-01  -1.88926670e-01
C     6.225756102825000e+00   7.306998845816670e-01   1.356221335200000e+01 -2.24216492e+00  -2.66762808e+00  -1.45985980e-01
C     6.143611407524999e+00   7.489472803318507e-01   3.452083784000000e+00  1.57256972e+00  -1.67527498e+00   1.50320230e-01
C     7.396517823750000e+00   1.408040773525386e+00   3.405132504000000e+00  4.29581790e-01   1.12094032e+00   4.79624300e-02
C     8.605734727874999e+00   2.178723976948919e+00   1.352730786400000e+01  2.43848683e+00  -2.51618381e+00  -4.47208390e-01
C     2.447796654075000e+00   2.887925600448088e+00   1.343542803200000e+01  4.68225040e-01  -1.89849600e+00   4.46598750e-01
C     2.465904753600000e+00   2.936313675177683e+00   3.395504112000000e+00  4.46367120e-01  -1.95344863e+00   2.02626020e-01
C     3.729516134850000e+00   3.562157862626564e+00   3.469049648000000e+00 -1.28850380e-01   1.47318882e+00  -5.45033700e-02
C     3.674772133049999e+00   2.167999342693985e+00   1.345381904000000e+01  1.09538198e+00  -1.38887308e+00   3.71047180e-01
C     4.938148870950000e+00   2.855513843546364e+00   6.403696000000000e-03 -4.11427470e-01  -1.50680409e+00  -1.86266650e-01
C     4.966989777675000e+00   2.822628171563000e+00   3.509402480000000e+00 -1.97616403e+00   1.55135247e+00  -5.69144060e-01
C     6.142464886725000e+00   3.589005728384677e+00   3.472382192000000e+00  1.07664039e+00  -2.79287316e+00  -3.32257010e-01
C     6.206457223425000e+00   2.119311164441071e+00   6.141447199999999e-02 -3.26426289e+00  -8.44526980e-01  -5.62438600e-01
C     7.393105918650001e+00   2.757712756659261e+00   1.359776334400000e+01 -4.40458790e-01   4.20474826e+00   2.52919980e-01
C     7.359068878199999e+00   2.858189030139644e+00   3.374965256000000e+00  1.97056835e+00  -1.56032070e-01   4.19286160e-01
C     8.629053085575000e+00   3.593554032316849e+00   3.375296688000000e+00 -9.46762030e-01  -3.48134450e-01   2.68088450e-01
C     2.487846642975000e+00   4.262288943590879e+00   1.345418977600000e+01 -2.28535711e+00   7.21606600e-01   1.72864930e-01
C     3.697695338925000e+00   4.927996690259643e+00   1.346546200000000e+01  3.00536840e-01   2.58251001e+00   5.21607390e-01
C     3.738588246900000e+00   5.014526603526040e+00   3.466520456000000e+00 -3.72629500e-01  -4.72255200e-01   1.54746250e-01
C     5.003148258750000e+00   5.696726210780405e+00   3.432844272000000e+00 -2.76806598e+00   7.32040510e-01   1.35604020e-01
C     4.898634427950000e+00   4.255587207953281e+00   2.501760800000000e-02  1.36746987e+00  -3.33131040e-01  -3.53859250e-01
C     6.135851538224999e+00   4.956259576791924e+00   5.505810400000000e-02  5.06843810e-01   4.56939300e-01  -5.32650920e-01
C     6.158921165099999e+00   4.963332631300243e+00   3.435600448000000e+00  1.34713693e+00   7.57712470e-01   1.74832990e-01
C     7.373114756324999e+00   5.657188308072701e+00   3.452242360000000e+00  1.43854057e+00   2.56259642e+00  -2.34473360e-01
C     7.341954962475000e+00   4.172393784946787e+00   3.352808000000000e-03  1.66163129e+00   3.35016124e+00  -9.09068300e-02
C     8.609406715125001e+00   4.937336019496882e+00   1.352160130400000e+01 -3.31027990e-01   9.79512890e-01   9.63860800e-02
C     8.654354671349999e+00   4.989765180936137e+00   3.468332928000000e+00 -1.19026889e+00   9.85663140e-01  -1.45943890e-01
C     9.873844561575000e+00   5.730116025942508e+00   3.512474039999999e+00  4.74516210e-01  -8.84166710e-01  -6.41068750e-01
C     3.723679889925000e+00   6.403577407602375e+00   6.967807408000000e+00 -1.07873492e+00   2.02234120e-01  -4.52873410e-01
C     1.228710789675000e+00   7.058268998198419e-01   6.861564887999999e+00  9.46441850e-01   1.21849680e+00  -3.20090430e-01
C     1.195558339125000e+00   6.863163282493518e-01   1.020701705600000e+01  1.68131161e+00   1.63467630e-01  -1.18455280e-01
C     2.462367725100000e+00   1.423488740079807e+00   1.018714976800000e+01 -4.05173050e-01  -1.50681393e+00   1.97437160e-01
C     6.173154913199999e+00   6.400417482731672e+00   6.725422768000000e+00 -1.09339060e-01   1.41223571e+00   2.89318130e-01
C     3.753898854900000e+00   6.946239955879224e-01   6.637613143999999e+00 -8.93662910e-01  -3.18689400e-02   1.01145046e+00
C     3.711190363500000e+00   6.926055015956077e-01   1.028229672800000e+01 -1.42009532e+00  -7.16946520e-01   1.37456160e-01
C     4.920151030875001e+00   1.406003899313013e+00   1.027681307200000e+01 -3.44240970e-01  -4.71168600e-01  -5.40509140e-01
C     8.677379447549999e+00   6.397754976568956e+00   6.850071120000000e+00 -3.23402770e-01   5.27570410e-01  -5.72674910e-01
C     6.198634422674999e+00   7.342433604556050e-01   6.934049351999999e+00 -4.28985570e-01   1.39380920e-01  -4.12030350e-01
C     6.143335426125000e+00   7.232162531019427e-01   1.024606415200000e+01  7.77847960e-01  -1.46469380e-01   6.26704000e-02
C     7.394248741950000e+00   1.380815632936740e+00   1.018113911200000e+01 -4.70580230e-01   2.40209014e+00  -4.32811000e-02
C     8.609198324025000e+00   2.165775848407572e+00   6.836184568000000e+00  2.20181080e-01  -5.69502490e-01  -4.25176730e-01
C     2.477638511025000e+00   2.827350287053493e+00   6.743209256000000e+00 -2.65756850e-01  -1.99912890e-01  -1.22489100e-02
C     2.459055171825000e+00   2.832498157606518e+00   1.013192588000000e+01 -1.06392630e-01  -1.08825190e-01   3.32176020e-01
C     3.706079198324999e+00   3.489731790274930e+00   1.011919192800000e+01 -1.23910174e+00   2.46327973e+00   1.21675950e-01
C     3.741914148150000e+00   2.124341644947522e+00   6.631028295999999e+00 -2.01342011e+00  -7.22147930e-01   7.34491370e-01
C     4.919612416050000e+00   2.834546047142410e+00   6.738516984000000e+00  7.85095830e-01   1.69638559e+00   3.48321990e-01
C     4.907065319550000e+00   2.784955572999600e+00   1.015400262400000e+01  1.27034775e+00   1.92941904e+00   1.19968640e-01
C     6.148934698274999e+00   3.536708686785074e+00   1.015551412800000e+01  3.96685910e-01  -1.70303900e-01   3.49667010e-01
C     6.158003556525000e+00   2.164050925595559e+00   6.833874472000000e+00  8.45170150e-01   7.50638400e-02  -6.35326800e-02
C     7.378961502150000e+00   2.941547618956347e+00   6.816008424000000e+00  6.62814060e-01  -2.74878320e+00   2.83646000e-01
C     7.420104324150000e+00   2.845697909439185e+00   1.015126576000000e+01 -1.30922583e+00  -4.48309820e-01   3.89732200e-01
C     8.627219754150000e+00   3.584031349177079e+00   1.020020318400000e+01  5.04667800e-01  -1.70259073e+00  -1.79012580e-01
C     9.840345174599999e+00   4.237766079606259e+00   6.837385312000000e+00  1.03137658e+00   3.84209540e-01   5.26061600e-02
C     3.656569192650000e+00   4.986157406313284e+00   6.894127504000000e+00  1.04862775e+00  -3.91967040e-01  -7.57073900e-02
C     3.664693228725000e+00   4.964279500824845e+00   1.013319652800000e+01 -1.42368200e-02  -1.51562910e-01   5.21574650e-01
C     4.881464088375000e+00   5.676607683011265e+00   1.020308366400000e+01  1.26607624e+00  -5.20501060e-01  -2.92940000e-02
C     4.884408370649999e+00   4.288782910059648e+00   6.838984536000001e+00  1.05629197e+00  -7.01917260e-01  -4.69881560e-01
C     6.130213516274999e+00   5.009981437680219e+00   6.784758072000000e+00  6.08682080e-01  -6.77824910e-01   7.18126500e-02
C     6.147709531649999e+00   4.964999787706359e+00   1.025061267200000e+01 -3.34401210e-01  -6.80276040e-01  -1.58627660e-01
C     7.407607624575000e+00   5.629735816330026e+00   1.036496432800000e+01 -1.82223266e+00   2.51607425e+00  -7.88872640e-01
C     7.409340273074999e+00   4.337242968647590e+00   6.777763728000000e+00 -1.59939423e+00  -8.19575230e-01   1.80013490e-01
C     8.651526157799999e+00   4.968148248955492e+00   6.848297000000000e+00 -4.91989020e-01   1.22927113e+00  -1.11015770e-01
C     8.626257849524999e+00   4.978348502576850e+00   1.031849965600000e+01  3.09403200e-01   1.62103070e-01  -4.39191190e-01
C     9.825514539075000e+00   5.744206417915766e+00   1.024157016800000e+01  1.25113114e+00  -3.01002455e+00  -1.38651910e-01
