72
Lattice="7.395 0 0 3.6975 6.40425786098592 0 0 0 13.6 " PBC="1 1 1" Properties=species:S:1:pos:R:3:force:R:3 Energy="-581.45607412"
C     3.733377582000000e+00   6.382568175650067e+00   1.352445009600000e+01 -8.75578900e-01   1.13419380e+00   2.54656170e-01
C     1.255411435500000e+00   7.246511270754756e-01   1.355791235200000e+01 -2.02061030e-01  -1.92152650e-01  -2.32955310e-01
C     1.284796799100000e+00   7.167578792630256e-01   3.428770664000000e+00 -2.48074338e+00   9.80426910e-01  -4.08491450e-01
C     2.462565578325000e+00   1.473664883603913e+00   3.423591104000000e+00 -2.62538690e-01   5.87446980e-01  -3.81625300e-01
C     2.496309850725000e+00   1.237244980231260e-02   1.356176863200000e+01 -1.89335500e+00  -1.37558718e+00   7.98492800e-02
C     3.685615014825000e+00   6.933508931679331e-01   1.350470956000000e+01  1.73581074e+00   1.90983193e+00   1.23910310e-01
C     3.645405885525000e+00   7.189359033186330e-01   3.409498511999999e+00  2.48447710e+00   5.49975690e-01   2.14967260e-01
C     4.937675923724999e+00   1.413037695720651e+00   3.435265072000000e+00 -1.52602051e+00  -7.03312400e-02  -6.42812900e-02
C     8.624233875000000e+00   6.392614534955049e+00   1.355931424000000e+01 -1.97439530e-01   1.45692750e-01  -2.10920190e-01
C     6.176639104425000e+00   7.047612313119378e-01   1.358506407200000e+01  2.01065230e-01  -2.17659142e+00  -3.07966750e-01
C     6.163225092074999e+00   7.068350580921631e-01   3.437722048000000e+00 -8.09091910e-01   6.96997000e-01  -4.42827000e-03
C     7.363289167725000e+00   1.394903399164275e+00   3.395656296000000e+00  3.24266139e+00   2.05484365e+00   1.59569270e-01
C     8.626299298500001e+00   2.159971477381318e+00   1.354220040800000e+01  3.25718010e-01  -1.14891052e+00   9.98930500e-02
C     2.453096687550000e+00   2.881797942485062e+00   1.351404310400000e+01  9.94895030e-01  -1.32860558e+00  -4.12771370e-01
C     2.437941818250000e+00   2.938304502776043e+00   3.383948736000000e+00  3.12866585e+00  -3.36796441e+00   4.23980390e-01
C     3.722364504300000e+00   3.560985243012397e+00   3.466291024000000e+00 -1.23274329e+00   1.98214075e+00  -5.32170640e-01
C     3.694631368575000e+00   2.153216330233168e+00   1.345152485600000e+01 -2.46023610e-01  -7.49548330e-01   1.35309024e+00
C     4.928012248650000e+00   2.847317033911350e+00   3.743386400000000e-02  2.44527160e-01  -1.68558360e+00  -8.22642960e-01
C     4.933273458374999e+00   2.835370723427042e+00   3.461999000000000e+00 -8.07161690e-01  -9.20503080e-01   5.91927300e-02
C     6.126226723875000e+00   3.537450043674948e+00   3.467274168000000e+00  3.07673164e+00   3.30169040e-01  -5.90289090e-01
C     6.182157992925000e+00   2.074411553010397e+00   3.785709600000000e-02 -1.16194624e+00   2.58608415e+00  -6.77246100e-02
C     7.387956151575000e+00   2.812667629313342e+00   1.359256406400000e+01 -3.54722320e-01   3.20143800e-01   2.24066330e-01
C     7.410596387775000e+00   2.858151309060848e+00   3.377713408000000e+00 -1.67572280e+00  -1.41753689e+00   3.00894800e-01
C     8.639520634124999e+00   3.584090588562284e+00   3.355944568000000e+00 -1.91472257e+00   8.17095990e-01   6.79488020e-01
C     2.484567958800000e+00   4.275306942585479e+00   1.350393109600000e+01 -2.57525109e+00   7.34596650e-01   4.93622700e-02
C     3.686732103525000e+00   4.968113986175941e+00   1.348633500800000e+01  1.32483395e+00   1.92253930e-01   7.34472270e-01
C     3.741431772299999e+00   5.023276484869844e+00   3.440876976000000e+00 -5.79806930e-01  -9.65320850e-01   1.40501650e-01
C     4.984468784550000e+00   5.721144365149013e+00   3.406470880000000e+00 -5.35790470e-01  -1.16702896e+00   3.74079890e-01
C     4.909508664525000e+00   4.242551533206987e+00   2.713730400000000e-02  6.69250750e-01   1.34149703e+00  -3.70612110e-01
C     6.149843987474999e+00   4.975626052560563e+00   3.941565600000000e-02 -4.02580470e-01  -1.28487450e-01  -1.84413170e-01
C     6.184677765225000e+00   4.947534159713145e+00   3.427552648000000e+00 -1.07776502e+00   1.13618552e+00  -3.03457600e-02
C     7.371141696375000e+00   5.698239600955302e+00   3.414867112000000e+00  1.40935330e+00  -5.90518380e-01   4.16999910e-01
C     7.344895658175000e+00   4.227131233046522e+00   1.203464000000000e-02  1.55386426e+00   1.52491061e+00  -2.82868200e-01
C     8.590379934750001e+00   4.983589811252052e+00   1.353480377600000e+01  8.78091010e-01  -1.13938710e+00   3.63300890e-01
C     8.639733831974999e+00   4.984580485900415e+00   3.482992232000000e+00 -3.63251420e-01   1.78234529e+00  -9.23300080e-01
C     9.877661231999999e+00   5.726112147971015e+00   3.470016064000000e+00 -5.54934100e-02  -2.42327777e+00  -6.13033300e-02
C     1.643590515000000e-02   1.492999017870360e-02   6.904934607999999e+00  1.35859280e-01  -1.25438012e+00  -1.12331300e-02
C     1.221501182325000e+00   7.231555407374298e-01   6.849898672000000e+00  1.27477377e+00   2.45215900e-02  -3.22516190e-01
C     1.172408439525000e+00   6.842302052940354e-01   1.020249995200000e+01  4.71030349e+00   4.44229500e-02   1.76716500e-02
C     2.467012376700000e+00   1.420283280935719e+00   1.017299570400000e+01 -7.02544600e-01  -1.27742439e+00   5.26788950e-01
C     2.479827874725000e+00   1.865003144184180e-02   6.733307776000000e+00 -7.52177080e-01  -2.74099420e-01   5.11270220e-01
C     3.754070751675000e+00   6.854746806813907e-01   6.678181127999999e+00 -1.07407100e+00  -6.38221000e-02   5.97665980e-01
C     3.711376310775000e+00   6.903794456060502e-01   1.028317596800000e+01 -2.17883649e+00  -2.34683100e-02  -6.56539070e-01
C     4.904244792600000e+00   1.412213531776648e+00   1.022681457600000e+01  1.66192235e+00  -3.07733500e-01   3.70342980e-01
C     4.976086626000000e+00   8.120598966480001e-05   6.828191712000001e+00  8.49697270e-01  -1.11652460e-01   3.41094200e-02
C     6.229486251749999e+00   7.585815256435416e-01   6.924045464000000e+00 -2.69161575e+00  -1.39772358e+00  -9.46696160e-01
C     6.162009686850000e+00   7.213066955358265e-01   1.024779216800000e+01  9.98575200e-02   1.13941140e-01  -3.63002900e-01
C     7.436582787524999e+00   1.396354988250823e+00   1.019480031200000e+01 -3.98933823e+00   2.82638938e+00  -2.09145390e-01
C     8.613188074424999e+00   2.137786807941385e+00   6.852285879999999e+00 -1.05589140e-01   1.33884241e+00  -8.42824690e-01
C     2.479082606625000e+00   2.809881008633299e+00   6.738847192000000e+00 -9.10572390e-01  -1.04989130e-01   5.76156190e-01
C     2.468289123450000e+00   2.835371684065721e+00   1.015241740800000e+01 -4.36335180e-01  -6.87090690e-01   1.44844960e-01
C     3.683813075175000e+00   3.510501951281325e+00   1.013895028000000e+01  1.22696021e+00   1.96898942e+00   1.96775750e-01
C     3.714138084450000e+00   2.089219670162024e+00   6.676175536000000e+00  3.38416490e-01   1.48716885e+00   5.02348240e-01
C     4.932568049324999e+00   2.835545303496306e+00   6.762985424000000e+00 -1.38221736e+00   7.44299820e-01  -2.84889800e-02
C     4.927317377475000e+00   2.813220701022131e+00   1.018760183200000e+01 -8.26379660e-01   8.23619960e-01  -3.83955450e-01
C     6.149227133549999e+00   3.546945957016863e+00   1.016631565600000e+01  7.26093210e-01  -7.60063100e-01   1.65398320e-01
C     6.145203772874999e+00   2.155810054666468e+00   6.803467456000000e+00  2.20117609e+00   1.30417375e+00   4.02949680e-01
C     7.388904190575000e+00   2.947326757206632e+00   6.802243047999999e+00 -7.08766000e-03  -4.11615682e+00   3.37936170e-01
C     7.411305974999999e+00   2.875266624149119e+00   1.014397616000000e+01  1.87674930e-01  -1.54343108e+00   6.91767340e-01
C     8.649808484174999e+00   3.575578305185086e+00   1.021512129600000e+01 -1.00327526e+00  -5.28731920e-01  -4.05091950e-01
C     9.820958812349998e+00   4.226185388203178e+00   6.838482696000001e+00  2.67457677e+00   2.40905280e-01  -3.10874700e-01
C     3.689062785675000e+00   4.959729531785629e+00   6.855592992000000e+00 -2.23992419e+00   1.60166868e+00   1.92161140e-01
C     3.690973764600000e+00   4.976289725802595e+00   1.013511004800000e+01 -1.17616636e+00  -6.97139570e-01   6.51504560e-01
C     4.895792270625000e+00   5.681827793592952e+00   1.021776554400000e+01  9.22847150e-01  -1.00369356e+00  -3.79286560e-01
C     4.877608557225000e+00   4.294467009123291e+00   6.837780392000000e+00  2.35063583e+00  -1.82519212e+00  -4.49549390e-01
C     6.113770179150000e+00   5.014426953273738e+00   6.804712807999999e+00  1.38249690e+00  -1.11849040e-01  -3.51276100e-01
C     6.154458467474999e+00   4.943775885030583e+00   1.022822394400000e+01 -1.08675866e+00   1.36364490e+00   1.04592900e-01
C     7.367885936700000e+00   5.655170774719066e+00   1.031164267200000e+01  9.82432130e-01   6.88030470e-01  -2.72797340e-01
C     7.393154651700000e+00   4.317674822798939e+00   6.771297472000000e+00 -1.16446737e+00   6.31016400e-01   3.55129150e-01
C     8.647528124999999e+00   4.958607441765978e+00   6.839220903999999e+00 -8.92782360e-01   1.88037170e+00  -1.89674950e-01
C     8.625216744450000e+00   4.983412541394488e+00   1.029660787200000e+01 -4.00107640e-01   2.13484570e-01  -5.29375790e-01
C     9.834034910174999e+00   5.723709078294208e+00   1.021758643200000e+01  1.24625403e+00  -1.24634619e+00   1.48412380e-01
