72
Lattice="7.395 0 0 3.6975 6.40425786098592 0 0 0 13.6 " PBC="1 1 1" Properties=species:S:1:pos:R:3:force:R:3 Energy="-573.7362279"
C     3.731199606600000e+00   6.337355267924882e+00   1.331286483200000e+01 -3.20999183e+00  -2.48785866e+00   3.23916380e-01
C     1.136273252700000e+00   6.679264377617833e-01   1.337795864800000e+01  4.91969040e+00  -2.26875740e-01  -5.44262580e-01
C     1.303022109375000e+00   8.387653317113071e-01   3.772263824000000e+00  4.78467980e-01   1.06190046e+00  -8.54651110e-01
C     2.560562639325000e+00   1.546705060241742e+00   3.772260288000000e+00 -6.14176690e-01   1.09047117e+00  -6.15177650e-01
C     6.040237035300000e+00   6.350570838274463e+00   1.329305330400000e+01  5.11518865e+00  -1.99085634e+00   2.83037890e-01
C     3.685169798850000e+00   6.410396981584596e-01   1.341554088800000e+01  1.41030000e-02  -1.03456822e+00  -1.50273033e+00
C     3.761432437199999e+00   8.403690219220297e-01   3.637971440000000e+00 -6.66020300e-02  -7.77730000e-02  -1.03586600e-01
C     4.943595695175000e+00   1.590332786061420e+00   3.559447080000000e+00  3.68951496e+00  -3.66889170e-01   2.24747410e-01
C     8.689620945674999e+00   6.255064973361805e+00   1.334041829600000e+01 -2.34309082e+00   2.44319531e+00   1.21072710e-01
C     6.261131120625000e+00   6.825740642114394e-01   1.325275378400000e+01 -5.32327657e+00  -2.68525210e+00   3.02931000e-02
C     6.248979582675000e+00   9.388102143822403e-01   3.590061904000000e+00  1.64668740e-01  -3.57923527e+00  -5.88884100e-02
C     7.531005031575000e+00   1.651293379608873e+00   3.731556984000000e+00 -3.82685190e+00  -5.94470069e+00  -6.15247200e-01
C     8.585860776300001e+00   2.079972177982499e+00   1.336690076000000e+01  1.96734480e+00  -1.78175070e+00   5.09844390e-01
C     2.450587822875000e+00   2.729669728299314e+00   1.357387249600000e+01 -9.87097690e-01   2.01139854e+00  -1.42412940e+00
C     2.597200094550000e+00   3.026264166609684e+00   3.714624576000000e+00 -3.36129695e+00  -1.73636691e+00   5.02514300e-02
C     3.824383262100000e+00   3.722761279536500e+00   3.587125800000000e+00 -1.27837376e+00  -3.31601926e+00   6.72787000e-03
C     3.691217799600000e+00   2.137621514046018e+00   1.336132816000000e+01 -7.15195420e-01  -5.11350933e+00   1.48619536e+00
C     4.895351898374999e+00   2.772205271983548e+00   1.320129832000000e+01  1.35946641e+00  -2.48056400e-01  -7.31023340e-01
C     5.025145980374999e+00   2.996395668589323e+00   3.550814888000000e+00 -4.35103500e-02   1.19039198e+00   5.38786260e-01
C     6.274381111875000e+00   3.755890697574015e+00   3.644505424000000e+00 -4.03543695e+00  -2.58507405e+00  -4.32642730e-01
C     6.121007517750000e+00   2.068501383644295e+00   1.302744353600000e+01  2.17472578e+00  -1.10948296e+00   1.48762866e+00
C     7.436927098724999e+00   2.722884417096644e+00   1.305027263200000e+01 -3.89695244e+00   1.11107873e+00   7.55964580e-01
C     7.371364877474999e+00   2.963084049415690e+00   3.760478064000000e+00  6.01670017e+00   4.85164395e+00  -2.17006970e-01
C     8.646603380249999e+00   3.698631316771592e+00   3.732101392000000e+00  2.30452387e+00   3.78114300e-01   1.29345420e-01
C     9.795660110625001e+00   4.160786836086481e+00   1.354639954400000e+01  3.60457786e+00  -1.00872705e+00  -6.44979740e-01
C     3.694069163700000e+00   4.870877306534039e+00   1.340822191200000e+01 -5.22545990e-01   9.19027250e-01  -6.34632510e-01
C     3.763084147425000e+00   5.060305071262841e+00   3.550425112000000e+00  1.83575510e-01   3.92814704e+00  -4.37920600e-02
C     4.941093449025000e+00   5.827347774305858e+00   3.591680984000000e+00  2.85778245e+00   3.99253290e-01   5.26693600e-01
C     4.918260055425000e+00   4.160449587867573e+00   1.312825544000000e+01 -1.50071639e+00   6.34633690e-01   1.42424556e+00
C     6.152535545625000e+00   4.794040749879382e+00   1.305859773600000e+01 -9.17003950e-01   4.98836970e+00   1.08806730e+00
C     6.239949363299999e+00   5.133223759129065e+00   3.628623479999999e+00 -4.48879030e-01   1.51862617e+00  -2.10300630e-01
C     7.495392486375000e+00   5.819017884192514e+00   3.614896864000000e+00 -2.65731421e+00   2.18613630e+00   5.13245920e-01
C     7.365916056599999e+00   4.106417312600803e+00   1.308893797600000e+01  1.67045121e+00   2.06635941e+00   8.80803010e-01
C     8.604244413524999e+00   4.797899827580660e+00   1.337161248000000e+01 -1.36777880e+00   3.45831116e+00  -4.93114880e-01
C     8.681308004325000e+00   5.158061200259769e+00   3.678627960000000e+00  1.91067290e+00  -3.38328019e+00  -7.74573190e-01
C     9.954325862550000e+00   5.766915467989276e+00   3.555735368000000e+00 -1.22338816e+00   4.39383737e+00   5.69808790e-01
C     7.405388311125000e+00   9.214311719552939e-02   6.513525656000000e+00  6.09646020e-01  -4.09860530e-01   2.17859873e+00
C     1.252336113825000e+00   8.150685529480494e-01   6.814160319999999e+00  1.00455213e+00  -1.42946382e+00   5.51097780e-01
C     1.136214647325000e+00   6.101508737758434e-01   1.019161968000000e+01 -2.26153730e-01  -2.58162930e+00  -1.30217860e-01
C     2.442506899650000e+00   1.291790428680352e+00   1.014903617600000e+01 -4.81481351e+00  -1.65219470e-01   9.55553630e-01
C     2.530520636699999e+00   1.214798056431960e-02   7.071345296000001e+00 -2.13806722e+00   4.85669086e+00  -7.59470600e-01
C     3.739892761875000e+00   7.768966143993055e-01   7.219896464000000e+00 -3.71589000e-02   1.26697792e+00  -1.52368998e+00
C     3.574741742850000e+00   5.896998369386124e-01   9.984749264000000e+00  3.94546834e+00  -2.11819904e+00  -7.37639110e-01
C     4.846698270675000e+00   1.253847058094631e+00   1.001356344800000e+01 -1.72729091e+00   1.65139405e+00   1.75813276e+00
C     4.960816172850000e+00   8.121931052114881e-02   6.872035120000000e+00 -1.47769265e+00   4.31312550e-01   8.02343170e-01
C     6.139754545274999e+00   7.575672833262534e-01   6.661811352000000e+00  2.64122932e+00   3.03139211e+00   4.01250950e-01
C     6.047512790924999e+00   5.637862243171158e-01   1.007529684000000e+01  1.74178040e+00   1.14306335e+00  -7.98871500e-02
C     7.276259113575000e+00   1.285346272293884e+00   1.024199353600000e+01  1.19800347e+00  -7.94364410e-01  -5.21246930e-01
C     1.297691386650000e+00   2.246653235601575e+00   6.930002536000000e+00 -2.62567953e+00  -1.25922699e+00  -5.94290930e-01
C     2.466521533575000e+00   2.964784507962678e+00   7.067339551999999e+00  2.74138410e+00   2.00278170e-01   2.17283020e-01
C     2.388816389550000e+00   2.668305346293787e+00   1.034207403200000e+01 -5.77020430e-01   2.77184759e+00  -8.84950390e-01
C     3.610266546375000e+00   3.437023851491030e+00   1.036065938400000e+01 -6.76024840e-01  -2.53299207e+00  -3.44835070e-01
C     3.738247078575000e+00   2.294668582523717e+00   7.271834864000001e+00 -9.42861160e-01  -3.33132218e+00  -1.64393341e+00
C     4.980345961125000e+00   2.926567483438599e+00   7.092354168000000e+00 -4.67490840e-01   1.99748237e+00  -1.06723126e+00
C     4.842452468399999e+00   2.652383464657727e+00   1.033448972000000e+01  8.61837280e-01   2.05435494e+00  -1.64836730e+00
C     6.126436446074999e+00   3.386472482498906e+00   1.023153962400000e+01 -3.54714834e+00   2.13910722e+00  -4.61882980e-01
C     6.191576486774999e+00   2.225857137350847e+00   6.830177720000001e+00 -7.47533200e-01  -1.23609356e+00   5.25701870e-01
C     7.408974590324999e+00   2.955484244698386e+00   6.842986335999999e+00  1.54656375e+00  -1.79778334e+00   1.85567520e-01
C     7.298796263474999e+00   2.689335840382191e+00   1.024315660800000e+01  1.54764480e-01   7.47265000e-02  -4.45954170e-01
C     8.481391352475001e+00   3.411091986734632e+00   1.022687700000000e+01  4.43878856e+00   2.99949460e-01  -7.35360040e-01
C     9.919643497425000e+00   4.373840228273717e+00   6.831866432000000e+00 -2.43407084e+00  -1.22994515e+00   2.71292920e-01
C     3.705548533125000e+00   5.031446973005053e+00   6.686744368000000e+00  2.20145319e+00   3.09560713e+00   2.47191850e-01
C     3.556147606950000e+00   4.837537636710980e+00   1.027816872000000e+01  1.51101623e+00   1.34247930e-01  -3.69498600e-01
C     4.772629802775000e+00   5.501943589884543e+00   1.020664808800000e+01  3.72051073e+00   3.51762663e+00  -6.85959640e-01
C     4.940067429750000e+00   4.409921240673749e+00   6.908144616000000e+00  1.58952880e-01  -3.23209831e+00   3.84049280e-01
C     6.160865088750000e+00   5.062235762879896e+00   6.999854176000000e+00  2.48567684e+00  -1.57155024e+00  -7.67717060e-01
C     6.097578456900000e+00   4.873312205372411e+00   1.006437264000000e+01 -1.05768091e+00  -2.46998781e+00   5.95592700e-01
C     7.331755926375000e+00   5.562478684539777e+00   9.825343935999999e+00 -6.14780730e-01  -3.80453680e-01   1.79009281e+00
C     7.446119712300000e+00   4.325819117519500e+00   6.944686592000000e+00 -6.95697060e-01   2.58617278e+00   2.02400200e-02
C     8.699190519375000e+00   5.089801674029273e+00   6.847902192000000e+00 -2.08619591e+00  -1.94595589e+00   1.46656400e-01
C     8.609763486900000e+00   4.826156886238288e+00   9.928437920000000e+00 -3.36084680e+00   1.41460340e-01   1.03036975e+00
C     9.790931858550000e+00   5.596207925368461e+00   1.004637331200000e+01 -8.62647440e-01  -2.88052708e+00   3.24393510e-01
