72
Lattice="7.395 0 0 3.6975 6.40425786098592 0 0 0 13.6 " PBC="1 1 1" Properties=species:S:1:pos:R:3:force:R:3 Energy="-570.60051313"
C     1.102839215340000e+01   6.391934146600002e+00   1.327183227200000e+01  4.04614530e-01  -6.54070200e-01   5.92414530e-01
C     1.250632342800000e+00   5.574486347814385e-01   1.321021992000000e+01 -1.95991128e+00   3.84366928e+00   7.39909940e-01
C     1.232413725000000e+00   8.022682987206889e-01   3.407332168000000e+00 -2.41807050e-01  -8.10137190e-01   9.45720260e-01
C     2.536896420825000e+00   1.345357882911643e+00   3.378806032000000e+00 -2.09836348e+00   6.13053455e+00   8.59185350e-01
C     6.218557957724999e+00   6.323197182946044e+00   1.330746304800000e+01 -3.81110258e+00   1.71328840e-01   2.95635060e-01
C     3.692700866850000e+00   6.016439059326697e-01   1.325069651200000e+01  1.47752830e-01   2.59257250e+00   4.28094500e-01
C     3.768297844275000e+00   8.038897927682622e-01   3.608725864000000e+00  1.97057032e+00   5.82588510e-01  -4.19768690e-01
C     5.035444664100000e+00   1.545186034319928e+00   3.665068352000000e+00 -1.76268479e+00  -4.92099600e-01   3.02221000e-02
C     8.574190135200000e+00   6.325768172263941e+00   1.322341069600000e+01  1.64707823e+00   3.49064874e+00   1.12683382e+00
C     6.029643771749999e+00   6.847652810382384e-01   1.336131632800000e+01  4.79193400e+00  -7.61892490e-01  -2.13250460e-01
C     6.257806291650000e+00   7.633177305013261e-01   3.675897352000000e+00 -3.74339428e+00   2.09785067e+00  -2.47298890e-01
C     7.376614255200000e+00   1.524661028304414e+00   3.496049864000000e+00  4.40847947e+00   9.57418490e-01  -4.08097210e-01
C     1.234815436125000e+00   2.029424715587669e+00   1.319264028800000e+01 -8.30850480e-01   1.75549180e+00   8.48628300e-01
C     2.490894603150000e+00   2.724636301834247e+00   1.292402995200000e+01 -1.11629107e+00   1.18401754e+00   2.78274295e+00
C     2.486204657175000e+00   2.841612569307712e+00   3.500585464000000e+00  3.03736183e+00  -5.57732070e-01  -4.13624900e-01
C     3.686862329475000e+00   3.607691687713114e+00   3.630450640000000e+00  5.28263540e-01   9.36269590e-01   7.00082570e-01
C     3.713041332000000e+00   2.027476092048607e+00   1.322885681600000e+01 -1.43486010e+00   1.11029103e+00  -1.19507623e+00
C     4.866388900200000e+00   2.799206711845144e+00   1.343879049600000e+01  1.99855970e+00  -5.92317320e-01   1.12572114e+00
C     4.959834375674999e+00   2.990663601634309e+00   3.702084968000000e+00  8.19266470e-01  -2.64895742e+00  -1.38440206e+00
C     6.198006587175000e+00   3.648040049253000e+00   3.565116376000000e+00  2.30728678e+00   2.15161885e+00   3.17286700e-01
C     6.091727643825000e+00   2.019561133802012e+00   4.752710399999999e-02  1.30424273e+00   5.09996105e+00  -1.03098877e+00
C     7.422207573074999e+00   2.895211980785725e+00   3.683560000000000e-02 -2.96054600e-02  -4.04755418e+00  -2.11413074e+00
C     7.508328707774999e+00   2.956623049831051e+00   3.445993296000000e+00 -4.24435649e+00  -9.16441070e-01   7.74362410e-01
C     8.750649329400000e+00   3.619435367478731e+00   3.499260008000000e+00 -3.35277422e+00   5.88091180e-01  -6.28748280e-01
C     2.469155928375000e+00   4.178404565203869e+00   1.300845372000000e+01 -1.95977710e-01   1.60580145e+00   2.03132838e+00
C     3.651097890975000e+00   4.989213326036340e+00   1.325374236800000e+01  1.42848787e+00  -3.57336501e+00  -2.28579440e-01
C     3.655909817475000e+00   5.059589843745037e+00   3.771394920000000e+00  1.78545553e+00  -7.33672440e-01  -1.16581590e+00
C     4.861471262175000e+00   5.854846504790284e+00   3.662977080000000e+00  2.94829939e+00  -4.28746433e+00  -3.62824550e-01
C     4.928980956675000e+00   4.217034664359918e+00   1.349270524800000e+01 -9.70375110e-01   1.98982623e+00  -6.03998190e-01
C     6.202054979925000e+00   4.981562671511626e+00   7.398943999999999e-03 -2.34758783e+00  -1.84006664e+00  -8.29825990e-01
C     6.225669396450000e+00   5.091614014961074e+00   3.616372464000000e+00 -2.34710217e+00   1.04601394e+00   7.02702600e-02
C     7.458412531724999e+00   5.841068000174808e+00   3.634551447999999e+00 -3.64580480e-01  -4.88937327e+00  -1.03914184e+00
C     7.431204034275000e+00   4.364842245980417e+00   1.357373282400000e+01  8.51192090e-01  -4.86006560e+00   6.07436500e-02
C     8.653790802600000e+00   5.013180684694182e+00   1.328549945600000e+01  2.06592190e-01  -6.49179975e+00  -7.02126430e-01
C     8.660651883600000e+00   5.045065307131450e+00   3.528987432000000e+00  5.08810820e-01   1.06835790e+00   1.36943399e+00
C     9.865211305799999e+00   5.762119703533394e+00   3.698718696000000e+00 -4.29332700e-02  -2.13723720e-01  -5.08659970e-01
C     7.396879882950000e+00   1.060064782276500e-01   7.343402552000000e+00  2.02518950e+00  -2.55285584e+00  -2.69953372e+00
C     1.240003657200000e+00   7.694432750592589e-01   6.946306624000000e+00  8.58352550e-01  -2.79922721e+00  -3.48155150e-01
C     1.127084521500000e+00   6.208028837466456e-01   1.016959298400000e+01  5.76519923e+00  -1.17095970e-01   4.38717880e-01
C     2.445222935250000e+00   1.358098833711220e+00   1.025529909600000e+01 -2.08151318e+00  -5.01124120e-01  -9.18787550e-01
C     2.479497133350000e+00   4.576213687925881e-02   6.660512280000000e+00 -1.69018314e+00  -1.11343461e+00   8.70597270e-01
C     3.636664773675000e+00   8.160277826903203e-01   6.515844184000000e+00  1.28574863e+00  -6.68132000e-01   9.11089040e-01
C     3.647424905400000e+00   6.810280123214568e-01   1.049262793600000e+01 -8.00782340e-01  -1.06537089e+00  -5.76517620e-01
C     4.851763328024999e+00   1.402146486718778e+00   1.039481782400000e+01  2.54444480e+00  -8.28111640e-01  -1.68216788e+00
C     4.812208138575000e+00   1.056841519295562e-01   6.835908352000001e+00  3.72726257e+00  -1.98837253e+00   7.88448520e-01
C     6.149861920349999e+00   7.636553629757052e-01   7.116194968000000e+00 -2.59041848e+00  -2.28252372e+00  -5.78275080e-01
C     6.105490256474999e+00   5.745241153858206e-01   1.035721069600000e+01  1.68279980e-01   1.65559285e+00  -4.36188360e-01
C     7.376568702000000e+00   1.299046324750575e+00   1.009617107200000e+01 -5.35917588e+00   2.56496564e+00   1.49862305e+00
C     1.317999868425000e+00   2.110042025869978e+00   6.736391712000000e+00 -1.95535169e+00   4.32898203e+00   1.50442091e+00
C     2.491110278325000e+00   2.964977404209421e+00   6.624894832000000e+00 -8.69883450e-01  -3.09884160e-01   2.95064170e-01
C     2.426821587000000e+00   2.748615636454288e+00   1.002470919200000e+01 -9.48710550e-01   4.91896630e-01   4.20533700e-01
C     3.597761712300000e+00   3.513584768887394e+00   9.935964975999999e+00  3.74038171e+00  -7.45762570e-01   1.18711698e+00
C     3.655879867725000e+00   2.221349052158036e+00   6.437317104000000e+00  3.49567432e+00   1.41965051e+00   1.85071759e+00
C     5.003135983049999e+00   2.874626966874063e+00   6.636675016000000e+00 -3.18159101e+00   8.76427640e-01   7.20919610e-01
C     4.894997493000000e+00   2.818802844300643e+00   1.001409575200000e+01 -2.13097728e+00  -1.46828695e+00   1.47653711e+00
C     6.110309873775000e+00   3.535362511782902e+00   1.016596776800000e+01  1.30295570e-01  -2.19740165e+00   2.81377060e-01
C     6.127335936900000e+00   2.121732934550830e+00   6.979845311999999e+00  2.87828865e+00   2.69511755e+00  -9.74351620e-01
C     7.470286276500000e+00   2.818921835411682e+00   6.977141495999999e+00 -1.43317180e+00  -2.05505965e+00  -9.11220060e-01
C     7.302774810449999e+00   2.812117567605747e+00   1.019892301600000e+01  1.76102369e+00  -3.63794694e+00  -1.12457896e+00
C     8.563254298275000e+00   3.431468670138109e+00   1.012788382400000e+01 -5.17331330e-01   1.93764197e+00   1.19727283e+00
C     9.877169834249999e+00   4.401598651414364e+00   6.932358056000000e+00  2.32472271e+00  -1.98873951e+00   8.75294700e-02
C     3.859726814175000e+00   5.005408669483022e+00   7.174596088000000e+00 -6.33355409e+00   3.24496098e+00  -1.11522391e+00
C     3.738048966525000e+00   4.919419723878059e+00   1.014299832000000e+01 -3.85622709e+00  -9.87042550e-01  -2.60240780e-01
C     4.942469843400000e+00   5.619054987198854e+00   1.017261055200000e+01 -1.10471168e+00  -9.31037900e-02   8.15051970e-01
C     5.002937390325000e+00   4.369932478212702e+00   6.806491552000000e+00  5.73830010e-01  -3.68549595e+00  -1.02187630e-01
C     6.222003879824999e+00   5.007325207690206e+00   6.710943664000000e+00  1.63601358e+00   1.57271810e-01   1.15139264e+00
C     6.152851570950000e+00   4.887397602024538e+00   1.038284302400000e+01 -1.96992363e+00   2.62307197e+00  -1.05073903e+00
C     7.277497776075000e+00   5.632782449879185e+00   1.061722855200000e+01  4.78281980e+00  -7.56245870e-01  -1.64410858e+00
C     7.457070635025000e+00   4.163304862191875e+00   6.849920431999999e+00 -1.16880508e+00   5.54122749e+00  -6.87734250e-01
C     8.607595457775000e+00   5.024101673495104e+00   6.919473959999999e+00  1.91158120e-01   1.20975629e+00  -3.14613350e-01
C     8.563332426450000e+00   4.837229848078228e+00   1.044183832800000e+01 -1.60653000e-03   1.23006716e+00  -5.80946190e-01
C     9.832294275075000e+00   5.540077615226755e+00   1.040147488800000e+01 -8.06707000e-02   1.81320943e+00  -1.07855802e+00
