72
Lattice="7.395 0 0 3.6975 6.40425786098592 0 0 0 13.6 " PBC="1 1 1" Properties=species:S:1:pos:R:3:force:R:3 Energy="-583.59453468"
C     3.669142023750000e+00   6.300097216972760e+00   1.353433539200000e+01  4.54727610e-01  -8.73584470e-01  -3.75629600e-02
C     1.191222428775000e+00   6.087191378886618e-01   1.354080042400000e+01  8.55408860e-01  -8.06112020e-01   3.79658000e-03
C     1.299043118700000e+00   8.484470966163192e-01   3.461615072000000e+00  3.09033900e-02   3.68748860e-01  -3.74723400e-02
C     2.537050162875000e+00   1.551747132454919e+00   3.478571824000000e+00 -1.56671350e-01   6.53924980e-01  -1.21814860e-01
C     6.124973456250000e+00   6.281179935850420e+00   1.354140331200000e+01  7.42363440e-01   3.92221960e-01  -8.39426000e-02
C     3.676385500200000e+00   5.971217313725664e-01   1.351507888000000e+01 -1.07523980e-01  -8.54864300e-02   2.07677050e-01
C     3.766566268050000e+00   8.503308450232596e-01   3.485313480000000e+00  4.04493340e-01   4.75886990e-01   1.67152100e-02
C     5.006343083625000e+00   1.586602690113441e+00   3.493776216000000e+00 -1.75468560e-01  -7.49008880e-01  -2.18770450e-01
C     8.617519178024999e+00   6.281569763026358e+00   1.352743448000000e+01 -2.56043380e-01   1.56965290e-01  -1.11981600e-01
C     6.166435261575000e+00   6.054729476645850e-01   1.354906854400000e+01 -1.56553100e+00  -4.43069100e-02   1.31843800e-02
C     6.237092711774999e+00   8.657900190289350e-01   3.464304336000000e+00 -2.64159130e-01  -4.13401330e-01   9.80356500e-02
C     7.464198823425001e+00   1.577116191030580e+00   3.448105512000000e+00  3.71502000e-03  -2.88364880e-01   7.53926500e-02
C     1.204594511475000e+00   2.013681640831060e+00   1.354368784000000e+01  1.98548020e-01   3.64442230e-01   2.42532300e-02
C     2.446276242075000e+00   2.723925237084051e+00   1.351879032000000e+01 -3.91783190e-01  -8.45797000e-03  -2.49537500e-02
C     2.540121971925000e+00   2.992679533923480e+00   3.471188112000000e+00 -1.73893090e-01  -6.22131610e-01   6.62935300e-02
C     3.768568871025000e+00   3.699315611723933e+00   3.501042424000000e+00 -4.78507700e-02   4.88530000e-03  -2.75916570e-01
C     3.670141753800000e+00   2.042753961514266e+00   1.351788265600000e+01  6.72510070e-01  -1.44056322e+00   2.90828480e-01
C     4.907658990149999e+00   2.746208019754399e+00   1.358982012800000e+01 -4.27747400e-02  -8.61844660e-01  -2.48121850e-01
C     5.010479476875000e+00   3.004188881894000e+00   3.488678800000000e+00 -4.91001760e-01  -4.27968270e-01   1.53180500e-01
C     6.231650842200000e+00   3.705998903098893e+00   3.484046504000000e+00  1.82328560e-01   4.78060700e-01  -1.90035690e-01
C     6.153355392299999e+00   2.033250427105498e+00   1.359786575200000e+01 -7.89797680e-01  -5.95005420e-01  -1.46528600e-01
C     7.370567844375000e+00   2.722214531724488e+00   1.358680106400000e+01  4.18768890e-01   5.80027310e-01  -3.55266200e-02
C     7.453627375124999e+00   2.997080539924871e+00   3.450337816000000e+00  6.65000930e-01  -1.08290270e-01   8.77911500e-02
C     8.701443258224998e+00   3.702215972023569e+00   3.451224672000000e+00 -2.70869930e-01  -2.47094030e-01   1.90970800e-01
C     2.455739919375000e+00   4.132398426100144e+00   1.350306600000000e+01 -6.08452120e-01   8.39346770e-01   5.51217400e-02
C     3.675365249025000e+00   4.856724729216961e+00   1.351282264000000e+01 -2.11012020e-01   4.88520920e-01   2.72942910e-01
C     3.758379966075000e+00   5.112528463897054e+00   3.475777976000000e+00  2.93868080e-01   5.61965080e-01   4.17372500e-02
C     4.995206990100000e+00   5.837249205255469e+00   3.467623688000000e+00 -1.66415280e-01  -2.15011930e-01   3.86205900e-02
C     4.894089941624999e+00   4.144645160320665e+00   1.358374895200000e+01  8.71496020e-01   7.95959740e-01  -2.09022630e-01
C     6.146456042175000e+00   4.854033531979032e+00   1.357619537600000e+01 -6.83271200e-01   4.55050920e-01   8.09557800e-02
C     6.231166136924999e+00   5.136148519651149e+00   3.476222424000000e+00 -1.63458160e-01  -3.17947470e-01  -1.76900000e-03
C     7.458845213175000e+00   5.838120248367007e+00   3.476727800000000e+00  3.79236350e-01  -1.60444180e-01   5.41622200e-02
C     7.370557602300000e+00   4.148524155263889e+00   1.358370271200000e+01  2.53538350e-01  -1.80558000e-02  -3.34326470e-01
C     8.606022578250000e+00   4.845845111921815e+00   1.350676656000000e+01  3.22824340e-01   6.94625090e-01   3.89362580e-01
C     8.693296926224999e+00   5.114217522865051e+00   3.484890792000000e+00  1.20988230e-01   5.57915390e-01  -2.42257710e-01
C     9.928349076300000e+00   5.827519984799713e+00   3.472901712000000e+00 -1.72723110e-01   4.66426860e-01   3.63493600e-02
C     7.424879682375000e+00   9.782254115093460e-02   6.989022320000000e+00 -8.68699500e-02   1.30024490e-01  -3.61259720e-01
C     1.259882119725000e+00   8.047428399152142e-01   6.928797848000000e+00  5.12247830e-01   3.67040000e-01  -1.75590720e-01
C     1.136921350500000e+00   5.905841368639212e-01   1.006186629600000e+01  1.03183118e+00  -3.97754980e-01   2.40387290e-01
C     2.390721045750000e+00   1.305532941366654e+00   1.009641845600000e+01 -5.32404730e-01  -5.44330810e-01  -3.69756000e-03
C     2.500321749150000e+00   9.258251332730401e-02   6.853132616000000e+00 -1.98940810e-01   1.69178050e-01   1.33715070e-01
C     3.732617302050000e+00   8.168445176952061e-01   6.819347496000000e+00 -3.03158690e-01   1.76526200e-02   2.52048040e-01
C     3.626224290825000e+00   5.975361508986871e-01   1.015657968800000e+01 -6.29055230e-01  -6.18024650e-01  -3.25237440e-01
C     4.843996803224999e+00   1.293571901089268e+00   1.010671406400000e+01  4.98115960e-01   2.53365580e-01   3.48439000e-03
C     4.957262172825000e+00   9.950558011654261e-02   6.889513840000000e+00 -1.40314980e-01  -2.17292480e-01   5.36991200e-02
C     6.180143003325000e+00   8.052065081842782e-01   6.962906239999999e+00  5.22852750e-01  -1.01338260e-01  -3.64791590e-01
C     6.077034333449999e+00   5.708035617820536e-01   1.009041460000000e+01 -7.42936500e-02   5.99251240e-01   2.37942200e-02
C     7.307751756375000e+00   1.277012667710980e+00   1.004667360000000e+01 -2.27448350e-01   8.89727710e-01   1.12198820e-01
C     8.667015428999999e+00   2.242185112977810e+00   6.918838431999999e+00 -1.27221360e-01  -4.87837440e-01  -2.52735500e-01
C     2.495480649375000e+00   2.969948517245510e+00   6.858403160000000e+00  2.49251570e-01  -8.63638410e-01   2.68793440e-01
C     2.383563721050000e+00   2.715748344690982e+00   1.005723916800000e+01  3.04313400e-02   2.04535860e-01   1.86086800e-01
C     3.616796959950000e+00   3.425164126572989e+00   1.003726634400000e+01 -1.90289270e-01   4.60042360e-01   1.73290600e-01
C     3.730963114500000e+00   2.248283503482416e+00   6.822790064000000e+00 -8.82306200e-02  -1.61583930e-01   1.40254460e-01
C     4.965340655700000e+00   2.951670060844705e+00   6.860245008000001e+00  1.07394870e-01  -1.41935320e-01   6.38888700e-02
C     4.841667526125000e+00   2.715179838720749e+00   1.004446060800000e+01  5.22879710e-01   2.26328830e-01   2.36363130e-01
C     6.088849214024999e+00   3.431202637266605e+00   1.005494756800000e+01 -5.06930350e-01  -6.81265300e-02   1.46727100e-02
C     6.191948344349999e+00   2.217232459248207e+00   6.913330840000000e+00  3.81278500e-02   8.24027680e-01  -3.31731000e-02
C     7.432513134150000e+00   2.937508197353730e+00   6.926118648000000e+00 -1.26224470e-01   2.23740600e-02  -1.75518820e-01
C     7.311597082424999e+00   2.713844550956940e+00   1.003791302400000e+01  1.64563200e-02  -2.89464290e-01   4.03484550e-01
C     8.540692486049998e+00   3.421083717720068e+00   1.007723688000000e+01  1.01431660e-01   3.48082110e-01  -2.77887700e-02
C     9.896934339825000e+00   4.378322568349930e+00   6.931600264000000e+00  1.05897680e-01   3.41311800e-02  -2.76353330e-01
C     3.737751798450000e+00   5.085111003444872e+00   6.954626696000000e+00 -3.56972600e-02   1.25579500e-02  -2.55892660e-01
C     3.608223899475000e+00   4.861653702236332e+00   1.003766550400000e+01  4.39333190e-01  -5.07731100e-01   3.12784770e-01
C     4.841657247075000e+00   5.568546334606656e+00   1.006383108800000e+01  3.34052340e-01  -7.88680100e-02   5.55903400e-02
C     4.975163212349999e+00   4.382075527498469e+00   6.891964560000000e+00 -5.28908060e-01  -7.32083670e-01  -1.88696100e-02
C     6.198461934299999e+00   5.069025044722439e+00   6.871278688000000e+00  7.87067500e-01   6.37944380e-01   1.38385100e-02
C     6.087912822149999e+00   4.853445941320376e+00   1.009008643200000e+01 -1.80103320e-01   2.44781150e-01   1.09675510e-01
C     7.325873388749999e+00   5.568146388703298e+00   1.015792459200000e+01 -5.73596970e-01   5.48988200e-02  -2.04187950e-01
C     7.449580609274999e+00   4.362754201747742e+00   6.887211224000001e+00 -1.13849261e+00  -3.04188480e-01  -4.42252000e-03
C     8.661175449599998e+00   5.072258298345639e+00   6.912954800000000e+00  2.61308540e-01   6.80520770e-01  -7.64112000e-02
C     8.543739410924999e+00   4.850956926503088e+00   1.013231021600000e+01  2.28767260e-01  -1.71872820e-01  -1.52152530e-01
C     9.778907773424999e+00   5.570268951885839e+00   1.009674825600000e+01 -3.26540900e-01  -6.23791840e-01   4.13877100e-02
