72
Lattice="7.395 0 0 3.6975 6.40425786098592 0 0 0 13.6 " PBC="1 1 1" Properties=species:S:1:pos:R:3:force:R:3 Energy="-575.20859314"
C     3.673774732425000e+00   6.167244153838568e+00   1.355171959200000e+01  1.37826056e+00   2.43160170e+00   6.20151030e-01
C     1.226061272100000e+00   5.920075472158848e-01   6.066756000000000e-02 -6.54600820e-01  -2.22866076e+00  -9.16136890e-01
C     1.450474822800000e+00   9.884052355481304e-01   3.729752400000000e+00 -1.54371851e+00   7.88274710e-01  -4.70932350e-01
C     2.592754775175000e+00   1.837549819887982e+00   3.883650544000000e+00  9.24111350e-01  -3.16711387e+00  -8.11305460e-01
C     6.126103042500000e+00   6.209804482000720e+00   1.346831745600000e+01  7.91794130e-01   1.38033489e+00   9.88559850e-01
C     3.675001525950000e+00   5.434092207007464e-01   1.348256114400000e+01 -3.03246320e-01  -2.32043030e-01   4.06146000e-02
C     3.793383865800000e+00   1.029180504916964e+00   3.745265920000000e+00  1.64843771e+00  -5.94531180e-01  -8.37623840e-01
C     5.082447579900000e+00   1.681729807216259e+00   3.548285288000000e+00 -2.16330319e+00   8.77360230e-01   1.51681429e+00
C     8.642636147625000e+00   6.272564992219727e+00   1.335859755200000e+01 -2.24677371e+00  -2.51696768e+00   1.11740403e+00
C     6.170603157524999e+00   5.404042788702558e-01   1.347614901600000e+01  8.47581500e-02  -1.61822649e+00   2.07233800e-02
C     6.284577374850000e+00   1.014452761201480e+00   3.484167408000000e+00  2.56515573e+00  -9.40057600e-02   1.67731280e-01
C     7.568333549550000e+00   1.625277426946774e+00   3.661962792000000e+00 -2.66363330e-01   4.18430320e+00   1.94835360e-01
C     1.208112719700000e+00   2.056985759501073e+00   1.110355680000000e-01 -8.20164190e-01  -4.77472723e+00  -5.58195200e-01
C     2.410188420225000e+00   2.724797368919426e+00   1.484869760000000e-01  1.81964809e+00  -2.13372732e+00  -3.87258480e-01
C     2.576909138925000e+00   3.256810468928617e+00   3.837496224000000e+00  3.77138181e+00  -3.87095536e+00  -6.97968040e-01
C     3.878804989800000e+00   3.801547996752106e+00   3.583943807999999e+00 -9.58453850e-01   3.67712088e+00   4.67669910e-01
C     3.626058125175000e+00   1.939743459156103e+00   8.119961599999999e-02  2.57749617e+00   1.18909410e+00  -1.00037275e+00
C     4.960494971025000e+00   2.653697682413177e+00   1.352513444800000e+01 -2.71770333e+00  -7.67089520e-01   2.18158160e-01
C     5.100784000050000e+00   3.087420090021868e+00   3.660054440000000e+00 -1.06588314e+00   9.62997590e-01  -1.22308659e+00
C     6.287948163750000e+00   3.867848332418070e+00   3.623482816000000e+00  1.80164536e+00  -5.42010550e+00   5.65203740e-01
C     6.197593613400000e+00   1.953416741814939e+00   1.347852072000000e+01 -5.08400682e+00  -2.95422223e+00   5.19548000e-02
C     7.328798333099999e+00   2.597640508896233e+00   1.350367868000000e+01  4.86196095e+00   3.56070006e+00   8.17520900e-02
C     7.547661640499999e+00   3.158527205467234e+00   3.768590056000000e+00 -3.49695250e-01  -2.50284400e+00  -6.25816630e-01
C     8.777833386375001e+00   3.866310221807834e+00   3.795543352000000e+00 -2.00048776e+00   2.05433418e+00  -9.33920810e-01
C     2.463640515525000e+00   4.083322598118964e+00   2.606630400000000e-02 -2.52272393e+00   1.82306424e+00  -1.73781580e-01
C     3.687708983025000e+00   4.735804143370100e+00   2.261367200000000e-02  1.57009660e-01   2.40361821e+00  -1.00941434e+00
C     3.910981078500000e+00   5.301816871974824e+00   3.407321424000000e+00 -2.69043820e-01  -7.78561640e-01   9.10878390e-01
C     5.183444089875000e+00   5.979653706647221e+00   3.500194736000000e+00 -2.43245695e+00  -6.04475400e-02   5.94717580e-01
C     4.910781417975000e+00   4.061144140809156e+00   1.346857517600000e+01  1.12435779e+00   8.73726400e-02   1.01590319e+00
C     6.143915970600000e+00   4.795580909852133e+00   1.342748440800000e+01 -3.56994220e-01  -1.48808905e+00  -1.01071287e+00
C     6.328553036475000e+00   5.186739338871691e+00   3.614515248000000e+00  8.83248050e-01   5.03125370e+00   4.29560800e-02
C     7.541661448425000e+00   5.944739485986702e+00   3.683763184000000e+00  7.81870330e-01   1.45635784e+00  -4.66445080e-01
C     7.360258105125000e+00   3.969790604565186e+00   1.332539138400000e+01 -4.63260670e-01   5.26835742e+00   1.46131299e+00
C     8.558462745000000e+00   4.773302546119708e+00   1.345771612000000e+01  2.35105687e+00   6.33288870e-01  -5.73004080e-01
C     8.818993401749999e+00   5.266689901868196e+00   3.581638064000000e+00 -1.14238778e+00   2.12719904e+00   3.85651670e-01
C     1.004334202882500e+01   6.056219427236980e+00   3.423976664000000e+00 -2.03214010e-01  -4.76303781e+00   4.56028860e-01
C     7.431832646249999e+00   1.763970853036392e-01   6.972989416000000e+00 -2.48349110e-01  -9.29267980e-01   2.09662000e-03
C     1.227605052300000e+00   9.058889347251745e-01   7.049370552000000e+00  1.47418710e+00   4.94909570e-01  -9.47223590e-01
C     1.070295580350000e+00   4.129555127738040e-01   9.819917672000001e+00  1.56676285e+00  -1.46789180e-01   1.19230580e-01
C     2.261515827600000e+00   1.128067753937124e+00   1.000053220000000e+01  2.60533338e+00   5.90412200e-02   2.36462500e-01
C     2.490325336050000e+00   2.327028080681304e-01   6.898387024000000e+00 -8.84722680e-01  -2.65334372e+00   2.42845640e-01
C     3.776137468650000e+00   8.597433108852589e-01   6.851444583999999e+00 -9.29694050e-01  -7.59284500e-02   7.16342580e-01
C     3.549262935900000e+00   3.521589963127236e-01   1.005469229600000e+01 -7.20884240e-01   3.18162781e+00  -6.83195470e-01
C     4.823605238625000e+00   1.132628418086966e+00   9.921871296000001e+00 -3.42127902e+00  -1.49032399e+00   7.28508190e-01
C     5.027792244150000e+00   1.519907147694936e-01   6.926029568000000e+00 -6.84635780e-01   1.50701302e+00  -3.96156800e-01
C     6.268363541550000e+00   9.160439102434620e-01   7.002873104000000e+00 -3.00133811e+00   8.63380300e-02  -8.20474990e-01
C     6.000015001725000e+00   5.042116402557235e-01   9.750651103999999e+00  2.35525674e+00  -4.22489468e+00   2.42067710e-01
C     7.292347860450000e+00   1.098626099703132e+00   9.657730191999999e+00 -2.91266768e+00   3.60879188e+00   1.26254964e+00
C     8.585256789675000e+00   2.326821927620791e+00   7.122307488000000e+00  1.57765522e+00   1.06427490e+00  -8.27979430e-01
C     2.510617216050000e+00   2.965627628509947e+00   7.102219471999999e+00 -2.88823483e+00   1.30866539e+00  -1.25062008e+00
C     2.302486494000000e+00   2.599128217997111e+00   1.002896871200000e+01  9.42964160e-01  -3.29989097e+00  -1.19546650e-01
C     3.563421920550000e+00   3.206589495599490e+00   9.972203536000000e+00 -9.14843930e-01   2.91544444e+00  -3.57962850e-01
C     3.709201589175000e+00   2.273934413446496e+00   6.921459695999999e+00  1.45403301e+00   2.86100290e-01   5.00665490e-01
C     4.932673095299999e+00   3.016991313569033e+00   6.948922039999999e+00 -2.49708010e-01  -1.91099890e-01  -3.02007980e-01
C     4.787309728200000e+00   2.495166106963530e+00   9.903219712000000e+00 -9.32603570e-01   2.54378859e+00  -5.04080900e-01
C     5.932658124900000e+00   3.242003120287932e+00   9.654337536000000e+00  3.86013958e+00   8.80801550e-01   1.88300571e+00
C     6.192260228475000e+00   2.353967783497130e+00   6.989218295999999e+00 -1.34384430e-01   4.76663360e-01  -4.15789970e-01
C     7.382015008574999e+00   3.161005845386790e+00   7.033073807999999e+00  1.20091027e+00  -4.01153776e+00  -2.77523670e-01
C     7.261944686025000e+00   2.556551238764523e+00   9.690302056000000e+00 -8.75813700e-02   3.73948100e-01   1.00241199e+00
C     8.532440479500000e+00   3.316615286060076e+00   9.911499936000000e+00 -3.19218028e+00  -1.53511042e+00  -2.42990760e-01
C     9.840625999724999e+00   4.419105907083668e+00   6.993188680000000e+00  1.18885550e+00  -1.43081923e+00   1.78853140e-01
C     3.635129608650000e+00   5.146159207239851e+00   6.950057503999999e+00  2.16962836e+00   4.63733060e-01  -1.42161130e-01
C     3.491290609875000e+00   4.654723036733571e+00   9.765003999999999e+00  2.06552565e+00   1.17066060e+00   9.00291610e-01
C     4.802684746650000e+00   5.425929339939109e+00   9.724880191999999e+00 -3.12968011e+00  -1.87009493e+00   1.01126105e+00
C     4.887034557000000e+00   4.442844889906223e+00   6.961119064000000e+00 -2.54662640e-01  -5.90654480e-01  -6.21538650e-01
C     6.090194438475001e+00   5.141197252292502e+00   6.897415304000000e+00  3.29200366e+00   3.50033869e+00  -1.51130200e-02
C     5.978089048575000e+00   4.712100960348983e+00   9.787113248000001e+00  8.61093640e-01  -2.24725369e+00   9.69600300e-02
C     7.228999998000001e+00   5.371034475181175e+00   9.965480375999999e+00  8.25338500e-02  -1.76270000e-03  -2.49482340e-01
C     7.433996645099999e+00   4.544643898805011e+00   6.934158696000001e+00 -4.26829897e+00  -1.82326212e+00   2.40838000e-02
C     8.654679607649999e+00   5.141058984365305e+00   6.956363959999999e+00  9.11024960e-01   2.29176105e+00  -2.66889160e-01
C     8.501101024124999e+00   4.707037625999710e+00   9.953313952000000e+00 -2.34190970e+00   8.83666400e-02  -1.79000800e-01
C     9.643207304924999e+00   5.435791833000930e+00   9.820163967999999e+00  3.68127029e+00   3.02919570e-01   2.29974310e-01
