72
Lattice="7.395 0 0 3.6975 6.40425786098592 0 0 0 13.6 " PBC="1 1 1" Properties=species:S:1:pos:R:3:force:R:3 Energy="-561.51682686"
C     1.094524650787500e+01   6.291726915992318e+00   1.348642531200000e+01  3.81944261e+00   4.25191200e-01  -1.88263913e+00
C     1.226982467250000e+00   5.775368704109005e-01   1.346379355200000e+01 -1.87054564e+00  -1.64979958e+00  -7.31836070e-01
C     1.330018555200000e+00   9.063323655394009e-01   3.869951128000000e+00 -1.77893900e+00  -7.40120100e-02  -6.27643130e-01
C     2.592983909250000e+00   1.556653370358887e+00   3.977864000000000e+00  5.13740170e-01  -1.65337652e+00  -1.26382198e+00
C     6.199088993325000e+00   6.196289256425869e+00   1.325825702400000e+01 -4.11609185e+00   2.63656562e+00   1.17192491e+00
C     3.657653706375000e+00   4.748404328581914e-01   1.348918869600000e+01  2.25506548e+00   2.64032002e+00  -1.88617692e+00
C     3.888771453150000e+00   9.371809071400776e-01   3.732497016000000e+00  2.09260830e-01   6.01376950e-01   4.31582330e-01
C     5.188502898450000e+00   1.713134238399184e+00   3.694902672000000e+00 -5.14194518e+00  -4.95302450e-01  -2.16574408e+00
C     8.623370841524999e+00   6.295064943274107e+00   1.330206697600000e+01 -1.50811789e+00  -1.45459291e+00  -4.08755760e-01
C     6.070842056249999e+00   6.467765042642905e-01   1.314083054400000e+01  3.29498426e+00  -5.49979740e-01   1.46403277e+00
C     6.298842514725000e+00   9.209568085756038e-01   3.538944944000000e+00 -7.22635370e-01   3.09378677e+00   4.99365510e-01
C     7.446220654050000e+00   1.590608105106821e+00   3.814450752000000e+00  5.30208160e+00   4.52115737e+00   8.40766480e-01
C     1.214286102675000e+00   1.996740073258531e+00   1.348372285600000e+01 -1.12362039e+00   2.86016600e-02  -7.60761150e-01
C     2.446708664700000e+00   2.697904673356292e+00   2.156474480000000e-01  5.54275520e-01  -3.20958720e+00  -2.67730013e+00
C     2.567719890075000e+00   2.900727199569599e+00   3.906032064000000e+00  3.15155243e+00   4.14264802e+00  -2.27712270e-01
C     3.789433456800000e+00   3.641548373273211e+00   3.682130640000000e+00 -3.16301310e-01   4.04039115e+00  -2.38536053e+00
C     3.644802046800000e+00   1.907050683419482e+00   1.345231909600000e+01  1.59546609e+00   3.06293875e+00   1.56866896e+00
C     4.901825925074999e+00   2.746847741072035e+00   1.313102698400000e+01 -9.26498630e-01  -1.32076175e+00  -1.33739340e-01
C     5.119846276425000e+00   3.135909480110807e+00   3.388474816000000e+00 -3.16704546e+00  -3.33478551e+00   3.79860855e+00
C     6.224449295399999e+00   3.875281626431015e+00   3.625269176000000e+00  5.75919412e+00   2.12086711e+00   1.32111715e+00
C     6.188320172475001e+00   2.056602720838466e+00   1.288428232000000e+01 -4.53989159e+00  -2.03370727e+00   1.73108988e+00
C     7.375684296975000e+00   2.681296191235062e+00   1.295927272000000e+01  4.38634676e+00   2.63845398e+00   3.19831338e+00
C     7.564125165975000e+00   3.211132227827324e+00   4.038573992000000e+00 -5.06734898e+00  -4.80929517e+00  -3.21090557e+00
C     8.848499340824999e+00   3.740715168148959e+00   3.947435768000000e+00 -2.04754199e+00  -6.06661950e-01   1.32694190e-01
C     2.513569669800000e+00   4.052854661562908e+00   2.073080640000000e-01 -2.97925002e+00   3.62722686e+00  -3.06195700e+00
C     3.653805792075000e+00   4.818751963087663e+00   1.356363006400000e+01  1.70973756e+00   1.40547126e+00  -8.31202320e-01
C     3.703512911475000e+00   5.195505615115616e+00   3.447701456000000e+00  1.91583744e+00  -1.09154237e+00   1.48441253e+00
C     4.980229120124999e+00   5.915059465275161e+00   3.649641056000000e+00 -2.45356682e+00   1.17969062e+00  -7.15121010e-01
C     4.873236300449999e+00   4.175464818718393e+00   1.309607280800000e+01  4.04539890e-01   5.46070000e-02   8.74035210e-01
C     6.162709845449999e+00   4.922668155592388e+00   1.280083992800000e+01 -3.00288870e-01  -4.14869400e+00   2.96805024e+00
C     6.206198435400000e+00   5.352164713652157e+00   3.670402272000000e+00  2.34144703e+00  -5.13586855e+00  -6.23425500e-01
C     7.491350046599999e+00   5.929549290811146e+00   3.621496264000000e+00  2.17066622e+00  -1.12762755e+00   1.73192199e+00
C     7.429473012675000e+00   4.157329689608495e+00   1.306603353600000e+01 -6.57154160e-01  -2.15045250e-01  -1.83679719e+00
C     8.665457746200000e+00   4.859285343637125e+00   1.325450233600000e+01  8.03345800e-02  -1.94548950e+00   2.93717866e+00
C     8.801936057774999e+00   5.080624628686206e+00   3.733484648000000e+00 -2.13877809e+00   6.93635473e+00  -2.35777465e+00
C     9.897155746125000e+00   6.003142603200343e+00   3.393294384000000e+00  1.54149869e+00  -8.35574125e+00   1.79142842e+00
C     7.452135544800000e+00   1.422985109241696e-01   6.503464104000000e+00 -1.69923565e+00   1.84706565e+00   7.22391920e-01
C     1.289184363525000e+00   7.516218264993438e-01   6.822519560000000e+00 -1.21438942e+00   4.63153638e+00   6.82956880e-01
C     1.095546103650000e+00   4.629719981494608e-01   9.948444336000000e+00 -3.32964140e-01   5.09283152e+00   1.83416211e+00
C     2.249936921475000e+00   1.221396811603168e+00   1.018174948000000e+01  4.40512170e+00   1.01187040e-01  -1.12938436e+00
C     2.435837903775000e+00   1.571943664084794e-01   7.192874487999999e+00  4.22734515e+00  -3.48351180e+00  -3.21848840e-01
C     3.688608658725000e+00   9.617703754064406e-01   7.443935656000000e+00 -1.66760181e+00  -3.32015485e+00  -3.26749551e+00
C     3.650401947525000e+00   5.008141814609934e-01   9.883348887999999e+00 -4.76763248e+00  -3.40198170e-01   2.67707000e-02
C     4.780872417674999e+00   1.284148932244378e+00   9.841124016000000e+00  2.84832020e+00  -1.78273599e+00   2.28314339e+00
C     4.715895621600000e+00   1.941070357342116e-01   6.808010808000000e+00  4.59599094e+00  -7.33012810e-01   1.11731339e+00
C     6.061558632075000e+00   8.579295610167282e-01   6.574915784000000e+00  4.76811220e-01  -3.76900105e+00   9.22682890e-01
C     6.016368637500000e+00   4.874307555129012e-01   9.852594119999999e+00 -7.15307890e-01  -1.46065959e+00   3.07269080e-01
C     7.226483812275000e+00   1.140085407853993e+00   1.008016849600000e+01  1.17938700e-02   2.11815940e+00  -1.33388708e+00
C     8.678051135399999e+00   2.258547479469482e+00   7.009813184000000e+00  3.73723815e+00  -1.91376139e+00  -3.21919250e-01
C     2.565475285725000e+00   3.116917141086349e+00   7.155022560000000e+00 -2.60508473e+00  -2.48797207e+00   1.25822579e+00
C     2.305841087850000e+00   2.691123332793496e+00   1.037762293600000e+01  1.00503356e+00  -4.75660246e+00  -8.74836210e-01
C     3.564054156075000e+00   3.263120456112918e+00   1.034774564000000e+01  3.52953560e-01   5.25221003e+00  -3.61936360e-01
C     3.728435540475000e+00   2.354936235370719e+00   7.553142840000000e+00  3.95180030e-01   2.16082365e+00  -3.99355848e+00
C     4.959583426350000e+00   3.013628181596433e+00   7.174213520000000e+00  4.58130710e-01  -3.89009361e+00  -2.52316710e-01
C     4.787961708375000e+00   2.659816822713250e+00   1.019315416800000e+01  5.53059180e-01  -4.62780690e-01  -6.58589600e-01
C     5.981258508600000e+00   3.459414609948897e+00   1.010343877600000e+01  2.34529728e+00  -5.90257859e+00  -1.00105285e+00
C     6.150861539475000e+00   2.153442912876255e+00   6.846378039999999e+00  8.07600700e-01   4.95559116e+00   1.71791892e+00
C     7.483047938924999e+00   2.818927407116020e+00   6.957481608000000e+00 -3.42783280e+00   3.62504959e+00  -1.14902120e-01
C     7.226054680424999e+00   2.596986057785520e+00   1.005106096000000e+01  6.79126770e-01   1.11186129e+00   1.11218999e+00
C     8.523868343399998e+00   3.334723965585012e+00   1.017772496800000e+01 -4.93281983e+00   3.77271180e-01  -2.44177156e+00
C     9.895990220174999e+00   4.513429097697320e+00   6.958839432000000e+00  1.54253293e+00   7.80410500e-02  -1.91361227e+00
C     3.832756953375000e+00   5.219101462775000e+00   6.664929831999999e+00 -2.34207056e+00  -5.75507539e+00   2.25313899e+00
C     3.611518335000000e+00   4.775197822190796e+00   1.022327830400000e+01 -7.61476800e-01  -7.23367130e-01  -1.26416038e+00
C     4.906524412275000e+00   5.563671797779095e+00   1.003380133600000e+01 -2.95485919e+00  -6.98609626e+00  -3.81782620e-01
C     5.036165085000000e+00   4.341015268654865e+00   6.911179455999999e+00  3.24464070e-01   4.91148289e+00  -1.65479070e-01
C     6.357074035500000e+00   5.007220241903880e+00   7.049253592000000e+00 -6.87122593e+00   3.65099157e+00  -7.65641620e-01
C     6.078983137800000e+00   4.771681500370184e+00   9.813915855999999e+00 -3.93044440e-01   3.46616060e+00   1.23224448e+00
C     7.332721158749999e+00   5.435604124203054e+00   9.581312064000000e+00 -2.72939255e+00   2.39281733e+00   2.34271412e+00
C     7.501560175200000e+00   4.315150264350526e+00   7.066500704000000e+00 -8.10526850e-01  -3.03641930e+00  -7.57322290e-01
C     8.570145070199999e+00   5.103527087347088e+00   6.851432072000000e+00  3.37740764e+00   2.64484516e+00   2.10485350e-01
C     8.446022879250000e+00   4.670402645294787e+00   9.676274472000001e+00  4.93471909e+00   2.62017410e-01   3.22133289e+00
C     9.712854819975000e+00   5.388411596330763e+00   9.901566495999999e+00  9.93773950e-01   2.21000125e+00  -6.81413000e-02
