72
Lattice="7.395 0 0 3.6975 6.40425786098592 0 0 0 13.6 " PBC="1 1 1" Properties=species:S:1:pos:R:3:force:R:3 Energy="-569.42013747"
C     3.700523852474999e+00   6.265584607322641e+00   1.355402479200000e+01 -3.61390133e+00  -3.50529546e+00   3.65701610e-01
C     1.110331703625000e+00   5.516160850206007e-01   9.037607999999999e-03  6.02537987e+00  -6.87142260e-01   1.88317500e-02
C     1.388833097775000e+00   9.676907275425390e-01   3.760663704000000e+00 -4.97775050e-01   3.39284490e-01   1.72567470e-01
C     2.637936191550000e+00   1.652814582978359e+00   3.916278576000000e+00 -9.22516080e-01   1.30699768e+00   1.91042260e-01
C     6.039485999100000e+00   6.220210632512277e+00   1.346693433600000e+01  3.63019690e+00  -3.60681890e-01  -1.20799528e+00
C     3.604015404975000e+00   5.853634498990279e-01   1.340973600000000e+01  1.91346815e+00  -1.98258469e+00   1.55193203e+00
C     3.837425564775000e+00   9.416343640133431e-01   3.808343944000000e+00  1.05001047e+00   2.98236279e+00  -1.30128116e+00
C     5.003359607849999e+00   1.747205018299541e+00   3.534370992000000e+00  3.45121096e+00  -2.23434274e+00   1.53403516e+00
C     8.667549791699999e+00   6.176298301473300e+00   1.325904718400000e+01 -1.87267265e+00   3.41070050e+00   1.97086577e+00
C     6.216984523574999e+00   5.579756411607378e-01   1.337176656800000e+01 -4.52391077e+00  -3.37856780e-01  -4.56272240e-01
C     6.347461792650000e+00   1.048289273349318e+00   3.469908215999999e+00 -1.76603495e+00  -1.86897159e+00   3.84710480e-01
C     7.569582158325000e+00   1.772582082197527e+00   3.774828512000000e+00 -1.06870312e+00  -6.37084265e+00  -1.50805396e+00
C     1.208582967750000e+00   1.915951064822995e+00   5.557408800000000e-02  7.15823900e-01   3.33643308e+00   1.96555100e-01
C     2.471239987275000e+00   2.629762537172371e+00   1.773684800000000e-01 -2.24412170e+00   2.93578804e+00   1.68659330e-01
C     2.700063915975000e+00   3.127406290779772e+00   3.981069520000000e+00 -3.95915688e+00   4.50863040e-01  -2.22561162e+00
C     3.842018895075000e+00   3.851574664897760e+00   3.470617592000000e+00 -5.28193700e-01  -4.49695017e+00   3.31664412e+00
C     3.722739874500000e+00   2.065149779335843e+00   2.199804080000000e-01 -2.69990343e+00  -6.19650854e+00  -3.29716042e+00
C     4.815307715850000e+00   2.658964480034663e+00   1.329351053600000e+01  4.44498895e+00   1.72908083e+00   1.32982001e+00
C     5.061424112549999e+00   3.150537253361098e+00   3.638124984000000e+00  1.61778169e+00  -4.33914660e-01  -2.05694480e+00
C     6.368436120224999e+00   3.783639834540767e+00   3.601660528000000e+00 -4.46168703e+00   3.89477552e+00   1.53168700e-01
C     6.078372680550000e+00   1.968947835636382e+00   1.324224220800000e+01  3.54853670e+00   2.49830800e-01   1.21866057e+00
C     7.457293150574999e+00   2.716831496822844e+00   1.345787564800000e+01 -4.08268714e+00  -1.10071819e+00  -2.72226449e+00
C     7.495226838374999e+00   3.095002539200372e+00   3.846067623999999e+00  3.61146988e+00   3.84781256e+00   9.89230340e-01
C     8.719301665574999e+00   3.892394507901299e+00   4.009990600000000e+00  3.33190309e+00  -1.79100178e+00  -3.07863191e+00
C     2.427936789975000e+00   4.102916040786163e+00   9.405120800000000e-02  2.42904412e+00  -1.66175444e+00   5.31375120e-01
C     3.708127983075000e+00   4.814443690740084e+00   1.052185760000000e-01 -3.58465770e-01  -5.54933200e-02  -2.01916390e+00
C     3.827213217675000e+00   5.171647705224601e+00   3.419970920000000e+00  7.12194400e-01   5.05903121e+00  -6.09912410e-01
C     5.057544880425000e+00   5.931474346681284e+00   3.527480552000000e+00  9.70732740e-01   1.66881784e+00   6.18913340e-01
C     4.932306192375000e+00   4.075301905575101e+00   1.335813120800000e+01 -2.02763458e+00  -2.13410780e-01   3.75915640e-01
C     6.155486668275000e+00   4.703714840851627e+00   1.315059792800000e+01 -8.22024830e-01   5.04742401e+00   1.20283415e+00
C     6.346321150874999e+00   5.329672127494315e+00   3.598770120000000e+00 -1.53714302e+00  -4.42227357e+00   4.51126610e-01
C     7.557811277999999e+00   5.986549107042504e+00   3.746195616000000e+00  2.34476920e-01  -9.03207900e-01  -1.83815988e+00
C     7.425428169525000e+00   4.116425694656676e+00   1.308962844800000e+01  7.97236560e-01  -2.06644295e+00   3.70535462e+00
C     8.635228354275000e+00   4.789793574151787e+00   1.350193910400000e+01 -1.25551060e+00   1.44981699e+00  -2.77498117e+00
C     8.760604441424999e+00   5.248691311535873e+00   3.487864024000000e+00  4.19472840e-01  -1.07269645e+00   2.86561116e+00
C     1.002004478385000e+01   5.883519584038496e+00   3.338836040000000e+00 -6.85222990e-01   3.99478190e+00   1.10278782e+00
C     7.397117447324999e+00   1.436813823238794e-01   6.827170352000000e+00  5.65121010e-01   1.94936965e+00   9.47696900e-02
C     1.245313304175000e+00   8.634215963871499e-01   6.982532399999999e+00  1.33744680e-01   9.03478830e-01   7.24687000e-03
C     1.096904823975000e+00   4.726070119720950e-01   9.881646031999999e+00 -1.69184515e+00  -6.24852480e-01  -1.19283548e+00
C     2.371685946000000e+00   1.183590620220809e+00   1.011079991200000e+01 -3.39611979e+00  -2.68110028e+00  -1.05717232e+00
C     2.454304882650000e+00   9.485794614496201e-02   7.045858895999999e+00  1.77088789e+00   4.64340172e+00  -7.27967590e-01
C     3.724151432099999e+00   8.924093808666037e-01   7.060543632000000e+00 -1.32858294e+00  -2.83696500e-02  -2.32453850e-01
C     3.546223627875000e+00   4.915543931063767e-01   9.927467696000001e+00  8.52390760e-01  -3.68706264e+00   1.14911548e+00
C     4.768514078549999e+00   1.077485644507272e+00   9.994480608000000e+00  2.17792369e+00   3.33793140e+00  -1.93221181e+00
C     4.963050461174999e+00   1.858413803272026e-01   6.887589984000000e+00 -2.51910255e+00  -7.06179340e-01  -1.46196000e-01
C     6.145734105300000e+00   8.459504607321768e-01   6.792545976000000e+00  3.11204111e+00   2.31473636e+00   1.19269321e+00
C     6.040980713474999e+00   3.842992126811838e-01   9.706572959999999e+00 -2.04641997e+00   4.43291601e+00   9.37537900e-01
C     7.189924263375000e+00   1.176925004597542e+00   9.669363088000001e+00  3.67430654e+00  -2.57178905e+00   2.30535140e+00
C     8.674022191500001e+00   2.384239109336885e+00   7.071551064000000e+00 -5.55974590e-01  -4.83047674e+00   3.05612050e-01
C     2.429774595375000e+00   3.102357701267425e+00   7.255997799999999e+00  3.97990217e+00  -2.24642140e+00  -2.47048187e+00
C     2.317439738625000e+00   2.529486973133320e+00   1.019670159200000e+01 -1.19957740e+00   4.23924201e+00  -1.12284719e+00
C     3.544520448450000e+00   3.296658978142530e+00   1.018467307200000e+01  1.82874670e-01  -3.20755390e-01  -2.09995977e+00
C     3.715087010850000e+00   2.347432046223264e+00   7.125137376000001e+00 -1.03075056e+00  -1.35863782e+00   2.44678630e-01
C     4.953121120724999e+00   3.026998286688176e+00   7.045135376000000e+00  6.54744760e-01  -3.48381830e-01  -6.06719090e-01
C     4.739021191650000e+00   2.545575813771791e+00   9.901709160000001e+00  1.79841385e+00   8.18441370e-01   1.30671110e+00
C     6.049485629025000e+00   3.298046076352428e+00   9.694356352000000e+00 -3.35022299e+00  -9.15393660e-01   1.90973131e+00
C     6.233529024300000e+00   2.265243771487897e+00   7.019879904000001e+00 -2.53170448e+00   3.44102530e-01  -1.26176449e+00
C     7.446360049799999e+00   2.972866233083947e+00   7.075357704000000e+00 -1.94587925e+00   2.88602858e+00  -1.10019909e+00
C     7.216380060750000e+00   2.540483276006676e+00   9.820582168000000e+00 -3.49206300e-02   1.75153353e+00  -8.64190260e-01
C     8.413675670249999e+00   3.232008251216144e+00   9.867931928000001e+00  3.67183374e+00   2.00301538e+00   2.51183704e+00
C     9.899810994825000e+00   4.441273092899643e+00   6.933887512000000e+00 -1.51775473e+00   1.94564244e+00   1.09711914e+00
C     3.716399697300000e+00   5.163290340845037e+00   6.912087392000000e+00  7.98947800e-02  -1.03424380e+00  -8.94528610e-01
C     3.541744846125000e+00   4.750378056811788e+00   9.884329039999999e+00 -5.38654570e-01  -3.88514419e+00   7.64604520e-01
C     4.684434740325000e+00   5.410427257405771e+00   9.731360863999999e+00  7.19111191e+00   2.37035669e+00   1.42651158e+00
C     4.910968104749999e+00   4.448104322631170e+00   6.918412072000000e+00  2.83989902e+00  -5.78538690e-01   5.06414140e-01
C     6.216621946725000e+00   5.142189143749858e+00   6.925286192000000e+00 -3.43546312e+00  -1.56756139e+00   1.82351090e-01
C     6.029763237974999e+00   4.685641384744921e+00   9.768787383999999e+00 -6.63187100e-01   1.79592712e+00  -1.10666800e-02
C     7.300379348100000e+00   5.440351088214042e+00   9.823612111999999e+00 -3.02422856e+00  -1.61498260e-01   3.99147680e-01
C     7.386629377649999e+00   4.439131701198995e+00   7.011426008000000e+00  3.60758146e+00  -8.97401010e-01  -4.80138290e-01
C     8.680028891174999e+00   5.178861717448419e+00   6.910607303999999e+00 -2.16050820e+00  -1.56953923e+00   1.08299510e-01
C     8.485121094675000e+00   4.727932157693745e+00   9.899363976000000e+00  1.18294237e+00  -1.39788322e+00  -7.56732380e-01
C     9.791723973974999e+00   5.469847242682423e+00   9.787548447999999e+00 -4.45417064e+00  -4.30449193e+00   1.15744218e+00
