72
Lattice="7.395 0 0 3.6975 6.40425786098592 0 0 0 13.6 " PBC="1 1 1" Properties=species:S:1:pos:R:3:force:R:3 Energy="-574.73601653"
C     3.696351112800000e+00   6.185413865940911e+00   1.055991040000000e-01 -1.02972130e+00   5.49524090e-01  -1.09375876e+00
C     1.231885315275000e+00   4.626873288875838e-01   1.354370225600000e+01 -3.97573500e-01   1.98838214e+00   1.07248333e+00
C     1.411620346575000e+00   9.794518909321147e-01   3.280741056000000e+00 -1.23561493e+00   1.35976697e+00   9.04253340e-01
C     2.587189815825000e+00   1.762230239792623e+00   3.078681232000000e+00  2.55154339e+00  -1.82514362e+00   1.01328658e+00
C     6.160670785125000e+00   6.204770927450496e+00   1.851854880000000e-01 -1.49455822e+00  -1.01512418e+00  -2.09845000e-02
C     3.635267118674999e+00   5.489651065220322e-01   2.155167520000000e-01  1.97452815e+00  -7.18492550e-01  -1.48510489e+00
C     3.874965025125000e+00   1.076802246151031e+00   3.283345048000000e+00 -1.70216940e+00  -3.19700409e+00   1.19921468e+00
C     5.099816881950000e+00   1.736055077280124e+00   3.602232407999999e+00 -1.64342976e+00  -8.25684600e-01  -1.91700886e+00
C     8.598341946374999e+00   6.225680829363395e+00   2.847752960000000e-01  5.05514010e-01  -8.01368860e-01  -1.26099094e+00
C     6.137606038950000e+00   5.236149405070585e-01   1.926933680000000e-01  5.17717940e-01  -2.18120338e+00   4.31166310e-01
C     6.294707933250000e+00   1.008085135696439e+00   3.719166567999999e+00  1.54336491e+00   1.02359530e-01  -7.78983470e-01
C     7.535602503074999e+00   1.698864463163267e+00   3.424425327999999e+00  5.93786540e-01   1.67846130e-01   6.37546400e-02
C     1.214332062600000e+00   1.952282803918247e+00   1.348017638400000e+01 -8.43056500e-01  -1.19942650e+00   4.32064230e-01
C     2.417103262875000e+00   2.650242072957079e+00   1.328481224800000e+01  1.43824636e+00   6.98704800e-01   1.50561153e+00
C     2.638258206825000e+00   3.170106680061321e+00   3.147993632000000e+00 -4.70975930e-01   5.81421340e-01   1.41283926e+00
C     3.815982985800000e+00   3.837140044064528e+00   3.580123976000000e+00  2.18734238e+00   1.62414856e+00  -1.30247321e+00
C     3.668269302824999e+00   1.929660083240690e+00   1.342740525600000e+01  5.90890450e-01   5.32486550e-01   2.60688490e+00
C     4.905445777575000e+00   2.627730594238550e+00   2.515273760000000e-01 -6.22181150e-01   4.58812000e-01  -1.63350641e+00
C     5.054024601600000e+00   3.116399100668053e+00   3.459609072000000e+00  1.56807580e+00   2.95039654e+00   1.61952359e+00
C     6.321145686825000e+00   3.899619407363480e+00   3.474030376000000e+00 -7.00126880e-01  -5.39874203e+00  -9.92704800e-02
C     6.148914435975000e+00   1.884585251314966e+00   3.726734560000000e-01  1.34231880e-01   3.03740971e+00  -1.22716200e+00
C     7.393738302075000e+00   2.644973161930499e+00   2.311068400000000e-01 -7.77824670e-01   3.11055430e-01   1.20394491e+00
C     7.550939326349999e+00   3.139704323105751e+00   3.293910072000000e+00  6.64664170e-01   6.54531160e-01   3.35406620e-01
C     8.839927907250001e+00   3.878484523871959e+00   3.193897576000000e+00 -3.03178656e+00   6.87887270e-01   1.79018498e+00
C     2.466458195400000e+00   4.099711158025283e+00   1.347459671200000e+01 -1.23419653e+00  -2.18446015e+00  -4.93054530e-01
C     3.674560525125000e+00   4.771525300520979e+00   1.355438668800000e+01  1.51130595e+00   1.03742144e+00   1.16917787e+00
C     3.915302642550000e+00   5.327148657769739e+00   3.802826968000000e+00 -3.02651171e+00  -2.35202633e+00  -1.52965374e+00
C     5.147674437899999e+00   6.003686901075864e+00   3.628872632000000e+00 -1.38724884e+00   8.50227900e-02  -7.64880740e-01
C     4.905428325375000e+00   4.090705426579973e+00   2.135234000000000e-01 -3.29453730e-01  -2.22488815e+00  -1.47953540e-01
C     6.112014938925000e+00   4.765546029212569e+00   4.313841120000000e-01  1.28544651e+00   1.70605904e+00  -4.78306810e-01
C     6.321289815375000e+00   5.234785874529612e+00   3.516708400000000e+00  8.25913480e-01   3.11861093e+00  -6.13630550e-01
C     7.543002161924999e+00   5.930807791523215e+00   3.384211624000000e+00  2.59124080e-01   4.55826133e+00   5.40386950e-01
C     7.361864705850000e+00   4.082298493244572e+00   5.567079760000000e-01  2.35276628e+00  -1.51488305e+00  -4.47334558e+00
C     8.661056944725001e+00   4.769945242021760e+00   1.019333600000000e-01 -3.63693108e+00   1.73264796e+00   2.72723775e+00
C     8.786673369374999e+00   5.330314346472516e+00   3.532062936000000e+00  9.96352800e-02  -3.80684486e+00  -1.25301076e+00
C     9.981630273150000e+00   5.988491390366285e+00   3.770261088000000e+00  2.86850538e+00   1.30070791e+00  -4.98675750e-01
C     7.390434474899999e+00   1.642097825960592e-01   6.798162096000000e+00  4.62600100e-01  -1.88718600e-02  -1.36031950e-01
C     1.195502063175000e+00   9.102399234726799e-01   6.630935136000000e+00  1.51475290e+00  -2.17179190e+00   6.30519580e-01
C     1.113766829025000e+00   4.459460865009150e-01   1.014179852800000e+01 -1.16947855e+00  -2.38019010e-01   8.59220990e-01
C     2.281955348775000e+00   1.146141530256723e+00   9.801933712000000e+00  1.72481717e+00  -3.96573900e-01   1.24860501e+00
C     2.463419811750000e+00   1.719964635577188e-01   6.753916535999999e+00 -6.86957070e-01   2.09642956e+00  -2.87529620e-01
C     3.685966794975000e+00   8.810294629474338e-01   6.754588376000000e+00  7.23181990e-01   4.66451840e-01  -4.11814730e-01
C     3.533787308475000e+00   3.952416557459370e-01   9.916011872000000e+00  1.95258661e+00   1.59475622e+00   1.66371910e-01
C     4.908320953575000e+00   1.166781684828560e+00   1.000508996800000e+01 -5.90488096e+00  -1.28725563e+00   3.78410930e-01
C     4.941106833975000e+00   1.577251512999162e-01   6.865009224000000e+00 -3.84051650e-01   1.60446236e+00  -1.22533460e-01
C     6.201756739575000e+00   8.531358459233610e-01   6.855126240000000e+00 -2.19906645e+00   2.77875768e+00  -1.07414341e+00
C     6.016847167950000e+00   4.509816904136544e-01   1.032456648000000e+01  1.48258939e+00  -1.46566183e+00  -2.10970300e-01
C     7.268585580899999e+00   1.137256839284966e+00   1.040266420800000e+01  1.04161533e+00   5.11799840e-01  -1.90668280e+00
C     8.629069687349999e+00   2.282417429365273e+00   6.502614511999999e+00 -1.27807782e+00   2.11646083e+00   1.44786620e-01
C     2.469292144275000e+00   2.979235459653453e+00   6.436766304000000e+00 -5.75841360e-01   2.41397110e+00   2.11467648e+00
C     2.298766661100000e+00   2.580305719891099e+00   9.748107087999999e+00  9.38524170e-01   7.66697410e-01   1.24731785e+00
C     3.566349379200000e+00   3.304747299649396e+00   9.818296824000001e+00  6.23175600e-02  -1.26239393e+00   1.36033214e+00
C     3.689232537900000e+00   2.322385634158590e+00   6.599186887999999e+00 -5.75324610e-01  -2.93808305e+00  -2.08588900e-02
C     4.909844915174999e+00   2.964928731849685e+00   6.656172112000000e+00  2.21898880e-01   4.24228284e+00   5.88495560e-01
C     4.793050281825000e+00   2.564902262928806e+00   1.006168786400000e+01  4.07304600e-02   2.60418250e-01  -6.60492290e-01
C     5.979100980375000e+00   3.239427776074690e+00   1.030761272000000e+01  2.62635789e+00   2.64043213e+00  -1.01052936e+00
C     6.140758712324999e+00   2.365268096491100e+00   6.673523808000000e+00  1.99421659e+00  -3.80121705e+00   6.85005040e-01
C     7.376433040724999e+00   3.080737567157851e+00   6.590729592000000e+00  2.72670840e-01  -3.69640527e+00   2.60347500e-01
C     7.281439237124999e+00   2.550067183851588e+00   1.025166925600000e+01 -9.90074090e-01   1.11344212e+00   5.41227850e-01
C     8.528532739650000e+00   3.325292286949433e+00   1.006303317600000e+01 -1.37968945e+00  -3.68277764e+00  -7.25535670e-01
C     9.861212977199999e+00   4.442495729767696e+00   6.732837216000000e+00 -1.59713597e+00  -1.24525194e+00  -1.30266930e+00
C     3.667340010150000e+00   5.138217415152822e+00   6.767248072000000e+00  1.47535572e+00   1.88218790e-01   5.09925530e-01
C     3.607540860299999e+00   4.669945765539054e+00   1.012542848000000e+01 -2.58171665e+00   1.97683947e+00   4.97752100e-01
C     4.833710173349999e+00   5.424146010295412e+00   1.028535210400000e+01 -1.99917342e+00   5.31105350e-01  -1.21795397e+00
C     4.900522778175000e+00   4.432823186994002e+00   6.769846488000000e+00  1.23679999e+00   6.69428800e-02  -4.30733230e-01
C     6.169093320375000e+00   5.202178211379950e+00   6.840600760000000e+00 -1.85288693e+00  -3.71552395e+00  -6.57363860e-01
C     6.016115358750000e+00   4.754853928587563e+00   1.022761561600000e+01  6.18743520e-01  -4.23658877e+00   4.90963540e-01
C     7.237347658875000e+00   5.397969310761027e+00   1.013609863200000e+01  1.43036638e+00   1.41526277e+00  -6.15801380e-01
C     7.366656480974999e+00   4.421103907450830e+00   6.744217152000000e+00  1.25018722e+00   4.16600786e+00   2.41447860e-01
C     8.621380625174998e+00   5.179499325360961e+00   6.801955408000000e+00  1.79891700e-02  -2.57983166e+00  -1.70361220e-01
C     8.520152947500000e+00   4.695902734986263e+00   1.009067898400000e+01 -2.48475159e+00   1.47121956e+00   8.19621980e-01
C     9.664043456924999e+00   5.410971235068399e+00   1.023811209600000e+01  4.61638857e+00   2.85398040e-01  -7.26661270e-01
