72
Lattice="7.395 0 0 3.6975 6.40425786098592 0 0 0 13.6 " PBC="1 1 1" Properties=species:S:1:pos:R:3:force:R:3 Energy="-579.92181643"
C     3.700844166900000e+00   6.392107830073165e+00   1.343586282400000e+01 -3.75864180e-01  -6.23359830e-01   4.97033760e-01
C     1.202516701350000e+00   7.017963801356508e-01   1.342307188800000e+01  1.10792354e+00  -6.77187970e-01   6.61218800e-01
C     1.223690730900000e+00   7.573640762243556e-01   3.392888696000000e+00  1.73729275e+00  -1.24794278e+00   6.82000370e-01
C     2.492021009550000e+00   1.450651631282053e+00   3.390662104000000e+00 -3.20029120e-01  -2.40049110e-01   4.00780940e-01
C     6.094306095449999e+00   6.372902997772912e+00   1.348791464800000e+01  3.23979214e+00   4.59123310e-01  -2.96715770e-01
C     3.709159178850000e+00   7.260723599797668e-01   1.337317348800000e+01 -8.90335670e-01  -2.40235998e+00   1.63792382e+00
C     3.725411761950000e+00   7.330825887184801e-01   3.477670008000000e+00 -1.03105330e+00   4.45279860e-01  -8.24610500e-02
C     4.904905055174999e+00   1.460772728276261e+00   3.495123976000000e+00  2.83750116e+00   3.03013550e-01   4.97739260e-01
C     8.661317877300000e+00   6.387698754706871e+00   1.343739867200000e+01 -1.79196013e+00  -6.02249170e-01   3.76404880e-01
C     6.181990902899999e+00   6.814301997150648e-01   1.349535044800000e+01 -1.31197777e+00   1.52524568e+00   3.79164540e-01
C     6.192799656749999e+00   7.520464928380405e-01   3.505865528000000e+00 -5.19608790e-01  -5.64351000e-02   2.17115240e-01
C     7.448313106274999e+00   1.482438973042427e+00   3.435044616000000e+00 -2.71433192e+00  -1.46235685e+00  -4.97397600e-02
C     1.261857250275000e+00   2.103119663549104e+00   1.345138600000000e+01 -2.26895683e+00   1.18532785e+00  -3.64577950e-01
C     2.456775145425000e+00   2.810236957285158e+00   1.326106433600000e+01  4.01648630e-01   8.29582380e-01   1.95987878e+00
C     2.516747634075000e+00   2.863071956545001e+00   3.437459296000000e+00 -1.97540766e+00   1.07283499e+00  -2.36418310e-01
C     3.746221883550000e+00   3.610260243413024e+00   3.484026376000000e+00 -1.56043595e+00  -1.88244349e+00   7.07664370e-01
C     3.696279344325000e+00   2.123535669095841e+00   1.346109857600000e+01 -2.44487030e-01  -1.88503560e-01  -1.73410607e+00
C     4.924155423375000e+00   2.817352472023089e+00   1.352188704000000e+01 -6.80635190e-01   1.06946450e+00   1.10162406e+00
C     4.945864776975000e+00   2.899090271260584e+00   3.589099704000000e+00  5.13249600e-01  -9.13497690e-01  -1.67111624e+00
C     6.194485310025000e+00   3.580076783991108e+00   3.473589328000000e+00 -1.37088655e+00   1.34367483e+00   3.53977970e-01
C     6.115243743824999e+00   2.143716894549430e+00   7.634006400000000e-02  2.86906104e+00  -1.98789253e+00  -1.41767824e+00
C     7.397121662475000e+00   2.845485864461440e+00   2.424485600000000e-02  1.32026830e-01  -1.77767414e+00  -5.10014790e-01
C     7.390823230050000e+00   2.871999299874104e+00   3.395633992000000e+00  1.01650251e+00   7.79375650e-01   4.74265930e-01
C     8.589570182250000e+00   3.588221014669091e+00   3.438172616000000e+00  3.26391916e+00   1.71904240e-01  -5.85806810e-01
C     9.820987837724999e+00   4.245377476030290e+00   1.332807194400000e+01  2.41773610e+00  -5.33861680e-01   6.99057730e-01
C     3.707623459200000e+00   4.974204755613695e+00   1.343456810400000e+01 -8.66596100e-01  -8.80558440e-01  -9.68615000e-02
C     3.705625182299999e+00   4.987818158461539e+00   3.547799360000000e+00 -1.65106040e-01   1.55138507e+00  -1.36654870e-01
C     4.897479957524999e+00   5.705597708980970e+00   3.510977904000000e+00  2.49003218e+00   1.41171607e+00  -5.15355990e-01
C     4.937307837599999e+00   4.245501270334724e+00   1.359103868800000e+01 -1.09756922e+00   9.79130200e-02  -6.18765140e-01
C     6.148265302875000e+00   4.947614725277024e+00   5.589926400000000e-02  6.94927470e-01   8.19026440e-01  -1.01450354e+00
C     6.187453885200000e+00   5.028548213769881e+00   3.473671200000000e+00 -7.04982060e-01  -8.15242270e-01   4.12476810e-01
C     7.435186167825000e+00   5.729079817020761e+00   3.528658312000000e+00 -1.44045585e+00   1.41218200e-02  -1.23060704e+00
C     7.416163676549999e+00   4.230996394792768e+00   1.358014522400000e+01 -1.81776432e+00   8.16083000e-01   5.79015350e-01
C     8.619440731799999e+00   4.914311111425716e+00   1.348291311200000e+01  4.87598100e-01   2.80827223e+00  -7.95142150e-01
C     8.633359452899999e+00   5.026438651230797e+00   3.433944783999999e+00  8.74285440e-01  -1.03548996e+00   1.38403660e+00
C     9.888207796124998e+00   5.719524536208484e+00   3.578936832000000e+00 -8.89347610e-01   6.23342090e-01  -1.27999074e+00
C     7.386384788024999e+00   8.910179918039400e-03   7.100819080000000e+00  9.55703240e-01   1.01143322e+00  -1.70722906e+00
C     1.268964695700000e+00   7.336931706628524e-01   6.876892359999999e+00 -1.76250713e+00  -8.00358500e-02   5.24201000e-03
C     1.266347087550000e+00   6.837139580679409e-01   1.020607838400000e+01 -3.95714389e+00  -5.38172150e-01  -4.67303320e-01
C     2.449328565300000e+00   1.372184486533661e+00   1.023005491200000e+01  5.24652630e-01   1.52956589e+00  -7.14695970e-01
C     2.473861662675000e+00   1.872688253616180e-02   6.718318128000000e+00  2.34494750e-01  -5.16522140e-01   4.17485800e-02
C     3.702228473925000e+00   7.272445312958826e-01   6.597142808000000e+00  1.30981130e-01   3.85565420e-01   1.15917262e+00
C     3.662306529449999e+00   6.619146328234441e-01   1.030554810400000e+01  1.14776612e+00   1.48931696e+00   1.00434980e+00
C     4.907423200575000e+00   1.381961802965944e+00   1.035884582400000e+01 -1.39524710e-01   9.60427270e-01  -2.32632428e+00
C     4.931102951925000e+00   1.661065956890340e-02   6.861622823999999e+00 -6.46760200e-01   6.29177440e-01  -1.01141888e+00
C     6.144275811300000e+00   7.099890910456345e-01   6.949262584000000e+00  1.35551307e+00   1.26275481e+00   5.68765440e-01
C     6.134432881425000e+00   6.910974909973134e-01   1.025322958400000e+01 -7.36375600e-02  -8.40628310e-01   6.59942800e-01
C     7.326546037950000e+00   1.430492820730974e+00   1.014575395200000e+01  2.83028931e+00  -3.40763326e+00   5.91145300e-01
C     8.631122354475000e+00   2.169713186139900e+00   6.775646208000000e+00  8.32487030e-01  -1.44395742e+00   8.29032920e-01
C     2.472422743575000e+00   2.872721764203291e+00   6.741763440000000e+00  2.48832270e-01   1.13219960e-01  -9.41970850e-01
C     2.435937144675000e+00   2.820796297644725e+00   1.009927676800000e+01  6.30883010e-01  -5.19951760e-01   4.75359570e-01
C     3.670953761775000e+00   3.552760574855693e+00   1.007266238400000e+01  1.69393360e-01  -2.08807674e+00   2.45426640e-01
C     3.690712536225000e+00   2.162874207256363e+00   6.562148919999999e+00  9.74797230e-01   9.61113500e-02   1.46889480e+00
C     4.951644117375000e+00   2.904477661057573e+00   6.698668984000000e+00 -4.24758560e-01  -2.91371046e+00   5.68676320e-01
C     4.934820270525000e+00   2.813135268222279e+00   1.008265063200000e+01 -1.32966517e+00  -2.47090320e-01   1.36589815e+00
C     6.157021907250000e+00   3.513483197357734e+00   1.015216880000000e+01 -7.44730270e-01   1.07234545e+00   5.65831890e-01
C     6.189066623775000e+00   2.156724070348248e+00   6.902170000000000e+00 -1.72711695e+00  -7.42919130e-01  -1.13778396e+00
C     7.402900189425000e+00   2.828483840694712e+00   6.868947375999999e+00  1.58138500e-01   2.58859719e+00  -2.04617650e-01
C     7.357583592450000e+00   2.782935157729928e+00   1.018990975200000e+01  8.13739630e-01   2.64268654e+00  -4.32015520e-01
C     8.606504806200000e+00   3.510821459705960e+00   1.015620473600000e+01 -1.59179060e-01   9.27601530e-01   8.70898210e-01
C     2.500245802500000e+00   4.296373492645635e+00   6.844970032000000e+00 -1.80295783e+00   1.07629270e-01   6.27566050e-01
C     3.688523653200000e+00   5.007174003162131e+00   6.988288327999999e+00  1.82158074e+00  -6.77936330e-01  -8.75106240e-01
C     3.634433036625000e+00   4.934195627612652e+00   1.015551222400000e+01  2.90682377e+00   8.82626570e-01  -2.71185490e-01
C     4.912109005350000e+00   5.650747097644850e+00   1.016851749600000e+01 -2.82808430e-01   5.55237460e-01   7.48973930e-01
C     4.949226396075000e+00   4.270556071977196e+00   6.816273488000000e+00 -7.50863460e-01   2.08195463e+00   1.11749130e-01
C     6.185108708850000e+00   4.971340515328388e+00   6.742712992000000e+00 -9.78185240e-01   1.60981887e+00   8.42453890e-01
C     6.133353840000000e+00   4.958796495458006e+00   1.029771518400000e+01  9.44066460e-01  -5.57900320e-01  -6.10935440e-01
C     7.383105955949999e+00   5.697885381453065e+00   1.045183854400000e+01 -4.19383660e-01  -2.70900056e+00  -1.44747198e+00
C     7.392077939700000e+00   4.304800471308137e+00   6.806456600000000e+00  1.53271243e+00  -1.73730211e+00  -5.77499700e-02
C     8.640499362374999e+00   5.025717595838340e+00   6.865842903999999e+00 -1.73843290e-01  -1.68441687e+00  -1.44011620e-01
C     8.637020051850000e+00   4.956248753596141e+00   1.034879107200000e+01 -1.52971035e+00  -8.78877780e-01  -4.29788190e-01
C     9.858380248499998e+00   5.640178022813334e+00   1.029664092000000e+01 -1.38711031e+00   1.66173323e+00  -3.71276790e-01
