72
Lattice="7.395 0 0 3.6975 6.40425786098592 0 0 0 13.6 " PBC="1 1 1" Properties=species:S:1:pos:R:3:force:R:3 Energy="-579.70281247"
C     3.692481789975000e+00   6.392421830836041e+00   1.342435668000000e+01 -1.06693468e+00  -1.68047200e-01   4.98020840e-01
C     1.216467627675000e+00   6.592757583722311e-01   1.340180502400000e+01  3.26801690e-01   1.24931356e+00   6.16131430e-01
C     1.222268413575000e+00   7.707412259997450e-01   3.392349592000000e+00  1.07321473e+00  -1.67248730e+00   7.68881990e-01
C     2.511049823550000e+00   1.404003529370442e+00   3.386244008000000e+00 -1.84727385e+00   2.55666482e+00   4.95509630e-01
C     6.123908872049999e+00   6.370607327500417e+00   1.346439100000000e+01  2.09714054e+00   5.63477600e-02  -1.01242840e-01
C     3.703494978600000e+00   7.032236330423304e-01   1.337299016000000e+01 -5.22042250e-01  -1.61695851e+00   1.28911885e+00
C     3.724741331250000e+00   7.288268312853529e-01   3.495063184000000e+00  7.68627090e-01   2.31833546e+00  -1.81798940e-01
C     4.927512420599999e+00   1.473428886701772e+00   3.516484816000000e+00  1.78961530e+00  -7.10298000e-03   4.07114200e-01
C     8.645974620375000e+00   6.373979617561757e+00   1.341210090400000e+01 -2.00138920e+00   4.39732900e-02   5.15519460e-01
C     6.130742591550000e+00   6.775168139071333e-01   1.347914496000000e+01  1.56274597e+00   1.44273680e+00   3.01803210e-01
C     6.217508052599999e+00   7.372363903664760e-01   3.526290688000000e+00 -2.16201797e+00   1.46398465e+00   7.88118600e-02
C     7.420283837774999e+00   1.488379818803678e+00   3.444004024000000e+00 -6.84370100e-02  -8.59766690e-01  -1.27814960e-01
C     1.262807101050000e+00   2.082859089340630e+00   1.342024172800000e+01 -2.39281745e+00   1.46122102e+00  -8.72541100e-02
C     2.462367725100000e+00   2.789438809671914e+00   1.323186921600000e+01  4.65332450e-01   1.03708982e+00   2.00881760e+00
C     2.498137746825000e+00   2.857688025047255e+00   3.448272384000000e+00 -2.02767520e-01   5.13857000e-03  -2.97760060e-01
C     3.741776490225000e+00   3.602648462733520e+00   3.497822080000000e+00 -2.71941411e+00  -4.94000460e-01   6.49033950e-01
C     3.711272706825000e+00   2.100599716166351e+00   1.344355104000000e+01 -1.42405529e+00   1.71479860e-01  -1.76207525e+00
C     4.906372962674999e+00   2.816608041089443e+00   1.350869204800000e+01  6.48659710e-01   4.14883760e-01   1.12756560e+00
C     4.934010518025000e+00   2.931973829838854e+00   3.591366552000000e+00  1.52114661e+00  -2.95713205e+00  -1.46807745e+00
C     6.183553207575001e+00   3.574880241078347e+00   3.477715296000000e+00  7.96661710e-01   2.57308870e+00   3.45926700e-01
C     6.103331914800000e+00   2.111384678530327e+00   6.139488800000000e-02  2.77547477e+00   2.17882840e-01  -1.26782687e+00
C     7.401803104200000e+00   2.879865393633228e+00   2.857999200000000e-02 -3.92117000e-03  -3.43820088e+00  -8.41986200e-01
C     7.440346287899999e+00   2.890462391029013e+00   3.408667280000000e+00 -2.73252214e+00  -4.73198310e-01   4.73533740e-01
C     8.614467742199999e+00   3.580998164569426e+00   3.451222360000000e+00  3.13059613e+00   1.10597690e+00  -5.67823940e-01
C     9.831362616000000e+00   4.231932953462215e+00   1.329668654400000e+01  1.25978893e+00   3.64492880e-01   9.82922140e-01
C     3.692133522450000e+00   4.997505110815418e+00   1.342525305600000e+01  5.54523200e-02  -2.76249705e+00  -2.08092740e-01
C     3.692208248925000e+00   4.998374360734756e+00   3.572474248000000e+00  2.14578200e-01   8.17949420e-01  -3.00699010e-01
C     4.871458690350000e+00   5.735151117514619e+00   3.529957656000000e+00  3.69887564e+00   2.48647150e-01  -5.77786870e-01
C     4.943640324000000e+00   4.231072733546459e+00   1.357221275200000e+01 -1.22263028e+00   1.60247115e+00  -5.29126490e-01
C     6.167445344624999e+00   4.959638078983389e+00   4.207486400000000e-02 -3.68604800e-01   5.17379300e-02  -9.58420550e-01
C     6.205992780450000e+00   5.037936471537170e+00   3.491212616000000e+00 -2.02680972e+00  -4.47601890e-01   3.29365590e-01
C     7.440299255700000e+00   5.777153826944901e+00   3.536244936000000e+00 -1.04288450e+00  -3.80309980e+00  -1.12460077e+00
C     7.427247191625000e+00   4.275949481776572e+00   1.357938335200000e+01 -2.09533124e+00  -8.41591590e-01   5.70204250e-01
C     8.615630273175000e+00   4.950765235888673e+00   1.346260355200000e+01  1.92582871e+00   6.01604590e-01  -9.77443890e-01
C     8.630217169500000e+00   5.021553355250032e+00   3.439349016000000e+00  1.10693745e+00   1.55164760e-01   1.45561587e+00
C     9.887484121425000e+00   5.729230445165627e+00   3.581459088000000e+00 -1.25977547e+00  -4.99559600e-01  -1.07688249e+00
C     7.377329573550000e+00   3.521931950496960e-02   7.120792856000000e+00  2.09947962e+00  -6.41932980e-01  -1.80763253e+00
C     1.260214820775000e+00   7.496088401687886e-01   6.880787399999999e+00 -1.05345910e+00  -1.42700425e+00   1.13767100e-02
C     1.230646135125000e+00   6.744941963249490e-01   1.019952413600000e+01 -1.07878898e+00   2.17731670e-01  -3.19016060e-01
C     2.455510156725000e+00   1.370644582731224e+00   1.023542500800000e+01 -7.57464730e-01   1.06712978e+00  -7.72306710e-01
C     2.480568299100000e+00   3.066947855091121e-02   6.716709111999999e+00 -7.93153670e-01  -1.28014381e+00   1.95397810e-01
C     3.684625563825000e+00   7.429124200652154e-01   6.602637480000000e+00  4.28952050e-01   2.10417960e-01   9.25231900e-01
C     3.662404661100000e+00   6.614499398731224e-01   1.032757833600000e+01  3.41764360e-01   1.96839416e+00   6.25963370e-01
C     4.886731731750000e+00   1.386161266972482e+00   1.035437496000000e+01  1.67534323e+00   7.25917970e-01  -2.16245884e+00
C     4.895692659974999e+00   3.491172299995380e-02   6.849215544000000e+00  1.25698641e+00  -8.21381600e-02  -5.55904710e-01
C     6.157206079725000e+00   7.259677784489130e-01   6.960947704000000e+00 -8.95994700e-01  -1.64492300e-01   3.28896280e-01
C     6.134678580299999e+00   6.651458370841284e-01   1.026396855200000e+01 -1.85261800e-01   8.06423300e-02   5.14591180e-01
C     7.355421553274999e+00   1.413202413232810e+00   1.014127900800000e+01  2.97770150e-01  -2.32629988e+00   7.69595650e-01
C     1.256714804250000e+00   2.142345806984183e+00   6.765311840000000e+00 -1.08819110e-01   8.21753010e-01   9.67447030e-01
C     2.477053418625000e+00   2.889104111979485e+00   6.729165216000000e+00 -3.50985730e-01  -5.65236400e-02  -7.53739560e-01
C     2.436500347875000e+00   2.814545101547580e+00   1.009615298400000e+01  4.18507770e-01  -8.90367900e-01   4.30863140e-01
C     3.645252993900000e+00   3.559357280664386e+00   1.006125810400000e+01  1.97052414e+00  -2.30573031e+00   3.36487010e-01
C     3.667899109125000e+00   2.164029919629778e+00   6.560166040000000e+00  2.46805001e+00   1.09874530e+00   1.42696035e+00
C     4.971180672075000e+00   2.903302095484791e+00   6.695261096000000e+00 -1.75341819e+00  -2.66054016e+00   5.20990900e-01
C     4.944262058625000e+00   2.827619522053927e+00   1.007739273600000e+01 -2.91528977e+00  -1.05737878e+00   1.32428964e+00
C     6.150366740025000e+00   3.519609574469188e+00   1.015917171200000e+01 -5.06091370e-01   7.97790320e-01   5.12316190e-01
C     6.169793589899999e+00   2.136528819569945e+00   6.909354200000000e+00  6.70966300e-02   1.01291017e+00  -1.10362311e+00
C     7.419217367850000e+00   2.824703087067062e+00   6.883933760000001e+00 -5.07431460e-01   1.16120925e+00  -3.37984630e-01
C     7.334144548349999e+00   2.798021796055886e+00   1.019810769600000e+01  2.30924056e+00   5.03600460e-01  -5.95194950e-01
C     8.607200342924999e+00   3.487869688259557e+00   1.015162915200000e+01 -1.12060275e+00   1.83258027e+00   1.02076034e+00
C     9.881418631499999e+00   4.318078291044118e+00   6.855167176000000e+00  1.87686670e-01  -3.51226530e-01   5.92556450e-01
C     3.740632927425000e+00   4.994687173314439e+00   7.006885376000000e+00 -1.34387229e+00   1.00092681e+00  -8.95298080e-01
C     3.662782360725000e+00   4.935761981000050e+00   1.016127345600000e+01  1.41667526e+00   6.69269720e-01  -3.19874430e-01
C     4.923845683800000e+00   5.651696464830016e+00   1.016667279200000e+01 -5.56334060e-01  -1.07746800e-02   7.90986920e-01
C     4.960306916175000e+00   4.291926568115387e+00   6.808684143999999e+00 -2.58312210e-01   4.12049380e-01   1.22696820e-01
C     6.187519478850000e+00   4.972468561307847e+00   6.740209368000000e+00  1.85764280e-01   1.70953154e+00   8.52392620e-01
C     6.143423019899999e+00   4.938921009274653e+00   1.030443072800000e+01  1.40281840e-01   9.90577880e-01  -6.54191450e-01
C     7.352262076499999e+00   5.708148332758872e+00   1.045832384000000e+01  1.26013777e+00  -4.10677762e+00  -1.31993222e+00
C     7.401086972400000e+00   4.263921452961971e+00   6.815274160000000e+00  9.38294490e-01   1.50674400e-02  -1.67106340e-01
C     8.636574466124999e+00   5.021640261029192e+00   6.869369791999999e+00 -5.68405910e-01  -6.72425840e-01  -1.73097190e-01
C     8.627613944624999e+00   4.938046635949028e+00   1.035155404800000e+01 -1.56023783e+00  -5.92120530e-01  -4.15387930e-01
C     9.857616234075000e+00   5.610992090595692e+00   1.030847917600000e+01 -1.17689627e+00   2.33873208e+00  -4.25186460e-01
