72
Lattice="7.395 0 0 3.6975 6.40425786098592 0 0 0 13.6 " PBC="1 1 1" Properties=species:S:1:pos:R:3:force:R:3 Energy="-579.50455356"
C     1.103682433912500e+01   6.319354243974572e+00   1.352427642400000e+01  5.89847070e-01   9.03057880e-01  -8.13216070e-01
C     1.249543909725000e+00   5.476401936559554e-01   1.348323094400000e+01 -2.94737789e+00   3.72515758e+00   3.30213140e-01
C     1.246459972875000e+00   8.207406760494942e-01   3.565985144000000e+00  1.26246200e+00  -2.35474800e-01   2.26406680e-01
C     2.522601442125000e+00   1.469275533351826e+00   3.614593311999999e+00  2.34202150e-01   8.80947020e-01  -1.23291600e-01
C     6.174578894400000e+00   6.323961018781006e+00   1.344158883200000e+01 -1.30333189e+00  -1.44983492e+00  -2.61137500e-01
C     3.681874697775000e+00   6.079969937723683e-01   1.351037436800000e+01 -6.38477470e-01   3.44737550e-01  -6.75637800e-02
C     3.811870256550000e+00   8.497650928839072e-01   3.561222152000000e+00 -1.98117346e+00  -1.98003649e+00  -1.88598220e-01
C     5.023341600374999e+00   1.548023184594487e+00   3.503507968000000e+00 -9.93893880e-01   5.47828030e-01  -3.64631180e-01
C     8.565572926574999e+00   6.330601785883776e+00   1.344379339200000e+01  2.31969871e+00  -1.16797450e-01  -1.16486670e-01
C     6.058199712150000e+00   6.393152876870760e-01   1.338273088800000e+01  3.45753031e+00   1.95805470e-01   7.17928930e-01
C     6.214189657275000e+00   8.075924784925997e-01   3.452991448000000e+00  8.21053500e-01   6.54836650e-01   2.50203070e-01
C     7.442319569700000e+00   1.549167689516647e+00   3.573814120000000e+00 -3.75429680e-01  -2.52130070e-01  -4.13805890e-01
C     1.207822244100000e+00   2.040146660054303e+00   1.351820919200000e+01  4.93722940e-01  -5.88677020e-01  -1.39725130e-01
C     2.451662649150000e+00   2.714518599096704e+00   2.900213600000000e-02 -3.97680500e-02   1.52533086e+00  -2.08631730e-01
C     2.516129412075000e+00   2.871000555860838e+00   3.625785024000000e+00  3.23242810e-01   2.01465403e+00  -4.15704760e-01
C     3.700391703825000e+00   3.640438707513808e+00   3.476831976000000e+00  1.84926397e+00   4.40383270e-01   5.06252500e-02
C     3.700936789275000e+00   1.986555253898616e+00   2.277456000000000e-03 -5.62256600e-01   2.98757842e+00  -1.11254073e+00
C     4.898893918500000e+00   2.748280565683052e+00   1.332179867200000e+01 -2.29737180e-01   1.09303421e+00   1.13016435e+00
C     4.955116994250000e+00   2.969475562802549e+00   3.429466712000000e+00  1.88023356e+00   7.88449270e-01   6.60873670e-01
C     6.242983346925000e+00   3.726580330626153e+00   3.477263504000000e+00 -1.22091693e+00  -2.74785968e+00   2.82770610e-01
C     6.116590040549999e+00   2.045403018735477e+00   1.327106482400000e+01  1.38725661e+00   1.49865724e+00   5.40620800e-01
C     7.407692297325000e+00   2.820420111538029e+00   1.334488848000000e+01 -1.22979443e+00  -1.66240158e+00   4.27569400e-02
C     7.486144595175000e+00   2.974876849839094e+00   3.625461888000000e+00 -1.18875098e+00   3.50681340e-01  -5.51504690e-01
C     8.736490566599999e+00   3.649099505630780e+00   3.654064592000000e+00 -2.15696049e+00   4.50588780e-01  -8.99660150e-01
C     2.447722962900000e+00   4.193335131765781e+00   2.007536800000000e-02  1.09016391e+00  -1.18297142e+00  -5.15469080e-01
C     3.680458629225000e+00   4.932158817442858e+00   1.356562205600000e+01  3.55818500e-02  -1.79663201e+00  -4.63780920e-01
C     3.721596052874999e+00   5.101649807240586e+00   3.438953120000000e+00 -3.95946590e-01  -1.53240595e+00   1.82465100e-01
C     4.928267930775000e+00   5.822766936743758e+00   3.518832448000000e+00  1.22569519e+00  -1.39493236e+00  -4.67172300e-01
C     4.919976804675000e+00   4.223727113823617e+00   1.334307845600000e+01 -6.60601320e-01  -1.43021219e+00   3.92610360e-01
C     6.151597341975000e+00   4.915277449894211e+00   1.324126994400000e+01  3.36381210e-01   1.65208670e-01   1.14191558e+00
C     6.200568806774999e+00   5.099357467182179e+00   3.510567728000000e+00  2.69570730e-01   2.14495392e+00   1.45164440e-01
C     7.470340777650000e+00   5.813022538196875e+00   3.532061848000000e+00 -1.05838184e+00   2.51780860e-01  -1.80146980e-01
C     7.408294841925000e+00   4.260966592427946e+00   1.331135836000000e+01  4.40385770e-01  -2.47363820e+00   2.67062420e-01
C     8.671347900675000e+00   4.941319724056116e+00   1.346073640800000e+01 -2.49584065e+00  -1.73212261e+00   7.71933500e-02
C     8.670116337374999e+00   5.098857678898784e+00   3.470277184000000e+00  5.68633880e-01  -1.83951978e+00   7.11521250e-01
C     9.882621317325000e+00   5.785394890001728e+00   3.400666672000000e+00  9.46025970e-01   1.44746510e+00   4.27092500e-01
C     7.417592871225000e+00   1.048939945947894e-01   6.649815608000000e+00  1.32796400e-01  -1.69337432e+00   5.16962310e-01
C     1.254303886350000e+00   7.935366054692077e-01   6.814558664000001e+00  1.02706392e+00  -1.97129616e+00   5.36255310e-01
C     1.169015798400000e+00   6.212782077650149e-01   1.015252131200000e+01 -7.94542300e-02  -7.18451890e-01   2.24251360e-01
C     2.389235612100000e+00   1.303683647867000e+00   1.022710996800000e+01  4.40626940e-01   1.46970793e+00  -4.73795570e-01
C     2.500900666725000e+00   7.087790705655661e-02   7.013058144000000e+00 -1.87816468e+00  -5.01297190e-01  -1.02484792e+00
C     3.654176577375000e+00   8.091606250721994e-01   7.107079568000001e+00  2.87133403e+00   6.79064340e-01  -1.02041432e+00
C     3.605487712500000e+00   6.096789440141400e-01   1.004171286400000e+01  1.91853274e+00   8.61584570e-01   6.21462710e-01
C     4.907498037975000e+00   1.356725568698300e+00   1.009598488800000e+01 -2.72822847e+00  -1.18888982e+00  -6.51997000e-02
C     4.886062373324999e+00   9.156660590297221e-02   6.817482392000000e+00  8.20167010e-01   1.15088840e-01   3.96887330e-01
C     6.164195537925000e+00   7.669769313147942e-01   6.667517232000000e+00 -7.17471220e-01   7.14992780e-01   1.25123332e+00
C     6.081551088525000e+00   5.949424264653871e-01   1.005113494400000e+01  1.18225532e+00  -3.23654590e-01   5.69834680e-01
C     7.328581068000000e+00   1.327234537636207e+00   1.016584482400000e+01 -7.61190370e-01  -8.22882090e-01  -1.98827480e-01
C     1.315935332325000e+00   2.154598753334828e+00   6.883764576000001e+00 -1.88947189e+00   3.11876600e+00   3.41979100e-01
C     2.503751106450000e+00   2.944531618863635e+00   7.027820944000000e+00 -5.92900210e-01   1.20865594e+00  -5.88293010e-01
C     2.387553582375000e+00   2.749746308179471e+00   1.030358154400000e+01  4.59112190e-01   7.83139100e-02  -3.95944890e-01
C     3.625549644975000e+00   3.500935014719743e+00   1.032188170400000e+01  2.99216550e-01  -2.84555203e+00  -6.67102570e-01
C     3.707269275675000e+00   2.262336302462036e+00   7.157208760000000e+00  5.98480390e-01  -1.71737248e+00  -1.17751360e+00
C     4.966291430849999e+00   2.895666875221520e+00   6.990196544000000e+00  3.28910600e-02   1.86529437e+00  -2.98370300e-01
C     4.868599450574999e+00   2.783269652117955e+00   1.020954380000000e+01 -5.12660290e-01  -1.27397779e+00   3.03585540e-01
C     6.080890456200000e+00   3.453179552581559e+00   1.019177213600000e+01  9.83283340e-01   1.63123859e+00  -6.04529660e-01
C     6.178069925999999e+00   2.195862859706116e+00   6.857114968000000e+00  3.11508820e-01  -1.46137508e+00  -2.20608410e-01
C     7.423807998974999e+00   2.858045638806158e+00   6.882144680000000e+00  1.03369557e+00  -2.39671600e-02  -2.06145710e-01
C     7.302728813550000e+00   2.742257489250880e+00   1.019860708800000e+01  6.30328490e-01  -2.05219980e-01  -3.69690330e-01
C     8.555922192750000e+00   3.445141824711787e+00   1.017314788800000e+01 -3.58914400e-01  -3.89064200e-01   1.02037660e-01
C     9.911874495299999e+00   4.409850793837289e+00   6.837633784000000e+00 -9.38548100e-01  -1.89522314e+00   1.66121380e-01
C     3.768896506500000e+00   5.052442756015855e+00   6.747068663999999e+00 -2.33304790e-01   1.19264491e+00   1.85263740e-01
C     3.686443698525000e+00   4.863058412155344e+00   1.024556516800000e+01 -1.87506367e+00   1.99466887e+00  -7.12619450e-01
C     4.926610674300000e+00   5.589542373787773e+00   1.014375244000000e+01 -2.96237560e+00   1.23860842e+00   1.43333550e-01
C     5.023542041850000e+00   4.341697194031798e+00   6.850126336000000e+00 -2.09779084e+00  -5.92365110e-01   4.07843470e-01
C     6.229013970075000e+00   5.051302093648411e+00   6.903116832000000e+00  3.09609830e-01  -1.02195995e+00   1.57984510e-01
C     6.107619203024999e+00   4.914312968660496e+00   1.006878815200000e+01  4.58462700e-01  -2.38940717e+00   4.48091740e-01
C     7.299448132725000e+00   5.607504972190922e+00   9.940480039999999e+00  2.52397800e+00  -3.85680900e-01   6.72799130e-01
C     7.429419768674999e+00   4.250086398749591e+00   6.930859744000000e+00  5.06711870e-01   3.43595057e+00  -4.72873740e-01
C     8.625835447124999e+00   5.080688287009335e+00   6.809221480000000e+00  6.01383310e-01  -1.47259776e+00   4.94733720e-01
C     8.569014263774999e+00   4.841562776818568e+00   9.993427016000000e+00 -1.07819527e+00   1.02101282e+00   6.23927360e-01
C     9.783670042499999e+00   5.522784005599661e+00   1.008163267200000e+01  1.48618900e+00   2.34456541e+00   8.61833600e-02
