72
Lattice="7.395 0 0 3.6975 6.40425786098592 0 0 0 13.6 " PBC="1 1 1" Properties=species:S:1:pos:R:3:force:R:3 Energy="-579.89460976"
C     1.102589393752500e+01   6.332257030370271e+00   1.350103470400000e+01  1.71530257e+00   4.40791640e-01  -8.99578720e-01
C     1.211706652725000e+00   6.419743995931266e-01   1.346957328000000e+01 -4.85582190e-01  -1.23724145e+00  -2.14504800e-02
C     1.275454732575000e+00   7.949290832557074e-01   3.596092144000000e+00 -7.92215330e-01   9.43507000e-02  -1.75344070e-01
C     2.514594838650000e+00   1.484630189869226e+00   3.627038944000000e+00  7.44786000e-02  -1.15356390e-01  -4.37309100e-01
C     6.171772824674999e+00   6.304455890829697e+00   1.341605197600000e+01 -2.02026809e+00   1.90140964e+00   3.17361410e-01
C     3.674503472700000e+00   5.988173226835800e-01   1.352566403200000e+01  5.37408340e-01   1.69248477e+00  -8.67372460e-01
C     3.769984495875000e+00   8.060790242751247e-01   3.546766576000000e+00  4.38589360e-01   7.90598490e-01   4.12294300e-02
C     5.030492787225000e+00   1.553553901682383e+00   3.525407368000000e+00 -2.06003456e+00  -5.65380510e-01  -8.51190600e-01
C     8.607672328800000e+00   6.359092728038451e+00   1.345180216000000e+01  1.58942750e-01  -1.44217859e+00  -3.17427000e-01
C     6.118835347424999e+00   6.670448916673543e-01   1.336862578400000e+01  1.15873547e+00   1.34905270e-01   5.44785400e-01
C     6.217699989825000e+00   8.112640395237377e-01   3.480578776000000e+00 -5.54516200e-01   9.20415120e-01   5.39557900e-02
C     7.417361074949999e+00   1.498084639036986e+00   3.583412592000000e+00  2.23872280e+00   2.63225729e+00  -9.06905000e-03
C     1.217765302275000e+00   2.046670869664021e+00   1.347778700000000e+01 -6.67926020e-01   9.99619940e-01   2.46363500e-02
C     2.448639462225000e+00   2.767660426350620e+00   3.325064000000000e-02  5.22300750e-01  -1.21949077e+00  -1.05112098e+00
C     2.499887477775000e+00   2.887136083539108e+00   3.600136104000000e+00  1.50522531e+00   7.15307740e-01   5.85542600e-02
C     3.726983791049999e+00   3.602474715217779e+00   3.521841584000000e+00  1.53154980e-01   2.06062315e+00  -9.29085560e-01
C     3.678451811100000e+00   2.026013871894012e+00   1.350732973600000e+01  3.76227570e-01   1.42112847e+00   5.29793600e-01
C     4.910046909600000e+00   2.795622761061531e+00   1.333513714400000e+01 -3.50052850e-01  -8.61555110e-01   3.90499600e-02
C     5.013798057074999e+00   2.976363150003243e+00   3.400714544000000e+00 -1.86559630e+00  -1.46464432e+00   1.64461628e+00
C     6.187689231075000e+00   3.692002973929070e+00   3.506385864000000e+00  2.74392658e+00   1.04764588e+00   1.38156280e-01
C     6.164641826175000e+00   2.092586452561605e+00   1.322944583200000e+01 -1.60866729e+00  -6.87193620e-01   9.16255290e-01
C     7.371373788450001e+00   2.782296781306443e+00   1.327687352000000e+01  1.84350544e+00   1.11084420e-01   9.37834620e-01
C     7.463270972775000e+00   3.001431080374327e+00   3.642453728000000e+00 -1.97230236e+00  -2.68600405e+00  -8.57530970e-01
C     8.715606642899999e+00   3.642800661855155e+00   3.621773431999999e+00 -1.17651482e+00  -1.12581560e-01  -4.61547800e-02
C     2.493386607225000e+00   4.165981457721884e+00   1.611192000000000e-02 -2.56537517e+00   1.18809185e+00  -1.02765381e+00
C     3.675231288600000e+00   4.890522623689904e+00   1.351575085600000e+01  5.58102430e-01   1.22392924e+00  -3.42852900e-02
C     3.694485206400000e+00   5.069603221122040e+00   3.451765952000000e+00  1.13826660e+00  -3.82417750e-01   3.51201800e-01
C     4.956939787800000e+00   5.786976933820884e+00   3.524279384000000e+00 -1.17105873e+00   2.56241230e-01  -2.82181280e-01
C     4.896061670475000e+00   4.217913840878938e+00   1.331574449600000e+01  1.17377304e+00  -7.93605400e-02   2.79117370e-01
C     6.158758512075000e+00   4.954611633159389e+00   1.320864313600000e+01 -1.33851670e-01  -3.09100667e+00   1.32925446e+00
C     6.188137700850000e+00   5.139893409434785e+00   3.529333552000000e+00  4.62776190e-01  -2.21029108e+00  -2.37679720e-01
C     7.433709793049999e+00   5.798962886661345e+00   3.506307800000000e+00  1.29733858e+00  -7.91509820e-01   6.12451940e-01
C     7.410983146275000e+00   4.210862112549292e+00   1.332103081600000e+01 -9.46480420e-01   4.25095580e-01  -6.85005240e-01
C     8.631810459224999e+00   4.927148766518979e+00   1.341675373600000e+01  7.26763420e-01  -9.50616560e-01   1.17666624e+00
C     8.696404194299999e+00   5.032824208657846e+00   3.536511632000000e+00 -1.12396545e+00   2.94726146e+00  -7.08770830e-01
C     9.877244117024999e+00   5.830511861944170e+00   3.413190776000000e+00  6.69389440e-01  -3.21928261e+00   8.76782440e-01
C     7.424534557725000e+00   6.874272748603261e-02   6.602927432000000e+00 -1.91290540e-01   3.84437880e-01   8.58813190e-01
C     1.272776559375000e+00   7.381354841274415e-01   6.795125896000000e+00 -1.12662133e+00   1.99576525e+00   3.30545590e-01
C     1.165190993475000e+00   6.092331436245054e-01   1.016656453600000e+01  7.11985150e-01   1.57235976e+00   6.52011170e-01
C     2.379683305725000e+00   1.350927153631856e+00   1.022056279200000e+01  1.81813775e+00  -7.39883140e-01  -4.11115910e-01
C     2.460985821450000e+00   7.134099894241321e-02   6.998759784000001e+00  2.12376906e+00  -1.76419679e+00  -3.14912220e-01
C     3.696167273099999e+00   8.306526099819949e-01   7.127944144000000e+00 -4.15123610e-01  -2.18337731e+00  -1.45165836e+00
C     3.674234923275000e+00   6.297894024183762e-01   1.006975892000000e+01 -2.76354389e+00  -7.41521800e-02  -1.62591980e-01
C     4.854678695850001e+00   1.356994355400684e+00   1.006074973600000e+01  2.05018730e+00  -5.11183030e-01   1.27093112e+00
C     4.867331208075000e+00   8.544964305057180e-02   6.804239800000000e+00  2.13481316e+00  -4.81652140e-01   6.85682210e-01
C     6.152367457275000e+00   7.737221518632607e-01   6.677682552000000e+00 -4.41795330e-01  -1.47525980e+00   4.25237560e-01
C     6.104330276775000e+00   6.071454836473027e-01   1.010658676800000e+01 -8.19324030e-01  -3.25877940e-01  -1.52275820e-01
C     7.327877063999999e+00   1.290382772802724e+00   1.023053716800000e+01 -4.79381700e-01   1.67400828e+00  -6.28690320e-01
C     1.268114011875000e+00   2.190505890133962e+00   6.886425960000000e+00  1.15345613e+00  -3.49794900e-01  -2.07864970e-01
C     2.509022336400000e+00   2.968883809376285e+00   6.970538696000000e+00 -1.00509424e+00  -1.56722765e+00   6.66844510e-01
C     2.399733702000000e+00   2.776562280733442e+00   1.031566800000000e+01  1.17421700e-01  -1.58626768e+00  -3.44413650e-01
C     3.639631093050000e+00   3.434457088983321e+00   1.033875508800000e+01  2.62032660e-01   2.53889927e+00  -4.93114100e-01
C     3.714918478800000e+00   2.221722996774481e+00   7.174345575999999e+00  5.45423120e-01   1.80911508e+00  -1.74895117e+00
C     4.965320134575000e+00   2.924383375338025e+00   6.991099040000001e+00 -4.19547290e-01  -1.73155887e+00  -2.26605890e-01
C     4.868354860949999e+00   2.763034054515134e+00   1.027638644000000e+01 -4.43455000e-02  -7.93523500e-02  -5.32927260e-01
C     6.086801057849999e+00   3.514587291412798e+00   1.024383470400000e+01  1.00829743e+00  -2.71292608e+00  -7.38376170e-01
C     6.170988400050000e+00   2.151502230616939e+00   6.815225472000001e+00  5.40527970e-01   2.01506103e+00   5.66822250e-01
C     7.441019750550000e+00   2.847302176033115e+00   6.849629255999999e+00 -9.62099790e-01   1.35368050e+00   1.53163600e-02
C     7.320141487274999e+00   2.740298746984399e+00   1.021372539200000e+01  1.87752860e-01   2.53649740e-01   2.86592060e-01
C     8.569153326750000e+00   3.455358024935216e+00   1.022994992000000e+01 -1.47202746e+00   1.96213210e-01  -8.04794310e-01
C     9.885058450499999e+00   4.375366170794019e+00   6.847651544000000e+00  1.19185664e+00   4.76437200e-02  -7.43187450e-01
C     3.773782900650000e+00   5.083460241938879e+00   6.704051048000000e+00 -1.64950072e+00  -1.87708363e+00   8.81746150e-01
C     3.659975514525000e+00   4.904904089182899e+00   1.026629265600000e+01 -2.94074970e-01  -9.90855900e-01  -2.44276380e-01
C     4.903899187275000e+00   5.639143543041208e+00   1.020702807200000e+01 -9.57910960e-01  -2.58609013e+00  -5.33092020e-01
C     4.983372180000000e+00   4.316459422742267e+00   6.850654424000000e+00  3.17225470e-01   1.43172740e+00   1.29965330e-01
C     6.247367176875000e+00   5.002168883516806e+00   6.918440904000000e+00 -2.02012193e+00   1.82723073e+00  -2.33074050e-01
C     6.119249763225000e+00   4.887207715778989e+00   1.008610244800000e+01 -4.82485900e-02   1.91529302e+00   5.41295680e-01
C     7.360814172150000e+00   5.593148099048110e+00   9.931296231999999e+00 -1.03795412e+00   4.79637120e-01   1.09489382e+00
C     7.455054942900000e+00   4.299935925122838e+00   6.914353832000001e+00 -9.75474820e-01  -1.38511952e+00  -2.90351830e-01
C     8.624111228925001e+00   5.027429838219789e+00   6.805311888000000e+00  1.08759213e+00   1.93906896e+00   2.91163700e-01
C     8.543776496849999e+00   4.855308171420908e+00   9.998375919999999e+00  1.85807289e+00   4.35549350e-01   1.01825038e+00
C     9.800400786299999e+00   5.572322989509276e+00   1.010281671200000e+01  6.84119000e-03   6.37000220e-01   7.95701300e-02
