72
Lattice="7.395 0 0 3.6975 6.40425786098592 0 0 0 13.6 " PBC="1 1 1" Properties=species:S:1:pos:R:3:force:R:3 Energy="-560.15024295"
C     3.718497880650000e+00   6.376557651563299e+00   1.324280579200000e+01 -3.56295710e-01  -1.28159137e+00   8.51942340e-01
C     1.164742227900000e+00   7.319987321182536e-01   1.321962853600000e+01  2.92380896e+00  -2.82169121e+00   1.42097114e+00
C     1.220630088300000e+00   7.994336461066957e-01   3.387646168000000e+00  3.33745560e+00  -2.03313846e+00   1.30713726e+00
C     2.492510299725000e+00   1.529152142213896e+00   3.387286992000000e+00  1.61855933e+00  -3.43183441e+00   7.49008870e-01
C     5.988779593349999e+00   6.340237952472825e+00   1.338572982400000e+01  6.42626708e+00  -1.00749430e-01  -6.93929740e-01
C     3.750931611150000e+00   7.516963080182556e-01   1.309103441600000e+01 -1.52253640e+00  -4.16888855e+00   4.10686971e+00
C     3.760794655424999e+00   7.785678695304510e-01   3.554434256000000e+00 -3.93502363e+00  -1.64260162e+00  -2.15542600e-02
C     4.876586531250000e+00   1.507011405982883e+00   3.585599880000000e+00  6.11500516e+00   6.07539560e-01   1.10116930e+00
C     8.707466411775000e+00   6.383019355616304e+00   1.326040596000000e+01 -2.38693548e+00  -1.15043322e+00   9.54651180e-01
C     6.253678476599999e+00   6.668306692419372e-01   1.337709695200000e+01 -5.60912955e+00   2.00436199e+00   1.33510181e+00
C     6.211675246350000e+00   8.056214400510276e-01   3.612990416000000e+00  1.28439410e-01  -1.11831925e+00   6.45336660e-01
C     7.523114159850000e+00   1.558489599172506e+00   3.453420392000000e+00 -6.78336239e+00  -4.58606518e+00   4.02896140e-01
C     1.313187941925000e+00   2.104720087588318e+00   1.327104279200000e+01 -5.03288060e+00   1.17147916e+00  -1.66563990e-01
C     2.442406586475000e+00   2.780933250765470e+00   1.284891973600000e+01  1.28535131e+00   1.89836099e+00   4.05003947e+00
C     2.613594587700000e+00   2.885859907075345e+00   3.471709672000000e+00 -4.98752979e+00   2.99360327e+00  -5.66429800e-01
C     3.811475548424999e+00   3.666317032674496e+00   3.588426640000000e+00 -1.92475059e+00  -5.04334377e+00   1.28848436e+00
C     3.676645027725000e+00   2.127818452497138e+00   1.329443166400000e+01  7.58554070e-01  -3.89014030e-01  -3.53451417e+00
C     4.929809418525000e+00   2.797427929224529e+00   1.343917700800000e+01 -2.65631575e+00   1.98550230e+00   2.22643558e+00
C     4.982687624850000e+00   2.924220899316116e+00   3.827237200000000e+00  1.91472260e-01   1.04073360e-01  -3.78358170e+00
C     6.234641528099999e+00   3.603456103692245e+00   3.571335928000000e+00 -4.89549490e+00   2.39473252e+00   9.66127750e-01
C     6.054854953650000e+00   2.163351004254040e+00   2.222966240000000e-01  6.07100674e+00  -4.98489497e+00  -3.52017543e+00
C     7.403446753875000e+00   2.791493103465667e+00   5.949945599999999e-02  1.97589340e-01  -1.60630241e+00  -9.82952600e-01
C     7.328345611200000e+00   2.876576422966647e+00   3.363235120000000e+00  5.81732481e+00   3.70236568e+00   4.95701840e-01
C     8.531710999725000e+00   3.638021228256815e+00   3.449148224000000e+00  5.54694085e+00   1.78467200e-01  -9.51006070e-01
C     9.777631840125000e+00   4.232557176475829e+00   1.300938600000000e+01  5.48484488e+00  -2.50690743e+00   9.78128190e-01
C     3.735490407450000e+00   4.937537177236264e+00   1.322090353600000e+01 -2.17697867e+00   1.90591800e-01   2.46211430e-01
C     3.720195809625000e+00   4.986543006679034e+00   3.722365015999999e+00 -1.12560416e+00   4.02180272e+00   4.77381500e-02
C     4.862064082350000e+00   5.711104538187048e+00   3.635986656000000e+00  5.46793925e+00   3.53545118e+00  -1.24475257e+00
C     4.914627816299999e+00   4.235345142050022e+00   2.192904800000000e-02 -2.20910812e+00  -1.20159400e+00  -2.13250274e+00
C     6.102120317999999e+00   4.900730370292957e+00   1.398985760000000e-01  2.40982095e+00   3.02742294e+00  -2.24421262e+00
C     6.207937073849999e+00   5.077982680191221e+00   3.546033128000000e+00 -1.11802964e+00  -2.28704967e+00   1.11040409e+00
C     7.477078584000000e+00   5.703563652642056e+00   3.688169448000000e+00 -3.56174639e+00   4.73748850e+00  -2.62513961e+00
C     7.406281368299998e+00   4.135887017484222e+00   1.354591266400000e+01 -1.65609889e+00   3.44568377e+00   1.31900778e+00
C     8.628643550474999e+00   4.794422187477522e+00   1.335850004000000e+01 -1.85143894e+00   6.43314283e+00  -1.01044170e+00
C     8.659422797624998e+00   5.094427853737022e+00   3.490596264000000e+00  1.42442174e+00  -3.98107772e+00   2.35025398e+00
C     9.914484227774999e+00   5.747854667448293e+00   3.806435320000000e+00 -1.12221221e+00   1.75599190e+00  -2.92169933e+00
C     3.697208156325000e+00   6.396648897193956e+00   7.446934455999999e+00  1.02683140e-01   3.82191603e+00  -3.67942746e+00
C     1.327664283000000e+00   7.318050673605673e-01   6.958545400000000e+00 -3.73987216e+00   1.27354702e+00   2.53813970e-01
C     1.339999290900000e+00   6.322264146618420e-01   1.021597306400000e+01 -1.01885146e+01  -2.56365630e+00  -1.19177197e+00
C     2.424451415550000e+00   1.319262645537236e+00   1.026457198400000e+01  3.49746994e+00   3.61952928e+00  -1.52003346e+00
C     2.462997520275000e+00   2.643056431595580e-02   6.625721712000000e+00  1.86690455e+00  -4.10381560e-01  -2.52736060e-01
C     3.740845644600000e+00   7.274974354387741e-01   6.356711128000000e+00 -7.99047380e-01   1.25765742e+00   2.79465562e+00
C     3.618586993650000e+00   6.094486469014945e-01   1.042174895200000e+01  3.36796142e+00   1.97798982e+00   2.28294338e+00
C     4.891948312649999e+00   1.370001659284658e+00   1.057411859200000e+01 -1.44738469e+00   1.03507698e+00  -5.53557670e+00
C     4.944358600350000e+00   3.608338197544080e-02   6.946152400000000e+00 -3.05318543e+00   1.52744125e+00  -2.78655807e+00
C     6.090287615475000e+00   7.002717184669206e-01   7.125405160000001e+00  5.57444736e+00   4.05214123e+00   1.50382925e+00
C     6.098551564949999e+00   6.922591593305388e-01   1.032109195200000e+01 -7.02622470e-01  -2.21183593e+00   1.46492382e+00
C     7.201319662575000e+00   1.454302122304832e+00   1.007276329600000e+01  6.21043726e+00  -8.35967862e+00   7.51168750e-01
C     8.616485652824998e+00   2.237806201666035e+00   6.757843808000001e+00  2.95758758e+00  -4.53156832e+00   1.54136207e+00
C     2.481585333450000e+00   2.896482009161942e+00   6.677160584000000e+00  1.10132958e+00   1.65901330e-01  -1.96812712e+00
C     2.405462386650000e+00   2.778448078502897e+00   9.979098600000000e+00  1.08162399e+00   2.37706800e-02   1.02287213e+00
C     3.661934634900000e+00   3.522916284930042e+00   9.918655848000000e+00 -1.07421760e+00  -3.37691739e+00   5.87615060e-01
C     3.713581167000000e+00   2.200805537837307e+00   6.278614760000000e+00  2.32245630e-01  -9.06895010e-01   3.84767404e+00
C     4.970424459375000e+00   2.957277180728871e+00   6.591955768000000e+00 -3.82621480e-01  -5.74505862e+00   8.23569650e-01
C     4.928538439875000e+00   2.742203373271963e+00   9.935668904000000e+00 -1.11665422e+00   9.66156830e-01   3.34611395e+00
C     6.159888542025000e+00   3.469303616638260e+00   1.007940540000000e+01 -1.83731860e+00   2.18692138e+00   1.46527062e+00
C     6.216277265775000e+00   2.208516712598797e+00   7.017643111999999e+00 -4.52650237e+00  -3.39802490e+00  -2.20287379e+00
C     7.403792691974999e+00   2.818372798385344e+00   6.947648400000000e+00  8.72745900e-01   5.66437998e+00  -5.34144080e-01
C     7.344858905024999e+00   2.712404745704855e+00   1.015751509600000e+01  4.10254930e-01   8.15850769e+00  -4.63694280e-01
C     8.581465077375000e+00   3.486645578412197e+00   1.009336865600000e+01  7.97852420e-01   7.27028020e-01   1.92922211e+00
C     2.551810287075000e+00   4.313346377039100e+00   6.883601240000000e+00 -5.30442868e+00   4.22192290e-01   1.12627170e+00
C     3.621311792325000e+00   5.061352807848738e+00   7.210451535999999e+00  6.07975195e+00  -3.24288316e+00  -2.35768727e+00
C     3.544593363150000e+00   4.878079278753081e+00   1.009770868800000e+01  6.06754595e+00   1.47233688e+00  -6.17098370e-01
C     4.875218678100000e+00   5.599998989851266e+00   1.015388444000000e+01  5.48217250e-01   1.30720176e+00   1.43830914e+00
C     4.964871258075000e+00   4.250922282485479e+00   6.837648607999999e+00 -1.29016564e+00   5.80855526e+00   8.07165380e-01
C     6.214211472524999e+00   4.955981632000800e+00   6.668419183999999e+00 -3.83180715e+00   3.32573160e+00   1.75711413e+00
C     6.095595672525000e+00   4.955297529176194e+00   1.041716956000000e+01  1.98929042e+00  -2.85517697e+00  -1.40414472e+00
C     7.400747098200000e+00   5.675309475900465e+00   1.075347430400000e+01 -2.35786303e+00  -3.00386802e+00  -3.65012204e+00
C     7.390445937150000e+00   4.373282737627004e+00   6.802531911999999e+00  4.05270118e+00  -4.26652827e+00   3.33916970e-01
C     8.651790787875001e+00   5.083362064665885e+00   6.943800959999999e+00 -1.71641020e-01  -4.71549028e+00  -5.81169960e-01
C     8.660069601299998e+00   4.924615818492771e+00   1.052735825600000e+01 -3.30261629e+00  -1.75765041e+00  -1.48493985e+00
C     9.848628831749998e+00   5.607546407739276e+00   1.038897920800000e+01 -1.97472774e+00   2.63589681e+00  -4.41922480e-01
