72
Lattice="7.395 0 0 3.6975 6.40425786098592 0 0 0 13.6 " PBC="1 1 1" Properties=species:S:1:pos:R:3:force:R:3 Energy="-571.53513916"
C     3.628958924850000e+00   6.247880100511250e+00   1.357184976800000e+01  1.89143820e-01  -4.09693760e-01   7.86044470e-01
C     1.197574881675000e+00   4.830871957045134e-01   1.349743764000000e+01 -5.48059000e-03  -3.72154820e-01   6.71468540e-01
C     1.320245729925000e+00   9.988845867270271e-01   3.320874112000000e+00  1.82870049e+00  -2.10434656e+00   1.16023231e+00
C     2.675395896825000e+00   1.565735824813360e+00   3.144960968000000e+00 -3.71100512e+00   4.86340286e+00   1.80443483e+00
C     6.145591196924999e+00   6.197357870892389e+00   9.773694399999999e-02 -5.59184670e-01   9.68452290e-01  -2.53589380e-01
C     3.681242832000000e+00   4.827762689854104e-01   7.674303200000000e-02 -1.76941140e-01   1.38400426e+00  -2.39073000e-03
C     3.879267768900000e+00   9.690253108379844e-01   3.444610175999999e+00  1.75821078e+00   4.40065428e+00  -4.25726630e-01
C     5.094513927450000e+00   1.732737415538329e+00   3.563870480000000e+00  8.54983850e-01   4.38633140e-01   8.87303730e-01
C     8.613594577575000e+00   6.225298879424625e+00   9.924695200000000e-02 -1.33250211e+00  -1.38494260e-01   6.43112150e-01
C     6.074550611775000e+00   5.360264562823170e-01   1.115046320000000e-01  3.56228703e+00   2.49765486e+00  -5.63470000e-03
C     6.367135931325000e+00   9.975928479166650e-01   3.729425864000000e+00 -3.80444230e+00   1.07461220e+00  -1.08257382e+00
C     7.516863905849999e+00   1.710156642749755e+00   3.459019784000000e+00  2.10908137e+00   1.73524756e+00  -4.35345940e-01
C     1.223092216575000e+00   1.853794732290501e+00   1.339705617600000e+01 -1.03420666e+00   4.54935182e+00   1.90377262e+00
C     2.470217332725000e+00   2.599670850765589e+00   1.319304053600000e+01 -5.53723010e-01   3.93053330e-01   2.63061364e+00
C     2.632459787325000e+00   3.047103941899017e+00   3.309689744000000e+00  8.76828590e-01   5.19759630e-01   1.28828800e-01
C     3.848861784375000e+00   3.851413277599689e+00   3.539629703999999e+00 -2.19025512e+00  -1.56667237e+00   6.50536770e-01
C     3.710600686200000e+00   1.896940793876529e+00   1.356878514400000e+01 -2.28749083e+00   1.03133588e+00  -2.08851593e+00
C     4.862665406774999e+00   2.670414844790292e+00   9.325805599999999e-02  2.18395536e+00  -2.80102500e-02   1.36638586e+00
C     5.106758790299999e+00   3.221844565907167e+00   3.643786800000000e+00 -1.52746800e+00  -4.84500924e+00  -1.75520608e+00
C     6.315485812650000e+00   3.794645871886070e+00   3.473855072000000e+00  2.75980041e+00   6.03579205e+00   5.54956190e-01
C     6.115253098499999e+00   1.996724895167403e+00   3.110751120000000e-01  7.84566930e-01  -1.02730713e+00  -1.08904877e+00
C     7.399656520574999e+00   2.697777420752614e+00   3.575464480000000e-01  7.92683580e-01  -1.51636226e+00  -3.56096562e+00
C     7.582034968575000e+00   3.155079985588932e+00   3.323593840000000e+00 -4.17396971e+00  -2.61719937e+00   1.02979583e+00
C     8.771344310849999e+00   3.807987990370965e+00   3.365605736000000e+00  3.01175498e+00  -1.10334980e-01  -6.94606000e-01
C     2.433107484899999e+00   4.050013604691054e+00   1.329945373600000e+01  5.46384660e-01   1.30118022e+00   2.64790862e+00
C     3.671632179075000e+00   4.840248879276010e+00   1.355553439200000e+01 -2.02119420e-01  -3.04103016e+00  -8.40327090e-01
C     3.737549175450000e+00   5.216609758169410e+00   3.818821112000000e+00  3.27536839e+00   1.81968033e+00  -1.36079565e+00
C     4.963714901925000e+00   6.003756003018173e+00   3.669834472000000e+00  3.07493595e+00  -5.46977260e-01  -1.14729329e+00
C     4.911151389825000e+00   4.074508930366876e+00   1.404697760000000e-01 -1.72375590e-01   2.70898239e+00   1.32429050e-01
C     6.183470272649999e+00   4.854917127435976e+00   3.863904160000000e-01 -1.32653296e+00  -3.26101799e+00  -1.88944046e+00
C     6.311569753424999e+00   5.382489322917307e+00   3.527449544000000e+00 -1.86555966e+00  -3.51042621e+00   3.26034320e-01
C     7.559458810050000e+00   6.065915793849912e+00   3.506935712000000e+00  3.60699440e-01  -8.05184320e+00  -6.09709640e-01
C     7.462978315650000e+00   4.163121252119030e+00   2.870838960000000e-01 -3.72570769e+00  -2.94102271e+00   1.30339520e+00
C     8.620290824024998e+00   4.836622660390521e+00   1.532802960000000e-01  3.25093631e+00  -2.02037689e+00  -2.90342939e+00
C     8.789544773925000e+00   5.193958858757269e+00   3.436588079999999e+00 -4.40686980e-01   4.62956125e+00   2.14453275e+00
C     9.997795965000000e+00   5.990738900619673e+00   3.766273976000000e+00 -2.18816522e+00  -2.28391555e+00  -1.45148512e+00
C     7.392475199100000e+00   1.922373766945632e-01   7.051191184000000e+00  3.22519960e-01  -9.91448230e-01  -1.59478589e+00
C     1.273568231100000e+00   8.326011694784785e-01   6.786646704000000e+00 -3.43505332e+00   2.43896139e+00  -2.31357000e-03
C     1.095650779875000e+00   4.572805982318575e-01   1.005481904800000e+01  1.68675146e+00   7.33614950e-01  -4.62308510e-01
C     2.352366619425000e+00   1.173654093938126e+00   9.843047192000000e+00 -1.36205255e+00   6.31794700e-01   2.61025820e-01
C     2.444522148075000e+00   1.758330623139090e-01   6.821843639999999e+00  2.28558651e+00  -3.23455910e+00  -3.94834400e-01
C     3.626417817975000e+00   9.491860087115407e-01   6.779234703999999e+00 -6.99947000e-02  -1.43529916e+00  -2.24249340e-01
C     3.595600634475000e+00   4.924471466520606e-01   9.930208095999999e+00 -4.77058309e+00  -2.36558261e+00   6.55876380e-01
C     4.696001592600000e+00   1.171700859333404e+00   1.002926315200000e+01  8.70438174e+00   2.69413981e+00   8.93557000e-03
C     4.789440486524999e+00   2.214253582747206e-01   6.914246392000000e+00  3.36856757e+00  -2.72391225e+00  -2.07351000e-01
C     6.057964477200000e+00   8.855397896304961e-01   6.916065664000000e+00  1.64577165e+00  -4.74344630e+00   7.91660530e-01
C     6.047065837124999e+00   3.702309794401218e-01   1.023162924800000e+01 -1.16685138e+00   2.40315059e+00  -9.34209800e-01
C     7.266860216474999e+00   1.160153790284089e+00   1.013802792800000e+01 -2.16375645e+00  -1.33033294e+00   7.95376640e-01
C     8.656463614425000e+00   2.280566150545683e+00   6.568699088000000e+00  8.22803160e-01  -5.12334580e-01   1.76685092e+00
C     2.466569305275000e+00   3.122898461757274e+00   6.624801400000000e+00 -1.27895610e-01  -3.77238293e+00  -5.84072730e-01
C     2.319383958075000e+00   2.612148778694856e+00   9.716575624000001e+00 -2.75243610e-01  -1.72523753e+00   1.13805774e+00
C     3.558349394250000e+00   3.326502819770130e+00   9.772951160000000e+00  1.18026726e+00   4.94332230e-01   8.25105190e-01
C     3.665434984200000e+00   2.320057302171008e+00   6.626914160000000e+00  1.66953849e+00   3.98891311e+00   6.66101650e-01
C     4.969128818400000e+00   3.077694071695043e+00   6.701239656000000e+00 -1.38541028e+00  -5.84555835e+00   4.00923440e-01
C     4.821886307850000e+00   2.662569692954371e+00   9.854410536000000e+00 -1.61829900e+00  -2.51681107e+00   1.61372170e+00
C     6.062806649250000e+00   3.349365507989701e+00   1.015659002400000e+01 -2.79323944e+00  -3.14686492e+00  -3.14834700e-01
C     6.153777018224999e+00   2.195324966088454e+00   6.849875280000000e+00 -2.96265310e-01   6.14412093e+00  -1.04421525e+00
C     7.430677140524999e+00   2.843221190796987e+00   6.788447071999999e+00 -1.18731798e+00   4.36190468e+00  -2.12323980e-01
C     7.195743167024999e+00   2.575999817118928e+00   1.022151316000000e+01  3.45900522e+00  -1.32731928e+00  -1.99921788e+00
C     8.428720797750000e+00   3.211718025293778e+00   9.909874872000000e+00  4.70611750e-01   3.55695971e+00   1.71937923e+00
C     9.876799011974999e+00   4.486663014312079e+00   6.791462055999999e+00  1.27058655e+00   1.48259418e+00   1.24181574e+00
C     3.829145605124999e+00   5.169482041386663e+00   7.004252279999999e+00 -4.61488068e+00   2.49846360e-01  -1.49363369e+00
C     3.594217140900000e+00   4.743473818540657e+00   1.005238573600000e+01  2.10592213e+00  -2.48869063e+00  -8.42646470e-01
C     4.822158074099999e+00   5.450767613623333e+00   1.008409223200000e+01  5.57424640e-01  -1.19878240e+00   6.63452500e-01
C     5.005795225050000e+00   4.428963917164988e+00   6.778057351999999e+00 -1.57875270e-01   1.74011629e+00   6.60759390e-01
C     6.246639028199999e+00   5.080752265545357e+00   6.803413328000000e+00 -1.44403093e+00   3.08041286e+00   7.44480490e-01
C     6.073377025275000e+00   4.682777016374457e+00   1.020895383200000e+01 -9.07291790e-01   5.85875173e+00  -1.32984672e+00
C     7.281074330850000e+00   5.480262551282720e+00   1.012462988800000e+01 -3.60407790e-01  -2.11032934e+00   1.71983940e-01
C     7.427587139775000e+00   4.373091570529883e+00   6.863133512000000e+00  1.79471990e-01  -2.34181907e+00  -6.63990070e-01
C     8.593397390549999e+00   5.131358839240234e+00   6.906401096000000e+00  1.07277259e+00   2.06861686e+00  -3.45402940e-01
C     8.432526301725000e+00   4.691756426319963e+00   1.008495352000000e+01  3.51024162e+00  -6.95781340e-01  -3.78794180e-01
C     9.812277710924999e+00   5.356459473015651e+00   1.016783178400000e+01 -6.12424124e+00   2.63778500e+00  -2.65007970e-01
