72
Lattice="7.395 0 0 3.6975 6.40425786098592 0 0 0 13.6 " PBC="1 1 1" Properties=species:S:1:pos:R:3:force:R:3 Energy="-575.66924354"
C     3.732262711800000e+00   6.227434379208042e+00   1.358721722400000e+01 -2.40989193e+00  -1.21056762e+00  -9.35391000e-01
C     1.267811704275000e+00   4.608964422196135e-01   2.817471200000000e-02 -1.05114111e+00   3.02292850e+00  -5.07157000e-03
C     1.385912553450000e+00   1.060954974119040e+00   3.662827888000000e+00  1.13137708e+00  -1.53095479e+00  -5.50247120e-01
C     2.636197996800000e+00   1.720109243719667e+00   3.776804864000000e+00 -7.16968240e-01   2.30553713e+00  -1.46330094e+00
C     6.203258811975000e+00   6.234753485303344e+00   1.354361494400000e+01 -2.52315248e+00  -1.19725627e+00   3.34074380e-01
C     3.689204584799999e+00   5.180703902221848e-01   1.354924466400000e+01  6.76863630e-01   5.31649340e-01  -5.60429000e-01
C     3.846575324325000e+00   1.036770895375215e+00   3.637099952000000e+00  1.69812000e-03  -6.83828170e-01   6.38795470e-01
C     5.076425979300000e+00   1.679800076237884e+00   3.668243136000000e+00  1.34836064e+00   1.53610047e+00  -1.41986209e+00
C     8.562483554400000e+00   6.153742505290380e+00   1.352321984000000e+01  1.55191780e+00   3.75616220e+00  -5.47925240e-01
C     6.099395963025000e+00   4.174798007390010e-01   1.355733421600000e+01  2.37512442e+00   2.89189916e+00   6.39420760e-01
C     6.371401921950000e+00   9.681643224112861e-01   3.519486200000000e+00 -2.45569958e+00   1.67508806e+00   8.68344250e-01
C     7.547521024575000e+00   1.743235851405649e+00   3.584739815999999e+00  1.35066487e+00  -3.03678464e+00   1.26094550e-01
C     1.219920944775000e+00   1.882901571923572e+00   9.829127999999999e-02  2.94262710e-01   3.24700867e+00  -1.09576061e+00
C     2.458739664150000e+00   2.647022460403121e+00   7.869245599999999e-02 -8.05186660e-01   9.56647450e-01  -1.34599766e+00
C     2.651285756475000e+00   3.161226151857174e+00   3.660373360000000e+00 -1.35038608e+00   2.05006893e+00   5.26983810e-01
C     3.860751095625000e+00   3.959727978445239e+00   3.701409728000000e+00  4.00805230e-01  -4.26600874e+00  -1.72610772e+00
C     3.710743927350000e+00   1.936168922631544e+00   1.350797696000000e+01 -3.10693449e+00  -3.10925350e-01   2.08241599e+00
C     4.880482808849999e+00   2.590153162946950e+00   1.041983040000000e-01  2.93101230e+00   2.83816592e+00  -1.28907471e+00
C     5.039022882749999e+00   3.130787931057587e+00   3.596861904000000e+00  2.51323544e+00  -1.51648050e-01   1.65777345e+00
C     6.347803626525000e+00   3.731820038236891e+00   3.670975104000000e+00 -1.46509240e+00   4.83992724e+00  -8.32617100e-01
C     6.093855370200000e+00   1.837779796787735e+00   5.742844800000000e-02  1.96794302e+00   2.94511320e+00  -5.71048380e-01
C     7.390639131525000e+00   2.700693919782058e+00   1.355200342400000e+01 -1.56172956e+00  -2.79662545e+00   2.05932019e+00
C     7.595128370699999e+00   3.091360373712811e+00   3.656150424000000e+00 -1.31156482e+00   3.54875149e+00  -5.24704950e-01
C     8.766951200174999e+00   3.913931002403222e+00   3.577746832000000e+00  1.79570942e+00  -1.64457441e+00   1.41563710e+00
C     2.402412060075000e+00   4.139781382646309e+00   1.356064078400000e+01  2.01690402e+00  -2.51684591e+00  -7.85643350e-01
C     3.679438673850000e+00   4.842700237057082e+00   1.348215790400000e+01  3.77453360e-01  -3.00981610e+00   1.42015408e+00
C     3.906918117600000e+00   5.325147199103332e+00   3.481121280000000e+00 -1.38731760e-01  -5.21845790e-01   1.10069711e+00
C     5.124152828625000e+00   6.040228251530873e+00   3.540580752000000e+00  6.69874580e-01  -5.66571070e-01   3.82538470e-01
C     4.921036582125000e+00   4.077614739258661e+00   3.492167200000000e-02 -1.39492612e+00  -4.10064740e-01  -4.67120920e-01
C     6.123993803625000e+00   4.826323589070383e+00   1.357071457600000e+01  1.37812400e-01  -8.48684560e-01   5.45088960e-01
C     6.363915815550000e+00   5.296071227993146e+00   3.625964680000000e+00 -1.16212225e+00  -1.86675653e+00  -3.05389790e-01
C     7.554908148899999e+00   6.051714736300834e+00   3.596040736000000e+00  3.08984380e-01  -1.84018257e+00   7.55857990e-01
C     7.341891217575000e+00   4.167836130798140e+00   1.913941600000000e-02  1.47043365e+00  -4.18657042e+00  -1.81801023e+00
C     8.585728664625000e+00   4.829648807836453e+00   1.338985579200000e+01 -9.48343430e-01  -3.65255357e+00   2.23252782e+00
C     8.793202045125000e+00   5.353005912922068e+00   3.671853392000000e+00  1.18807640e-01  -2.38873128e+00  -1.59126355e+00
C     1.006836537772500e+01   5.955828458471291e+00   3.530760056000000e+00 -1.12275588e+00   2.46165199e+00   1.54844200e-01
C     7.427769611399999e+00   1.903374895578156e-01   7.074599640000001e+00 -4.03225660e-01   1.30723600e-01  -8.00048940e-01
C     1.282056064200000e+00   9.156810449931144e-01   7.013877679999999e+00 -2.39730716e+00   1.52190850e-01  -3.18426460e-01
C     1.080946266075000e+00   3.816162128933154e-01   9.782466127999999e+00 -6.59429190e-01   1.13547378e+00   1.21835019e+00
C     2.331778717575000e+00   1.082971595832727e+00   9.928484839999999e+00 -2.60181527e+00   9.68491040e-01  -2.13454300e-02
C     2.472605178225000e+00   2.261150682204414e-01   6.809263775999999e+00  8.54086560e-01   6.70610600e-02   5.32133990e-01
C     3.748211693175000e+00   8.583989931178663e-01   6.760364024000000e+00 -7.18806230e-01   4.87934330e-01   6.26368500e-01
C     3.493130707725000e+00   3.969834857986999e-01   1.009004209600000e+01  2.75441103e+00  -6.39826400e-01  -1.21347175e+00
C     4.730552733450000e+00   1.123870659505995e+00   9.913398768000000e+00  1.82971516e+00  -1.51350250e-01   7.41794920e-01
C     4.988100506025000e+00   2.271984124800390e-01   6.917943144000001e+00 -6.38726200e-02  -1.88629116e+00   1.04709360e-01
C     6.185965789350000e+00   9.585118249646940e-01   7.077327120000000e+00  8.95385750e-01  -7.33401730e-01  -1.45514415e+00
C     6.049585942199999e+00   3.778966839708060e-01   9.827230391999999e+00 -1.82605686e+00   2.78900461e+00   7.18149820e-01
C     7.251000159975000e+00   1.204784294799486e+00   9.769686480000001e+00  5.17511130e-01  -4.53461804e+00  -1.22262030e-01
C     8.629714198575000e+00   2.338099825712251e+00   7.078934232000000e+00 -8.59653950e-01  -8.90926420e-01  -1.78615829e+00
C     2.458442385150000e+00   2.952820521726676e+00   6.885576639999999e+00  1.30508850e+00   1.78423890e+00   9.46645090e-01
C     2.323304898000000e+00   2.497950294025586e+00   9.887070255999999e+00 -6.92225560e-01   2.18610435e+00   1.16865710e-01
C     3.523862959650000e+00   3.285379414944027e+00   9.787878383999999e+00  9.69318550e-01  -2.24072638e+00   1.20331949e+00
C     3.717998940000000e+00   2.230914515740310e+00   6.810609224000000e+00 -4.62895370e-01   3.41061204e+00   2.08036500e-02
C     4.912957581600000e+00   3.039972096303543e+00   6.854008184000000e+00  1.84216090e-01  -4.91337680e-01   1.52011790e-01
C     4.777541709674999e+00   2.597307167274620e+00   9.861776976000000e+00  2.48513800e-02  -2.76071969e+00  -6.24377350e-01
C     6.073757091300000e+00   3.251939710613194e+00   9.786176072000000e+00 -3.82762042e+00  -9.54780170e-01  -8.25930800e-02
C     6.165113405325000e+00   2.397967212443002e+00   6.938417536000000e+00  3.50166300e-02  -2.49979258e+00   2.13458540e-01
C     7.390056849224999e+00   3.059240394799189e+00   6.970734808000000e+00 -1.05188530e-01   1.85209027e+00  -4.28744500e-02
C     7.269073539974999e+00   2.598919375148296e+00   9.694653239999999e+00  2.58183200e-02  -2.28953882e+00   1.99746438e+00
C     8.454102619275000e+00   3.242224259311838e+00   9.925702008000000e+00  2.37683430e+00   1.63994307e+00  -8.50794370e-01
C     9.853148618775000e+00   4.378385586247274e+00   7.028200928000000e+00  4.10335660e-01   2.31202383e+00  -1.51555078e+00
C     3.724728907650000e+00   5.140962151986461e+00   6.968207520000001e+00 -2.77777615e+00   8.82908710e-01   4.73067110e-01
C     3.562035173175000e+00   4.681687652112471e+00   9.760773720000000e+00 -2.78586485e+00  -1.05239503e+00   7.83628540e-01
C     4.731366590175000e+00   5.344404226105144e+00   9.811321248000000e+00  3.50583554e+00   1.72020575e+00  -7.92293900e-02
C     4.912627653674999e+00   4.448299204197849e+00   6.931036679999999e+00  1.20920940e+00   1.12619850e+00  -7.96663480e-01
C     6.143628785775000e+00   5.257949690953760e+00   6.877108872000000e+00 -1.62880900e+00  -3.42079687e+00  -2.84717910e-01
C     5.996780021999999e+00   4.596597159842688e+00   9.822422112000000e+00 -5.74633160e-01   4.36716874e+00   1.26542614e+00
C     7.172814230024999e+00   5.365806615447479e+00   1.004816647200000e+01  1.08208843e+00   3.50412960e-01  -7.75588660e-01
C     7.307388329099999e+00   4.516916408229826e+00   6.883683928000000e+00  4.74172791e+00  -8.47113210e-01   4.38727890e-01
C     8.640195095099999e+00   5.196463371878579e+00   6.965718176000000e+00 -4.81126390e-01  -1.60146763e+00  -3.00553600e-01
C     8.408042048324999e+00   4.699785060143574e+00   9.975467808000001e+00  3.09768626e+00  -1.18897090e+00   9.41804500e-02
C     9.747375123674999e+00   5.373780941164436e+00   9.877803760000001e+00 -2.84426358e+00   8.87953680e-01   2.53050450e-01
