72
Lattice="7.395 0 0 3.6975 6.40425786098592 0 0 0 13.6 " PBC="1 1 1" Properties=species:S:1:pos:R:3:force:R:3 Energy="-564.92806021"
C     3.699811750950000e+00   6.345876004922455e+00   1.332089726400000e+01 -1.97722884e+00  -3.83328981e+00   8.27892800e-02
C     1.097291582475000e+00   6.782263416354427e-01   1.338995765600000e+01  6.47766566e+00  -2.64267653e+00  -7.32421380e-01
C     1.333594999050000e+00   8.778142052888209e-01   3.890843720000000e+00 -6.97082600e-02   1.07282193e+00  -1.05138042e+00
C     2.582590606500000e+00   1.575767006027214e+00   3.927817360000000e+00  1.06500882e+00   1.93721310e-01  -1.30389928e+00
C     6.030762783149999e+00   6.319961047406808e+00   1.323235800000000e+01  4.67766511e+00  -1.66865595e+00   6.88961690e-01
C     3.666890985750000e+00   5.625781891569841e-01   1.344584835200000e+01  4.08995260e-01   2.26068300e-01  -2.93136229e+00
C     3.816732727874999e+00   8.940733991863674e-01   3.713296944000000e+00 -7.09715010e-01  -4.00557580e-01   1.01122740e-01
C     4.997238655424999e+00   1.694506878030166e+00   3.632332744000000e+00  3.28738506e+00  -3.31971486e+00  -5.75089630e-01
C     8.714283196724999e+00   6.205733487406854e+00   1.328848628800000e+01 -3.05602364e+00   3.00621716e+00   8.02418800e-02
C     6.291239604299999e+00   7.120320493029744e-01   1.315241543200000e+01 -7.20523214e+00  -4.15538901e+00   5.44487260e-01
C     6.285971480250000e+00   1.018981724274915e+00   3.608248776000000e+00  3.93177840e-01  -3.84377064e+00   1.88859440e-01
C     7.575483516224999e+00   1.715655786846402e+00   3.835032584000000e+00 -4.88521682e+00  -5.37439229e+00  -1.01153819e+00
C     8.565059898449999e+00   2.055895370557829e+00   1.337538389600000e+01  2.79859195e+00  -1.22177604e+00   7.58559580e-01
C     2.468113935900000e+00   2.686954160926636e+00   8.582266400000001e-02 -2.92217079e+00   2.13057630e+00  -2.03571858e+00
C     2.654265238950000e+00   3.031431634191761e+00   3.830800672000000e+00 -4.22466941e+00  -8.62514880e-01   4.42897110e-01
C     3.849637667774999e+00   3.730239851652514e+00   3.660769528000000e+00 -3.86356100e-01  -1.45716861e+00  -9.25273190e-01
C     3.660815290725000e+00   2.134370776798861e+00   1.333294686400000e+01  1.68081578e+00  -6.36691393e+00   2.15159002e+00
C     4.889832270375000e+00   2.761118220776316e+00   1.313632608800000e+01  6.59805820e-01  -4.67038000e-01  -1.24381494e+00
C     5.107154237925000e+00   3.047943796274777e+00   3.521664783999999e+00 -2.17500711e+00   3.12342714e+00   1.74402480e+00
C     6.301159072425000e+00   3.835295681843426e+00   3.692230136000000e+00 -3.86340571e+00  -1.25697333e+00  -6.02108840e-01
C     6.128954147775000e+00   2.069659977933748e+00   1.287117096800000e+01  1.34636663e+00  -1.92150489e+00   1.88785992e+00
C     7.452509325075001e+00   2.647982394613757e+00   1.290897203200000e+01 -3.82816900e+00   4.09645570e+00   1.26370421e+00
C     7.355419112925000e+00   3.033942551570931e+00   3.927152592000000e+00  8.15911870e+00   4.18137530e+00  -5.81960730e-01
C     8.713773422399999e+00   3.748776015389605e+00   3.858478168000000e+00  1.28905247e+00  -4.40869770e-01   5.67459080e-01
C     2.397927288375000e+00   4.102049288527390e+00   5.970250399999999e-02  3.31969145e+00  -2.04771840e-01  -1.47970498e+00
C     3.687357683550000e+00   4.794725044831722e+00   1.345931847200000e+01 -3.05369540e-01   3.19102897e+00  -1.19206825e+00
C     3.738353603550000e+00   5.086321408180413e+00   3.544403032000000e+00  1.99777240e+00   3.23439000e+00   2.79744660e-01
C     4.950797833575000e+00   5.869969903556359e+00   3.640312680000000e+00  1.45986447e+00   1.37017680e+00   3.87554120e-01
C     4.904081067300000e+00   4.151609726700837e+00   1.302026409600000e+01 -1.44377491e+00  -3.89601390e-01   2.07853288e+00
C     6.175182178500000e+00   4.739071787858008e+00   1.287555261600000e+01 -2.67734849e+00   6.16139749e+00   2.03944553e+00
C     6.242242293974999e+00   5.268860753154999e+00   3.687463472000000e+00  2.48511080e-01  -2.88708134e+00  -4.29606040e-01
C     7.518984237225000e+00   5.831371697604453e+00   3.646300488000000e+00 -8.09757610e-01   4.61558701e+00   1.24092329e+00
C     7.353343040625000e+00   4.066306484984945e+00   1.298690261600000e+01  3.65450488e+00   1.12482766e+00   6.07888960e-01
C     8.621787609000000e+00   4.755826735356497e+00   1.331692824000000e+01 -1.55350238e+00   2.92820160e+00   7.57750400e-02
C     8.753248819800000e+00   5.179922710848086e+00   3.769061024000000e+00 -1.67247027e+00  -3.08313080e+00  -1.32130130e+00
C     9.945716862374999e+00   5.801444472539516e+00   3.532617544000000e+00  1.00445502e+00   5.12421648e+00   9.81327500e-01
C     7.418903561025000e+00   1.173831940178898e-01   6.441527799999999e+00 -8.67648150e-01   3.64308700e-01   2.58896993e+00
C     1.249025963925000e+00   8.146329353284122e-01   6.811480848000000e+00  1.58117637e+00  -7.75373500e-02   1.30395742e+00
C     1.110533993850000e+00   5.572347325689144e-01   1.007642074400000e+01 -1.69115822e+00  -2.13328005e+00   8.41623280e-01
C     2.400743600175000e+00   1.286150262825628e+00   1.012367761600000e+01 -3.31209669e+00  -4.33171215e+00   1.45849210e-01
C     2.517181239900000e+00   8.432486324262000e-03   7.170670311999999e+00 -1.24148255e+00   6.71772417e+00  -9.78728850e-01
C     3.741634765049999e+00   8.511947794085736e-01   7.383221448000000e+00 -1.01291942e+00   9.29275900e-02  -2.49663918e+00
C     3.561382009800000e+00   5.683841612477027e-01   9.921797448000000e+00  2.60208591e+00  -3.30553223e+00  -1.78328702e+00
C     4.805676430875000e+00   1.210814031659833e+00   9.868219703999999e+00 -8.92477420e-01   1.67485654e+00   3.29885427e+00
C     4.895116959225000e+00   1.386121560573750e-01   6.854485543999999e+00 -1.34337094e+00  -5.88743300e-01   1.67496932e+00
C     6.068433800550000e+00   7.560308378230608e-01   6.605526120000000e+00  5.54533733e+00   4.85446369e+00   3.25604400e-01
C     6.017971725600000e+00   4.906777142479213e-01   9.962193663999999e+00  2.19035730e-01   3.46409736e+00  -2.64195540e-01
C     7.201051150125000e+00   1.205166500908570e+00   1.017561329600000e+01  3.93793948e+00   1.58130750e-01  -7.22426010e-01
C     8.706402530100000e+00   2.305660018161100e+00   6.986822791999999e+00 -2.06658675e+00  -3.43104855e+00  -1.06528991e+00
C     2.462776298850000e+00   3.051555477494925e+00   7.129682496000000e+00  3.60277959e+00  -9.36943960e-01   1.31957887e+00
C     2.366410796700000e+00   2.593812299717840e+00   1.036738744000000e+01 -1.44615422e+00   5.44308841e+00  -8.18176550e-01
C     3.582313039650000e+00   3.351484164574947e+00   1.035823804000000e+01 -1.04116521e+00  -4.52265750e-01  -1.59649690e-01
C     3.768842523000000e+00   2.385427483425386e+00   7.475023080000000e+00 -3.61007444e+00  -4.55622753e+00  -2.83049248e+00
C     4.965725861250000e+00   2.943941274374100e+00   7.191220456000000e+00  2.36154259e+00   3.47367482e+00  -2.04302438e+00
C     4.779920570249999e+00   2.577542154539352e+00   1.031516439200000e+01  2.69716978e+00   2.86092742e+00  -2.14871804e+00
C     6.108845589825000e+00   3.382606744369453e+00   1.018741306400000e+01 -3.53265437e+00   3.46749650e-01  -1.05266138e+00
C     6.206761934399999e+00   2.243385783241403e+00   6.834347751999999e+00 -2.83050402e+00  -2.31555660e+00   9.32249810e-01
C     7.423717040474999e+00   2.928932575866297e+00   6.888756320000001e+00  1.52074382e+00   3.23842460e-01   2.16512200e-01
C     7.275816337950000e+00   2.621400305556833e+00   1.017851050400000e+01 -2.06109518e+00   4.75461570e-01  -1.83681750e-01
C     8.419521898425000e+00   3.357091924884898e+00   1.021844255200000e+01  5.97619732e+00   9.06445700e-02  -1.48619664e+00
C     9.943064608649999e+00   4.434407536345987e+00   6.890322360000000e+00 -3.19731190e+00  -2.90657910e-01  -4.88754840e-01
C     3.720844351125000e+00   5.102037136755960e+00   6.666580192000000e+00  3.01048870e+00   1.10378468e+00   6.90632260e-01
C     3.541787589225000e+00   4.806309514746940e+00   1.026210263200000e+01 -2.14550540e-01  -1.42036350e+00  -6.08993430e-01
C     4.737591331425000e+00   5.437859511693610e+00   1.013933924000000e+01  4.99164473e+00   4.76112124e+00  -1.33038593e+00
C     4.955781324075000e+00   4.444346752416972e+00   6.927902424000000e+00  4.01375470e-01  -2.69124304e+00   5.96025250e-01
C     6.222699342599999e+00   5.075226415693435e+00   7.069991143999999e+00  2.53333950e-01  -2.60322179e+00  -1.33714348e+00
C     6.082429540574999e+00   4.848761418823522e+00   9.926427567999999e+00 -8.33250840e-01  -3.68264644e+00   1.41346998e+00
C     7.352128559775000e+00   5.474869333611078e+00   9.628965376000000e+00 -2.90986519e+00   1.87892547e+00   2.94974102e+00
C     7.475399179499999e+00   4.314786758674392e+00   7.020632936000000e+00 -6.64867840e-01   2.92416681e+00  -4.34516340e-01
C     8.690263497224999e+00   5.126262522962982e+00   6.863689752000000e+00 -2.01630000e+00  -2.22240738e+00   3.43283520e-01
C     8.563168664175000e+00   4.724894490105590e+00   9.747372824000001e+00 -1.06501447e+00   1.38964663e+00   2.45480839e+00
C     9.765024363449999e+00   5.579413143386082e+00   9.952748871999999e+00 -1.04243420e+00  -7.27384245e+00   3.48726630e-01
