72
Lattice="7.395 0 0 3.6975 6.40425786098592 0 0 0 13.6 " PBC="1 1 1" Properties=species:S:1:pos:R:3:force:R:3 Energy="-575.24625298"
C     3.681993091725000e+00   6.254979668647110e+00   1.349433684000000e+01  9.32706170e-01  -8.28954500e-02   8.36157760e-01
C     1.142100845475000e+00   6.628558666011283e-01   1.356084641600000e+01  3.06649885e+00  -6.23328739e+00  -4.57939790e-01
C     1.386145902675000e+00   9.171604926013531e-01   3.665032176000000e+00 -1.82785548e+00   1.15499130e-01  -1.71332450e-01
C     2.585230547550000e+00   1.665913723920046e+00   3.768752032000000e+00 -9.53407330e-01   3.33139320e-01   2.07134740e-01
C     6.065975887425000e+00   6.229528123230212e+00   1.343242868800000e+01  2.84616794e+00   1.98832412e+00   2.65689910e-01
C     3.644595911175000e+00   6.028737155695254e-01   1.343279602400000e+01  1.15762296e+00  -8.22479550e-01   8.14950600e-01
C     3.749975733450000e+00   8.818479911445204e-01   3.703423616000000e+00  2.97353523e+00   4.00924868e+00  -1.10288574e+00
C     4.996971695925000e+00   1.664453232915073e+00   3.493148168000000e+00  1.47973951e+00  -1.18601413e+00   1.71506261e+00
C     8.685862362974998e+00   6.263219258724629e+00   1.333454527200000e+01 -3.86655384e+00  -1.60541300e-01   1.46378633e+00
C     6.230187593549999e+00   5.856125114872033e-01   1.342188596800000e+01 -3.97052469e+00  -1.04641150e-01  -4.07965660e-01
C     6.293739779850000e+00   9.751028234619673e-01   3.466567648000000e+00 -2.16453151e+00  -1.51991014e+00   5.56917000e-03
C     7.510620935924999e+00   1.621922556466813e+00   3.634656848000000e+00  1.34766294e+00   2.05212252e+00  -5.42383100e-02
C     1.220610602475000e+00   1.997418924591690e+00   7.514000000000001e-03 -9.08979720e-01   2.33799374e+00  -1.40378030e-01
C     2.433770187825000e+00   2.744425010323597e+00   7.065077600000000e-02  6.71644710e-01  -2.78390474e+00   3.43357900e-01
C     2.594851479525000e+00   3.140890968044630e+00   3.802022664000000e+00 -5.75888040e-01  -2.56524980e+00  -1.49580976e+00
C     3.853874448150000e+00   3.760883392959093e+00   3.472744360000000e+00 -2.98072732e+00   1.11448138e+00   2.15164672e+00
C     3.671793205200000e+00   2.075993981085024e+00   1.014181920000000e-01  1.82718940e-01  -3.79040299e+00  -2.76354308e+00
C     4.892888402025000e+00   2.734478045100602e+00   1.337246819200000e+01  8.19271640e-01  -3.71156730e+00   1.28985432e+00
C     5.077885234650000e+00   3.103647582843007e+00   3.615568431999999e+00 -3.59235679e+00  -4.21635358e+00  -1.72088968e+00
C     6.237995197575000e+00   3.729348763213874e+00   3.553347072000000e+00  4.57923445e+00   4.35478913e+00   6.25699920e-01
C     6.171284237024999e+00   2.024152858602475e+00   1.334706747200000e+01 -1.57422718e+00  -2.03332125e+00   4.45827810e-01
C     7.371862339124999e+00   2.673314948919615e+00   1.344868748800000e+01  1.21867042e+00   9.84994130e-01  -9.03697350e-01
C     7.488520978424999e+00   3.096382912939516e+00   3.701140856000000e+00 -8.96648970e-01  -3.01346503e+00  -6.27152300e-02
C     8.673909676575001e+00   3.815029920186085e+00   3.795215592000000e+00  3.79385587e+00  -1.51348923e+00  -1.34853083e+00
C     2.474275412925000e+00   4.085944501286848e+00   1.303818400000000e-02 -2.13912188e+00   4.05163206e+00   1.07697680e-01
C     3.696386756700000e+00   4.808774961895304e+00   2.154158400000000e-02  1.81339700e-01   5.43105420e-01  -1.48909461e+00
C     3.812421738675000e+00   5.157975895545073e+00   3.437122288000000e+00  8.97972300e-01   2.52343186e+00  -2.68761320e-01
C     5.077214619075000e+00   5.878955205419096e+00   3.507678272000000e+00 -1.10300540e+00   1.63669814e+00   4.30497880e-01
C     4.913275492650000e+00   4.063512243238048e+00   1.339094583200000e+01  3.71376800e-01   4.76054580e+00   6.38938110e-01
C     6.165002110574999e+00   4.795295856334784e+00   1.331058452000000e+01 -1.29974176e+00   5.51980450e-01  -4.68270740e-01
C     6.300988765574999e+00   5.227035313582283e+00   3.573415368000000e+00 -1.53434095e+00  -3.10250196e+00   1.02782460e-01
C     7.485512655450000e+00   5.922442742034218e+00   3.668352072000000e+00  2.03422586e+00  -2.15751597e+00  -1.35442728e+00
C     7.407031036425000e+00   4.052583953583166e+00   1.321541879200000e+01 -1.48791372e+00   2.81090968e+00   2.38802376e+00
C     8.558172232424999e+00   4.798719444501582e+00   1.349852224000000e+01  3.82039532e+00   1.70356163e+00  -1.72045386e+00
C     8.749171512600000e+00   5.144209110721482e+00   3.494337215999999e+00 -5.87692920e-01   5.04054570e+00   1.32853962e+00
C     9.995742928125001e+00   5.932999200477750e+00   3.409173608000000e+00 -9.18985240e-01  -1.96558152e+00   3.89437050e-01
C     7.413207784125000e+00   9.261959398031340e-02   6.847725391999999e+00  7.28396860e-01   2.60677832e+00   3.07231570e-01
C     1.259209396575000e+00   8.170030230772409e-01   6.978606624000000e+00 -1.11696432e+00   2.14488679e+00  -3.71724120e-01
C     1.096769606400000e+00   5.011107626424900e-01   9.991963111999999e+00  1.16332591e+00   1.03755694e+00  -7.43798120e-01
C     2.351624272350000e+00   1.243843415189575e+00   1.012116324800000e+01  2.97909000e-03  -1.96816930e+00  -5.29460580e-01
C     2.460984971025000e+00   1.296254452579086e-01   6.987140488000000e+00  2.50898797e+00  -1.13470020e+00  -4.39563800e-01
C     3.785923198200000e+00   8.440136850701556e-01   6.985750432000000e+00 -3.24934262e+00  -7.00440100e-01   1.58791240e-01
C     3.634150103925000e+00   5.112335247437418e-01   1.000131324800000e+01 -6.22260704e+00  -2.04347055e+00   9.05826100e-01
C     4.763251907474999e+00   1.152412835723549e+00   1.004273558400000e+01  6.31937100e+00   3.71668667e+00  -1.28844166e+00
C     4.989616702875000e+00   1.286339380560234e-01   6.908842839999999e+00  1.66495000e-02  -3.10326900e-01  -5.19536300e-01
C     6.200468715450000e+00   8.607818253398365e-01   6.842646608000000e+00  2.31324710e-01  -2.38116719e+00   5.20412780e-01
C     6.063400911450000e+00   4.990990571635068e-01   9.841996456000000e+00 -1.75674861e+00   1.37741655e+00   7.32492250e-01
C     7.267876844099999e+00   1.190098498972984e+00   9.830475760000001e+00  4.93187650e-01   1.62891606e+00   1.55895784e+00
C     8.617226225100000e+00   2.332803952760081e+00   7.029531688000000e+00  2.84734820e+00  -3.10623204e+00   5.75254780e-01
C     2.484846232650000e+00   3.036065370923785e+00   7.163948784000000e+00 -1.90741840e-01  -4.73129428e+00  -1.95080703e+00
C     2.344036743525000e+00   2.653044576196615e+00   1.017734920000000e+01 -5.02640060e-01  -1.64584296e+00  -6.11081110e-01
C     3.572030957700000e+00   3.292578825459924e+00   1.015420648800000e+01  1.14493361e+00   3.17986670e+00  -1.20356659e+00
C     3.711464865900000e+00   2.247854930546425e+00   7.047605544000000e+00  1.41132707e+00   2.11397362e+00   2.75676080e-01
C     4.969405354425000e+00   3.024289285613396e+00   7.010488695999999e+00 -1.17475742e+00  -4.48780945e+00  -3.42100020e-01
C     4.805252142750000e+00   2.583654890581565e+00   9.996466480000000e+00 -6.53550690e-01   1.57044320e+00   5.74647970e-01
C     6.035348533575000e+00   3.367685207811125e+00   9.830321400000001e+00 -1.48249590e-01  -3.09333192e+00   1.51717989e+00
C     6.219875894625000e+00   2.213188490622510e+00   6.977554391999999e+00 -8.77481220e-01   5.00457420e+00  -4.35291830e-01
C     7.444172534849999e+00   3.006088064562383e+00   7.012084384000000e+00 -2.21263299e+00   5.99765780e-01  -6.27916220e-01
C     7.263302408025000e+00   2.612512412456147e+00   9.932063407999999e+00  9.21184290e-01   1.23481294e+00  -8.73989150e-01
C     8.519317645274999e+00   3.329629826755433e+00   9.964689536000000e+00 -1.40294644e+00   1.52740701e+00   1.15350708e+00
C     9.857197196400000e+00   4.358043421793662e+00   6.915303656000001e+00  2.16925487e+00   3.29441920e+00   7.11899960e-01
C     3.706211125125000e+00   5.130197939417952e+00   6.902439552000001e+00 -1.21517925e+00  -2.23530618e+00  -4.61813130e-01
C     3.516964496925000e+00   4.797223794120958e+00   9.968244439999999e+00  3.39285481e+00  -1.95269542e+00   9.52241200e-02
C     4.753884808875000e+00   5.515854534552563e+00   9.870179328000001e+00  2.08242205e+00  -2.72041376e+00   1.27861981e+00
C     4.891052926050000e+00   4.393241479162536e+00   6.938608616000000e+00  3.14205444e+00   9.67494460e-01   3.91783600e-02
C     6.180293602499999e+00   5.059638708232509e+00   6.926103688000000e+00 -1.59420196e+00   3.83155605e+00   2.12235360e-01
C     6.043097532225000e+00   4.730080658120619e+00   9.900755799999999e+00 -4.17329700e-01   3.85798297e+00  -1.75167580e-01
C     7.326204906599999e+00   5.487764242769609e+00   9.927691280000001e+00 -3.04934201e+00  -6.94937080e-01   2.03820420e-01
C     7.430381377499999e+00   4.480869658609344e+00   6.964889936000000e+00 -2.17281880e-01  -4.16643644e+00  -7.34676100e-02
C     8.682783121949999e+00   5.086291180083314e+00   6.913407544000000e+00 -1.42156262e+00   2.56672142e+00  -1.68994030e-01
C     8.508377186474998e+00   4.799719021068372e+00   9.960064992000000e+00  1.54677411e+00  -1.42187329e+00  -2.71842610e-01
C     9.770446081650000e+00   5.550343320363442e+00   9.899246880000000e+00 -2.65874285e+00  -3.39620280e+00   6.18917630e-01
