72
Lattice="7.395 0 0 3.6975 6.40425786098592 0 0 0 13.6 " PBC="1 1 1" Properties=species:S:1:pos:R:3:force:R:3 Energy="-577.2125311"
C     3.646734397274999e+00   6.207013826638224e+00   3.438909600000000e-01  2.35622170e-01  -1.22518448e+00  -1.53875201e+00
C     1.134111916050000e+00   5.366637439819657e-01   2.927961680000000e-01  2.84855391e+00  -2.89515542e+00   1.50535590e-01
C     1.415445854025000e+00   1.018337776147092e+00   3.440179160000000e+00 -3.20600660e-01   1.28066588e+00  -9.99690400e-02
C     2.691687858300000e+00   1.693204572194335e+00   3.557411704000000e+00 -9.26696970e-01   1.32333849e+00  -1.04167096e+00
C     6.078039498824999e+00   6.171686019005107e+00   1.940715920000000e-01  2.17377967e+00  -5.97546300e-02  -2.09905240e-01
C     3.689087817750000e+00   4.882484511564660e-01   2.588160240000000e-01 -1.35171070e+00  -6.36950470e-01  -7.74038080e-01
C     3.924041129174999e+00   1.039836741697954e+00   3.417276623999999e+00 -7.27500370e-01  -3.92197480e-01   2.85693990e-01
C     5.106103334475000e+00   1.816767875047125e+00   3.342877552000000e+00  1.99262845e+00  -1.60978249e+00  -8.06968500e-01
C     8.609420247974999e+00   6.175812538514619e+00   1.871607520000000e-01  1.07117291e+00   8.82966100e-02  -6.03429210e-01
C     6.197123698125000e+00   5.614259991253914e-01   1.358104160000000e-01 -3.87150819e+00  -1.31300102e+00   8.78202770e-01
C     6.347193871800000e+00   1.123901528028880e+00   3.204399768000000e+00  1.03624430e+00  -2.72138222e+00   9.82107650e-01
C     7.616683649474999e+00   1.850522284609198e+00   3.398193240000000e+00 -2.36618924e+00  -4.76849350e+00  -7.23567520e-01
C     1.181033930550000e+00   1.921150297524058e+00   3.611810480000000e-01  1.14813531e+00  -2.63076100e-01  -1.10136666e+00
C     2.461278552525000e+00   2.571755203094477e+00   4.544270000000000e-01 -1.20095452e+00   1.88420688e+00  -7.38377430e-01
C     2.702429391600000e+00   3.155345698247543e+00   3.477760991999999e+00 -2.97928767e+00  -1.01197452e+00   4.18979800e-01
C     3.875278647075000e+00   3.879734699048809e+00   3.304001272000000e+00  1.63938970e+00  -1.49003562e+00  -1.39740050e-01
C     3.693480595650000e+00   1.938582431248663e+00   3.021983920000000e-01  2.82399500e-02  -1.99266560e+00   4.37987440e-01
C     4.895451952725000e+00   2.672364300882877e+00   1.741354880000000e-01  2.65087990e-01  -1.51263052e+00  -6.80125150e-01
C     5.162186311949999e+00   3.203122230394086e+00   3.256115128000000e+00 -1.16266119e+00   1.99545891e+00   1.11282183e+00
C     6.398968078575000e+00   3.984012283824573e+00   3.351056184000000e+00 -3.47599067e+00  -2.44260061e+00  -1.64496280e-01
C     6.147468121875001e+00   2.015161664822506e+00   4.620042400000000e-02 -6.91615330e-01  -3.95483285e+00   2.85347320e-01
C     7.392020295675000e+00   2.596866170078380e+00   4.581010400000000e-02  3.82377060e-01   2.31239495e+00   1.38856093e+00
C     7.525516758374999e+00   3.205387480441747e+00   3.507208528000000e+00  3.81271410e+00   1.82600404e+00  -2.13508610e-01
C     8.803012437000000e+00   3.860221373647439e+00   3.527745344000000e+00  1.33195653e+00   9.47546400e-01  -7.61319430e-01
C     2.448024494025000e+00   4.013165746454865e+00   4.556414800000000e-01  7.27263800e-02  -6.23641120e-01  -1.67201098e+00
C     3.678907195200000e+00   4.707638025174084e+00   3.695314480000000e-01 -8.90216370e-01   3.10203316e+00  -5.66273530e-01
C     3.834119001450000e+00   5.246529298124915e+00   3.154470632000000e+00  5.41698920e-01   2.36623670e+00   8.87464410e-01
C     5.035689993225000e+00   6.007922741267048e+00   3.276096928000000e+00  1.88036529e+00   7.80598610e-01   4.49097090e-01
C     4.883025838425000e+00   4.047496283054024e+00   1.258061200000000e-01  1.02611834e+00   6.39136770e-01   3.45994490e-01
C     6.154327723874999e+00   4.698791887834645e+00   1.357639189600000e+01 -8.88385460e-01   3.20796789e+00   1.57315068e+00
C     6.327386068499999e+00   5.375409864151127e+00   3.382787704000000e+00  2.07648650e-01  -3.65795200e-01  -3.42303680e-01
C     7.598388493424999e+00   6.015444926379089e+00   3.406996520000000e+00 -7.98794120e-01   1.67749357e+00  -6.51912800e-02
C     7.406075121749999e+00   4.007262365602096e+00   6.376088000000001e-02 -7.35943950e-01   8.95607030e-01  -8.12229620e-01
C     8.627438904974998e+00   4.693565372995098e+00   1.436033520000000e-01  2.25169070e-01   2.68865347e+00   1.55214204e+00
C     8.805704069099999e+00   5.303433306658687e+00   3.356103144000000e+00  1.16180200e-02  -1.96338358e+00   1.81336260e-01
C     1.002013818270000e+01   5.953851143857017e+00   3.161430432000000e+00  3.22364940e-01   4.16187224e+00   7.82656890e-01
C     7.348625030625000e+00   1.905861668905194e-01   6.451191688000000e+00 -5.20182720e-01   1.58607438e+00   1.29472130e-01
C     1.196517285750000e+00   9.048002108889744e-01   6.528707608000000e+00  5.03142370e-01  -6.51960210e-01   1.83398590e-01
C     1.095792135300000e+00   4.336321716154429e-01   1.022563532000000e+01 -5.02746380e-01  -1.52793049e+00   7.42713670e-01
C     2.368843012200000e+00   1.149659453141800e+00   1.040728916000000e+01 -2.28919098e+00  -2.32969494e+00  -4.79785890e-01
C     2.427374843925000e+00   1.186824898525266e-01   6.548972968000000e+00  2.38829790e-01   4.39375086e+00   2.96561950e-01
C     3.638173094850000e+00   9.308641314424452e-01   6.613571879999999e+00 -5.30309470e-01   3.17630580e-01  -4.81126020e-01
C     3.574460511000000e+00   4.566643164979896e-01   1.035044768800000e+01  8.03590890e-01  -2.91237679e+00  -9.97203460e-01
C     4.791121407000000e+00   1.094030404262796e+00   1.025114565600000e+01  5.34593700e-01   1.11715659e+00   5.54244140e-01
C     4.836993368474999e+00   1.854078120700806e-01   6.425638920000000e+00 -6.80994190e-01   1.82429300e-01   1.00098205e+00
C     6.038590797374999e+00   8.548940708762456e-01   6.441423080000000e+00  3.39822919e+00   1.85382790e+00   3.54446390e-01
C     6.028658905650000e+00   3.573151924009668e-01   1.015611361600000e+01 -1.46434135e+00   2.04306892e+00   4.66811330e-01
C     7.207852590450000e+00   1.070693800961585e+00   1.020634698400000e+01  3.30429766e+00   1.21996105e+00  -1.10732530e-01
C     8.622055751700000e+00   2.361848158751281e+00   6.599126232000000e+00  8.91418060e-01  -2.71510107e+00  -1.74189410e-01
C     2.405020091700000e+00   3.142917595444427e+00   6.600095368000000e+00  2.08462028e+00  -2.21768285e+00   9.41598740e-01
C     2.349387284850000e+00   2.498559082777758e+00   1.048596570400000e+01 -1.26239417e+00   4.29103323e+00  -1.09105568e+00
C     3.592600002300000e+00   3.268538650390213e+00   1.041123465600000e+01 -2.11364738e+00  -1.05379883e+00   9.66800200e-02
C     3.664180644300000e+00   2.442476740527424e+00   6.696125104000000e+00 -1.45859602e+00  -4.10473565e+00  -9.32587840e-01
C     4.912112480999999e+00   3.028213878872583e+00   6.617149632000000e+00  3.12157130e-01   2.42210609e+00  -1.72940640e-01
C     4.766103937124999e+00   2.511116999887697e+00   1.034606916800000e+01  2.71939675e+00   1.57058441e+00  -6.79100860e-01
C     6.052810384050000e+00   3.242428491094993e+00   1.024220692000000e+01 -1.59908025e+00   9.83923080e-01  -3.80317330e-01
C     6.108629360025000e+00   2.276871918441721e+00   6.550373360000000e+00  7.73153520e-01  -4.88679900e-02   2.43711370e-01
C     7.403940259200000e+00   2.958651598508206e+00   6.607356272000000e+00 -2.77411504e+00   1.96080580e+00  -2.89007530e-01
C     7.254929973899999e+00   2.500549398035489e+00   1.021240809600000e+01 -1.87532074e+00   2.00960190e-01   4.34258160e-01
C     8.412497240024999e+00   3.224477548441149e+00   1.031890208000000e+01  4.89878575e+00   2.73510950e-01  -2.30018680e-01
C     9.856775089799999e+00   4.521914034893455e+00   6.574551168000000e+00 -1.55881171e+00  -3.02175200e-02  -8.08742660e-01
C     3.664660431900000e+00   5.207584237567311e+00   6.481756192000000e+00  2.36519729e+00  -8.27035420e-01   5.21652230e-01
C     3.556519871249999e+00   4.699173389475365e+00   1.029808007200000e+01  1.46433660e-01  -1.55360159e+00   1.53142720e-01
C     4.749577997849999e+00   5.372469669367601e+00   1.023765581600000e+01  3.87546304e+00   2.32027231e+00  -3.10589300e-01
C     4.924746505725000e+00   4.494864435012752e+00   6.537341703999999e+00 -6.02779500e-01  -1.48863440e+00   8.32923100e-02
C     6.168667996950000e+00   5.150275095681316e+00   6.514302896000000e+00  4.44465700e-01  -1.81057820e+00   3.31165870e-01
C     6.067035997650000e+00   4.709883870320429e+00   1.018100909600000e+01 -8.73511420e-01  -1.74693090e+00   7.15432370e-01
C     7.332232460175000e+00   5.413874157071180e+00   1.018912068000000e+01 -2.57255780e+00  -2.64000000e-06   1.57860370e-01
C     7.431635643449999e+00   4.384183040675038e+00   6.571463424000000e+00 -1.80666120e+00   1.68128566e+00  -3.80413510e-01
C     8.610573165449999e+00   5.172112334132344e+00   6.465871256000000e+00 -1.09936993e+00  -5.04813170e-01   7.36886600e-01
C     8.521735477499998e+00   4.655904558266162e+00   1.016789896800000e+01 -9.32780760e-01   5.83233100e-02   1.07773953e+00
C     9.743045646974998e+00   5.405269908551113e+00   1.023410757600000e+01 -7.50388640e-01  -2.92449506e+00  -3.35884380e-01
