72
Lattice="7.395 0 0 3.6975 6.40425786098592 0 0 0 13.6 " PBC="1 1 1" Properties=species:S:1:pos:R:3:force:R:3 Energy="-578.2978181"
C     3.710355837750000e+00   6.285315805576408e+00   1.322233888000000e+01 -9.19161000e-02   2.66002385e+00   1.14096165e+00
C     1.298107614225000e+00   6.349139614727910e-01   1.329814460000000e+01 -2.80153854e+00  -1.02097240e-01  -9.94824300e-02
C     1.311727836150000e+00   8.730380378619901e-01   3.724833551999999e+00 -3.93504220e-01  -8.07087590e-01  -5.94283880e-01
C     2.524659396675000e+00   1.613793247709643e+00   3.689973216000000e+00 -4.76320030e-01  -6.18852050e-01  -6.45068100e-02
C     6.208292033850000e+00   6.322653781666623e+00   1.330413268000000e+01 -1.96158098e+00   9.97446390e-01  -1.57784130e-01
C     3.707458365825000e+00   6.543380755621711e-01   1.326566589600000e+01 -6.14084930e-01  -1.32443367e+00   1.05270310e+00
C     3.729596185725000e+00   8.477744574132834e-01   3.616530904000000e+00  9.59797770e-01   1.08802110e+00  -1.29731600e-01
C     4.996611300599999e+00   1.511746714244567e+00   3.527019376000000e+00 -1.15676003e+00   9.76858110e-01   1.68540656e+00
C     8.586777460499999e+00   6.329084040813535e+00   1.333241700800000e+01  2.10752420e-01  -1.69397630e+00   7.00672300e-02
C     6.105614973150000e+00   5.467895160844117e-01   1.327841521600000e+01  3.55878460e+00   2.62982976e+00  -4.93869870e-01
C     6.228647621774999e+00   7.888164752986518e-01   3.631166000000000e+00 -1.10760799e+00   3.65545716e+00  -1.92033620e-01
C     7.424112746924999e+00   1.499292674197118e+00   3.700924344000000e+00  3.17786037e+00   3.24327670e+00  -3.56721010e-01
C     1.233220667400000e+00   2.061231398206781e+00   1.332068578400000e+01 -1.33428820e+00   4.41556940e-01  -6.53903570e-01
C     2.424621722400000e+00   2.806012260502651e+00   1.337533248800000e+01  1.97541400e+00  -1.68156209e+00   2.41741840e-01
C     2.489718058650000e+00   3.026766388511065e+00   3.672839800000000e+00  3.03601429e+00  -7.63606210e-01  -5.81491840e-01
C     3.764629147800000e+00   3.694756356510820e+00   3.555955960000000e+00 -6.68922440e-01   1.56959829e+00   1.41680334e+00
C     3.694143594375000e+00   2.015596129675729e+00   1.337552003200000e+01 -3.92459410e-01   3.61267076e+00  -1.26514550e+00
C     4.938837197550000e+00   2.735476148688083e+00   1.317500149600000e+01 -1.10598272e+00   9.29850800e-02   1.13096476e+00
C     4.963193480475000e+00   2.962411089999762e+00   3.696687672000000e+00  3.23336990e-01  -1.83863924e+00  -1.95256880e+00
C     6.185571192150000e+00   3.625277971924409e+00   3.666473504000000e+00  3.38588693e+00   2.45685834e+00  -1.78762190e-01
C     6.156923110049999e+00   1.993147860982278e+00   1.314872412000000e+01 -9.03330640e-01   5.68518640e-01   3.56154240e-01
C     7.342562424750000e+00   2.768324099592652e+00   1.311438996800000e+01  2.16198328e+00  -1.17409279e+00   9.17654590e-01
C     7.527368614275000e+00   3.004760141695112e+00   3.659212736000000e+00 -5.54089737e+00  -3.48974578e+00   4.40112600e-01
C     8.688280010325000e+00   3.717760770956833e+00   3.684348936000000e+00  2.30117370e-01   5.69868590e-01  -4.21088880e-01
C     2.457410967525000e+00   4.208689660198023e+00   1.337971264000000e+01 -1.82813468e+00   5.45492440e-01   1.35115700e-01
C     3.682965016575000e+00   4.922083382807191e+00   1.329428097600000e+01  1.33165500e-01  -2.38712704e+00  -1.15691800e-02
C     3.826166233575000e+00   5.168734152153773e+00   3.613307432000000e+00 -1.50059622e+00  -1.92390090e+00  -6.73406500e-02
C     5.058544647450000e+00   5.848673504681608e+00   3.610607423999999e+00 -9.49771020e-01  -2.49115890e-01   4.24918110e-01
C     4.890515827200000e+00   4.178621477417587e+00   1.319681684800000e+01  1.21980334e+00   2.93287980e-01   4.63885190e-01
C     6.104505871050000e+00   4.944795506924473e+00   1.321461693600000e+01  1.80284568e+00  -2.97152969e+00  -7.71795240e-01
C     6.246503145075000e+00   5.073273181088712e+00   3.619648976000000e+00 -8.44967640e-01   3.46427360e-01   4.13250590e-01
C     7.427250852149999e+00   5.852033178354964e+00   3.674314720000000e+00  1.67704940e+00  -2.42617387e+00  -7.95002750e-01
C     7.378237716525000e+00   4.194642945263371e+00   1.309881429600000e+01 -1.90308199e+00   4.36898300e-02   2.03651497e+00
C     8.559058116450000e+00   4.903926223050255e+00   1.339840964800000e+01  1.86972845e+00  -5.63274100e-01  -1.58055908e+00
C     8.687060611800000e+00   5.110048415040770e+00   3.642370088000000e+00  2.95932430e-01   2.70228965e+00   6.22749330e-01
C     9.950599743900000e+00   5.857757175945075e+00   3.691554624000000e+00 -4.94431470e-01  -4.46777808e+00  -9.55978810e-01
C     7.434000860250000e+00   7.675567087788601e-02   6.652185136000000e+00  1.00936650e+00   8.57813400e-02   1.16496891e+00
C     1.274819539050000e+00   8.000298825134616e-01   6.853073320000000e+00 -1.69443204e+00   1.33228240e-01  -4.68039320e-01
C     1.146725900325000e+00   5.493523079522479e-01   1.027573364000000e+01  3.45829450e-01   2.01508961e+00  -1.11649536e+00
C     2.339833314600000e+00   1.254170024818511e+00   1.015217437600000e+01  2.86609369e+00   1.48395595e+00   2.59968760e-01
C     2.480505367650000e+00   1.438784413382316e-01   6.980508584000000e+00  1.18029193e+00  -3.59937111e+00  -2.52376680e-01
C     3.764247861599999e+00   7.497116285074417e-01   7.026297879999999e+00  1.27459710e-01  -1.20894480e-01  -5.31247400e-02
C     3.633605425200000e+00   5.442091125074605e-01   9.981254336000001e+00 -2.43407298e+00   2.03456948e+00   1.90221433e+00
C     4.837947138600000e+00   1.297243910418456e+00   1.018639945600000e+01  1.32767336e+00  -4.40078990e-01  -1.05217073e+00
C     5.036670644175000e+00   6.110564998798260e-02   6.961184888000000e+00 -6.00525750e-01   7.17040750e-01  -1.27220017e+00
C     6.270347952825000e+00   8.569253733842803e-01   6.743020352000000e+00 -2.96622553e+00  -2.70356296e+00   1.11367065e+00
C     6.108162291824999e+00   6.303427302974802e-01   1.013626795200000e+01 -8.76292710e-01  -1.64901250e+00   3.84055870e-01
C     7.346236741424999e+00   1.327002383288782e+00   1.025045219200000e+01 -1.25718466e+00  -6.65406750e-01   7.20100900e-02
C     8.621649100650000e+00   2.199304507880079e+00   6.883746760000000e+00  1.20409641e+00   1.74751670e+00   6.61452620e-01
C     2.518555748550000e+00   2.875647037066003e+00   7.058470312000000e+00 -2.18383668e+00  -4.55902700e-02  -1.98484761e+00
C     2.386470880425000e+00   2.739961242595177e+00   1.026718005600000e+01  9.91466540e-01  -3.06233546e+00  -5.24859730e-01
C     3.601611771150000e+00   3.421066554309004e+00   1.032480910400000e+01  1.75688429e+00   4.60212100e-01  -7.57245360e-01
C     3.713533321350000e+00   2.133952258547710e+00   7.046529240000000e+00  2.15153096e+00   3.28234463e+00   3.69764500e-02
C     4.960799312250000e+00   2.958514035049373e+00   7.005877072000000e+00 -1.31168891e+00  -3.48752004e+00  -3.53983710e-01
C     4.874310535125000e+00   2.721103392985778e+00   1.028511451200000e+01 -3.16322284e+00  -1.32098079e+00  -1.80722770e-01
C     6.049430388375000e+00   3.406018149402469e+00   1.022444613600000e+01  2.86524314e+00   4.57719620e-01   2.87299790e-01
C     6.188186322975000e+00   2.246663674541887e+00   6.864901239999999e+00  9.07026330e-01   1.21472295e+00  -1.47720030e-01
C     7.416087212249999e+00   2.978160248801338e+00   6.815404175999999e+00 -3.12896720e-01  -2.41233000e-01   5.65158810e-01
C     7.335022926450000e+00   2.735865783736285e+00   1.027996392000000e+01  6.29659910e-01   2.33937460e-01  -1.17462675e+00
C     8.626806077849999e+00   3.449269881243186e+00   1.018782623200000e+01 -4.60319582e+00   7.48737050e-01   4.53118890e-01
C     9.857446851599999e+00   4.279426673581660e+00   6.788838751999999e+00  1.69145570e+00   1.18453452e+00   1.27647251e+00
C     3.702227364675000e+00   5.051108300805567e+00   6.742555640000000e+00 -7.07495580e-01  -6.69381540e-01   5.36292040e-01
C     3.602715511875000e+00   4.837858938327816e+00   1.026013226400000e+01  5.09726350e-01   5.28521210e-01  -4.94735500e-01
C     4.864967544224999e+00   5.581584507013516e+00   1.021468364800000e+01 -1.92648945e+00  -3.04581502e+00   3.36047500e-01
C     4.921390358924999e+00   4.327349671105461e+00   6.941199416000000e+00  5.00658250e-01   2.43554495e+00  -5.39529800e-01
C     6.154308903599999e+00   5.080552068444653e+00   6.949326232000000e+00 -5.16529440e-01   1.41493052e+00  -5.15755500e-02
C     6.042882485625000e+00   4.808760424229963e+00   1.018601852000000e+01  9.12729670e-01   2.18155302e+00  -6.94092550e-01
C     7.260943809750000e+00   5.558808340317633e+00   1.002564541600000e+01  1.80129414e+00  -1.72215121e+00   5.04470590e-01
C     7.380513934500000e+00   4.430526043742199e+00   6.897489015999999e+00  1.11135085e+00  -2.65221102e+00   2.88707000e-02
C     8.657959807799999e+00   5.038026771572995e+00   6.875735952000000e+00  3.13705410e-01   1.28469035e+00  -9.37715300e-02
C     8.541522722699998e+00   4.871930550781695e+00   1.009452193600000e+01 -8.96062300e-02  -5.81841230e-01  -3.81393100e-02
C     9.775204690199999e+00   5.544482783995756e+00   1.010984315200000e+01  3.87651610e-01   2.35438124e+00   4.00250800e-01
