72
Lattice="7.395 0 0 3.6975 6.40425786098592 0 0 0 13.6 " PBC="1 1 1" Properties=species:S:1:pos:R:3:force:R:3 Energy="-580.67655753"
C     3.708739771425000e+00   6.356780854993570e+00   1.342699168000000e+01 -1.58505181e+00  -1.23733403e+00   8.86114400e-02
C     1.167424394400000e+00   6.767150008230612e-01   1.345483414400000e+01  2.88536786e+00  -2.77374210e-01  -3.39137100e-01
C     1.272235023525000e+00   7.845865910672790e-01   3.610567032000000e+00  3.42457850e-01   6.30158100e-01  -4.83594590e-01
C     2.516503783950000e+00   1.499173362873186e+00   3.609890976000000e+00 -1.82448310e-01   4.02606730e-01  -3.52811190e-01
C     6.082467255074999e+00   6.361012276246829e+00   1.340908755200000e+01  3.24763613e+00  -1.06157211e+00   1.69495690e-01
C     3.685945127625000e+00   6.741437553348499e-01   1.348223202400000e+01 -1.33420470e-01  -1.22998696e+00  -8.26612710e-01
C     3.737865200775000e+00   7.910203085134351e-01   3.534707456000000e+00 -2.82795210e-01  -1.65700670e-01  -2.66050300e-02
C     4.938479649300000e+00   1.524135110648951e+00   3.495808872000000e+00  2.13429967e+00  -3.20025010e-01   9.31277000e-03
C     8.659906393650001e+00   6.317592752850179e+00   1.344069232000000e+01 -1.42028777e+00   1.50333020e+00   1.74540500e-02
C     6.215499126900000e+00   6.880388814859560e-01   1.338985878400000e+01 -3.23378458e+00  -1.58683198e+00  -2.08165000e-03
C     6.209386198049999e+00   8.426261385622080e-01   3.509091720000000e+00  2.66088750e-01  -2.19377173e+00  -8.06902900e-02
C     7.474366319850000e+00   1.556293451067155e+00   3.585885344000000e+00 -2.45736528e+00  -3.47660441e+00  -2.42560820e-01
C     8.602227205424999e+00   2.093290024330105e+00   1.344588072000000e+01  1.02180538e+00  -1.02948849e+00   2.92367990e-01
C     2.455462865700000e+00   2.774463221177248e+00   1.357018159200000e+01 -9.05657380e-01   1.05536694e+00  -8.84663890e-01
C     2.541314674500000e+00   2.946769650815390e+00   3.578755951999999e+00 -2.20095789e+00  -5.93143140e-01   9.00770000e-04
C     3.770011561575000e+00   3.658814828846978e+00   3.509435120000000e+00 -7.74098300e-01  -1.88288882e+00  -1.42543640e-01
C     3.685012285350000e+00   2.126628733514485e+00   1.345257736000000e+01  7.69977300e-02  -2.79989408e+00   7.82511370e-01
C     4.905797040075000e+00   2.797122830380078e+00   1.335159314400000e+01  7.41313840e-01  -1.36972210e-01  -3.51718800e-01
C     4.984980037874999e+00   2.935000225933176e+00   3.476149800000000e+00  2.44537400e-02   9.57548500e-01   4.94763700e-01
C     6.230189442299999e+00   3.675543711015977e+00   3.536797232000000e+00 -2.47510264e+00  -1.57242219e+00  -2.17987440e-01
C     6.139813002749999e+00   2.096532820297516e+00   1.325400525600000e+01  9.22652100e-01  -8.85552180e-01   8.87181370e-01
C     7.409300118225000e+00   2.763920980186166e+00   1.327168729600000e+01 -1.95288488e+00   1.29271943e+00   4.93081540e-01
C     7.382705812499999e+00   2.911708388394406e+00   3.605916512000000e+00  3.50690406e+00   2.92632198e+00  -2.69634860e-01
C     8.632230827999999e+00   3.640397400050612e+00   3.586630624000000e+00  1.76462596e+00   1.31745850e-01   1.03569050e-01
C     2.425796935800000e+00   4.197436930839953e+00   1.354850414400000e+01  2.14150280e+00  -2.68391170e-01  -4.26165780e-01
C     3.691648373475000e+00   4.912703706745435e+00   1.346572420800000e+01 -4.27044750e-01   3.73901780e-01  -1.66346800e-01
C     3.734027047875000e+00   5.033121302179971e+00   3.483319312000000e+00  9.44420600e-02   1.87718213e+00   2.77150300e-02
C     4.939030170075000e+00   5.763529857071587e+00   3.512549248000000e+00  1.52501492e+00   6.57736260e-01   2.36832850e-01
C     4.924846412175000e+00   4.199190224514286e+00   1.331501676000000e+01 -1.05003254e+00   2.93230380e-01   6.47665040e-01
C     6.153346185525000e+00   4.867998272413076e+00   1.326808234400000e+01 -4.49199820e-01   3.18218885e+00   7.27524740e-01
C     6.205999103174999e+00   5.074498827957960e+00   3.532792848000000e+00 -7.58483300e-02   5.00308390e-01  -1.56659370e-01
C     7.453435105124999e+00   5.767945592866057e+00   3.519876656000000e+00 -1.39404892e+00   1.39877500e+00   3.71976600e-01
C     7.375384466700000e+00   4.174720003529275e+00   1.329530791200000e+01  8.65684590e-01   7.38855690e-01   3.07472140e-01
C     8.614514848350000e+00   4.872524481655631e+00   1.344321376000000e+01 -7.43927680e-01   2.05687826e+00  -8.58343000e-03
C     8.660789171774999e+00   5.087351404972036e+00   3.556733200000000e+00  7.39696410e-01  -2.06994400e+00  -5.38795760e-01
C     9.912964481325000e+00   5.744544050390146e+00   3.479508184000000e+00 -5.73864590e-01   2.76127929e+00   4.36863530e-01
C     7.414010659275000e+00   5.101369236703740e-02   6.621802328000000e+00 -1.82092220e-01   2.52734390e-01   1.17090423e+00
C     1.251441984375000e+00   7.722922091682798e-01   6.804045592000000e+00  6.38056150e-01  -6.29951710e-01   2.90575830e-01
C     1.185641274375000e+00   6.528601009332402e-01   1.021789583200000e+01 -8.00452910e-01  -1.48892158e+00  -9.43968000e-03
C     2.450663177925000e+00   1.348390683263824e+00   1.019231654400000e+01 -2.54634001e+00  -2.36449020e-01   3.75557020e-01
C     2.507178060375000e+00   1.146970561436700e-02   6.957662488000000e+00 -1.17125800e+00   2.91271901e+00  -3.09287740e-01
C     3.728292595125000e+00   7.535730757841287e-01   7.053767704000000e+00 -1.75710560e-01   1.00410033e+00  -8.91871040e-01
C     3.626801581500000e+00   6.409477330155900e-01   1.008482948800000e+01  2.23371346e+00  -1.12725722e+00  -2.98546690e-01
C     4.882647695099999e+00   1.324089662771476e+00   1.010892420000000e+01 -1.15681261e+00   8.87292640e-01   9.62727360e-01
C     4.954042463775000e+00   5.113178688197580e-02   6.839042063999999e+00 -1.02265069e+00   2.24672330e-01   4.88392880e-01
C     6.148597523249999e+00   7.388915067678145e-01   6.716671848000000e+00  2.30234970e+00   1.95226899e+00   9.75841400e-02
C     6.093319121775000e+00   6.187196427073662e-01   1.014980444000000e+01  9.46469210e-01   8.97196850e-01  -1.25046840e-01
C     7.317659503424999e+00   1.340906411358314e+00   1.024930775200000e+01  1.30887214e+00  -5.65792280e-01  -3.51324700e-01
C     8.663116748024999e+00   2.209702140728683e+00   6.876140688000000e+00 -9.55736570e-01  -1.15378984e+00  -3.00468830e-01
C     2.472537957675000e+00   2.917074323927564e+00   6.954978936000001e+00  1.51443998e+00   1.55081050e-01   1.50790070e-01
C     2.418350503575000e+00   2.745221571916224e+00   1.030232884800000e+01 -3.81476490e-01   1.72928072e+00  -4.95955760e-01
C     3.651202419300000e+00   3.486764889736128e+00   1.032041780000000e+01 -7.26256110e-01  -1.33423423e+00  -2.86081970e-01
C     3.733510655024999e+00   2.231197263724829e+00   7.079453888000000e+00 -1.18560379e+00  -2.39104303e+00  -9.03553900e-01
C     4.957283618325000e+00   2.896666131575416e+00   6.970130151999999e+00  4.27417110e-01   1.32783173e+00  -5.95133180e-01
C     4.876367232525000e+00   2.740394682767142e+00   1.030045504000000e+01  7.38345520e-01   9.59455060e-01  -8.88338560e-01
C     6.138096401400000e+00   3.457428521501355e+00   1.024186719200000e+01 -1.90779943e+00   1.33410017e+00  -2.85967100e-01
C     6.186610300574999e+00   2.190280460257289e+00   6.811108888000000e+00 -5.17052850e-01  -8.25524490e-01   4.14096590e-01
C     7.413391734750000e+00   2.909716792285103e+00   6.821060144000000e+00  4.93184740e-01  -6.33690670e-01   1.31509920e-01
C     7.336486729724999e+00   2.750162200684899e+00   1.024018936000000e+01 -1.11253040e-01   2.49359760e-01  -1.20284630e-01
C     8.536892010674999e+00   3.471475172393428e+00   1.023380538400000e+01  2.74858871e+00   2.22682300e-02  -3.73901080e-01
C     2.506842845025000e+00   4.333853835388077e+00   6.815764303999999e+00 -1.53707324e+00  -4.44100980e-01   1.66859800e-02
C     3.706053204900000e+00   5.023007762210038e+00   6.718624400000000e+00  1.53969270e+00   1.12067467e+00   4.22578670e-01
C     3.615774564225000e+00   4.895730502139077e+00   1.026628626400000e+01  9.34280710e-01   2.52182650e-01  -1.93483520e-01
C     4.838038910550000e+00   5.587595991738961e+00   1.022998324000000e+01  2.22730743e+00   1.90100222e+00  -4.47690560e-01
C     4.945718540850000e+00   4.347784825383200e+00   6.862409855999999e+00 -1.07403150e-01  -1.45390112e+00   1.12321140e-01
C     6.172347231300000e+00   5.033482566365854e+00   6.916039007999999e+00  1.16620275e+00  -1.07229538e+00  -4.39520200e-01
C     6.124156345725000e+00   4.917863104962608e+00   1.013940724000000e+01 -6.87849380e-01  -1.52189453e+00   3.39665600e-01
C     7.362708808124999e+00   5.614074972244339e+00   9.995995239999999e+00 -7.51844400e-01   1.45646890e-01   9.62375320e-01
C     7.429166896650000e+00   4.310741445154544e+00   6.880495271999999e+00 -2.36408670e-01   1.26925043e+00   2.55312300e-02
C     8.671149270975000e+00   5.053704074601383e+00   6.822385055999999e+00 -1.00975317e+00  -1.57338296e+00   8.33336700e-02
C     8.605485331499999e+00   4.897852552980988e+00   1.006635756000000e+01 -1.50774367e+00  -1.94934840e-01   4.64081320e-01
C     9.816270678150000e+00   5.635087150155264e+00   1.012835805600000e+01 -5.28582930e-01  -1.80632118e+00   2.37297600e-01
