72
Lattice="7.395 0 0 3.6975 6.40425786098592 0 0 0 13.6 " PBC="1 1 1" Properties=species:S:1:pos:R:3:force:R:3 Energy="-578.6623865"
C     3.658635022875000e+00   6.155396276797568e+00   2.399707760000000e-01  4.65538660e-01   3.35437738e+00   9.74033700e-02
C     1.266243631500000e+00   4.490771922112476e-01   2.564966800000000e-01 -3.28471322e+00   2.34024564e+00  -3.56146500e-01
C     1.392752004075000e+00   1.039573142444437e+00   3.423781912000000e+00  5.72415990e-01   4.54682800e-02  -1.74342440e-01
C     2.637581046675000e+00   1.750039863041270e+00   3.415417232000000e+00  4.43122800e-01  -1.63985684e+00   1.47872900e-02
C     6.178726712925000e+00   6.180122988309871e+00   2.225408800000000e-01 -1.81842084e+00   6.97675520e-01  -2.34532820e-01
C     3.668629217475000e+00   4.800301872576210e-01   1.565277040000000e-01  1.43138591e+00   4.49124300e-02   1.10352626e+00
C     3.918380293649999e+00   1.056173299030450e+00   3.377293168000000e+00 -7.56991110e-01   5.23701500e-02  -6.68708500e-02
C     5.177837533650000e+00   1.756032391163451e+00   3.298194344000000e+00 -2.94018922e+00   5.45298580e-01   1.19544250e+00
C     8.602206092699999e+00   6.188847188579656e+00   2.436079600000000e-01 -1.17950740e+00  -1.45911866e+00  -3.32018470e-01
C     6.075133596600000e+00   4.721813209521408e-01   2.154271280000000e-01  4.10682206e+00   1.36271016e+00  -1.29640960e-01
C     6.352433377199999e+00   9.983352935303750e-01   3.335072920000000e+00 -5.18754810e-01   3.96696197e+00   1.97630290e-01
C     7.542069430574999e+00   1.696737865298276e+00   3.416369368000000e+00  2.74278365e+00   4.29642881e+00  -3.33983430e-01
C     1.213870023000000e+00   1.919984338338066e+00   2.257560560000000e-01 -1.38248930e-01  -6.74970180e-01  -6.27351600e-02
C     2.424716156550000e+00   2.633969430118026e+00   2.800344720000000e-01  1.85361923e+00  -2.00871629e+00  -5.18233000e-02
C     2.623949288550000e+00   3.111811858848093e+00   3.391757992000000e+00  2.53239918e+00   2.66906016e+00  -3.00429450e-01
C     3.873670752224999e+00   3.843003462348250e+00   3.270637888000000e+00 -9.72996020e-01   2.28014366e+00   1.44281638e+00
C     3.678341514675000e+00   1.860815976352734e+00   2.890784720000000e-01 -2.42041000e-02   2.77551205e+00  -1.61102265e+00
C     4.920087581775000e+00   2.618542405486808e+00   1.265063840000000e-01 -8.53242570e-01   5.03933370e-01   1.08014090e+00
C     5.111033322150000e+00   3.209592708280358e+00   3.414209008000000e+00 -3.43249340e-01  -2.74652343e+00  -1.42347724e+00
C     6.285593373899999e+00   3.917290355863685e+00   3.418596367999999e+00  4.32906854e+00   8.45348640e-01  -3.04321430e-01
C     6.148897834200000e+00   1.898338715282209e+00   1.243230400000000e-01 -5.98263960e-01   1.01929374e+00  -7.49101600e-02
C     7.383512570024999e+00   2.662556051885129e+00   1.191115200000000e-01 -4.29759500e-01  -2.14294280e+00  -2.44415180e-01
C     7.623855394424999e+00   3.264446777915724e+00   3.405645632000000e+00 -3.61895639e+00  -4.13891481e+00   6.59992450e-01
C     8.869301623725001e+00   3.897127894885626e+00   3.462118408000000e+00 -2.31251122e+00  -8.20174100e-01  -7.98659970e-01
C     2.488295297625000e+00   4.016329962178334e+00   2.934807920000000e-01 -2.55456949e+00   2.33300968e+00   5.39087200e-02
C     3.656560503524999e+00   4.808292401065554e+00   2.731077200000000e-01  8.75368160e-01  -3.46299917e+00  -2.30267220e-01
C     3.877705575150000e+00   5.342528611105687e+00   3.310258360000000e+00 -2.72370210e-01  -1.75365620e+00   1.83094750e-01
C     5.130536821200000e+00   6.038138990489206e+00   3.340392152000000e+00 -2.63525333e+00  -2.29380100e-02   2.20700930e-01
C     4.886594628450000e+00   4.095491776776800e+00   1.966081280000000e-01  3.61552590e-01  -1.47407791e+00  -2.61035370e-01
C     6.088847735024999e+00   4.815842508741865e+00   1.700818720000000e-01  2.68230640e+00  -3.46915664e+00  -8.45664160e-01
C     6.307651993349999e+00   5.335395420616061e+00   3.366674152000000e+00  1.31096105e+00  -5.59250120e-01   6.20795400e-01
C     7.538186316075000e+00   6.039676716843971e+00   3.439387504000000e+00  2.16173689e+00  -1.31783289e+00  -9.08334970e-01
C     7.374854614949999e+00   4.058438790161356e+00   3.977238400000000e-02 -2.40141810e-01   1.34959512e+00   2.13935591e+00
C     8.630916958349999e+00   4.756002083936704e+00   3.015262800000000e-01 -7.46370240e-01  -7.37870080e-01  -1.74318436e+00
C     8.797748860875000e+00   5.271055364238464e+00   3.385794392000000e+00  6.33432050e-01   4.07964110e+00   6.10694510e-01
C     1.003485042427500e+01   6.078339477715105e+00   3.369244144000000e+00 -3.84598520e-01  -6.19382402e+00  -4.17856260e-01
C     7.371037611750000e+00   2.111928271937484e-01   6.481632568000000e+00 -8.17047800e-02  -1.15163793e+00   5.21067800e-02
C     1.212981180975000e+00   8.782056975718027e-01   6.522894288000000e+00 -4.86873980e-01   1.79536019e+00   2.65681310e-01
C     1.082031852075000e+00   3.885948045982002e-01   1.027577144800000e+01  1.13271788e+00   1.71961300e+00  -3.97967800e-01
C     2.276299172100000e+00   1.084724249081273e+00   1.025508231200000e+01  3.44158603e+00   2.04050980e+00  -4.71823240e-01
C     2.427851303775000e+00   2.479304041095882e-01   6.618907160000000e+00  8.03579930e-01  -4.51922003e+00  -3.16085890e-01
C     3.638164960350000e+00   9.301153456134541e-01   6.631033600000000e+00  1.38778266e+00  -1.98704952e+00   1.38674600e-01
C     3.588721990350000e+00   3.821360465038117e-01   1.012344492000000e+01 -2.01010820e+00   1.55701194e+00   1.45070692e+00
C     4.816021924950000e+00   1.160041779814117e+00   1.025124004000000e+01 -6.75437570e-01  -1.71389261e+00  -1.08282416e+00
C     4.873544006400000e+00   1.776419449464660e-01   6.594869431999999e+00  9.50345570e-01   8.39968560e-01  -5.96885150e-01
C     6.146011713599999e+00   9.157525165108321e-01   6.477133008000000e+00 -1.65666745e+00  -1.59087286e+00   1.06905732e+00
C     6.015257760599999e+00   4.277041343699124e-01   1.020950857600000e+01  1.08444697e+00  -1.20134326e+00   3.54797180e-01
C     7.283631965550000e+00   1.116864785662626e+00   1.025421218400000e+01 -2.49426296e+00   5.48584750e-01   3.64465270e-01
C     8.628725930774999e+00   2.289809287829864e+00   6.525401312000001e+00 -9.49720810e-01   1.91018090e+00   6.04778350e-01
C     2.473614854550000e+00   3.050673739272760e+00   6.621834152000000e+00 -2.23945670e+00  -3.83513870e-01  -8.28775960e-01
C     2.312882532900000e+00   2.594882963546874e+00   1.027813308800000e+01  1.98392998e+00  -4.83277398e+00   6.04541300e-02
C     3.543318945825000e+00   3.225241064063218e+00   1.032516705600000e+01  1.88684613e+00   2.46170066e+00  -7.61089960e-01
C     3.651222422775000e+00   2.297878012307678e+00   6.645524264000000e+00  1.52563272e+00   3.41131260e+00   9.63801000e-02
C     4.885381589625000e+00   3.069697010862682e+00   6.649087872000000e+00  6.33601590e-01  -3.53311345e+00  -1.36265320e-01
C     4.812526345425000e+00   2.569973666642983e+00   1.025048551200000e+01 -1.89037592e+00  -1.01197107e+00   6.68938800e-01
C     5.995030032225000e+00   3.275137405561422e+00   1.025786310400000e+01  2.54039829e+00  -1.23199899e+00   9.16454700e-02
C     6.138641930550000e+00   2.311136427142343e+00   6.588076640000000e+00 -1.16792688e+00   1.20131641e+00  -2.77525460e-01
C     7.349779648949999e+00   3.000200117971056e+00   6.547883200000000e+00  1.96219286e+00   8.51416950e-01   1.99266150e-01
C     7.259373851249999e+00   2.535453499968589e+00   1.030009368800000e+01  8.96562540e-01   8.32154960e-01  -9.58446450e-01
C     8.564386509749999e+00   3.274419936553366e+00   1.021937986400000e+01 -5.70467745e+00  -1.18475170e-01   5.29222040e-01
C     9.823462093800000e+00   4.492925930201109e+00   6.514212864000000e+00  1.42438362e+00  -1.02249568e+00   7.95266720e-01
C     3.692700275250000e+00   5.193949316413057e+00   6.520672999999999e+00 -1.15852874e+00  -4.87420430e-01   2.42274730e-01
C     3.574635106950000e+00   4.669462372155782e+00   1.028608011200000e+01  1.53689160e-01   2.05104870e-01  -2.44869590e-01
C     4.861926498375000e+00   5.437785350387591e+00   1.024293152800000e+01 -3.46587117e+00  -4.12427974e+00   2.79451130e-01
C     4.916737055175000e+00   4.434258509265586e+00   6.620762472000000e+00 -2.15641240e-01   2.34557342e+00  -3.58318740e-01
C     6.173008788000000e+00   5.130267041360262e+00   6.595152312000000e+00 -2.04180088e+00   2.98768212e+00   4.36254840e-01
C     6.028250073075000e+00   4.667842030874623e+00   1.022163678400000e+01  4.78909940e-01   1.56300448e+00  -1.58485320e-01
C     7.257075115500000e+00   5.365461233821089e+00   1.014858547200000e+01  4.20683520e-01   6.86887330e-01   8.70560000e-03
C     7.363116124725000e+00   4.454912368949242e+00   6.592465496000000e+00  4.37949960e-01  -2.01698494e+00  -9.74897100e-02
C     8.575986491624999e+00   5.156637789907805e+00   6.554457031999999e+00  9.04545360e-01   1.35846835e+00   1.20991300e-01
C     8.478420448200000e+00   4.666591087186829e+00   1.017155573600000e+01  1.12666775e+00   1.99503690e-01   1.27552900e-01
C     9.705534620400000e+00   5.347965185603041e+00   1.021202444000000e+01  1.14326507e+00   2.44316457e+00   2.34447400e-02
