76
Lattice="10.7446858958278 0 0 5.37234294791388 9.3051709414712 0 0 0 30 " PBC="1 1 1" Properties=species:S:1:pos:R:3:force:R:3 Energy="-609.60570135"
C     6.136241766403450e-02   8.200181890875000e-03  -1.010159999999871e-02  2.33932900e-02  -2.34493765e+00  -5.67476800e-01
C     1.248421476740595e+01   8.484816275931310e+00   7.677000000000001e-04 -9.55981320e-01   1.42115354e+00  -4.07302630e-01
C     1.392342622560742e+01   8.328887293248703e+00  -5.736810000000148e-02 -6.30770370e-01   4.09942940e-01   5.37257960e-01
C     1.445133864601430e+01   7.030184312115297e+00  -1.139226000000022e-01  7.87227670e-01   5.87833380e-01   8.41826720e-01
C     8.242971134016775e+00   9.006511987406341e+00  -4.228529999999964e-02  9.16642440e-01  -1.61586499e+00  -9.10806240e-01
C     9.628647140998062e+00   8.816029462110269e+00  -5.540129999999976e-02  1.08819418e+00   1.54417019e+00   3.19332390e-01
C     1.016208786347078e+01   7.519520919439641e+00  -6.649799999999928e-02 -2.58844430e-01  -6.24015340e-01   4.29386490e-01
C     1.155899319540958e+01   7.399898480523889e+00  -6.050790000000106e-02  2.57464202e+00  -1.45547867e+00  -7.71414090e-01
C     1.217456887562652e+01   6.097688473514906e+00  -2.095491000000003e-01 -2.82113478e+00  -8.06076550e-01   1.20747680e+00
C     1.354630526435544e+01   5.964218172257956e+00  -5.788770000000198e-02  2.47506848e+00  -3.62018912e+00  -1.37849231e+00
C     5.971805254560138e+00   8.004271473266206e+00  -8.120010000000022e-02  2.13958325e+00  -1.10059710e-01   2.12465570e-01
C     7.441853585230596e+00   7.839948761137173e+00  -8.616900000000172e-02 -4.02365352e+00   2.02631424e+00   5.32667100e-01
C     7.885524820839713e+00   6.553874664951825e+00  -5.018219999999829e-02  3.85810390e+00  -6.58055360e-01  -5.37996700e-02
C     9.317988508849117e+00   6.358028546074226e+00  -3.573180000000065e-02  1.31596060e-01  -6.82681470e-01  -1.56360171e+00
C     9.865192636725439e+00   5.012066555822456e+00  -2.616341999999996e-01  5.49834350e-01   1.73775913e+00   1.90726800e+00
C     1.128408664601802e+01   4.896891616409187e+00  -2.225558999999997e-01  9.99726470e-01   1.72712011e+00  -3.57260880e-01
C     1.187745746580087e+01   3.635104760790914e+00  -1.818549000000012e-01 -1.52031386e+00  -2.35090181e+00   1.16581320e-01
C     5.157254592014921e+00   6.867155018746923e+00  -6.880860000000055e-02 -2.20050230e+00   4.08623380e-01   3.09092700e-02
C     5.682114178540463e+00   5.587131703017020e+00  -2.305979999999863e-02  1.97594510e-01  -2.08323030e+00  -7.25902010e-01
C     7.087318061187274e+00   5.439009944856493e+00  -9.285930000000064e-02 -1.29416268e+00  -2.31573628e+00   6.19950000e-03
C     7.646634780925524e+00   4.101816775491742e+00  -1.728380999999999e-01 -3.24661760e-01  -3.99496340e-01   6.03763090e-01
C     9.037080139084102e+00   3.864733395817892e+00  -1.385450999999982e-01  7.96620620e-01   1.07917470e-01  -7.52813990e-01
C     9.620341552520790e+00   2.524792688629687e+00  -9.037499999999810e-02  1.42160258e+00   3.40744113e+00   2.86849240e-01
C     1.105795844561127e+01   2.418551922991040e+00  -8.430480000000173e-02 -1.45513700e-02  -3.58351420e-01  -8.28407010e-01
C     3.434196683412515e+00   4.574019585460845e+00  -1.269363000000006e-01 -3.15005295e+00   8.10511450e-01   3.21707350e-01
C     4.817993552276749e+00   4.392941424226992e+00  -7.784639999999854e-02 -1.51501540e-01   3.27396581e+00  -3.15871500e-02
C     5.345519862395811e+00   3.136189224397515e+00  -1.130949000000001e-01  3.26502047e+00  -2.21951341e+00  -5.33963350e-01
C     6.822297482398580e+00   2.952214921760297e+00  -1.573464000000016e-01 -1.04124663e+00  -8.65059060e-01   1.57448354e+00
C     7.412533271452959e+00   1.602880830611580e+00   8.801850000000000e-02 -2.06791171e+00   2.41985047e+00  -2.04889688e+00
C     8.799737280216084e+00   1.440866173082505e+00   3.479850000000000e-02  4.82731500e-01  -1.94457860e+00   2.03229460e-01
C     9.440182449246869e+00   1.501507506839938e-01   3.424920000000000e-02 -3.53824872e+00   3.36329140e-01  -1.97967840e-01
C     2.502771183500913e+00   3.425614748919121e+00  -1.782681000000004e-01  2.85226577e+00   1.20226877e+00   3.93271670e-01
C     3.062932704168051e+00   2.114935826682515e+00  -1.263756000000029e-01  3.37031893e+00   1.57302128e+00  -8.73112130e-01
C     4.544103826235331e+00   1.991181798817695e+00  -1.635239999999989e-01 -1.58492954e+00  -1.02297324e+00   1.09371338e+00
C     5.146957046218650e+00   6.799911852310979e-01  -4.859940000000051e-02 -2.73864170e+00  -1.20554800e-01  -6.61227560e-01
C     6.513502301125274e+00   5.190826333716608e-01  -1.252859999999956e-02  2.50010316e+00  -1.64511689e+00   9.29257930e-01
C     9.039249598614170e-01   1.065991077715460e+00  -1.202601000000030e-01  7.15966220e-01   4.61373118e+00   2.96273670e-01
C     2.329751333049816e+00   9.649849359891104e-01  -1.823544000000012e-01 -2.80749923e+00  -3.83897410e-01   1.00696944e+00
C     5.385151475167672e+00   9.299081450033444e+00   3.460269600000000e+00 -5.24535960e-01   1.51734715e+00   9.31105660e-01
C     1.187702531453397e+01   8.815220842755583e+00   3.614253300000000e+00 -2.04248304e+00   1.23677139e+00  -9.89904720e-01
C     1.324832434082333e+01   8.988182010326764e+00   3.651021900000000e+00  3.15802160e+00  -2.10405716e+00  -1.44702808e+00
C     1.416273713486831e+01   7.832048671009114e+00   3.530108700000000e+00 -2.72015355e+00   7.98547340e-01   9.07353330e-01
C     7.635867316291415e+00   8.302179312461588e+00   3.356444400000000e+00 -1.11334900e-01   6.58924140e-01   2.18552366e+00
C     9.049151739969322e+00   8.461324720531314e+00   3.508016400000000e+00 -5.10760870e-01  -8.16424450e-01  -3.92050310e-01
C     9.882439845361830e+00   7.286392423518709e+00   3.483116100000000e+00  5.05835280e-01   2.10889800e+00  -2.15155800e-02
C     1.129433396040771e+01   7.523732439807085e+00   3.434544000000000e+00 -1.71035420e-01  -7.44487640e-01   8.36250530e-01
C     1.213517171190099e+01   6.384475423764766e+00   3.354311700000000e+00 -1.20727343e+00  -5.73806170e-01   9.13914820e-01
C     1.351172558800004e+01   6.548711225597218e+00   3.479169300000000e+00  2.55862212e+00   1.51273360e-01  -7.55543650e-01
C     4.814903488058768e+00   8.023578121087645e+00   3.564954300000000e+00 -3.20406790e-01  -9.51378970e-01  -9.07435450e-01
C     5.647082204632103e+00   6.875819528667706e+00   3.525515100000000e+00 -1.71898950e-01  -6.99765320e-01   1.88686630e-01
C     7.042699624795503e+00   7.008745663528083e+00   3.546625200000000e+00  1.30968186e+00  -2.87167900e-02  -1.47554675e+00
C     7.906182392780764e+00   5.850497444959190e+00   3.491601300000000e+00 -3.73983300e-02  -1.63401530e-01  -3.76846040e-01
C     9.330891426082420e+00   6.005175998770879e+00   3.504457200000000e+00 -2.02344440e-01  -8.37905720e-01  -3.18330260e-01
C     1.020738090496678e+01   4.841555625863195e+00   3.501214500000000e+00 -3.28063459e+00   1.15528347e+00  -2.65711200e-02
C     1.155791082947545e+01   5.046098078346190e+00   3.410701800000000e+00  3.00939894e+00   8.10100000e-02   8.20564300e-02
C     1.245854136119306e+01   3.916375698759251e+00   3.482545500000000e+00 -1.78248344e+00   3.01020700e-02   7.65245520e-01
C     3.646534240636905e+00   5.430916400224591e+00   3.410892900000000e+00  3.99058290e-01  -1.06170836e+00   1.09118437e+00
C     5.070872367381295e+00   5.568108304598994e+00   3.474663600000000e+00 -5.23956560e-01   8.52675900e-01  -4.86150100e-01
C     5.876560920443051e+00   4.427292114113968e+00   3.363738900000000e+00  1.18224221e+00  -1.63651153e+00  -2.52767490e-01
C     7.357951072932402e+00   4.531357051631714e+00   3.323130300000000e+00 -2.79159043e+00   2.26817661e+00   1.54408569e+00
C     8.166695951898413e+00   3.429364267549394e+00   3.490702500000000e+00  6.52912770e-01  -2.02949933e+00  -5.60799500e-01
C     9.564124173976541e+00   3.576135938458236e+00   3.580395000000000e+00  1.66645790e+00   5.09365200e-02  -2.19360920e-01
C     1.044035330912154e+01   2.448834578246466e+00   3.602736000000000e+00 -1.82031306e+00   4.65436240e-01  -1.99351280e-01
C     1.180870592764341e+01   2.598624009142860e+00   3.608802000000000e+00  2.74180762e+00   1.45648285e+00  -1.17159294e+00
C     3.125607101703905e+00   4.111951502421043e+00   3.521455500000000e+00 -1.67695020e+00  -1.18615118e+00  -1.10236890e+00
C     3.879947499254145e+00   2.891925323464396e+00   3.487783200000000e+00  1.47137211e+00   1.64152420e+00   1.71373030e-01
C     5.281858081949176e+00   3.088588343298817e+00   3.349263300000000e+00  1.23430114e+00   1.74813263e+00   4.27887680e-01
C     6.199364324788193e+00   2.026584531331147e+00   3.365865900000000e+00 -3.43014830e-01  -2.93863590e+00   9.70749990e-01
C     7.607130331511288e+00   2.104441361844674e+00   3.468890400000000e+00  1.29864487e+00   3.82065020e-01  -3.66605620e-01
C     8.508555540198072e+00   9.164555849340190e-01   3.502610400000000e+00 -2.53398633e+00   3.50000736e+00   9.83401590e-01
C     9.889172035759335e+00   1.164503526681599e+00   3.539617200000000e+00  7.84931480e-01  -2.50447447e+00  -3.15505410e-01
C     1.900724889428683e+00   1.462877182734237e+00   3.473208300000000e+00  1.78793915e+00   6.05443240e-01   1.26206775e+00
C     3.320719691791716e+00   1.608263965052079e+00   3.583761000000000e+00  3.84014300e-01  -6.27110530e-01  -8.78192710e-01
C     4.216188906190411e+00   4.576460797056954e-01   3.600576300000000e+00  6.40731910e-01   1.60229504e+00  -9.53670400e-01
C     5.657344830199198e+00   6.987845598234877e-01   3.520413300000000e+00 -1.00772441e+00  -1.34552710e+00   4.13450180e-01
C     1.421205459846816e+00   1.725440167579414e-01   3.445563300000000e+00 -1.07230733e+00  -2.11768212e+00  -6.54441990e-01
