76
Lattice="10.7446858958278 0 0 5.37234294791388 9.3051709414712 0 0 0 30 " PBC="1 1 1" Properties=species:S:1:pos:R:3:force:R:3 Energy="-611.28711491"
C     1.392519888388720e-01   4.612591845299880e-02   8.956259999999999e-02 -2.57203927e+00   1.85568172e+00  -5.17254520e-01
C     1.247427571805474e+01   8.506717856772788e+00   1.569393000000000e-01  3.90022318e+00   3.67495050e-01  -8.05815730e-01
C     1.395201982255421e+01   8.382923444466087e+00   9.943650000000000e-02 -1.05340018e+00  -2.32054397e+00   8.50350720e-01
C     1.456815965250432e+01   7.016505431678369e+00   8.515919999999999e-02 -2.58719543e+00   1.87845249e+00  -8.13060000e-03
C     8.310787239819785e+00   9.038231174951484e+00   5.664270000000000e-02 -1.39065544e+00   1.72132466e+00  -1.20486067e+00
C     9.703185122300111e+00   8.902198229617658e+00   1.656300000000000e-02  6.79784340e-01  -2.16510066e+00   3.98298000e-03
C     1.027537123585166e+01   7.578703109341972e+00  -4.345709999999769e-02  5.17003350e-01  -9.46513860e-01   8.62756300e-01
C     1.171208944341346e+01   7.355415948310604e+00   9.776520000000000e-02 -2.49794770e+00  -8.40285050e-01  -1.31790892e+00
C     1.224743493007909e+01   6.018932112126609e+00  -7.950840000000170e-02  3.00603406e+00   1.83719392e+00   1.15350159e+00
C     1.372636046651671e+01   5.866259380962747e+00   1.593390000000000e-02 -1.84716190e+00   5.49574710e-01  -1.45883335e+00
C     6.043264131223826e+00   8.093068207150472e+00   1.061250000000000e-02 -1.98393470e-01  -2.39672985e+00   1.28532710e-01
C     7.443130000192088e+00   7.937416797717007e+00  -5.033339999999953e-02  1.38461098e+00  -1.73244392e+00   6.43006330e-01
C     8.049957786936677e+00   6.615520026653684e+00  -7.218660000000199e-02 -2.47719072e+00  -6.08779570e-01   8.18455400e-02
C     9.422896452294378e+00   6.407236244090843e+00  -8.040060000000082e-02  1.66351733e+00   1.18210591e+00  -6.81488250e-01
C     9.996942256081496e+00   5.111723261659087e+00  -2.174118000000007e-01  1.19136016e+00  -5.55244740e-01   1.37517862e+00
C     1.145787737395901e+01   4.893356488917372e+00  -1.786857000000026e-01 -2.55605029e+00   4.36445110e-01  -9.31331250e-01
C     1.200837711189458e+01   3.595441376607454e+00  -2.943153000000009e-01  7.11918800e-02   2.81947330e-01   3.38493560e-01
C     5.184726013966317e+00   6.896600394721169e+00   2.305440000000000e-02  2.73634610e+00   3.18908280e-01  -1.52378890e-01
C     5.798536933247604e+00   5.577280318542842e+00  -2.579670000000078e-02 -7.64224000e-01   2.75641549e+00   2.28108850e-01
C     7.185331784371657e+00   5.444294816691866e+00  -4.111109999999840e-02  1.50509739e+00   4.22249800e-02   9.47238300e-02
C     7.752947753222497e+00   4.134228174703112e+00   1.578660000000000e-02 -4.56691760e-01  -2.66070960e-01  -3.74357980e-01
C     9.167756095701600e+00   3.970747115285603e+00  -7.201500000000038e-02 -9.80785170e-01   1.28308163e+00  -4.78125800e-01
C     9.702369922980878e+00   2.702777904094793e+00  -5.962889999999987e-02  4.51039400e-01  -3.26003676e+00   6.68410080e-01
C     1.111769991996043e+01   2.473561395088748e+00  -1.120754999999996e-01 -7.22084000e-02   2.56918609e+00  -8.15775370e-01
C     3.564704485695678e+00   4.598791718485604e+00  -2.360496000000012e-01 -1.44447763e+00   7.06094770e-01   8.21966910e-01
C     4.950392849065748e+00   4.502037760723706e+00  -5.901719999999955e-02  2.79204400e-01  -3.82909913e+00  -5.87432580e-01
C     5.509789025756230e+00   3.141764696721344e+00  -1.201830000000115e-02 -1.22806264e+00   1.12647159e+00  -4.98666160e-01
C     6.891456888832809e+00   2.968299933298890e+00   5.422589999999999e-02  1.00651670e+00   5.92239740e-01   2.88831890e-01
C     7.441301630715913e+00   1.655849213463598e+00   1.449540000000000e-01  1.20783890e-01   4.13960700e-02  -1.22443740e+00
C     8.847457814874042e+00   1.516591933347353e+00   8.241930000000000e-02  6.86516360e-01   4.62184350e-01   1.93106590e-01
C     9.402996756773282e+00   1.905367744426536e-01   1.287804000000000e-01  2.00669376e+00   1.22159216e+00  -4.08996100e-01
C     2.694957995618155e+00   3.466257037085468e+00  -3.862865999999983e-01 -6.05483660e-01  -2.71959430e-01   1.66835058e+00
C     3.222575689290796e+00   2.174000492275875e+00  -1.458674999999978e-01  6.97509130e-01   1.64784440e-01  -9.83361320e-01
C     4.646076751280146e+00   2.016327813610823e+00  -8.423940000000130e-02 -1.46845380e-01  -4.59799080e-01   6.67358600e-01
C     5.190394104395714e+00   6.928413471441098e-01   1.836000000000000e-02 -1.28407220e-01   1.52163790e+00  -3.60837880e-01
C     6.585498089743385e+00   5.059419640219022e-01   3.800940000000000e-02  8.77799200e-02   6.07742410e-01   1.30123716e+00
C     9.455732964532790e-01   1.234980426122612e+00  -5.075850000000059e-02  3.24365890e-01  -2.89965152e+00   4.46385860e-01
C     2.354393571756883e+00   1.063318353466364e+00  -7.061129999999949e-02  7.51039500e-01  -9.18975790e-01   5.36213140e-01
C     1.600413588578130e+01   9.264263826668699e+00   3.562834200000000e+00 -8.06487180e-01  -1.52970605e+00   3.10473630e-01
C     1.176663666798141e+01   8.779161444328894e+00   3.554538300000000e+00  3.15573580e-01  -8.28579810e-01  -1.70762314e+00
C     1.319428840213393e+01   8.929552082319720e+00   3.537218700000000e+00 -1.52153624e+00   1.61484613e+00  -5.06848620e-01
C     1.400513064378762e+01   7.806677564130946e+00   3.512124600000000e+00  1.38284614e+00  -1.57180648e+00   1.56535970e-01
C     7.517206497234733e+00   8.294162070231392e+00   3.351552300000000e+00 -1.59928321e+00  -6.91098660e-01   1.35627172e+00
C     8.905505174597350e+00   8.463664226609048e+00   3.397272900000000e+00  1.81704095e+00  -8.13998640e-01   3.77747100e-01
C     9.795165489457926e+00   7.324600944225701e+00   3.417049200000000e+00 -9.76017870e-01  -3.95744160e-01  -5.96714250e-01
C     1.120645999730715e+01   7.460700049324910e+00   3.394872000000000e+00 -1.08331940e-01   5.64723660e-01   1.30580891e+00
C     1.203870645912509e+01   6.302766903844045e+00   3.391828500000000e+00  7.64642970e-01   8.46863090e-01   1.83349250e-01
C     1.346577755045157e+01   6.488293681200893e+00   3.423406500000000e+00 -9.76561270e-01  -3.88515870e-01  -4.40107910e-01
C     4.682818956843208e+00   7.934070565195273e+00   3.552617400000000e+00 -1.01539230e-01   8.93249820e-01  -6.81921840e-01
C     5.517426509664238e+00   6.785228106464241e+00   3.434126700000000e+00 -2.50264500e-02   1.28702827e+00  -4.56368140e-01
C     6.918200841825344e+00   7.003973785766633e+00   3.386748000000000e+00  1.79878813e+00  -1.45537354e+00  -4.37202020e-01
C     7.826779432596911e+00   5.852837974605729e+00   3.331943700000000e+00 -1.78907072e+00   1.14766992e+00  -3.06350170e-01
C     9.212529792804624e+00   6.014836068930530e+00   3.381975900000000e+00  1.36273311e+00  -1.26177990e-01   9.51724100e-02
C     1.007104916058524e+01   4.853724649263399e+00   3.449109600000000e+00 -4.89777830e-01   5.36161300e-01  -2.74849350e-01
C     1.147283016236831e+01   5.011670527747249e+00   3.412818000000000e+00  3.88662440e-01  -7.85985640e-01   5.27747100e-02
C     1.232628029478817e+01   3.848911534513482e+00   3.429995100000000e+00  1.10073600e-02   2.80407840e-01   3.81576890e-01
C     3.550344320437187e+00   5.325692689769686e+00   3.286006200000000e+00 -1.60066290e-01   1.27168062e+00   8.42924770e-01
C     4.943577172458801e+00   5.509906135300063e+00   3.266480700000000e+00  1.66634376e+00  -1.63336385e+00   1.02524759e+00
C     5.847953355404589e+00   4.345745969426150e+00   3.329554800000000e+00 -5.44056380e-01   2.70840309e+00  -1.31677648e+00
C     7.260059892890707e+00   4.573932675164266e+00   3.220922400000000e+00  1.23979200e-02  -2.26300033e+00   1.79316760e+00
C     8.109698616604684e+00   3.396407027010683e+00   3.395277300000000e+00 -7.67846280e-01   5.93036810e-01  -5.04245970e-01
C     9.511357236415360e+00   3.551938399739023e+00   3.510651000000000e+00  4.10486900e-02  -3.30922270e-01   2.27501530e-01
C     1.035212939160123e+01   2.401224019769991e+00   3.671924400000000e+00  3.89319550e-01  -3.16751770e-01  -1.42656366e+00
C     1.177544747158970e+01   2.530704822038125e+00   3.553711200000000e+00  6.18534900e-02   6.10459440e-01   2.79332630e-01
C     2.991426389716115e+00   4.042162720371043e+00   3.386760900000000e+00  3.54652590e-01  -1.66943363e+00  -5.41805350e-01
C     3.885604254039918e+00   2.881996147761159e+00   3.396078300000000e+00 -1.90498247e+00   1.46670900e+00   1.22297140e-01
C     5.274320147556031e+00   3.081594204613475e+00   3.346104600000000e+00  7.11026730e-01  -1.90428193e+00   8.83364500e-02
C     6.121658810082822e+00   1.918052460400235e+00   3.354345600000000e+00 -7.34372920e-01  -2.57613840e-01   1.55063400e-01
C     7.525081546147991e+00   2.090393345276556e+00   3.394989300000000e+00  3.24140970e-01  -7.40363600e-02  -1.72175690e-01
C     8.370524846082024e+00   9.462272002014208e-01   3.415610700000000e+00  6.63659120e-01  -6.27699350e-01   1.53223774e+00
C     9.795081466014189e+00   1.088094115507789e+00   3.578472000000000e+00 -1.01235007e+00   9.93636800e-01  -1.43754990e-01
C     1.900315731789612e+00   1.387418201720239e+00   3.525868800000000e+00 -1.51434480e+00   8.78023700e-01   1.44652820e-01
C     3.299372901973610e+00   1.599904571686421e+00   3.470834100000000e+00  4.81299610e-01  -1.25229622e+00  -1.99367000e-02
C     4.138571121845414e+00   4.302168551190198e-01   3.490916100000000e+00 -7.96176540e-01   9.78039810e-01  -1.09497153e+00
C     5.535098025946821e+00   5.911486699058071e-01   3.388751100000000e+00  1.06198077e+00   9.43057320e-01   1.26060796e+00
C     1.271884733297912e+00   9.011118233125059e-02   3.532278600000000e+00  2.14252100e+00   1.29438567e+00  -5.79839730e-01
