76
Lattice="10.7446858958278 0 0 5.37234294791388 9.3051709414712 0 0 0 30 " PBC="1 1 1" Properties=species:S:1:pos:R:3:force:R:3 Energy="-608.06913569"
C     3.883672090897949e-02   2.856454849306500e-02  -1.981206000000029e-01 -1.55071209e+00   3.93881300e-02  -1.52578980e-01
C     1.246567900231300e+01   8.494154387176437e+00  -3.648443999999991e-01 -2.79370239e+00   1.74997695e+00   3.53649460e-01
C     1.380585937674564e+01   8.355617885601204e+00  -3.307976999999980e-01  4.02699761e+00  -3.40415398e+00   3.24054300e-01
C     1.444933030304930e+01   6.995565633305249e+00  -1.854948000000007e-01 -1.04243874e+00   9.13131400e-02  -9.96933780e-01
C     8.258355106671248e+00   9.035109476204534e+00  -1.094103000000004e-01  1.56158802e+00  -2.05064957e+00  -2.49059190e-01
C     9.727629712510048e+00   8.800970997029776e+00  -2.668722000000017e-01 -3.26154371e+00  -1.21747600e-02   5.90087290e-01
C     1.025906424095495e+01   7.477730838437845e+00  -2.103336000000020e-01 -1.56457137e+00   1.64810140e-01  -8.25707880e-01
C     1.163295461686624e+01   7.331978455953769e+00  -2.713217999999991e-01  1.31420635e+00   6.97115120e-01   1.03148832e+00
C     1.220143182601539e+01   6.054353268878523e+00  -2.478089999999966e-02 -2.09407044e+00  -3.89552080e-01  -1.26085346e+00
C     1.355342689589338e+01   5.793875200634163e+00  -9.431820000000002e-02  2.28301114e+00   5.84327334e+00  -2.82678390e-01
C     5.960819296738254e+00   8.029094784731134e+00  -2.148156000000014e-01  2.10798519e+00  -8.24836460e-01   8.42380200e-02
C     7.447561753338402e+00   7.854438121962976e+00  -1.409720999999990e-01 -2.36643477e+00  -1.45995110e-01  -8.91168880e-01
C     7.970370286772491e+00   6.510421098541085e+00  -2.613236999999984e-01  4.39052500e-01  -7.52287900e-02   1.08413508e+00
C     9.397138109339448e+00   6.314139311560075e+00  -1.843442999999994e-01 -1.51333003e+00   2.53356486e+00   8.12915910e-01
C     9.927871547029373e+00   5.065277803636008e+00   8.881290000000000e-02 -1.11833807e+00  -9.92261710e-01  -1.76160936e+00
C     1.129660828807216e+01   4.963373340707111e+00  -2.058900000001529e-03  2.86488685e+00  -2.99048911e+00   1.66178694e+00
C     1.188963318269246e+01   3.597297199899728e+00   1.106148000000000e-01  6.39001870e-01   2.98159360e+00  -7.46358180e-01
C     5.140146204720359e+00   6.839243134943591e+00  -3.004116000000003e-01 -1.26177025e+00   5.45380130e-01   9.04364370e-01
C     5.675967358630791e+00   5.499019364455391e+00  -2.409414000000005e-01  1.49207271e+00   1.64703674e+00   4.29269300e-02
C     7.139554694775860e+00   5.311645882873790e+00  -1.871295000000011e-01 -2.45238769e+00   4.24542698e+00  -3.90954590e-01
C     7.660410542717914e+00   4.072334085782027e+00  -8.894850000000076e-02  1.99703881e+00  -1.10899527e+00   3.71244860e-01
C     9.080355382291513e+00   3.905995966679100e+00  -3.760199999998548e-03 -9.86007000e-03  -4.80685510e-01  -4.43905800e-02
C     9.645348036079866e+00   2.595827526120262e+00  -9.466769999999869e-02 -6.47128360e-01   1.16915889e+00  -5.84045110e-01
C     1.104655022163351e+01   2.506444752570195e+00   4.934999999999999e-03  5.89643100e-02  -1.83457458e+00   1.61922700e-01
C     3.388725763641439e+00   4.588135250621697e+00  -9.974610000000084e-02  1.63827998e+00  -2.01969807e+00   5.08361550e-01
C     4.803032866523307e+00   4.423702458320444e+00  -1.530549000000008e-01  1.07738113e+00  -1.68954099e+00   9.15537410e-01
C     5.434853598522738e+00   3.104614639208779e+00   5.377499999999999e-03 -2.20476781e+00   1.48916940e-01  -7.63901090e-01
C     6.816866151122989e+00   2.956401318166203e+00  -6.095249999999908e-02  5.31062130e-01  -6.70467470e-01  -1.43760906e+00
C     7.401562409914764e+00   1.700652122712348e+00  -4.134810000000009e-01 -6.12376560e-01  -1.01814750e+00   1.97510009e+00
C     8.808015416020879e+00   1.476243688582710e+00  -4.141539000000023e-01 -1.41669150e-01   2.07339180e-01   1.04320663e+00
C     9.295514171692664e+00   1.344006322475310e-01  -3.709691999999976e-01  2.92468657e+00   2.26822484e+00   3.36061940e-01
C     2.581421478437471e+00   3.476590801621176e+00   4.847310000000001e-02 -1.22280929e+00  -1.65539674e+00  -1.92098170e-01
C     3.195056184869998e+00   2.200760116761708e+00  -2.216220000000035e-02 -2.36529925e+00  -2.05002962e+00   8.23740240e-01
C     4.554876716935818e+00   1.951797011452179e+00  -2.942849999999808e-02  1.61197424e+00   1.07184598e+00  -1.17107307e+00
C     5.099020865714678e+00   6.577993761080013e-01  -3.150107999999996e-01  2.62776713e+00   1.13813097e+00   1.59160793e+00
C     6.555085310026864e+00   5.681391223605031e-01  -3.121881000000002e-01 -9.66848950e-01  -2.28218614e+00  -1.61944278e+00
C     8.636200850710615e-01   1.214257903490941e+00  -3.983249999999927e-02  1.56275074e+00  -2.20412915e+00  -1.72021300e-01
C     2.337976175212548e+00   1.018684519173594e+00   1.099920000000000e-02 -1.61062276e+00   1.25449741e+00  -7.52630030e-01
C     1.607535354424653e+01   9.267808445434875e+00   3.616281000000000e+00 -8.97444310e-01   1.85224972e+00  -2.49003306e+00
C     1.182305733598289e+01   8.812897899882120e+00   3.445932000000000e+00 -4.33173900e-01   1.69413192e+00   1.40524686e+00
C     1.323136127540557e+01   8.963334226262262e+00   3.477083700000000e+00  1.16724582e+00   1.14865810e-01   7.80069980e-01
C     1.407475642331334e+01   7.791638732961138e+00   3.542467200000000e+00  8.91403200e-01   8.56304060e-01  -5.34956780e-01
C     7.595816768216313e+00   8.306166485157668e+00   3.693863700000000e+00  2.65224821e+00   1.53061075e+00  -2.25951947e+00
C     9.055361470014939e+00   8.500907894141269e+00   3.553515900000000e+00 -1.60201731e+00  -1.49556596e+00   4.57669160e-01
C     9.887011548041993e+00   7.278721147544064e+00   3.555999300000000e+00 -2.05956860e+00   2.76378261e+00   6.35498090e-01
C     1.124627749314508e+01   7.542169147197344e+00   3.624582900000000e+00  2.13348830e+00  -1.74685117e+00  -6.10308440e-01
C     1.214877115339776e+01   6.409893614807888e+00   3.754965900000000e+00 -2.21989638e+00  -9.83171650e-01  -1.37234268e+00
C     1.352930389413244e+01   6.481088687342051e+00   3.639378600000000e+00  9.25461970e-01   1.45468499e+00   1.83100040e-01
C     4.764460733504615e+00   7.972346827546707e+00   3.444153300000000e+00 -8.89778000e-03   5.28193460e-01   1.62466296e+00
C     5.667724519119176e+00   6.884300354514131e+00   3.504646800000000e+00 -2.44144410e-01  -1.06289597e+00   3.92723080e-01
C     7.126169179975358e+00   7.014873490798911e+00   3.504725100000000e+00 -3.34667880e+00  -7.40057380e-01   1.50577848e+00
C     7.874507542258429e+00   5.826801734108772e+00   3.614388000000000e+00 -5.80690800e-02  -1.47736680e-01  -9.33476100e-02
C     9.295599753115859e+00   5.981922562695237e+00   3.608881500000000e+00 -9.84818330e-01   1.28742082e+00  -3.84882270e-01
C     1.012159388220858e+01   4.898254172589931e+00   3.486577500000000e+00  2.08907672e+00  -1.83300762e+00   7.98883990e-01
C     1.156901137937245e+01   5.122272999212312e+00   3.618597900000000e+00 -2.28527300e-02  -2.71231427e+00  -3.02092490e-01
C     1.244522901770354e+01   3.911039369328579e+00   3.527150100000000e+00 -1.14809901e+00   4.97037770e-01  -1.50379398e+00
C     3.658681108046854e+00   5.371553690006023e+00   3.625398300000000e+00 -3.80740670e-01  -9.52125490e-01  -9.58298660e-01
C     5.058295497641627e+00   5.601658470630001e+00   3.678738600000000e+00 -5.65432830e-01  -1.99389210e-01  -9.46646170e-01
C     5.824029936184234e+00   4.438687412550511e+00   3.740682600000000e+00  1.89325836e+00  -1.57619018e+00   3.84095140e-01
C     7.217242749366644e+00   4.526909366025813e+00   3.708458700000000e+00  3.28026236e+00   1.92088680e+00  -8.52573980e-01
C     8.138597147737316e+00   3.425283484833657e+00   3.567381900000000e+00 -9.30110420e-01  -9.10146400e-02   2.31399080e-01
C     9.532095608394378e+00   3.570625137072440e+00   3.395445300000000e+00  1.29994793e+00   1.46004935e+00   4.16064000e-02
C     1.041180543081325e+01   2.454742245172854e+00   3.269725800000000e+00 -1.60931050e-01  -6.21973600e-02   1.42703392e+00
C     1.181600382575354e+01   2.617460094469865e+00   3.374539500000000e+00  1.87405089e+00  -3.46463960e-01   1.23022320e-01
C     3.137560242427078e+00   4.011694799162201e+00   3.366599400000000e+00 -1.22077745e+00   2.63858882e+00   2.71501468e+00
C     3.964094882944001e+00   2.888524562640954e+00   3.466803300000000e+00  2.92727520e-01   2.61073400e-01   3.03629500e-01
C     5.366291274283973e+00   3.095143743174337e+00   3.772323600000000e+00 -2.65262399e+00  -5.42767000e-03  -1.39601048e+00
C     6.187027115267525e+00   1.953713783614109e+00   3.742171800000000e+00  1.14537804e+00   6.00730950e-01  -7.45729170e-01
C     7.604252152499256e+00   2.125458765343433e+00   3.614556300000000e+00 -1.87636400e-02  -9.44928370e-01   3.52639000e-01
C     8.470069687007156e+00   9.913951513061466e-01   3.558376800000000e+00 -1.28183222e+00  -8.86917700e-01  -1.30168363e+00
C     9.866145636641342e+00   1.157936681445822e+00   3.399743700000000e+00  2.86915240e-01  -1.67619126e+00   1.09275345e+00
C     1.958250594651546e+00   1.423374405801203e+00   3.425922900000000e+00 -1.86497494e+00   1.85288542e+00  -1.69333250e-01
C     3.359164822623070e+00   1.601615978725706e+00   3.398014200000000e+00 -5.74280650e-01   1.29694347e+00   6.77508760e-01
C     4.197316724981933e+00   5.259264935463214e-01   3.491838900000000e+00  1.64048220e+00  -2.70949948e+00   3.89992190e-01
C     5.614169512570658e+00   6.941953425675893e-01   3.561763800000000e+00  9.27765200e-02  -1.57448604e+00  -4.41538720e-01
C     1.355762801435686e+00   1.477827707831826e-01   3.565760700000000e+00  1.00872337e+00  -8.33388730e-01   4.80751140e-01
