76
Lattice="10.7446858958278 0 0 5.37234294791388 9.3051709414712 0 0 0 30 " PBC="1 1 1" Properties=species:S:1:pos:R:3:force:R:3 Energy="-611.34196418"
C     7.642533910381499e-02   8.216987029592640e-02  -2.033313000000021e-01  2.21736883e+00  -1.91143738e+00   9.13138010e-01
C     1.250797825197669e+01   8.496651522849897e+00  -1.257248999999980e-01  1.34938862e+00  -8.98464290e-01   3.69427550e-01
C     1.390130200404102e+01   8.280505894411558e+00  -1.005311999999989e-01  1.60807171e+00   2.98930841e+00  -3.46363600e-01
C     1.447274818479806e+01   7.008051590827669e+00  -1.918949999999953e-02  1.59116715e+00   4.60767590e-01  -4.48123330e-01
C     8.373110178679850e+00   9.046300619190653e+00  -1.393281000000002e-01 -2.09327946e+00   3.15037610e-01   1.30766913e+00
C     9.774994705511574e+00   8.879329934567224e+00  -5.651340000000005e-02 -8.87070190e-01  -1.03994454e+00   1.33797910e-01
C     1.029055422915637e+01   7.519068874235376e+00   2.157780000000000e-02  5.85057930e-01   1.31830494e+00  -9.60539330e-01
C     1.169377969278841e+01   7.338685902322450e+00  -1.254999000000012e-01 -1.00850366e+00  -1.11831530e-01   1.24388863e+00
C     1.221218838479331e+01   6.024492882280352e+00   7.094400000000001e-03  1.62120071e+00   3.24067570e-01  -4.95078870e-01
C     1.366355514498316e+01   5.851812265613012e+00  -2.713200000000171e-02 -1.97428152e+00   1.38433213e+00   9.81620330e-01
C     6.079047481017173e+00   7.999608745159881e+00  -7.770659999999907e-02 -2.88710374e+00   2.89082495e+00  -2.04380900e-02
C     7.461009802210842e+00   7.915311619735362e+00  -1.955399999999941e-02  2.36750753e+00  -1.67639707e+00  -1.87190000e-03
C     8.043122984788827e+00   6.568459310728052e+00   1.538781000000000e-01 -9.92928780e-01   1.14656477e+00  -7.99221570e-01
C     9.460492430599054e+00   6.398412894902116e+00   8.559119999999999e-02 -1.40482692e+00  -1.15769680e+00   6.67363200e-01
C     9.977079146215891e+00   5.041648717809520e+00   1.413681000000000e-01 -4.78935350e-01   2.07595150e+00  -1.30371985e+00
C     1.136196686931612e+01   4.887631761651665e+00   1.013832000000000e-01  5.61115990e-01   1.43086518e+00   1.12743510e-01
C     1.192368062103180e+01   3.628522189816248e+00   1.039167000000000e-01  2.71962446e+00  -4.79338990e-01   1.87311340e-01
C     5.180934268035637e+00   6.893373826697725e+00   5.918399999999999e-02 -2.64714380e-01  -3.45335000e-02  -4.34319800e-01
C     5.736454567904841e+00   5.595811752573272e+00   1.272702000000000e-01 -7.64817400e-02   6.67925400e-02  -1.67625650e-01
C     7.140608318675215e+00   5.449625563019973e+00   1.697550000000000e-01  1.55320269e+00  -5.42637320e-01  -8.83358760e-01
C     7.725632935068093e+00   4.142283288979033e+00  -2.410229999999913e-02 -4.14940690e-01  -7.46476400e-02   3.12705700e-01
C     9.120101802032213e+00   3.949947638890258e+00  -5.736330000000223e-02  4.69827790e-01  -1.27483660e-01   1.15767051e+00
C     9.711525093772263e+00   2.653321199703822e+00  -5.807099999999821e-02 -9.41914100e-01  -6.20053900e-01  -4.28864340e-01
C     1.111728485274411e+01   2.516350107035825e+00  -4.793040000000204e-02  8.58138400e-02  -1.63914714e+00   3.33180590e-01
C     3.463345995514054e+00   4.594628212800210e+00   1.517139000000000e-01  1.77977608e+00  -1.25502630e-01  -5.29802660e-01
C     4.904993650073056e+00   4.440351363218001e+00   6.975840000000000e-02 -8.14550630e-01   1.10450043e+00   6.18158840e-01
C     5.484185460001690e+00   3.187563538415802e+00   6.260099999999999e-03  5.43473890e-01  -1.81434040e+00   2.23499080e-01
C     6.905189940498746e+00   2.992311647754431e+00  -9.495989999999921e-02 -1.31904928e+00   3.34388680e-01   3.20412130e-01
C     7.415219765268537e+00   1.677568226851234e+00  -1.250432999999980e-01  2.42048121e+00  -8.08837930e-01   1.13003501e+00
C     8.860855739786759e+00   1.492802798580696e+00  -6.162119999999760e-02 -9.06452340e-01   1.58669598e+00  -9.74364400e-01
C     9.422637344193898e+00   2.237032882758050e-01  -1.361427000000006e-01 -6.99362370e-01  -2.82290634e+00   1.41854990e-01
C     2.634857595036504e+00   3.490256003456822e+00   2.156166000000000e-01 -8.89598470e-01  -1.59699725e+00  -9.62690430e-01
C     3.258678962106815e+00   2.199634842439933e+00   1.185084000000000e-01 -1.79763247e+00  -6.94062540e-01   3.63627000e-02
C     4.660545706483374e+00   2.020224167838529e+00   7.529640000000000e-02  1.15398770e-01   2.73004730e-01  -5.38283880e-01
C     5.237853865526881e+00   7.186089473560296e-01  -1.831290000000152e-02 -4.69023380e-01  -6.68452260e-01   3.70344750e-01
C     6.636238257203249e+00   4.926024431691558e-01   1.088310000000000e-02 -1.20569873e+00   1.89494508e+00  -1.54490326e+00
C     9.856014418582800e-01   1.210328422854689e+00  -1.117203000000018e-01 -1.97079970e+00  -2.66926540e-01   4.31979500e-02
C     2.377803717331796e+00   1.054872701166092e+00  -1.293059999999713e-02  1.88523190e+00  -4.82637170e-01  -6.51257970e-01
C     1.603152468109812e+01   9.266066331331487e+00   3.208706400000000e+00  1.24543290e-01  -8.06330880e-01   1.62017530e-01
C     1.176831890972934e+01   8.802047233100696e+00   3.218857200000000e+00  1.40380129e+00  -4.92056910e-01   1.05056459e+00
C     1.321540208599144e+01   8.938481603508873e+00   3.169413600000000e+00 -2.01685387e+00   9.14473960e-01   4.62302100e-01
C     1.403890667136113e+01   7.791335384388494e+00   3.224993100000000e+00  5.02884090e-01   5.87313050e-01   3.17956930e-01
C     7.565167283069416e+00   8.293144735892522e+00   3.465321600000000e+00 -7.63051510e-01  -8.47260020e-01  -1.20876518e+00
C     8.963215097459969e+00   8.446698294537565e+00   3.396512400000000e+00  5.63280370e-01   1.28290943e+00  -5.60581680e-01
C     9.809865938918872e+00   7.341088962717705e+00   3.414192000000000e+00 -1.84463420e-01  -2.24670295e+00   6.61203690e-01
C     1.122543597218143e+01   7.504944648317259e+00   3.458371200000000e+00 -5.72831340e-01  -3.77821940e-01  -1.38316963e+00
C     1.204301454093669e+01   6.335531155137460e+00   3.497926200000000e+00  1.08910656e+00   2.48926340e-01  -2.49797370e-01
C     1.348082645007625e+01   6.522330879878900e+00   3.430094100000000e+00 -9.10057800e-01  -1.89238008e+00   4.20988690e-01
C     4.704457411160072e+00   7.969432913266846e+00   3.225803700000000e+00  1.04476171e+00  -9.55063130e-01   4.58351630e-01
C     5.569476239441595e+00   6.807889175357842e+00   3.369059100000000e+00 -5.51457020e-01   1.18298409e+00   3.16917720e-01
C     6.989530083853648e+00   6.975849464910739e+00   3.445827900000000e+00 -5.04683520e-01   4.31732380e-01  -1.29156070e-01
C     7.816654285285905e+00   5.832079068755682e+00   3.454502400000000e+00  1.68478880e-01  -2.49623500e-02   6.24053210e-01
C     9.231622347520911e+00   5.982495389018304e+00   3.459284400000000e+00  3.76335690e-01   1.30358299e+00  -1.89118700e-02
C     1.006465677087932e+01   4.836290574041924e+00   3.459636600000000e+00  7.77381410e-01   9.87397030e-01   6.02043320e-01
C     1.149339103213627e+01   5.008368587839191e+00   3.508275000000000e+00 -5.60242370e-01   7.95818710e-01   3.35020050e-01
C     1.233196627511959e+01   3.879687084673600e+00   3.579827400000000e+00  1.13779422e+00  -5.71965300e-01  -3.91189790e-01
C     3.584348350245494e+00   5.351173225458107e+00   3.586133100000000e+00 -1.05487334e+00   7.63614970e-01  -6.39942830e-01
C     4.969886771523830e+00   5.528928044890739e+00   3.506651400000000e+00  1.27489517e+00  -6.89108600e-01  -6.57298300e-01
C     5.822927800028040e+00   4.368481479687270e+00   3.428659200000000e+00 -4.00765760e-01   1.12001891e+00   1.45915592e+00
C     7.216928843368075e+00   4.544704481879760e+00   3.523236000000000e+00  1.19335786e+00  -1.13087798e+00  -1.04364922e+00
C     8.081794237534947e+00   3.374094529820495e+00   3.477831600000000e+00 -1.36511090e-01   1.79056273e+00   4.89104900e-02
C     9.495512907693502e+00   3.556295266876550e+00   3.490620000000000e+00 -2.31883750e-01  -1.32688323e+00  -8.09170050e-01
C     1.032462691750758e+01   2.403286883115680e+00   3.334380300000000e+00  1.84995859e+00  -1.83325510e-01   8.82674090e-01
C     1.178940626910640e+01   2.566612453126782e+00   3.442392000000000e+00 -1.71063598e+00   6.49236200e-02  -3.55285560e-01
C     3.028011293077602e+00   4.035261261188264e+00   3.630067500000000e+00 -1.06478189e+00   5.43360920e-01   7.66569000e-03
C     3.873893620877507e+00   2.904601757835958e+00   3.569155500000000e+00 -1.54238916e+00  -9.58090820e-01  -5.02996860e-01
C     5.247381715748705e+00   3.086388042578344e+00   3.484880400000000e+00  1.52806036e+00  -1.10783435e+00  -6.12318170e-01
C     6.102955051825828e+00   1.937244282412275e+00   3.325985400000000e+00  4.81974680e-01   8.44090310e-01   4.41738310e-01
C     7.528295818934975e+00   2.101441374733618e+00   3.345713700000000e+00 -8.05485480e-01  -7.42997170e-01   2.87449400e-02
C     8.365459962319051e+00   9.613072532784941e-01   3.259800600000000e+00  8.53421290e-01  -1.38855835e+00  -6.30271800e-01
C     9.789686183159793e+00   1.073158106476867e+00   3.242350800000000e+00 -5.79350000e-02   1.99459115e+00   1.18311450e-01
C     1.880865755096861e+00   1.425212921475528e+00   3.360939000000000e+00  5.49030190e-01  -4.00622790e-01   3.01771320e-01
C     3.300182675226463e+00   1.572458504740344e+00   3.415184400000000e+00  3.91475360e-01   1.19554810e+00  -1.72329330e-01
C     4.176297164572910e+00   4.638555133256668e-01   3.243123900000000e+00 -2.03952994e+00  -5.36782950e-01   1.64617097e+00
C     5.556246253969496e+00   6.471449553817014e-01   3.275420400000000e+00  7.07571240e-01  -6.65397690e-01  -6.03125930e-01
C     1.343028844388160e+00   9.652542276361140e-02   3.294522900000000e+00 -9.16537770e-01   1.25567048e+00   4.20706540e-01
