76
Lattice="10.7446858958278 0 0 5.37234294791388 9.3051709414712 0 0 0 30 " PBC="1 1 1" Properties=species:S:1:pos:R:3:force:R:3 Energy="-612.54429368"
C     1.298657535772090e-01   5.133253380076640e-02   9.269220000000000e-02 -5.93858260e-01   5.70883970e-01   3.52138030e-01
C     1.256639367091550e+01   8.548683619401931e+00   8.969460000000000e-02 -2.52250260e-01   1.68064339e+00  -2.03052830e-01
C     1.397154506577169e+01   8.400691110065761e+00   1.206180000000000e-01 -2.75129410e-01  -1.76790149e+00  -3.39230140e-01
C     1.450666072360593e+01   7.061318948821990e+00  -5.084700000000097e-02  2.06620752e+00   6.29637280e-01   1.03062450e-01
C     8.344405642851141e+00   9.020512454550955e+00  -7.412760000000063e-02 -9.36839140e-01  -2.80072390e-01   1.41986070e-01
C     9.749213207758531e+00   8.852878962601471e+00  -5.818559999999806e-02 -9.47981600e-02  -6.31235980e-01   1.28074440e-01
C     1.030131900761900e+01   7.525732121042092e+00  -1.082333999999996e-01  4.75013540e-01   1.33867141e+00   3.29912000e-01
C     1.173037754349641e+01   7.428364208101572e+00  -6.300690000000131e-02 -8.18721290e-01  -7.86365960e-01  -3.75925910e-01
C     1.229481174223512e+01   6.138525798064156e+00  -2.290287000000006e-01 -8.07979530e-01  -1.20968013e+00   8.80199070e-01
C     1.367796435973278e+01   5.932617160383750e+00  -2.176787999999981e-01  7.06296660e-01  -8.35548600e-02   2.53631490e-01
C     6.065906998778621e+00   8.041731486022783e+00   2.718960000000000e-02 -4.26684490e-01  -1.20023770e-01  -2.84669870e-01
C     7.472378700638203e+00   7.870273754920377e+00  -6.485400000000041e-02  8.40999020e-01   6.42399100e-02  -6.02347500e-02
C     8.048120177030629e+00   6.560756397172211e+00  -1.467671999999993e-01 -1.15181191e+00  -1.09579040e-01   3.51517200e-02
C     9.454369463892080e+00   6.384194593705796e+00  -1.634291999999995e-01 -2.47515090e-01   1.49731689e+00  -1.80946470e-01
C     1.001825439428757e+01   5.120924679943106e+00  -2.083437000000004e-01  6.56129610e-01  -1.67739268e+00   6.42906100e-01
C     1.144529298293921e+01   4.975398692268001e+00  -1.774808999999991e-01 -5.85628120e-01   3.46178980e-01  -1.03644823e+00
C     1.199715235342857e+01   3.673984463477806e+00  -2.068100999999984e-01 -1.72297350e-01  -6.33036090e-01   8.32165810e-01
C     5.219835242166297e+00   6.883536306928247e+00  -6.459360000000203e-02 -7.42670630e-01   2.50460950e-01  -2.84069010e-01
C     5.797822948869549e+00   5.568816148952399e+00  -2.373989999999999e-01 -2.57623709e+00   5.61093640e-01   6.14823280e-01
C     7.176518724379329e+00   5.396831466019662e+00  -1.923959999999987e-01  1.57937702e+00   1.39843506e+00  -4.17967800e-02
C     7.760594638730668e+00   4.119535309788852e+00  -1.462217999999993e-01 -8.82822700e-02   3.87343800e-02  -1.58669390e-01
C     9.175361560445626e+00   3.959210099095643e+00  -1.174989000000011e-01  5.82890700e-02   4.50434880e-01  -1.57748200e-01
C     9.743238571440408e+00   2.671272177171013e+00  -5.611500000000547e-03 -2.44547220e-01  -6.83267960e-01   7.81717500e-02
C     1.115069996631824e+01   2.513578468819636e+00  -4.913069999999919e-02  1.30877350e-01   8.54108110e-01  -1.46468300e-01
C     3.504093014129195e+00   4.597089523565550e+00  -2.437386000000004e-01 -8.88801360e-01   1.98979438e+00  -1.36725090e-01
C     4.871408877908566e+00   4.444060032147847e+00  -2.653451999999987e-01  3.33604965e+00  -5.13769150e-01   2.95246540e-01
C     5.484465090452238e+00   3.123108945607157e+00  -1.835982000000023e-01 -8.05930800e-01   1.56261374e+00  -4.40664110e-01
C     6.890140987150636e+00   3.014330194594625e+00  -1.235637000000018e-01  8.17743070e-01  -1.62312548e+00   5.81926300e-01
C     7.481879151910983e+00   1.703500249433663e+00   6.042690000000001e-02 -9.36895300e-02   8.14807020e-01  -3.10231740e-01
C     8.896148594668771e+00   1.508172893835969e+00   1.240290000000000e-01 -4.20246390e-01   1.83064048e+00  -2.21644040e-01
C     9.430178072205377e+00   2.242705314963074e-01   1.815078000000000e-01  2.00199313e+00  -6.35792060e-01  -3.86064500e-01
C     2.657605545619401e+00   3.501045442213462e+00  -1.906046999999980e-01 -3.97625860e-01  -1.83843024e+00  -2.03882290e-01
C     3.223856187232928e+00   2.169696013250740e+00  -1.271649000000004e-01 -2.99342500e-01   6.58360380e-01  -4.69371860e-01
C     4.622010911248186e+00   2.004878917389665e+00  -1.646709000000008e-01  6.92256440e-01  -7.28295200e-01   1.00165717e+00
C     5.190771618934812e+00   7.012778803768608e-01   1.354560000000000e-02  1.32865248e+00   5.69644570e-01  -8.63120170e-01
C     6.641372014402840e+00   5.956496741411944e-01   7.106040000000001e-02 -1.44862635e+00  -2.25544342e+00   2.51036700e-01
C     9.609638233661505e-01   1.228601080081276e+00   3.611010000000000e-02  1.12511657e+00  -1.96763962e+00  -4.56970670e-01
C     2.408089978371844e+00   1.019198536816320e+00  -6.893579999999844e-02 -1.45661329e+00   4.97160400e-01   3.62214620e-01
C     1.600450657744485e+01   9.248839203111718e+00   3.683644200000000e+00 -4.88078250e-01   3.89095180e-01   4.66961300e-01
C     1.173595247749905e+01   8.769561020314967e+00   3.685348200000000e+00 -2.64739540e-01  -8.38362700e-02  -3.31752040e-01
C     1.315344398294111e+01   8.895454772237441e+00   3.762866400000000e+00  5.42307410e-01   1.14186937e+00  -1.98362570e-01
C     1.401321172205301e+01   7.764952619325731e+00   3.634815300000000e+00  6.68557780e-01   1.28761840e-01   3.12096130e-01
C     7.512009400111762e+00   8.284086058930724e+00   3.564979500000000e+00  4.26543330e-01   6.06310100e-02  -2.23970860e-01
C     8.927351753480096e+00   8.445449819752545e+00   3.550650000000000e+00  5.97231180e-01  -6.65873710e-01  -1.08265130e-01
C     9.775888287314448e+00   7.239109779266159e+00   3.489121500000000e+00 -6.53125720e-01   3.51956622e+00  -6.90174700e-02
C     1.117319213965328e+01   7.457101274463865e+00   3.526304700000000e+00  1.72252500e-01   9.02769040e-01   3.92150120e-01
C     1.204008903158327e+01   6.371316144073127e+00   3.433715700000000e+00  1.40852060e-01  -2.39435706e+00  -3.80165500e-01
C     1.345544696474616e+01   6.471464907349065e+00   3.463418100000000e+00 -6.41367400e-02   5.91785280e-01  -7.74899800e-02
C     4.699349817270648e+00   7.932360367828210e+00   3.657261600000000e+00 -3.81254850e-01   5.57352850e-01  -5.55514410e-01
C     5.575297387921638e+00   6.820623860099488e+00   3.461286000000000e+00 -2.03343770e+00  -5.16026450e-01   2.04036080e-01
C     6.943779802249173e+00   6.989320653932286e+00   3.450450900000000e+00  2.06281372e+00  -1.24863815e+00   5.89492400e-02
C     7.805881018521411e+00   5.797525805297344e+00   3.363464700000000e+00 -1.74840491e+00   1.21647540e+00   3.30312700e-02
C     9.197233443063666e+00   5.993507128308701e+00   3.354960300000000e+00  3.44743090e-01  -2.03817597e+00   3.24159280e-01
C     1.005755550052115e+01   4.842277334921302e+00   3.332224800000000e+00  4.14193130e-01   2.33162930e-01  -2.54703080e-01
C     1.148073094480430e+01   5.047913982455131e+00   3.302425200000000e+00  1.74223340e-01  -9.76496090e-01   1.53051050e-01
C     1.235734989715375e+01   3.871439446410931e+00   3.251337300000000e+00 -1.81462954e+00   7.70032610e-01   5.48468290e-01
C     3.557391276408131e+00   5.342677139131340e+00   3.318534900000000e+00  1.04725115e+00   1.59044650e-01   7.57148600e-02
C     4.996176224302796e+00   5.517481009703769e+00   3.330343200000000e+00 -1.30670292e+00  -2.01945590e-01   1.15083830e-01
C     5.788102553876396e+00   4.346383745842378e+00   3.313432200000000e+00  7.43228920e-01   6.69286740e-01  -8.68568600e-02
C     7.196096885174867e+00   4.497648139384470e+00   3.355873200000000e+00  1.38833152e+00   1.69287220e-01   1.57638400e-01
C     8.063096335131767e+00   3.359054954237010e+00   3.466724100000000e+00  3.13211060e-01   2.31824290e-01  -2.26739360e-01
C     9.489006678040475e+00   3.532423409140236e+00   3.388001700000000e+00 -5.74544400e-01   5.25313880e-01   3.94608390e-01
C     1.033655953588068e+01   2.410217188328373e+00   3.494466900000000e+00  1.65314110e-01  -4.36802550e-01   3.72802310e-01
C     1.173825694400746e+01   2.575357824983032e+00   3.396059100000000e+00  1.54088320e+00  -1.51549250e-01  -9.11854800e-02
C     3.014273460026439e+00   4.036721800819006e+00   3.248317200000000e+00  1.42094020e-01  -1.42076065e+00  -2.18098900e-02
C     3.836715019896616e+00   2.822318829713110e+00   3.286807800000000e+00  6.09598990e-01   3.48715250e+00   1.32035000e-02
C     5.260838575263583e+00   3.044582142785950e+00   3.323476800000000e+00 -9.70291890e-01  -1.09371225e+00   6.70389690e-01
C     6.108812463620783e+00   1.925769238660777e+00   3.578162400000000e+00 -5.73035360e-01  -5.19952770e-01  -6.55460410e-01
C     7.510882390007711e+00   2.052667111579386e+00   3.632208000000000e+00  5.51724670e-01   5.05811480e-01   1.05512600e-01
C     8.369712870168559e+00   9.247201586077988e-01   3.789857100000000e+00 -1.35474250e-01  -5.15129500e-01  -3.80331440e-01
C     9.793060712936976e+00   1.113262369659463e+00   3.744801600000000e+00 -5.99050170e-01  -8.35464820e-01  -7.90861930e-01
C     1.869403216731882e+00   1.426103240231067e+00   3.494223300000000e+00 -2.22620319e+00  -3.46104700e-02   3.16139600e-02
C     3.247345897206931e+00   1.579875842600037e+00   3.427119000000000e+00  1.05752534e+00  -7.08235520e-01   7.40671200e-02
C     4.123268701356922e+00   4.675703236683336e-01   3.538634100000000e+00 -6.73570080e-01  -1.64816862e+00   4.19592500e-02
C     5.518828261386752e+00   6.250713219295428e-01   3.614993700000000e+00  7.92698720e-01  -2.05822630e-01   1.84351730e-01
C     1.287567354496975e+00   1.169811661444322e-01   3.622081500000000e+00  6.16553750e-01   3.47898660e-01  -3.51635650e-01
