52
Lattice="8.88768389401873 1.33226762955019e-15 0 4.44384194700937 7.69696003302603 0 0 0 30 " PBC="1 1 1" Properties=species:S:1:pos:R:3:force:R:3 Energy="-418.92936327"
C     1.324980367543707e+01   7.587328995569497e+00  -2.117915999999980e-01  2.07026160e-01  -1.22433740e-01   2.53391740e-01
C     9.471367069686124e+00   7.358821800138058e+00  -2.125781999999994e-01  8.48436910e-01   5.44743570e-01   4.11387660e-01
C     1.087224331535778e+01   6.977774326592070e+00  -3.139725000000020e-01 -1.26548479e+00  -5.14822930e-01   1.99706260e-01
C     1.120602121615277e+01   5.591143501459480e+00  -2.889756000000006e-01  2.84540580e-01  -1.99661540e-01  -1.47976150e-01
C     7.077199050180285e+00   6.757834694339625e+00  -7.061039999999963e-02  3.55138710e-01   2.21239380e+00   3.76218100e-01
C     8.444229795761373e+00   6.376599491938506e+00  -1.132586999999994e-01  2.02259100e-01  -2.36408620e-01  -5.65811140e-01
C     8.757648679068762e+00   4.988766555588429e+00  -1.915113000000019e-01  2.03350003e+00   7.59241480e-01   5.70195700e-02
C     1.017988682846059e+01   4.581853909679229e+00  -2.260662000000018e-01 -1.09426772e+00   1.88442762e+00   1.93281260e-01
C     1.051300939591092e+01   3.236735022106836e+00  -1.083639000000005e-01  9.31452900e-02  -1.50912697e+00   1.32190900e-02
C     4.715140988321284e+00   6.199969037413264e+00  -1.866137999999999e-01 -1.19025276e+00   1.15080677e+00  -6.43680620e-01
C     6.044651043215174e+00   5.829542214164673e+00  -1.447560000000010e-01  7.89103710e-01  -1.61512545e+00   1.08279630e-01
C     6.364624860019696e+00   4.438230251881036e+00  -1.942056000000001e-01  1.17139123e+00   5.56934830e-01  -2.55215050e-01
C     7.726927446642217e+00   4.047875229418771e+00  -2.097510000000007e-01  5.99099590e-01  -9.98171680e-01   2.78676720e-01
C     8.103013033553367e+00   2.664238059920248e+00  -1.990844999999979e-01 -4.58932610e-01  -5.23511460e-01  -3.87467000e-03
C     9.462524176403949e+00   2.249607749158567e+00  -7.877369999999928e-02  7.49729390e-01   5.10236550e-01  -4.29831870e-01
C     3.722290621293821e+00   5.196883811173996e+00  -2.980892999999973e-01 -2.52000118e+00   2.15126792e+00   7.66849590e-01
C     4.019964261620816e+00   3.879018550584628e+00  -1.780091999999982e-01 -3.82001000e-03  -3.95033742e+00  -3.02128920e-01
C     5.380290049574146e+00   3.460373197592898e+00  -2.326428000000007e-01 -1.02418938e+00  -2.09651120e-01   7.01750380e-01
C     5.716555079841208e+00   2.092661038396445e+00  -2.047253999999974e-01 -5.72588730e-01  -1.69114180e+00  -2.81418940e-01
C     7.059202909037611e+00   1.685774023364145e+00  -2.694236999999973e-01  1.39394924e+00  -9.74499990e-01   2.20099460e-01
C     7.436169754224227e+00   2.703549513577470e-01  -3.128048999999997e-01 -3.87176600e-02   1.26858223e+00   3.95241500e-01
C     3.000343524099505e+00   2.813007366407298e+00  -8.696339999999836e-02  4.67553700e-02   2.63247080e+00   2.29892300e-02
C     3.356873006913373e+00   1.470810783649495e+00   2.887500000000000e-03 -1.16196467e+00  -1.60109254e+00  -3.04625170e-01
C     4.698591317682020e+00   1.051420287957261e+00  -1.289192999999997e-01  6.55718120e-01   6.10392560e-01  -8.33308700e-02
C     9.686266734319260e-01   8.731527670032374e-01  -6.770159999999947e-02 -2.52845636e+00   1.09789780e-01  -8.52691000e-02
C     2.284786049509617e+00   4.682190095177504e-01   2.600100000000000e-02  2.42043966e+00  -2.95991460e-01  -5.02510010e-01
C     7.061944765610371e-02   1.106481876984671e-01   3.644168100000000e+00  9.80136790e-01  -1.36175314e+00  -9.53504100e-02
C     6.938881581429126e+00   7.195376007235405e+00   3.462512100000000e+00 -7.05847980e-01   3.86308510e-01   3.05081760e-01
C     8.295237597040435e+00   7.614599401925387e+00   3.453826500000000e+00  8.99412830e-01  -6.08906200e-01   4.45401310e-01
C     9.338029547203377e+00   6.612826815249636e+00   3.506032200000000e+00 -6.82072510e-01   2.21992319e+00  -3.76299540e-01
C     1.068574389002437e+01   7.046833299251638e+00   3.616086600000000e+00  3.72718200e-02  -6.01857800e-01   2.52274310e-01
C     1.167974214455779e+01   6.038167238203418e+00   3.681089100000000e+00  1.25710302e+00  -2.67997870e-01  -1.78165930e-01
C     4.188357210189193e+00   6.393495704657162e+00   3.709035900000000e+00 -7.78400560e-01   1.77336412e+00  -1.56425170e-01
C     5.231834267506571e+00   5.456031911758462e+00   3.684169200000000e+00 -6.30477870e-01  -1.41989712e+00  -6.03262790e-01
C     6.586434743318457e+00   5.815142125583746e+00   3.531342000000000e+00  4.36341180e-01   1.10093562e+00   2.33181160e-01
C     7.625163244441077e+00   4.865994732207509e+00   3.497663400000000e+00 -6.23123320e-01   1.39015150e-01  -3.69400430e-01
C     8.968732593674751e+00   5.279814322169229e+00   3.420751800000000e+00  5.87549190e-01  -1.63030607e+00   5.36185070e-01
C     9.970825306309191e+00   4.268368427036575e+00   3.464831700000000e+00  1.12440435e+00   1.68554150e-01   3.20553470e-01
C     1.134310556288124e+01   4.658878620213044e+00   3.611539800000000e+00  1.51634810e-01  -4.30932720e-01  -3.46757510e-01
C     3.505050518320107e+00   3.664995494537643e+00   3.631088100000000e+00 -1.64901720e-01   9.74349900e-02  -1.99205330e-01
C     4.889626530047419e+00   4.056746437670948e+00   3.646669800000000e+00 -3.98737500e-01   5.91165160e-01   7.34373590e-01
C     5.943058993152349e+00   3.109165221721615e+00   3.699322500000000e+00 -1.53191088e+00  -9.67448260e-01  -1.14168288e+00
C     7.283344387613463e+00   3.502008363483177e+00   3.554228700000000e+00  1.48034770e-01  -3.76107460e-01   5.03134520e-01
C     8.283002097072460e+00   2.518765900201249e+00   3.542901600000000e+00  6.33605400e-01  -1.82573670e+00   1.10604930e-01
C     9.645683121769475e+00   2.889573415092925e+00   3.479277000000000e+00  2.34040580e-01  -4.53388790e-01  -1.75344450e-01
C     1.784562182267992e+00   1.880956383680096e+00   3.465810300000000e+00  1.26529400e-02  -4.48662550e-01   6.01739100e-01
C     3.153156982966477e+00   2.279324403351192e+00   3.550784700000000e+00  7.63500720e-01  -3.40999140e-01  -1.86364100e-01
C     4.219734686019168e+00   1.281087954052423e+00   3.555815100000000e+00 -8.81318090e-01   1.39305525e+00  -1.95673390e-01
C     5.588886077944167e+00   1.714712130049735e+00   3.625697100000000e+00 -4.31194800e-01  -5.48964900e-02   5.49979610e-01
C     6.599625662689533e+00   7.277834386702398e-01   3.689752800000000e+00 -1.47068990e-01  -3.80361180e-01  -6.28468590e-01
C     7.967690135270755e+00   1.096060808860853e+00   3.652288800000000e+00 -6.18242300e-01   1.57645767e+00  -1.21752560e-01
C     1.445401587217269e+00   4.612607267418295e-01   3.524019000000000e+00  3.29627130e-01   1.68997957e+00  -2.11455040e-01
