64
Lattice="7.10842262195238 0 0 0 7.10842262195238 0 0 0 7.10842262195238 " PBC="1 1 1" Properties=species:S:1:pos:R:3:force:R:3 Energy="-512.87165612"
C     7.105350999501672e+00   7.048625858078298e+00   7.097558959878306e+00  1.52982370e-01   1.82912153e+00  -4.87863980e-01
C     1.770112815331801e+00   1.801312179800564e+00   7.075717051862284e+00 -1.24061560e-01  -3.08798950e-01   4.49035040e-01
C     3.403086245098800e-02   1.709510953464158e+00   1.774475822967505e+00 -1.14028195e+00   1.71407482e+00  -1.19551880e-01
C     1.764373332739961e+00   7.106702168473281e+00   1.740964301873134e+00  1.42403597e+00  -2.85949540e-01   7.42588220e-01
C     9.259655220124530e-01   8.565900184418486e-01   8.296100714718647e-01 -1.58468817e+00   7.16617100e-01   1.32347083e+00
C     2.614164216030006e+00   2.690525806267320e+00   9.060798519014553e-01  1.17098561e+00  -5.82013950e-01   7.16396400e-02
C     8.634805679085457e-01   2.640007739475730e+00   2.691397867554342e+00  2.93790550e-01  -2.02881980e-01  -7.21531670e-01
C     2.655782182280225e+00   8.540937536703832e-01   2.681111411349392e+00 -3.53839680e-01   1.38141466e+00  -1.58656574e+00
C     3.606397012738242e+00   5.087832164997140e-02   7.077295690357734e+00 -1.79009015e+00  -1.24849701e+00   1.33375085e+00
C     5.352075336156054e+00   1.819786756937266e+00   7.093155149896764e+00 -3.36457930e-01  -9.26254200e-02   1.34667170e-01
C     3.572185240931575e+00   1.823002749499007e+00   1.782665294499554e+00 -1.24247746e+00  -1.95435241e+00  -2.65425600e-02
C     5.373213936838054e+00   1.025560565077880e-02   1.695317139513447e+00 -1.57854642e+00  -1.72633430e-01   2.61984923e+00
C     4.471325495250255e+00   9.770155831529235e-01   8.738506191635064e-01 -8.75813900e-02  -2.41368580e+00  -5.87448560e-01
C     6.213438020629198e+00   2.675215045870328e+00   9.238696036029460e-01  1.05441372e+00  -4.69821230e-01  -1.32123281e+00
C     4.447641652764939e+00   2.641735868098878e+00   2.680657467480879e+00  1.26194860e-01   1.44957696e+00  -3.26690920e-01
C     6.223656946819257e+00   8.507817263190466e-01   2.668628452554862e+00  7.33721310e-01   6.43506920e-01  -5.21562990e-01
C     4.374736533026600e-03   3.568820753421302e+00   7.082480431648310e+00 -8.69759610e-01  -1.94041510e-01   1.24981281e+00
C     1.763042280604366e+00   5.324284104912451e+00   7.089727823930531e+00  2.20582646e+00  -8.91446470e-01   9.05988870e-01
C     2.471164931194180e-02   5.345974319189761e+00   1.729168372124827e+00 -1.27703576e+00  -9.41580400e-01   2.32741644e+00
C     1.728147602636595e+00   3.537773864617738e+00   1.817149816482151e+00  6.51610200e-01   5.72026850e-01  -8.89042180e-01
C     8.936425291801461e-01   4.439661950784405e+00   8.930567951562582e-01 -1.93232520e-01  -1.10708690e-01  -6.51511310e-01
C     2.692800714758398e+00   6.194887880960046e+00   8.775602205919796e-01 -5.44161400e-01   1.04406263e+00   3.03045170e-01
C     8.729409543208250e-01   6.249334488596805e+00   2.661207259339582e+00  3.80827660e-01  -7.01961750e-01  -1.87400830e-01
C     2.619077273408045e+00   4.419738534949296e+00   2.694083998293987e+00  1.37937535e+00   6.73637760e-01  -2.99485040e-01
C     3.523494180921777e+00   3.560978030744657e+00   3.453790623647260e-02  1.13627226e+00  -2.65524890e-01  -3.35413340e-01
C     5.272667644657618e+00   5.297760305421992e+00   3.030853694602500e-02  1.89619593e+00   9.93415160e-01  -1.67986036e+00
C     3.552578292071507e+00   5.311555692284852e+00   1.823243582857372e+00 -3.11225060e-01   1.90765160e-01  -1.56803557e+00
C     5.315151843288310e+00   3.543543273668809e+00   1.811494710866810e+00  9.01504910e-01   8.55660530e-01  -4.41016230e-01
C     4.444586808143994e+00   4.453741887804744e+00   9.104694450377578e-01 -1.28751813e+00  -1.51757785e+00   9.00646340e-01
C     6.215863983100951e+00   6.170451825193081e+00   8.582816808569561e-01 -3.55985200e-02   1.43958486e+00   5.34408600e-02
C     4.453047537083223e+00   6.227515540785846e+00   2.631346624102843e+00  1.90142510e-01  -1.73718080e-01   1.16956187e+00
C     6.221874438763066e+00   4.452931456541839e+00   2.691597045556154e+00  4.58198960e-01  -4.54836810e-01  -3.94617410e-01
C     7.083387182037717e+00   7.084885637526013e+00   3.600784131153263e+00  8.47306030e-01   7.40475510e-01  -1.04104841e+00
C     1.725851013456526e+00   1.748036898043129e+00   3.552226140814913e+00  1.76272392e+00  -1.67044540e-01   7.15338350e-01
C     7.103957819752377e+00   1.759900215637873e+00   5.330835227199042e+00  5.06041150e-01   2.38115700e-02   9.43690000e-02
C     1.807733217953210e+00   1.249660696596000e-03   5.375882225436923e+00 -5.39077730e-01   4.20820370e-01  -6.18723340e-01
C     8.956258501753525e-01   8.687508235232398e-01   4.491819148747942e+00 -5.01866230e-01  -6.02285900e-02  -1.27035337e+00
C     2.627357306244273e+00   2.645799824394958e+00   4.428328068506399e+00  7.81766850e-01   2.42128720e-01  -1.10003780e-01
C     8.528645652309328e-01   2.698004222284691e+00   6.158137122761967e+00  9.90029810e-01  -9.67761930e-01   2.16369692e+00
C     2.668835236568878e+00   9.072355392510150e-01   6.232514254656456e+00  1.04437802e+00   5.45586310e-01  -8.16243210e-01
C     3.542643844954700e+00   7.094591619939813e+00   3.532909571018872e+00  1.06231547e+00   1.24568354e+00   1.13123690e-01
C     5.383947086320444e+00   1.808169319680948e+00   3.534998949679569e+00 -1.58621692e+00  -2.24610972e+00   8.67244100e-02
C     3.581192678654508e+00   1.814838655035710e+00   5.290571557626386e+00 -1.99861068e+00  -1.20275102e+00   1.02084676e+00
C     5.285539220916784e+00   9.495217683117400e-03   5.320463185585749e+00  1.45982752e+00  -3.30140900e-02   2.47438520e-01
C     4.422463548760673e+00   9.046599444831104e-01   4.400714405659842e+00  1.26883911e+00   1.08330950e-01   6.79406590e-01
C     6.254765607815390e+00   2.628457334644718e+00   4.458107241219913e+00 -1.10941869e+00   1.44047599e+00  -8.04699990e-01
C     4.409346376499987e+00   2.705807919721153e+00   6.210082702984105e+00  1.44552206e+00  -1.27957017e+00   1.68843710e-01
C     6.237371866338059e+00   8.911560740318963e-01   6.204159609835990e+00 -1.38525362e+00  -4.35342590e-01   8.73160290e-01
C     2.608720017313800e-02   3.549626093073195e+00   3.581419152999181e+00 -9.28640540e-01   6.29701620e-01  -4.44878370e-01
C     1.780183246573329e+00   5.379528775156757e+00   3.570731355253106e+00  3.34402800e-02  -5.85791690e-01  -2.29911720e-01
C     9.259715641716801e-03   5.371814430592628e+00   5.359192146714746e+00 -8.16156750e-01  -1.26596390e+00  -2.89955940e-01
C     1.772174542228506e+00   3.548177538711692e+00   5.325810567585870e+00  5.75586220e-01   9.12060700e-01  -7.96452370e-01
C     8.942800836049339e-01   4.506773421750540e+00   4.437071286160546e+00  1.07267910e-01  -1.44261075e+00   9.45226660e-01
C     2.704042258626571e+00   6.279728682035400e+00   4.469350420025288e+00 -9.82512010e-01  -2.60912486e+00  -3.11120720e-01
C     8.977415299997430e-01   6.207140669030140e+00   6.244376505987807e+00  3.33992300e-01   5.78072100e-02  -9.22879840e-01
C     2.728494663765562e+00   4.386843882769889e+00   6.219605501346988e+00 -3.07279233e+00   2.40409625e+00  -3.47741910e-01
C     3.538503899620812e+00   3.505291074444934e+00   3.536857517857794e+00 -5.15393320e-01   1.73845713e+00   9.61936620e-01
C     5.357286165357646e+00   5.340398045981276e+00   3.597351544954292e+00 -6.80354640e-01  -3.05106000e-03  -1.60115849e+00
C     3.598147190698148e+00   5.326311782464805e+00   5.344280879668998e+00 -1.97190182e+00  -6.67708350e-01  -9.38647500e-01
C     5.317888088407427e+00   3.520796321284808e+00   5.298477900685481e+00  4.43751280e-01   1.65908274e+00   1.20983770e+00
C     4.432711121893891e+00   4.443426571403958e+00   4.432393730823908e+00  7.13623760e-01  -7.01034380e-01  -3.18630640e-01
C     6.221955474780934e+00   6.237283792981797e+00   4.492213452950672e+00 -6.30596140e-01  -4.16960780e-01  -8.54079430e-01
C     4.417744977825517e+00   6.191616442701870e+00   6.197300266344595e+00  1.52188939e+00   1.86028786e+00   1.51131106e+00
C     6.190522029955294e+00   4.448733222142466e+00   6.229334230713173e+00  4.35313680e-01  -4.57264890e-01  -5.00179470e-01
