64
Lattice="7.10842262195238 0 0 0 7.10842262195238 0 0 0 7.10842262195238 " PBC="1 1 1" Properties=species:S:1:pos:R:3:force:R:3 Energy="-507.02161205"
C     7.039875176580399e+00   4.909645335181600e-03   7.103485393985053e+00  2.40869057e+00   1.02177166e+00  -1.87316620e-01
C     1.734168934185319e+00   1.797364801635452e+00   7.101819250807151e+00  8.92849900e-02  -2.12556267e+00   4.67591500e-02
C     7.076545538518646e+00   1.805440609489808e+00   1.826489999467926e+00  1.75925926e+00   1.01024596e+00  -4.63792000e-01
C     1.755741077562911e+00   4.051146918518959e-02   1.769397423679324e+00 -9.08023400e-02  -6.89378660e-01   4.17900400e-02
C     8.464087668916750e-01   9.212632293650967e-01   9.191041881627241e-01 -1.49204660e-01  -6.79125000e-01  -2.05337500e-01
C     2.710031673357731e+00   2.595235126350981e+00   7.951930084199321e-01 -1.84842580e-01   3.54447052e+00   1.83668229e+00
C     9.875833907251726e-01   2.688245566459276e+00   2.742613981447215e+00 -2.03021307e+00  -1.52705250e+00  -4.33882647e+00
C     2.662219356552218e+00   9.727011971279407e-01   2.662680764264482e+00 -4.86190590e-01  -3.76914342e+00   9.86086970e-01
C     3.591714992321989e+00   7.060858031722794e+00   7.095906464871835e+00 -1.60607237e+00   1.94079386e+00   2.26009200e-02
C     5.396134263649755e+00   1.797034615404753e+00   6.720409371287299e-02 -6.09188800e-01  -1.14303237e+00  -1.52888560e+00
C     3.535286129953417e+00   1.816816857966630e+00   1.792641752394046e+00  6.95023930e-01  -1.56386307e+00  -1.42359440e-01
C     5.330652753990387e+00   7.017619060778310e+00   1.847598318269564e+00  6.41007610e-01   4.30125520e+00  -1.43141841e+00
C     4.463779122712637e+00   9.162903190685973e-01   1.006557832140513e+00 -2.14505760e-01  -2.45954996e+00  -3.24473775e+00
C     6.251123323149128e+00   2.699719413578670e+00   9.346690035841548e-01 -9.15514340e-01   6.17971960e-01  -1.22064983e+00
C     4.400254775053233e+00   2.625872214590503e+00   2.707453021968099e+00  5.82864830e-01   2.96031107e+00  -5.90015180e-01
C     6.157834872632165e+00   1.028919508018509e+00   2.686638565357573e+00  1.14123840e+00  -6.49653149e+00   9.59652960e-01
C     7.083708553824366e+00   3.583124747922623e+00   7.100630011702824e+00  1.22827385e+00   5.48820800e-02  -2.45205070e-01
C     1.698140036304301e+00   5.341995024207085e+00   7.026948296793250e+00  1.75195082e+00  -8.81337880e-01   2.40402440e-01
C     3.616175429978540e-02   5.362231210637475e+00   1.731813558350182e+00 -6.19930790e-01  -9.76193200e-02   2.42184176e+00
C     1.846015485804768e+00   3.526658139829939e+00   1.718399040771301e+00 -1.31651006e+00   9.57236560e-01   1.16261139e+00
C     9.161470843528041e-01   4.488853514830877e+00   8.813853338880278e-01 -5.62443980e-01  -2.19057817e+00  -8.98461500e-01
C     2.567329165166290e+00   6.201990190336593e+00   7.250888915307777e-01  3.30387979e+00   1.78084705e+00   5.09628459e+00
C     8.499201144132764e-01   6.237094780024331e+00   2.747671126551761e+00  1.36875575e+00   7.74324680e-01  -3.17647274e+00
C     2.610147530744348e+00   4.445329780476237e+00   2.653855159992168e+00  2.38129844e+00   1.19680023e+00  -5.30876250e-01
C     3.650486008859624e+00   3.549329600765715e+00   7.049344235268275e+00 -2.03342764e+00  -2.19976770e-01   6.16267250e-01
C     5.393088091304407e+00   5.253646429821439e+00   6.115731401117000e-02 -7.73442500e-01   3.29041405e+00  -3.38129092e+00
C     3.525007350844897e+00   5.385209542177756e+00   1.712892998778301e+00 -1.28326860e+00  -2.06812212e+00   9.65278880e-01
C     5.319399552309117e+00   3.589609264289266e+00   1.771542176952231e+00 -5.09125020e-01  -1.34846633e+00   9.10124540e-01
C     4.419767110808229e+00   4.482821733900902e+00   8.738325637700516e-01  1.04057624e+00  -2.19478617e+00   6.42156770e-01
C     6.270765885206521e+00   6.221201697646309e+00   8.578611465747570e-01 -2.52809709e+00  -6.39499840e-01   2.37854870e+00
C     4.439711709742746e+00   6.166327731641636e+00   2.677187917484283e+00 -8.41124040e-01   8.45138600e-01   8.27951640e-01
C     6.209263670529829e+00   4.451146531621957e+00   2.617259862996789e+00  1.05138972e+00   3.12189300e-02   6.76918410e-01
C     1.295559781453340e-02   4.788773716951120e-02   3.590940103172182e+00 -1.84884986e+00  -4.11426620e-01  -1.79641120e+00
C     1.760037834699796e+00   1.769269614240617e+00   3.640482254622273e+00  1.61319276e+00   6.17143140e-01  -2.71827477e+00
C     7.094614224723744e+00   1.800667161532026e+00   5.259772539519581e+00 -4.29438320e-01  -2.26261130e-01   2.04886151e+00
C     1.664601858625105e+00   2.499136574203880e-02   5.284538426096113e+00  2.35753582e+00  -2.71800940e-01   3.90056976e+00
C     8.329252976133804e-01   8.945239025008000e-01   4.469713020663135e+00  1.82751617e+00   1.19948955e+00  -1.35186266e+00
C     2.688414533664953e+00   2.681752377817037e+00   4.400445494032128e+00  3.20538710e-01  -2.44953113e+00   3.48882474e+00
C     8.195279824172402e-01   2.666440195735521e+00   6.214759192057351e+00  2.41579033e+00  -6.20429580e-01   7.98186180e-01
C     2.619895097430476e+00   8.692650468155705e-01   6.226460153279453e+00  1.30585278e+00   6.68224710e-01  -9.92235010e-01
C     3.550762516597455e+00   7.041506204150559e+00   3.602318626344243e+00 -6.60131110e-01   3.09461559e+00  -8.06080350e-01
C     5.266100457335906e+00   1.753852227504325e+00   3.628602800908181e+00  5.22075940e-01   8.53202750e-01  -2.34057213e+00
C     3.634811723729846e+00   1.739576026935448e+00   5.319912140664246e+00 -3.59376706e+00   2.12556520e+00   2.53129096e+00
C     5.352147913151005e+00   1.100412255266480e-02   5.333282941444013e+00  1.71507558e+00  -2.23474145e+00   1.30966803e+00
C     4.433585528960378e+00   8.595641113818304e-01   4.575468436023733e+00  1.22979908e+00  -1.73500074e+00  -5.40196436e+00
C     6.229477465428966e+00   2.658076212428151e+00   4.326443118178165e+00 -6.56733470e-01   5.61448530e-01   3.00758682e+00
C     4.572913100260294e+00   2.661861731810205e+00   6.184825766572984e+00 -3.07078019e+00  -1.55420521e+00   2.42831384e+00
C     6.279110960109723e+00   8.598389230003196e-01   6.165162590089992e+00 -2.85899975e+00   2.28249316e+00   2.14159489e+00
C     5.699071209245699e-02   3.531297096431751e+00   3.452388060780108e+00 -2.18136218e+00   1.57531863e+00   3.25938487e+00
C     1.727183984866228e+00   5.354061998109892e+00   3.603142990115484e+00  8.40710310e-01  -2.02865230e+00  -4.31099750e-01
C     2.208174619522040e-02   5.326241409080867e+00   5.291361161211015e+00 -1.02852661e+00  -7.60893000e-01   1.13830251e+00
C     1.855909272744189e+00   3.423502985463738e+00   5.432334901021272e+00 -2.32926408e+00   3.59604328e+00  -4.43416433e+00
C     8.708123371672659e-01   4.348640731662092e+00   4.482419752601741e+00  1.69160051e+00   2.33504612e+00  -9.17735520e-01
C     2.584357249384048e+00   6.273671879457804e+00   4.496724386861099e+00  2.11657287e+00  -2.13796640e+00  -1.60901306e+00
C     7.645997791479762e-01   6.254745064474018e+00   6.221796672619604e+00  3.66278572e+00  -1.50957078e+00  -1.49602366e+00
C     2.708196349721473e+00   4.394630519992063e+00   6.155724950630096e+00 -2.94426680e-01   1.70302964e+00   2.34946134e+00
C     3.542076877166529e+00   3.573439024513290e+00   3.558653007874107e+00 -1.20085235e+00  -7.91328000e-02  -1.08668074e+00
C     5.321907474893679e+00   5.289720252933415e+00   3.588721990977838e+00  1.15771295e+00   2.10209400e-02  -1.67006282e+00
C     3.610248000692627e+00   5.396681541107269e+00   5.349503437767913e+00 -2.59568911e+00  -2.82572832e+00  -7.51937470e-01
C     5.330176276422169e+00   3.506631367529935e+00   5.315927940869962e+00  2.36476426e+00   2.85435383e+00  -2.17381307e+00
C     4.392598293049232e+00   4.413426753252319e+00   4.440959806586365e+00  2.13471532e+00   1.38152673e+00   5.26753210e-01
C     6.313876833459618e+00   6.192125050340331e+00   4.423505359179861e+00 -4.43659473e+00   1.31980979e+00  -3.61390480e-01
C     4.538805040339653e+00   6.182467689537251e+00   6.236682136091241e+00 -1.50969900e+00   1.22091720e+00   5.93137890e-01
C     6.243408552079642e+00   4.484369379673729e+00   6.147071938858996e+00 -1.29729327e+00  -2.77623848e+00   2.55842992e+00
