64
Lattice="7.10842262195238 0 0 0 7.10842262195238 0 0 0 7.10842262195238 " PBC="1 1 1" Properties=species:S:1:pos:R:3:force:R:3 Energy="-513.26421574"
C     6.145586776121000e-03   7.067918898995465e+00   7.062975346484388e+00 -8.74807100e-01   1.51498614e+00   1.70310718e+00
C     1.731545712985860e+00   1.768203066510712e+00   7.084195480773837e+00  1.60132018e+00   1.45122460e+00   4.58509290e-01
C     2.255402979409320e-02   1.762095580879834e+00   1.764197470364342e+00 -7.24969450e-01  -6.54994520e-01  -5.71669410e-01
C     1.784062099544384e+00   7.070039910136821e+00   1.748186103833923e+00 -4.63120440e-01   1.92331951e+00   1.27737078e+00
C     8.993425600264455e-01   8.702171489412934e-01   8.533156657303980e-01 -3.09741280e-01  -3.64896340e-01   4.58954980e-01
C     2.636213405649626e+00   2.695432963654584e+00   8.986258177736710e-01  1.47455790e-01  -1.41498300e+00   8.55432100e-02
C     8.290770108595910e-01   2.632472242824721e+00   2.660417015996916e+00  2.32280247e+00   1.79028422e+00  -4.09234000e-03
C     2.660582642243963e+00   8.762295238775155e-01   2.682240371029900e+00 -9.79212500e-02   7.52946080e-01  -1.18946459e+00
C     3.587208110212456e+00   4.978383781917000e-02   2.158785299158280e-02 -1.43362962e+00  -1.16862585e+00  -8.52197500e-02
C     5.356120952721775e+00   1.834005663619826e+00   7.087233478433173e+00  2.36932920e-01  -2.24014661e+00   6.59235860e-01
C     3.573281075362674e+00   1.813913493831717e+00   1.793290822463478e+00 -7.01674350e-01  -1.07809617e+00  -4.24536490e-01
C     5.341279348217704e+00   1.316103122825140e-02   1.713180463389054e+00 -5.97175600e-02  -3.19740720e-01   1.96227570e+00
C     4.468821979887718e+00   9.357767801652556e-01   8.524273972398028e-01 -1.48895270e-01  -1.21165560e-01   1.45445906e+00
C     6.270889003086300e+00   2.668396078219414e+00   8.492318058509817e-01 -1.10786237e+00  -1.10913900e-02   1.47673127e+00
C     4.493625612188362e+00   2.646366223509320e+00   2.697253786108697e+00 -1.34602549e+00   4.17655320e-01  -4.44278040e-01
C     6.251625675375683e+00   8.763036647254422e-01   2.656154876878191e+00 -1.59427008e+00   1.14434100e-01  -4.08826200e-01
C     2.004930599971000e-03   3.567007181558262e+00   7.079924882632194e+00 -1.19297000e-02   2.69974760e-01  -2.11018420e-01
C     1.809903135042192e+00   5.323868404357633e+00   7.101480747721987e+00 -3.18844110e-01  -4.33879720e-01   2.88598270e-01
C     1.920518081358500e-02   5.358834806309639e+00   1.781198116070786e+00 -1.80184651e+00  -1.56052361e+00  -1.14540870e+00
C     1.722324027405160e+00   3.558453972040747e+00   1.769054655540588e+00  1.16468105e+00  -1.78246610e-01   6.99132860e-01
C     8.741515186930110e-01   4.427509604725932e+00   8.570172346413106e-01  7.24494980e-01   1.46249058e+00   9.15835850e-01
C     2.704849135678168e+00   6.213956011385517e+00   9.425514623432465e-01 -6.51685690e-01  -7.01385800e-02  -1.83704935e+00
C     8.334362510313059e-01   6.239391866793984e+00   2.638510136998149e+00  2.36763992e+00  -1.22058840e-01   1.53919684e+00
C     2.648559029719137e+00   4.441158771335499e+00   2.714300991983303e+00 -4.58753700e-01   7.00163600e-02  -1.21506386e+00
C     3.543897912873320e+00   3.527067300635947e+00   1.742622696870380e-02  2.93059010e-01   1.86268870e-01  -3.98584490e-01
C     5.281274025176331e+00   5.306509565235367e+00   7.085044084266213e+00  1.20339567e+00  -1.74544250e-01   1.14930437e+00
C     3.551491201000231e+00   5.327470313183412e+00   1.833292830999492e+00  5.51696600e-01  -1.11658071e+00  -8.90284010e-01
C     5.380425644838722e+00   3.511084012374877e+00   1.813738555551039e+00 -5.56343180e-01   1.46429990e+00  -1.13144175e+00
C     4.431334646937755e+00   4.388518484970708e+00   9.147308733142215e-01  4.10499270e-01   1.20664683e+00   3.41603100e-02
C     6.191064118264295e+00   6.205570702810287e+00   8.661468661490814e-01  8.00417330e-01  -1.45279660e-01  -4.26449710e-01
C     4.453429401546369e+00   6.205184146788211e+00   2.679411503164045e+00  2.74400550e-01   9.21120970e-01  -7.53903210e-01
C     6.256056213026277e+00   4.443320229401563e+00   2.681427807240208e+00 -7.42693640e-01   3.57180970e-01  -1.37764200e-01
C     7.063091995699581e+00   7.104797111211121e+00   3.577984931863006e+00  9.82783550e-01   2.33844700e-01  -4.77088280e-01
C     1.731864881161498e+00   1.800094933511116e+00   3.554391579597643e+00  8.74036320e-01  -2.16816624e+00  -1.78285050e-01
C     3.078871089400600e-03   1.793782298803425e+00   5.342981886519420e+00  1.07220890e-01  -5.15781640e-01  -3.79820660e-01
C     1.795394773390546e+00   7.097921560516153e+00   5.372459093440036e+00 -2.75506360e-01   7.44552940e-01  -1.20627323e+00
C     8.632434309299424e-01   8.898048339760606e-01   4.464383480803789e+00  8.06306950e-01  -3.41225000e-01  -1.83266210e-01
C     2.636297285036542e+00   2.632413669422331e+00   4.428905983265405e+00  3.34164070e-01   1.84785175e+00   6.36981680e-01
C     8.748274585999467e-01   2.719454456214351e+00   6.163302102637659e+00  5.93732000e-01  -1.72577726e+00   1.64193508e+00
C     2.672431458656563e+00   9.165951282305428e-01   6.242761188031639e+00 -6.62555530e-01  -8.80872110e-01  -1.60586380e-01
C     3.581382615706914e+00   1.763521459373180e-02   3.529070027624905e+00 -1.10189735e+00  -5.78730070e-01   1.23201788e+00
C     5.360439177294973e+00   1.752431467075266e+00   3.559084773464046e+00  2.52212640e-01   6.11427180e-01   3.09152860e-01
C     3.524410669850174e+00   1.797733160095621e+00   5.353655111999124e+00  9.06344930e-01  -1.23234435e+00  -1.10580733e+00
C     5.278941964967387e+00   7.083466512034156e+00   5.351868196720908e+00  9.90050820e-01   1.73805752e+00  -5.87756900e-02
C     4.433489991760364e+00   8.864184525241188e-01   4.424475658867491e+00  2.84204760e-01   1.83439850e-01   1.08348082e+00
C     6.288117473737715e+00   2.672811759266732e+00   4.464519891433867e+00 -2.75533613e+00  -4.67577540e-01  -1.08740207e+00
C     4.463770095015909e+00   2.635836303829636e+00   6.223873824793394e+00 -1.27207216e+00   1.81309096e+00  -6.70700350e-01
C     6.221529040507961e+00   9.106620122065335e-01   6.228116557918367e+00 -2.51105120e-01  -9.27064730e-01  -7.38950260e-01
C     2.281753902061660e-02   3.571181105152273e+00   3.563721099949489e+00 -5.77738330e-01  -2.98238190e-01  -9.66130900e-02
C     1.777272774015796e+00   5.375608053576470e+00   3.566731232592153e+00 -5.82718870e-01  -6.84059740e-01  -1.50948160e-01
C     7.098276768394474e+00   5.361932585803209e+00   5.330017332092385e+00 -7.10191000e-02  -1.21995769e+00   1.26813040e-01
C     1.765421114234149e+00   3.580127197187996e+00   5.282595765278294e+00  4.20326020e-01  -5.96586900e-01   1.30593718e+00
C     8.820025582241223e-01   4.481546056377517e+00   4.444363816926405e+00  5.58629740e-01   8.40255000e-02  -6.80532190e-01
C     2.685932770075633e+00   6.231375485352732e+00   4.465817462898922e+00 -3.02956860e-01  -4.07182400e-02  -7.65424810e-01
C     8.876042085013610e-01   6.208914931316092e+00   6.224708353608982e+00  9.16595480e-01  -1.29595690e-01  -2.99520060e-01
C     2.686460570455168e+00   4.397639159865978e+00   6.206399118382421e+00 -1.76293640e-01   1.46727777e+00  -2.01749780e-01
C     3.530062789928015e+00   3.538143502593978e+00   3.581397685562869e+00  1.32130575e+00   1.24506690e-01  -1.02327188e+00
C     5.335234132368978e+00   5.335301378046962e+00   3.588704788595098e+00  5.84644140e-01  -1.56620590e-01  -1.73136853e+00
C     3.580186765769551e+00   5.309530644848867e+00   5.315241907002905e+00 -8.58551880e-01   4.69043560e-01   6.94731580e-01
C     5.326401632926722e+00   3.524278026684085e+00   5.317448432468380e+00  8.62744760e-01   8.08262230e-01  -2.73031690e-01
C     4.477671041954676e+00   4.445538839185491e+00   4.404152181007327e+00 -1.61700562e+00  -1.14239073e+00   2.01839067e+00
C     6.171335473208973e+00   6.229160216527434e+00   4.488318890365627e+00  1.04112519e+00  -1.31082620e-01  -1.00127512e+00
C     4.401432853934045e+00   6.226118522488338e+00   6.244601558647957e+00  7.83584860e-01  -5.55217310e-01  -6.24068100e-01
C     6.216473246003711e+00   4.424470256466298e+00   6.180544576881636e+00 -8.56237860e-01   9.35244660e-01   1.15699513e+00
