64
Lattice="7.10842262195238 0 0 0 7.10842262195238 0 0 0 7.10842262195238 " PBC="1 1 1" Properties=species:S:1:pos:R:3:force:R:3 Energy="-506.61068257"
C     7.083048039194517e+00   7.032664819180029e+00   3.698384337578840e-02  1.46957773e+00   1.68754857e+00  -2.21673698e+00
C     1.753692216911149e+00   1.878218772800154e+00   7.078995598543082e+00  9.63498980e-01  -5.29950718e+00   9.28389580e-01
C     9.374303414351200e-03   1.689575097889463e+00   1.750102108066918e+00 -2.23714700e-01   2.24247805e+00   4.12363240e-01
C     1.785979170040772e+00   7.103596427546377e+00   1.766534364300667e+00  1.76176299e+00  -5.49160720e-01  -2.89764900e-01
C     9.551858305395823e-01   8.244445940065894e-01   8.441360620116085e-01 -3.04495073e+00   2.37505672e+00   7.92733520e-01
C     2.673603068872791e+00   2.628310119212258e+00   9.305380148627680e-01 -2.29228298e+00   2.95314244e+00  -2.56836088e+00
C     9.440315781011830e-01   2.675067688269415e+00   2.626256851338471e+00 -1.96787404e+00  -1.94983907e+00  -3.16402520e-01
C     2.739759238923023e+00   9.079485140398009e-01   2.641458070942889e+00 -3.17940525e+00  -2.08741075e+00   9.11869830e-01
C     3.610901477984083e+00   7.092358295721062e+00   7.105726608552912e+00 -1.47380328e+00   4.38885000e-01   7.74242070e-01
C     5.327796589781671e+00   1.842953177340072e+00   7.060309048243851e+00 -5.38696000e-03  -2.10263159e+00   1.09463054e+00
C     3.501572942909316e+00   1.826277315463135e+00   1.753537395466485e+00  3.13580929e+00  -4.11430377e+00   1.21827168e+00
C     5.353800408157476e+00   7.004509992119411e+00   1.712519166832716e+00 -2.12931220e-01   5.05908190e+00   1.29138997e+00
C     4.463141141782493e+00   9.580582730360980e-01   8.396020257276677e-01 -4.59552240e-01  -2.75877006e+00  -5.24713500e-02
C     6.147000214874760e+00   2.615915873532026e+00   9.959131825197413e-01  2.22338882e+00   2.27355236e+00  -3.89352826e+00
C     4.373069394669531e+00   2.586151983927146e+00   2.674528940919045e+00  1.08273015e+00   5.11074946e+00  -1.21681690e-01
C     6.166494495236301e+00   9.197591582229310e-01   2.609115103443020e+00  2.82445531e+00  -3.43512308e+00   1.28500592e+00
C     7.072630432592228e+00   3.557434482068586e+00   9.122324049317440e-02 -3.15552650e-01   2.41970330e-01  -2.08983007e+00
C     1.757210530686918e+00   5.385076259253631e+00   7.085091923950445e+00  2.10562681e+00  -8.22048730e-01   5.62439490e-01
C     9.463599419303641e-02   5.314370769810825e+00   1.791178128176588e+00 -3.31774928e+00  -1.61597753e+00  -1.06118250e-01
C     1.791391096518283e+00   3.529571526840746e+00   1.700297726906376e+00  4.84014020e-01   1.59883355e+00   3.80039641e+00
C     9.554348385839608e-01   4.487283477526797e+00   8.821352013902116e-01 -2.03691017e+00  -2.15549580e+00  -3.77634950e-01
C     2.688385175879533e+00   6.193834199475083e+00   9.052938025281358e-01 -2.57849020e-01   1.53155267e+00  -3.17616500e-01
C     8.935528919709079e-01   6.161854401286869e+00   2.607525446892509e+00  2.16127829e+00   3.64044547e+00   3.48194576e+00
C     2.712880231554243e+00   4.409660213358659e+00   2.709888225389259e+00 -1.63583337e+00   1.87390345e+00  -1.47387682e+00
C     3.519190244278046e+00   3.568700763247477e+00   1.337906787527466e-01  5.79953050e-01  -3.22021710e-01  -4.18804307e+00
C     5.354311148322723e+00   5.260201959330055e+00   1.117598288634854e-01 -7.36656820e-01   3.30672785e+00  -3.31354575e+00
C     3.573571738763606e+00   5.325247651598591e+00   1.795364704762863e+00 -2.42890267e+00  -4.00533980e-01  -3.82552200e-01
C     5.248327836932929e+00   3.556434255921727e+00   1.812149609842790e+00  1.20796133e+00  -6.91287750e-01   6.32309770e-01
C     4.354093033980084e+00   4.495891492982714e+00   9.061367192824155e-01  3.72196415e+00  -3.45019469e+00   1.36693173e+00
C     6.289559985939992e+00   6.161002883341220e+00   9.371757177368716e-01 -1.34393371e+00  -3.11674050e-01  -9.07530900e-01
C     4.469862013201250e+00   6.178278198497702e+00   2.540032822305490e+00 -4.63854060e-01   1.14917678e+00   5.31199510e+00
C     6.196510876012644e+00   4.425576611362875e+00   2.700252403106718e+00  1.20989564e+00  -5.23684550e-01  -8.15400050e-01
C     5.264071287014800e-02   6.802760447340000e-05   3.514165229243742e+00 -1.81097449e+00  -5.82369090e-01   4.28219770e-01
C     1.810153209349963e+00   1.777416648489625e+00   3.528184673587584e+00  8.10981320e-01   1.41318852e+00  -1.44381220e+00
C     6.310217844000199e-03   1.782036625603041e+00   5.261978069805889e+00 -1.18309039e+00  -1.37807817e+00   1.30450661e+00
C     1.753511094302791e+00   9.843132319830680e-02   5.258523447496795e+00  1.16880192e+00  -2.75961558e+00   5.33001590e+00
C     9.745977953671829e-01   9.063921959913781e-01   4.368406482683490e+00 -3.45485382e+00   1.14478123e+00  -1.03049910e-01
C     2.633244288605479e+00   2.701198249820536e+00   4.400512952962791e+00  7.79915330e-01  -1.60375484e+00   3.32376987e+00
C     7.973875206511786e-01   2.675614610305798e+00   6.209831633497167e+00  1.82943998e+00   5.79105300e-01   1.06937153e+00
C     2.679653331701577e+00   8.411229438314430e-01   6.291531151532517e+00 -6.52496750e-01   3.19659810e+00  -4.25652774e+00
C     3.561600444229264e+00   7.051495172868862e+00   3.564781960941297e+00  7.41658470e-01   2.02392265e+00  -1.59470368e+00
C     5.323948231943655e+00   1.807123670713545e+00   3.484397287837968e+00 -1.09966454e+00  -2.03815978e+00   6.15619300e-01
C     3.568208860402173e+00   1.747096382646277e+00   5.268621672670767e+00 -1.33111336e+00   1.65964206e+00   1.97484062e+00
C     5.286339060629985e+00   7.695628087370340e-02   5.262042756451731e+00  3.15509642e+00  -4.39856193e+00   2.16719410e+00
C     4.460990559603037e+00   9.028836207545986e-01   4.354237761464627e+00 -6.02883980e-01  -5.07103090e-01   1.49978309e+00
C     6.122357730514912e+00   2.655500830912925e+00   4.412769153075743e+00  3.36502727e+00   6.77379080e-01   4.74927210e-01
C     4.365519467920603e+00   2.729789534030021e+00   6.223761653884450e+00  2.04405004e+00  -1.57834247e+00  -4.07946280e-01
C     6.237105229405583e+00   7.662200729999790e-01   6.194573120006432e+00 -9.42251560e-01   5.38499524e+00   7.12988100e-02
C     4.852877472138280e-02   3.498966213250336e+00   3.515343734629911e+00 -2.08865383e+00   2.04986712e+00   1.46905895e+00
C     1.800095004595342e+00   5.385727817270981e+00   3.595298916838540e+00  1.77557600e-02  -2.63289355e+00  -2.04395530e-01
C     7.594070053398400e-03   5.318113212151802e+00   5.359028724078712e+00 -5.70179870e-01   5.23908400e-01  -1.18149400e-01
C     1.772316568512454e+00   3.543951226042970e+00   5.427424473759602e+00  3.51389740e-01   1.23383776e+00  -3.20919526e+00
C     9.169890770121433e-01   4.444392961459147e+00   4.439625200239460e+00 -6.90418110e-01  -4.39886710e-01   1.31456594e+00
C     2.643969760991439e+00   6.249034726414919e+00   4.592074208853635e+00  1.07024341e+00  -1.85427610e-01  -4.80309748e+00
C     8.596383943982093e-01   6.271319275907488e+00   6.205903874578485e+00  9.18384970e-01  -1.64774363e+00  -5.31886800e-01
C     2.727194462184137e+00   4.439990502077903e+00   6.311795771653387e+00 -3.18693107e+00   5.26249630e-01  -1.36712849e+00
C     3.547498542183029e+00   3.571269889350797e+00   3.597262476418863e+00 -8.03745080e-01  -7.28035020e-01  -1.28642432e+00
C     5.299874705730311e+00   5.344100965492487e+00   3.558854673823836e+00  2.12876430e+00  -8.54583200e-02  -8.90053540e-01
C     3.580720608308313e+00   5.387377113487273e+00   5.430576206180858e+00 -1.61661512e+00  -2.49179209e+00  -2.08864704e+00
C     5.252844102160319e+00   3.581147469086645e+00   5.327642905684627e+00  9.64961150e-01   1.36160649e+00  -4.09397400e-02
C     4.372039810737251e+00   4.532061777389642e+00   4.397804572860346e+00  1.68342001e+00  -1.99419025e+00   2.75918463e+00
C     6.268140176059146e+00   6.189878149034374e+00   4.486548822049021e+00 -2.07462153e+00   2.12892082e+00  -2.83560205e+00
C     4.485196586814018e+00   6.197299271165428e+00   6.217442124006817e+00  2.36118660e-01   2.43907182e+00   1.54884685e+00
C     6.176471948309959e+00   4.507740238311087e+00   6.273025723841646e+00  1.33340306e+00  -4.19420596e+00  -6.16843950e-01
