64
Lattice="7.10842262195238 0 0 0 7.10842262195238 0 0 0 7.10842262195238 " PBC="1 1 1" Properties=species:S:1:pos:R:3:force:R:3 Energy="-507.38251752"
C     7.067720716172820e+00   7.104974182018585e+00   3.020574915493980e-02  1.97355569e+00  -1.52462616e+00  -8.07739330e-01
C     1.803046208414487e+00   1.825954664160414e+00   7.023121193138868e+00 -9.50924110e-01  -2.22961081e+00   4.13476717e+00
C     7.083875957177068e+00   1.730210537965146e+00   1.731098308866157e+00  1.14489576e+00   4.38968470e-01   3.99582563e+00
C     1.787269775251659e+00   9.704418560824000e-04   1.798780088579095e+00 -9.51763700e-01  -3.59593330e-01  -1.87808990e+00
C     9.147134576788026e-01   8.745426241055634e-01   9.261929915362930e-01 -1.43182785e+00   3.03240290e-01  -2.79415278e+00
C     2.597831122291805e+00   2.646773251788541e+00   9.156838284506589e-01  2.24557121e+00   1.26919845e+00  -1.23160358e+00
C     8.670130985295545e-01   2.641865241390562e+00   2.691458360230838e+00 -6.17150970e-01   9.79469700e-01  -1.12997882e+00
C     2.639501690869412e+00   8.923163107719327e-01   2.613562630223675e+00  2.05511165e+00  -1.07510460e+00   2.44148250e+00
C     3.496563566404776e+00   7.067280775896869e+00   7.088538229405073e+00  4.68524834e+00   1.19114148e+00  -2.23904870e-01
C     5.360682854022387e+00   1.893002727996778e+00   2.250825155242040e-02 -1.47387691e+00  -2.90144789e+00  -2.79958260e+00
C     3.554394991640501e+00   1.754369649586835e+00   1.764183608940233e+00 -3.35247130e-01   1.52191047e+00  -6.32934130e-01
C     5.306595790401747e+00   4.095666969388020e-02   1.728484186447652e+00  1.71556135e+00  -5.63116700e-01  -6.76273200e-01
C     4.505280581916114e+00   1.023399604601400e+00   7.768977767859334e-01 -4.26040150e+00  -5.36602803e+00   3.96781249e+00
C     6.153673886367321e+00   2.575470370508750e+00   1.024158144379180e+00  2.33869422e+00   5.99606445e+00  -4.57949408e+00
C     4.426164477913550e+00   2.675971239868643e+00   2.650537659155415e+00 -2.00991400e-02  -1.10365210e-01   8.63566030e-01
C     6.165154415403978e+00   8.964388404704017e-01   2.643893416532500e+00  3.50796045e+00  -2.18513354e+00   4.49480180e-01
C     7.065721045805589e+00   3.579917143299575e+00   4.983345460905760e-02  1.24053421e+00  -1.65580524e+00  -4.92878770e-01
C     1.779265193791956e+00   5.296104469456889e+00   1.705715766627340e-02 -4.74203140e-01   2.21703495e+00  -2.66779785e+00
C     3.514773781304240e-02   5.241653383513880e+00   1.809155755487925e+00 -8.81009540e-01   3.31609768e+00  -5.72825760e-01
C     1.735586424739973e+00   3.579120644545004e+00   1.790250763361583e+00  1.08839486e+00  -2.20965519e+00  -3.79799270e-01
C     9.194793707086077e-01   4.486337133223397e+00   8.659388026189940e-01 -2.00866980e+00  -3.18828398e+00   2.02282233e+00
C     2.623229160891934e+00   6.252016496451330e+00   8.431777755582064e-01  1.29595950e+00  -1.97215923e+00   1.83855219e+00
C     9.233214020504915e-01   6.177156133987134e+00   2.628861235217987e+00 -1.15547927e+00   5.55488700e-01   1.85364726e+00
C     2.701106124663380e+00   4.376163193446434e+00   2.646290447724191e+00 -2.44799956e+00   4.15036170e+00   1.42314560e-01
C     3.559439554837010e+00   3.574686268346196e+00   3.888143679419739e-02 -1.14142932e+00  -9.54093180e-01  -5.54880640e-01
C     5.350946092138641e+00   5.254374972055762e+00   4.133633054601440e-02 -7.33768300e-02   3.81220300e+00  -1.64965741e+00
C     3.520202625827586e+00   5.323602265014740e+00   1.734067070489174e+00  1.04657364e+00   1.08257848e+00   1.45859503e+00
C     5.310981544989835e+00   3.593850860066620e+00   1.759744043592912e+00 -2.51429930e-01  -1.96649545e+00   4.05729145e+00
C     4.421243672354855e+00   4.483322877695612e+00   9.520274162010639e-01  6.80506180e-01  -1.92076820e+00  -3.65055932e+00
C     6.291669765773608e+00   6.162583156773872e+00   8.786326683126590e-01 -2.58631865e+00   7.13401790e-01   1.56164922e+00
C     4.516848615635223e+00   6.218158937343818e+00   2.565058521728784e+00 -4.56031535e+00   3.52495640e-01   2.67808169e+00
C     6.193249176293457e+00   4.433238353599616e+00   2.761585295156602e+00  1.53758104e+00   2.45928160e-01  -3.46067451e+00
C     1.741051735471360e-02   7.040091628049178e+00   3.533116710454019e+00 -8.72045800e-02   1.59419521e+00   7.50912880e-01
C     1.785522169550532e+00   1.770475273801195e+00   3.551434546871949e+00 -4.30310700e-01   8.71151780e-01  -5.70975840e-01
C     5.752903293746960e-02   1.777474439965526e+00   5.358390743148568e+00 -3.58358170e+00  -5.69145800e-01  -5.14242330e-01
C     1.789139716906076e+00   9.977488615771300e-02   5.329993376708155e+00  2.01202550e-01  -4.68509583e+00   1.10558684e+00
C     9.530214580202445e-01   8.996731016782756e-01   4.460297275144908e+00 -2.44834918e+00   4.89313700e-01  -1.31103693e+00
C     2.620396312309412e+00   2.690311629493779e+00   4.458706552331004e+00  2.27886589e+00  -1.74882251e+00  -1.19942226e+00
C     8.040419283184392e-01   2.678303015740682e+00   6.242171188954178e+00  3.16781587e+00  -1.61013700e-01   6.07570300e-02
C     2.730018496322611e+00   8.233687342430525e-01   6.265860078419554e+00 -2.84689727e+00   4.20258662e+00  -4.07339600e+00
C     3.528755906429327e+00   7.054239805926669e+00   3.536832140789040e+00  1.79157829e+00   2.59970356e+00  -1.12092308e+00
C     5.417879426033919e+00   1.749832627765394e+00   3.575628418680250e+00 -3.21748895e+00   2.78490918e+00  -2.33263252e+00
C     3.582800248430021e+00   1.758134625627518e+00   5.249061355063087e+00  1.71968230e-01   1.40046588e+00   2.81403067e+00
C     5.325069159106603e+00   6.213820524850380e-02   5.239898313969001e+00  1.13468102e+00  -2.31078115e+00   4.27438927e+00
C     4.514028988718774e+00   9.528781522202253e-01   4.374005360675906e+00 -3.03245914e+00  -2.85634438e+00   8.46935830e-01
C     6.160735819903386e+00   2.668231162814630e+00   4.461329986783142e+00  3.87158015e+00   1.25054860e-01   8.55987640e-01
C     4.424794116200866e+00   2.735451321562624e+00   6.199800298580049e+00  7.64812370e-01  -9.81887540e-01   8.28963650e-01
C     6.165906984106758e+00   8.398679518178820e-01   6.304315294193456e+00  1.96418386e+00   3.17078881e+00  -3.05224696e+00
C     5.141237744141200e-03   3.574138422214872e+00   3.572255756483965e+00 -9.75232470e-01  -2.13936401e+00   1.07002202e+00
C     1.759454091034242e+00   5.357229795566269e+00   3.568529805683466e+00  1.69859621e+00  -1.74345196e+00   5.37754770e-01
C     3.168650467091200e-03   5.286119481455254e+00   5.377870806664868e+00 -3.66127830e-01   8.23903270e-01  -1.77724644e+00
C     1.793931433509992e+00   3.510860594651930e+00   5.369472276423564e+00 -1.87254940e+00   1.24341374e+00  -8.08269550e-01
C     9.174229751288679e-01   4.398225533647901e+00   4.463872811722768e+00 -7.81600390e-01   1.61487452e+00  -5.04829900e-02
C     2.653200829689998e+00   6.256407795609062e+00   4.496052072249698e+00  7.90666800e-01  -9.44692450e-01  -1.87147302e+00
C     8.293374634643879e-01   6.205543264298973e+00   6.164370640725898e+00  2.50628777e+00   1.47675790e+00   2.67752356e+00
C     2.654492145743147e+00   4.375936221512177e+00   6.222067432437199e+00  1.40761426e+00   2.80406941e+00   1.12941094e+00
C     3.528367644385823e+00   3.600272893398433e+00   3.536408265548210e+00  1.77045538e+00  -2.66697946e+00   1.27179403e+00
C     5.308653749834463e+00   5.369814404804266e+00   3.553239233206715e+00  2.00951286e+00  -7.53804180e-01  -3.36757110e-01
C     3.596446713838992e+00   5.358044136461616e+00   5.341176773679297e+00 -1.84669856e+00  -1.86802419e+00  -1.08072026e+00
C     5.323565443385569e+00   3.604257164276943e+00   5.357725110454432e+00 -1.80973650e-01  -1.19982750e+00  -1.85218313e+00
C     4.480528414595239e+00   4.460770767175627e+00   4.399850803395738e+00 -2.56241650e+00   8.32624390e-01   1.27763609e+00
C     6.238842314641232e+00   6.193652294940238e+00   4.495498610464506e+00 -2.44430440e-01   1.04428871e+00  -2.75971093e+00
C     4.495015166642119e+00   6.197341850616922e+00   6.146947257126242e+00 -1.66383260e+00   8.83629450e-01   2.72999520e+00
C     6.219562708642815e+00   4.443879164672174e+00   6.235296775606828e+00 -3.51997480e-01  -1.29494716e+00   1.22269928e+00
