64
Lattice="7.10842262195238 0 0 0 7.10842262195238 0 0 0 7.10842262195238 " PBC="1 1 1" Properties=species:S:1:pos:R:3:force:R:3 Energy="-507.93987628"
C     6.369907268740339e-02   7.073203726876531e+00   7.013384289086671e+00  2.46578370e-01   1.15796238e+00   3.66022991e+00
C     1.876308384221029e+00   1.777435699062246e+00   7.724580692701599e-02 -3.15455475e+00  -1.12957699e+00  -2.73741818e+00
C     7.096645101066279e+00   1.723347782430893e+00   1.731971791837703e+00 -1.56474900e-02   1.64151154e+00   4.45376490e-01
C     1.758681618748127e+00   7.070266100144591e+00   1.873562471647150e+00 -5.16717820e-01  -4.09343490e-01  -1.77592659e+00
C     9.421740051021245e-01   8.026112160977118e-01   9.542329464873712e-01 -1.21587614e+00   2.46590454e+00  -2.05911111e+00
C     2.708604231011408e+00   2.716830239835725e+00   8.556738849345830e-01 -1.93520102e+00  -1.78467995e+00   3.89478300e+00
C     8.600056865949848e-01   2.667991040298527e+00   2.647335456933557e+00  4.55327600e-02  -2.21086363e+00   9.72632550e-01
C     2.668379657763162e+00   8.674630616814006e-01   2.648586397146224e+00 -3.79159890e-01   1.16420521e+00   7.14748200e-01
C     3.456660649280085e+00   7.106063050195517e+00   7.105956921445800e+00  1.86484085e+00  -4.99850050e-01   4.81477580e-01
C     5.270737210326705e+00   1.701498197318442e+00   7.099078456297558e+00  6.97679940e-01   2.16655201e+00  -2.76010104e+00
C     3.540275247453490e+00   1.789379128579918e+00   1.801205553461265e+00  1.53115406e+00  -4.04404540e-01  -1.83699612e+00
C     5.406281821276711e+00   4.726333332657040e-02   1.724434589165265e+00 -2.60555498e+00  -1.05007337e+00   4.81036890e-01
C     4.392269386334604e+00   8.933065851271249e-01   8.354863201149140e-01  5.42947920e-01  -1.09857667e+00   1.92838728e+00
C     6.168884773426502e+00   2.583296743813370e+00   7.150105699401418e-01  1.98091824e+00   2.13137598e+00   5.29705359e+00
C     4.513544762969900e+00   2.602662361725488e+00   2.667262355895750e+00 -2.68890372e+00   2.96830511e+00  -3.11868580e-01
C     6.179364934147847e+00   9.440843225970234e-01   2.672770814752441e+00  2.35471440e+00  -1.46688875e+00  -4.20679720e-01
C     2.637089731990220e-02   3.547133311428813e+00   7.076453697698396e+00 -1.94187483e+00  -3.27036400e-01   9.79837280e-01
C     1.771227984672427e+00   5.297765068065147e+00   1.219390189710992e-01 -3.10021110e-01   1.06816254e+00  -1.83532476e+00
C     7.040828771474872e+00   5.332810728929366e+00   1.758503410593043e+00  5.12648800e-01  -6.12474050e-01   3.01121270e-01
C     1.756901882976757e+00   3.506340419792098e+00   1.819787894284885e+00 -3.17046570e-01   2.35622900e+00  -1.46695287e+00
C     7.692542321110998e-01   4.412829290331109e+00   9.763907528046255e-01  4.19047241e+00  -4.05468820e-01  -2.46922883e+00
C     2.626625849556675e+00   6.206153593465126e+00   1.013298536058380e+00  1.73748075e+00  -5.78957830e-01  -2.25449824e+00
C     7.883117709868673e-01   6.165374918673651e+00   2.671262478556703e+00  2.54194244e+00   2.33137064e+00   7.95599310e-01
C     2.643653578353302e+00   4.439211774379881e+00   2.676036210851390e+00  1.90308575e+00  -4.28062010e-01  -7.25056070e-01
C     3.470791553690609e+00   3.608189970175684e+00   1.961455487227080e-02  4.10179386e+00   3.48102800e-01   9.53380000e-04
C     5.338021131625601e+00   5.421063572862321e+00   3.494557427372959e-02 -1.94669317e+00  -3.50130606e+00  -1.44485186e+00
C     3.659817093064447e+00   5.334941762946617e+00   1.848063351277364e+00 -4.17214151e+00   1.01840116e+00  -1.01202241e+00
C     5.309514295476841e+00   3.551993197805655e+00   1.767421353275191e+00  9.30709170e-01  -1.63443847e+00  -1.67365954e+00
C     4.456176096046738e+00   4.510531715873960e+00   9.620510740217521e-01 -3.01431330e-01  -2.00157728e+00  -2.47638850e+00
C     6.262751778460506e+00   6.209862697304017e+00   8.045698708664266e-01 -1.63997960e-01   2.67536405e+00   2.12184152e+00
C     4.514904319880201e+00   6.255560684885436e+00   2.644065795781035e+00  4.11864960e-01  -9.25050140e-01   5.66891610e-01
C     6.188417936859774e+00   4.421532203229001e+00   2.587505711930898e+00  2.68211440e-01  -1.15663100e-02   3.52280418e+00
C     1.863686242511600e-03   6.354155004214419e-02   3.574272344897033e+00 -1.00850670e-01  -3.40653270e-01  -2.68627700e-01
C     1.827109071993902e+00   1.805459731146656e+00   3.540081969442452e+00 -1.82887412e+00  -7.03658080e-01  -1.04330270e-01
C     1.036566535820426e-01   1.795496068412880e+00   5.367258429282791e+00 -2.71322873e+00   3.15739680e-01   6.76189470e-01
C     1.816439329641282e+00   7.023936955718740e+00   5.249963627146243e+00 -8.44661290e-01   3.09532576e+00   1.97589508e+00
C     9.256006466793684e-01   9.400087795720725e-01   4.514005744176806e+00  9.04627830e-01  -1.66540944e+00  -3.80654754e+00
C     2.720119662403130e+00   2.712716169160174e+00   4.312004490152422e+00 -1.36710299e+00  -6.49697870e-01   4.40234017e+00
C     9.907314267666660e-01   2.691296003858197e+00   6.257924946248849e+00 -1.30321416e+00   8.30550000e-04  -7.36705420e-01
C     2.636035481831448e+00   8.509357658372220e-01   6.167122168953648e+00  4.80738300e-01   9.28888020e-01   1.20850935e+00
C     3.558466127443427e+00   7.076851769365115e+00   3.457659453742421e+00  4.72823780e-01   1.26213420e+00   2.10593501e+00
C     5.319292570548686e+00   1.770886638218214e+00   3.595931637535947e+00 -4.70495860e-01  -9.05545280e-01   2.60719520e-01
C     3.477140085932531e+00   1.768059902879145e+00   5.299397872740961e+00  1.91020698e+00   8.03875090e-01  -2.73818250e-01
C     5.292214100841189e+00   7.059791697245568e+00   5.335299458772855e+00  1.63225316e+00   2.17263273e+00  -1.90636340e-01
C     4.388480668162369e+00   8.359732470643840e-01   4.451723380117570e+00  1.05100651e+00   1.15759641e+00  -4.52847560e-01
C     6.147320093892661e+00   2.637603031187610e+00   4.521804465717435e+00  2.54338774e+00   9.56737800e-01  -4.28978530e-01
C     4.327246369934225e+00   2.723038025309771e+00   6.238466421253086e+00  1.96001888e+00  -2.64376563e+00  -2.30376000e-01
C     6.315768455803028e+00   8.675603759870684e-01   6.203908256012147e+00 -3.37613259e+00   2.03073830e-01  -2.94041800e-01
C     7.045596817031464e+00   3.495613881142744e+00   3.577403889398048e+00  8.81669920e-01   1.83662653e+00  -1.11560205e+00
C     1.753480314832847e+00   5.304437104620506e+00   3.520724028626763e+00 -1.38356350e+00  -3.58797950e-01  -3.36556610e-01
C     3.232548078022380e-02   5.336898214104319e+00   5.349058166174996e+00 -6.19397430e-01   6.66372380e-01  -4.30208710e-01
C     1.814587585548772e+00   3.627713395069967e+00   5.342245738272893e+00 -4.62268150e-01  -1.89452320e+00  -1.38276232e+00
C     8.529321663300490e-01   4.454937737742107e+00   4.404301671135025e+00  6.71460990e-01  -1.09365884e+00   2.23304800e+00
C     2.647809873059216e+00   6.198265447967938e+00   4.295489776216280e+00  8.87590820e-01   1.36653500e-01   2.77536752e+00
C     9.794262625160443e-01   6.244615420072066e+00   6.245147840926303e+00 -1.05954917e+00  -3.48850905e+00  -1.63054073e+00
C     2.674802757358368e+00   4.466100378119198e+00   6.258591716290605e+00 -1.40560694e+00   1.66573092e+00  -1.49765454e+00
C     3.606523898082008e+00   3.583008951718144e+00   3.507775112729492e+00  4.39456200e-02  -5.84647610e-01   1.16862453e+00
C     5.411633183993499e+00   5.344011470451701e+00   3.564852689746366e+00 -1.22157472e+00   2.79561900e-01  -4.06576390e-01
C     3.563603810976258e+00   5.390960184993109e+00   5.240249967636013e+00 -8.43569440e-01  -1.85197436e+00   2.88198513e+00
C     5.290322833918912e+00   3.567689874466687e+00   5.452734510087696e+00 -1.81884040e-01   1.01153060e-01  -3.02479223e+00
C     4.471662718819348e+00   4.471075349858258e+00   4.475576545229694e+00  3.51568990e-01  -1.39132290e-01  -1.41742546e+00
C     6.289722342312633e+00   6.292332199677565e+00   4.442815815732447e+00 -2.25521238e+00  -2.76775825e+00   9.93938090e-01
C     4.367740139147091e+00   6.228841119436023e+00   6.237978356955998e+00  1.79195950e+00   3.53173700e-01  -7.20994020e-01
C     6.185360888627817e+00   4.468714998127286e+00   6.262645436458111e+00  1.62949341e+00   1.48176860e-01  -8.44384880e-01
