64
Lattice="7.10842262195238 0 0 0 7.10842262195238 0 0 0 7.10842262195238 " PBC="1 1 1" Properties=species:S:1:pos:R:3:force:R:3 Energy="-513.01083028"
C     7.056109889749539e+00   7.102181069518509e+00   7.104957903730786e+00  1.34445941e+00  -5.64200200e-02   4.80794930e-01
C     1.768300949490189e+00   1.780449385916222e+00   7.080184126805145e+00 -7.41313350e-01   4.52910000e-04   1.34170335e+00
C     7.094926710982120e+00   1.779750912309581e+00   1.793335036852175e+00  1.09909683e+00   4.29387800e-02   1.41847000e-03
C     1.829043913546840e+00   4.082367110666000e-03   1.761155491988339e+00 -1.92816987e+00  -2.34194760e-01  -9.74541570e-01
C     8.741469693025342e-01   8.668380180804240e-01   8.870531635798585e-01 -2.93612700e-02   8.43981380e-01   4.70768400e-02
C     2.665871450841695e+00   2.667683103430628e+00   8.514745131875918e-01  3.87745000e-03  -3.11571090e-01   1.13715485e+00
C     9.501666444118263e-01   2.652599243883667e+00   2.690394940206886e+00 -2.51626000e+00   6.40277790e-01  -9.28943360e-01
C     2.651553026242456e+00   8.985412986287191e-01   2.639274363514025e+00  6.67017180e-01  -3.45433160e-01   1.52782209e+00
C     3.563850117820041e+00   1.595215336999440e-02   7.065258003156122e+00  5.14878490e-01   1.03172530e-01   1.50289656e+00
C     5.372218686587027e+00   1.806794692914692e+00   3.662728489716920e-02 -1.43128494e+00  -8.73760340e-01  -5.34829130e-01
C     3.532057981988996e+00   1.781144020974648e+00   1.796890883099377e+00  9.50149670e-01   5.37531810e-01  -1.08303056e+00
C     5.350454544714469e+00   7.088798895262549e+00   1.805061943816841e+00 -1.49787887e+00  -3.09749970e-01  -8.87151580e-01
C     4.457523995143942e+00   9.058923317127399e-01   9.403281610003892e-01 -3.31548100e-01  -5.79861670e-01  -1.71334808e+00
C     6.235939803517033e+00   2.675342286635226e+00   9.227659499069647e-01 -5.27231640e-01   1.16883955e+00  -5.71074170e-01
C     4.436474249744693e+00   2.669032850717714e+00   2.675730335426052e+00 -4.29821240e-01   1.63222490e-01  -1.86949250e-01
C     6.178573482373336e+00   8.933980705262443e-01   2.666399464473908e+00  2.57460319e+00  -9.94990820e-01  -4.31098800e-01
C     7.079812356302119e+00   3.583452872710763e+00   5.189503933730999e-03  1.75331538e+00  -9.73782350e-01   6.38367500e-02
C     1.783423123435073e+00   5.318453776679526e+00   7.102979629715639e+00 -6.64433630e-01   8.07300620e-01  -9.07448900e-01
C     2.067868573848480e-02   5.343615673480219e+00   1.751615135821585e+00  4.63505640e-01  -2.58887840e-01   8.80447030e-01
C     1.798213973801638e+00   3.573090285299553e+00   1.782104866460193e+00 -6.91029570e-01  -1.38104705e+00  -5.41297670e-01
C     9.108767576538838e-01   4.460145865743102e+00   8.851724882072852e-01 -6.90196230e-01  -4.70224350e-01   2.93907620e-01
C     2.665123644782071e+00   6.246219791057399e+00   7.926475533639364e-01  7.56393340e-01  -1.19335152e+00   2.95453960e+00
C     9.368704820695688e-01   6.223459545923100e+00   2.658693507848471e+00 -4.06279200e-01   1.43789000e-03  -7.13692150e-01
C     2.654810247655392e+00   4.402260345411240e+00   2.682004726820047e+00  7.15361050e-01   2.66753053e+00  -1.01931621e+00
C     3.551438314335938e+00   3.540370784653503e+00   7.084166833830679e+00  8.37296810e-01   6.59051700e-02   1.23927396e+00
C     5.355354522594888e+00   5.282844062480410e+00   1.810259338099680e-02 -1.19395838e+00   1.28229605e+00  -5.10171010e-01
C     3.556400490914282e+00   5.307231638805106e+00   1.747368350895718e+00 -1.01756320e+00   1.30361307e+00   7.38993410e-01
C     5.308145071111776e+00   3.618022056006764e+00   1.800753457782633e+00  7.74728910e-01  -2.90488489e+00  -3.24331910e-01
C     4.415085006081113e+00   4.432693919511151e+00   9.172109308821135e-01  9.71631190e-01  -4.25595700e-02  -1.73973124e+00
C     6.218218577009599e+00   6.163284544833788e+00   8.773955184398742e-01  8.44375400e-02   2.04871778e+00   8.10612820e-01
C     4.407780319912574e+00   6.200788084987324e+00   2.680632445833256e+00  5.72903530e-01   2.76467100e-01  -5.73954150e-01
C     6.230324220731460e+00   4.470496439920085e+00   2.642386217684382e+00 -4.25697030e-01   2.38074850e-01   6.56933440e-01
C     3.310769160532860e-02   7.093183441418791e+00   3.500755118886886e+00 -1.26241535e+00   2.11730400e-01   2.02097578e+00
C     1.773126360017324e+00   1.748559793611056e+00   3.590556674856060e+00 -1.72156530e-01   3.92127230e-01  -9.50924530e-01
C     7.061985996224135e+00   1.728375001076209e+00   5.300623578053328e+00  1.71118651e+00   2.05304973e+00   4.28822670e-01
C     1.767562384379971e+00   2.450138217084220e-02   5.358985362700731e+00 -2.77463720e-01  -7.34060920e-01  -2.04030270e-01
C     8.878643056850267e-01   8.513855157363894e-01   4.471354355446092e+00 -5.21904640e-01   9.23015070e-01  -1.53742474e+00
C     2.637428306159611e+00   2.648017510083946e+00   4.427165485986898e+00  1.21268879e+00   1.18355370e-01   1.46870472e+00
C     8.664191187354274e-01   2.680667845777904e+00   6.222096719138393e+00 -3.60085970e-01  -1.23167897e+00   1.33298600e-02
C     2.651485638396018e+00   9.070846274387923e-01   6.219714331297300e+00  1.10619940e+00   7.50086100e-02  -4.70204880e-01
C     3.534730748894116e+00   1.306044704817840e-02   3.550237630671194e+00  6.97102970e-01   3.78628100e-02   6.07464770e-01
C     5.332574089540347e+00   1.747668752835639e+00   3.535402494831706e+00 -2.63265610e-01   1.93904261e+00   3.23644790e-01
C     3.571239394217757e+00   1.785601854968103e+00   5.341706351164487e+00 -9.91298800e-02   1.52429490e-01  -7.44335340e-01
C     5.323722752778149e+00   5.469433616506599e-03   5.322689685718784e+00  5.76378040e-01  -6.61131990e-01   3.67644610e-01
C     4.475958196440161e+00   9.051337919349596e-01   4.448130427904291e+00 -1.71024093e+00  -5.80662270e-01  -1.25752020e-01
C     6.241488069540396e+00   2.682840606235933e+00   4.358338112884522e+00 -1.12092349e+00  -1.18742984e+00   2.47255412e+00
C     4.483995405559690e+00   2.696205435940700e+00   6.214763954700507e+00 -1.15978448e+00  -1.97749954e+00   1.15936566e+00
C     6.208137909639500e+00   8.707985468273832e-01   6.223143007863832e+00 -5.87570200e-01   1.06181546e+00  -2.19871800e-02
C     4.417458152972800e-03   3.601663016526000e+00   3.522042996443904e+00  1.12364825e+00  -1.24592895e+00   8.87835000e-01
C     1.833091449386668e+00   5.377334973767772e+00   3.568070957003345e+00 -1.86677283e+00  -1.89156243e+00   4.46649250e-01
C     7.105628725573435e+00   5.344439397493424e+00   5.345140572300662e+00 -1.71178630e-01   2.74296210e-01  -1.17130421e+00
C     1.790976533311084e+00   3.531799661910985e+00   5.392314055165315e+00 -1.36632261e+00   1.00467470e-01  -3.00228746e+00
C     8.980461969932363e-01   4.452892928891237e+00   4.475289009534715e+00  3.30239120e-01   5.82027800e-01  -6.37347880e-01
C     2.659885874658750e+00   6.254730207870741e+00   4.492009938811062e+00  8.78164580e-01  -6.52631890e-01  -1.07433295e+00
C     8.309034489675737e-01   6.272710109877317e+00   6.216391428059356e+00  1.90235463e+00  -2.12676982e+00   3.00777560e-01
C     2.667204351167171e+00   4.381318150446232e+00   6.223666329937116e+00  2.65592580e-01   2.81581529e+00   1.48648870e-01
C     3.515261205843293e+00   3.548315513194746e+00   3.534197048523807e+00  9.38218710e-01  -8.98389120e-01   1.62802131e+00
C     5.295385026003519e+00   5.318094161579181e+00   3.554063810230635e+00  6.52054400e-01  -3.51043100e-02   4.33193610e-01
C     3.568838808814757e+00   5.328913891649083e+00   5.340918880106644e+00 -6.19974170e-01  -2.83644130e-01   6.12553900e-01
C     5.322960658789059e+00   3.520128840400790e+00   5.343061429768538e+00  1.27842000e+00   1.72328400e+00  -1.89787408e+00
C     4.400649008171738e+00   4.404760377646694e+00   4.468392702245695e+00  1.04331969e+00   9.15236150e-01  -1.10468038e+00
C     6.198021344735168e+00   6.207874044991844e+00   4.423554051874807e+00  6.96230060e-01   1.90589490e-01  -2.83056500e-02
C     4.484119589702862e+00   6.214498028610292e+00   6.249408345107826e+00 -1.16349068e+00  -1.80717000e-01  -1.30693041e+00
C     6.241962201329151e+00   4.458163397758611e+00   6.198446357323617e+00 -1.26456808e+00  -1.13385873e+00   9.23707870e-01
