64
Lattice="7.10842262195238 0 0 0 7.10842262195238 0 0 0 7.10842262195238 " PBC="1 1 1" Properties=species:S:1:pos:R:3:force:R:3 Energy="-512.84554051"
C     7.076040556175720e+00   2.809675124781200e-03   1.216251110282000e-02  1.28429166e+00  -3.52106490e-01   5.41543100e-01
C     1.739222098573198e+00   1.789807766463904e+00   7.071634187162035e+00  9.58148070e-01   4.58856880e-01   8.92245090e-01
C     2.876138876278200e-03   1.736335439231443e+00   1.807828684068997e+00 -2.25413850e-01   1.56653238e+00  -1.30598296e+00
C     1.842839655830831e+00   5.129800292145620e-02   1.715025241227397e+00 -2.74563812e+00  -1.89449286e+00   1.73544919e+00
C     8.972236103276497e-01   9.030207422269384e-01   8.610371898013730e-01 -4.51840320e-01   3.34626800e-02   4.88360700e-01
C     2.635201734942348e+00   2.698952628030651e+00   8.954752227000347e-01  3.93349580e-01  -2.04623845e+00   2.05397450e-01
C     8.525726933981556e-01   2.680798569669885e+00   2.664753438132021e+00  1.36054510e+00  -9.88555190e-01   4.78552860e-01
C     2.682160401275425e+00   8.822595277018354e-01   2.672617557160754e+00 -8.53915060e-01   6.64606640e-01  -6.37475610e-01
C     3.603213008078291e+00   2.637864550055800e-02   1.720352008801920e-02 -2.17231230e+00  -1.47488578e+00  -7.15867650e-01
C     5.331358193851195e+00   1.767848214053522e+00   6.685471474110001e-03  3.85124180e-01   1.06156671e+00  -2.94456860e-01
C     3.513383018418637e+00   1.766331987508676e+00   1.803373053686555e+00  1.93453795e+00   8.77532130e-01  -1.51826349e+00
C     5.327921413682878e+00   7.090183331652020e+00   1.796613938954102e+00 -7.17011980e-01   1.19170060e-01  -5.06987740e-01
C     4.435110285612367e+00   8.866319895396235e-01   8.686874874776956e-01  6.66170720e-01   4.93103190e-01   1.82506606e+00
C     6.211826399052791e+00   2.707325639034749e+00   9.068108109994700e-01  2.06724130e-01  -2.01974929e+00   4.41391400e-01
C     4.466839654071678e+00   2.651388892764160e+00   2.662413487573970e+00 -2.03961243e+00   1.05839637e+00  -8.03121350e-01
C     6.229605203783447e+00   8.347678718407106e-01   2.668810143837030e+00 -3.13126120e-01   1.45706225e+00  -5.27951920e-01
C     1.120322947025100e-02   3.566565179839750e+00   5.095203599254080e-02 -8.05160960e-01  -4.36340270e-01  -1.37646327e+00
C     1.798410521687081e+00   5.324852991974729e+00   7.044074761580069e+00 -9.15504270e-01   1.06385470e+00   3.41328504e+00
C     1.659951741799780e-02   5.362920158957806e+00   1.813017974750050e+00 -1.28358960e-01  -1.78688946e+00  -1.82554423e+00
C     1.783605667727954e+00   3.539561277485537e+00   1.800053491407241e+00 -1.01545946e+00   1.57082727e+00  -6.23170660e-01
C     9.243473606872361e-01   4.467813365802166e+00   8.956016815384443e-01 -1.14550376e+00  -7.12762390e-01  -2.86114800e-01
C     2.640291578790947e+00   6.202549623196787e+00   9.158839305474117e-01  2.31831193e+00   8.83340700e-01  -2.40666451e+00
C     9.240860550717249e-01   6.205276200861140e+00   2.600305066616244e+00 -7.05358000e-03   1.52824525e+00   2.84594542e+00
C     2.661725321180128e+00   4.455356210581747e+00   2.668716170489993e+00  7.19619260e-01  -1.17236864e+00   3.49658940e-01
C     3.529532501600563e+00   3.534871922167349e+00   2.949711050395200e-02  1.48532116e+00   3.97241110e-01  -1.40927048e+00
C     5.340397832728597e+00   5.319171869532599e+00   7.047815995489201e+00 -7.26357710e-01   2.82795810e-01   3.21176041e+00
C     3.541483750383116e+00   5.328035574950155e+00   1.778602475551093e+00  4.09005990e-01  -1.29079160e-01  -3.98970140e-01
C     5.297995025536904e+00   3.588233500175391e+00   1.780328045142098e+00  1.28627856e+00  -1.01161912e+00  -4.56146920e-01
C     4.458484698461035e+00   4.422487717397581e+00   8.469198624780530e-01 -1.48666122e+00   1.19579685e+00   1.22795952e+00
C     6.213633004661664e+00   6.202472283558681e+00   9.553151327470401e-01  1.27465250e-01   4.39034880e-01  -2.87024341e+00
C     4.412659327946264e+00   6.218680979901031e+00   2.675606506704011e+00  7.57400880e-01  -2.46464130e-01  -2.05229030e-01
C     6.195455701758931e+00   4.461625910416813e+00   2.663550906277396e+00  1.01289157e+00  -1.28741010e-01   6.44167080e-01
C     7.086103239236593e+00   7.063464477044869e+00   3.530819481515914e+00  1.99252545e+00   5.24180640e-01   6.98541370e-01
C     1.772808400273531e+00   1.760518292984682e+00   3.548287008420040e+00 -2.65664560e-01   1.70969820e-01   2.78919960e-01
C     7.098441541630805e+00   1.726295289870276e+00   5.310671475595151e+00 -4.01037000e-02   1.26180003e+00   8.42362600e-02
C     1.813077401163153e+00   2.066205202955400e-03   5.377517660229106e+00 -1.29944624e+00   4.49578730e-01  -1.90986718e+00
C     9.121578375784603e-01   8.497579712933142e-01   4.412762897663838e+00 -1.02720686e+00   4.29470490e-01   9.62806640e-01
C     2.659930373384352e+00   2.621960805043848e+00   4.458019452200555e+00 -8.86576210e-01   2.10232485e+00  -4.49854630e-01
C     8.482192821329890e-01   2.656494019721391e+00   6.194492439409695e+00  3.72769500e-01   5.86500020e-01   7.15500140e-01
C     2.676721604960411e+00   9.136428581480045e-01   6.225248238306970e+00  1.59994770e-01  -4.78547450e-01   5.38546300e-01
C     3.546968680360934e+00   1.723579232671400e-02   3.539671529120373e+00  4.93725660e-01  -6.28266030e-01   1.47362485e+00
C     5.352169949261127e+00   1.791046409105439e+00   3.479113455136069e+00 -2.47874250e-01  -9.42883840e-01   3.01994340e+00
C     3.535800139993069e+00   1.791457062680196e+00   5.339160753940039e+00  1.76489962e+00  -5.00753440e-01  -5.10740840e-01
C     5.341449239518322e+00   3.841818089205200e-03   5.332514663127244e+00 -1.10434695e+00   1.97462250e-01  -2.62252840e-01
C     4.453801456386300e+00   9.064533284259101e-01   4.431917537592595e+00 -3.93366340e-01  -1.94033630e-01  -3.09147960e-01
C     6.209426169070922e+00   2.651826913766004e+00   4.439916716651106e+00  1.36541925e+00   3.46137970e-01  -1.14572216e+00
C     4.494136849943192e+00   2.655990103641859e+00   6.193241854618159e+00 -2.27312676e+00   4.00756590e-01   8.12087060e-01
C     6.206628080675011e+00   8.749947908684216e-01   6.230905547533323e+00  3.59560810e-01   2.03844000e-02  -1.27299120e-01
C     8.247049755271600e-03   3.585559098333069e+00   3.553277263267732e+00 -4.74070700e-01  -8.32585860e-01  -4.79289100e-02
C     1.842938747242153e+00   5.341713246334428e+00   3.578508396104743e+00 -2.26100800e+00   5.33005820e-01  -1.31294456e+00
C     7.106846540536694e+00   5.325893807214749e+00   5.363831743074594e+00  3.68325790e-01   9.41029080e-01  -1.30628922e+00
C     1.735556071775386e+00   3.579369297168251e+00   5.351534385194674e+00  1.34845720e+00  -1.47028738e+00  -1.07661160e+00
C     9.228546630212624e-01   4.470947327166871e+00   4.419173344266780e+00 -1.31449925e+00  -2.69749820e-01   1.29799784e+00
C     2.655864995403747e+00   6.247221723225688e+00   4.466895810610376e+00  1.55924807e+00  -9.24842420e-01   1.78622000e-01
C     8.977197071422996e-01   6.256355548702805e+00   6.224458776890793e+00 -6.15815260e-01  -1.57038289e+00   2.29637190e-01
C     2.670159962208341e+00   4.431192549569580e+00   6.238582928299828e+00 -1.61408690e-01  -2.94209240e-01  -8.09254340e-01
C     3.515550731896606e+00   3.546414934238836e+00   3.552529315039656e+00  1.48064119e+00  -5.87951100e-01   2.89889110e-01
C     5.321854374976708e+00   5.310402563967436e+00   3.563171618880962e+00 -6.73017760e-01   1.47055495e+00  -1.45965080e-01
C     3.561339778371788e+00   5.309920897250705e+00   5.376030791469681e+00 -2.21065620e-01   7.14967050e-01  -1.89212624e+00
C     5.371354799986019e+00   3.566287738104892e+00   5.291993810824196e+00 -1.85548607e+00  -1.06794843e+00   1.15005347e+00
C     4.419202275546843e+00   4.435969409570220e+00   4.410254193152787e+00  6.65195720e-01  -1.24407800e-01   1.61026827e+00
C     6.208036117027580e+00   6.242045796379161e+00   4.457262405191526e+00  3.54082600e-01  -2.00041496e+00  -2.26804600e-01
C     4.432820875939144e+00   6.216736613061783e+00   6.226859362293793e+00  9.33912770e-01   3.11942130e-01  -4.15332920e-01
C     6.194031529287014e+00   4.422988221434255e+00   6.245103271116476e+00  2.30549187e+00   6.85653980e-01  -1.48273674e+00
