64
Lattice="7.10842262195238 0 0 0 7.10842262195238 0 0 0 7.10842262195238 " PBC="1 1 1" Properties=species:S:1:pos:R:3:force:R:3 Energy="-510.82266227"
C     7.105903821528829e+00   7.085221652663261e+00   7.092736748141350e+00  1.10090390e-01   4.13313200e-02  -2.21698930e-01
C     1.698649425869250e+00   1.790116556342517e+00   9.341675754525399e-03  1.40399848e+00   3.80242300e-02   6.31127900e-02
C     7.074739075078226e+00   1.775564477891758e+00   1.793224643048886e+00  1.33330134e+00  -1.87955054e+00  -6.81109610e-01
C     1.858393737534105e+00   7.033840694449829e+00   1.728286145793459e+00 -1.38280591e+00   3.41010325e+00   1.60088808e+00
C     8.688948401655210e-01   8.439307707663429e-01   8.870158443611036e-01  5.42140550e-01   6.48145340e-01  -2.05969490e-01
C     2.639919381782563e+00   2.653210923650118e+00   8.910957235238526e-01 -3.05017320e-01   9.40622420e-01  -5.74269220e-01
C     8.752941976291760e-01   2.613764438341857e+00   2.641770486117037e+00  4.51697210e-01   2.06840262e+00   2.19966400e-01
C     2.687031661128459e+00   8.897962327846903e-01   2.620968113824965e+00  1.86967220e-01  -9.12933410e-01   1.28471177e+00
C     3.573365310170721e+00   1.052684884111276e-01   7.103768238121102e+00  2.32732800e-02  -1.52722590e+00   1.45588420e-01
C     5.385901333867134e+00   1.830346674160407e+00   7.102235093530421e+00 -6.01140760e-01  -1.58961861e+00   2.30680940e-01
C     3.558048649782954e+00   1.818751273014210e+00   1.749006984478081e+00 -5.29882010e-01  -1.23150205e+00   1.34345287e+00
C     5.298676083508127e+00   7.064938479559353e+00   1.745015391924272e+00  5.35285140e-01   1.43593554e+00   2.48422470e-01
C     4.465383564782197e+00   9.445894471084005e-01   8.559993085221266e-01  3.42308780e-01  -5.92544900e-02   8.82686420e-01
C     6.245788096551687e+00   2.685193778460058e+00   9.540555202587759e-01 -9.09713340e-01  -2.03647820e-01  -1.74945799e+00
C     4.378714121987848e+00   2.654926186028324e+00   2.731444232647504e+00  1.81997038e+00   9.66291700e-02  -1.14177423e+00
C     6.216755237129046e+00   8.395032897374760e-01   2.612785608547083e+00 -9.15105660e-01  -7.22419300e-02   1.52929323e+00
C     7.089102140571518e+00   3.577100288667947e+00   4.298150387718720e-02 -5.66297780e-01   5.86619020e-01  -1.94699338e+00
C     1.838096063248053e+00   5.397643452856207e+00   7.099674213197340e+00 -8.49949780e-01  -2.16177511e+00  -1.28767085e+00
C     5.738522954786700e-02   5.382438465787802e+00   1.783382605426139e+00 -1.53511575e+00  -1.84792627e+00   3.42530000e-04
C     1.726173878011926e+00   3.566893233543663e+00   1.759016638706207e+00  1.51140157e+00  -4.45287190e-01   7.12013930e-01
C     8.584918058296034e-01   4.471321656702041e+00   8.472956136977462e-01  2.02070376e+00   7.64158620e-01   1.62880851e+00
C     2.791641483099617e+00   6.279221069576106e+00   8.728990857115931e-01 -3.67744131e+00  -2.06527848e+00  -6.27820640e-01
C     9.857200599037921e-01   6.193289978639296e+00   2.634658153864597e+00 -1.47063300e+00   3.81483940e-01   1.33310788e+00
C     2.646170955139948e+00   4.446410971556738e+00   2.732669582538740e+00 -7.51058220e-01  -4.05652160e-01  -1.57689204e+00
C     3.598626938140773e+00   3.493463298963289e+00   7.102889139495686e+00 -2.97010215e+00   9.11748460e-01  -3.81988910e-01
C     5.272779033640074e+00   5.295924057690794e+00   8.587855969364880e-02  1.59414515e+00   1.18708803e+00  -2.69893419e+00
C     3.511798053427056e+00   5.306094362270132e+00   1.768463376947056e+00  8.38276910e-01  -9.88532950e-01   4.08496710e-01
C     5.377989517322622e+00   3.517399845872747e+00   1.846128083219069e+00 -2.38261385e+00   1.73697004e+00   1.20173340e-01
C     4.369860865951542e+00   4.366736714210051e+00   9.017141430651562e-01  3.07625918e+00   1.31434975e+00   1.18436724e+00
C     6.225620577483806e+00   6.219136985212105e+00   9.072823837560807e-01 -5.49998290e-01  -9.49262700e-01  -5.43719400e-01
C     4.378930715625079e+00   6.151299744296467e+00   2.614345978396399e+00  2.50675918e+00   2.13851068e+00   1.82433561e+00
C     6.268526234491638e+00   4.489280162356530e+00   2.737904011703429e+00 -5.56894580e-01  -1.53783150e+00  -2.73889150e+00
C     1.837605439918820e-02   7.041260394896359e+00   3.526792346849005e+00 -2.59813870e-01   1.78326917e+00  -3.75016960e-01
C     1.760528173692124e+00   1.739128054141936e+00   3.501611328391464e+00  7.69365870e-01   9.83764660e-01   3.37486130e-01
C     7.064890142285536e+00   1.794684713055034e+00   5.307532040745028e+00  2.79660050e-01  -1.17213382e+00  -7.32192900e-01
C     1.797847534615577e+00   8.637771313002519e-02   5.325282696122108e+00  3.76254620e-01  -1.73473848e+00   1.19074710e-01
C     8.985939009561072e-01   8.927689751243744e-01   4.375630275002612e+00 -8.44982880e-01  -5.40960000e-01   1.73759946e+00
C     2.563584945719657e+00   2.671800657233263e+00   4.474937498036156e+00  2.86729550e+00  -1.08047148e+00  -3.85614530e-01
C     7.849841761899931e-01   2.682486677873683e+00   6.227379059071541e+00  1.43785767e+00  -8.64623380e-01   4.98060950e-01
C     2.655536159773346e+00   9.639825035318322e-01   6.267271740067661e+00  1.49598570e-01  -6.05994150e-01  -1.86295952e+00
C     3.591437763839809e+00   7.081548375274376e+00   3.609959398734254e+00 -1.20563685e+00   2.03522240e-01  -2.75162544e+00
C     5.310934771568996e+00   1.712704838831550e+00   3.522896789084792e+00  8.26870610e-01   1.38914631e+00  -2.78737740e-01
C     3.626179681805476e+00   1.801638598567275e+00   5.348178356707319e+00 -3.11897234e+00  -6.76089990e-01  -6.63194380e-01
C     5.329757661414076e+00   7.083142581215363e+00   5.348224632538574e+00  1.76848430e-01   1.93398770e-01  -4.86439220e-01
C     4.484302347248422e+00   8.626851354173676e-01   4.409142933444603e+00 -7.14490370e-01   1.18910060e-01   2.24419065e+00
C     6.211281538458969e+00   2.661730652497093e+00   4.337520812904947e+00  2.07649500e-02  -2.01879460e-01   3.00276075e+00
C     4.482912295205081e+00   2.674289600329430e+00   6.206176909091320e+00  8.92325080e-01   5.80397190e-01  -4.83005870e-01
C     6.219100092498707e+00   8.497786568031384e-01   6.211486687535782e+00  3.48219050e-01   1.67328012e+00  -1.53092460e-01
C     6.413432140442600e-02   3.553058679272167e+00   3.563116031016074e+00 -2.08279125e+00   1.24830520e-01  -8.35029860e-01
C     1.792968526581887e+00   5.338104939928290e+00   3.611629025039240e+00  7.13985520e-01  -7.15511900e-02  -3.88365220e-01
C     9.212586799746200e-03   5.377492496413031e+00   5.311449208114005e+00 -2.67643830e-01  -1.85119496e+00   3.14826590e-01
C     1.678296803476345e+00   3.508901726630536e+00   5.347470855403950e+00  1.91207032e+00   1.91884287e+00   6.40730790e-01
C     8.796087969068374e-01   4.454272460469102e+00   4.467780667058114e+00  2.98195350e-01  -4.46314560e-01  -3.71236060e-01
C     2.729745390725550e+00   6.233867413986399e+00   4.531137184859459e+00 -1.83808576e+00   4.05447750e-01  -1.86175333e+00
C     9.313746762051420e-01   6.232587968999026e+00   6.148008686791860e+00 -5.69893790e-01   1.36103767e+00   2.28311806e+00
C     2.656190987665100e+00   4.398893227784598e+00   6.201217860218930e+00  6.86353110e-01   6.74833410e-01   1.30733055e+00
C     3.504382049360288e+00   3.563326653578304e+00   3.665219423171420e+00  5.58708000e-02  -1.08836790e-01  -3.13825576e+00
C     5.286461752004406e+00   5.329418447486651e+00   3.534111889620819e+00  1.41593814e+00  -2.07333640e-01  -9.45390200e-02
C     3.584219373921878e+00   5.328415946644552e+00   5.389254732238119e+00 -9.29351910e-01   1.49139950e-01  -9.26371520e-01
C     5.348056802680516e+00   3.584279226840338e+00   5.262928465910183e+00  2.50130300e-01  -1.94650750e-01   8.43452010e-01
C     4.446927043038951e+00   4.482517848833898e+00   4.413598990332401e+00 -8.00020900e-01  -1.32999795e+00   2.33837344e+00
C     6.185454861974853e+00   6.168690784573202e+00   4.434591370761107e+00  8.66261040e-01   2.18069130e+00  -2.82184060e-01
C     4.409608108620855e+00   6.265357370771868e+00   6.264989936406640e+00  1.38946878e+00  -1.39703486e+00  -1.54324860e-01
C     6.234262571199845e+00   4.484558108294290e+00   6.175486010092565e+00 -1.44447380e+00  -1.07829857e+00   2.19564781e+00
