64
Lattice="7.10842262195238 0 0 0 7.10842262195238 0 0 0 7.10842262195238 " PBC="1 1 1" Properties=species:S:1:pos:R:3:force:R:3 Energy="-510.95710457"
C     7.060249906167654e+00   2.414987067228320e-02   7.097123782245510e+00  1.31422379e+00   2.95800340e-01   1.49343160e-01
C     1.746254958660748e+00   1.830661506198247e+00   7.058472089670391e+00  1.33906723e+00  -1.39315471e+00  -2.80562360e-01
C     3.659344880549800e-02   1.782321673350104e+00   1.781178567908581e+00 -1.93432071e+00  -4.73416350e-01  -9.04432430e-01
C     1.790139871968710e+00   4.875560448718699e-02   1.656931373028542e+00  4.65378390e-01  -1.23063200e+00   3.59867629e+00
C     8.797130063824465e-01   9.685982155916767e-01   8.136182531036508e-01  5.29024420e-01  -2.11956244e+00   1.08637102e+00
C     2.653841867241869e+00   2.643825175675349e+00   8.898956796171441e-01 -1.82040200e-02   4.34322720e-01   3.20617500e-01
C     8.215326286803064e-01   2.664545658938839e+00   2.684363941203399e+00  3.48888551e+00  -8.26986130e-01   1.21797900e-01
C     2.685159515863030e+00   9.078153021999023e-01   2.703563364194662e+00 -6.81809710e-01  -5.58663410e-01  -2.25196777e+00
C     3.630563374951004e+00   7.085778526491311e+00   7.108286493706827e+00 -2.23491199e+00   1.44709860e-01  -1.56060475e+00
C     5.319029487827520e+00   1.777508133888744e+00   1.819535829618780e-02  5.79591240e-01   5.76099710e-01  -1.06638726e+00
C     3.545828773709591e+00   1.779992740847113e+00   1.765856007530040e+00  1.60111880e-01  -1.63288692e+00   2.50870830e-01
C     5.329660418192635e+00   7.034460264565388e+00   1.781862540333078e+00  1.01672529e+00   2.02487355e+00   7.11587100e-02
C     4.452873807234390e+00   8.505730941151496e-01   8.380421534679350e-01  6.67404480e-01   7.26773480e-01   2.88546116e+00
C     6.209385651061988e+00   2.691297638795399e+00   8.940643429784171e-01 -3.75681400e-02  -1.96380540e+00   1.12735688e+00
C     4.406427160582632e+00   2.640729955213922e+00   2.667860742911902e+00  6.29311480e-01   1.34356095e+00  -6.84866060e-01
C     6.288246847029399e+00   8.396399136202324e-01   2.630477974858679e+00 -2.53107562e+00   1.09144995e+00   4.24667180e-01
C     2.151506274395400e-02   3.529973152718776e+00   4.342307909034160e-02 -2.56826091e+00   4.50361980e-01  -1.43963742e+00
C     1.744218182327439e+00   5.376599962868864e+00   7.030295653005009e+00  1.47360657e+00  -1.89849158e+00   4.26457945e+00
C     5.263609239544500e-02   5.316786709406684e+00   1.808345324225019e+00 -1.78749220e+00  -1.19644100e+00  -9.56089170e-01
C     1.790166528553536e+00   3.456685386590802e+00   1.804658611917382e+00 -6.61641440e-01   4.17728431e+00   3.28380700e-02
C     8.847545840414553e-01   4.399425151049252e+00   9.140307647703777e-01  1.12354902e+00   7.04491350e-01  -8.56119760e-01
C     2.701406739855980e+00   6.191467592332207e+00   9.043908196027172e-01 -1.62729401e+00   2.62433079e+00  -2.96216790e+00
C     9.342987969341052e-01   6.193583129988145e+00   2.586236076566740e+00  9.71085000e-03   1.17927565e+00   3.01765524e+00
C     2.703534077493468e+00   4.486180890094209e+00   2.694361013523488e+00 -1.49885778e+00  -3.23543998e+00   5.45696680e-01
C     3.553355882421909e+00   3.551397796327004e+00   6.787790109302280e-02 -7.03952850e-01   6.24269250e-01  -2.44343120e+00
C     5.366468967866615e+00   5.360763179197993e+00   7.076432870020119e+00 -2.82913180e-01  -1.60489957e+00   7.43279300e-01
C     3.529086092660026e+00   5.362198654061876e+00   1.767347283511490e+00  1.58595354e+00  -1.92544610e+00   1.24844624e+00
C     5.300268938848816e+00   3.512319385142006e+00   1.790181598409490e+00  7.36943340e-01   2.75992292e+00  -3.73528500e-01
C     4.452449505488203e+00   4.452953137230829e+00   8.315599828807569e-01 -1.83829360e-01   3.54589600e-01   2.99223904e+00
C     6.263168971784075e+00   6.198933284273088e+00   9.378538612548195e-01 -1.04036477e+00   1.33168800e-01  -2.15777462e+00
C     4.443080746643495e+00   6.192491205189486e+00   2.679387903200947e+00  3.20601500e-02   7.51788790e-01   5.36302330e-01
C     6.201313326334716e+00   4.443328688424480e+00   2.708905699214723e+00  7.38069530e-01  -1.24540916e+00  -2.97329860e-01
C     2.101036473793400e-03   7.049875376606441e+00   3.535090079657557e+00  1.29931292e+00   1.19198338e+00  -1.05668856e+00
C     1.762071270074474e+00   1.767416164126678e+00   3.554585781703622e+00  1.43818850e-01   2.75622300e-02   2.89732800e-01
C     7.100029492159887e+00   1.782601460864427e+00   5.278153214393472e+00 -1.87960761e+00  -9.71193760e-01   8.88725480e-01
C     1.744141482447369e+00   1.289908585470440e-02   5.344435274608305e+00  1.43861176e+00   6.58447020e-01  -4.84540230e-01
C     8.789779243993124e-01   8.753079168848326e-01   4.391342945614539e+00  6.67556700e-02  -2.92495180e-01   1.43331017e+00
C     2.635250001131938e+00   2.653098326235817e+00   4.501439830090301e+00 -5.02715390e-01   5.81124980e-01  -1.35674587e+00
C     7.851587590495401e-01   2.651281555582597e+00   6.185065960173313e+00  3.51741072e+00   1.42837692e+00   5.80535800e-01
C     2.710839047998911e+00   9.022939060140435e-01   6.197919978628606e+00 -1.63695354e+00  -3.38657230e-01   8.24655800e-01
C     3.604819795927316e+00   3.982650158152640e-02   3.597202481331950e+00 -2.03289083e+00  -1.30321912e+00  -1.42483477e+00
C     5.344452832412177e+00   1.841167754830607e+00   3.492288561041109e+00 -9.70867800e-02  -3.41211064e+00   9.05595500e-01
C     3.581543550395031e+00   1.802642734346576e+00   5.323644986634686e+00 -7.73076890e-01  -5.39664830e-01   8.58309460e-01
C     5.354406187933153e+00   3.150509772564960e-02   5.279874376762453e+00 -2.49815240e-01   3.75316370e-01   4.19487070e-01
C     4.462701912348802e+00   9.483131942978876e-01   4.395946075766346e+00  8.53632870e-01  -6.80728810e-01   9.30931480e-01
C     6.161479076572534e+00   2.644016107906922e+00   4.438808584648875e+00  2.41130837e+00   1.80688009e+00  -6.20657380e-01
C     4.429385801792255e+00   2.674981249850356e+00   6.257771546488708e+00  2.16664720e-01   3.68377900e-01  -1.16648020e+00
C     6.190738979013656e+00   9.348477804130477e-01   6.195282114078551e+00  5.79584590e-01  -1.64480861e+00   1.35158920e-01
C     2.774587950728880e-02   3.521689992176595e+00   3.597859726087395e+00 -2.15332481e+00   1.80025486e+00  -1.02498867e+00
C     1.792561356134213e+00   5.300130537860405e+00   3.636130407210083e+00  1.43372563e+00   2.53779939e+00  -3.48395092e+00
C     7.090346825372281e+00   5.325390317640575e+00   5.327612765972717e+00  6.80711170e-01  -1.30648700e-02   8.07122010e-01
C     1.700973240307955e+00   3.562546504195759e+00   5.334729789784088e+00  2.55658670e+00  -1.75208510e-01   1.30903600e+00
C     9.111360729110614e-01   4.464175061852571e+00   4.458290638523509e+00 -1.71652764e+00  -1.23580988e+00   1.68547430e-01
C     2.683253392337476e+00   6.257328905012161e+00   4.519113927755765e+00 -4.62972530e-01  -9.34641230e-01  -1.44077660e+00
C     8.679047079787812e-01   6.240332453275062e+00   6.208497595824071e+00 -8.36693070e-01   2.91578980e-01   1.52222200e-02
C     2.675639560869195e+00   4.476070011927974e+00   6.272773730259766e+00 -1.30979191e+00  -1.35569281e+00  -1.33191218e+00
C     3.532458470519407e+00   3.509838261310721e+00   3.625831298012869e+00  1.07657680e-01   1.76704438e+00  -2.22445295e+00
C     5.302019672255897e+00   5.274589762134067e+00   3.614529616889331e+00  6.37230590e-01   2.11382586e+00  -2.19204610e+00
C     3.557141472888190e+00   5.344493705842241e+00   5.390591826532941e+00  4.45155500e-02  -3.01979370e-01  -1.60667774e+00
C     5.337278017124905e+00   3.592390292470889e+00   5.291461887559541e+00 -1.34910299e+00  -2.09440678e+00   2.73119864e+00
C     4.398656446227126e+00   4.440085328435653e+00   4.453248634359143e+00  8.18700520e-01  -4.58478420e-01   1.19227923e+00
C     6.252159446830219e+00   6.222323264567293e+00   4.446039129969486e+00 -1.65779889e+00  -9.35933550e-01  -3.49890650e-01
C     4.492831459213256e+00   6.234493026261186e+00   6.150477655220465e+00 -7.39293600e-02   1.70047620e-01   2.30876888e+00
C     6.193674828639942e+00   4.387409357789309e+00   6.246824788906587e+00  1.82430661e+00   2.48238868e+00  -1.19155214e+00
