64
Lattice="7.10842262195238 0 0 0 7.10842262195238 0 0 0 7.10842262195238 " PBC="1 1 1" Properties=species:S:1:pos:R:3:force:R:3 Energy="-505.65022569"
C     5.422375858762200e-03   7.086513608474446e+00   6.965661111900813e+00  5.46389800e-02  -3.78118690e-01   3.94130839e+00
C     1.761066352368684e+00   1.704571168417067e+00   2.295458940873020e-02 -8.06076450e-01   3.91245522e+00  -1.10534144e+00
C     7.103571263730302e+00   1.746585855733709e+00   1.652635539986598e+00  1.48708153e+00  -4.47480850e-01   2.96128476e+00
C     1.823967860038124e+00   7.010141853192785e+00   1.753280141651867e+00 -1.70676859e+00   3.22750209e+00   1.02350461e+00
C     8.835434509954598e-01   8.421283591268157e-01   8.319628171906324e-01  3.57912150e-01  -1.91929771e+00   4.39532280e-01
C     2.524478740602216e+00   2.704226011351298e+00   8.706100314595008e-01  3.68239985e+00  -2.35755955e+00   2.04515546e+00
C     7.943845675153596e-01   2.576763890172912e+00   2.719736660592364e+00  1.00549536e+00   3.76811780e+00  -2.52721603e+00
C     2.607024587434704e+00   8.977655564681986e-01   2.624313977267972e+00  3.46527245e+00   2.50124240e-01  -1.79651440e-01
C     3.526924421341285e+00   6.814802115258280e-02   1.687041940404600e-03  1.35108272e+00   5.38298990e-01  -4.88241500e-02
C     5.372457031997476e+00   1.810496475078283e+00   7.076564518007041e+00 -1.74630568e+00  -3.87224460e-01  -2.07974580e+00
C     3.592070626705667e+00   1.832224861585063e+00   1.786486427078935e+00 -2.06796715e+00  -6.51336950e-01  -6.24342260e-01
C     5.391713606706603e+00   9.328773967470100e-02   1.688380243131267e+00 -1.61892720e+00  -4.24852987e+00   1.07794508e+00
C     4.463616837424222e+00   9.860592027469923e-01   8.520219328135580e-01 -2.75215180e-01  -1.35750492e+00   7.64039490e-01
C     6.364531453049739e+00   2.599291760971763e+00   6.961733210813680e-01 -4.26880239e+00   2.45301227e+00   5.61930789e+00
C     4.524034093556424e+00   2.603087089977033e+00   2.730955528592379e+00 -1.71177439e+00   5.32793330e-01  -2.95070150e-01
C     6.242652713502457e+00   8.700877756496094e-01   2.611028832980776e+00  1.79456770e-01  -8.59019600e-02   2.84718250e-01
C     7.073687455035822e+00   3.616069940986859e+00   7.016010211486726e+00  2.35391525e+00  -1.19823615e+00   3.32351107e+00
C     1.896034967833791e+00   5.322436412620834e+00   6.532064605547780e-02 -3.48946752e+00  -7.68548930e-01  -1.74984010e+00
C     7.074607853596659e+00   5.399970181748186e+00   1.799404350253583e+00  1.13348731e+00  -2.76720854e+00  -1.52326250e-01
C     1.708274301180957e+00   3.523607275925662e+00   1.911949588732352e+00 -2.42184990e-01   9.43345850e-01  -3.90145131e+00
C     8.148681981371516e-01   4.447276279842271e+00   9.211547548359156e-01  2.36679800e+00   9.67668310e-01   8.02764490e-01
C     2.767148915372824e+00   6.228778138811610e+00   9.032823321793545e-01 -1.50171861e+00  -9.15079340e-01   3.37444650e-01
C     8.968467928445636e-01   6.219819322699397e+00   2.709714637708879e+00  2.45968880e-01  -1.53662848e+00  -1.92775747e+00
C     2.647647587770801e+00   4.456380463197062e+00   2.734587221708937e+00 -9.97017240e-01   1.42612330e-01  -6.25101500e-01
C     3.465046455444899e+00   3.482383329541269e+00   7.080545092505789e+00  2.35139411e+00   1.28349216e+00   2.37857286e+00
C     5.235341317479999e+00   5.243566615462053e+00   4.790081666713200e-03  1.74382314e+00   1.48675741e+00   1.27665472e+00
C     3.607816422567004e+00   5.337770701896698e+00   1.839304992683036e+00 -9.36090550e-01  -1.49033128e+00  -2.27985940e-01
C     5.466389932109168e+00   3.439207125968520e+00   1.867963593654733e+00 -2.60316558e+00   2.48674435e+00  -1.93752426e+00
C     4.407358790451209e+00   4.316995669095054e+00   1.034706332704998e+00  1.35358089e+00   1.38251723e+00  -3.65893166e+00
C     6.205922072140393e+00   6.143883598061248e+00   8.426264462997992e-01 -6.64312520e-01   3.24774825e+00  -4.91219460e-01
C     4.503057209489031e+00   6.185828267415082e+00   2.691952111266023e+00  2.81086350e-01   1.82133833e+00  -1.79759776e+00
C     6.274083812548633e+00   4.475626233103807e+00   2.751213253543308e+00 -1.34115608e+00  -1.04089355e+00  -2.33229859e+00
C     1.554192630059420e-02   7.054943468681823e+00   3.525861427822690e+00 -9.34838790e-01   2.48673937e+00   8.52184320e-01
C     1.684703766952203e+00   1.771824452414471e+00   3.526522297873671e+00  1.59773757e+00  -1.80195705e+00   1.29498162e+00
C     7.095485361915826e+00   1.718476096072502e+00   5.364941012424445e+00  2.02500394e+00   3.42058784e+00  -2.59118061e+00
C     1.863897291579188e+00   7.100071574021798e+00   5.309119067179169e+00 -1.29301171e+00   8.56794610e-01  -7.77263780e-01
C     9.142237584445108e-01   8.166219170817318e-01   4.427104780057723e+00 -1.10594838e+00   1.55048037e+00   9.71265360e-01
C     2.513917117357646e+00   2.712270968651483e+00   4.415732085792212e+00  3.34750373e+00  -1.10571032e+00   1.28114410e-01
C     8.598057266666842e-01   2.779332467406599e+00   6.226987313900954e+00  6.54900200e-01  -5.53253311e+00  -6.62598640e-01
C     2.658771842665744e+00   9.487899562030111e-01   6.184686086068500e+00 -1.78355280e-01  -8.48943220e-01   1.01174724e+00
C     3.663352467054503e+00   4.310774946291840e-02   3.463804116423602e+00 -3.06862318e+00   9.09043900e-02   2.49043125e+00
C     5.379326256196313e+00   1.660147578842961e+00   3.617988219915092e+00  9.81237730e-01   4.43291935e+00  -2.33885195e+00
C     3.493248055926356e+00   1.867841328785669e+00   5.283627552821587e+00  8.62489740e-01  -2.10036285e+00   4.39549170e-01
C     5.288428368206456e+00   3.836060266883000e-03   5.365604939097153e+00  3.68577630e-01   1.38053550e+00  -4.12179540e-01
C     4.474909206514128e+00   9.241014803488103e-01   4.485861437581667e+00 -1.84248708e+00  -1.03435823e+00  -1.48814603e+00
C     6.301252914644534e+00   2.674872206647365e+00   4.425283246761349e+00 -3.92739215e+00  -2.14509849e+00   1.71088781e+00
C     4.426184665833791e+00   2.706870131313260e+00   6.154724582314784e+00 -6.00592350e-01  -1.53720542e+00   1.88362412e+00
C     6.206621256589297e+00   9.153252085294799e-01   6.180566755160211e+00 -4.71732310e-01  -2.16632939e+00   6.72833960e-01
C     7.084447545439942e+00   3.622261874678463e+00   3.629747256950001e+00  1.63386076e+00  -2.61138724e+00  -1.34112409e+00
C     1.725190569910902e+00   5.335824700120246e+00   3.643990758774826e+00  2.42803126e+00   8.64912530e-01  -2.07862179e+00
C     1.083615052615420e-02   5.371204030342248e+00   5.384687428536317e+00 -1.72662758e+00  -6.91858460e-01  -1.58654462e+00
C     1.721160805127623e+00   3.567257042613355e+00   5.351599071840515e+00  5.04140500e-01   8.47933910e-01  -2.57479940e-01
C     8.301735561329522e-01   4.471813914968475e+00   4.521343911015885e+00  1.90107442e+00   4.82034760e-01  -8.29048850e-01
C     2.768405471239361e+00   6.329482948816471e+00   4.370196952173015e+00 -1.74417599e+00  -3.86276027e+00   2.03931681e+00
C     9.286609647857308e-01   6.213888481370628e+00   6.173596022686359e+00  1.68341435e+00   2.40434450e-01   1.40904395e+00
C     2.675578499518888e+00   4.370449372260252e+00   6.239292277793078e+00 -1.81819070e-01   3.91499860e+00  -1.17043217e+00
C     3.487762130769371e+00   3.574935987232836e+00   3.590824662388834e+00  2.03328168e+00  -5.52432980e-01  -1.53681160e-01
C     5.359490345043655e+00   5.295088675864491e+00   3.602801430408594e+00 -8.94445270e-01   1.48123229e+00  -7.74418140e-01
C     3.633471430644845e+00   5.378156920675323e+00   5.295978934713420e+00 -2.98375610e+00  -3.79119930e-01   1.18849479e+00
C     5.290786871747546e+00   3.522044702465333e+00   5.277922830416358e+00  2.61058375e+00   9.91880580e-01   1.30753717e+00
C     4.457656567225805e+00   4.433128741722816e+00   4.473532944810669e+00 -7.14960020e-01   5.88929410e-01  -1.27383374e+00
C     6.157283259036853e+00   6.275929087976558e+00   4.449768563897069e+00  2.16697659e+00  -2.36228260e+00   7.49451520e-01
C     4.356459427870282e+00   6.314202257047162e+00   6.244116906393725e+00  2.96773897e+00  -3.88791715e+00  -2.53014660e-01
C     6.225320744217695e+00   4.424443884218379e+00   6.202730959057822e+00 -3.53462316e+00   2.10012277e+00  -7.91372090e-01
