64
Lattice="7.10842262195238 0 0 0 7.10842262195238 0 0 0 7.10842262195238 " PBC="1 1 1" Properties=species:S:1:pos:R:3:force:R:3 Energy="-507.07336783"
C     7.092237594704974e+00   4.075130736438839e-02   3.692086275137520e-02  1.04465174e+00  -3.79867800e-01  -3.00172788e+00
C     1.819687310104812e+00   1.844133815253028e+00   7.030605153725883e+00 -1.12533558e+00  -1.84699891e+00   1.52919190e+00
C     7.100124602854542e+00   1.811079294648897e+00   1.715775748487616e+00 -6.80100000e-03  -1.24820434e+00   1.80581562e+00
C     1.773480288379574e+00   7.064428236983688e+00   1.753696481964721e+00  1.05870206e+00   4.44576778e+00  -5.95203210e-01
C     8.858981870725610e-01   1.036019329447138e+00   7.747483319540978e-01  1.30172660e-01  -4.60427444e+00   2.97519995e+00
C     2.652463188674720e+00   2.630196907828285e+00   8.987959223269676e-01  6.00739970e-01   1.76579810e+00  -9.34921760e-01
C     8.246099359167306e-01   2.649867050565444e+00   2.701339280925316e+00  1.36319172e+00   1.05844826e+00  -2.39459907e+00
C     2.668503699737881e+00   9.271340045227286e-01   2.603919983855419e+00 -1.52663745e+00  -3.03042442e+00   3.26092335e+00
C     3.554161337788981e+00   7.036315562869207e+00   7.898168373081999e-04  7.05839120e-01   2.21745646e+00   1.17832008e+00
C     5.309661226572396e+00   1.772694736595837e+00   7.075098192588987e+00 -6.75965480e-01  -1.28074423e+00   8.91801670e-01
C     3.544522601053166e+00   1.673047730961059e+00   1.695839537491791e+00 -5.14939780e-01   3.56170896e+00   2.88368182e+00
C     5.354574302128116e+00   7.282650058416200e-03   1.831817193547806e+00  1.69557740e-01  -5.74106780e-01  -1.43060130e+00
C     4.427438804836637e+00   8.207063456349576e-01   9.190459701814664e-01  1.31563908e+00   2.99397520e-01  -2.63189964e+00
C     6.181816273688354e+00   2.544116611100680e+00   8.428181604578606e-01  3.68233620e-01   5.62605186e+00   5.13205330e-01
C     4.396651942132512e+00   2.634167530535364e+00   2.609514881131168e+00  1.44214536e+00   1.44974555e+00   8.22525980e-01
C     6.212547548527590e+00   9.425912695099187e-01   2.612948960098890e+00  1.55441675e+00  -1.98158935e+00   2.10545292e+00
C     7.722803587046600e-03   3.467179266567804e+00   5.450383043884999e-03 -4.93375760e-01   2.11605119e+00   1.70411880e-01
C     1.785211673650491e+00   5.371126193114559e+00   7.378336535304020e-02  3.46712840e-01  -1.08431812e+00  -2.73676805e+00
C     7.100682045356403e+00   5.280003181380327e+00   1.776857571050562e+00  1.00297344e+00   4.49747210e-01   1.06138778e+00
C     1.742476405532861e+00   3.608791484897788e+00   1.767500967608534e+00  2.64719891e+00  -4.03170257e+00   3.29748454e+00
C     9.145273591746109e-01   4.397290633904920e+00   9.356503213268457e-01 -2.22844014e+00   2.24752623e+00  -2.35325840e+00
C     2.728695050199220e+00   6.276044742012586e+00   9.197147305815560e-01 -2.68789119e+00  -3.71231639e+00   2.87050540e-01
C     9.258316704145183e-01   6.218607905316497e+00   2.611779553493674e+00 -1.64312104e+00  -3.37337740e-01   1.26529627e+00
C     2.693969339437126e+00   4.416256474128889e+00   2.728191418456592e+00 -1.14774280e+00   2.29581524e+00  -2.76276209e+00
C     3.558206741102023e+00   3.531677894631505e+00   1.237903365582520e-02 -1.82148143e+00   2.83588737e+00   9.12869610e-01
C     5.343176728383434e+00   5.380171874151189e+00   1.715532498265560e-02  1.28953568e+00  -6.91402580e-01  -2.16675579e+00
C     3.568413369720950e+00   5.334442822762918e+00   1.790165604458595e+00  4.75096780e-01   8.64521740e-01   7.35695560e-01
C     5.295215632292485e+00   3.574839881359014e+00   1.697657871997987e+00  8.13857620e-01  -1.44808155e+00   1.91503179e+00
C     4.426863733446679e+00   4.539222944505482e+00   8.378670730188044e-01  6.64493500e-01  -3.13699723e+00   1.61250298e+00
C     6.288757160689289e+00   6.210037351247790e+00   8.991579542910043e-01 -2.19770666e+00   5.71896640e-01   8.15073300e-01
C     4.533770784355943e+00   6.216041693666451e+00   2.717041857577122e+00 -3.60476886e+00   8.70932800e-02  -7.97823180e-01
C     6.226978428372679e+00   4.395978987763077e+00   2.726430306752487e+00 -1.43681116e+00   5.82808590e-01  -2.51943165e+00
C     3.111434773422820e-02   7.051070728954221e+00   3.525425041758048e+00 -1.06563790e+00   2.19576582e+00   1.28517378e+00
C     1.743960786344369e+00   1.817045962427673e+00   3.537433442258466e+00  9.77479330e-01  -7.14350280e-01   5.61132750e-01
C     7.102715054225723e+00   1.779993096268244e+00   5.284614486218148e+00 -4.61128000e-02   8.42966500e-02   2.45807442e+00
C     1.802672376468902e+00   3.309191090711220e-02   5.287164561748846e+00 -4.31536910e-01  -2.05129329e+00   2.92182105e+00
C     9.166465932103116e-01   9.197806967434695e-01   4.492011005074454e+00 -4.19129530e-01  -1.17890628e+00  -3.87221228e+00
C     2.564900999083525e+00   2.723595894316988e+00   4.494461989193831e+00  4.05511088e+00  -2.01365522e+00  -1.76996664e+00
C     8.987636500882729e-01   2.735287330252781e+00   6.210380616976109e+00 -8.54378200e-02  -2.77587200e+00  -8.60484150e-01
C     2.664910249935019e+00   7.915181671780708e-01   6.300793497290604e+00  9.82583660e-01   3.47998619e+00  -4.00201406e+00
C     3.551510322657078e+00   7.056519121639772e+00   3.644341346178444e+00  1.54333555e+00   2.38130538e+00  -3.87287004e+00
C     5.350320977453439e+00   1.822899890623695e+00   3.562031854398072e+00 -5.37764620e-01  -1.46244927e+00  -3.32888629e+00
C     3.618780595784544e+00   1.759638696769684e+00   5.356168365900650e+00 -3.76727160e+00   8.68826160e-01  -2.20158070e-01
C     5.273710592424425e+00   7.571820690597800e-02   5.377945516186604e+00  3.70267175e+00  -2.38124328e+00  -2.15093915e+00
C     4.509039089292212e+00   9.320673209052348e-01   4.390689397238857e+00 -2.76657348e+00  -1.13438607e+00   3.00561834e+00
C     6.193579575776835e+00   2.658422037188614e+00   4.428008402741177e+00 -5.55023530e-01  -6.68346100e-02   1.12614649e+00
C     4.357106507581380e+00   2.728088986086638e+00   6.269527455817665e+00  3.90137430e+00  -3.85391065e+00  -2.56251427e+00
C     6.218104415742323e+00   8.697386099305150e-01   6.218531987362916e+00 -9.76874280e-01   1.74088092e+00  -1.75172870e-01
C     7.094441632222531e+00   3.491674322242514e+00   3.586563944954632e+00 -6.78591330e-01   1.98353899e+00  -6.41017440e-01
C     1.759465109089303e+00   5.405989025348992e+00   3.548168155593833e+00  1.14740853e+00  -4.64222433e+00   1.93967070e-01
C     4.639667444074000e-02   5.256462644695031e+00   5.309779084219436e+00 -2.32458407e+00   1.81193981e+00   1.49508052e+00
C     1.739298158695232e+00   3.611638763578230e+00   5.367759501993275e+00  1.11788444e+00  -3.54286110e-01  -1.19801383e+00
C     8.504142919538188e-01   4.400442081989270e+00   4.441402661315591e+00  1.92286702e+00   1.84348168e+00  -8.19402000e-01
C     2.681555758847368e+00   6.135264848887177e+00   4.470751845544822e+00 -1.60650881e+00   4.90146403e+00  -1.34185953e+00
C     8.573961846511828e-01   6.253599257831900e+00   6.155254444136879e+00  1.69425454e+00  -1.03315310e+00   2.77922450e+00
C     2.692290401098509e+00   4.427716459824174e+00   6.230955732997020e+00 -1.22365363e+00   1.97345603e+00   6.16354860e-01
C     3.598984918303915e+00   3.575600766916258e+00   3.548550944151920e+00 -2.94354521e+00  -8.94550070e-01   1.41418592e+00
C     5.283337529178691e+00   5.302868702253629e+00   3.566442986054912e+00  3.77105633e+00   1.19846860e-01   1.66806098e+00
C     3.577400974944773e+00   5.365246958934009e+00   5.284104101474031e+00 -9.21812600e-01  -1.31724855e+00   4.72982694e+00
C     5.246384820693978e+00   3.523156033257744e+00   5.313940283736958e+00  2.93659103e+00   2.01640532e+00   1.72598687e+00
C     4.430009423708708e+00   4.526846398797574e+00   4.514256458242614e+00  9.92491540e-01  -4.35308023e+00  -3.86816639e+00
C     6.229758745712038e+00   6.137279304773458e+00   4.507288355885133e+00 -6.05876220e-01   2.36593381e+00  -2.63594415e+00
C     4.461441944439406e+00   6.278045052137854e+00   6.210920786011004e+00 -8.43072160e-01  -1.79711807e+00   1.72780220e-01
C     6.292655988327907e+00   4.370970917227881e+00   6.196552460284971e+00 -2.84283767e+00   1.16740396e+00   1.44568997e+00
