64
Lattice="7.10842262195238 0 0 0 7.10842262195238 0 0 0 7.10842262195238 " PBC="1 1 1" Properties=species:S:1:pos:R:3:force:R:3 Energy="-512.20121463"
C     2.151819044990680e-02   4.522065700248720e-02   7.055433665505698e+00  4.96760470e-01  -1.53260992e+00   1.55115472e+00
C     1.799909048259603e+00   1.792207001266607e+00   7.040352791496237e+00 -3.24894000e-02   2.68116220e-01   2.15088403e+00
C     7.092236101936225e+00   1.777851683953969e+00   1.745165663978459e+00  6.09851660e-01   2.00633280e-01  -7.02047560e-01
C     1.784779979144778e+00   3.063922076630740e-02   1.806729366510814e+00 -1.60544999e+00  -1.72499866e+00  -1.12271620e+00
C     9.277774589382910e-01   9.192212638832756e-01   8.336358555384755e-01 -9.45483450e-01  -3.07364510e-01   8.98877110e-01
C     2.673494167838252e+00   2.681588386507194e+00   9.023312252327983e-01 -3.25735690e-01  -6.86053490e-01  -2.35930340e-01
C     8.477022154716102e-01   2.669334674342159e+00   2.626614547164710e+00  8.15877370e-01  -8.32922520e-01   1.74512929e+00
C     2.656446535458290e+00   8.767613760579439e-01   2.675706806547180e+00  1.21659824e+00   7.29732290e-01  -9.72649700e-02
C     3.565575118737236e+00   7.093570566114677e+00   3.838334962121400e-02 -8.28537700e-01  -4.97629640e-01  -1.25227542e+00
C     5.292005326468840e+00   1.758403324002554e+00   7.038894285343066e+00  1.23432343e+00   3.45290760e-01   1.61107309e+00
C     3.538814182268175e+00   1.758589280338293e+00   1.770868298487855e+00  1.04121366e+00   3.71373100e-02  -1.86922080e-01
C     5.389838049398317e+00   7.104704559548609e+00   1.759144803566046e+00 -1.49382877e+00   5.03688550e-01   2.50651010e-01
C     4.454109322169972e+00   8.554969562955712e-01   8.174700940687503e-01 -1.91539100e-02   1.10407649e+00   3.09672788e+00
C     6.182079356409520e+00   2.668832606452509e+00   8.288308461842603e-01  7.74996440e-01  -1.83078663e+00   1.12697681e+00
C     4.462492711471095e+00   2.644894211353170e+00   2.672892013358112e+00 -1.73955850e+00   4.72124400e-01  -1.12658837e+00
C     6.241177218219224e+00   9.039712094154585e-01   2.660370597997208e+00 -7.91901430e-01   9.71892700e-02  -4.42174330e-01
C     7.095507042604817e+00   3.535048708637909e+00   1.859079984653840e-02  3.01025500e-02   5.04700530e-01  -1.29891752e+00
C     1.791306079783748e+00   5.347343614639052e+00   7.095723707326274e+00 -1.53491125e+00  -1.34130800e-01   1.92877558e+00
C     7.099475959290467e+00   5.287600805645035e+00   1.830240261073786e+00 -5.90058950e-01   4.30201090e-01  -2.68783452e+00
C     1.781494537294040e+00   3.514018937906222e+00   1.818017541631374e+00 -4.24479100e-01   1.94347237e+00  -2.00757892e+00
C     8.616376382600843e-01   4.408510212747196e+00   8.777620287101614e-01  1.09718429e+00   8.77487020e-01   1.10625698e+00
C     2.630748947928954e+00   6.189237680156312e+00   9.745297677627096e-01  1.64991860e+00   1.82839999e+00  -2.02695080e+00
C     8.195038848645584e-01   6.188032589269544e+00   2.655674916182889e+00  2.15922512e+00   1.05291757e+00   1.34716458e+00
C     2.658885435259212e+00   4.475052796651052e+00   2.687319907665700e+00  3.27178720e-01  -1.77270757e+00   2.35739200e-02
C     3.531635954938047e+00   3.597679811910883e+00   4.969164157778860e-02  6.07392430e-01  -8.60548690e-01  -1.26039345e+00
C     5.376239565842031e+00   5.342918905895007e+00   7.056360674899572e+00 -1.91209527e+00   1.10686663e+00   2.98968217e+00
C     3.569840598814594e+00   5.381054740240592e+00   1.857873614251000e+00 -1.21680540e-01  -2.16496960e+00  -2.20012989e+00
C     5.324091750996353e+00   3.493546538592170e+00   1.727280161824277e+00 -7.84092190e-01   1.84728381e+00   1.42649340e+00
C     4.454258527960766e+00   4.452826251887062e+00   8.852808916522401e-01 -2.38526160e-01   6.30266590e-01   6.26106840e-01
C     6.264412874658349e+00   6.265013252032834e+00   9.051154522046000e-01 -6.35237700e-02  -2.14924954e+00  -1.55385289e+00
C     4.503893017820690e+00   6.210112131853752e+00   2.674133357200243e+00  2.11175000e-03   4.63036710e-01   6.09658020e-01
C     6.179456490631193e+00   4.355163207005525e+00   2.674356988175868e+00  1.65638637e+00   1.75165403e+00  -4.08015080e-01
C     7.099604195234533e+00   4.521354857986720e-02   3.546456731763842e+00  6.78953960e-01  -1.96555822e+00   4.35491230e-01
C     1.782359632326894e+00   1.803394734375546e+00   3.551260035096628e+00 -1.59529510e-01  -1.19895290e-01  -4.73369790e-01
C     7.796802266520800e-03   1.798561504583529e+00   5.356949226125458e+00  5.47667700e-02  -8.68687600e-02  -1.80749291e+00
C     1.810650230259554e+00   7.107396874615934e+00   5.320001991126163e+00 -1.55630615e+00   1.23381120e-01  -9.72422910e-01
C     9.191967398252365e-01   9.176289772163956e-01   4.391225869893987e+00 -9.74366550e-01  -3.50400660e-01   2.23404995e+00
C     2.669005838711758e+00   2.694806640537536e+00   4.456740433718539e+00 -4.80344430e-01  -1.89207120e-01  -2.23744000e-03
C     9.075820748537401e-01   2.691107630658767e+00   6.189880921319197e+00 -5.19576690e-01  -2.12886260e-01   1.08093662e+00
C     2.684243737776895e+00   8.710558006420009e-01   6.215031231391018e+00 -7.22479960e-01  -5.46506900e-02   4.85820450e-01
C     3.609479509123179e+00   7.097240857966061e+00   3.542881550607113e+00 -2.02705098e+00  -2.45025100e-01   6.56614680e-01
C     5.329043336024993e+00   1.786441146426846e+00   3.534241831586313e+00 -2.88042780e-01  -4.05680220e-01   1.77008697e+00
C     3.505216720344329e+00   1.761128195645478e+00   5.354750306672187e+00  2.21035753e+00   8.98744660e-01  -1.34881705e+00
C     5.377198776390373e+00   2.277965112805200e-02   5.306090736974596e+00 -2.26717521e+00  -4.52311780e-01   7.49098430e-01
C     4.425101839816086e+00   8.808614431409338e-01   4.449246876760988e+00  9.32443780e-01   5.24611960e-01  -6.67567970e-01
C     6.177521577994028e+00   2.667823423693147e+00   4.507791418953950e+00  1.06436722e+00  -2.33280470e-01  -1.80284664e+00
C     4.430633187793613e+00   2.652065827850262e+00   6.226001873273143e+00 -1.61094042e+00   1.11123224e+00  -1.10321270e-01
C     6.224618360978612e+00   9.069895878283630e-01   6.197589152639872e+00  5.23811050e-01  -2.31437810e-01  -1.60443050e-01
C     7.057290527662494e+00   3.514795959582814e+00   3.557696853947491e+00  1.17687284e+00  -2.65443580e-01   4.17478700e-01
C     1.734324892977602e+00   5.254887631495117e+00   3.552748396624804e+00  1.54984300e-01   3.52938609e+00   1.27939400e-01
C     7.098222317877204e+00   5.288286128669830e+00   5.354931500364771e+00  7.83436440e-01   1.18459984e+00  -1.14622080e+00
C     1.776801414511864e+00   3.606063983138494e+00   5.345747205087052e+00  1.78578610e-01  -1.33699664e+00  -5.13529220e-01
C     8.841910993803679e-01   4.400326570121695e+00   4.424900600371713e+00 -1.38618759e+00   5.43371660e-01   6.96258600e-01
C     2.608558371783421e+00   6.216066999650979e+00   4.428320604662648e+00  2.62997059e+00  -8.95116520e-01   3.14918100e-02
C     9.080408524496347e-01   6.207218293005150e+00   6.172023355265911e+00 -5.56357480e-01   7.41951140e-01   1.52790401e+00
C     2.660213217520401e+00   4.505459003323876e+00   6.244397191497631e+00  4.54944580e-01  -1.97775681e+00  -1.03809400e-01
C     3.540287829361527e+00   3.595613180202570e+00   3.573406610106143e+00  1.41637145e+00  -1.38712597e+00  -3.68660140e-01
C     5.422047165300251e+00   5.278520435506022e+00   3.592791349675109e+00 -3.28620387e+00   1.47688360e+00  -1.11714435e+00
C     3.537283028035827e+00   5.341003399251595e+00   5.374654671934675e+00  9.34201930e-01   9.17901020e-01  -2.25136318e+00
C     5.303378162902805e+00   3.577927282555558e+00   5.383602825412957e+00 -1.84826710e-01  -1.46984985e+00  -1.49706887e+00
C     4.471101366685047e+00   4.442843894001796e+00   4.436589264022684e+00 -1.29837543e+00   5.20370610e-01   1.68293976e+00
C     6.227487817937627e+00   6.222531470265833e+00   4.476047549312494e+00  1.18983826e+00  -3.48185680e-01  -1.11681658e+00
C     4.444514373317496e+00   6.255906509645899e+00   6.211782326832547e+00  4.85664940e-01  -1.12495327e+00   2.31591760e-01
C     6.181030864073071e+00   4.433130021238887e+00   6.241389973308240e+00  2.18602253e+00   7.78304300e-02  -5.45822080e-01
