32
Lattice="9.86 0 0 4.93 8.53901048131456 0 0 0 30 " PBC="1 1 1" Properties=species:S:1:pos:R:3:force:R:3 Energy="-254.66355149"
C     4.972326367099999e+00   8.388752842797526e+00  -3.448083000000004e-01 -6.60266390e-01   1.08638742e+00   6.86847800e-02
C     1.284958059400000e+00   5.836403416267424e-01  -2.900856000000012e-01 -1.45571408e+00  -1.65926963e+00  -8.78085130e-01
C     7.420809683900000e+00   8.432679732849373e+00  -2.648969999999977e-01  2.10515699e+00  -8.37257010e-01  -1.34192280e-01
C     3.748360788700000e+00   6.241255835046232e-01  -3.957990000000002e-01 -1.35710830e+00  -2.22120946e+00  -2.44910740e-01
C     9.884526651400000e+00   8.371005961146629e+00  -5.093177999999980e-01  4.39532100e-01   3.66607090e+00   1.84118590e-01
C     6.197885469400000e+00   6.061983579523872e-01  -4.737507000000001e-01 -7.12479810e-01  -1.95188344e+00  -5.76713210e-01
C     1.236640914060000e+01   8.518381938482417e+00  -5.616008999999984e-01  3.71534230e-01  -4.16949593e+00   4.63100200e-02
C     8.684921879199999e+00   6.141623514666640e-01  -3.327834000000003e-01 -8.89456600e-01   7.81287300e-02  -5.65547800e-01
C     1.206841962900000e+00   1.918810864822852e+00  -6.506580000000000e-01  2.99917503e+00   3.25624870e+00   1.08274297e+00
C     2.454449109800000e+00   2.739378433782390e+00  -7.856973000000025e-01  8.10253340e-01  -3.06367315e+00  -4.22964900e-02
C     3.682551648400000e+00   2.010239843224413e+00  -5.954684999999991e-01  2.02724937e+00   1.16112871e+00  -9.97419400e-02
C     4.975849690200000e+00   2.711303362785618e+00  -5.760176999999977e-01 -1.67007250e+00   3.05249690e-01  -2.04324860e-01
C     6.195527302500000e+00   1.973248935215158e+00  -4.418961000000010e-01 -8.10996420e-01   3.24655022e+00   4.52774480e-01
C     7.411307059599999e+00   2.720512514808088e+00  -3.430803000000004e-01  6.94719810e-01   7.14190400e-01   1.01881130e-01
C     8.643674787700000e+00   2.057937816474540e+00  -2.672825999999979e-01  1.47860034e+00  -1.95811306e+00  -8.31974010e-01
C     9.925454328199999e+00   2.667022103798853e+00  -5.004969000000017e-01 -3.21109882e+00   2.59280789e+00  -5.64300120e-01
C     2.550634543699999e+00   4.096141381999066e+00  -1.066673400000003e+00 -2.05591904e+00   2.25941293e+00   9.08654290e-01
C     3.808292383000000e+00   4.887984915165353e+00  -1.001764500000000e+00 -2.41623732e+00  -9.81616530e-01   1.40592247e+00
C     4.967148486699999e+00   4.161524072903798e+00  -6.402180000000008e-01  1.41896970e-01  -1.49575043e+00  -9.48901000e-02
C     6.164823607599999e+00   4.817303768257781e+00  -3.147201000000024e-01  1.87288769e+00   1.34794509e+00  -9.62262660e-01
C     7.456748940199999e+00   4.161281821176479e+00  -3.471740999999966e-01 -2.73597855e+00  -1.39914902e+00   2.19337560e-01
C     8.636148994799999e+00   4.867182007053766e+00  -5.149374000000009e-01  2.17149225e+00  -1.37655088e+00   2.16407600e-02
C     9.872344079099999e+00   4.124224992006319e+00  -7.208940000000013e-01  9.83503350e-01  -9.39487660e-01   4.36996190e-01
C     1.109492422890000e+01   4.790967325184840e+00  -9.636287999999986e-01  1.77656850e+00   2.73052057e+00  -6.55020180e-01
C     3.691862840800000e+00   6.313671254982292e+00  -7.967864999999996e-01  1.08258457e+00  -1.15920493e+00  -5.53658980e-01
C     4.900725857199999e+00   6.994549066109405e+00  -5.231187000000013e-01  2.57920966e+00  -9.31761600e-01   1.23775467e+00
C     6.188630971999999e+00   6.224053656873853e+00  -2.954903999999985e-01 -5.51414800e-01   2.54912833e+00  -5.08452440e-01
C     7.462373577199999e+00   6.997622939101996e+00  -2.202528000000008e-01 -8.33712140e-01  -1.41424005e+00  -8.09397710e-01
C     8.715883166599999e+00   6.246852131734615e+00  -4.554123000000025e-01 -2.11479066e+00   2.66150314e+00   8.05663500e-02
C     9.897217358799999e+00   7.011247955004093e+00  -6.888309000000028e-01  4.09672520e-01  -1.97151334e+00   2.06412310e-01
C     1.114708313590000e+01   6.343990804883732e+00  -9.640295999999999e-01 -3.43593211e+00  -4.03300593e+00   7.22665960e-01
C     1.231188417870000e+01   6.991154724053501e+00  -8.304776999999994e-01  2.96714085e+00   3.90790929e+00   5.49306130e-01
