32
Lattice="9.86 0 0 4.93 8.53901048131456 0 0 0 30 " PBC="1 1 1" Properties=species:S:1:pos:R:3:force:R:3 Energy="-254.63298499"
C     9.840802826499999e+00   3.593207070973520e-02   3.830546700000000e+00 -2.66446240e-01   4.64651590e-01  -1.24878733e+00
C     1.212119675800000e+00   7.717403969635360e-01   3.787638900000000e+00  1.08386558e+00   1.07777670e-01  -3.11680470e-01
C     2.524822986400000e+00   7.066304420535359e-02   3.596984400000000e+00 -7.46535467e+00  -2.64940839e+00   2.03259420e-01
C     3.646836214100000e+00   7.495867027841192e-01   3.629943900000000e+00  3.20674420e+00   2.29356303e+00   4.72237070e-01
C     4.860939623300000e+00   9.357927202063440e-02   3.668865000000000e+00  4.42169230e+00  -3.25438626e+00  -5.76793130e-01
C     6.205413579399999e+00   7.139835547580736e-01   3.649667700000000e+00 -5.46925437e+00   3.20242082e+00  -1.99211060e-01
C     7.388887588799999e+00   8.637977611463200e-02   3.659729100000000e+00  3.48267680e-01  -4.61541229e+00  -6.61293310e-01
C     8.573420414299999e+00   7.397248288005576e-01   3.669729900000000e+00  3.95453141e+00   2.34858761e+00   1.50356172e+00
C     1.107675047410000e+01   2.208327552169139e+00   3.847293300000000e+00  7.45907730e-01  -1.14401309e+00  -1.95108660e-01
C     2.535508860000000e+00   2.856173140545525e+00   3.780487500000000e+00 -6.91591634e+00   4.36285344e+00   8.31274290e-01
C     3.631884312900000e+00   2.157905549185787e+00   3.748855200000000e+00  5.35537154e+00  -1.43084400e-02  -3.29385620e-01
C     4.909112970399999e+00   2.907700433045408e+00   3.748155000000000e+00  4.86318860e-01  -2.29376953e+00  -8.43385560e-01
C     6.140213737800000e+00   2.155573972374222e+00   3.588111300000000e+00  7.52234180e-01   3.09132900e-01   1.28196774e+00
C     7.375299867899999e+00   2.885104930463756e+00   3.643329900000000e+00 -8.25146100e-01   1.27361857e+00  -2.81499570e-01
C     8.631677139699999e+00   2.186839473856637e+00   3.748368600000000e+00 -1.44851822e+00  -1.55978700e-01  -4.45301260e-01
C     9.832626372200000e+00   2.910596694620014e+00   3.865746900000000e+00  1.50968209e+00   7.54697580e-01  -6.03172590e-01
C     1.232166100960000e+01   4.361701448493189e+00   3.829076700000000e+00 -1.72368680e-01  -2.49677743e+00  -2.74293280e-01
C     3.643862388800000e+00   5.048067110875589e+00   3.698039100000000e+00  2.82923890e+00  -1.72553886e+00   6.53771960e-01
C     4.966733775100000e+00   4.291942087766934e+00   3.718316700000000e+00 -4.02784772e+00   1.84929735e+00  -3.58363480e-01
C     6.114025479200000e+00   5.073843651031355e+00   3.584999400000000e+00  5.92151930e-01  -1.15873778e+00  -2.89331940e-01
C     7.289966793700000e+00   4.349650257612660e+00   3.589362600000000e+00  5.16677942e+00  -1.04021530e+00   4.90090470e-01
C     8.651320626099999e+00   5.077839139425052e+00   3.661194000000000e+00 -2.71657866e+00  -1.84354897e+00  -3.79039780e-01
C     9.894149962100000e+00   4.360313773900084e+00   3.784374900000000e+00 -3.74124725e+00  -1.20063794e+00   5.80290930e-01
C     1.106417295950000e+01   5.073490733728217e+00   3.884548800000000e+00  2.52924071e+00  -3.89889510e+00  -4.69578840e-01
C     1.354421438950000e+01   6.437521319154525e+00   3.680178000000000e+00  9.87511290e-01   1.45430659e+00  -5.43924800e-02
C     4.927914363500000e+00   7.161177523423924e+00   3.731190000000000e+00 -8.76265120e-01   3.69448040e-01  -8.65010350e-01
C     6.125480531399999e+00   6.481365124634400e+00   3.494087100000000e+00 -5.44621410e-01  -1.39636140e-01   1.16404527e+00
C     7.332040695500000e+00   7.160731274736239e+00   3.472216200000000e+00  2.05450210e+00   1.91708477e+00   5.73409360e-01
C     8.560934548399999e+00   6.479480052680835e+00   3.582793500000000e+00  2.70489431e+00  -2.87812770e-01  -7.03861500e-02
C     9.848730217200000e+00   7.178552958118942e+00   3.650189700000000e+00 -8.46333370e-01   1.59686360e-01   5.74833610e-01
C     1.111614423070000e+01   6.391687497282287e+00   3.791003100000000e+00 -1.05668515e+00   6.94791921e+00  -1.48844975e+00
C     1.236262255550000e+01   7.156086906936167e+00   3.613718100000000e+00 -2.35635092e+00   1.04031470e-01   1.61572276e+00
