32
Lattice="9.86 0 0 4.93 8.53901048131456 0 0 0 30 " PBC="1 1 1" Properties=species:S:1:pos:R:3:force:R:3 Energy="-253.93154312"
C     9.749061541100000e+00   5.551298664855944e-01   3.374604900000000e+00  1.05539218e+00  -1.57213001e+00  -9.52428560e-01
C     1.100581334500000e+00   1.335446333234614e+00   3.459265200000000e+00  5.12576130e-01  -4.34884527e+00  -8.95043590e-01
C     2.330335768200000e+00   6.240322521200768e-01   3.198845700000000e+00  1.49460316e+00  -1.74375173e+00  -1.08313188e+00
C     3.669561197000000e+00   1.250529716565730e+00   3.255472500000000e+00 -2.69027844e+00  -1.26164134e+00   6.96290010e-01
C     4.919906712400000e+00   5.492679211811792e-01   3.256091100000000e+00 -3.82973020e+00  -6.21857110e-01  -1.78568866e+00
C     6.043436901100000e+00   1.348048375681207e+00   3.245844600000000e+00  3.15402928e+00  -4.18263665e+00   3.26208460e-01
C     7.301737908200000e+00   5.680750917633791e-01   3.366030600000000e+00 -6.54947860e-01   5.23949090e-01  -8.70698540e-01
C     8.541481606500000e+00   1.247293175423495e+00   3.417562200000000e+00 -4.42402980e-01  -2.43429180e-01   5.39109100e-01
C     1.095237184920000e+01   2.642129522007976e+00   3.757253400000000e+00  1.17480860e+00   5.02669874e+00   9.35257090e-01
C     2.410889601800000e+00   3.376021267359540e+00   3.757109100000000e+00 -2.38451934e+00  -3.87658460e-01  -2.16935460e-01
C     3.586902697100000e+00   2.615234286089225e+00   3.468536400000000e+00  1.90926604e+00   3.50061066e+00   1.81278450e-01
C     4.826353553400000e+00   3.398453418670710e+00   3.302350200000000e+00 -7.05411860e-01   3.29907070e-01  -1.16736585e+00
C     6.048191738200000e+00   2.702184895054445e+00   3.092828100000000e+00  7.44546660e-01   2.00423602e+00   1.96117393e+00
C     7.326265594900000e+00   3.368469622661343e+00   3.286901400000000e+00  2.40303490e-01   6.23336660e-01  -9.63163080e-01
C     8.562452495399999e+00   2.659364831541018e+00   3.529454100000000e+00 -2.09417533e+00   8.86426610e-01   1.51726720e-01
C     9.697705583199999e+00   3.393618289376515e+00   3.845993700000000e+00  2.42447156e+00   2.08203587e+00  -2.11372682e+00
C     1.225349804080000e+01   4.834238163061507e+00   3.803692800000000e+00 -3.15465030e-01  -1.87545044e+00  -1.28244943e+00
C     3.596275021499999e+00   5.486743318676620e+00   3.448887900000000e+00 -4.19389700e-01   2.45529807e+00  -1.04862970e-01
C     4.798198668500000e+00   4.841461055856224e+00   3.149462100000000e+00  1.69319722e+00  -2.04456203e+00   8.76526070e-01
C     6.064758756700000e+00   5.518450543171165e+00   2.914138500000000e+00  7.32947160e-01  -1.39119278e+00   2.94437480e-01
C     7.403099694199999e+00   4.769088928703299e+00   3.087676200000000e+00 -4.02318865e+00   1.36221703e+00   2.69720400e-01
C     8.521831070200001e+00   5.604939874790256e+00   3.260220900000000e+00  1.42102486e+00  -2.40422447e+00  -5.63845820e-01
C     9.785551231900000e+00   4.942278932450860e+00   3.579704100000000e+00 -2.83294220e+00  -4.09218851e+00   1.21548022e+00
C     1.099641356050000e+01   5.549243239643303e+00   3.668873700000000e+00  1.72251853e+00   2.15034838e+00  -4.68001780e-01
C     1.344156128860000e+01   6.929963064882458e+00   3.353589000000000e+00  8.93733470e-01   2.45878100e-01  -5.73027740e-01
C     4.831264178500000e+00   7.628782617879623e+00   3.110942100000000e+00 -1.62022450e+00   1.27315723e+00   7.73058950e-01
C     6.017400240000000e+00   6.921794647457290e+00   2.802678600000000e+00  1.47228153e+00   1.90124345e+00   1.06350591e+00
C     7.239963677099999e+00   7.755148872269999e+00   2.800804500000000e+00  4.14559970e-01  -1.51935196e+00   1.67703742e+00
C     8.479689676700000e+00   6.953958111281782e+00   2.967592500000000e+00  5.66146670e-01   3.30537247e+00   5.77401600e-02
C     9.753803510899999e+00   7.637391306685140e+00   3.084388800000000e+00  7.86578790e-01   1.54444649e+00   1.59753172e+00
C     1.099105016420000e+01   7.004932673633294e+00   3.393987300000000e+00 -7.30909570e-01  -2.80062209e+00  -1.95237690e-01
C     1.222136139210000e+01   7.672140126712662e+00   3.367067700000000e+00  3.30600350e-01   1.27438010e+00   6.19525780e-01
