32
Lattice="9.86 0 0 4.93 8.53901048131456 0 0 0 30 " PBC="1 1 1" Properties=species:S:1:pos:R:3:force:R:3 Energy="-254.61500384"
C     5.037941265400000e+00   7.965749647172117e+00  -1.167834000000028e-01  1.19598093e+00   4.04341722e+00   6.63351380e-01
C     1.391561322800000e+00   2.612464145699408e-01  -4.532489999999711e-02 -2.75393482e+00  -5.21137868e+00  -1.26942649e+00
C     7.477441875700000e+00   8.013842293486629e+00  -2.063880000000005e-01  2.25172283e+00   2.78337588e+00   1.33484446e+00
C     3.816497234100000e+00   2.213992075551256e-01  -1.366443000000004e-01 -1.38736837e+00  -2.04521260e+00   9.73198790e-01
C     9.981826758299999e+00   7.979327100785842e+00   3.379080000000000e-02 -1.71767075e+00   3.37897224e+00  -1.69274990e+00
C     6.247197005599999e+00   1.681119396052096e-01  -1.242432000000022e-01  2.20803653e+00  -5.96842610e-01   1.00881303e+00
C     1.245147688220000e+01   8.015674508965324e+00  -1.366499999999995e-01 -7.31087790e-01  -1.59627763e+00   1.51045034e+00
C     8.781102678900000e+00   1.340844097929336e-01  -3.133619999999837e-02 -2.43742599e+00   3.54030816e+00  -1.36585582e+00
C     1.337186085000000e+00   1.611834889698634e+00   8.580600000000001e-03 -2.04505904e+00   2.42890005e+00  -7.99687380e-01
C     2.525049421300000e+00   2.312009583658975e+00   6.461489999999999e-02  2.00966261e+00   1.64776480e+00  -1.75167410e-01
C     3.736839526600000e+00   1.617211904597889e+00   2.676240000000000e-02  3.68913991e+00  -1.05678383e+00  -2.32029950e-01
C     5.104333181000000e+00   2.232505504172944e+00   8.196240000000000e-02 -6.52014185e+00   4.86729850e+00  -3.08900560e-01
C     6.254712642699999e+00   1.590714586567506e+00  -4.257150000000109e-02  2.24758027e+00  -1.75310481e+00  -4.71120290e-01
C     7.465032868499999e+00   2.341730121975244e+00  -1.025819999999982e-01  1.09530801e+00  -2.44861240e+00  -4.42511860e-01
C     8.707841547800001e+00   1.665419912943987e+00  -9.588270000000065e-02  1.61799808e+00  -2.25808731e+00  -2.69262090e-01
C     9.950495080000000e+00   2.382708747878659e+00  -1.506012000000005e-01  5.28236000e-02  -9.53054230e-01   2.01854352e+00
C     2.589854813600000e+00   3.746476844122813e+00   9.715740000000000e-02 -1.84215237e+00  -9.96880710e-01   1.02314182e+00
C     3.779756951400000e+00   4.446951001180688e+00   1.685193000000000e-01  1.98905787e+00  -5.42892400e-02  -4.48256950e-01
C     5.015552212699999e+00   3.723519458277018e+00   6.318780000000000e-02  1.81867781e+00  -5.10852680e-01   5.56733350e-01
C     6.277622402000000e+00   4.450790140292495e+00  -7.366499999999832e-03 -4.88977310e-01   3.97601980e-01  -5.03679990e-01
C     7.504215177399999e+00   3.701701176429256e+00  -2.037773999999999e-01 -9.79339050e-01   2.71957219e+00   1.64619016e+00
C     8.718609604499999e+00   4.432891093474844e+00  -7.777499999999904e-02  3.21131690e-01   1.95735510e+00   5.58784000e-02
C     9.987496061100000e+00   3.821596312507574e+00   4.455540000000000e-02 -2.08986722e+00  -3.92037603e+00  -1.20738989e+00
C     1.120406599860000e+01   4.423738213531437e+00   1.837950000000000e-01  8.43182140e-01   2.83555462e+00  -6.10987800e-01
C     3.794719945100000e+00   5.888511788430471e+00   1.432623000000000e-01 -9.78093610e-01  -1.49753697e+00  -9.55298020e-01
C     4.939181139000000e+00   6.615134871891145e+00  -1.154127000000003e-01  5.39697422e+00  -2.97442252e+00   1.68620247e+00
C     6.313029859200000e+00   5.902143550150848e+00   1.478070000000000e-02 -4.06060742e+00  -1.02797949e+00  -1.31511675e+00
C     7.487245920199999e+00   6.627467252386780e+00  -9.193110000000004e-02 -1.14535970e-01  -1.45530347e+00  -2.03951170e-01
C     8.686435290600000e+00   5.874890785863299e+00  -4.053479999999965e-02  4.77377440e-01   1.74774490e-01   9.00600600e-02
C     9.890456011700000e+00   6.620408991714117e+00   5.128110000000000e-02  2.53358313e+00  -3.85928522e+00   1.78935960e-01
C     1.116502005350000e+01   5.850857484697025e+00   1.380453000000000e-01  2.54539490e-01   1.21179285e+00   2.54458500e-02
C     1.242995753080000e+01   6.545555598895914e+00   7.948170000000000e-02 -1.85651500e+00   2.22959234e+00  -5.00397270e-01
