32
Lattice="9.86 0 0 4.93 8.53901048131456 0 0 0 30 " PBC="1 1 1" Properties=species:S:1:pos:R:3:force:R:3 Energy="-252.11162597"
C     9.777781206799999e+00   2.535864098287520e-01   4.103192399999999e+00  4.29993420e+00  -2.07464793e+00   6.08197550e-01
C     1.216872047900000e+00   9.394517715871288e-01   4.274206800000000e+00 -3.23971618e+00   2.94829180e-01  -4.57728440e-01
C     2.410283261100000e+00   2.980639806664520e-01   3.989917800000000e+00 -2.88125790e-01  -3.87284188e+00  -5.92917870e-01
C     3.683857654700000e+00   8.419422492128648e-01   4.096483500000000e+00  1.15440136e+00   1.03359449e+00  -8.28576210e-01
C     4.895287771400000e+00   1.383437536104624e-01   3.844076400000000e+00  1.48720591e+00   1.20818652e+00   1.39132674e+00
C     6.116244422899999e+00   9.562350259053592e-01   3.978114900000000e+00  8.29597280e-01  -2.08544320e+00  -2.42398700e-01
C     7.405426111900000e+00   1.731187884001576e-01   4.037980800000000e+00 -2.60020467e+00   4.29334236e+00   1.86372651e+00
C     8.646447271800000e+00   1.000369499301973e+00   4.382478000000000e+00 -2.89839434e+00  -8.56499647e+00  -2.69007233e+00
C     1.103058506670000e+01   2.348594290939697e+00   4.566946799999999e+00  2.10232190e-01   2.66622340e-01  -3.85563730e-01
C     2.455121709700000e+00   2.946586830601014e+00   4.586768699999999e+00  1.11922234e+00   3.08857008e+00  -1.58553589e+00
C     3.754836393000000e+00   2.245580095459501e+00   4.254313800000000e+00 -4.13295080e+00   2.05613497e+00   2.91131200e-01
C     4.811831055200000e+00   3.065999341807002e+00   3.873660900000000e+00  3.38309535e+00  -1.73157470e-01   1.83159210e+00
C     6.098166162199999e+00   2.410673494860030e+00   4.007843700000000e+00 -2.42683800e-01  -2.60660252e+00  -1.75840209e+00
C     7.366880956199999e+00   3.030856873396352e+00   3.986840700000000e+00 -6.35637010e-01   1.05713661e+00   1.64586921e+00
C     8.563243070200000e+00   2.283393907908714e+00   4.337283000000000e+00  7.40315570e-01   9.38176627e+00  -3.66742250e-01
C     9.788461016499999e+00   3.145448771625961e+00   4.479899400000000e+00  3.09730570e-01  -3.65702636e+00   7.61940240e-01
C     1.232138838060000e+01   4.459630065501811e+00   4.446193200000000e+00  1.06859928e+00  -1.24085570e+00   1.30253780e-01
C     3.757214920800000e+00   5.172559223245814e+00   4.236899100000000e+00 -4.44178285e+00   2.19340044e+00  -1.07572778e+00
C     4.914262946999999e+00   4.511703342331786e+00   3.869698800000000e+00 -4.46150758e+00  -4.23294323e+00   9.56924090e-01
C     6.082186010899999e+00   5.086746864377578e+00   3.679090200000000e+00  4.39723138e+00   5.10817562e+00   1.55480730e-01
C     7.317641003599999e+00   4.482572337299056e+00   3.907714800000000e+00  3.56340121e+00  -2.21255246e+00  -3.69646290e-01
C     8.618334143999999e+00   5.187124213421550e+00   4.015618799999999e+00 -3.28120145e+00   2.04574363e+00  -1.00720787e+00
C     9.805595823099999e+00   4.549463615185289e+00   4.451429699999999e+00  1.37106850e-01  -7.30617910e-01  -1.78139903e+00
C     1.107475244370000e+01   5.202019236352339e+00   4.333523700000000e+00  1.04454823e+00  -1.19815230e+00   2.97885680e-01
C     1.349272270870000e+01   6.644591810953897e+00   4.074208199999999e+00  3.58276420e-01  -2.63462913e+00   7.16478040e-01
C     4.860073372999999e+00   7.280383049015876e+00   3.844270499999999e+00  3.31496370e-01   2.74249882e+00   1.14461117e+00
C     6.117349580999999e+00   6.547805798937604e+00   3.694823700000000e+00 -1.14688893e+00   2.34038512e+00  -3.93964640e-01
C     7.286554543499999e+00   7.401606513564463e+00   3.617860200000000e+00  1.82530870e+00  -2.07674812e+00   1.36434064e+00
C     8.580468342300000e+00   6.631958857289366e+00   3.667229100000000e+00 -3.16890410e-01  -1.27740898e+00   2.01096161e+00
C     9.852239785600000e+00   7.241532088353764e+00   3.885398400000000e+00 -1.67417948e+00   2.20030191e+00  -1.58573467e+00
C     1.106960419260000e+01   6.572866940795355e+00   4.019220000000001e+00 -1.03395143e+00  -1.93366340e-01   1.22271673e+00
C     1.221010240600000e+01   7.337955960935600e+00   4.160196900000000e+00  4.13441151e+00  -4.78698340e-01  -1.27181822e+00
