32
Lattice="9.86 0 0 4.93 8.53901048131456 0 0 0 30 " PBC="1 1 1" Properties=species:S:1:pos:R:3:force:R:3 Energy="-257.03289823"
C     1.241512779500000e+00   2.430232269144680e-01   3.232074300000000e+00  2.79648060e-01  -4.99940540e-01  -6.96065200e-02
C     2.484333981000000e+00   9.386372353774416e-01   3.302511000000000e+00 -2.92547670e-01  -8.36426080e-01  -3.74323570e-01
C     3.707568982700000e+00   2.347226256070696e-01   3.282042300000000e+00  4.72941110e-01  -1.07315795e+00   3.58603500e-01
C     4.928210360700000e+00   9.425603129622681e-01   3.376233900000000e+00  5.13134520e-01   8.31122110e-01  -7.10104240e-01
C     6.147365836700000e+00   2.078812708444472e-01   3.359591700000000e+00  1.00366306e+00   9.22452080e-01   3.59134420e-01
C     7.388037360999999e+00   9.395942876720399e-01   3.258112800000000e+00  2.11588100e-01  -2.77840020e-01   4.87917800e-01
C     8.619231650500000e+00   1.901235446502392e-01   3.223107300000000e+00  6.14750220e-01   8.79595400e-01   2.32714180e-01
C     9.887064861899999e+00   9.195828604418456e-01   3.217971900000000e+00 -1.88098655e+00   1.01953579e+00   3.49919270e-01
C     2.488957532200000e+00   2.326995974001899e+00   3.382533300000000e+00  1.04875780e-01   1.66282142e+00   5.62914070e-01
C     3.712621986199999e+00   3.069663431203970e+00   3.432927000000000e+00  2.54900260e-01   1.54383950e-01  -2.37465860e-01
C     4.957037796200000e+00   2.403605243545106e+00   3.333959400000000e+00  3.07879300e-02  -1.57143162e+00   5.27207080e-01
C     6.201244574200000e+00   3.120909448698642e+00   3.310756800000000e+00 -1.23492897e+00  -2.27928646e+00  -3.08952180e-01
C     7.418148469900000e+00   2.389169790158352e+00   3.305356200000000e+00 -8.94310160e-01  -1.45364813e+00  -3.46152220e-01
C     8.631795459699999e+00   3.078005617492406e+00   3.345453600000000e+00  1.35447062e+00  -1.81793216e+00  -1.50536390e-01
C     9.875833483799999e+00   2.354756638632798e+00   3.333631200000000e+00  1.44405310e-01  -3.94780920e-01   1.54128720e-01
C     1.112252281260000e+01   3.050484642885680e+00   3.469014300000000e+00 -8.85258270e-01   1.33679280e-01  -6.05865650e-01
C     3.724440034300000e+00   4.497073882626926e+00   3.504984600000000e+00 -1.23690280e-01  -1.58359830e-01  -6.64079710e-01
C     4.946659998299999e+00   5.205006011438033e+00   3.393901200000000e+00 -2.47565640e-01  -2.19188310e-01  -5.52899700e-01
C     6.154358795200000e+00   4.499790910371557e+00   3.234658500000000e+00  7.36663930e-01   4.88747410e-01   1.41773904e+00
C     7.383306385099999e+00   5.162503769894671e+00   3.328260300000000e+00  8.52432490e-01   2.62675912e+00  -7.82141460e-01
C     8.628791068399998e+00   4.446659479362901e+00   3.373473000000000e+00  4.19679900e-02   3.25372701e+00   2.31104750e-01
C     9.861045012100000e+00   5.204471469381985e+00   3.464009700000000e+00  4.97951250e-01  -1.05605343e+00  -2.04860720e-01
C     1.109790535060000e+01   4.478542607473335e+00   3.517075800000000e+00  9.81891860e-01   5.28900060e-01  -7.17458400e-02
C     1.237466866540000e+01   5.215039604922347e+00   3.493637100000000e+00 -2.47347095e+00  -1.33694646e+00   4.02474700e-01
C     4.944214028099999e+00   6.606680824565422e+00   3.312649500000000e+00 -7.25591590e-01   1.08374150e+00  -6.55021700e-02
C     6.135316374399999e+00   7.372841405130802e+00   3.225123000000000e+00  1.75319695e+00  -1.47556793e+00   2.33378230e-01
C     7.379977304000001e+00   6.645388927582205e+00   3.264971700000000e+00  1.27779074e+00  -1.26041614e+00  -3.43314200e-02
C     8.675282447400001e+00   7.320687349261687e+00   3.254797200000000e+00 -1.84647195e+00   9.43450840e-01   6.74171620e-01
C     9.905029338199999e+00   6.627126545868629e+00   3.414068400000000e+00 -1.69231752e+00  -7.48371390e-01   1.78793240e-01
C     1.111076037490000e+01   7.329276312952994e+00   3.512730000000000e+00 -3.56049080e-01   6.90637130e-01  -1.33365989e+00
C     1.230772646320000e+01   6.610824379400841e+00   3.437123700000000e+00  2.14671933e+00   5.17021560e-01   2.81915100e-01
C     1.356287651010000e+01   7.303702318125813e+00   3.316551900000000e+00 -6.20590900e-01   7.22772720e-01   6.01118400e-02
