32
Lattice="9.86 0 0 4.93 8.53901048131456 0 0 0 30 " PBC="1 1 1" Properties=species:S:1:pos:R:3:force:R:3 Energy="-252.04276445"
C     9.657398741300000e+00   9.203137997389336e-01   4.080869400000000e+00 -4.87769760e-01  -3.39108356e+00  -2.17017917e+00
C     1.022214892600000e+00   1.612782036741075e+00   4.045756500000000e+00 -5.54525670e-01  -1.03415440e+00   8.85290100e-02
C     2.267586185900000e+00   9.337115071820536e-01   3.893638500000000e+00  2.58005070e-01  -4.85053283e+00   5.97519520e-01
C     3.559879641599999e+00   1.456892836736938e+00   4.164967200000000e+00 -2.10558852e+00   2.57653451e+00  -2.56682040e-01
C     4.826953435799999e+00   8.436750706095713e-01   4.250659500000000e+00 -3.01506154e+00  -9.56797810e-01  -2.75713290e-01
C     5.987171008300000e+00   1.645760976066407e+00   4.344060600000000e+00  1.77914173e+00  -1.17437432e+00  -2.00305666e+00
C     7.186843765199999e+00   8.776268593988896e-01   4.025435700000000e+00  6.04127990e-01  -5.53455200e-02   1.64508637e+00
C     8.458374575199999e+00   1.610631913902211e+00   4.091252400000000e+00 -2.30815149e+00   4.32416780e-01  -5.43669880e-01
C     1.078096970110000e+01   2.996528087294342e+00   4.197483900000000e+00  3.00200200e+00   1.28059768e+00  -7.93443900e-02
C     2.234203578300000e+00   3.589048829040074e+00   4.186442700000001e+00 -1.18228907e+00   3.12626698e+00   9.86534770e-01
C     3.465007214600000e+00   2.881325991375832e+00   4.260013200000000e+00 -2.46222340e-01   4.90479260e-01  -6.76752950e-01
C     4.608637309100000e+00   3.645189407341882e+00   4.172142900000000e+00  5.40638620e+00   3.35291776e+00   1.30035568e+00
C     5.985474595299999e+00   3.091581619474348e+00   4.228303200000000e+00 -2.89896735e+00  -2.26077847e+00  -6.06561140e-01
C     7.197746263000001e+00   3.787725729707920e+00   3.975528300000000e+00 -1.04187577e+00  -1.18982478e+00   1.94998791e+00
C     8.392631546199999e+00   3.055991963084861e+00   4.072311900000000e+00  1.37817689e+00  -4.82675980e-01   3.58944740e-01
C     9.615808423199999e+00   3.779224461654242e+00   4.204834800000000e+00 -1.50839970e+00   1.60826314e+00  -5.22266000e-03
C     1.211534903850000e+01   5.056648901798094e+00   4.218355500000000e+00 -2.55968008e+00   1.45648780e-01   2.44967730e-01
C     3.442641875200000e+00   5.784201712719830e+00   4.124244900000000e+00  1.58620755e+00   5.96094700e-02  -9.91019240e-01
C     4.714444032399999e+00   5.167513692733392e+00   4.157545199999999e+00 -2.46272657e+00  -3.95322289e+00  -1.34298044e+00
C     5.862651040300000e+00   5.850777730339142e+00   3.804519600000000e+00  2.25411499e+00   3.95776400e-01   1.50633587e+00
C     7.173268467900000e+00   5.173732568675872e+00   4.013399700000000e+00 -3.12543477e+00   1.87569201e+00  -2.80044011e+00
C     8.286314173499999e+00   5.978346789745730e+00   3.864304500000000e+00  4.50336706e+00  -6.33119380e+00   2.41342126e+00
C     9.559378361400000e+00   5.302522962751415e+00   4.254821400000000e+00  8.87523100e-02  -3.69759020e+00  -1.69114579e+00
C     1.082977103160000e+01   5.909171155775888e+00   4.269557700000000e+00  1.50538957e+00  -4.96298058e+00  -4.44009010e-01
C     1.339488838700000e+01   7.132628793515826e+00   3.801778200000000e+00 -5.22410416e+00   4.54397282e+00   1.90648086e+00
C     4.660559724000000e+00   7.946026240765413e+00   3.759293700000000e+00  5.21880100e-02   3.34730439e+00   1.16509413e+00
C     5.860132401900000e+00   7.324012012992074e+00   3.675844500000000e+00  2.65329305e+00  -3.96407186e+00   3.47578830e-01
C     7.135917407499999e+00   7.900825928080685e+00   3.741023400000000e+00 -1.24012825e+00   6.81485523e+00  -2.28654720e-01
C     8.358021368599999e+00   7.284926314931866e+00   3.773461500000000e+00  1.10705069e+00   4.09351922e+00   1.27505515e+00
C     9.601956700799999e+00   7.959446149635781e+00   4.131157500000000e+00  2.18852497e+00   6.23680760e-01  -8.94932340e-01
C     1.086931066690000e+01   7.241614148244476e+00   4.156036500000000e+00 -6.25227310e-01   3.69283905e+00  -2.51984710e-01
C     1.207999512110000e+01   7.965608155768463e+00   3.999629400000000e+00  2.21942430e+00  -1.55747240e-01  -5.23543310e-01
