32
Lattice="9.86 0 0 4.93 8.53901048131456 0 0 0 30 " PBC="1 1 1" Properties=species:S:1:pos:R:3:force:R:3 Energy="-257.21788278"
C     4.959327879800000e+00   7.024712779069585e+00   7.357050000000000e-02  1.35475687e+00  -1.08692765e+00   3.21356380e-01
C     6.204637745300000e+00   7.728577862579174e+00   7.112610000000001e-02  2.41454210e-01  -1.01168155e+00   2.99898890e-01
C     7.425755459900000e+00   6.993251392686759e+00   2.247474000000000e-01  1.17099688e+00   8.65489460e-01  -7.40819950e-01
C     8.690249680899999e+00   7.723853057300380e+00   1.102380000000000e-01 -5.05243360e-01  -1.69181481e+00   6.71696700e-01
C     9.943940694300000e+00   6.983268264754382e+00   1.153680000000000e-01 -9.36420050e-01   6.59706600e-01  -1.72309540e-01
C     1.116526398990000e+01   7.699308354796458e+00   8.010870000000000e-02 -5.56806120e-01   1.07064850e+00  -2.66692050e-01
C     1.238974322500000e+01   7.027323154573322e+00   6.251700000000000e-03 -8.19705800e-02  -1.32430086e+00   3.61095520e-01
C     1.361271530980000e+01   7.711598467190218e+00   4.218899999999999e-03 -3.08011770e-01   1.14950071e+00   2.44247100e-02
C     1.282650622200000e+00   5.850899240458273e-01  -8.430539999999809e-02  5.76520790e-01   8.30318780e-01  -2.42249000e-02
C     2.525876626000000e+00   1.317478632772702e+00  -6.647430000000298e-02 -1.02183590e-01   1.62597200e-01  -1.95120690e-01
C     3.743756711000000e+00   5.909741561675952e-01   6.084780000000000e-02  7.76070260e-01   4.33947470e-01   3.01870100e-02
C     5.009327742600000e+00   1.283888898027736e+00   1.420155000000000e-01 -1.00323143e+00   5.92171250e-01  -6.52056280e-01
C     6.229142606100000e+00   5.964897592069416e-01   9.790259999999999e-02  7.46807810e-01  -5.48482970e-01   5.77375170e-01
C     7.483323119200000e+00   1.319567957856949e+00   1.119000000000000e-01 -1.74480365e+00  -4.39948190e-01  -3.74197200e-01
C     8.691419175500000e+00   6.084744311958312e-01  -1.247220000000127e-02 -4.85859210e-01  -1.07271849e+00  -7.06933200e-02
C     9.898383451699999e+00   1.271473774520550e+00  -1.410117000000000e-01  1.30937739e+00   2.09780487e+00   5.60194480e-01
C     2.558069871100000e+00   2.763817679506884e+00  -1.691529000000003e-01 -9.81526450e-01  -1.57832235e+00   3.41089340e-01
C     3.784714904500000e+00   3.448578178699254e+00  -1.679610000000054e-02 -3.27701750e-01   3.88219200e-01   1.97164500e-01
C     4.997345476200000e+00   2.711721774299138e+00   1.330713000000000e-01 -9.95057100e-01   2.16160260e-01   2.05742520e-01
C     6.173954657800000e+00   3.443374249542427e+00   2.741136000000000e-01  2.57736540e+00  -2.10709350e-01  -7.69566640e-01
C     7.430426437700000e+00   2.724666145675874e+00   1.640634000000000e-01  5.04808490e-01   5.95486060e-01   1.34200920e-01
C     8.678978172599999e+00   3.421935355930291e+00   4.179930000000000e-02  1.19547230e-01   8.81291470e-01   1.95268050e-01
C     9.915543352000000e+00   2.729098831406148e+00  -1.098354000000015e-01 -1.33772980e-01  -1.05655883e+00  -5.15709540e-01
C     1.115135715010000e+01   3.430294961800107e+00  -2.224463999999990e-01  6.15292820e-01   8.82448180e-01   5.53966530e-01
C     3.784631932600000e+00   4.887899354280342e+00   5.020410000000000e-02 -1.04891201e+00  -6.43680220e-01  -1.16861990e-01
C     4.986712205700000e+00   5.588130918050481e+00   1.877721000000000e-01  1.09917476e+00   5.43847130e-01  -4.08666050e-01
C     6.247640853499999e+00   4.864707145646348e+00   2.588067000000000e-01 -2.10512095e+00   9.88255000e-02   3.76314970e-01
C     7.455086199100000e+00   5.572001751935018e+00   2.981259000000000e-01  1.31241960e+00  -5.80129600e-02  -9.10865830e-01
C     8.716490049600001e+00   4.855782257282756e+00   1.121487000000000e-01 -1.10259555e+00   4.06847000e-03   5.45775460e-01
C     9.946682267300000e+00   5.560072583514249e+00   4.785180000000000e-02 -2.81459630e-01   1.95419850e-01  -4.38731970e-01
C     1.117790253790000e+01   4.865542260871292e+00  -1.454240999999996e-01 -5.31504260e-01  -1.45468700e-01   8.24557410e-01
C     1.238825234370000e+01   5.602933634277981e+00  -1.319430000000210e-02  8.27587930e-01  -7.99324030e-01  -5.63792630e-01
