26
Lattice="8.88768389401873 1.33226762955019e-15 0 4.44384194700937 7.69696003302603 0 0 0 30 " PBC="1 1 1" Properties=species:S:1:pos:R:3:force:R:3 Energy="-208.79423062"
C     3.211055312135567e-01   4.265599830513784e-01   3.542721600000000e+00 -1.99681490e-01  -1.45886915e+00  -1.12576023e+00
C     7.115191055225038e+00   7.487273441233916e+00   3.437472600000000e+00  1.27473850e+00   6.20825450e-01  -4.08880020e-01
C     4.047548963695682e+00   1.621168357838735e-01   3.371526900000000e+00  4.16759540e-01  -9.43376410e-01   4.99598940e-01
C     9.536025369590504e+00   6.833663528193578e+00   3.349449300000000e+00  1.97944830e-01   3.28660505e+00  -4.03622300e-02
C     1.092237838488130e+01   7.297029604412414e+00   3.396578100000000e+00 -1.14499269e+00  -1.39157084e+00   1.97176210e-01
C     1.194567275633363e+01   6.318606592653270e+00   3.463166400000000e+00  5.16154950e-01   6.42498580e-01  -3.20988560e-01
C     4.445242737208866e+00   6.697836736966575e+00   3.528565800000000e+00 -1.96521980e-01   1.11220669e+00   1.53046080e-01
C     5.485984165403696e+00   5.727731214155049e+00   3.542893200000000e+00 -7.72740680e-01  -4.60104840e-01  -2.57919040e-01
C     6.840834518458719e+00   6.103109953608541e+00   3.470751600000000e+00 -1.50871378e+00   8.66638820e-01  -8.25819600e-02
C     7.819114104157281e+00   5.119304611639620e+00   3.389204700000000e+00  6.86590490e-01  -9.90732530e-01   5.82507200e-02
C     9.178503975083073e+00   5.508067210041277e+00   3.315789300000000e+00  5.77419550e-01  -1.45633451e+00   5.02859810e-01
C     1.021578591674975e+01   4.518884694825798e+00   3.387502800000000e+00  1.00886710e-01   1.20312370e+00  -7.67687610e-01
C     1.157715125321989e+01   4.978638818611356e+00   3.403732200000000e+00  1.09811263e+00  -2.57018993e+00   7.72414760e-01
C     3.768373305912989e+00   3.982455071582987e+00   3.505810800000000e+00 -1.28947067e+00  -1.87603840e-01  -4.12688100e-01
C     5.146809350082771e+00   4.345014062288913e+00   3.523115400000000e+00 -1.56593507e+00   3.98374900e-02   4.82936100e-02
C     6.088066844118335e+00   3.307316761338739e+00   3.496780800000000e+00  1.99789480e+00   4.26813780e-01   2.57612990e-01
C     7.489006370620385e+00   3.728444460909744e+00   3.438622800000000e+00 -1.50919255e+00  -9.45892200e-02  -9.12872700e-02
C     8.491047979090320e+00   2.744497494876271e+00   3.418659000000000e+00  1.13657600e+00   7.87765800e-01  -3.85221070e-01
C     9.868892725689573e+00   3.166588468995030e+00   3.358274700000000e+00  7.19876150e-01  -1.34816477e+00   1.36750927e+00
C     2.047498533355718e+00   2.183607933262924e+00   3.518940600000000e+00 -8.70551820e-01   1.12122859e+00  -1.60487123e+00
C     3.409299188553093e+00   2.597648118099104e+00   3.488207700000000e+00  2.96245150e-01  -1.30217098e+00   3.67862150e-01
C     4.408704932105830e+00   1.509759325641302e+00   3.479513400000000e+00 -8.14803030e-01   2.25358726e+00  -6.93328300e-02
C     5.750852474105354e+00   1.917656027890338e+00   3.527330400000000e+00  8.56640370e-01   4.98860050e-01  -7.29528810e-01
C     6.795124845796012e+00   9.499952904931422e-01   3.449946900000000e+00  4.63932970e-01   1.25178454e+00   1.74841720e-01
C     8.173171653893178e+00   1.379280997999945e+00   3.441442200000000e+00 -8.20002030e-01  -6.43691400e-01   5.94388710e-01
C     1.678204201677642e+00   8.256598296821269e-01   3.428452200000000e+00  3.52833140e-01  -1.26437737e+00   1.30325400e+00
