32
Lattice="9.86 0 0 4.93 8.53901048131456 0 0 0 30 " PBC="1 1 1" Properties=species:S:1:pos:R:3:force:R:3 Energy="-255.70502711"
C     9.727839419399999e+00   5.270130397275744e-01   3.559919700000000e+00  1.87381664e+00   2.00005771e+00  -3.68885800e-01
C     1.159082587900000e+00   1.241136378087206e+00   3.542838900000000e+00 -8.51778400e-01   1.27407450e-01   5.42163450e-01
C     2.416859437400000e+00   4.958265240920992e-01   3.511601100000000e+00 -1.29294676e+00   3.06716601e+00  -1.37326928e+00
C     3.652712724800000e+00   1.219099497571155e+00   3.259702500000000e+00 -1.40879350e+00  -1.20338479e+00   1.83287490e+00
C     4.872561063000000e+00   5.027658363487760e-01   3.293959200000000e+00 -6.44336230e-01   4.64833380e-01   2.38733050e-01
C     6.081335635199999e+00   1.258817167796989e+00   3.409411200000000e+00 -1.43919115e+00  -1.19617354e+00  -6.25223900e-02
C     7.274644255100000e+00   5.276760938913464e-01   3.490095300000000e+00 -8.00503890e-01   2.68629470e-01  -5.52481450e-01
C     8.444337386199999e+00   1.224216414211190e+00   3.555851700000000e+00  3.87352513e+00  -9.40606390e-01  -1.62535000e-03
C     1.101609875470000e+01   2.709672667954252e+00   3.580052100000000e+00 -1.62803708e+00  -3.94819332e+00   2.45664530e-01
C     2.356868633800000e+00   3.341000736018546e+00   3.525674100000000e+00  1.56592975e+00   9.14465630e-01  -6.95243630e-01
C     3.592253817700000e+00   2.598117327241436e+00   3.414308400000000e+00  2.19714170e-01   2.59949408e+00  -5.17148900e-02
C     4.791158086199999e+00   3.375907527739947e+00   3.466557600000000e+00  9.36430090e-01  -7.58016250e-01  -9.54131610e-01
C     6.036613436000000e+00   2.667264953256904e+00   3.449748300000000e+00  2.75383960e-01  -1.77024120e-01   1.67880490e-01
C     7.297830192999999e+00   3.318534941006085e+00   3.485443800000000e+00 -1.12876908e+00   1.51364162e+00  -1.02723548e+00
C     8.486888216200001e+00   2.593248127295426e+00   3.512528100000000e+00  1.89730260e+00   2.89089452e+00   9.89368510e-01
C     9.773369596299998e+00   3.371468693922129e+00   3.629079000000000e+00 -1.19265244e+00  -2.85569927e+00  -1.26105546e+00
C     1.217263731470000e+01   4.758849374286207e+00   3.449694900000000e+00  3.51334490e+00   1.22652259e+00   4.67007010e-01
C     3.603726519299999e+00   5.507270929090330e+00   3.409152600000000e+00 -1.01288272e+00   1.29685751e+00   1.33441130e-01
C     4.838853272600000e+00   4.797446470166750e+00   3.384213000000000e+00 -4.21739710e-01   9.02362000e-03   7.42801910e-01
C     6.101131951599999e+00   5.477142311463222e+00   3.401773200000000e+00 -1.36193533e+00   2.11106989e+00  -7.79359450e-01
C     7.315004587499999e+00   4.760592357105385e+00   3.320496000000000e+00 -5.64011890e-01  -1.54310116e+00   1.60158772e+00
C     8.537160658700000e+00   5.388056779097793e+00   3.407174100000000e+00  1.22334730e-01   4.75500849e+00  -3.48750410e-01
C     9.780321142800000e+00   4.726683519538781e+00   3.488669100000000e+00 -9.01956380e-01   2.48091544e+00   3.31758980e-01
C     1.098796107550000e+01   5.487876786927735e+00   3.491285100000000e+00  2.69409080e-01   1.03201819e+00   3.80824930e-01
C     1.347574743690000e+01   6.997959803065431e+00   3.443801700000000e+00  3.88022240e-01  -3.11946238e+00  -7.69607960e-01
C     4.873861301200000e+00   7.688075884240752e+00   3.423822900000000e+00 -2.24956535e+00  -1.18222239e+00   5.85643140e-01
C     6.060736320399999e+00   6.967703271061333e+00   3.408036600000000e+00  1.12142696e+00  -2.36725790e+00   3.10774710e-01
C     7.287424836400000e+00   7.667862680192915e+00   3.469162500000000e+00  5.36218610e-01  -2.37517911e+00  -5.19562770e-01
C     8.490549480699999e+00   6.924397764802118e+00   3.395135700000000e+00  1.79998356e+00  -2.32635963e+00   1.87865930e-01
C     9.738272433300001e+00   7.623368372894674e+00   3.386376600000000e+00  1.75998930e+00  -2.71818730e-01   5.72783210e-01
C     1.104817057390000e+01   6.950552753902357e+00   3.549087300000000e+00 -3.05162334e+00  -1.77288432e+00  -1.84915593e+00
C     1.224244522730000e+01   7.669507549781677e+00   3.406802700000000e+00 -2.02108470e-01  -7.20622300e-01   1.28342828e+00
