32
Lattice="9.86 0 0 4.93 8.53901048131456 0 0 0 30 " PBC="1 1 1" Properties=species:S:1:pos:R:3:force:R:3 Energy="-254.34502768"
C     9.841797503299999e+00   1.044140893972977e+00   3.595776900000000e+00 -1.87777888e+00   4.37927527e+00   7.68976430e-01
C     1.161659942600000e+00   1.834529721313890e+00   3.638246700000000e+00  2.08537675e+00  -1.66074284e+00   1.59905270e-01
C     2.505003992000000e+00   1.063437776806205e+00   3.632598000000000e+00 -3.14977000e+00   1.81713933e+00  -6.44145290e-01
C     3.723266546400000e+00   1.763724587974149e+00   3.657417000000000e+00 -9.72770550e-01   5.12413150e-01  -4.39164080e-01
C     4.935276135300000e+00   1.089812133085676e+00   3.618195600000000e+00  6.46592820e-01  -2.22546431e+00   3.16396660e-01
C     6.136980150799999e+00   1.799952023056387e+00   3.696339000000000e+00 -1.09265911e+00   3.09752934e+00   4.92078090e-01
C     7.349361165900000e+00   1.131940707530433e+00   3.902111100000000e+00 -1.73431010e-01  -1.47075826e+00  -7.06541600e-01
C     8.554124345000000e+00   1.757696900476317e+00   3.720346200000000e+00  3.21736737e+00   2.33661087e+00   1.29070630e-01
C     1.097770894330000e+01   3.249125508929300e+00   3.758061600000000e+00  1.24748418e+00   1.04614260e-01  -2.72219670e-01
C     2.409317917800000e+00   3.885015628732639e+00   3.787102200000000e+00  3.11659230e-01   4.22016410e-01   1.57483430e-01
C     3.671413891000000e+00   3.159128181024816e+00   3.671111100000000e+00 -1.01184874e+00   3.21125555e+00   1.38073531e+00
C     4.847893413600000e+00   4.018462430613030e+00   3.762026700000000e+00  5.29285150e-01  -2.50636334e+00  -2.49180662e+00
C     6.065116428200000e+00   3.338413074282686e+00   3.631136400000000e+00  2.39551803e+00  -4.09405334e+00   8.06783110e-01
C     7.365493259800000e+00   3.957327214301261e+00   3.599711100000000e+00 -1.77950074e+00  -1.60402330e+00  -2.35277530e-01
C     8.603651124999999e+00   3.194544068551036e+00   3.686780100000000e+00 -1.75771051e+00   1.94871906e+00  -2.36883740e-01
C     9.753550996300000e+00   4.037606806719086e+00   3.734943900000000e+00  1.92479413e+00  -3.64718961e+00  -9.76669500e-01
C     1.230421901470000e+01   5.325043151260633e+00   3.919925100000000e+00 -4.19303680e-01  -2.76264960e-01  -1.84800246e+00
C     3.671064255400000e+00   6.037835770227061e+00   3.691175100000000e+00 -2.06453636e+00   3.27076188e+00   5.68185150e-01
C     4.885334988800000e+00   5.397101555168523e+00   3.500038200000000e+00 -3.58103490e-01   7.49781870e-01   1.78439799e+00
C     6.125252913299999e+00   6.136917922161426e+00   3.502265700000000e+00 -8.05063120e-01  -3.05846010e+00  -9.20229610e-01
C     7.305949163499999e+00   5.334614698887875e+00   3.462075000000000e+00  2.19863361e+00   2.44338637e+00   2.01177114e+00
C     8.539955377100000e+00   6.059440576812824e+00   3.701116200000000e+00  6.26857730e-01   2.23464300e-01  -2.71490092e+00
C     9.821058422999998e+00   5.436195536068898e+00   3.588713700000000e+00 -1.95012776e+00  -2.01457511e+00   2.12026991e+00
C     1.104057063380000e+01   6.056074413491502e+00   3.796488300000000e+00  2.27561838e+00   1.13027311e+00   7.76117670e-01
C     1.346458788890000e+01   7.573776361729978e+00   3.730160400000000e+00  3.38764844e+00  -4.23444641e+00  -6.30805600e-02
C     4.836868060200000e+00   8.252154377539071e+00   3.564436500000000e+00  2.46340417e+00  -4.00008388e+00  -6.39428500e-02
C     6.118534950200000e+00   7.503689786122130e+00   3.492057900000000e+00 -1.53332710e-01   2.47410221e+00  -7.79891500e-02
C     7.394686106900000e+00   8.214038198728762e+00   3.489215400000000e+00 -1.21595989e+00  -9.62711050e-01   5.99688250e-01
C     8.594863054899999e+00   7.442690083906677e+00   3.564396600000000e+00  4.02906570e-01   2.06502234e+00   2.95562910e-01
C     9.865613396599999e+00   8.159362146114379e+00   3.621031500000000e+00 -8.22989930e-01   9.27437770e-01   1.02851346e+00
C     1.106685902070000e+01   7.477750236256299e+00   3.907482600000000e+00  8.74094640e-01   5.11182410e-01  -7.52654230e-01
C     1.234586509110000e+01   8.242514944778515e+00   4.014281400000000e+00 -4.98235471e+00   1.30151010e-01  -9.52427600e-01
