26
Lattice="8.88768389401873 1.33226762955019e-15 0 4.44384194700937 7.69696003302603 0 0 0 30 " PBC="1 1 1" Properties=species:S:1:pos:R:3:force:R:3 Energy="-207.37482751"
C     4.982331606722066e-01   5.987586819305474e-01   3.825373500000000e+00 -1.06398846e+00   7.10739790e-01   7.94806880e-01
C     2.797900391925800e+00   6.008524089979080e-02   3.775553400000000e+00  2.54956225e+00  -2.31189886e+00  -3.46041770e-01
C     4.172168245682244e+00   4.469876380013981e-01   3.734122800000000e+00  1.03566124e+00  -3.70543787e+00  -1.58731900e-02
C     9.688861092603489e+00   7.066396816499090e+00   3.768900600000000e+00 -1.18767156e+00   1.60261956e+00  -9.07431310e-01
C     1.104768717331503e+01   7.475651878254220e+00   3.799513500000000e+00  2.87582880e-01   1.50940176e+00   8.30603320e-01
C     1.206494587419770e+01   6.494865822796266e+00   3.872874000000000e+00  1.64025812e+00   1.07942589e+00  -6.48188500e-02
C     4.575426864686494e+00   6.947334619974227e+00   3.814000200000000e+00 -6.01429730e-01  -2.31236824e+00   1.31609237e+00
C     5.587347311501649e+00   5.883042013032395e+00   3.926739300000000e+00 -1.06610281e+00   3.51253511e+00  -1.33512244e+00
C     6.893718904078128e+00   6.362869731606592e+00   3.740635800000000e+00  2.48218841e+00  -2.26977480e+00   7.47946810e-01
C     7.955031765341420e+00   5.295271280331875e+00   3.667552200000000e+00  3.54484160e-01   1.89784467e+00  -4.89215800e-02
C     9.374549839588751e+00   5.673512596190124e+00   3.616023000000000e+00 -1.22178942e+00   4.70409000e-01   5.42513690e-01
C     1.040736958624188e+01   4.682300469584334e+00   3.615282600000000e+00  8.15366900e-02   1.33310184e+00   1.61228272e+00
C     1.178132352703062e+01   5.111218724219304e+00   3.936792600000000e+00 -2.47100414e+00  -1.46693630e-01  -1.91627878e+00
C     3.883733754238211e+00   4.125558645791953e+00   3.944684400000000e+00 -6.74360340e-01  -1.01146610e-01  -7.68309420e-01
C     5.209506938523553e+00   4.557804604126294e+00   3.933451800000000e+00  1.93363953e+00  -2.72631229e+00   8.57588350e-01
C     6.233208588051610e+00   3.520073205643187e+00   3.973864800000000e+00  6.37593540e-01   1.33945792e+00  -2.16970035e+00
C     7.624900257267194e+00   3.930696786891652e+00   3.748545000000000e+00 -6.79529700e-02  -1.45860956e+00   1.34039718e+00
C     8.694739695842038e+00   2.890809085056141e+00   3.814207200000000e+00 -1.11822979e+00   3.97605761e+00  -5.29133810e-01
C     1.005449840566826e+01   3.308807662496550e+00   3.666446400000000e+00 -2.03085579e+00   1.75465031e+00  -2.50859660e-01
C     2.154606678350255e+00   2.385238421844007e+00   3.622151400000000e+00  2.14812628e+00  -7.62180580e-01   1.44065096e+00
C     3.510548794494993e+00   2.761644859400705e+00   3.725171100000000e+00  2.96829720e-01   1.37421852e+00   1.99794990e-01
C     4.499983534440965e+00   1.785494836908021e+00   3.714853800000000e+00  1.84606744e+00  -1.49936610e-01   2.65570800e-01
C     5.882291809171363e+00   2.155754713093561e+00   3.786464700000000e+00  1.39405337e+00   5.26784040e-01   1.57244157e+00
C     6.979961785644578e+00   1.227598238202339e+00   3.920513100000000e+00 -2.94481295e+00  -2.79529837e+00  -1.04863951e+00
C     8.323106303551265e+00   1.584387818578577e+00   3.968801100000000e+00  1.20246782e+00  -1.51286554e+00  -1.12068759e+00
C     1.867494404377565e+00   1.043895354983931e+00   3.815363100000000e+00 -3.44185348e+00  -8.34723060e-01  -9.98871370e-01
