32
Lattice="9.86 0 0 4.93 8.53901048131456 0 0 0 30 " PBC="1 1 1" Properties=species:S:1:pos:R:3:force:R:3 Energy="-257.36559607"
C     1.259243918900000e+00   1.430568604448984e-01   3.504398100000000e+00  5.28298190e-01  -3.88105420e-01  -6.12733850e-01
C     2.519969894400000e+00   8.328100336748192e-01   3.436323300000000e+00 -4.92322490e-01   1.53435940e+00   4.78686550e-01
C     3.752156050600000e+00   1.208377574452048e-01   3.398013300000000e+00 -2.63488000e-01   1.11789036e+00   5.73083270e-01
C     4.988160984800000e+00   8.836101440422256e-01   3.447795600000000e+00 -9.32099960e-01  -1.34820668e+00  -4.54539600e-02
C     6.209192079300000e+00   1.843134311394376e-01   3.467977500000000e+00 -4.89466260e-01  -2.37896612e+00  -4.64992810e-01
C     7.435248322800000e+00   8.385130679942016e-01   3.470192700000000e+00 -2.91077320e-01   1.56545391e+00  -5.05718720e-01
C     8.638466489199999e+00   1.277710923945456e-01   3.429335400000000e+00  1.11786512e+00   1.62217010e-01   4.66989500e-01
C     9.876241342700000e+00   8.124403095648840e-01   3.482119200000000e+00  6.99630860e-01   2.49051251e+00  -3.05902100e-02
C     2.521393431900000e+00   2.309415261494942e+00   3.494166300000000e+00 -1.26562754e+00  -2.43174294e+00  -3.40979280e-01
C     3.726066638500000e+00   2.996241176542214e+00   3.534183600000000e+00  1.15736433e+00  -4.87291760e-01  -8.48922030e-01
C     4.978320211800000e+00   2.276466208706290e+00   3.479757900000000e+00 -4.82805640e-01   1.15198549e+00   1.02134040e-01
C     6.206369802199999e+00   2.992011377700946e+00   3.448622100000000e+00 -4.58551000e-03   6.83894530e-01   1.48818180e-01
C     7.426729726500000e+00   2.268907049678869e+00   3.419227200000000e+00  7.79755140e-01   3.22953260e-01   8.84936600e-01
C     8.674271994599998e+00   2.984526764235016e+00   3.514500300000000e+00 -4.03131270e-01   4.09430810e-01  -8.22687210e-01
C     9.913599502300000e+00   2.293918152935209e+00   3.485572200000000e+00 -1.10731444e+00  -1.98146148e+00   8.19797000e-03
C     1.112393160940000e+01   2.999924137152342e+00   3.447075300000000e+00  1.07667219e+00  -1.65759090e-01   4.38717430e-01
C     3.713334913500000e+00   4.390175889010111e+00   3.441429600000000e+00  2.00996529e+00   1.24137124e+00   8.19369270e-01
C     4.972803985500000e+00   5.130072608091631e+00   3.480569400000000e+00 -7.73364010e-01  -2.53898820e-01  -2.11820850e-01
C     6.200321185200000e+00   4.447676987851698e+00   3.477961500000000e+00  5.83958660e-01  -1.25998205e+00  -2.16128070e-01
C     7.443024954100000e+00   5.166927148103521e+00   3.444844200000000e+00 -1.19461480e-01  -2.73408090e+00   5.74651000e-02
C     8.681502924200000e+00   4.416927498772589e+00   3.477487200000000e+00 -9.16549920e-01  -1.82234290e-01   1.33929150e-01
C     9.902838101100000e+00   5.115472437192718e+00   3.481374900000000e+00  2.60612990e-01   2.57312570e-01  -4.63799760e-01
C     1.113854156580000e+01   4.415345561691064e+00   3.444104400000000e+00 -2.20302800e-01  -1.13002070e-01   3.70627560e-01
C     1.237951012260000e+01   5.103577168643554e+00   3.468550500000000e+00 -1.13491826e+00   8.18126710e-01  -3.09765980e-01
C     4.986492377000000e+00   6.551857730190573e+00   3.483145200000000e+00 -1.77695184e+00   9.05500000e-04  -2.41576130e-01
C     6.185087682400000e+00   7.259551108268659e+00   3.474690600000000e+00  1.14534012e+00  -9.83377000e-03  -2.51997890e-01
C     7.426617618300000e+00   6.536285734508930e+00   3.395118000000000e+00 -3.54089890e-01   1.99972700e+00   7.75688940e-01
C     8.646219407200000e+00   7.248749601571879e+00   3.438951000000000e+00  1.16421047e+00  -1.45619560e-01  -6.63136820e-01
C     9.885450237599999e+00   6.530718385066075e+00   3.425079600000000e+00  4.13658160e-01   9.47873960e-01   2.57010390e-01
C     1.112295044080000e+01   7.263754863127963e+00   3.413357700000000e+00  1.48333580e-01  -6.87619000e-02   5.99319700e-01
C     1.236714691510000e+01   6.532193328346286e+00   3.470479800000000e+00 -4.36549410e-01   7.22498750e-01  -5.25733120e-01
C     1.358583778790000e+01   7.269010709468509e+00   3.436411200000000e+00  3.78440930e-01  -1.47756616e+00   4.41063040e-01
