32
Lattice="9.86 0 0 4.93 8.53901048131456 0 0 0 30 " PBC="1 1 1" Properties=species:S:1:pos:R:3:force:R:3 Energy="-254.51233835"
C     9.661732112699999e+00   7.881398227606904e-01   4.227256500000000e+00 -1.21956478e+00  -2.45706026e+00   9.05517110e-01
C     1.034514700300000e+00   1.412695345442982e+00   4.269215100000000e+00  3.05689960e+00  -1.22932693e+00   6.08356280e-01
C     2.352954164500000e+00   6.588240233703128e-01   4.464991200000000e+00 -4.20084146e+00   1.86880026e+00  -5.98713520e-01
C     3.518433230199999e+00   1.385251563490995e+00   4.615365900000000e+00  6.47433750e-01   3.05366740e-01  -1.34077270e-01
C     4.746359324100000e+00   7.118961936462376e-01   4.600520700000001e+00  6.83539050e-01  -3.62515988e+00  -2.01821580e-01
C     5.992138427000000e+00   1.343285401025568e+00   4.579658999999999e+00 -1.57345990e-01   2.50881672e+00   2.69787710e-01
C     7.223064327299999e+00   6.250114204518185e-01   4.457306400000000e+00 -7.80648320e-01   8.96493900e-02   3.32397000e-02
C     8.357419169100000e+00   1.406564506698551e+00   4.263185400000000e+00  3.01077955e+00   1.10304453e+00   1.38100720e-01
C     1.097914801030000e+01   2.788352989099277e+00   4.274715300000000e+00 -3.47997616e+00   1.72749520e+00  -2.93811170e-01
C     2.261246698900000e+00   3.543789682573140e+00   4.350944399999999e+00  2.26529100e+00  -6.27895100e-02   4.71754820e-01
C     3.499957217100000e+00   2.779913201921055e+00   4.621469700000000e+00 -4.71275210e-01   2.69107819e+00  -1.37161981e+00
C     4.720653860400001e+00   3.503579567612925e+00   4.579704899999999e+00  1.18496085e+00   7.91126070e-01   9.00770870e-01
C     5.978511857699999e+00   2.847843250432180e+00   4.642272300000000e+00  7.82343280e-01  -2.52844780e+00  -1.56378356e+00
C     7.240909053899999e+00   3.545804889046420e+00   4.425595800000000e+00 -3.75292980e+00   1.10678479e+00   1.37223128e+00
C     8.418935906300000e+00   2.854455860147892e+00   4.283939100000000e+00  1.99283329e+00  -1.35553819e+00  -7.12070500e-02
C     9.719385554000000e+00   3.514853110809040e+00   4.280209200000000e+00 -8.25168040e-01   1.32571483e+00   6.42405710e-01
C     1.206646103860000e+01   4.977451372788295e+00   4.242118800000000e+00  4.32107985e+00  -1.20852942e+00   2.36478249e+00
C     3.563140836599999e+00   5.637235949447502e+00   4.501668900000000e+00 -3.87269442e+00  -3.08956930e-01  -1.40954580e+00
C     4.734993751400000e+00   4.968251101336723e+00   4.558472399999999e+00 -3.67301130e-01  -3.54306086e+00  -2.24066380e-01
C     5.879250596800000e+00   5.706162500481644e+00   4.531879800000000e+00  3.91834356e+00  -5.91091470e-01   4.87663880e-01
C     7.152174131800001e+00   4.963031887351137e+00   4.537011000000000e+00  7.94773230e-01  -1.11260410e-01  -7.82426910e-01
C     8.426607183500000e+00   5.597536296533781e+00   4.487653200000000e+00 -1.01807957e+00   1.96377084e+00   5.92710810e-01
C     9.699247736499998e+00   4.993844650497903e+00   4.483240500000000e+00 -7.35649500e-01  -3.58156446e+00  -1.46910853e+00
C     1.090706800860000e+01   5.696604444490960e+00   4.399304400000000e+00 -4.75616530e-01   4.73106390e-01  -4.14405200e-01
C     1.348091979570000e+01   7.000278998311799e+00   4.472612400000000e+00 -3.24970101e+00   5.11651297e+00   8.91176100e-02
C     4.767831840500000e+00   7.900514424978375e+00   4.431514800000000e+00 -1.70459864e+00  -2.33495975e+00  -2.46230420e-01
C     5.900524729999999e+00   7.114802926017988e+00   4.506751500000000e+00  3.45283834e+00   1.93802597e+00  -4.69267580e-01
C     7.206883919400000e+00   7.844310743389120e+00   4.470629400000000e+00  2.26023410e-01  -4.76027036e+00   4.07713190e-01
C     8.413844251600000e+00   7.008865741860383e+00   4.510996499999999e+00  1.50427575e+00   2.77565879e+00  -3.81457530e-01
C     9.710038471199999e+00   7.737565598059898e+00   4.479688800000000e+00 -2.74723890e+00   2.94249338e+00   6.69256400e-01
C     1.095408729200000e+01   7.130751919012321e+00   4.437330300000000e+00 -1.33890526e+00  -2.93786136e+00   4.30261150e-01
C     1.217754246750000e+01   7.723422861952398e+00   4.500354000000000e+00  2.55612023e+00   1.90843252e+00  -7.52127420e-01
