32
Lattice="9.86 0 0 4.93 8.53901048131456 0 0 0 30 " PBC="1 1 1" Properties=species:S:1:pos:R:3:force:R:3 Energy="-256.83392928"
C     4.916737018200000e+00   8.397124061721595e+00   9.734280000000001e-02 -1.70337110e-01  -8.55451810e-01  -5.36619130e-01
C     1.212724093800000e+00   5.396926163893264e-01   1.110570000000000e-01  5.36654870e-01   1.65769887e+00  -7.42690940e-01
C     7.395697003399999e+00   8.412187559329153e+00   1.123227000000000e-01 -7.55074720e-01  -1.48877495e+00  -5.61275200e-01
C     3.686608003100000e+00   5.655689775776040e-01  -5.583539999999942e-02 -2.23338550e-01   9.61285700e-02   1.82263475e+00
C     9.816237277399999e+00   8.369592413351770e+00   1.039314000000000e-01  1.77925236e+00   6.48173200e-02  -7.04282490e-01
C     6.141815593400000e+00   5.230809961817440e-01   1.056600000000000e-01  2.35352280e-01   1.55949133e+00  -6.21207470e-01
C     1.232037768130000e+01   8.394472101236822e+00   1.124100000000000e-02 -1.10514916e+00  -4.29565010e-01   5.38598430e-01
C     8.603205748800001e+00   5.863282513456368e-01   9.036900000000000e-03  6.21735240e-01  -2.19036277e+00   7.08535260e-01
C     1.213754463800000e+00   1.977266454255893e+00  -4.262909999999920e-02 -1.40658150e-01  -9.39382500e-02   5.12646620e-01
C     2.447899210400000e+00   2.700393239875531e+00  -2.637539999999916e-02  2.72113330e-01   4.97544530e-01  -5.99346940e-01
C     3.704706082400000e+00   2.008098771736658e+00  -1.546349999999919e-02 -2.53802346e+00  -2.21034633e+00  -2.21442980e-01
C     4.886820249900000e+00   2.657711764502194e+00   4.407120000000000e-02  3.35223286e+00   1.82977355e+00  -2.57079800e-02
C     6.173767613599999e+00   1.966578345618286e+00   8.415300000000001e-02 -1.70071784e+00  -5.71584110e-01   1.29515160e-01
C     7.383521185199999e+00   2.697062342667492e+00   9.198720000000001e-02 -8.62943060e-01  -9.69594260e-01  -1.70235700e-01
C     8.602498589600000e+00   1.960636902126302e+00   6.693360000000000e-02  8.34339200e-02   2.12198768e+00  -6.81750270e-01
C     9.821411312399999e+00   2.687959074374974e+00  -5.858010000000036e-02  1.16847287e+00  -1.49163878e+00   9.54118190e-01
C     2.462134240300000e+00   4.138966910479200e+00  -9.032399999999896e-02  9.77509800e-02  -8.51010630e-01   2.88232280e-01
C     3.742674428100000e+00   4.859506034362980e+00  -5.504400000000231e-02 -3.11948764e+00  -9.72254390e-01   5.28935160e-01
C     4.914726662800000e+00   4.089466864457375e+00   2.889330000000000e-02  3.98807760e-01   7.57097790e-01  -1.53173440e-01
C     6.141033695400000e+00   4.817558401550294e+00   5.918760000000000e-02 -9.80607480e-01  -7.98732400e-02  -1.44598550e-01
C     7.324126714400000e+00   4.109290518847113e+00   6.834450000000000e-02  2.70103962e+00  -4.32172010e-01   1.87837420e-01
C     8.582871322899999e+00   4.778745268704608e+00   7.143540000000001e-02  6.12775230e-01   1.99425519e+00   3.44350800e-01
C     9.841660104199999e+00   4.073933550493206e+00   3.104760000000000e-02 -1.36756502e+00   1.30539582e+00  -7.60408800e-01
C     1.104918901330000e+01   4.797223175042698e+00  -6.706709999999916e-02  1.93194263e+00   4.49170660e-01   2.03507140e-01
C     3.660070848400000e+00   6.274016602653800e+00   5.496990000000000e-02  2.30454753e+00  -1.79633440e-01  -1.03130375e+00
C     4.942540983299999e+00   6.957422729393937e+00   4.365540000000000e-02 -1.68493074e+00   7.68678540e-01   4.49361650e-01
C     6.161449121200000e+00   6.233705471199607e+00   3.748079999999999e-02 -4.88471210e-01   5.61213930e-01   6.60790540e-01
C     7.375239524700000e+00   6.957208571011098e+00   1.385037000000000e-01  1.14350199e+00   6.51287650e-01  -2.33823780e-01
C     8.615155723699999e+00   6.249479158308787e+00   1.484379000000000e-01  6.54683230e-01  -1.27718805e+00  -5.74149500e-01
C     9.897797570500000e+00   6.949588016498327e+00   1.033350000000000e-01 -2.38955207e+00  -6.69584620e-01  -3.14231530e-01
C     1.111336425300000e+01   6.213953202937480e+00  -4.996050000000096e-02 -1.98662977e+00   1.08442048e+00   9.46101890e-01
C     1.229026129730000e+01   6.974771266205943e+00   5.998500000000000e-03  1.61918929e+00  -6.35989260e-01  -1.98916800e-01
