32
Lattice="9.86 0 0 4.93 8.53901048131456 0 0 0 30 " PBC="1 1 1" Properties=species:S:1:pos:R:3:force:R:3 Energy="-255.40368199"
C     9.709198201999998e+00   5.317409190501408e-01   4.417272900000000e+00  5.70733610e-01  -3.68391595e+00   9.08628280e-01
C     1.178519359400000e+00   1.136180411623857e+00   4.436633100000000e+00 -5.29703095e+00   2.29866579e+00   8.35269970e-01
C     2.352599253800000e+00   4.767457636141200e-01   4.495692300000000e+00  1.68686544e+00  -2.94754687e+00  -8.17982900e-02
C     3.527003049200000e+00   1.236410462737050e+00   4.653859500000000e+00  2.27793851e+00  -1.73003649e+00  -7.97214700e-02
C     4.815328939500001e+00   5.333559021022232e-01   4.588566300000000e+00 -3.74816713e+00  -2.50086010e+00   4.03919200e-02
C     5.966976249299999e+00   1.208415060708055e+00   4.502229600000001e+00  3.25379679e+00   1.99483507e+00   8.66451820e-01
C     7.225453356000000e+00   5.210695468730752e-01   4.446342300000000e+00 -3.19253040e-01  -1.63248750e+00   1.42130287e+00
C     8.445763388700000e+00   1.215374354249255e+00   4.605425400000000e+00  2.86655146e+00  -4.28711840e-01  -1.76343950e+00
C     1.096015281890000e+01   2.534276098508554e+00   4.628150700000000e+00  1.10426219e+00   3.42947535e+00  -1.37983260e-01
C     2.354449877200000e+00   3.330870395545493e+00   4.672567200000000e+00 -2.22612251e+00   3.43073060e-01  -4.99425140e-01
C     3.561512999900000e+00   2.630971170063236e+00   4.742238600000000e+00  4.15485470e-01   7.67820940e-01  -1.19742857e+00
C     4.791106567699999e+00   3.366185949698572e+00   4.578702000000000e+00 -2.96472350e-01  -4.44762760e-01   8.43251750e-01
C     6.013366464700000e+00   2.652215886577057e+00   4.643259000000000e+00 -6.36982260e-01  -1.86069405e+00  -1.59027827e+00
C     7.252451120600000e+00   3.274542129793335e+00   4.543711200000000e+00  8.46075460e-01   1.45956568e+00   4.29412520e-01
C     8.551620151500000e+00   2.623812917577852e+00   4.601177700000000e+00 -4.38307706e+00  -4.30736350e-01   1.94572120e-01
C     9.706787431999999e+00   3.332137072360096e+00   4.674937500000000e+00  3.72534295e+00  -5.64148100e-01  -2.47864480e-01
C     1.219869561850000e+01   4.775126777623602e+00   4.520925300000000e+00  1.07599987e+00   6.13234700e-02   1.94196266e+00
C     3.609571823100000e+00   5.530850381849593e+00   4.623057000000000e+00 -2.69863662e+00  -3.30413291e+00  -1.31027468e+00
C     4.776795517200000e+00   4.775410016601223e+00   4.476327000000000e+00  1.52446143e+00   2.44952440e-01   9.07036340e-01
C     6.053427299599999e+00   5.467290342731817e+00   4.441819499999999e+00 -2.08864808e+00  -3.07269314e+00  -1.09281000e-03
C     7.201135342199999e+00   4.674614170653627e+00   4.476019200000000e+00  3.58876374e+00   2.32236443e+00   2.23567380e-01
C     8.497749252699998e+00   5.432573885554015e+00   4.531729800000000e+00 -1.79631500e-01  -9.97651200e-01   4.26650510e-01
C     9.747159842900000e+00   4.765339022251007e+00   4.688748599999999e+00 -3.72877730e-01  -4.39128510e-01  -9.41398550e-01
C     1.098477018230000e+01   5.509850734936548e+00   4.596275700000000e+00 -8.81372620e-01  -3.28953607e+00  -1.36291230e-01
C     1.343561713830000e+01   6.903523129002499e+00   4.587848999999999e+00 -1.45660623e+00   1.10839836e+00  -2.17261850e-01
C     4.777834218900000e+00   7.555299821633564e+00   4.453828800000000e+00  1.58806918e+00   3.52126303e+00  -2.09706000e-02
C     6.022665480000001e+00   6.826363520233858e+00   4.436184000000000e+00  1.08785600e+00   3.39101138e+00  -3.80621460e-01
C     7.279847870099999e+00   7.540328716119399e+00   4.420365300000000e+00  5.35775400e-01   1.20945093e+00   5.43043550e-01
C     8.553687941400000e+00   6.842102965911012e+00   4.509379200000000e+00 -2.28580297e+00   1.45218221e+00  -1.55488440e-01
C     9.755519496000002e+00   7.615815703515219e+00   4.575567300000000e+00 -8.46082300e-01  -4.58488000e-02  -5.47721630e-01
C     1.095419308980000e+01   6.874414752347542e+00   4.527689400000001e+00  9.23104090e-01   2.81838358e+00   6.49627620e-01
C     1.217515565730000e+01   7.608983897400486e+00   4.565738400000001e+00  6.45681740e-01   9.50124900e-01  -9.22109080e-01
