26
Lattice="8.88768389401873 1.33226762955019e-15 0 4.44384194700937 7.69696003302603 0 0 0 30 " PBC="1 1 1" Properties=species:S:1:pos:R:3:force:R:3 Energy="-206.92675204"
C     1.202942233471161e+01   6.127263629939484e+00  -2.087408999999987e-01 -1.30310985e+00  -3.13374608e+00  -1.98524765e+00
C     8.246354134607232e+00   5.765979486723327e+00  -3.728355000000008e-01 -1.79248742e+00   1.81321698e+00   9.34709250e-01
C     9.603565544864885e+00   5.431440124462613e+00  -4.615571999999979e-01  8.32709040e-01  -7.37033520e-01  -6.80659470e-01
C     9.988866549004616e+00   4.040317276486913e+00  -5.305178999999995e-01 -1.12731542e+00   3.51965480e-01   2.62404138e+00
C     5.844471472202308e+00   5.215317645597844e+00  -3.493746000000009e-01 -9.03635770e-01   2.59433512e+00   2.29899808e+00
C     7.157867978403544e+00   4.773456106006826e+00  -2.166290999999987e-01  2.04284959e+00   2.44042464e+00  -1.92804467e+00
C     7.462903909425227e+00   3.441315447589018e+00  -3.155594999999991e-01  2.96718053e+00  -2.70575179e+00   8.69491410e-01
C     8.908008558566976e+00   3.045515364692731e+00  -3.690497999999991e-01 -9.49370900e-02   1.72573676e+00  -7.40451780e-01
C     9.254259834893492e+00   1.681239051484069e+00  -3.214697999999991e-01 -1.12795200e-02   1.21590690e-01   4.16838680e-01
C     3.475336058817251e+00   4.707315666651434e+00  -2.858400000000003e-01  1.57786420e-01   2.12706288e+00   8.41356710e-01
C     4.790295819748488e+00   4.281749822957531e+00  -2.912160000000021e-01  1.92970899e+00  -6.26179680e-01  -4.34310440e-01
C     5.148743086963460e+00   2.895402399893244e+00  -3.185618999999988e-01 -7.51999750e-01  -1.21947452e+00  -6.36400200e-02
C     6.461573625421424e+00   2.402496468653673e+00  -2.073011999999999e-01  1.76769790e+00   3.35572205e+00  -1.25988968e+00
C     6.877097954119135e+00   1.068185883264207e+00  -2.987345999999995e-01  1.90644081e+00   1.65324654e+00   3.56138920e-01
C     8.266604585743497e+00   6.985449196346785e-01  -2.751539999999970e-01 -1.08979870e+00   6.77890280e-01   6.66122200e-02
C     2.502477603527435e+00   3.756415290628364e+00  -2.369906999999998e-01 -3.52242110e+00  -3.51554057e+00  -1.82565421e+00
C     2.799607717479589e+00   2.336107571428513e+00  -2.464160999999976e-01 -1.66990229e+00  -1.13160304e+00  -9.69157580e-01
C     4.132396172289108e+00   1.902756098725063e+00  -4.376096999999994e-01 -9.37050060e-01   4.06758320e-01   1.98352092e+00
C     4.448089724981280e+00   5.278481285661634e-01  -3.676583999999998e-01  2.19734050e+00  -8.71488550e-01  -4.51383790e-01
C     5.894001242534361e+00   1.772700719037354e-01  -3.769539000000002e-01 -4.55073198e+00  -5.13839837e+00  -6.46096860e-01
C     1.064153868299449e+01   6.423154323771160e+00  -4.676732999999977e-01  5.98986230e-01   2.38441606e+00   1.71406022e+00
C     1.703175838512282e+00   1.265535553585405e+00  -2.550972000000016e-01  3.12761562e+00   4.01030046e+00   5.82651380e-01
C     6.573895866767545e+00   7.656805220432291e+00  -1.048626000000006e-01 -1.64413930e+00  -2.49981034e+00  -1.28695910e+00
C     7.890873709624315e+00   7.205149376172697e+00  -2.814216000000016e-01  1.81264865e+00  -5.49155380e-01   1.81018900e-02
C     4.188065294638493e+00   7.050304936103569e+00  -2.183768999999991e-01 -1.63703820e-01   1.88039430e-01   3.60063270e-01
C     5.544443751123400e+00   6.656382911454602e+00  -1.558644000000022e-01  2.21547790e-01  -1.72252384e+00  -7.95089110e-01
