32
Lattice="9.86 0 0 4.93 8.53901048131456 0 0 0 30 " PBC="1 1 1" Properties=species:S:1:pos:R:3:force:R:3 Energy="-256.24006929"
C     1.267436938000000e+00   6.525218066855487e-01   3.376107900000000e+00 -3.12152640e-01  -5.50374980e-01  -2.28025900e-02
C     2.514133168800000e+00   1.289914877723472e+00   3.487148100000000e+00  6.75427990e-01   1.04076996e+00  -2.73039000e-02
C     3.764576791200000e+00   5.960611862709504e-01   3.450123000000000e+00 -1.93581200e-01   6.26380900e-01   6.72609200e-02
C     4.962800128100000e+00   1.356597803753993e+00   3.519411000000000e+00  9.13860380e-01  -5.32190350e-01  -2.15796250e-01
C     6.195459810800000e+00   6.092857225815360e-01   3.456592500000000e+00  2.54580800e-02   8.41322590e-01  -2.73606000e-01
C     7.439375570899999e+00   1.319339880887028e+00   3.264075000000000e+00 -1.03422692e+00   1.12780000e-01   1.07228603e+00
C     8.642823278099998e+00   5.617477703878040e-01   3.323368800000000e+00  8.90316680e-01   4.08923960e-01  -3.46478230e-01
C     9.879391415500001e+00   1.317645911988006e+00   3.315230400000000e+00  1.06115730e-01  -2.78949300e-02   8.77087650e-01
C     2.523566871700000e+00   2.701798675610434e+00   3.648284400000000e+00  8.40391540e-01   4.54863770e-01  -1.54119870e-01
C     3.752178383500000e+00   3.464629298258929e+00   3.615387600000000e+00 -1.29162133e+00   1.16846008e+00   7.38492590e-01
C     4.972164811000000e+00   2.794336017572299e+00   3.554671800000000e+00  3.90555610e-01  -7.34622360e-01  -6.17611090e-01
C     6.189335518300000e+00   3.541429841636887e+00   3.401786700000000e+00  5.40915240e-01  -4.32390896e+00  -3.71999040e-01
C     7.421084284899999e+00   2.789574067597917e+00   3.270623100000000e+00 -2.44651180e-01  -1.85209470e+00   6.57520040e-01
C     8.645998740400000e+00   3.451481356872349e+00   3.410856300000000e+00  1.56248255e+00  -1.51133873e+00  -6.92207410e-01
C     9.941802602599999e+00   2.727506647512047e+00   3.484312200000000e+00 -3.08270643e+00  -3.07443150e-01  -1.97620940e-01
C     1.114975948500000e+01   3.379891488469496e+00   3.719784300000000e+00  1.05660790e-01   1.97052450e+00  -7.64864850e-01
C     3.745275693300000e+00   4.945277832931436e+00   3.670747500000000e+00 -1.37397157e+00  -2.74892376e+00  -5.94277240e-01
C     4.970755323999999e+00   5.559202885296861e+00   3.485040900000000e+00  4.07384230e-01   2.90899315e+00  -1.41127220e-01
C     6.181500072100000e+00   4.887800045588460e+00   3.330854400000000e+00  1.25001223e+00   1.64164106e+00   6.49364520e-01
C     7.438602152500000e+00   5.578552880775274e+00   3.323123100000000e+00 -1.19845059e+00   1.98467154e+00  -3.85928660e-01
C     8.626382664799999e+00   4.824906049288124e+00   3.374654100000000e+00  1.54351253e+00   2.84967375e+00   1.24444062e+00
C     9.868922166099999e+00   5.539619774832343e+00   3.617944200000000e+00  9.02790610e-01   3.38236590e-01  -3.99603760e-01
C     1.111592563450000e+01   4.827386888002879e+00   3.735796800000000e+00  3.16655050e-01   1.13661180e+00  -7.83456500e-02
C     1.234635804180000e+01   5.639851619137736e+00   3.694324200000000e+00 -3.24988360e-01  -2.97920823e+00   2.14387850e-01
C     5.002258319799999e+00   6.998990888580891e+00   3.421255800000000e+00 -6.48787960e-01   8.14543400e-02   8.66211700e-02
C     6.199307873000000e+00   7.805522459063930e+00   3.361333200000000e+00  5.34825990e-01  -3.32897728e+00  -3.13725230e-01
C     7.437524799599998e+00   7.061662102097803e+00   3.322633200000000e+00  9.60236970e-01  -1.42148272e+00   1.37784350e-01
C     8.732964482700000e+00   7.719543589491334e+00   3.358848900000000e+00 -1.90949709e+00  -1.44252570e-01   1.03859565e+00
C     9.929004273299999e+00   6.997337138421229e+00   3.601639200000000e+00 -1.14116219e+00  -1.20682285e+00  -9.78120370e-01
C     1.112550082840000e+01   7.726310157566000e+00   3.575387400000000e+00  6.94076670e-01   5.99811250e-01  -2.27946270e-01
C     1.235619003940000e+01   7.017544962892464e+00   3.556823400000000e+00 -6.68662060e-01  -2.92859750e-01   3.60153580e-01
C     1.359669147870000e+01   7.628129554358113e+00   3.438185400000000e+00  7.63780650e-01   3.79727607e+00  -3.40510380e-01
