32
Lattice="9.7 0 0 4.85 8.40044641670905 0 0 0 30 " PBC="1 1 1" Properties=species:S:1:pos:R:3:force:R:3 Energy="-257.47699865"
C     2.137171926123900e-04   9.644557901803385e-04   3.000949462018976e+00  2.42592700e-02  -6.83189300e-02  -1.34827600e-02
C     1.213265905882471e+00   6.989117336375420e-01   3.000465012135765e+00 -4.08068600e-02   9.83756000e-02   1.42123000e-03
C     2.424705801284363e+00   4.488904271159552e-05   3.000383032303980e+00  4.26385200e-02  -6.47893200e-02  -5.15225000e-03
C     3.636757586778366e+00   6.994850686674325e-01   3.000530119388983e+00  6.10302300e-02   5.89808600e-02  -3.78718000e-03
C     4.850686283752938e+00   8.495445264543638e-04   3.000667468867936e+00 -1.17657900e-01  -1.20397540e-01  -8.64640000e-03
C     6.061376410943071e+00   6.991076837001183e-01   3.000609355696258e+00  8.89081100e-02   9.07193500e-02  -4.40038000e-03
C     7.274367604174284e+00  -5.945954161902941e-04   3.000867241913087e+00  4.50507600e-02   7.06178900e-02  -1.36714500e-02
C     8.488590714138327e+00   7.001867920230982e-01   2.999221042760636e+00 -1.04651310e-01  -1.49750000e-02   1.71550800e-02
C     1.213155360937860e+00   2.100093128198329e+00   3.000318288683991e+00 -7.00313000e-03  -3.79127700e-02  -3.59370000e-04
C     2.425823282463066e+00   2.800054326105693e+00   2.999995004677770e+00 -2.93557400e-02  -5.67531000e-03   1.35935000e-03
C     3.637935071960066e+00   2.100477260019012e+00   2.999439328453955e+00 -3.74839400e-02  -5.85369700e-02   1.06366600e-02
C     4.848950762317327e+00   2.800807060030204e+00   2.999953886520827e+00  8.86752000e-02  -3.10318200e-02  -3.87598000e-03
C     6.062085825538754e+00   2.100137408738488e+00   2.999426799909501e+00 -2.39601900e-02  -7.01676000e-03   1.14930600e-02
C     7.274540490508862e+00   2.800456425156146e+00   3.000139315790638e+00  3.39832000e-03  -6.50413500e-02  -5.74124000e-03
C     8.487060055431980e+00   2.099856598987845e+00   2.999413088370723e+00  2.82870500e-02   1.01734000e-02   4.28098000e-03
C     9.700199434723968e+00   2.799328255192511e+00   3.000237974512930e+00 -8.85975000e-03   1.73239200e-02  -3.40657000e-03
C     2.425790122174845e+00   4.199389958271916e+00   3.000568178759344e+00 -7.69039900e-02   8.43503900e-02   3.77554000e-03
C     3.637278460322791e+00   4.900936227915030e+00   3.000737128626457e+00  4.71929600e-02  -1.08363800e-02  -9.79029000e-03
C     4.850693723250552e+00   4.200447004374767e+00   3.000398886316852e+00 -5.85297900e-02   2.57500600e-02  -6.97070000e-04
C     6.062855425670431e+00   4.900080078208436e+00   3.000032903209362e+00 -2.41971000e-03   6.09191000e-03  -2.16224000e-03
C     7.275003050271011e+00   4.199100636596005e+00   3.000504681530815e+00  2.03430500e-02   9.66937000e-02  -6.89894000e-03
C     8.487792044205527e+00   4.900934095443396e+00   2.999901567954196e+00 -3.97570700e-02  -1.06910080e-01   9.35460000e-03
C     9.699708528470152e+00   4.199718546948144e+00   3.000138779991531e+00  9.61420000e-03   2.58214100e-02   4.97683000e-03
C     1.091149159673412e+01   4.900578767794623e+00   3.001078083433207e+00  9.57406900e-02  -3.89052300e-02  -1.75634100e-02
C     3.638448751022229e+00   6.301252875287717e+00   2.999623522695492e+00 -8.28459000e-02  -1.74388700e-02   1.25275300e-02
C     4.850492518790201e+00   7.000438307615694e+00   3.000386343617283e+00 -2.48864700e-02   4.68552100e-02  -7.69863000e-03
C     6.061938104786663e+00   6.300596147699380e+00   2.998904281622286e+00  7.06324100e-02  -2.59943400e-02   1.20828100e-02
C     7.275474089050603e+00   6.999885248227516e+00   2.999189166220648e+00 -5.47833300e-02   2.07620200e-02   1.42844100e-02
C     8.487093210954798e+00   6.299523499064641e+00   3.001005497103931e+00  2.60304000e-02   4.51478700e-02  -2.48830900e-02
C     9.699476260639356e+00   6.999420461541450e+00   2.999071229292814e+00  3.67609300e-02   8.34315900e-02   1.66813900e-02
C     1.091311964472708e+01   6.301156631592916e+00   2.998873677289678e+00 -8.05469800e-02  -6.11081600e-02   1.57635900e-02
C     1.212408200114177e+01   7.001320208457741e+00   3.000036598668038e+00  1.01889950e-01  -4.62063700e-02  -3.57582000e-03
