32
Lattice="9.86 0 0 4.93 8.53901048131456 0 0 0 30 " PBC="1 1 1" Properties=species:S:1:pos:R:3:force:R:3 Energy="-249.75370736"
C     9.738533476799999e+00   6.032404447221151e-01   4.501385100000000e+00  2.68837994e+00  -5.75337860e+00   2.09783190e+00
C     1.123289949800000e+00   1.268525851932539e+00   4.562888100000000e+00 -1.10604692e+00   1.59143402e+00  -7.94895540e-01
C     2.351799509200000e+00   6.270448150174208e-01   4.716271800000000e+00 -1.79191747e+00  -4.26052505e+00  -1.39904920e-01
C     3.500790042000000e+00   1.329625204400293e+00   4.410801300000000e+00  2.52124324e+00  -1.74811960e+00   7.36443990e-01
C     4.784642006599999e+00   6.168096154956736e-01   4.322858099999999e+00 -3.13966660e-01  -2.13813364e+00   1.91048781e+00
C     6.006759426600000e+00   1.301110545144010e+00   4.492808100000000e+00 -1.80877042e+00   5.80709850e-01  -6.58752780e-01
C     7.192328932500000e+00   5.263554505305096e-01   4.655897700000000e+00  2.09124926e+00   4.16246181e+00  -5.73926570e-01
C     8.572845428399999e+00   1.243609702472737e+00   4.448338200000000e+00 -4.37887359e+00  -2.95422157e+00   1.39039867e+00
C     1.095397814180000e+01   2.700136386440293e+00   4.320054000000001e+00 -2.99566690e+00   8.14499010e-01   3.98624350e-01
C     2.226175664900000e+00   3.443931590756457e+00   4.491170700000000e+00  4.26859590e+00  -2.43032200e-02  -5.96302730e-01
C     3.487256994800000e+00   2.726291717100952e+00   4.453937700000000e+00 -2.51195734e+00   7.77534500e-02  -1.68030270e-01
C     4.640914117700000e+00   3.423972849220924e+00   4.443662400000000e+00  5.24308738e+00   3.72210150e+00  -1.05306500e-02
C     5.895671046400000e+00   2.732234868395032e+00   4.497034500000001e+00  3.73084317e+00  -1.57022014e+00   2.17947800e-01
C     7.293515802100000e+00   3.248731860546172e+00   4.602494100000000e+00 -2.86323407e+00   5.26935866e+00   1.53350723e+00
C     8.548617781499999e+00   2.571623680985559e+00   4.541492700000000e+00 -1.19146656e+00   5.84175663e+00  -2.25580383e+00
C     9.679999833299998e+00   3.451513378161648e+00   4.202202300000001e+00  7.64681740e-01  -1.12285296e+00   2.07824805e+00
C     1.223202734850000e+01   4.850346408601294e+00   4.511353200000000e+00 -2.63725205e+00   2.31737720e-01  -1.14258881e+00
C     3.526909872200000e+00   5.656632994873661e+00   4.439131500000000e+00  2.78297721e+00  -4.03882985e+00   3.75983250e-01
C     4.824544391300000e+00   4.952533771696712e+00   4.443886500000000e+00 -4.34778007e+00  -4.35279499e+00  -1.69080190e-01
C     6.062641272400001e+00   5.524145977771220e+00   4.611393900000000e+00  1.12987345e+00  -5.61248982e+00   1.62896648e+00
C     7.288134953600000e+00   4.768021210832880e+00   4.910915999999999e+00  9.83551550e-01  -1.65097642e+00  -4.35338841e+00
C     8.502797326200000e+00   5.573586336109792e+00   4.600639200000000e+00 -2.55412333e+00  -1.45433170e+00   1.20991172e+00
C     9.675842314999999e+00   4.950028511411984e+00   4.266130500000000e+00  2.64361829e+00  -5.23712375e+00   4.87863920e-01
C     1.099721976340000e+01   5.528764557759643e+00   4.383960000000000e+00 -2.11439739e+00  -1.00994210e-01  -2.08515730e-01
C     1.343434184590000e+01   7.004664634094327e+00   4.545056400000000e+00 -5.19180063e+00   1.37885445e+00   2.31851238e+00
C     4.756199406900000e+00   7.547695662020915e+00   4.794839400000000e+00  4.20063214e+00   5.06932281e+00  -1.68438079e+00
C     6.023008558700000e+00   6.801474780997697e+00   4.853085000000000e+00 -6.36643080e-01   8.63689916e+00   8.38080800e-02
C     7.219564323100000e+00   7.604380175290299e+00   4.889744700000000e+00  8.44171560e-01   2.92979926e+00  -9.85739140e-01
C     8.437373071000000e+00   6.954217611810268e+00   4.670629200000000e+00  2.36499320e+00   2.21157818e+00  -2.30079450e-01
C     9.774704147300000e+00   7.687344688773349e+00   4.491199800000000e+00 -5.16519054e+00   3.48344860e-01  -8.55264300e-01
C     1.090851466780000e+01   6.894073433054808e+00   4.444274100000000e+00  2.50587952e+00   4.53327838e+00   2.45723874e+00
C     1.206326117280000e+01   7.753320584736127e+00   4.851007500000000e+00  2.84530947e+00  -5.38059421e+00  -4.09859029e+00
