2
Lattice="2.501 0 0 1.2505 2.16592953486488 0 0 0 30 " PBC="1 1 1" Properties=species:S:1:pos:R:3:force:R:3 Energy="-16.10301882"
C     0.000000000000000e+00   0.000000000000000e+00   3.000000000000000e+00 -0.00000000e+00  -0.00000000e+00  -0.00000000e+00
C     1.250500000000000e+00   7.219765116216270e-01   3.000000000000000e+00  0.00000000e+00   0.00000000e+00   0.00000000e+00
