32
Lattice="9.86 0 0 4.93 8.53901048131456 0 0 0 30 " PBC="1 1 1" Properties=species:S:1:pos:R:3:force:R:3 Energy="-256.88891087"
C     9.883744802699999e+00   2.218213762332568e-01  -4.845450000000184e-02 -1.66490388e+00   1.05958721e+00   6.16475100e-02
C     1.226117424800000e+00   9.480094825000800e-01   4.739400000000000e-03  8.13892640e-01   2.56123820e-01  -1.02717260e-01
C     2.468930491800000e+00   2.280091701775888e-01  -8.777999999999864e-02 -9.23057800e-02   8.06706040e-01  -1.74796920e-01
C     3.696158349800000e+00   9.322278541111536e-01  -6.949769999999944e-02 -3.78934800e-01   1.47736701e+00   7.91500840e-01
C     4.933768886400000e+00   2.806969142017040e-01  -8.973479999999867e-02 -1.19450720e-01  -1.88650180e+00  -5.94027230e-01
C     6.176359363900000e+00   9.829030387552375e-01  -1.436621999999979e-01 -1.01667414e+00  -1.33469563e+00   5.94358020e-01
C     7.354940989199999e+00   2.243911914372128e-01  -6.504809999999850e-02  2.11912996e+00   3.16342220e-01   2.54603010e-01
C     8.625327792699998e+00   9.347401163844744e-01  -2.900879999999972e-02 -2.70515230e-01   4.40894050e-01  -2.54877010e-01
C     1.109446889410000e+01   2.388687506846441e+00   1.408224000000000e-01  2.55799500e-02  -1.16487857e+00   2.30920570e-01
C     2.458014485800000e+00   3.071328025906941e+00   2.986008000000000e-01  4.60002700e-01   2.43000380e-01  -7.97398960e-01
C     3.672166406200000e+00   2.346939857659196e+00   1.361808000000000e-01  1.20473074e+00   7.07783430e-01  -9.78621400e-02
C     4.933027710200000e+00   3.082141145657975e+00   7.458270000000000e-02 -1.00607147e+00  -6.87295990e-01  -5.37364840e-01
C     6.167878728600000e+00   2.377614886566920e+00  -1.238244000000002e-01 -3.54336930e-01   9.11252930e-01   5.98468220e-01
C     7.387648630499999e+00   3.078906824658465e+00  -9.962940000000131e-02  7.59120560e-01   1.49274366e+00  -4.14211090e-01
C     8.624107420500000e+00   2.385489476641471e+00  -4.104000000000241e-02  8.36379890e-01  -6.94202810e-01   2.12536840e-01
C     9.894888673299999e+00   3.112339783171018e+00   8.891550000000001e-02 -2.17240016e+00  -8.13914100e-01   8.97990800e-02
C     1.232038448470000e+01   4.507467907743600e+00   3.076743000000000e-01 -1.07237947e+00  -3.55898670e-01  -1.31352340e-01
C     3.652102785199999e+00   5.208911840221689e+00   1.918806000000000e-01  2.46704496e+00   8.10465060e-01  -3.07864290e-01
C     4.888987625800000e+00   4.488773195929422e+00   6.283470000000001e-02  1.75307459e+00   1.42067405e+00  -2.62842920e-01
C     6.171977185499999e+00   5.248109399319187e+00  -1.474677000000000e-01 -1.75380612e+00  -8.54929730e-01   2.01071430e-01
C     7.403028702200000e+00   4.542768091677816e+00  -1.857228000000006e-01 -9.63086320e-01  -1.56926957e+00   6.05453550e-01
C     8.614060918600000e+00   5.236661404138965e+00  -1.283949000000000e-01  1.72676300e+00  -1.19175653e+00   3.72101110e-01
C     9.860117235400001e+00   4.520180188815491e+00   1.439091000000000e-01 -2.23919140e-01   7.37043580e-01  -1.07832209e+00
C     1.109772363080000e+01   5.232579927909734e+00   2.010309000000000e-01 -8.20774730e-01   7.36701800e-02  -3.10874350e-01
C     1.357032825440000e+01   6.646728356766097e+00   9.011130000000001e-02 -1.69977923e+00  -5.79839970e-01  -1.06971160e-01
C     4.921526611799999e+00   7.353442481122338e+00  -9.578730000000135e-02  3.82668680e-01  -2.15696450e-01   4.26517030e-01
C     6.154486975199999e+00   6.670007236356464e+00  -2.013480000000030e-01  1.08822359e+00  -6.03018390e-01   2.34993080e-01
C     7.429037706000000e+00   7.379750660070589e+00  -2.268168000000017e-01 -1.69616007e+00  -1.55259789e+00  -8.77189600e-02
C     8.647768856899999e+00   6.624845349218897e+00  -2.339681999999996e-01 -1.01717631e+00   1.74330009e+00   7.41432200e-01
C     9.829139087399998e+00   7.365192501103237e+00  -9.723689999999863e-02  2.19651084e+00   5.93885760e-01  -3.16358290e-01
C     1.108915356530000e+01   6.659313065021417e+00   3.341400000000000e-03 -1.41135151e+00  -1.26188294e+00   9.92976770e-01
C     1.229059653730000e+01   7.330601738159700e+00   8.093670000000000e-02  1.90090389e+00   1.67553957e+00  -8.32819410e-01
