32
Lattice="9.86 0 0 4.93 8.53901048131456 0 0 0 30 " PBC="1 1 1" Properties=species:S:1:pos:R:3:force:R:3 Energy="-252.68116713"
C     9.516751461500000e+00   9.486245474249544e-01   3.394340700000000e+00  4.08346921e+00   5.19540370e-01  -7.95727800e-02
C     9.652725052000000e-01   1.559575462440195e+00   3.540798000000000e+00 -1.67286809e+00   5.45567970e+00   9.63281780e-01
C     2.189549807500000e+00   9.511592672958377e-01   3.469878300000000e+00 -8.47832050e-01   3.57275300e-02  -8.03081720e-01
C     3.389335264200000e+00   1.705066880163046e+00   3.557515200000000e+00  1.11689442e+00   5.74779940e-01   8.85493250e-01
C     4.607061188099999e+00   1.027989014089637e+00   3.481119300000000e+00  2.74343505e+00  -2.07863555e+00  -6.81054160e-01
C     5.918636662600000e+00   1.678497065933688e+00   3.570846900000000e+00 -8.38675370e-01  -3.21756274e+00   7.21331410e-01
C     7.196923593900000e+00   9.398290250701352e-01   3.669048000000000e+00 -1.92156729e+00   5.76032352e+00  -7.56231720e-01
C     8.387273868699999e+00   1.794844243157566e+00   3.604661700000000e+00 -1.65405980e+00  -3.11989693e+00  -7.06186510e-01
C     1.088232907140000e+01   3.202045930818135e+00   3.818246400000000e+00 -1.41738087e+00  -4.62475544e+00  -7.89141290e-01
C     1.209339629080000e+01   3.888120754503586e+00   4.034891700000000e+00  6.23762360e-01  -2.76268952e+00  -2.17116300e+00
C     3.485154645600000e+00   3.109894466739861e+00   3.808962000000000e+00 -2.15928252e+00   1.76672050e+00  -1.28188766e+00
C     4.668025124400000e+00   3.851970853636506e+00   3.411698700000000e+00 -1.36703750e-01  -6.11858861e+00   2.78954490e+00
C     5.874300334500000e+00   3.005609495720031e+00   3.587367300000000e+00  1.62687957e+00   7.44870438e+00  -1.04875034e+00
C     7.096906810500000e+00   3.895388904053847e+00   3.621242100000000e+00  3.91481450e-01  -9.19084560e-01  -5.89251270e-01
C     8.338516760299999e+00   3.229109556023551e+00   3.551067900000000e+00  1.46448061e+00  -1.97145945e+00   6.05445020e-01
C     9.654574590799999e+00   3.860442747494133e+00   3.562196100000000e+00 -1.25282548e+00  -5.46572700e-01   1.28355471e+00
C     1.204675627230000e+01   5.251229724528788e+00   3.780524400000000e+00  1.71875540e+00   1.81264241e+00   3.91803250e-01
C     1.327077233390000e+01   5.919234977357301e+00   3.453921600000000e+00  2.43338620e-01   1.59977736e+00  -1.16479560e-01
C     4.672925051400000e+00   5.181157323678335e+00   3.294807900000000e+00 -1.28405896e+00   4.16870210e+00   5.21462300e-01
C     5.883747496300000e+00   5.926602947940074e+00   3.255391500000000e+00  8.13527850e-01   2.04926586e+00  -1.21301440e+00
C     7.129280296399999e+00   5.366275385775304e+00   3.484470000000000e+00  3.70906390e-01  -3.79699768e+00  -5.38348210e-01
C     8.402487848700000e+00   6.012019352892353e+00   3.375297600000000e+00 -9.74104460e-01   2.65565820e-01   8.57507060e-01
C     9.607547961700000e+00   5.234938317214206e+00   3.619531800000000e+00 -2.39088310e-01   3.49703496e+00  -4.33858080e-01
C     1.082105917930000e+01   5.988821252341127e+00   3.783430200000000e+00  1.76474670e-01  -1.44316458e+00  -1.13302890e+00
C     1.328496289520000e+01   7.418030873272220e+00   3.374384700000000e+00  1.01133358e+00  -3.63462562e+00  -1.47973760e-01
C     4.685063056500000e+00   8.026984513736188e+00   3.145718400000000e+00 -1.69823955e+00   2.43062943e+00   6.81969090e-01
C     5.952093713199999e+00   7.342236396109014e+00   2.978963700000000e+00 -3.57811175e+00   2.97124460e-01   1.86505999e+00
C     7.087131064199999e+00   8.114992764539460e+00   3.157941000000000e+00  2.70279211e+00  -4.97038660e-01   3.18024640e-01
C     8.352938193499998e+00   7.475540511124286e+00   3.266901000000000e+00  3.62573860e-01  -3.44069566e+00  -2.13639240e-01
C     9.573685517199999e+00   8.120369096317878e+00   3.342711900000000e+00  1.89332605e+00   8.16980230e-01   1.54503626e+00
C     1.085211591150000e+01   7.348219253801827e+00   3.601850700000000e+00 -1.59347451e+00   3.95005988e+00  -6.73357120e-01
C     1.208663262660000e+01   8.146327858957287e+00   3.582254100000000e+00 -7.51584700e-02  -4.27749074e+00  -5.34939300e-02
