32
Lattice="9.86 0 0 4.93 8.53901048131456 0 0 0 30 " PBC="1 1 1" Properties=species:S:1:pos:R:3:force:R:3 Energy="-257.23723663"
C     5.171257240799999e+00   6.660473772715963e+00  -2.285585999999995e-01 -3.62593700e-01  -4.35263080e-01  -4.59917470e-01
C     6.396148771799999e+00   7.375167260805344e+00  -3.397574999999975e-01  1.04193310e-01  -6.23707770e-01   1.09791746e+00
C     7.613780335500000e+00   6.644466629060259e+00  -2.590755000000016e-01  1.66963234e+00   5.86303220e-01  -6.00181250e-01
C     8.877548121000000e+00   7.361106926148977e+00  -2.941131000000006e-01 -1.55469544e+00   5.10212820e-01   7.72785200e-02
C     1.011295765910000e+01   6.653461793480101e+00  -3.022539000000002e-01 -2.24532275e+00  -7.50337140e-01   2.64244000e-03
C     1.129366751610000e+01   7.374464756413155e+00  -2.440899000000023e-01  1.63958752e+00  -1.62915200e-02  -2.71840300e-02
C     1.253618261390000e+01   6.635797142500126e+00  -1.988492999999991e-01  5.70040510e-01   1.60831112e+00  -5.26952540e-01
C     1.380555502060000e+01   7.357256003202705e+00  -2.932319999999997e-01 -1.46348134e+00   6.13549860e-01   7.04191260e-01
C     1.465751956100000e+00   2.491911249643816e-01  -3.483762000000006e-01 -1.06851561e+00   2.55456560e-01  -9.94799900e-01
C     2.669795157999999e+00   9.637111857509136e-01  -4.162415999999993e-01  7.17567200e-01   9.15291880e-01   7.61160820e-01
C     3.873354086000000e+00   2.588167245279616e-01  -3.072780000000002e-01  2.59938001e+00  -3.92935430e-01  -3.88299900e-02
C     5.152302771200000e+00   9.928707110786464e-01  -2.480963999999979e-01 -2.15125136e+00  -5.80632570e-01  -4.07591650e-01
C     6.347309529600000e+00   2.675833850273584e-01  -2.586309000000000e-01  1.29461175e+00  -2.90532310e-01   3.34477730e-01
C     7.593422245600000e+00   9.809353945703312e-01  -2.743794000000008e-01  5.90221910e-01  -1.35716691e+00  -3.21115850e-01
C     8.855328758899999e+00   2.753317685270152e-01  -3.452969999999986e-01 -1.01893132e+00  -1.48449296e+00   1.55448680e-01
C     1.007918479270000e+01   9.562843813859335e-01  -4.223736000000002e-01  4.51445630e-01   4.48490510e-01   1.71168120e-01
C     2.729762593400000e+00   2.407808998404410e+00  -4.006667999999998e-01 -2.99691194e+00  -6.35870630e-01  -4.07705590e-01
C     3.907990737700000e+00   3.119237766616972e+00  -3.046892999999997e-01  1.26538322e+00  -5.58709400e-02  -3.75908400e-02
C     5.129724998099999e+00   2.409189329448501e+00  -2.565720000000020e-01  1.44588639e+00  -6.00677700e-02  -1.30238000e-02
C     6.393298393699999e+00   3.101081610193767e+00  -2.606613000000024e-01 -9.63696680e-01   3.67592820e-01   1.18899550e-01
C     7.604452430400000e+00   2.377374769592222e+00  -2.942162999999987e-01 -1.56380210e-01   3.38218370e-01  -3.57677150e-01
C     8.823757137499999e+00   3.072476608206606e+00  -4.344254999999997e-01  1.27421267e+00  -6.32043800e-02   2.92267810e-01
C     1.006806926960000e+01   2.377656556938062e+00  -4.922792999999999e-01  1.00212480e+00   4.54727670e-01   1.28026470e-01
C     1.133100013830000e+01   3.123881622076415e+00  -4.832757000000001e-01 -6.99615020e-01  -1.37293332e+00   5.68244450e-01
C     3.927102030600000e+00   4.526453116694308e+00  -2.693705999999985e-01 -1.09694128e+00   6.62525680e-01   7.48854050e-01
C     5.156775464400000e+00   5.222347119310922e+00  -1.680644999999998e-01  6.96321040e-01   6.43134710e-01  -8.26201970e-01
C     6.414366403599999e+00   4.527576167352638e+00  -2.464113000000019e-01 -4.75491570e-01  -2.46777420e-01   3.39498160e-01
C     7.660173558200000e+00   5.231267140438539e+00  -2.690756999999984e-01 -1.41357143e+00  -5.62534160e-01  -2.54008230e-01
C     8.868347360599998e+00   4.480296178665506e+00  -3.905202000000010e-01 -1.62524858e+00   9.67287860e-01   1.28667920e-01
C     1.004425155220000e+01   5.208581551296323e+00  -3.900684000000005e-01  2.15831320e+00   1.16694104e+00   4.32852090e-01
C     1.128456412320000e+01   4.529516059753485e+00  -3.585621000000003e-01  6.28086440e-01  -4.26646520e-01  -2.53509310e-01
C     1.251390532430000e+01   5.231439713840341e+00  -2.235456000000013e-01  1.18564029e+00  -1.82779300e-01  -5.35305960e-01
