32
Lattice="9.708 0 0 4.854 8.40737461993933 0 0 0 30 " PBC="1 1 1" Properties=species:S:1:pos:R:3:force:R:3 Energy="-257.52618967"
C     1.504791554312778e-03   2.195700200067593e-03   2.996588600669626e+00 -2.80747600e-02  -1.15990580e-01   4.98366500e-02
C     1.216485452951384e+00   6.994527142146800e-01   3.002166088641906e+00 -1.56925100e-01   3.79749700e-02  -1.26123700e-02
C     2.425441340374890e+00  -1.702967094752329e-03   3.002031333070852e+00  2.68341180e-01   4.58281600e-02  -6.01031400e-02
C     3.642004921816145e+00   7.018428201674269e-01   2.996717243623082e+00 -1.69438430e-01   3.46564500e-02   2.93418700e-02
C     4.856248897151458e+00   2.509731651206159e-03   2.998487791888340e+00 -2.30309240e-01  -9.93356100e-02   2.80799500e-02
C     6.064069313309238e+00   6.988642310871214e-01   3.003947077869004e+00  3.97276970e-01   2.31745170e-01  -6.53749800e-02
C     7.283171592588025e+00   2.327882238198470e-03   2.998954268418071e+00 -1.38326290e-01  -2.31695940e-01   5.40550300e-02
C     8.496149574547294e+00   6.998673866573456e-01   3.000386405916660e+00 -2.72227200e-02   1.60676710e-01  -2.64543600e-02
C     1.213800339663500e+00   2.098659029788422e+00   3.003203141863409e+00 -3.45694300e-02   2.20521230e-01  -4.37222300e-02
C     2.424966468786355e+00   2.803768723434163e+00   2.997599970954510e+00 -2.63979700e-02  -1.48939250e-01   4.59495700e-02
C     3.637646520693391e+00   2.105714890261757e+00   2.996760889186313e+00  1.65506490e-01  -2.01969590e-01   2.24456700e-02
C     4.854854986342242e+00   2.802625895882483e+00   3.002313353979365e+00 -3.74480400e-02  -4.65638500e-02  -5.57594000e-02
C     6.068620068182491e+00   2.104036303539591e+00   3.000792682146044e+00 -2.27259120e-01  -3.04556770e-01   3.59608100e-02
C     7.277667849831396e+00   2.799201157612172e+00   3.000764491024546e+00  2.51078770e-01   3.26093110e-01  -6.21717000e-03
C     8.493997652582106e+00   2.101625005930936e+00   3.001544368728169e+00  3.02766600e-02   4.16872100e-02  -1.06494500e-02
C     9.708451356728967e+00   2.805613404915777e+00   3.000176257531082e+00 -4.77200300e-02  -3.90834250e-01   3.11371000e-02
C     2.425798243966660e+00   4.201648521190076e+00   3.001714191006278e+00  9.14749400e-02   1.54765730e-01  -5.32832800e-02
C     3.641259096395274e+00   4.901116580838752e+00   2.997348140057400e+00  2.93534800e-02  -3.91158000e-02   4.48501700e-02
C     4.858145495712571e+00   4.200810650030301e+00   2.999110285802470e+00 -3.17858180e-01   1.15609360e-01   1.33514200e-02
C     6.063626830966017e+00   4.904686128849185e+00   3.000967978292001e+00  2.73177270e-01   1.20905750e-01  -6.24887000e-03
C     7.278736650934913e+00   4.205876288092038e+00   2.999045519326869e+00  7.97182000e-02  -1.33480420e-01   2.94774400e-02
C     8.497251800842184e+00   4.903976998316216e+00   3.001368812976907e+00 -2.13389170e-01  -6.56960900e-02  -2.15656000e-02
C     9.706970264882818e+00   4.200566875172266e+00   3.000954820703913e+00  2.31147640e-01   2.78915450e-01  -7.17924000e-03
C     1.092392446446231e+01   4.904016992993057e+00   2.999935170426514e+00 -2.30788340e-01   7.06199000e-02   1.81621400e-02
C     3.639299575363748e+00   6.301049755692087e+00   3.000813748428771e+00  1.48208790e-01   1.41543320e-01  -2.50188800e-02
C     4.853065950033455e+00   7.008926795556677e+00   2.998703584485039e+00 -8.40758600e-02  -9.42080300e-02   1.48939900e-02
C     6.064931082386925e+00   6.309166474814049e+00   3.002347998305200e+00 -1.93503900e-02  -2.02644210e-01  -5.31853200e-02
C     7.277743373859328e+00   7.004824211911994e+00   2.996534467911077e+00  2.68698990e-01  -2.94135300e-02   7.02839000e-02
C     8.497225638174458e+00   6.303130985902365e+00   2.999793179845653e+00 -1.41888850e-01   2.17663930e-01  -1.36544900e-02
C     9.709465383183012e+00   7.009060671893234e+00   3.000474072934138e+00 -9.87626200e-02  -1.02650780e-01  -2.20362900e-02
C     1.092119646578938e+01   6.308755570654916e+00   2.999201289364601e+00  8.37418700e-02  -2.09769260e-01   3.05571900e-02
C     1.213724059953742e+01   7.003686424645601e+00   3.001802815983659e+00 -8.81967300e-02   2.17657550e-01  -3.53178300e-02
