32
Lattice="9.86 0 0 4.93 8.53901048131456 0 0 0 30 " PBC="1 1 1" Properties=species:S:1:pos:R:3:force:R:3 Energy="-254.84689217"
C     4.944854090000000e+00   8.289029752736534e+00  -2.643750000000011e-02  3.35187482e+00   2.18340223e+00   3.89249920e-01
C     1.333553956800000e+00   4.726284235408736e-01   4.497510000000000e-02 -2.42470648e+00   5.13046700e-01  -4.92232840e-01
C     7.505181851800000e+00   8.329005813419490e+00   1.830060000000000e-02 -2.56148388e+00  -1.01141410e+00   4.27178510e-01
C     3.746691145599999e+00   5.118692754215040e-01  -1.781700000000086e-02  2.12590689e+00  -1.91891017e+00  -1.64298049e+00
C     9.923578759000000e+00   8.286419548013006e+00  -2.007513000000003e-01 -3.51701490e-01  -6.67658790e-01   5.41316030e-01
C     6.228767876799999e+00   4.575773928886160e-01  -1.074558000000003e-01 -8.92053100e-01  -8.36145000e-01   6.49960000e-03
C     1.240934929270000e+01   8.341729024424795e+00  -1.386909000000003e-01 -2.17563934e+00  -2.97598400e+00  -1.52413901e+00
C     8.679085548000000e+00   4.825895208262128e-01  -4.563300000000226e-02 -2.14952400e-02   1.34610100e-02  -1.62416050e-01
C     1.254891271200000e+00   1.898071230778923e+00  -1.002347999999991e-01  2.18991080e-01  -6.85247700e-02  -7.89787930e-01
C     2.498400010500000e+00   2.586493343055221e+00  -4.369652999999971e-01 -1.43078691e+00  -4.06441620e-01   1.00308682e+00
C     3.706691541300000e+00   1.877480687857975e+00  -3.121554000000017e-01  9.57201290e-01   1.12194360e+00   5.82450770e-01
C     4.943836932400000e+00   2.574938610244000e+00  -2.984618999999995e-01  1.47103284e+00   9.43599290e-01   1.14938868e+00
C     6.157986486400000e+00   1.841949267519962e+00   1.642350000000000e-02 -3.58767180e-01   1.75614263e+00  -1.88827248e+00
C     7.374654974599999e+00   2.558327160816627e+00  -3.801420000000277e-02  6.62157370e-01   1.44400005e+00   1.06677554e+00
C     8.630301768299999e+00   1.892303043809578e+00  -7.307399999999831e-02 -6.04129800e-02   2.17761770e-01   1.02305973e+00
C     9.836338021300000e+00   2.605943671906775e+00  -8.940090000000112e-02  2.66705626e+00   5.63198490e-01  -1.96603629e+00
C     2.512597079400000e+00   3.986046297468435e+00  -6.211532999999996e-01  9.74878990e-01   5.45394850e-01   1.64064800e-01
C     3.773517346200000e+00   4.702483963838461e+00  -5.015307000000000e-01 -1.02532528e+00   2.37149340e+00  -3.41037000e-03
C     5.025987247900000e+00   4.038855893172100e+00  -3.309110999999980e-01 -2.00163673e+00  -1.11810953e+00  -4.53237870e-01
C     6.224772654100001e+00   4.774695728374572e+00  -1.728288000000013e-01  8.95706390e-01  -1.77269738e+00   1.96243773e+00
C     7.412853649900001e+00   3.995836529154070e+00   8.899890000000001e-02  1.06457842e+00   6.55966400e-02  -2.18639027e+00
C     8.705273954500001e+00   4.696078595907099e+00  -6.602849999999805e-02 -2.02220500e+00   7.05522610e-01  -3.90641490e-01
C     9.911512436099999e+00   4.031194009848606e+00  -4.331160000000018e-01 -1.49477446e+00  -1.91827812e+00   2.26422361e+00
C     1.112874782500000e+01   4.689410226452952e+00  -6.587183999999979e-01  7.45045040e-01   6.76538070e-01   9.92263840e-01
C     3.698404162000000e+00   6.225056819825044e+00  -3.877452000000012e-01  3.21795889e+00  -2.93201720e+00  -3.45512240e-01
C     4.990510376300000e+00   6.932978957993889e+00  -1.316421000000005e-01 -1.26843690e+00  -3.61427991e+00  -1.21555820e-01
C     6.255736899500000e+00   6.160825956043959e+00   1.354620000000000e-02 -3.24088179e+00   1.95471298e+00  -1.36936971e+00
C     7.429242300999999e+00   6.898262500816086e+00   2.452740000000000e-02  2.00803759e+00  -7.37520500e-01   6.66087440e-01
C     8.623358652100000e+00   6.117146355735615e+00  -2.892089999999925e-02  2.91696740e+00   1.22467949e+00  -1.81349879e+00
C     9.907841607400000e+00   6.831900556189509e+00  -3.546834000000025e-01 -1.35564388e+00   3.46530680e-01   1.72996766e+00
C     1.114095938570000e+01   6.100962881513500e+00  -5.078561999999991e-01 -8.88348320e-01   1.82721899e+00  -8.43439320e-01
C     1.234772365180000e+01   6.881305392244483e+00  -5.065190999999984e-01  2.96905700e-01   1.50373757e+00   2.02487030e+00
