32
Lattice="9.916 0 0 4.958 8.58750790392649 0 0 0 30 " PBC="1 1 1" Properties=species:S:1:pos:R:3:force:R:3 Energy="-258.01076261"
C    -1.390220265334112e-03   1.936746992178222e-03   2.997462954890064e+00  1.41320270e-01  -5.62797100e-02   8.45112800e-02
C     1.241244371157792e+00   7.164879574650421e-01   3.000817748817462e+00 -1.04193770e-01  -6.98771100e-02  -3.24080000e-02
C     2.482196082856151e+00   3.258846924143197e-03   2.997042843668513e+00 -1.32122680e-01  -1.53337120e-01   6.58358000e-02
C     3.720140282564338e+00   7.190575530634249e-01   2.999880159502595e+00 -1.82241400e-02  -1.15008650e-01  -1.13771200e-02
C     4.955328267711809e+00  -1.055822520542999e-03   2.998858952830974e+00  8.15568700e-02   1.03174190e-01   4.12845500e-02
C     6.192710265467614e+00   7.168194303514664e-01   3.000348917599079e+00  1.91805430e-01  -1.27830990e-01  -4.87346800e-02
C     7.435778109334019e+00   1.828574652763827e-03   2.996832978546353e+00 -4.83808700e-02  -3.89809700e-02   8.95900900e-02
C     8.675467272587181e+00   7.178587824156439e-01   3.003397076683680e+00 -1.35377000e-02  -1.87462240e-01  -5.96747300e-02
C     1.236391847762251e+00   2.144997864086923e+00   3.002021492122376e+00  2.54417130e-01   1.07409600e-01  -2.92720100e-02
C     2.480033260416338e+00   2.859998972712769e+00   3.001281814872256e+00 -6.26943400e-02   2.43312790e-01  -2.06093200e-02
C     3.722307684409868e+00   2.149577509506779e+00   3.001626058497958e+00 -2.04928900e-01  -6.04609900e-02   9.63980000e-03
C     4.957383532322838e+00   2.863616043385948e+00   3.003753195843954e+00  2.02726810e-01  -1.20072700e-02  -4.53573200e-02
C     6.198369491865861e+00   2.144445970782209e+00   2.997718057556242e+00 -8.68693300e-02   2.01682530e-01   4.53976200e-02
C     7.437642729701358e+00   2.862759844497597e+00   2.998206794045269e+00  9.59829000e-03  -1.47684510e-01   1.90630600e-02
C     8.677114386704208e+00   2.143001346257846e+00   3.002864561284878e+00 -5.26478200e-02   2.61208880e-01  -4.41399600e-02
C     9.915899867226093e+00   2.859947915218101e+00   2.997764867433443e+00 -1.03853520e-01   1.30811620e-01   4.40221900e-02
C     2.479455740256706e+00   4.298624686764482e+00   2.995898754466417e+00  1.20844100e-02  -3.98182470e-01   3.26342900e-02
C     3.719756343414156e+00   5.009713098764670e+00   2.996522497216878e+00  2.90189600e-02   5.44546300e-02   5.11123700e-02
C     4.959714910556346e+00   4.292573531834397e+00   3.001891240145350e+00  1.38713400e-02   1.38892260e-01  -3.97534600e-02
C     6.201137538983951e+00   5.012162643819319e+00   2.997248393366245e+00 -1.58166210e-01  -3.15404140e-01   1.95954000e-02
C     7.439225208566715e+00   4.292335850183355e+00   2.998473165044838e+00 -1.70788810e-01   5.18613000e-02  -2.00594000e-03
C     8.672120839604165e+00   5.008835681112754e+00   3.000233323162451e+00  2.73097460e-01   5.74100600e-02  -2.65967000e-02
C     9.911929105329117e+00   4.294454827170908e+00   2.996967859743797e+00  1.21164990e-01  -1.86686850e-01   1.96119200e-02
C     1.115471041832618e+01   5.005533126971403e+00   2.997846758438180e+00 -1.23722420e-01   2.38846730e-01  -2.71253700e-02
C     3.719875236060697e+00   6.441635386136438e+00   3.001981616561141e+00  8.59394000e-03   3.62263400e-02  -1.85418600e-02
C     4.959983217486446e+00   7.158420186881382e+00   3.002545846594462e+00 -1.03401230e-01  -8.38240000e-02  -6.83724600e-02
C     6.197120093168425e+00   6.436490600066223e+00   2.995788676895725e+00  8.70489700e-02   3.26590730e-01   7.10856400e-02
C     7.436128910389391e+00   7.155238583802367e+00   3.002599356539162e+00  1.60759070e-01   8.62179900e-02  -8.72301500e-02
C     8.679584669890986e+00   6.440462445399223e+00   3.000056766927021e+00 -2.52105190e-01   2.30533600e-02   3.80553900e-02
C     9.917617573298635e+00   7.156694591263613e+00   3.002791637443878e+00 -1.30606010e-01  -4.75450800e-02  -6.31119000e-02
C     1.115099359411539e+01   6.439233642796137e+00   2.997456944226819e+00  3.37089090e-01   2.54594500e-02   5.64308900e-02
C     1.239622284414326e+01   7.157825006699214e+00   3.002579103733577e+00 -1.57910060e-01  -8.60403500e-02  -6.35593400e-02
