26
Lattice="8.88768389401873 1.33226762955019e-15 0 4.44384194700937 7.69696003302603 0 0 0 30 " PBC="1 1 1" Properties=species:S:1:pos:R:3:force:R:3 Energy="-208.09124309"
C     5.572201854446837e-01   6.843187053808297e-01   3.587010300000000e+00  6.79077090e-01   5.21846129e+00   1.90232429e+00
C     2.968310132133592e+00   1.286161251316997e-01   3.706942800000000e+00  2.25926370e-01   8.54521110e-01   8.73268840e-01
C     4.343482529952967e+00   5.694368817874614e-01   3.752599800000000e+00 -7.45471190e-01  -1.44902368e+00  -6.65994270e-01
C     9.812531925338854e+00   7.251398869600962e+00   3.691639200000000e+00 -9.66348370e-01  -1.79946330e-01   8.03762280e-01
C     1.115193952768901e+01   7.626446254925162e+00   3.619174500000000e+00  1.37236408e+00   3.58035330e-01  -1.28190670e-01
C     1.219227669955646e+01   6.616859252609352e+00   3.554524200000000e+00 -7.07254100e-01   2.10222061e+00   7.02350900e-01
C     4.649692929059088e+00   7.083265012283236e+00   3.576686400000000e+00  6.06453470e-01  -4.18984856e+00  -3.07445950e-01
C     5.679065231965527e+00   6.026485869844288e+00   3.599611200000000e+00  6.69188300e-01   2.55819379e+00   7.24801360e-01
C     7.071407168574780e+00   6.439965254172683e+00   3.649301100000000e+00 -1.13166350e+00   3.49079560e-01   1.84446300e-01
C     8.069696663532145e+00   5.448739580917239e+00   3.717976500000000e+00  2.07127641e+00   2.40411133e+00   1.55258700e-02
C     9.490813321063573e+00   5.859650104835622e+00   3.814682700000000e+00 -1.94651817e+00   3.37767870e-01  -1.55016095e+00
C     1.049459584905520e+01   4.877735752006870e+00   3.678309600000000e+00  1.23595880e-01   1.08675587e+00   1.15029837e+00
C     1.185963766479733e+01   5.266762510076758e+00   3.664949400000000e+00  4.11834080e-01  -8.09035900e-01  -5.65954020e-01
C     3.999831791447599e+00   4.265791869666532e+00   3.675107700000000e+00 -4.84495020e-01   1.55336111e+00   1.33686530e-01
C     5.342380656820888e+00   4.685558284886632e+00   3.734031300000000e+00  5.94876510e-01  -1.18380123e+00  -1.83222837e+00
C     6.384746220353792e+00   3.690843117831987e+00   3.562071000000000e+00 -7.05361920e-01   1.20225784e+00   1.50317189e+00
C     7.716787488150449e+00   4.137671351791164e+00   3.613142400000000e+00  1.56542199e+00  -3.48436732e+00   4.40641760e-01
C     8.774088271174355e+00   3.104303282979465e+00   3.703041300000000e+00 -2.48101330e-01   1.98618486e+00   3.15736000e-02
C     1.015907040564523e+01   3.539475779456412e+00   3.776910900000000e+00 -6.32168810e-01  -2.86490090e+00  -1.30173214e+00
C     2.306091695543262e+00   2.524380755573534e+00   3.668870700000000e+00 -1.29616669e+00  -2.49942000e-03   1.44791198e+00
C     3.670615403754823e+00   2.916172800473400e+00   3.637103100000000e+00 -1.63731743e+00  -1.30445040e-01   3.82223730e-01
C     4.640742983604339e+00   1.943082319592641e+00   3.682836900000000e+00  3.02570849e+00  -8.08938840e-01   2.19043600e-01
C     6.058709934831034e+00   2.337126802875685e+00   3.676024200000000e+00 -1.89505873e+00  -1.02070394e+00  -6.43573830e-01
C     7.047410774261440e+00   1.332733786157720e+00   3.646774500000000e+00  1.50684730e-01  -2.50422770e-01  -9.08195400e-02
C     8.392495251417708e+00   1.764172410354514e+00   3.669400800000000e+00  1.90649583e+00  -2.64448942e+00  -6.15713520e-01
C     1.952950818194693e+00   1.139637071101098e+00   3.836430600000000e+00 -1.00697797e+00  -9.92527220e-01  -2.81321804e+00
