32
Lattice="9.908 0 0 4.954 8.58057970069622 0 0 0 30 " PBC="1 1 1" Properties=species:S:1:pos:R:3:force:R:3 Energy="-257.89550325"
C    -1.567809315646177e-03   3.406759491015918e-03   3.005197825608187e+00  1.12317400e-02  -3.27800570e-01  -2.17986340e-01
C     1.241251592437282e+00   7.034428663260739e-01   2.994951955482904e+00 -4.47174130e-01   1.19147788e+00   1.60820520e-01
C     2.469026606849398e+00   1.144526678152283e-02   3.008315261254421e+00  6.08291860e-01  -9.50176390e-01  -6.34831500e-02
C     3.722016507258773e+00   7.059029970561099e-01   3.012660886439621e+00 -8.75913290e-01   9.19129660e-01  -5.12267000e-03
C     4.939314958613336e+00   1.112522522204718e-02   3.013079283493884e+00  1.15513344e+00  -1.00529963e+00  -3.87069600e-02
C     6.198364467326953e+00   7.200229727935762e-01   3.009789947404007e+00 -3.78822320e-01  -5.51488390e-01  -1.28572880e-01
C     7.437804866352208e+00  -7.012476377006908e-03   3.001231066275963e+00 -2.32642300e-01   4.93574550e-01   2.38148300e-02
C     8.672476900697704e+00   7.207039945671353e-01   2.994863030002783e+00 -6.75818000e-02  -6.34545780e-01   7.53389800e-02
C     1.232626465719156e+00   2.156058214703352e+00   3.001579778099404e+00  2.72981920e-01  -4.86112550e-01   7.05363000e-03
C     2.485890594348936e+00   2.861842184953058e+00   3.009370441880777e+00 -6.00597910e-01   1.74445720e-01  -1.64868860e-01
C     3.712287797519540e+00   2.146065901872104e+00   3.008815787926804e+00  4.52099360e-01  -1.57002300e-01   1.11277700e-02
C     4.952822965502469e+00   2.863150572602166e+00   3.000768683416563e+00 -3.92816600e-02   2.04424000e-03  -1.23005570e-01
C     6.190497782318911e+00   2.138949028942498e+00   2.989596286999423e+00  3.93925180e-01   6.85859250e-01   2.27661090e-01
C     7.441620574847297e+00   2.865958595105316e+00   3.005209408734204e+00 -5.65604090e-01  -6.72014510e-01  -1.04130490e-01
C     8.673862984145680e+00   2.133124211647775e+00   2.997341334541662e+00 -2.68531600e-01   9.71790130e-01   4.20952700e-02
C     9.898312078030745e+00   2.866531459687911e+00   3.001449742889914e+00  5.85288570e-01  -2.79189320e-01  -3.86699600e-02
C     2.485116190263362e+00   4.299034956623457e+00   2.987609974916889e+00 -6.75107230e-01  -5.85644100e-01   3.43637530e-01
C     3.706201720597558e+00   5.009069429310467e+00   3.008433577226733e+00  5.23961360e-01   1.14724120e-01  -2.77309890e-01
C     4.954268935477738e+00   4.303691970659819e+00   2.987508140963213e+00 -5.24546930e-01  -8.63317570e-01   2.34640670e-01
C     6.179189496519627e+00   4.993973266653843e+00   3.003654199689566e+00  7.87440700e-01   1.08572352e+00   4.71282000e-03
C     7.428331335294086e+00   4.288029551905667e+00   3.013840276084092e+00  5.80472500e-02  -1.61703900e-02  -8.83384900e-02
C     8.669006390308308e+00   4.996410883705895e+00   3.009297074314053e+00 -1.95909450e-01   8.76824310e-01  -4.66906300e-02
C     9.909332049426299e+00   4.298129316730631e+00   2.999357106322281e+00 -5.54431510e-01  -5.20453320e-01   1.30720210e-01
C     1.113663259767438e+01   4.998389471143769e+00   3.009247745132106e+00  9.20839210e-01   4.86475700e-01  -2.66058590e-01
C     3.710834390738212e+00   6.432545035372057e+00   3.000408171134855e+00  1.93222160e-01   1.61152720e-01   2.08640100e-02
C     4.944311244129096e+00   7.150703185358803e+00   2.991714859534822e+00  4.32851150e-01   1.17608460e-01   2.09862300e-01
C     6.193059419892734e+00   6.444952828073848e+00   3.009026630569635e+00 -3.69752680e-01  -7.35174340e-01  -1.41325510e-01
C     7.429899084480711e+00   7.148216824403391e+00   3.005150042069390e+00 -2.38293510e-01   6.60321630e-01   5.17951200e-02
C     8.665094392137769e+00   6.446000124682604e+00   3.002150755300243e+00  1.25592900e-02  -1.05652946e+00   7.21435400e-02
C     9.897425956289679e+00   7.140099433046300e+00   3.004358020295050e+00  7.37253520e-01   8.04638460e-01  -1.82970300e-02
C     1.115507354446087e+01   6.428960782124044e+00   2.995924442399420e+00 -7.12104320e-01   2.13040780e-01   1.69242850e-01
C     1.239236125580106e+01   7.149724616385319e+00   3.003731369271634e+00 -3.98831940e-01  -1.17912510e-01  -6.29641400e-02
