32
Lattice="9.86 0 0 4.93 8.53901048131456 0 0 0 30 " PBC="1 1 1" Properties=species:S:1:pos:R:3:force:R:3 Energy="-251.09004794"
C     9.587442189200001e+00   8.808549469207487e-01   3.721202100000000e+00 -5.52345620e-01   1.13117851e+00   3.91154213e+00
C     9.404263404999998e-01   1.566210188193050e+00   4.120048500000000e+00  4.09249505e+00  -1.98386255e+00  -1.74402509e+00
C     2.252417808400000e+00   9.140892880495376e-01   3.953426400000000e+00 -2.58427469e+00  -2.99114272e+00  -2.90021260e-01
C     3.385999675500000e+00   1.627385367073866e+00   4.281608100000001e+00  8.50905030e-01   2.83010140e-01  -3.32266900e-01
C     4.575878494399999e+00   8.977907079661519e-01   4.156443300000000e+00  1.63669202e+00  -1.63086553e+00   1.58426200e-01
C     5.826294410200000e+00   1.558814465826218e+00   4.231734300000000e+00  4.33228720e-01  -1.41279683e+00   1.20424665e+00
C     7.065541706799999e+00   7.781569509986271e-01   4.259221200000000e+00  2.43777665e+00   2.13080883e+00  -8.35132000e-01
C     8.325596561400001e+00   1.563163213083472e+00   4.126745700000000e+00  3.41583900e-02  -3.22168194e+00   1.35408730e-01
C     1.097813459950000e+01   2.909577392939017e+00   4.483643099999999e+00 -2.74697822e+00   1.59214351e+00   4.03873930e-01
C     2.257480277500000e+00   3.796828058709286e+00   4.672312800000000e+00  4.48257440e-01  -8.39640740e-01  -1.97299976e+00
C     3.453133901200000e+00   3.051429399005187e+00   4.516477800000000e+00  5.99070930e-01   1.37643933e+00  -5.54900280e-01
C     4.724578830600000e+00   3.765585441774957e+00   4.274287800000000e+00 -2.41418423e+00  -1.68353210e-01  -2.14429460e-01
C     5.858187566200000e+00   2.974436215550800e+00   4.326867900000000e+00  3.39192615e+00   6.25363200e-01  -1.45378940e+00
C     7.171274233600000e+00   3.634652524579877e+00   4.212012300000000e+00 -8.16782700e-01   2.08553134e+00  -3.57856300e-02
C     8.377937237499999e+00   2.920072519939775e+00   4.444064099999999e+00  1.38689366e+00  -4.69165880e-01  -1.80188032e+00
C     9.708079190599999e+00   3.466309690131288e+00   4.460902800000000e+00 -2.82444592e+00   7.14415593e+00  -4.76769840e-01
C     1.210680667960000e+01   5.275228186532304e+00   4.458198600000000e+00 -1.30253300e-01  -2.59738455e+00   1.79077550e-01
C     3.494937934800000e+00   5.885461056156282e+00   4.112165700000000e+00  7.99660960e-01  -6.11832920e-01  -1.63407020e-01
C     4.698036943100000e+00   5.160608280348321e+00   3.891152400000000e+00  2.40401113e+00  -1.15092721e+00   8.09663900e-01
C     6.042989848700000e+00   5.801487487804809e+00   3.560292900000000e+00 -2.12388203e+00   2.44304600e-02   2.11430295e+00
C     7.274746256800000e+00   5.061281741934017e+00   3.829816200000000e+00 -2.67132315e+00  -1.81520169e+00   8.90154190e-01
C     8.510612263599999e+00   5.733518586795999e+00   3.988432800000000e+00 -4.54652175e+00   1.68681332e+00  -1.56027872e+00
C     9.616157812299999e+00   5.059144513000978e+00   4.261428000000000e+00  5.95467515e+00  -2.39397161e+00   2.09490261e+00
C     1.084957237660000e+01   5.924314407741329e+00   4.357839900000000e+00 -1.78437112e+00  -1.38060076e+00  -8.13995670e-01
C     1.343132803830000e+01   7.275758577110222e+00   4.003500600000000e+00 -2.39344926e+00   4.20039000e-01   9.61812160e-01
C     4.760258916800000e+00   8.000238027379998e+00   3.813708300000000e+00  5.46304260e-01  -8.34204360e-01  -1.93559686e+00
C     6.032086660699999e+00   7.263256953426874e+00   3.572197800000000e+00 -2.72656758e+00  -1.46003229e+00  -1.04118890e-01
C     7.252021717599999e+00   7.884466806412997e+00   3.579352500000000e+00 -1.48533697e+00   4.81931333e+00   1.74415169e+00
C     8.371077734099998e+00   7.160797366677354e+00   3.830783100000001e+00  4.02434628e+00   3.71626590e-01   4.73784780e-01
C     9.548180753800001e+00   7.960882411198517e+00   4.053122100000000e+00 -1.41495473e+00   2.81072459e+00  -3.50898450e-01
C     1.075678583260000e+01   7.365581709200915e+00   4.157560200000000e+00  4.95100672e+00  -4.60558774e+00   1.51703921e+00
C     1.214769496570000e+01   7.906166054454667e+00   4.289020200000000e+00 -2.77573730e+00   3.06567444e+00  -1.95809113e+00
