32
Lattice="9.596 0 0 4.798 8.31037977471547 0 0 0 30 " PBC="1 1 1" Properties=species:S:1:pos:R:3:force:R:3 Energy="-256.39122449"
C     9.801928686233134e-04  -5.806260325806812e-04   3.000905994691240e+00 -4.96017800e-02   4.74520000e-02  -5.90102000e-03
C     1.200073278178531e+00   6.930068334657277e-01   3.000041283314354e+00 -8.09865000e-03   3.90383000e-03  -6.57815000e-03
C     2.400084611002048e+00   9.923332027251587e-04   2.998988040555889e+00 -6.79754100e-02  -3.67752800e-02   1.84158600e-02
C     3.599177286948235e+00   6.916048311263167e-01   3.000337898955400e+00 -2.98175200e-02   9.67717600e-02  -1.32153700e-02
C     4.796991851496008e+00  -6.430134681102245e-04   2.999726397666655e+00  1.00961940e-01   6.08749800e-02  -6.31820000e-04
C     5.996868427441816e+00   6.937272691121193e-01   2.999734529509854e+00  3.51813600e-02  -9.00494900e-02   1.82434000e-03
C     7.197536984813118e+00  -1.157612279828430e-04   2.999944518918135e+00 -6.50611800e-02   1.98552800e-02  -1.98295000e-03
C     8.396608587886906e+00   6.923704230024462e-01   3.000215204890408e+00  4.05562100e-02   3.27599000e-02  -1.45140000e-04
C     1.198552325653440e+00   2.078461226640611e+00   2.999539476919173e+00  4.57918700e-02  -6.23112500e-02   7.13955000e-03
C     2.398968126729010e+00   2.769431074820545e+00   3.000288090326730e+00 -2.93456400e-02   1.00490670e-01  -7.38137000e-03
C     3.598119370785870e+00   2.077581901310022e+00   2.999537710854989e+00  3.77428800e-02  -2.34630500e-02   4.44498000e-03
C     4.797802335990439e+00   2.770750744277633e+00   2.998898716570844e+00 -8.19327000e-03  -4.84554600e-02   5.80229000e-03
C     5.997499680633466e+00   2.078345096974763e+00   3.000048803338653e+00 -1.72301900e-02  -1.65747900e-02  -2.61991000e-03
C     7.196835689106697e+00   2.770699213631812e+00   3.000582691913122e+00  3.12135900e-02  -3.99398700e-02  -1.17716900e-02
C     8.397413644153954e+00   2.078752508278848e+00   2.999328048380002e+00 -1.11476100e-01  -1.13338940e-01   1.19908800e-02
C     9.595024305389888e+00   2.769276691197056e+00   2.999786145927003e+00  6.70441300e-02   1.27720870e-01  -4.58378000e-03
C     2.398659811483157e+00   4.156321666724841e+00   3.000377195880016e+00  1.79374000e-02  -7.30356700e-02  -7.24835000e-03
C     3.598911949699656e+00   4.848297482772240e+00   3.000328810323666e+00 -2.50656800e-02  -7.36832100e-02  -1.16286000e-03
C     4.798953260614289e+00   4.154756055355072e+00   2.999083871387191e+00 -9.23287700e-02   3.65984800e-02   1.51331500e-02
C     5.996852018227775e+00   4.846768925804242e+00   3.001131184857992e+00  8.78314700e-02   9.23293900e-02  -2.43165500e-02
C     7.196911938078017e+00   4.154502861719831e+00   2.999889856590397e+00  1.19356000e-02   5.94773600e-02   9.15788000e-03
C     8.397698116864071e+00   4.846759390007489e+00   2.999369873376011e+00 -1.29620930e-01   7.84912700e-02   7.13707000e-03
C     9.595122797755819e+00   4.155728707830628e+00   2.999623654234151e+00  7.25852600e-02  -8.43552900e-02  -5.83753000e-03
C     1.079451201025886e+01   4.848527543417715e+00   2.999086220289573e+00  3.61042500e-02  -5.39163400e-02   1.28267900e-02
C     3.597384512224051e+00   6.232021072830063e+00   3.001134013405629e+00  7.77785800e-02   5.47500100e-02  -9.18381000e-03
C     4.797311657797412e+00   6.925317660802360e+00   3.000818057961240e+00  1.96673200e-02  -2.84068800e-02  -4.24988000e-03
C     5.997403156910585e+00   6.233474700160405e+00   2.999262713186003e+00 -3.54025800e-02  -6.39663000e-02   2.34740100e-02
C     7.196293892473706e+00   6.926279749707204e+00   3.000307230709693e+00  4.58089500e-02  -4.02228300e-02  -1.24131500e-02
C     8.396131481685362e+00   6.232692454042499e+00   3.000253921947919e+00 -1.15810000e-02  -2.41733000e-03  -8.50464000e-03
C     9.595186543830838e+00   6.925858289145799e+00   2.999184025131922e+00  3.41256800e-02  -7.18358800e-02   8.76516000e-03
C     1.079534901128605e+01   6.232382804146508e+00   2.999689841940120e+00 -3.58833600e-02   6.90706000e-02  -1.13753600e-02
C     1.199512669550164e+01   6.924560697607589e+00   2.999539324439053e+00 -4.55844300e-02   4.22014600e-02   1.29913800e-02
