26
Lattice="8.88768389401873 1.33226762955019e-15 0 4.44384194700937 7.69696003302603 0 0 0 30 " PBC="1 1 1" Properties=species:S:1:pos:R:3:force:R:3 Energy="-208.85621103"
C     1.291564986886814e+01   7.151606705237607e+00   3.517380000000000e-02  5.61467200e-02   4.18746700e-02   9.85081300e-02
C     9.084989232643272e+00   7.021191415698895e+00   1.171830000000000e-02  2.30431725e+00  -8.06916520e-01  -4.78992650e-01
C     1.050145936403782e+01   6.568860086227069e+00  -9.387570000000167e-02 -1.73675640e-01   2.62845155e+00   1.01034697e+00
C     1.084345663934693e+01   5.204121493599006e+00  -6.747629999999916e-02  1.22875346e+00  -2.37009420e-01  -3.34365700e-02
C     6.744202731162082e+00   6.382637526173240e+00   9.679380000000000e-02 -6.10287090e-01   1.11970700e-02  -2.35641710e-01
C     8.079022066219343e+00   6.011565004947732e+00   1.416540000000000e-02  1.60897062e+00   6.32234930e-01  -1.04404250e-01
C     8.451160632730161e+00   4.651352301786909e+00  -8.741219999999927e-02  5.87150700e-01  -4.98907850e-01   5.28281920e-01
C     9.819027353835066e+00   4.234905508458149e+00  -6.846750000000057e-02  2.28573400e-02  -6.99345020e-01   2.82235210e-01
C     1.018364925054920e+01   2.838436429015211e+00   6.126060000000000e-02 -1.73949932e+00   3.43759300e-01  -5.79792550e-01
C     4.393283781235382e+00   5.762098140689000e+00  -1.478459999999870e-02 -4.49668250e-01   7.16050000e-04   1.45608320e-01
C     5.771999342575382e+00   5.373245410885390e+00  -1.040459999999754e-02 -1.56435222e+00  -1.73987500e-01   8.49363700e-01
C     6.101693530368658e+00   3.974391197468357e+00   4.444860000000000e-02 -1.15537503e+00   2.42556811e+00  -9.14928180e-01
C     7.453306677436498e+00   3.663956250994392e+00  -2.836740000000049e-02  1.50782190e-01  -1.62538029e+00  -4.18375300e-02
C     7.765764179975163e+00   2.272516057356655e+00  -2.825400000000045e-02  1.37040880e+00   1.26632400e-02   1.95637010e-01
C     9.128473333671963e+00   1.843261445568374e+00   4.557120000000000e-02  8.07961380e-01   8.56882300e-02   2.95315620e-01
C     3.362478515727618e+00   4.774964325324705e+00  -1.632419999999968e-02 -1.21282185e+00   1.31306577e+00  -5.48925100e-02
C     3.679656844896477e+00   3.409328728974745e+00   4.843080000000000e-02  1.02825510e-01   4.93586080e-01  -3.59297130e-01
C     5.041076262386001e+00   3.042297342673788e+00   4.646100000000000e-03  6.11151720e-01  -6.74984420e-01   3.33597890e-01
C     5.381526769628290e+00   1.675986338081196e+00  -2.568329999999719e-02 -1.40549380e-01  -3.07223990e-01   2.90080480e-01
C     6.755075698139910e+00   1.300948650926633e+00  -2.797799999999739e-02 -8.66391400e-02  -1.45420524e+00   1.96138430e-01
C     1.158011240900486e+01   7.603179884146478e+00   1.541580000000000e-02 -2.43584190e+00  -1.41752736e+00  -8.62395380e-01
C     2.645788083643806e+00   2.445497921918877e+00   8.454060000000001e-02 -3.50236220e-01  -4.26688570e-01   3.33393230e-01
C     2.950647149724407e+00   1.064606412002255e+00   1.545453000000000e-01  7.39631260e-01  -4.26127000e-03  -3.25336760e-01
C     4.335744423634095e+00   7.208771103745214e-01   4.833840000000000e-02 -2.63337690e-01  -1.62031050e+00   1.21586830e-01
C     5.925325087242355e-01   4.378636615818361e-01   1.305135000000000e-01 -6.29071260e-01   1.27863433e+00  -3.47495530e-01
C     1.932399648275737e+00   5.216191327530850e-02   1.842894000000000e-01  1.22039803e+00   6.79308620e-01  -3.41643010e-01
