26
Lattice="8.88768389401873 1.33226762955019e-15 0 4.44384194700937 7.69696003302603 0 0 0 30 " PBC="1 1 1" Properties=species:S:1:pos:R:3:force:R:3 Energy="-209.00745577"
C     1.253106792163594e+01   6.760750995525392e+00  -5.589300000000463e-03 -1.54279202e+00  -1.40958716e+00  -3.23619500e-01
C     8.741298141337285e+00   6.536929786329816e+00   8.630910000000000e-02 -2.27840450e-01   2.08251561e+00   1.68240650e-01
C     1.010971443240187e+01   6.161024036023070e+00   6.993810000000000e-02  2.54399610e-01  -4.31456080e-01  -2.71348750e-01
C     1.046569492294344e+01   4.759697405105199e+00   4.897320000000000e-02 -1.28056978e+00   4.40478900e-01   6.48409250e-01
C     6.343684855613070e+00   5.940810776841557e+00  -2.403959999999827e-02  3.30664610e-01   1.76535785e+00   5.11651570e-01
C     7.705078676577491e+00   5.580708040020405e+00   8.552670000000000e-02  5.72303730e-01  -1.19710054e+00  -3.47117200e-01
C     8.039421967371032e+00   4.175426788008721e+00   1.015674000000000e-01  6.73395490e-01   9.94066810e-01  -5.45656200e-02
C     9.400313323082587e+00   3.747367052295498e+00   1.021071000000000e-01  1.23236419e+00   1.79115714e+00  -2.70179670e-01
C     9.764614996570081e+00   2.387712070858448e+00   6.140549999999999e-02  5.20837600e-02  -2.18307420e-01  -7.98724300e-02
C     3.982265818182158e+00   5.315826089061590e+00  -9.135600000000466e-03 -5.36729150e-01   3.46306156e+00   2.05769150e-01
C     5.340849309069549e+00   4.967125090041679e+00  -2.885339999999914e-02 -5.26678350e-01  -1.47320090e-01   1.41628800e-02
C     5.674073329427037e+00   3.615161526823408e+00   4.858800000000000e-03 -7.87604860e-01  -1.18821191e+00   2.67499910e-01
C     7.011661089128371e+00   3.227431090761773e+00   7.041480000000000e-02  8.35188190e-01  -9.82256970e-01  -1.93163770e-01
C     7.377190196188959e+00   1.851557921815111e+00   4.390140000000000e-02 -7.63560660e-01  -1.23288283e+00  -1.08501940e-01
C     8.733139466389236e+00   1.412098680419056e+00   1.986630000000000e-02 -2.06236140e-01   1.12543274e+00   1.03217600e-02
C     2.946030888875313e+00   4.394883820867286e+00   7.615350000000000e-02 -7.06063190e-01  -1.80070064e+00  -5.71056320e-01
C     3.273106542800132e+00   2.992388252629660e+00   6.167760000000001e-02 -4.97061010e-01   2.33661800e-01  -3.40525100e-02
C     4.637654069508184e+00   2.620128321380324e+00   3.940080000000000e-02 -2.92430100e-01   1.23596586e+00  -1.05001600e-02
C     4.928116554175833e+00   1.271573664789740e+00   6.246119999999999e-02  2.46813725e+00  -1.94439451e+00  -5.66975900e-02
C     6.345256861394033e+00   8.499177228518755e-01   2.059140000000000e-02 -7.93610130e-01   7.09428550e-01   2.30544010e-01
C     1.113412345402192e+01   7.172520962000724e+00   1.424310000000000e-02  5.05147190e-01  -9.26628180e-01   1.96553180e-01
C     2.247417383637142e+00   1.990376213527375e+00   4.141530000000000e-02 -2.21868030e-01   9.54776560e-01   2.82401340e-01
C     2.570385994410921e+00   6.078143093450430e-01   5.522520000000000e-02  2.70166970e-01   1.14328384e+00  -5.03152600e-02
C     3.926885812263629e+00   2.820623354417782e-01   9.957540000000001e-02  1.13284008e+00  -2.51390499e+00  -3.19841520e-01
C     1.816013339457658e-01   5.558282716064200e-02  -4.738979999999771e-02  1.29445288e+00  -1.03363907e+00   4.67423980e-01
C     6.012452387492901e+00   7.340877569341718e+00  -7.650000000012369e-04 -1.23810009e+00  -9.12796820e-01  -3.12145440e-01
