26
Lattice="8.88768389401873 1.33226762955019e-15 0 4.44384194700937 7.69696003302603 0 0 0 30 " PBC="1 1 1" Properties=species:S:1:pos:R:3:force:R:3 Energy="-205.72469606"
C     1.231700192233966e+01   6.293156825222876e+00  -1.405130999999997e-01 -3.09392840e+00   1.11115693e+00  -1.20851474e+00
C     8.497660240418092e+00   6.234746519795213e+00  -3.387920999999992e-01  4.32267420e-01   6.99424730e-01   3.62776390e-01
C     9.928308849502152e+00   5.810453137533470e+00  -5.358537000000005e-01 -1.31430779e+00   1.11363097e+00   6.16193010e-01
C     1.034340332533576e+01   4.425713686389050e+00  -4.787805000000027e-01 -3.69426013e+00  -1.39289965e+00   7.39319500e-01
C     6.163638110641497e+00   5.495105914198759e+00  -9.226859999999704e-02 -4.61633089e+00   5.02501267e+00   9.70199780e-01
C     7.449545410604881e+00   5.188927386621385e+00  -1.686857999999987e-01  4.97509280e+00   4.11054651e+00  -1.12005381e+00
C     7.864667216143982e+00   3.923531532860523e+00  -2.464842000000012e-01  1.27276665e+00  -5.19323535e+00  -9.96370700e-02
C     9.201667722083133e+00   3.460137439707179e+00  -3.466073999999999e-01  2.42034727e+00  -7.23445300e-02   4.57411200e-02
C     9.535841169207092e+00   2.007991245343232e+00  -1.983930000000029e-01 -2.68985662e+00   2.13938026e+00  -5.14629200e-02
C     3.764301147488917e+00   4.876299191386871e+00  -1.128272999999993e-01  5.61540020e-01   3.24041502e+00  -8.60373550e-01
C     5.140148075591982e+00   4.570297693890187e+00  -1.291668000000001e-01 -2.60745930e-01  -6.90899830e-01   1.95832790e-01
C     5.528318335197847e+00   3.236913668549133e+00  -2.509346999999984e-01 -1.43089675e+00   1.01797991e+00  -4.06857550e-01
C     6.871575592921235e+00   2.895675257126308e+00  -2.234762999999980e-01 -4.16300120e-01   3.97061310e-01   8.15693500e-02
C     7.091419163259943e+00   1.538273791646842e+00  -1.976112000000008e-01  5.11042415e+00  -2.08656034e+00  -2.32550810e-01
C     8.501666271669020e+00   1.022902281350108e+00  -8.984429999999932e-02 -1.44569502e+00   1.16250256e+00  -1.63394080e-01
C     2.771712078405248e+00   3.930831098844175e+00  -3.170564999999996e-01 -1.15542881e+00  -8.13327800e-02   2.24485680e-01
C     3.091666164551595e+00   2.539612115837701e+00  -2.225582999999993e-01 -1.69473208e+00   2.07341396e+00  -1.23207381e+00
C     4.487383554214619e+00   2.320693254424433e+00  -3.808961999999987e-01 -1.51877121e+00  -3.37708508e+00   2.48830529e+00
C     4.761634147989138e+00   9.342105188028188e-01  -2.126768999999982e-01  3.60091390e-01  -1.51155820e-01  -2.12247333e+00
C     6.145023386793663e+00   5.671095519831904e-01  -3.701363999999998e-01 -1.97115082e+00  -3.50484673e+00   3.98173450e-01
C     1.093474888515226e+01   6.827483638985491e+00  -5.215998000000006e-01  1.35854132e+00  -6.97504850e-01   2.32228834e+00
C     1.946866265663433e+00   1.598765739914618e+00  -1.676895000000016e-01  3.63497328e+00   3.70623050e-01   6.50144740e-01
C     2.263360287607772e+00   2.278808937937983e-01   8.028600000000000e-03  2.19313116e+00   1.39047833e+00  -1.36869228e+00
C     3.682136239865208e+00   1.333344385996900e-02  -2.033661000000002e-01  9.36163150e-01  -5.19720014e+00   3.48519300e-01
C     4.365835370390246e+00   7.319660745079822e+00   4.389750000000000e-02  1.13634418e+00   2.67005100e-01  -9.11002460e-01
C     5.735945298488424e+00   6.930697256021381e+00   1.495470000000000e-02  9.10721740e-01  -1.67356621e+00   3.33537680e-01
