32
Lattice="9.86 0 0 4.93 8.53901048131456 0 0 0 30 " PBC="1 1 1" Properties=species:S:1:pos:R:3:force:R:3 Energy="-256.65033258"
C     1.221989585100000e+00   4.800644500371720e-01   3.313205100000000e+00 -7.01635240e-01  -3.07620620e-01   1.61897930e-01
C     2.448039370300000e+00   1.187229604926966e+00   3.421100100000000e+00  7.56966030e-01  -7.12377270e-01   2.70100800e-02
C     3.657180142900000e+00   4.504742170208280e-01   3.441693300000000e+00  2.40474186e+00   9.17225730e-01  -2.49579020e-01
C     4.951081912500000e+00   1.201857613000044e+00   3.423684900000000e+00 -1.92939004e+00  -2.07524163e+00   5.99257260e-01
C     6.156543376799999e+00   4.560805043514720e-01   3.447889800000000e+00  1.55662650e-01  -2.85537430e-01  -4.53548270e-01
C     7.399649680200000e+00   1.170573496474782e+00   3.328278900000000e+00 -7.97923800e-01  -6.02828320e-01   5.23506540e-01
C     8.615077977599999e+00   4.707131234902096e-01   3.344471400000000e+00  7.67220870e-01  -2.48495102e+00  -5.58823590e-01
C     9.838276645199999e+00   1.168579979088122e+00   3.250821000000000e+00  3.22964290e-01   1.27924124e+00   1.33900556e+00
C     2.521743215400000e+00   2.603235866293462e+00   3.547075200000000e+00 -2.37579858e+00  -8.85926810e-01  -4.22444930e-01
C     3.691262761200000e+00   3.341207550852371e+00   3.513647700000000e+00  1.74482905e+00  -1.56915114e+00   5.04329410e-01
C     4.938147564499999e+00   2.589953691662136e+00   3.481955400000000e+00  1.62687890e-01   1.60632928e+00  -2.37342530e-01
C     6.179637370200000e+00   3.305638985818770e+00   3.480314400000000e+00 -1.11092497e+00  -3.34895320e-01  -1.12494236e+00
C     7.403597919999999e+00   2.584651222324371e+00   3.321715500000000e+00 -8.28147710e-01   7.24427800e-01   1.23336190e+00
C     8.597113501300001e+00   3.317245294253290e+00   3.471456600000000e+00  1.55578089e+00  -3.83149860e-01  -1.39187553e+00
C     9.842694467499999e+00   2.610628343836312e+00   3.435003600000000e+00  8.43926310e-01  -1.01166236e+00  -7.88541000e-03
C     1.112993644800000e+01   3.261006773501277e+00   3.594174600000000e+00 -1.59916583e+00   1.47275181e+00  -7.23740830e-01
C     3.676602025800000e+00   4.730433682161387e+00   3.580020600000000e+00  9.84834850e-01   8.14476720e-01  -2.88270920e-01
C     4.930603037599999e+00   5.418201279284394e+00   3.442333800000000e+00 -1.69487840e+00   9.29142110e-01   4.65195960e-01
C     6.090920541199999e+00   4.727881542709125e+00   3.408732300000000e+00  4.79180171e+00  -7.62664840e-01   2.88986530e-01
C     7.391735551200000e+00   5.470197192679419e+00   3.389171400000000e+00 -1.47195946e+00  -1.23728260e+00  -4.81543850e-01
C     8.620974405500000e+00   4.730243518397998e+00   3.396808200000000e+00 -6.81605010e-01   7.38854850e-01   1.32602544e+00
C     9.846528134100000e+00   5.431232577787817e+00   3.567600900000000e+00  8.62494410e-01  -1.43182083e+00  -3.64736850e-01
C     1.110339451120000e+01   4.694554980267152e+00   3.612277500000000e+00 -3.91187710e-01   6.41502220e-01   6.12894230e-01
C     1.232961896630000e+01   5.435046099868185e+00   3.670991400000000e+00 -1.09312922e+00   3.14717560e-01  -4.76204900e-01
C     4.986284331000000e+00   6.836296951125242e+00   3.401321700000000e+00 -3.67901725e+00  -1.37928030e-01   5.13840000e-02
C     6.123656628599999e+00   7.582975352329977e+00   3.351633000000000e+00  2.95707665e+00   9.23261570e-01  -5.12084700e-01
C     7.367705202900000e+00   6.876617219320649e+00   3.337608900000000e+00  1.43408532e+00   3.04832150e-01   6.90176040e-01
C     8.646257811900000e+00   7.580793208201813e+00   3.430198800000000e+00 -1.55504221e+00  -7.22830980e-01   1.09007030e-01
C     9.864748871800000e+00   6.829436710105609e+00   3.583259400000000e+00 -9.48795610e-01   1.20023207e+00  -8.36468430e-01
C     1.106912430640000e+01   7.545248467007451e+00   3.532575300000000e+00  1.27577951e+00   1.65275350e+00   4.51870040e-01
C     1.232079939350000e+01   6.876713027018234e+00   3.600063300000000e+00  5.76297190e-01  -1.37115851e+00  -4.86384700e-01
C     1.358225821350000e+01   7.513524249882050e+00   3.427661700000000e+00 -7.38548430e-01   2.79727893e+00   2.31968860e-01
