32
Lattice="9.86 0 0 4.93 8.53901048131456 0 0 0 30 " PBC="1 1 1" Properties=species:S:1:pos:R:3:force:R:3 Energy="-257.44830361"
C     4.932435173499999e+00   8.490557999783860e+00  -7.445429999999931e-02  7.19327980e-01   8.30771200e-02  -4.48891170e-01
C     1.236432217300000e+00   6.562194543937031e-01  -7.686269999999951e-02  7.47196150e-01   8.11857760e-01   7.72589700e-02
C     7.429632017499999e+00   8.506734813577800e+00  -5.846430000000069e-02 -1.90688050e+00  -1.92370004e+00  -7.51881140e-01
C     3.700717811000000e+00   6.368834628924768e-01  -1.904937000000011e-01  1.43962844e+00   1.84234339e+00   1.06815462e+00
C     9.880160248999999e+00   8.506342787606664e+00  -1.659345000000023e-01  8.06697200e-02  -1.25517221e+00  -2.02356660e-01
C     6.185279410100001e+00   6.751962097240360e-01  -1.114151999999997e-01 -3.18853900e-02  -2.73946900e-01  -8.76821940e-01
C     1.235860430970000e+01   8.488320608257890e+00  -2.057472000000011e-01 -1.20072849e+00   2.29509010e-01   7.77897420e-01
C     8.635694399500000e+00   6.651908803644104e-01  -1.216670999999998e-01  6.03017980e-01  -6.17392060e-01   3.71233230e-01
C     1.245396978600000e+00   2.094754187109584e+00  -1.521630000000016e-01 -4.07285880e-01  -1.01506146e+00   1.16040190e-01
C     2.487013830400000e+00   2.780684872298133e+00  -1.996968000000017e-01 -3.02185870e-01   4.70450350e-01  -7.99248000e-03
C     3.730322461000000e+00   2.079116526437351e+00  -1.506770999999993e-01 -1.19605955e+00  -3.82502130e-01  -5.79031840e-01
C     4.930622708300000e+00   2.802500592442751e+00  -1.583603999999994e-01  1.12979226e+00   1.22727180e-01   5.38889000e-03
C     6.173114832300000e+00   2.102070667459162e+00  -1.245903000000013e-01  2.79413470e-01  -6.19021770e-01   2.12393640e-01
C     7.417916217599998e+00   2.788911184214355e+00  -1.110155999999982e-01 -3.96006460e-01   2.47840900e-02   3.74404560e-01
C     8.657519263000001e+00   2.068121184202674e+00  -4.080539999999999e-02 -1.60560866e+00   6.23531220e-01  -1.03479147e+00
C     9.843984254100000e+00   2.786702056813074e+00  -1.543260000000011e-01  2.27214261e+00   2.63904940e-01   4.65904910e-01
C     2.473850779700000e+00   4.205019572146193e+00  -2.847575999999989e-01  7.72890940e-01   4.57329990e-01   1.88663000e-02
C     3.729895572299999e+00   4.912519968587431e+00  -2.916401999999998e-01 -9.40282640e-01   8.47819750e-01   6.32241350e-01
C     4.960404098800000e+00   4.231951696590217e+00  -1.880309999999987e-01 -6.96574890e-01  -9.34609320e-01   2.68618050e-01
C     6.177826186800000e+00   4.921898107627301e+00  -6.294809999999984e-02 -5.25047100e-02   8.33109070e-01  -1.25680929e+00
C     7.392963416999999e+00   4.208408278455181e+00  -1.140161999999982e-01  1.26959875e+00  -3.49366900e-02   2.15379220e-01
C     8.646033398300000e+00   4.908657091026489e+00  -1.674551999999991e-01 -4.76066040e-01   4.13781540e-01   4.17501670e-01
C     9.882474292399998e+00   4.202471958369484e+00  -1.841207999999988e-01 -4.03290660e-01   8.34854960e-01  -4.75069870e-01
C     1.111447626380000e+01   4.947393031217437e+00  -2.865006000000001e-01 -3.72232120e-01  -1.34406584e+00   1.40865900e-01
C     3.706695731800000e+00   6.343293082337411e+00  -2.069967000000013e-01  9.83652190e-01   3.57582620e-01  -4.23259730e-01
C     4.971894597700000e+00   7.082076058282025e+00  -1.467485999999987e-01 -2.03343354e+00  -9.73615280e-01   4.61914500e-02
C     6.176106011200000e+00   6.359883013458374e+00  -1.495742999999976e-01  4.03328450e-01  -6.48684320e-01   9.21488210e-01
C     7.407573817099999e+00   7.043942203720022e+00  -8.628900000000073e-02  6.88861500e-02   1.47864989e+00  -7.38087400e-02
C     8.620658589700000e+00   6.337850402447564e+00  -1.300755000000002e-01  1.50339500e+00   4.91393900e-02  -5.26456210e-01
C     9.875170497399999e+00   7.065528224482728e+00  -2.237627999999994e-01 -6.80230320e-01   2.62591360e-01   3.06844640e-01
C     1.110083830620000e+01   6.362253955108251e+00  -3.094856999999998e-01  1.90631930e-01   7.19318000e-03   5.70148970e-01
C     1.234052836610000e+01   7.064552471755178e+00  -2.365104000000002e-01  2.37683700e-01   8.47122000e-03  -3.49651660e-01
