32
Lattice="9.86 0 0 4.93 8.53901048131456 0 0 0 30 " PBC="1 1 1" Properties=species:S:1:pos:R:3:force:R:3 Energy="-251.80940211"
C     9.862899776699999e+00   1.868114332652568e-01   4.112582700000000e+00 -4.62529559e+00  -5.34375280e-01   8.10577900e-02
C     1.110892577400000e+00   9.785210747472159e-01   4.249649400000000e+00  4.88149158e+00  -2.29579007e+00  -1.11807434e+00
C     2.380883156800000e+00   2.159216885025200e-01   4.003708800000000e+00  8.01844230e-01  -1.88615794e+00   3.96939100e-02
C     3.721833789800000e+00   7.628207173963376e-01   4.129976700000000e+00 -2.71587940e+00   4.02264141e+00  -7.17245230e-01
C     4.981390960900000e+00   1.449060685544472e-01   3.912781499999999e+00 -2.29553649e+00   1.59118231e+00   2.47782100e-01
C     6.173148011200000e+00   9.365023119772320e-01   4.023097500000000e+00 -2.29848769e+00   9.17301600e-02  -1.03227996e+00
C     7.352584498500000e+00   2.187707293491720e-01   4.114369500000000e+00  1.36401257e+00  -3.95818656e+00  -3.96700250e-01
C     8.565352518600001e+00   7.902604860133984e-01   4.217736900000000e+00  3.13998960e+00   6.39746530e+00   8.79299330e-01
C     1.107388328470000e+01   2.346138129965230e+00   4.421503800000000e+00 -7.60431000e-03   9.24427810e-01   7.17492700e-01
C     2.523870461100000e+00   2.981844917213563e+00   4.498414500000000e+00 -4.16010682e+00   1.18904877e+00  -1.91920960e-01
C     3.623681729599999e+00   2.253753294730537e+00   4.234516800000001e+00  4.72318312e+00  -9.33272030e-01  -1.46407773e+00
C     4.843267002999999e+00   3.069355172925642e+00   3.822341400000000e+00 -1.26071170e+00  -3.69679135e+00   1.98038718e+00
C     6.071110470100000e+00   2.385321087354805e+00   3.856689300000000e+00  2.33007928e+00  -2.93995981e+00   1.05870847e+00
C     7.333991102099999e+00   3.008607713079769e+00   4.045977000000001e+00  1.61640235e+00   2.03425052e+00   1.11746543e+00
C     8.623941920400000e+00   2.428058066296263e+00   4.372837500000000e+00 -1.70556625e+00  -4.75796128e+00  -1.91118454e+00
C     9.873354285400000e+00   3.091229214511838e+00   4.387909500000000e+00 -1.45373122e+00   2.51948892e+00   2.02774650e-01
C     1.236190814920000e+01   4.429937876700336e+00   4.514244600000000e+00 -3.93020619e+00   1.45008530e-01  -1.66425548e+00
C     3.597867214300000e+00   5.106039563095671e+00   4.164798900000000e+00  4.85268394e+00  -9.93211960e-01  -8.31718760e-01
C     4.818166844700000e+00   4.411189198339924e+00   3.849409800000000e+00  2.40933145e+00   3.20165708e+00  -1.16762700e-02
C     6.165354864399999e+00   5.175415009910745e+00   3.720835500000000e+00 -3.20118531e+00  -1.62188103e+00   1.44889439e+00
C     7.368433462500000e+00   4.433679414922358e+00   4.057060200000000e+00 -1.17837923e+00   2.53636627e+00  -2.10743651e+00
C     8.555896236300001e+00   5.262628108058121e+00   4.063204500000000e+00  1.87642508e+00  -3.05133443e+00  -2.74238950e-01
C     9.855464153500000e+00   4.594948020748685e+00   4.251467400000000e+00 -5.36829470e-01  -2.08084157e+00   2.69974890e-01
C     1.111672296340000e+01   5.267641446501034e+00   4.232840700000000e+00 -1.48075769e+00  -3.33113900e+00   1.12718761e+00
C     1.353359704290000e+01   6.459255320968850e+00   4.066448100000000e+00  2.04540090e-01   5.56246863e+00  -3.25441450e-01
C     4.854746360100000e+00   7.337156794944777e+00   3.902719800000000e+00  9.82915710e-01  -3.21805289e+00   2.22554170e-01
C     6.050104183800000e+00   6.606275990078565e+00   3.716522700000000e+00  1.64803910e+00  -7.83861160e-01  -4.36549400e-02
C     7.278302512300000e+00   7.297863171979380e+00   3.681254700000000e+00  6.71101720e-01   2.65869436e+00   1.28814625e+00
C     8.543088293499999e+00   6.614152117175002e+00   3.729015300000000e+00 -4.20952880e-01   9.60196050e-01   7.17033610e-01
C     9.784054138799998e+00   7.313374540686614e+00   3.782905800000000e+00  2.24992891e+00  -1.12391181e+00   5.52871780e-01
C     1.104094699000000e+01   6.636444314104406e+00   3.997444199999999e+00  2.19169123e+00  -1.05599882e+00   4.83817700e-02
C     1.237613302330000e+01   7.200692819101381e+00   4.062853800000000e+00 -4.67242973e+00   4.42810086e+00   9.01993500e-02
