32
Lattice="9.86 0 0 4.93 8.53901048131456 0 0 0 30 " PBC="1 1 1" Properties=species:S:1:pos:R:3:force:R:3 Energy="-253.41050887"
C     1.322391056400000e+00   8.475934517386337e-01   3.977573100000000e+00 -5.89529282e+00   6.34126994e+00  -3.62283650e-01
C     2.435370798600000e+00   1.665456289128632e+00   4.038111000000000e+00  1.16911131e+00  -3.73365970e+00  -7.83773500e-01
C     3.628822487100000e+00   9.172681054809272e-01   3.943478400000000e+00  3.33358425e+00   1.81870446e+00  -3.86701700e-02
C     4.911873376000000e+00   1.606740516046266e+00   3.823149300000000e+00 -5.00286550e-01  -1.72757454e+00   9.15915440e-01
C     6.127390019000000e+00   7.551214332069408e-01   3.938320500000000e+00 -2.31682509e+00   6.03076580e+00  -5.07849080e-01
C     7.245201506299999e+00   1.602925029993487e+00   3.979297499999999e+00  3.47973115e+00  -1.30758298e+00  -2.63479690e-01
C     8.517661128300000e+00   8.968287884355800e-01   3.944432700000000e+00  1.95451669e+00  -4.26547690e-01  -1.11701700e+00
C     9.849396605300001e+00   1.556714296198662e+00   3.850377300000000e+00 -1.81450990e+00   1.46662111e+00   1.48779973e+00
C     2.392707860400000e+00   3.010848776380245e+00   3.898869600000000e+00  2.18204784e+00   2.41783979e+00  -3.89667130e-01
C     3.638910499600000e+00   3.728906293038326e+00   3.732793200000000e+00  1.84984376e+00   6.55094310e-01   1.24918913e+00
C     4.910671146199999e+00   3.032985136368387e+00   3.839543400000000e+00 -8.89371220e-01   3.53646230e-01   6.69918850e-01
C     6.096125832400000e+00   3.809125343871848e+00   4.128685500000000e+00 -7.13819820e-01  -9.37024000e-01  -2.37218820e+00
C     7.280522195500000e+00   3.011116132798374e+00   3.975843900000000e+00  9.73506030e-01   2.65807495e+00   9.59164540e-01
C     8.555362415899999e+00   3.782191511625727e+00   3.922137300000000e+00 -4.68006690e-01  -4.07808730e+00  -5.60933050e-01
C     9.783310842699999e+00   3.047313339783513e+00   3.910716000000000e+00  9.67651440e-01  -2.54203602e+00  -4.36042300e-02
C     1.105772604780000e+01   3.678979211102395e+00   3.938976000000000e+00 -2.69225884e+00   4.02098098e+00  -1.20832017e+00
C     3.763717935900000e+00   5.185459704108684e+00   3.806277000000001e+00 -6.17961690e+00  -2.47248894e+00  -3.16006440e-01
C     4.883188220299999e+00   5.928621740797756e+00   3.904397100000000e+00  1.10176932e+00   2.27126570e+00   5.63363540e-01
C     6.062549574399999e+00   5.263515567417307e+00   4.070071200000000e+00  4.01215119e+00  -2.87221020e+00   7.35868600e-02
C     7.372739373799999e+00   5.886205657870137e+00   4.037391900000000e+00 -2.62132403e+00   2.02752101e+00  -9.39475460e-01
C     8.564803119399999e+00   5.142929881561472e+00   3.782753400000000e+00 -5.68111400e-01   3.13214805e+00   2.55949598e+00
C     9.747488673900000e+00   5.924942964302762e+00   3.922233600000000e+00  3.03521161e+00  -2.50001992e+00  -1.22048204e+00
C     1.103451294560000e+01   5.168860123905879e+00   3.822493200000000e+00  2.24170740e-01  -8.67112140e-01   1.10240489e+00
C     1.231480229500000e+01   5.840869489528673e+00   3.854670600000000e+00 -6.36891290e-01   7.19915340e-01   9.60245990e-01
C     4.836968780099999e+00   7.364503829908025e+00   3.924453300000001e+00  1.07626351e+00  -9.55988730e-01  -7.62379580e-01
C     6.097640032599999e+00   8.086314327062171e+00   3.940542900000000e+00  3.46290590e-01  -5.53998656e+00   5.71393610e-01
C     7.297729620999999e+00   7.354489705367605e+00   4.016203800000000e+00  4.16447328e+00  -1.88689261e+00   6.03505400e-02
C     8.662814378800000e+00   8.074909795445294e+00   4.020687000000000e+00 -5.27939410e+00  -1.31206086e+00  -3.62135380e-01
C     9.830452488699999e+00   7.329393126616361e+00   3.986683500000000e+00 -1.85069572e+00  -1.89280036e+00  -3.89169380e-01
C     1.104624969800000e+01   7.940004701355127e+00   3.933035400000001e+00  1.30341110e+00  -1.47036500e-02   1.39646343e+00
C     1.226220210370000e+01   7.270929425123364e+00   4.088274000000000e+00  2.68435570e-01  -2.54300277e+00  -2.75160281e+00
C     1.344396348040000e+01   7.959594045297294e+00   3.858664200000000e+00  9.84234990e-01   3.69593129e+00   1.81974441e+00
