32
Lattice="9.86 0 0 4.93 8.53901048131456 0 0 0 30 " PBC="1 1 1" Properties=species:S:1:pos:R:3:force:R:3 Energy="-256.67054363"
C     1.282222057300000e+00   5.881831805922072e-01   3.353786400000000e+00 -1.04877801e+00  -2.24541646e+00   8.79530570e-01
C     2.494380285700000e+00   1.250974513621633e+00   3.369732000000000e+00  4.86501930e-01   1.31522001e+00  -5.44503350e-01
C     3.703810745100000e+00   5.897077355233065e-01   3.384176100000000e+00  1.95558764e+00  -3.13088091e+00   5.64758540e-01
C     4.955945061700000e+00   1.252081169379841e+00   3.373470000000000e+00 -2.68477880e-01   1.61205845e+00  -1.95498350e-01
C     6.170415460100000e+00   5.367913167985368e-01   3.365451600000000e+00  9.61323740e-01   8.15120710e-01   9.40662240e-01
C     7.399641940100000e+00   1.259476123235730e+00   3.528715800000000e+00  1.94657750e+00  -8.62167240e-01  -4.15573390e-01
C     8.695351787200000e+00   5.582581329749424e-01   3.559575600000000e+00 -1.09861186e+00   6.05272170e-01  -1.14171234e+00
C     9.930867566799998e+00   1.292359767204106e+00   3.382815900000000e+00 -2.19369076e+00  -4.27077170e-01   1.10793050e+00
C     2.518375187300000e+00   2.659514520394732e+00   3.267463800000000e+00 -1.20749709e+00   1.47262550e+00  -2.75391760e-01
C     3.719588766400000e+00   3.414521445471136e+00   3.223908000000000e+00  1.74731938e+00  -9.82377500e-01   8.76896980e-01
C     5.000669183599999e+00   2.705289337704554e+00   3.370403400000000e+00 -1.14348779e+00  -1.19444654e+00  -2.19571900e-01
C     6.252172854599999e+00   3.348454438266538e+00   3.491682000000000e+00 -1.92430438e+00   2.47732415e+00  -4.47610230e-01
C     7.465605241500000e+00   2.666379543260233e+00   3.528296100000000e+00 -5.27354200e-01   3.67684060e-01  -7.47906900e-02
C     8.672867832000000e+00   3.425934857658913e+00   3.443896500000000e+00 -8.89508270e-01   1.32910110e-01   2.92161720e-01
C     9.843703983599999e+00   2.703312898338853e+00   3.402564900000000e+00  3.71173042e+00  -1.35965200e-02  -1.02339458e+00
C     1.113059889210000e+01   3.383304104007828e+00   3.237756600000000e+00 -6.19067670e-01   5.63414620e-01   1.80296910e-01
C     3.730303332600000e+00   4.817534492320950e+00   3.253445100000000e+00  4.35168680e-01   1.85695211e+00  -4.44345300e-02
C     5.000858249099999e+00   5.566737281193888e+00   3.338602200000000e+00 -1.62985356e+00  -3.07096746e+00   5.86653460e-01
C     6.206241868699999e+00   4.811651882611174e+00   3.486532200000000e+00 -1.99233990e-01  -2.93946770e-01  -5.21168330e-01
C     7.397006707199999e+00   5.542353026696887e+00   3.506170500000000e+00  2.32030355e+00  -8.89000500e-02   1.78352620e-01
C     8.679839591499999e+00   4.856861332037115e+00   3.410708100000000e+00 -1.51350475e+00  -4.59227990e-01   1.88136460e-01
C     9.893889263700000e+00   5.564995493836179e+00   3.291892200000000e+00  5.39724830e-01  -1.67421454e+00   4.02499540e-01
C     1.111676871380000e+01   4.821186797883456e+00   3.164658900000000e+00  8.11241670e-01   1.27844960e-01   7.91296990e-01
C     1.236102370720000e+01   5.564570507284588e+00   3.239560200000000e+00 -4.54761750e-01  -1.16924582e+00  -4.06751360e-01
C     4.960574233100000e+00   6.946787733401516e+00   3.421707300000000e+00  2.08157090e-01   1.84458822e+00   1.14755520e-01
C     6.181601383599999e+00   7.672423194910073e+00   3.483915300000000e+00  1.16244175e+00   8.92446630e-01  -3.35485490e-01
C     7.439696859000000e+00   6.963142927124384e+00   3.551955600000000e+00 -6.76790750e-01   2.84714200e-01  -5.76871000e-01
C     8.693442201000000e+00   7.654116581122211e+00   3.499250100000000e+00 -9.94325290e-01   1.42698581e+00  -2.91275690e-01
C     9.933594941399999e+00   6.948914203181350e+00   3.435135300000000e+00 -1.68432156e+00   9.64474840e-01  -8.12041200e-01
C     1.113042737740000e+01   7.665076913413920e+00   3.335030100000000e+00 -7.32395830e-01   7.75192740e-01   3.28144180e-01
C     1.232128810440000e+01   6.984871634752212e+00   3.316393500000000e+00  3.18754827e+00  -4.43624680e-01   3.86573830e-01
C     1.359621050790000e+01   7.700680573780595e+00   3.458158800000000e+00 -6.67661050e-01  -1.47873964e+00  -4.92575860e-01
