32
Lattice="9.86 0 0 4.93 8.53901048131456 0 0 0 30 " PBC="1 1 1" Properties=species:S:1:pos:R:3:force:R:3 Energy="-256.45522077"
C     1.281574501800000e+00   1.384636413176016e-01   3.688818600000000e+00 -1.75496341e+00   9.20126200e-02   9.94917700e-02
C     2.490956252800000e+00   8.262061337497968e-01   3.624255000000000e+00  1.84372914e+00  -6.54948800e-01  -9.54583200e-02
C     3.753916553600000e+00   5.685495191856480e-02   3.653349900000000e+00 -1.28006012e+00   2.15756054e+00  -9.70550600e-02
C     4.941416844699999e+00   8.106474589245032e-01   3.553724700000000e+00  1.00551307e+00   4.93414060e-01  -2.61412580e-01
C     6.184391467799999e+00   9.320739811423040e-02   3.543572700000000e+00  4.96731940e-01   1.47471503e+00  -8.27236400e-02
C     7.444559958899999e+00   7.860938758496824e-01   3.630094800000000e+00 -9.96812980e-01   1.60323482e+00  -5.01163210e-01
C     8.665433885000001e+00   1.073582462816864e-01   3.657080100000000e+00  8.72876630e-01  -1.54266540e+00  -6.30846280e-01
C     9.885508165100001e+00   8.211849394172425e-01   3.626765400000000e+00  8.00309430e-01   2.09858423e+00   1.60625900e-02
C     2.508557979700000e+00   2.227932095549960e+00   3.418054500000000e+00 -5.67405890e-01   1.18661920e-01  -5.49069620e-01
C     3.725500428000000e+00   2.926986300555117e+00   3.274060200000000e+00  6.81317950e-01   2.08469587e+00   6.48978980e-01
C     4.953921000899999e+00   2.255397651978671e+00   3.422805300000000e+00  8.13368320e-01  -1.20870525e+00   8.16161920e-01
C     6.226745492200000e+00   2.956660045093956e+00   3.589305000000000e+00 -1.62450340e+00  -1.49840696e+00  -1.18236904e+00
C     7.458205163600000e+00   2.255045759356790e+00   3.574393800000000e+00 -1.42419310e+00  -2.28943641e+00   7.98529980e-01
C     8.639795617199999e+00   2.956780445141723e+00   3.523675800000000e+00  2.16729635e+00   9.50660530e-01  -7.16148050e-01
C     9.912860840399999e+00   2.306610111162157e+00   3.493040700000000e+00 -1.25247002e+00  -3.17746888e+00   2.10237630e-01
C     1.113271041110000e+01   2.946683662979857e+00   3.317415900000000e+00  6.10122980e-01   2.23493175e+00  -1.17463080e-01
C     3.751432326600000e+00   4.410503430408275e+00   3.252235200000000e+00 -1.21862588e+00  -1.42808375e+00   5.24529300e-01
C     4.961018475400000e+00   5.072575266414656e+00   3.468840300000000e+00  1.43527064e+00  -3.14626260e-01   3.27262160e-01
C     6.186122785200000e+00   4.333035990311829e+00   3.591930600000000e+00  7.79088600e-01   1.99830746e+00  -1.81835400e-02
C     7.432969528899999e+00   5.071098615332350e+00   3.646250400000000e+00 -1.06235090e+00   8.59315760e-01  -3.61877440e-01
C     8.642209690300000e+00   4.369096146178764e+00   3.421180800000000e+00  5.38385120e-01   1.41922493e+00   1.03433605e+00
C     9.882714777800000e+00   5.128189500110476e+00   3.325275600000000e+00  7.21832230e-01  -2.34856496e+00  -4.02316070e-01
C     1.113192777360000e+01   4.425746759576542e+00   3.158894700000000e+00  2.40648100e-02  -1.25704593e+00   1.28221704e+00
C     1.237816995140000e+01   5.149669893313545e+00   3.257631600000000e+00 -6.15224790e-01  -1.65208308e+00  -8.23711070e-01
C     5.011221306300000e+00   6.477930136888610e+00   3.613011300000000e+00 -1.48746129e+00   1.37135430e+00  -3.17459790e-01
C     6.177030435500000e+00   7.279856106679156e+00   3.759110700000000e+00  1.86836683e+00  -2.76150488e+00  -1.40109290e-01
C     7.412508352700000e+00   6.519458418896623e+00   3.762734700000000e+00  1.25789085e+00  -2.18869220e-01  -3.69300840e-01
C     8.709678268599999e+00   7.196609720460160e+00   3.711863100000000e+00 -1.56427965e+00  -4.20580360e-01  -6.28487930e-01
C     9.939561868300000e+00   6.510643769158329e+00   3.449566500000000e+00 -2.00452580e+00   6.18540120e-01   1.89090280e-01
C     1.112134192970000e+01   7.252254779983814e+00   3.356634600000000e+00  1.25725434e+00  -7.00370170e-01   9.48908400e-01
C     1.236953929620000e+01   6.549758158293750e+00   3.350031000000000e+00  7.64374510e-01  -1.13923190e-01   1.46498000e-03
C     1.363903746720000e+01   7.178102439926018e+00   3.522138300000000e+00 -1.08491650e+00   2.01206956e+00   3.97883780e-01
