32
Lattice="9.86 0 0 4.93 8.53901048131456 0 0 0 30 " PBC="1 1 1" Properties=species:S:1:pos:R:3:force:R:3 Energy="-256.62252646"
C     9.864062960900000e+00   1.205184838433576e-01   3.876962100000000e+00 -2.06200102e+00  -9.19882570e-01  -2.17944300e-01
C     1.205013228700000e+00   7.857634161441064e-01   3.846187800000000e+00  8.62974400e-02   2.92970993e+00  -2.10473950e-01
C     2.410080539500000e+00   1.335990524372504e-01   3.835054500000000e+00  2.23198995e+00  -1.20453394e+00  -1.57490500e-02
C     3.653010201000000e+00   8.511361164065760e-01   3.805839000000000e+00  3.17869790e-01  -3.30842860e-01   3.83727850e-01
C     4.870729765199999e+00   8.650239630512480e-02   3.853565400000000e+00  2.27973900e-01   9.40036560e-01  -2.91754580e-01
C     6.084386417799999e+00   8.103563640572400e-01   3.853124100000000e+00  2.31302036e+00   3.81669540e-01  -3.92410530e-01
C     7.369958163600000e+00   1.157254518708288e-01   3.803000700000000e+00 -2.56618250e-01   1.64848157e+00  -3.69143890e-01
C     8.652417748299998e+00   8.509579072578584e-01   3.755651100000000e+00 -2.71566856e+00  -8.51850920e-01   9.33247060e-01
C     1.104624545820000e+01   2.241130075537954e+00   3.763520400000000e+00  6.13857410e-01  -2.54239090e-01  -6.30161000e-03
C     2.400059722900000e+00   2.988824533599705e+00   3.659174100000000e+00  2.04836360e+00  -1.45848723e+00   9.20849890e-01
C     3.717096404899999e+00   2.294092519529210e+00   3.808641600000000e+00 -3.53555823e+00  -1.98554578e+00  -3.94698380e-01
C     4.921555255099999e+00   2.937247373278618e+00   3.935197200000000e+00  2.33872640e-01   1.80869030e+00  -1.19177609e+00
C     6.139524178699999e+00   2.230891375021909e+00   3.829787400000000e+00  3.82027530e-01   9.59891630e-01   9.27809540e-01
C     7.389439650200000e+00   3.010418410252053e+00   3.829019400000000e+00 -1.73556072e+00  -2.37667296e+00  -4.80944620e-01
C     8.571724198500000e+00   2.270262361422255e+00   3.794659800000000e+00  1.60241667e+00  -6.75647510e-01   8.45946700e-02
C     9.818111318300000e+00   2.949289085857515e+00   3.821288400000000e+00  7.36451800e-02  -1.47813570e-01  -8.61353860e-01
C     1.230018035870000e+01   4.390062832511356e+00   3.643672500000000e+00  4.21006960e-01   6.13924910e-01   5.35852980e-01
C     3.705334854600000e+00   5.115901693249548e+00   3.720915600000000e+00 -2.12625610e+00  -1.02843960e-01   3.56136640e-01
C     4.887861416600000e+00   4.384075876093513e+00   3.874249200000000e+00  5.69462750e-01  -6.20756260e-01  -2.17827400e-02
C     6.100677898599999e+00   5.067316260640234e+00   3.902746500000000e+00  1.87394263e+00   1.94424269e+00  -6.30237310e-01
C     7.377916711899999e+00   4.408141625499613e+00   3.805046700000000e+00 -1.50257368e+00  -3.61287900e-02   1.04000289e+00
C     8.579377086799999e+00   5.113449631000110e+00   3.855802200000000e+00  1.64532354e+00  -3.13004220e-01  -5.31446620e-01
C     9.813658000000000e+00   4.343404739957483e+00   3.755033700000000e+00  8.04615980e-01   2.46082080e+00   9.09363110e-01
C     1.108281092310000e+01   5.078363263888314e+00   3.761642400000000e+00 -1.56124508e+00   4.81959550e-01  -3.34091860e-01
C     1.351097549140000e+01   6.550437009626910e+00   3.779093100000000e+00 -2.69604420e-01  -8.23930750e-01   6.27568000e-02
C     4.870033353400000e+00   7.225969058633125e+00   3.926574300000000e+00  1.82359260e+00   5.51260940e-01  -9.45575100e-01
C     6.142622387899999e+00   6.513385986983875e+00   3.869724300000001e+00 -8.89500800e-01  -3.12947270e-01   6.99602900e-01
C     7.392973129100000e+00   7.232825969438669e+00   3.870578700000000e+00 -1.20858818e+00   4.15487250e-01   5.64818200e-02
C     8.621813442200001e+00   6.539511858058379e+00   3.896614200000000e+00 -6.30533090e-01  -1.26701061e+00  -6.05833180e-01
C     9.858548164300000e+00   7.200142052925422e+00   3.822689100000000e+00 -1.78434947e+00   1.43871088e+00   8.25569780e-01
C     1.105449295380000e+01   6.520019688055473e+00   3.837403500000000e+00  8.99910690e-01  -1.09147021e+00  -9.05957740e-01
C     1.224626459690000e+01   7.272981520121917e+00   3.746917500000000e+00  2.10886796e+00  -1.80127805e+00   6.71479440e-01
