32
Lattice="9.86 0 0 4.93 8.53901048131456 0 0 0 30 " PBC="1 1 1" Properties=species:S:1:pos:R:3:force:R:3 Energy="-257.36601596"
C     9.837750515599998e+00   2.364586918277584e-01   3.690693300000000e+00 -1.79527950e-01   6.60292660e-01   7.36936090e-01
C     1.220452953400000e+00   9.273327809633888e-01   3.701853600000000e+00  1.51208980e-01  -3.85498900e-02   1.38137800e-01
C     2.453379349100000e+00   2.018498261820040e-01   3.832911900000000e+00  1.37068970e-01   1.74817820e+00   7.65637000e-03
C     3.662864038500000e+00   9.846118655324951e-01   3.823261800000000e+00  6.56523110e-01  -1.95586269e+00  -2.38325860e-01
C     4.910041634499999e+00   2.459615004206360e-01   3.802740000000000e+00 -1.16208216e+00  -6.41257430e-01   7.10862040e-01
C     6.127281312500000e+00   9.299584412958840e-01   3.838232400000000e+00  1.02742229e+00   3.70632160e-01  -5.78150470e-01
C     7.373289857600000e+00   2.287044164108704e-01   3.813189300000000e+00 -2.10551660e-01   2.38143840e-01   2.21902680e-01
C     8.588387351999998e+00   9.470087104718240e-01   3.712005600000000e+00  4.51140580e-01   5.80090900e-01   4.24793360e-01
C     1.107720403410000e+01   2.350350936175643e+00   3.656642400000000e+00  1.25894304e+00   4.85603130e-01   2.96130390e-01
C     2.462845639300000e+00   3.115049381976532e+00   3.690250200000000e+00 -8.03248210e-01  -1.64307246e+00   7.84310700e-02
C     3.692500388400000e+00   2.392671894526514e+00   3.768970500000000e+00 -1.16017645e+00  -2.20012790e-01   1.22792100e-02
C     4.915578961200000e+00   3.064398448122212e+00   3.815392500000000e+00  7.21276510e-01   9.35466960e-01  -1.64753750e-01
C     6.138173358700000e+00   2.339458574407355e+00   3.795974400000000e+00  6.10796330e-01   1.60415596e+00   2.85555300e-01
C     7.381768866000000e+00   3.112521749484347e+00   3.785406000000000e+00 -1.13183321e+00  -1.73061063e+00   4.55965680e-01
C     8.590805073300000e+00   2.395278939816162e+00   3.762596100000000e+00  8.40368730e-01  -1.29884161e+00  -5.48779490e-01
C     9.858230968099999e+00   3.057250186279089e+00   3.711402300000000e+00 -6.91064520e-01  -1.32432220e-01  -3.89711710e-01
C     1.231268811380000e+01   4.519082413628182e+00   3.701390700000000e+00 -7.82470800e-02  -4.02802610e-01   1.71338090e-01
C     3.682774139300000e+00   5.207149815409141e+00   3.769624200000000e+00  3.09662630e-01   1.41783714e+00   2.95864090e-01
C     4.910960685100000e+00   4.507616998866582e+00   3.839186400000000e+00  1.16848800e-01  -6.12488110e-01  -6.45026440e-01
C     6.129651015599999e+00   5.223313906077466e+00   3.824097000000000e+00  5.43477340e-01   7.03017580e-01   9.05819740e-01
C     7.376192444399999e+00   4.512060272969849e+00   3.872706600000000e+00 -6.80322520e-01   2.65633180e-01  -8.68641740e-01
C     8.603290446199999e+00   5.189091259875724e+00   3.802876200000000e+00  1.31360578e+00   6.67771010e-01   4.04881580e-01
C     9.864650961999999e+00   4.460715886074448e+00   3.688427100000000e+00 -1.09493501e+00   1.45358910e+00   6.24957890e-01
C     1.107596394190000e+01   5.189475429957218e+00   3.713720700000000e+00  4.01994300e-02   1.79790384e+00  -2.78386720e-01
C     1.354977538020000e+01   6.651156687601025e+00   3.808185000000000e+00  2.21919100e-02  -5.72547920e-01   4.24498150e-01
C     4.930720420900000e+00   7.375277840991060e+00   3.837350700000000e+00 -1.04186354e+00  -6.18389290e-01  -6.29134680e-01
C     6.146678644000000e+00   6.667870092813530e+00   3.871686000000000e+00  5.34854400e-01  -1.46080764e+00   1.67410370e-01
C     7.407515051499999e+00   7.333828630220093e+00   3.954426300000000e+00 -1.07591268e+00   3.86761810e-01  -8.14348660e-01
C     8.616300568300000e+00   6.625147117849260e+00   3.908355000000000e+00  9.32482270e-01  -8.42325710e-01  -5.42672400e-01
C     9.852813045999998e+00   7.338892519605047e+00   3.824122200000000e+00 -5.63343430e-01   8.55700190e-01  -8.61658200e-02
C     1.108673939360000e+01   6.657427907677747e+00   3.751285200000000e+00 -6.02617000e-01  -1.85252804e+00   7.84854250e-01
C     1.230443090610000e+01   7.353724695418701e+00   3.881469600000000e+00  8.07654360e-01  -1.48248600e-01  -1.36417643e+00
