32
Lattice="9.86 0 0 4.93 8.53901048131456 0 0 0 30 " PBC="1 1 1" Properties=species:S:1:pos:R:3:force:R:3 Energy="-257.00159704"
C     4.967844602699999e+00   7.735081002180531e+00  -1.945526999999991e-01  1.32020454e+00   7.27397530e-01  -2.79752980e-01
C     6.236758667300000e+00   8.451175741889681e+00  -2.122175999999989e-01 -1.39569352e+00   4.61189280e-01   8.40366570e-01
C     7.467343510199999e+00   7.758163740700173e+00  -2.626361999999993e-01 -1.81635798e+00  -9.53803150e-01  -5.38656090e-01
C     8.640756769999999e+00   8.480362165100425e+00  -2.245130999999994e-01  1.68031621e+00  -8.99559630e-01   3.00451280e-01
C     9.868824847900001e+00   7.748620457197620e+00  -2.080380000000019e-01  1.36780728e+00   7.22141100e-02   2.06765390e-01
C     1.110850706910000e+01   8.456780748368752e+00  -2.017334999999996e-01  5.69338570e-01   6.94182650e-01   1.73876440e-01
C     1.236407843380000e+01   7.759907748200608e+00  -1.388856000000018e-01 -7.50160800e-01  -3.98519290e-01  -1.55615720e-01
C     1.360814855220000e+01   8.457612021038981e+00  -1.776446999999983e-01 -4.51203210e-01   6.59266050e-01   1.48333560e-01
C     1.286318542200000e+00   1.330975051176971e+00   1.627470000000000e-02  3.04410950e-01   2.75615260e-01  -8.51055840e-01
C     2.526838715500000e+00   2.073817814264196e+00   5.949660000000000e-02 -1.06321867e+00  -4.06791180e-01   3.25804970e-01
C     3.716411923700000e+00   1.327206017341204e+00  -8.625209999999939e-02  1.09065676e+00   1.72712045e+00   5.78771900e-02
C     4.967578481299999e+00   2.042462909342055e+00  -1.225449000000012e-01 -3.04753870e-01   1.03387070e+00  -2.08030180e-01
C     6.186982330699999e+00   1.357878484545783e+00  -2.217365999999998e-01  1.50581097e+00  -1.96742320e-01   1.87991610e-01
C     7.469288641700000e+00   2.105512059462812e+00  -2.158605000000016e-01 -1.82827810e+00  -1.33997568e+00  -3.03742680e-01
C     8.693944814500000e+00   1.375892893395020e+00  -1.736634000000024e-01 -8.36871250e-01  -1.23561020e+00   1.89297360e-01
C     9.908825290299998e+00   2.042737694699302e+00  -3.078570000000269e-02  8.07422130e-01   1.29018391e+00   3.90520070e-01
C     2.518903781900000e+00   3.501189583969678e+00   1.996041000000000e-01 -4.99047850e-01  -3.94403200e-01  -8.92005660e-01
C     3.747154910700000e+00   4.216438107740259e+00   5.937600000000000e-02  1.25075200e-02   8.31349900e-02  -7.11490970e-01
C     4.980090377600000e+00   3.496459569894491e+00  -1.308888000000010e-01 -1.97441585e+00  -1.00116266e+00   3.95316260e-01
C     6.153580644000000e+00   4.203529429427328e+00  -3.192333000000005e-01  2.68140878e+00  -2.37081260e-01   5.39855500e-02
C     7.414991544399999e+00   3.513392086115912e+00  -2.906241000000023e-01  1.01526891e+00  -3.11292510e-01   3.43351870e-01
C     8.680463975999999e+00   4.205166016175925e+00  -1.816451999999984e-01 -4.39306410e-01  -1.50376520e-01   1.63902600e-02
C     9.905706720200000e+00   3.501650946705912e+00   4.490970000000000e-02 -1.22930186e+00  -1.66732330e+00  -7.34809860e-01
C     1.110242798470000e+01   4.191495999688597e+00   1.310862000000000e-01  2.39095618e+00   4.58539460e-01   2.71586120e-01
C     3.739431523400000e+00   5.648795549494698e+00  -9.388799999999975e-02  1.32543860e-01  -1.24814956e+00   7.49054840e-01
C     4.996168980999999e+00   6.320014885867884e+00  -2.130486000000005e-01 -4.93967090e-01   2.06073600e-01  -4.89062840e-01
C     6.236936393799999e+00   5.602553904481934e+00  -3.736362000000000e-01 -1.11664450e+00   1.47359813e+00   5.79473940e-01
C     7.467712175599999e+00   6.337999578960649e+00  -3.907559999999997e-01  4.93225060e-01  -8.38406860e-01   6.67354220e-01
C     8.719938485999998e+00   5.616069108709259e+00  -2.520188999999995e-01 -1.22856621e+00   2.78774020e-01   2.72591400e-02
C     9.937899718799999e+00   6.318394352458989e+00  -1.112738999999969e-01 -1.05743579e+00   8.19689790e-01  -4.42422120e-01
C     1.115563180520000e+01   5.612806523585061e+00   3.317490000000000e-02 -1.65612109e+00  -4.35475100e-01  -4.84715900e-02
C     1.233323965690000e+01   6.321115137368230e+00  -3.509280000000103e-02  2.76946632e+00   1.45382249e+00  -2.69940120e-01
