32
Lattice="9.86 0 0 4.93 8.53901048131456 0 0 0 30 " PBC="1 1 1" Properties=species:S:1:pos:R:3:force:R:3 Energy="-254.704592"
C     4.945163447500001e+00   8.429091128305048e+00  -2.979318000000006e-01 -7.51951230e-01   3.10300970e+00   1.27968976e+00
C     1.245647619800000e+00   5.817223090927248e-01  -2.740253999999993e-01  1.37173462e+00   2.67181512e+00   8.80583200e-02
C     7.454801590200000e+00   8.468886759696563e+00  -2.812608000000019e-01 -3.83918795e+00  -3.68886428e+00   1.10720258e+00
C     3.665817009900000e+00   5.860801930911927e-01  -8.773530000000207e-02  3.81765242e+00   4.21507853e+00  -2.78638371e+00
C     9.856621963999999e+00   8.471084359433696e+00  -3.002096999999999e-01  8.05837110e-01  -8.59284620e-01   8.00928190e-01
C     6.158841792099999e+00   6.672995036123416e-01  -3.705503999999991e-01 -4.53657180e-01  -2.55348162e+00   1.87285303e+00
C     1.231253439640000e+01   8.533905688754846e+00  -1.178987999999990e-01  3.73996280e-01  -2.18165996e+00  -2.31479353e+00
C     8.609824569599999e+00   6.666765827978256e-01  -1.256012999999996e-01  1.84204723e+00  -9.64650500e-02  -1.70534024e+00
C     1.300056529500000e+00   2.063405515665094e+00  -2.198925000000003e-01 -2.00238596e+00  -9.57826060e-01   3.95993300e-02
C     2.489176079100000e+00   2.834988453275379e+00  -2.456759999999996e-01  1.87411140e-01  -3.07362783e+00  -4.44821300e-02
C     3.706204161500000e+00   2.102491299115407e+00  -2.695562999999979e-01 -5.42118100e-01  -2.61542953e+00   1.33704011e+00
C     4.930306153000000e+00   2.747269674927378e+00  -2.498039999999975e-01  1.14273290e-01   1.71613595e+00  -1.43955760e-01
C     6.163773616200000e+00   2.006827142295976e+00  -2.871470999999985e-01  2.14440530e-01   4.90945978e+00   4.57926350e-01
C     7.392457401800000e+00   2.777617318173298e+00  -1.737893999999969e-01  8.27055370e-01   8.21457250e-01  -1.21327993e+00
C     8.652714534299999e+00   2.101210618323617e+00  -2.815317000000022e-01 -7.81128150e-01  -1.52038350e+00   2.13159584e+00
C     9.898309304500000e+00   2.768809755813701e+00  -1.731104999999999e-01  1.25601200e-02   3.38626630e-01  -1.42565113e+00
C     2.460579811300000e+00   4.204884826560818e+00  -2.685572999999977e-01  1.60628796e+00   1.31063267e+00   2.42468600e-01
C     3.683845329700000e+00   4.949662444032706e+00  -2.397540000000014e-01 -3.04864690e-01  -6.47921630e-01  -9.59469710e-01
C     4.882544017199999e+00   4.217158544054456e+00  -2.091948000000023e-01  2.34552636e+00  -1.02693840e+00  -7.93784860e-01
C     6.150558258199999e+00   4.906217751902667e+00  -2.953653000000003e-01  3.13124720e-01   9.69235550e-01   2.23375638e+00
C     7.420474148100000e+00   4.241575417571492e+00  -1.983536999999984e-01 -8.60807340e-01  -9.59492900e-01  -5.73380910e-01
C     8.674692375699999e+00   4.995078708292472e+00  -2.544743999999994e-01 -9.22565360e-01  -5.45881392e+00  -2.94778950e-01
C     9.861724070299999e+00   4.181803198112540e+00  -2.947247999999973e-01  1.31348240e+00   1.40982804e+00   9.57689520e-01
C     1.113396199020000e+01   4.890499995312132e+00  -2.723342999999971e-01 -2.52819743e+00  -3.81289200e-01  -9.07358600e-02
C     3.689298797100000e+00   6.357302780661633e+00  -4.230680999999983e-01  2.13221897e+00   8.36157330e-01   2.10261094e+00
C     5.000304363600000e+00   7.068335680348342e+00  -2.453177999999987e-01 -2.68745585e+00  -2.18639223e+00  -5.02881550e-01
C     6.200067191600000e+00   6.356531964185604e+00  -8.888040000000075e-02  4.73698720e-01  -2.06965465e+00  -2.42453323e+00
C     7.474378225800000e+00   6.972564188167178e+00  -2.193801000000022e-01 -2.64877392e+00   4.13912502e+00  -1.83112770e-01
C     8.667162244400000e+00   6.342616963487605e+00  -3.542735999999991e-01  2.54074566e+00   9.82663860e-01   1.30391553e+00
C     9.944157367800001e+00   7.035884366480570e+00  -2.671409999999987e-01 -2.22546384e+00   4.88645740e-01  -5.43041000e-01
C     1.112617756950000e+01   6.276279696601314e+00  -2.201786999999982e-01  1.13029980e+00   3.27913113e+00  -1.24601214e+00
C     1.235116587640000e+01   7.090973280251661e+00  -3.351645000000012e-01 -8.73835700e-01  -9.13476940e-01   1.29028291e+00
