32
Lattice="9.824 0 0 4.912 8.50783356677833 0 0 0 30 " PBC="1 1 1" Properties=species:S:1:pos:R:3:force:R:3 Energy="-258.05583198"
C     4.315963564767245e-04  -1.118186880509565e-03   2.999615153819765e+00 -1.31230600e-02   6.03364000e-02   1.52221600e-02
C     1.228353712449561e+00   7.084561576897666e-01   3.001103573653133e+00 -3.26493500e-02   3.45128400e-02  -1.08411300e-02
C     2.455159237934508e+00  -2.751384042896957e-04   3.000221024469417e+00  5.26283400e-02  -1.18976100e-02   4.24817000e-03
C     3.683970026463464e+00   7.081863179209356e-01   2.999307856370266e+00 -1.31707100e-02   1.87051100e-02   1.41627800e-02
C     4.912360407056568e+00  -6.144140591464262e-04   2.999779569053866e+00 -4.57167400e-02   7.94957000e-03  -8.95173000e-03
C     6.138889214523040e+00   7.085527651799247e-01   2.999489647519392e+00  6.66226900e-02   5.97150000e-03   6.12177000e-03
C     7.367865928195205e+00  -1.079965077376315e-03   3.000625391890361e+00  1.15592000e-03   9.14369800e-02  -7.65685000e-03
C     8.596561713799563e+00   7.091451834303678e-01   3.000525882147132e+00 -2.00632800e-02  -6.74062600e-02  -1.03587000e-02
C     1.228202266533831e+00   2.127300117357581e+00   3.000725008077331e+00  3.04000700e-02  -3.53702200e-02  -9.87037000e-03
C     2.456907468815125e+00   2.835576102361532e+00   2.999528201730269e+00 -3.97782800e-02  -2.20157000e-03   1.36224400e-02
C     3.684254745984290e+00   2.126644387621521e+00   3.000893430515251e+00  1.59127500e-02  -2.90336200e-02  -1.43089000e-02
C     4.912519673439291e+00   2.835755476129926e+00   3.000926302351813e+00 -6.10339700e-02   7.24481000e-03  -1.26907000e-02
C     6.138818917474264e+00   2.126854191429201e+00   2.999187343472741e+00  9.74142700e-02  -2.05085300e-02   1.92299700e-02
C     7.368842100332445e+00   2.835022185727414e+00   3.000596612848848e+00 -5.52746000e-02   1.33482000e-02  -2.33464400e-02
C     8.596853708192794e+00   2.126158682253990e+00   2.999438590200710e+00 -3.59879000e-03   3.68923900e-02   1.12744500e-02
C     9.825035015219060e+00   2.836311810124584e+00   2.999550170869872e+00 -4.10470100e-02  -1.88842500e-02   1.10222600e-02
C     2.455791332604530e+00   4.253092595693255e+00   2.999254380575918e+00  7.21750000e-04   6.26748900e-02   1.31723700e-02
C     3.683256298743030e+00   4.963768857574932e+00   3.000464121496726e+00  1.40657600e-02  -7.48133400e-02  -1.60127900e-02
C     4.911022987502642e+00   4.253491223145785e+00   3.000197905899090e+00  1.28879000e-02   2.64022800e-02   9.75254000e-03
C     6.138801283442827e+00   4.962209664547657e+00   3.000487474906627e+00  3.22762000e-02   2.00189000e-02  -8.75104000e-03
C     7.367446260055114e+00   4.253614605991890e+00   2.998874304629265e+00 -1.49633700e-02  -3.64607000e-02   1.65916800e-02
C     8.594954264820899e+00   4.962297068924083e+00   2.998842227692973e+00  1.78416500e-02   2.75037300e-02   6.49339000e-03
C     9.823200541187491e+00   4.253827585423132e+00   3.000746827541489e+00  5.42419400e-02   3.67652800e-02  -1.87176300e-02
C     1.105237343015461e+01   4.963895127030701e+00   3.000336645948948e+00 -4.27810700e-02  -7.40819000e-02  -8.72692000e-03
C     3.684086424341154e+00   6.380422007729342e+00   2.999046962529202e+00 -7.64627000e-03   5.19159200e-02   1.65058200e-02
C     4.912427596472583e+00   7.089862286401342e+00   2.999958452847232e+00 -2.20575300e-02  -3.77000300e-02  -1.31864000e-03
C     6.140247756474295e+00   6.380912709487511e+00   3.000952175111158e+00 -4.51494000e-02  -4.96608700e-02  -3.45845000e-03
C     7.367087152720204e+00   7.089146091344188e+00   3.000960889157397e+00  3.47219800e-02   3.22252700e-02  -1.44483900e-02
C     8.594786734513868e+00   6.380512988494959e+00   2.998787803778344e+00  6.75612400e-02   9.12761000e-03   1.03924800e-02
C     9.824469283497168e+00   7.089945234679602e+00   2.999103687149514e+00 -6.00923700e-02  -4.40960400e-02   1.35874000e-03
C     1.105237063571328e+01   6.381321274741287e+00   2.999234272627788e+00 -1.89049700e-02  -1.06103600e-02   8.43367000e-03
C     1.227975551591195e+01   7.090119260803088e+00   3.000071089525991e+00  3.85983100e-02  -3.03063700e-02  -8.14601000e-03
