32
Lattice="9.86 0 0 4.93 8.53901048131456 0 0 0 30 " PBC="1 1 1" Properties=species:S:1:pos:R:3:force:R:3 Energy="-256.32494491"
C     9.822540430299998e+00   3.004113546474040e-01   3.559852200000000e+00  3.14571500e-01   9.33338700e-02   2.99528800e-02
C     1.209249725600000e+00   1.001219643185361e+00   3.573672300000000e+00 -4.49717480e-01   2.45193122e+00  -3.69952200e-01
C     2.451678597700000e+00   3.318721432994968e-01   3.392261400000000e+00 -1.89857126e+00  -5.84937790e-01   6.50320430e-01
C     3.640954970600000e+00   1.057263730668746e+00   3.525123300000000e+00  1.60043637e+00  -5.67357720e-01  -8.34025530e-01
C     4.891045802199999e+00   3.722226395920032e-01   3.447452400000000e+00  7.62279940e-01  -2.70641859e+00   3.85050240e-01
C     6.160969678700000e+00   1.007822091478602e+00   3.448843500000000e+00 -1.44234361e+00   1.54157866e+00  -6.66453900e-02
C     7.388477314199999e+00   3.189023256715296e-01   3.442155000000000e+00 -5.98591010e-01   8.58493550e-01   1.14033605e+00
C     8.583952028199999e+00   1.019166252291387e+00   3.643227900000000e+00  1.45758840e+00   1.51785520e+00  -1.47656688e+00
C     1.106176361920000e+01   2.512966229344771e+00   3.659976300000000e+00  7.95860390e-01  -2.84063660e+00   1.37834350e-01
C     2.461338784800000e+00   3.196801612141738e+00   3.705684300000000e+00 -1.30140156e+00  -1.55349836e+00  -5.84062940e-01
C     3.684462417800000e+00   2.463028559035845e+00   3.572388000000000e+00 -1.89595426e+00  -2.23664050e-01   2.16956350e-01
C     4.881949409899999e+00   3.113877488178257e+00   3.432132000000000e+00  2.07629070e+00   2.64225930e+00   7.13124140e-01
C     6.123684088699999e+00   2.421761997699044e+00   3.457711500000000e+00  1.68459157e+00   1.38965592e+00  -7.28682880e-01
C     7.406444156900000e+00   3.198847986003270e+00   3.428941800000000e+00 -2.57656108e+00  -5.57258550e-01   8.28308900e-01
C     8.594149092300000e+00   2.480583996071782e+00   3.570837000000000e+00  9.75875050e-01  -8.25611930e-01   2.01211100e-01
C     9.838755348199999e+00   3.217049313791914e+00   3.635308800000000e+00 -2.91697650e-01  -1.82337670e+00   5.39893820e-01
C     1.226657954930000e+01   4.574292666738194e+00   3.692538600000000e+00  2.45449554e+00   1.82351820e+00   1.98887400e-02
C     3.666377205799999e+00   5.305153490319883e+00   3.619667100000000e+00 -4.43876800e-01  -1.12916595e+00  -8.75092800e-01
C     4.902438391299999e+00   4.598806116463758e+00   3.440781600000000e+00 -1.51223651e+00  -1.43832685e+00   3.74271970e-01
C     6.082134295199999e+00   5.324088233718655e+00   3.342118500000000e+00  2.72157795e+00  -9.67833460e-01   4.02595570e-01
C     7.368675821300000e+00   4.632507199905385e+00   3.442761900000000e+00 -4.25167280e-01  -6.36548700e-01  -6.76035330e-01
C     8.597741681899999e+00   5.349040332412576e+00   3.501533400000000e+00  1.41719520e-01  -1.12118983e+00  -1.81493820e-01
C     9.862472148500000e+00   4.599399577692119e+00   3.692486400000000e+00 -2.27429566e+00   2.07431705e+00  -1.07976897e+00
C     1.107513239880000e+01   5.305708867561502e+00   3.665781300000000e+00 -3.26694420e-01  -4.18664860e-01   7.63321600e-02
C     1.352832588690000e+01   6.700897362938178e+00   3.527388600000000e+00 -4.37677070e-01   1.71517681e+00   2.22372110e-01
C     4.904100639399999e+00   7.403604727406888e+00   3.437095800000000e+00 -8.45984040e-01   1.30942663e+00   4.04440680e-01
C     6.127609453300000e+00   6.729548475581932e+00   3.338019900000000e+00 -9.95978980e-01  -1.04038650e-01  -3.30811830e-01
C     7.327088658400000e+00   7.438033846882039e+00   3.251384700000000e+00  1.40626804e+00   1.12825676e+00   6.11872930e-01
C     8.549913977099999e+00   6.749540690038547e+00   3.310111200000000e+00  2.77378008e+00  -9.83729100e-02   1.42491939e+00
C     9.851189596999998e+00   7.436360542388378e+00   3.492715200000000e+00 -2.18715605e+00   9.26223520e-01  -1.25518074e+00
C     1.106471530880000e+01   6.699392703901498e+00   3.543414900000000e+00  5.22781930e-01   2.72695684e+00   2.71437240e-01
C     1.229759284820000e+01   7.495714691894229e+00   3.530391900000000e+00  2.15787740e-01  -4.60208202e+00  -1.92799760e-01
