32
Lattice="9.86 0 0 4.93 8.53901048131456 0 0 0 30 " PBC="1 1 1" Properties=species:S:1:pos:R:3:force:R:3 Energy="-257.37184284"
C     5.141830465200000e+00   6.682446696043518e+00  -2.370021000000015e-01  3.87480560e-01  -8.59704300e-02  -1.49779530e-01
C     6.383488383900000e+00   7.371494717788001e+00  -3.160026000000009e-01  2.26500930e-01  -9.12457800e-02   5.86712480e-01
C     7.623271423599999e+00   6.632191716105154e+00  -2.375772000000005e-01 -9.34148130e-01  -4.93685000e-03  -1.93658390e-01
C     8.835255524400001e+00   7.344701266874171e+00  -2.475525000000012e-01  1.27819276e+00   7.42553890e-01  -3.68765800e-01
C     1.008057199610000e+01   6.632132540762528e+00  -3.096036000000026e-01  6.20106700e-01   1.49324688e+00   2.78657220e-01
C     1.134202771020000e+01   7.365157320380058e+00  -2.987991000000001e-01 -1.61333276e+00  -1.79081470e-01   3.48679020e-01
C     1.256261870360000e+01   6.672828183858637e+00  -2.228726999999999e-01 -8.83769540e-01  -1.79302123e+00  -5.05098030e-01
C     1.374571231420000e+01   7.384904977576527e+00  -2.608746000000011e-01  2.10462927e+00  -6.79608110e-01   5.30152400e-02
C     1.453100540800000e+00   2.585829264210192e-01  -3.839225999999982e-01  5.75199880e-01  -5.83968000e-02  -9.18292500e-02
C     2.701232781999999e+00   9.767094382837792e-01  -3.837462000000009e-01 -2.37918200e-01  -6.27617090e-01   3.46321030e-01
C     3.953328102300000e+00   2.632774182126088e-01  -2.725922999999995e-01 -2.25452670e+00  -9.98674200e-01  -1.58499180e-01
C     5.138413186400000e+00   9.721357734904816e-01  -2.290785000000000e-01  2.14768832e+00   1.28719870e-01  -3.00383720e-01
C     6.400440533999999e+00   2.460589305302128e-01  -2.770284000000025e-01 -1.21311452e+00   4.54342000e-03   4.51644050e-01
C     7.619872878800000e+00   9.397319365209776e-01  -2.681544000000002e-01 -3.62220960e-01   1.28166205e+00  -4.97972800e-01
C     8.829178510600000e+00   2.322643298799824e-01  -3.404436000000004e-01  1.26084134e+00   1.55275572e+00   1.81807550e-01
C     1.008181711690000e+01   9.680128830604232e-01  -4.119494999999986e-01 -4.35895360e-01  -5.54672050e-01  -6.78778800e-02
C     2.664206510000000e+00   2.389096610838538e+00  -4.047780000000003e-01  1.88070834e+00   3.28618670e-01   1.76446670e-01
C     3.939598545300000e+00   3.112677586425607e+00  -2.809691999999977e-01 -1.32726954e+00  -3.84373710e-01  -2.66931550e-01
C     5.163747421099999e+00   2.409187621646406e+00  -2.119782000000008e-01 -1.06896668e+00  -1.11392391e+00  -1.36361870e-01
C     6.372982751099999e+00   3.107174364951457e+00  -2.050701000000004e-01  1.18264661e+00  -5.14053260e-01  -1.46119040e-01
C     7.608488424200000e+00   2.374484997665581e+00  -2.934426000000023e-01  5.05031370e-01   3.64777340e-01  -9.62244700e-02
C     8.857562492600000e+00   3.085146877346934e+00  -4.366686000000009e-01 -1.14624117e+00   2.80751610e-01   6.42717700e-01
C     1.008636942960000e+01   2.391739946922726e+00  -4.782098999999995e-01 -7.04446360e-01  -9.97922100e-01  -4.94472900e-02
C     1.129870050380000e+01   3.084755449106531e+00  -4.862685000000013e-01  9.17577240e-01   1.13768292e+00   3.41831140e-01
C     3.935912630800000e+00   4.530898354769987e+00  -2.703525000000013e-01  1.25698454e+00   1.02644500e-02   6.05045220e-01
C     5.182812322700000e+00   5.271877734990266e+00  -1.805810999999977e-01 -1.29105282e+00  -1.04361466e+00  -3.46885650e-01
C     6.385331710899999e+00   4.519124681730058e+00  -1.854392999999988e-01 -2.64893340e-01   8.17608600e-02  -2.31539900e-02
C     7.614689131700001e+00   5.179269092290894e+00  -2.183558999999988e-01  5.60290080e-01   2.18133796e+00  -4.23360850e-01
C     8.838538657899999e+00   4.511223022992286e+00  -3.690509999999989e-01  1.33999831e+00  -3.76507700e-01   1.75436400e-01
C     1.010464513680000e+01   5.240834247780331e+00  -3.699212999999979e-01 -1.03234903e+00  -1.30308743e+00  -1.41869680e-01
C     1.132828602540000e+01   4.515214583441162e+00  -4.098702000000003e-01  5.30171970e-01   2.17611550e-01   3.02853730e-01
C     1.258933713440000e+01   5.217564590321283e+00  -2.647772999999987e-01 -2.00390312e+00   1.00041960e+00  -5.26948480e-01
