32
Lattice="9.86 0 0 4.93 8.53901048131456 0 0 0 30 " PBC="1 1 1" Properties=species:S:1:pos:R:3:force:R:3 Energy="-257.21990636"
C     9.802189981900000e+00   1.459872695224143e+00   3.387918000000000e+00 -6.57647410e-01  -2.28404462e+00   1.03512470e-01
C     1.100038827440000e+01   2.150157848806968e+00   3.423501900000000e+00  1.07598265e+00   9.60679740e-01   8.66123300e-02
C     2.363098033900000e+00   1.478057542722561e+00   3.506089200000000e+00  1.38280798e+00  -1.50333178e+00  -3.65917490e-01
C     3.637426717500000e+00   2.141115805219591e+00   3.473823600000000e+00 -8.16792260e-01   1.04100242e+00   3.86517060e-01
C     4.860176114200000e+00   1.433317995043334e+00   3.531002400000000e+00  8.02676000e-01   7.44326550e-01  -1.44772844e+00
C     6.073807821000000e+00   2.199978534672319e+00   3.394464000000000e+00  1.32389711e+00  -8.67194210e-01   7.61514730e-01
C     7.362638641899999e+00   1.451475432318111e+00   3.433394700000000e+00 -1.85096984e+00   2.50008590e-01  -9.66340910e-01
C     8.584454493799999e+00   2.156063770015356e+00   3.355665600000000e+00 -5.94192640e-01   2.78637850e-01   2.37078190e-01
C     1.102746417950000e+01   3.555720046455377e+00   3.383664900000000e+00  1.97767820e-01   1.48072602e+00  -3.38335310e-01
C     1.226768549620000e+01   4.293035678839106e+00   3.393059700000000e+00 -4.03304590e-01  -6.31049760e-01   2.29171240e-01
C     3.652244719900000e+00   3.582644741960284e+00   3.423814200000000e+00 -8.72163340e-01  -3.85059240e-01   1.07808050e-01
C     4.859937600799999e+00   4.319522664666809e+00   3.426497100000000e+00 -2.80997530e-01  -6.79096940e-01  -3.75584160e-01
C     6.071483621800000e+00   3.644730435528583e+00   3.361273200000000e+00  2.43652849e+00  -2.02105287e+00   9.10340000e-01
C     7.382227306699999e+00   4.304216061430886e+00   3.430392300000000e+00 -1.84968351e+00   5.08731600e-02  -1.20541135e+00
C     8.586752366799999e+00   3.581898347054227e+00   3.329883000000000e+00 -3.75967520e-01  -3.80150600e-01   3.25120920e-01
C     9.803171446300000e+00   4.283276016810991e+00   3.300795900000000e+00  7.38341580e-01   6.74949590e-01   3.16483150e-01
C     1.225442162700000e+01   5.717502135618873e+00   3.405801000000000e+00  3.57871050e-01   9.89817000e-03  -3.67717560e-01
C     1.350174160140000e+01   6.415753075908175e+00   3.404485500000000e+00 -7.17069910e-01  -3.14428350e-01   1.19187800e-01
C     4.866580578600000e+00   5.709521576424266e+00   3.427230900000000e+00  2.42441300e-02   9.16098400e-01   3.08651270e-01
C     6.100078213400000e+00   6.401828853078859e+00   3.488856300000000e+00  1.19381047e+00  -2.03097040e-01  -6.54064410e-01
C     7.385203498400000e+00   5.719816890579792e+00   3.393858300000000e+00 -1.31098474e+00   1.19206770e-01   7.18490370e-01
C     8.600382682899999e+00   6.451828089653346e+00   3.370686300000000e+00 -9.14564460e-01  -5.05532810e-01  -4.23081700e-02
C     9.814491663000000e+00   5.720685307945608e+00   3.307541100000000e+00  2.70649470e-01   1.78205050e-01   3.21003530e-01
C     1.103467948100000e+01   6.456072063252011e+00   3.364314000000000e+00  3.82231000e-03  -1.08493203e+00  -2.93693860e-01
C     1.346786037360000e+01   7.816479204971237e+00   3.389346600000000e+00  1.77844550e+00   1.37128190e+00   1.08643100e-01
C     9.800548735600000e+00   6.065429924153600e-03   3.435150000000000e+00 -8.76801300e-01  -2.01059000e-03  -7.72705700e-02
C     6.093582741200000e+00   7.806503420587872e+00   3.496175400000000e+00 -1.41840160e-01   1.87488769e+00  -1.37264580e-01
C     2.371384772300000e+00   4.877884119668560e-02   3.495697200000000e+00  8.54323690e-01  -1.13932232e+00   1.22744220e-01
C     8.552145048600000e+00   7.861457588773589e+00   3.445218300000000e+00  8.11842920e-01   8.74430750e-01  -2.19940720e-01
C     4.896866603900000e+00   1.484976617524400e-02   3.407676300000000e+00 -2.52823865e+00   1.00944510e+00   7.46139760e-01
C     1.102497955810000e+01   7.878275426084263e+00   3.356249400000000e+00  9.51209190e-01  -1.38735403e+00   1.03457230e-01
C     7.334234939899999e+00   6.426203116933600e-03   3.364245600000000e+00 -1.30024900e-02   1.55299947e+00   4.79102120e-01
