32
Lattice="9.86 0 0 4.93 8.53901048131456 0 0 0 30 " PBC="1 1 1" Properties=species:S:1:pos:R:3:force:R:3 Energy="-245.47641036"
C     4.913336008400000e+00   8.213718242006077e+00  -1.033965600000002e+00  1.74249838e+00   2.04677018e+00   1.16587501e+00
C     1.288179617200000e+00   4.226154391595136e-01  -1.107376800000001e+00 -1.12344789e+00   1.10516123e+00   2.64169385e+00
C     7.377759642099999e+00   8.272449812257831e+00  -8.672789999999999e-01  6.19167766e+00  -7.21548570e-01  -7.90268600e-01
C     3.791821696700000e+00   4.908077206824792e-01  -5.909297999999978e-01 -3.69552111e+00   7.01005790e-01  -1.23661320e+00
C     9.976574829299999e+00   8.346183484631792e+00  -7.022510999999980e-01 -9.81517690e-01  -1.51604395e+00   2.23866674e+00
C     6.256064399400000e+00   5.891502235290672e-01  -6.731085000000014e-01 -6.35050967e+00  -3.21431699e+00  -1.01010173e+00
C     7.399334012300000e+00   8.378024515420560e-02  -6.137294999999980e-01  8.12494695e+00  -1.19392667e+01   2.89785638e+00
C     8.720471517600000e+00   4.786012905914240e-01  -8.167254000000028e-01 -2.79675867e+00   2.03426689e+00  -1.72269707e+00
C     1.335515308000000e+00   1.806604083000517e+00  -6.254717999999997e-01 -4.00519623e+00   2.95979474e+00   1.03873202e+00
C     2.443756679300000e+00   2.645098279781558e+00  -1.316592000000014e-01  3.01191220e+00  -2.94312224e+00  -2.33256827e+00
C     3.668379475999999e+00   1.977391636149530e+00  -3.781497000000016e-01  5.32769590e+00  -5.15053417e+00  -1.23935127e+00
C     5.111252288099999e+00   2.464604774980348e+00  -5.893473000000000e-01 -9.73102418e+00   7.53911761e+00   2.35277095e+00
C     6.208691388500000e+00   1.847564264641295e+00  -1.001656499999999e+00  1.65141115e+00   6.25840220e+00   7.06950530e-01
C     7.410502187800000e+00   2.639085706332275e+00  -8.911940999999999e-01  1.01892278e+00  -3.96861205e+00  -1.27337407e+00
C     8.634154859099999e+00   1.904779904362535e+00  -9.529520999999974e-01  3.02078750e+00   1.26988115e+00   1.88678762e+00
C     9.859520015199999e+00   2.569080507494301e+00  -5.271009000000006e-01  1.53449483e+00  -7.67433780e-01  -1.80740678e+00
C     2.617784101700000e+00   4.014817724769852e+00   8.386860000000000e-02 -4.62078041e+00   1.71379289e+00   1.33352982e+00
C     3.891406365600000e+00   4.850609495514182e+00   1.186221000000000e-01 -4.13863269e+00  -4.39430169e+00  -1.63856676e+00
C     4.921874719100000e+00   3.997738166787965e+00  -3.392994000000016e-01  6.11147519e+00   1.24035995e+00  -1.09940735e+00
C     6.247526674700000e+00   4.784644529484820e+00  -6.261146999999987e-01 -1.43937889e+00  -2.92460335e+00  -3.28397950e-01
C     7.442876659700000e+00   3.966817555938837e+00  -7.679141999999999e-01  1.68109240e-01   5.36352003e+00   1.45742300e-01
C     8.692122144199999e+00   4.735864151266248e+00  -6.876689999999996e-01  4.19452980e-01  -1.10257101e+00   4.99731330e-01
C     9.878014712999999e+00   4.011799099175067e+00  -3.059405999999996e-01 -7.46400390e-01  -2.26244705e+00  -5.27481400e-01
C     1.105448284730000e+01   4.572000625545154e+00   1.462926000000000e-01  5.08577257e+00   5.61366083e+00  -2.79911380e-01
C     3.719551939300000e+00   6.251615789511091e+00  -1.369496999999988e-01  3.22323776e+00   4.52214860e-01  -2.83965090e-01
C     4.936786588700000e+00   6.886757294265649e+00  -6.331595999999990e-01  2.22535348e+00  -1.18392715e+00  -1.02056492e+00
C     6.319264583700000e+00   6.156899719025255e+00  -8.403594000000005e-01 -2.62449498e+00   5.74225550e-01   7.38876460e-01
C     7.595722780799999e+00   6.841048910457362e+00  -1.047529500000000e+00 -4.40557465e+00   1.57623384e+00   9.23990620e-01
C     8.778172533399999e+00   6.137694545164583e+00  -8.770191000000018e-01  1.62643089e+00   3.69541080e-01   2.22431813e+00
C     9.992378930299999e+00   6.879370537859820e+00  -4.481274000000006e-01  3.11404790e-01  -5.61218960e-01  -3.07085500e-02
C     1.118281651540000e+01   6.132260660455530e+00   1.793232000000000e-01 -2.49759274e+00   1.38426225e+00  -3.77628003e+00
C     1.238233624510000e+01   6.963281344484265e+00  -6.576480000000018e-02 -1.63875408e+00   4.47736530e-01  -3.97857340e-01
