32
Lattice="9.812 0 0 4.906 8.49744126193291 0 0 0 30 " PBC="1 1 1" Properties=species:S:1:pos:R:3:force:R:3 Energy="-258.03177376"
C    -1.183596365405883e-03   9.605292243931739e-04   2.999472264443813e+00  4.25378900e-02  -6.27968600e-02  -7.34660000e-04
C     1.226006889053907e+00   7.088364652024637e-01   2.999569426375614e+00  2.94388000e-02  -3.19984300e-02   5.25621000e-03
C     2.453894634578551e+00  -1.287515131793667e-04   3.000118307960277e+00 -9.30575700e-02  -2.48608000e-03  -8.62881000e-03
C     3.679149642903317e+00   7.071691065593643e-01   2.999121573720843e+00  3.10777200e-02   8.12897500e-02   7.67052000e-03
C     4.905864984615175e+00   5.690474923834947e-04   2.999902128312765e+00  1.57096700e-02  -7.96388400e-02  -5.58851000e-03
C     6.132727502035216e+00   7.077195642533495e-01   2.999888211444492e+00 -4.81485100e-02   4.59744900e-02  -7.95903000e-03
C     7.358232524426754e+00  -2.236272218322290e-04   2.999097546303987e+00  2.63091200e-02  -3.92516900e-02   4.42376000e-03
C     8.584364531602658e+00   7.070947213099084e-01   2.999297068200000e+00  3.30942900e-02   9.79075700e-02  -3.86097000e-03
C     1.226610947383892e+00   2.124740693235788e+00   3.000217796757487e+00  1.82039000e-03  -3.26005600e-02  -3.69386000e-03
C     2.453183934739281e+00   2.832074903728587e+00   2.999707044192124e+00 -6.03925000e-03   6.65540100e-02  -1.72792000e-03
C     3.679258724617298e+00   2.124800199296464e+00   2.999132070759691e+00  1.45768700e-02  -6.30469400e-02   5.87259000e-03
C     4.906708387687485e+00   2.831345729211750e+00   3.000278735340504e+00 -5.12415500e-02   9.44408800e-02  -6.76806000e-03
C     6.131646522375804e+00   2.125027229887242e+00   2.999418931004932e+00  9.69740000e-02  -8.34790800e-02   1.31959900e-02
C     7.359667140520695e+00   2.831959041255013e+00   3.000372069504428e+00 -3.05080400e-02   4.69468800e-02  -1.87436700e-02
C     8.586605294421092e+00   2.125386833045297e+00   2.999177713631703e+00 -8.46056600e-02  -1.28455260e-01   1.35487700e-02
C     9.811602107971968e+00   2.831474854911598e+00   3.000473032428702e+00  5.48207600e-02   5.49852000e-02  -7.35359000e-03
C     2.453441330739324e+00   4.249724314354365e+00   2.999524304346162e+00 -5.80736000e-02  -8.12399600e-02   5.41251000e-03
C     3.678720209711786e+00   4.955699546093893e+00   2.999681598271354e+00  1.01399470e-01   4.17247900e-02   1.08319400e-02
C     4.907135364624158e+00   4.248915019785844e+00   3.000955591537554e+00 -5.54766200e-02  -4.72275900e-02  -1.36950400e-02
C     6.132543417678915e+00   4.957400267687707e+00   2.999712481074603e+00  3.56453300e-02  -1.93592000e-02   1.00056100e-02
C     7.360206275874698e+00   4.248457266416562e+00   2.999123458337054e+00 -5.95382500e-02   6.33450000e-04   6.92954000e-03
C     8.586498421091708e+00   4.955763316304526e+00   2.998998300142060e+00 -3.32752000e-02   3.25917600e-02   1.84625700e-02
C     9.811918489230472e+00   4.247496086753308e+00   3.000464617411299e+00  3.41467200e-02   3.35266300e-02  -7.36362000e-03
C     1.103820751919243e+01   4.957362084590119e+00   3.000261888101852e+00  3.50560000e-04  -7.84445000e-02   3.59238000e-03
C     3.680546025735092e+00   6.372050447992405e+00   3.000285788568401e+00 -5.79483900e-02   2.79866400e-02  -1.27946500e-02
C     4.906243730529959e+00   7.080840311748269e+00   2.999601881072311e+00 -3.94749000e-02   5.66709300e-02   9.02352000e-03
C     6.131311599393563e+00   6.373892841323309e+00   3.000599433521346e+00  7.52495300e-02  -3.47655200e-02  -1.19638300e-02
C     7.358632468154235e+00   7.081163471667226e+00   3.000181355389354e+00  4.97869000e-03  -5.62977000e-03   9.25929000e-03
C     8.584956329972542e+00   6.372540766170768e+00   3.001187649925880e+00  2.15366800e-02  -3.64548000e-03  -2.47172200e-02
C     9.811869202251865e+00   7.080138085120579e+00   2.999659266790767e+00 -3.38597900e-02   6.61664200e-02   1.80669900e-02
C     1.103737124148518e+01   6.371913998856204e+00   3.000733678324420e+00  8.31812400e-02   6.87598000e-02  -1.48796200e-02
C     1.226575184475987e+01   7.080633780377086e+00   2.999365963207124e+00 -5.16003800e-02  -2.20934500e-02   8.92088000e-03
