26
Lattice="8.88768389401873 1.33226762955019e-15 0 4.44384194700937 7.69696003302603 0 0 0 30 " PBC="1 1 1" Properties=species:S:1:pos:R:3:force:R:3 Energy="-209.08229367"
C     1.277026260272632e+01   7.029552238531482e+00  -2.107188000000022e-01 -1.20310187e+00   2.26469110e-01  -1.51850100e-02
C     9.021022127423278e+00   6.789367985038530e+00  -2.374791000000016e-01 -1.77602461e+00   5.81973320e-01   6.76739700e-02
C     1.035952807375070e+01   6.406886721778155e+00  -2.873397000000004e-01  6.59715640e-01   9.39768100e-02   6.62752800e-02
C     1.070650160769933e+01   5.028436533643848e+00  -3.103197000000009e-01 -1.15864979e+00  -1.44866570e-01   3.28582660e-01
C     6.589913738565514e+00   6.223318843238673e+00  -1.424835000000009e-01  2.26047630e-01  -1.72258230e-01  -2.43485840e-01
C     7.968461100467581e+00   5.803194827255580e+00  -2.488857000000024e-01 -2.23218710e-01   7.26135460e-01   1.27156230e-01
C     8.288742564454745e+00   4.419256167832682e+00  -3.310290000000009e-01 -3.38258120e-01   1.52573900e-02   6.30607170e-01
C     9.652161488607934e+00   4.022224571331594e+00  -2.694149999999986e-01  1.10108146e+00   2.64162470e-01  -3.95078360e-01
C     1.002437537822049e+01   2.632410052621794e+00  -1.942067999999999e-01  2.30358200e-01   2.05703864e+00  -9.86836800e-02
C     4.200157698671407e+00   5.643079893805909e+00  -2.554043999999998e-01  2.51047000e-02   9.70968760e-01   4.49330420e-01
C     5.539113361786320e+00   5.233905111343891e+00  -1.981515000000016e-01  1.28098620e+00   1.52913389e+00  -1.63382600e-01
C     5.885004642490993e+00   3.891366167803955e+00  -2.542353000000013e-01 -3.33951810e-01  -2.00100730e+00   1.88512880e-01
C     7.214873893085056e+00   3.452834717969916e+00  -2.929527000000007e-01  2.16286592e+00   5.17258870e-01  -7.91830300e-02
C     7.599708293837108e+00   2.087184035578297e+00  -2.671211999999983e-01  4.82564860e-01  -3.22019260e-01   3.49769210e-01
C     9.001838058433194e+00   1.688563016831015e+00  -1.795061999999987e-01 -1.80378394e+00   4.77036970e-01  -2.31182070e-01
C     3.181152922156898e+00   4.692225314695017e+00  -2.717010000000002e-01 -3.05160560e-01  -2.27945103e+00  -1.45315530e-01
C     3.523675592866550e+00   3.277284762693685e+00  -2.359161000000007e-01 -3.15285180e-01   7.94936310e-01   3.28324460e-01
C     4.875590298991957e+00   2.879382793952405e+00  -2.055702000000004e-01 -7.47161600e-02  -2.18158880e-01  -6.15471180e-01
C     5.192792536010017e+00   1.482246003226865e+00  -2.464289999999991e-01  2.00557125e+00   7.51217890e-01   5.07819270e-01
C     6.598741071747255e+00   1.089994064965207e+00  -2.394204000000002e-01 -1.15594405e+00   6.47924300e-02  -2.04543240e-01
C     1.137703212043517e+01   7.408858736688284e+00  -2.404517999999989e-01  8.19103390e-01  -2.05672750e-01  -1.26821560e-01
C     2.513876723744533e+00   2.296887172808446e+00  -1.676148000000026e-01 -2.08758740e-01  -1.68447143e+00  -9.41064900e-02
C     2.855581105389543e+00   8.682632731441799e-01  -1.288182000000013e-01 -1.67454500e-01   2.00583171e+00   1.78909890e-01
C     4.211234193567667e+00   4.957391822266142e-01  -1.757792999999985e-01 -1.73900500e-02  -1.31477693e+00  -3.16748730e-01
C     4.298538980840013e-01   3.418751039565070e-01  -1.318485000000003e-01  1.47392373e+00  -1.93825407e+00   9.99520200e-02
C     6.275782551838662e+00   7.620236732420960e+00  -6.794220000000095e-02 -1.38562490e+00  -7.95253600e-01  -5.93726130e-01
