26
Lattice="8.88768389401873 1.33226762955019e-15 0 4.44384194700937 7.69696003302603 0 0 0 30 " PBC="1 1 1" Properties=species:S:1:pos:R:3:force:R:3 Energy="-208.86012197"
C     1.266208291418972e+01   6.929725206939192e+00  -1.918422000000000e-01  3.59216630e-01  -1.66667549e+00   2.05277650e-01
C     8.925448507570049e+00   6.760193581680019e+00  -2.954363999999998e-01  2.02979370e-01   4.34420120e-01   4.14540430e-01
C     1.028825031538456e+01   6.351183591132244e+00  -2.174852999999999e-01 -2.89201580e-01   3.59323300e-01  -1.73380500e-01
C     1.061079409488446e+01   4.993358177094326e+00  -1.927517999999999e-01  1.40578563e+00  -1.83134893e+00  -1.21786620e-01
C     6.521246470683299e+00   6.124139895680909e+00  -2.331648000000008e-01 -1.98099300e-02   1.29597091e+00   8.92995900e-02
C     7.925121465378373e+00   5.805458811078804e+00  -2.732136000000018e-01 -1.79278780e+00  -3.42692913e+00  -1.42606570e-01
C     8.224620813643257e+00   4.353985407991079e+00  -2.766771000000006e-01  1.43308575e+00   1.87038082e+00   4.32180820e-01
C     9.636879204987887e+00   3.948286649648211e+00  -2.375135999999998e-01 -2.45492850e+00   2.89398334e+00  -1.88154280e-01
C     9.932499168192715e+00   2.621641004935020e+00  -2.490468000000021e-01  4.27472810e-01  -3.88532620e+00   3.61386330e-01
C     4.124629583192126e+00   5.515914337761463e+00  -1.242984000000007e-01  3.36502560e-01   1.96255221e+00  -2.20834740e-01
C     5.488848932172516e+00   5.143617845951984e+00  -1.163403000000010e-01  6.40665070e-01   3.69569360e-01  -4.44094690e-01
C     5.845294115296356e+00   3.788595125969790e+00  -1.220442000000013e-01 -6.55324450e-01  -8.28916620e-01   1.50472640e-01
C     7.196229665295569e+00   3.402955492130705e+00  -2.000768999999991e-01  6.55722010e-01  -5.14494390e-01  -1.27559310e-01
C     7.551059111905355e+00   2.015188287819284e+00  -2.099447999999988e-01 -1.05803941e+00  -5.37105510e-01   5.34067870e-01
C     8.882180503851799e+00   1.588259928260870e+00  -2.171717999999991e-01  1.63383321e+00   9.70524260e-01  -4.64216300e-01
C     3.120197808629249e+00   4.553446508387707e+00  -1.443984000000000e-01 -1.92450806e+00   7.17796390e-01   3.56852700e-02
C     3.442080877709749e+00   3.197124310643648e+00  -1.485561000000004e-01 -7.14059000e-02  -1.92231537e+00   1.55469240e-01
C     4.816199951123922e+00   2.792852183842340e+00  -9.158700000000053e-02 -4.05028280e-01   3.55918080e-01  -3.29361270e-01
C     5.134194169667087e+00   1.416754109723601e+00  -1.307156999999997e-01  5.78102670e-01  -5.50297280e-01  -2.48542100e-01
C     6.521405601348804e+00   1.021755896123239e+00  -1.358262000000003e-01 -3.86469410e-01  -2.37078640e-01  -5.63558910e-01
C     1.131960235119573e+01   7.323685947297110e+00  -1.988942999999992e-01 -7.45617520e-01   9.67680310e-01   3.24355120e-01
C     2.406435957222189e+00   2.159569018606029e+00  -2.103435000000005e-01  3.33190100e-01   3.01503820e+00  -2.89745610e-01
C     2.760984775252206e+00   8.319257709033493e-01  -3.052935000000012e-01 -1.90034103e+00  -2.27194156e+00   5.68805220e-01
C     4.096181348028797e+00   4.248614179119580e-01  -2.519475000000000e-01  1.68717223e+00   6.54624200e-01   5.48843300e-02
C     3.530900834590945e-01   1.901098327473802e-01  -2.284568999999976e-01 -7.35651390e-01   1.57585904e+00   8.63692700e-02
C     6.127157458020493e+00   7.503098544994797e+00  -2.714381999999986e-01  2.74538524e+00   2.28788570e-01  -9.89528900e-02
