26
Lattice="8.88768389401873 1.33226762955019e-15 0 4.44384194700937 7.69696003302603 0 0 0 30 " PBC="1 1 1" Properties=species:S:1:pos:R:3:force:R:3 Energy="-207.69058174"
C     1.973547537584701e-01   2.367374008523178e-01   3.916049700000000e+00 -2.55199350e-01   2.07938840e+00  -1.43402378e+00
C     7.056412668799785e+00   7.352307170138266e+00   3.575913600000000e+00 -7.49924930e-01   6.88677410e-01  -5.15046210e-01
C     3.978901426485354e+00   8.395089698641059e-02   3.483002700000000e+00 -7.02241000e-02   7.66131900e-02   1.24730660e+00
C     9.420545737480701e+00   6.777359803756527e+00   3.522842100000000e+00 -2.99863980e-01  -1.30919684e+00   7.83889380e-01
C     1.075152221621323e+01   7.076891236651993e+00   3.858111600000000e+00  1.52767554e+00   2.75733885e+00   2.42271460e-01
C     1.182380887862173e+01   6.151752277970932e+00   4.029009600000000e+00 -8.25067660e-01   5.50913650e-01  -1.78488770e+00
C     4.285177772222439e+00   6.623177610128380e+00   4.039072500000000e+00  1.19618350e-01  -3.45910230e+00  -3.67615980e-01
C     5.285434600408713e+00   5.572590595063967e+00   3.864161400000000e+00  1.30709609e+00   3.01230810e+00   4.91464290e-01
C     6.676774228477268e+00   6.001459820063546e+00   3.666409500000000e+00 -3.61676600e-02  -2.15128991e+00   1.98622720e-01
C     7.703404592045471e+00   4.973418817288610e+00   3.616686000000000e+00  1.38862270e-01   5.76217400e-01  -9.62087100e-02
C     9.072035921122025e+00   5.367597689493778e+00   3.511290000000000e+00  1.07634120e-01   1.36767300e+00   1.61948230e-01
C     1.013396416571087e+01   4.443175317791510e+00   3.557448900000000e+00 -5.57315130e-01  -1.83424646e+00  -5.59840560e-01
C     1.152056039240625e+01   4.806365536189495e+00   3.681659100000000e+00 -1.44478301e+00  -4.92353340e-01   1.74223729e+00
C     3.576366493765876e+00   3.780579742703349e+00   3.848847300000001e+00  1.16103710e+00  -1.88342090e-01  -8.07809760e-01
C     4.958823370628947e+00   4.240171922449875e+00   3.937614600000000e+00  7.48806200e-02  -3.17743954e+00  -1.16263790e+00
C     6.011894638215933e+00   3.223851003743019e+00   3.792350400000000e+00  2.51843140e-01   6.59250760e-01   1.56671125e+00
C     7.402428731018553e+00   3.596431205499204e+00   3.746563500000000e+00 -9.18602190e-01  -4.07160370e-01  -4.83117420e-01
C     8.436439782798487e+00   2.571655253168993e+00   3.709887300000000e+00 -1.95304504e+00   2.94537118e+00  -6.84452130e-01
C     9.760932607359479e+00   3.029825958337179e+00   3.497575800000000e+00  6.59247330e-01  -4.54972300e-01   1.56324408e+00
C     1.837183981171455e+00   1.993834380699254e+00   3.607919700000000e+00  2.48952617e+00   7.13265990e-01  -1.05184978e+00
C     3.246011193782762e+00   2.372074388074298e+00   3.678450900000000e+00 -7.21239710e-01   2.35629570e+00   6.22579610e-01
C     4.305763511181483e+00   1.475738762308702e+00   3.735405600000000e+00 -5.98239600e-02  -2.10941549e+00  -5.69723110e-01
C     5.674523267279331e+00   1.853114862889979e+00   3.912432900000000e+00 -2.60267990e-01  -9.44406370e-01  -1.05133983e+00
C     6.675355395244977e+00   8.043323231349999e-01   3.944502600000000e+00 -6.02761560e-01   7.77802820e-01  -5.89143810e-01
C     8.026955877853759e+00   1.248947988963953e+00   3.828669000000000e+00  1.37887134e+00  -2.41758011e+00   1.08391576e+00
C     1.547645369469211e+00   6.100288786848747e-01   3.595375800000000e+00 -4.62005810e-01   3.84388660e-01   1.45350601e+00
