32
Lattice="9.86 0 0 4.93 8.53901048131456 0 0 0 30 " PBC="1 1 1" Properties=species:S:1:pos:R:3:force:R:3 Energy="-253.59447594"
C     1.258528230800000e+00   8.892856827478623e-01   3.781002300000000e+00 -4.05465931e+00   1.16554082e+00   5.23438860e-01
C     2.421262617600000e+00   1.604810699677786e+00   3.950429700000000e+00  2.09624179e+00   1.85048175e+00   3.03183470e-01
C     3.658720718600000e+00   8.959900014361296e-01   3.618067500000000e+00  6.89685500e-01   2.60787995e+00   3.74781730e-01
C     4.918449355100000e+00   1.664387290406641e+00   3.633980700000000e+00 -1.31925417e+00  -1.92315744e+00   1.75185700e-01
C     6.130070361400000e+00   9.081548465461472e-01   3.441921600000000e+00 -6.08341510e-01  -8.17633620e-01   3.69867230e-01
C     7.347181760800000e+00   1.587923269431699e+00   3.491065200000000e+00 -6.55395550e-01   2.40008938e+00   7.93168650e-01
C     8.570046125099999e+00   1.009723729112498e+00   3.631465200000000e+00  1.73396591e+00  -4.31225495e+00   5.82665010e-01
C     9.791880217999999e+00   1.592747639572689e+00   3.955215900000000e+00  1.82267588e+00   3.37862810e+00  -1.41641584e+00
C     2.399826090200000e+00   3.081547684429614e+00   4.346426100000000e+00  8.44625390e-01  -2.35141042e+00  -1.89103682e+00
C     3.677566087300000e+00   3.783664832493947e+00   4.175570100000001e+00  1.36736160e-01  -2.63441943e+00  -6.03245800e-01
C     4.899932373700000e+00   3.057306543748257e+00   3.860101500000000e+00  6.11525450e-01  -3.15651340e-01  -4.83069200e-01
C     6.173316863700000e+00   3.713923830640223e+00   3.592519200000000e+00 -2.85799434e+00   2.27755825e+00   7.30402340e-01
C     7.361482754100000e+00   2.982863791944036e+00   3.603063000000000e+00  1.06985856e+00   2.67090882e+00  -8.94387870e-01
C     8.610375743599999e+00   3.797435780085147e+00   3.672272700000000e+00 -1.52243685e+00  -2.08372154e+00  -2.64282360e-01
C     9.796725372699999e+00   3.159425082419205e+00   3.975942000000000e+00 -4.69479320e-01  -6.18459120e+00   5.93924790e-01
C     1.097928116960000e+01   3.756437941408152e+00   4.297675200000000e+00  2.40926485e+00   1.98010306e+00  -3.01423770e-01
C     3.695405440200000e+00   5.141886072920396e+00   3.977850600000000e+00  4.37910700e-02   3.03740023e+00   7.70121620e-01
C     4.897088897600000e+00   5.985796307878587e+00   3.736133100000000e+00  2.14278500e-02  -3.84061644e+00  -8.84990700e-01
C     6.094520082099999e+00   5.177724556075271e+00   3.472623000000000e+00  2.46714589e+00   1.53428935e+00   5.04949260e-01
C     7.407169557100000e+00   5.925884646378496e+00   3.269123400000000e+00 -2.14265751e+00  -2.11356047e+00   4.14880700e-01
C     8.658834241899999e+00   5.156132472615124e+00   3.418150800000000e+00 -3.62499550e+00   2.01544374e+00   3.30495260e-01
C     9.781019033600000e+00   5.913256047609310e+00   3.623556300000000e+00  3.60282317e+00  -9.22031850e-01   1.14594188e+00
C     1.100245236680000e+01   5.183273802815910e+00   4.165723200000000e+00  2.15175750e-01   9.69540720e-01  -1.96832322e+00
C     1.230239846430000e+01   5.783957923970626e+00   4.030581900000000e+00 -1.21976714e+00   3.93510130e+00  -1.14728802e+00
C     4.865421584900000e+00   7.387319724350165e+00   3.622412400000000e+00  9.26557670e-01   1.29516250e-01  -2.53342790e-01
C     6.132294136499999e+00   8.064679121599100e+00   3.445926600000000e+00  1.18825420e-01  -1.01372495e+00   6.42587840e-01
C     7.359904710400000e+00   7.338989522764099e+00   3.258324600000000e+00  4.62861460e-01   3.34571010e-01   3.15628280e-01
C     8.617439447599999e+00   8.071136748274601e+00   3.299339100000000e+00 -1.53291188e+00  -1.10659601e+00   4.47363710e-01
C     9.809477853000001e+00   7.305793436402261e+00   3.388592100000000e+00  1.07752494e+00   7.02508710e-01   4.81208480e-01
C     1.106193690870000e+01   7.994904646824295e+00   3.484395900000000e+00 -7.19054400e-02  -1.45621700e-01   2.37437200e-02
C     1.229338287470000e+01   7.258774485265502e+00   3.661794300000000e+00  4.93765900e-02   8.02892480e-01   8.72842270e-01
C     1.349574080540000e+01   8.102253244024139e+00   3.661447500000000e+00 -3.20290790e-01  -2.02746255e+00  -2.88574380e-01
