32
Lattice="9.86 0 0 4.93 8.53901048131456 0 0 0 30 " PBC="1 1 1" Properties=species:S:1:pos:R:3:force:R:3 Energy="-252.41417867"
C     7.515568573000000e-01   1.226631844105668e+00   4.023816000000000e+00 -6.10997950e-01  -2.62277998e+00  -1.10664817e+00
C     1.938815036100000e+00   1.883130780312382e+00   3.728959200000000e+00  3.17830831e+00   1.73963620e-01  -2.14694200e-01
C     3.252823071199999e+00   1.185883600705003e+00   3.854017500000000e+00 -1.52006225e+00  -1.12459548e+00  -6.83584140e-01
C     4.492556169999999e+00   1.827444733538424e+00   3.590335800000000e+00 -1.46394982e+00   1.36792838e+00   1.08129551e+00
C     5.722950813500000e+00   1.231850716530834e+00   3.807830100000000e+00  1.23551640e-01  -2.47598451e+00  -3.97773020e-01
C     6.956732958600000e+00   1.878801758169336e+00   3.896091900000000e+00  2.11386512e+00   2.49421650e-01   5.86962040e-01
C     8.216646913800000e+00   1.125713975698312e+00   4.191196199999999e+00 -3.22588649e+00   2.02725999e+00  -2.01133185e+00
C     9.355341683900001e+00   1.923947591967201e+00   4.021627800000000e+00  2.39718594e+00  -6.80255720e-01  -5.17344830e-01
C     2.011760302100000e+00   3.267911673545719e+00   3.345534000000000e+00 -4.70017400e-02  -5.48675290e-01   1.45009296e+00
C     3.282730127400000e+00   3.990446620348989e+00   3.428265900000000e+00 -2.25026191e+00  -7.78736370e-01  -5.27017890e-01
C     4.503818754999999e+00   3.210094289755954e+00   3.515009400000000e+00 -3.07299220e-01   2.84923544e+00  -9.96967180e-01
C     5.743831138299999e+00   3.924496853758281e+00   3.512612100000000e+00 -4.63872300e-01   1.88189578e+00   2.82839423e+00
C     7.000695198299999e+00   3.297030211623148e+00   3.745787100000000e+00 -1.12044640e+00   4.91511980e-01   2.18403840e-01
C     8.165094002400000e+00   4.145734674015334e+00   3.874551600000000e+00  1.21935209e+00  -6.56594020e+00  -1.62882314e+00
C     9.393703887299999e+00   3.308762470462248e+00   3.666164700000000e+00 -1.08964297e+00   1.00454861e+00   1.40536243e+00
C     1.062041700400000e+01   3.939390681227601e+00   3.370980600000000e+00  6.85444760e-01   2.67484707e+00   2.03619450e-01
C     3.135714963800000e+00   5.407923384710247e+00   3.533647800000000e+00  5.40826429e+00  -5.47655940e-01   1.89223827e+00
C     4.438175016200000e+00   6.045822306729005e+00   4.040921100000000e+00 -1.64974476e+00  -2.15096624e+00  -2.80374024e+00
C     5.637669060600000e+00   5.344914709499164e+00   3.946491600000000e+00  3.08879177e+00  -3.14850680e-01  -3.24773230e-01
C     6.872527276800000e+00   6.174598269876836e+00   4.175846400000000e+00  1.12802884e+00  -3.55418029e+00  -2.60491418e+00
C     8.176634836600000e+00   5.468395803028558e+00   3.874791300000000e+00 -8.45516800e-01   3.62545381e+00   1.17599278e+00
C     9.460226299999999e+00   6.130828497617824e+00   3.741949200000000e+00 -1.42811149e+00   8.07682900e-01   8.88275000e-02
C     1.066451329040000e+01   5.438717276643851e+00   3.408511500000000e+00 -2.11974656e+00  -1.06145868e+00   5.44693040e-01
C     1.186355500730000e+01   6.165300397535479e+00   3.503591400000000e+00 -1.07166589e+00   1.14510647e+00   9.57656370e-01
C     4.576645060100000e+00   7.379993253358325e+00   4.016178300000000e+00 -3.70904991e+00   7.24985620e+00   6.14106230e-01
C     5.749719924699999e+00   8.223554584348303e+00   4.009284300000000e+00 -5.05204297e+00   3.00461662e+00   8.65570760e-01
C     6.879596502400000e+00   7.558820882604992e+00   4.074340800000000e+00  5.49023460e+00   3.03192270e-01   9.96959320e-01
C     8.180790530800000e+00   8.324915627399571e+00   4.068230400000000e+00 -6.67295760e-01  -2.20533047e+00  -7.52446330e-01
C     9.408167767799998e+00   7.552752890977694e+00   3.937465200000000e+00  1.54990370e-01   1.96935713e+00  -6.59694430e-01
C     1.060002331950000e+01   8.359364642769140e+00   3.823059000000000e+00  1.96492462e+00  -2.92836075e+00   1.24864253e+00
C     1.187120981830000e+01   7.595493627083762e+00   3.896194200000000e+00 -1.50082043e+00  -3.54545300e-02  -1.75497288e+00
C     1.307704665280000e+01   8.289123852632022e+00   4.011535200000000e+00  3.19047329e+00  -3.23065277e+00   8.25908430e-01
