32
Lattice="9.86 0 0 4.93 8.53901048131456 0 0 0 30 " PBC="1 1 1" Properties=species:S:1:pos:R:3:force:R:3 Energy="-254.78112478"
C     5.031945005000000e+00   7.683427759276069e+00  -3.417446999999996e-01 -2.13014620e-01   2.57151763e+00   9.29607050e-01
C     6.290574941699999e+00   8.461465591078500e+00  -2.593494000000014e-01 -2.41833821e+00  -2.20010606e+00  -3.47371880e-01
C     7.481484229199999e+00   7.784424955090784e+00  -2.805737999999991e-01  1.09000518e+00  -4.64028381e+00  -3.92914340e-01
C     8.700591539099999e+00   8.399221840426216e+00  -4.200768000000004e-01  4.52897160e-01   1.81061571e+00   1.61258087e+00
C     9.909011693600000e+00   7.689233090941001e+00  -3.122349000000000e-01  1.52391794e+00   2.31958044e+00  -1.14474665e+00
C     1.112054391060000e+01   8.437610413670837e+00  -3.997995000000003e-01  1.42049291e+00   2.55925800e-01   6.35835650e-01
C     1.236660924930000e+01   7.677153038205050e+00  -3.508583999999999e-01  2.78507010e-01   1.85210250e+00   6.83082010e-01
C     1.361979784640000e+01   8.329722577959183e+00  -3.307475999999987e-01  7.88535000e-03   3.81195310e+00  -6.97794350e-01
C     1.344961237300000e+00   1.296776911935305e+00  -2.255505000000007e-01 -2.49207925e+00   9.49937870e-01  -1.57213317e+00
C     2.518322337700000e+00   2.008369031418349e+00  -2.387264999999985e-01  2.67573066e+00   6.34085640e-01  -2.08507120e-01
C     3.795157581200000e+00   1.276459446569507e+00  -3.160808999999993e-01 -1.40081570e+00   1.92089628e+00   6.12074380e-01
C     4.982740696300000e+00   2.060641608752927e+00  -2.057319000000000e-01  2.45400170e-01  -1.53047830e+00  -1.70418867e+00
C     6.230234946200000e+00   1.365012400851299e+00  -3.532373999999976e-01 -1.45801601e+00  -1.41804470e+00   5.66823930e-01
C     7.412910492800000e+00   2.099877764177794e+00  -3.124815000000005e-01  2.31544190e+00  -1.60507593e+00  -1.15863051e+00
C     8.669906726099999e+00   1.290508765902356e+00  -4.031276999999989e-01 -1.35006670e-01  -6.33915710e-01   3.88221510e-01
C     9.925381857199998e+00   1.949460191309030e+00  -4.426130999999991e-01 -5.45619090e-01   2.65444198e+00   2.39908949e+00
C     2.521161081000000e+00   3.454674092890821e+00  -2.616972000000004e-01  1.49685589e+00  -7.89143140e-01   5.67125620e-01
C     3.742136663699999e+00   4.175794296437764e+00  -1.297664999999988e-01  1.54785240e-01   6.65725870e-01  -1.12474511e+00
C     4.951741497200000e+00   3.467009376650020e+00  -2.715458999999996e-01  7.05191000e-02   3.57693910e-01   1.20038818e+00
C     6.156674958500000e+00   4.187361410814182e+00  -2.960376000000018e-01  2.23682356e+00   2.05313294e+00  -5.41327380e-01
C     7.401753459100000e+00   3.532268849633524e+00  -3.620589000000010e-01  7.25823460e-01  -2.34910894e+00   1.37141815e+00
C     8.692048933700001e+00   4.144223525330688e+00  -2.244452999999993e-01 -1.02325195e+00   8.87640660e-01  -1.40114187e+00
C     9.868025941399999e+00   3.432429287469582e+00  -2.427831000000005e-01  3.88290890e+00  -1.76232372e+00  -1.86333827e+00
C     1.121900917370000e+01   4.172446150428557e+00  -3.628695000000022e-01 -4.93682578e+00  -6.16624310e-01   6.50665960e-01
C     3.796266732599999e+00   5.626866687461219e+00  -1.302957000000013e-01  3.84518120e-01  -1.89415484e+00  -2.65051710e-01
C     5.040587295000000e+00   6.315367102463619e+00  -2.447133000000008e-01  5.96337590e-01  -5.21963510e-01  -8.68042700e-02
C     6.298671579299999e+00   5.662525509835595e+00  -3.190293000000004e-01 -2.12359336e+00  -3.86054610e+00   9.48277560e-01
C     7.561671566599999e+00   6.233937732284662e+00  -2.623940999999981e-01 -2.69345705e+00   4.66896597e+00  -7.70660130e-01
C     8.738193881600001e+00   5.553348710491982e+00  -3.415779000000008e-01  1.90194956e+00   6.80881820e-01   1.01344567e+00
C     9.981811179499999e+00   6.327863858910994e+00  -3.314114999999980e-01 -1.63504580e+00  -3.58965290e+00  -6.33145290e-01
C     1.116759469670000e+01   5.577669434751014e+00  -4.308861000000022e-01  2.57231861e+00   7.84153840e-01   2.29508777e+00
C     1.244553130220000e+01   6.308572782604893e+00  -1.725381000000006e-01 -2.95805482e+00  -1.46783002e+00  -1.96122308e+00
