32
Lattice="9.86 0 0 4.93 8.53901048131456 0 0 0 30 " PBC="1 1 1" Properties=species:S:1:pos:R:3:force:R:3 Energy="-256.84520286"
C     4.901381744400000e+00   8.438302073519719e+00  -1.877327999999991e-01 -7.32919100e-02   2.47840500e-02   6.34471450e-01
C     1.215673466300000e+00   6.177720473668744e-01  -1.202103000000001e-01 -4.14825420e-01  -1.25221677e+00  -5.30461600e-01
C     7.355216724100000e+00   8.416583014973734e+00  -1.844058000000004e-01  6.74418600e-01  -1.33327121e+00   6.65588800e-02
C     3.653825820200000e+00   5.573246483492689e-01  -1.412511000000016e-01  6.77373270e-01   1.66429168e+00   4.72420990e-01
C     9.845232677999999e+00   8.450983357983567e+00  -1.076556000000011e-01 -1.09105291e+00  -1.99480197e+00   5.05944900e-02
C     6.112204435800000e+00   6.317605689451057e-01  -9.007229999999922e-02  9.98721240e-01  -1.86348052e+00  -2.00928500e-02
C     1.227105608790000e+01   8.379187955598461e+00  -2.852099999999780e-02  7.18883630e-01   2.34572040e+00  -5.33515390e-01
C     8.574989238899999e+00   5.721505052951688e-01  -1.584299999999992e-01  4.95029840e-01   6.69447670e-01   3.04642730e-01
C     1.246930159300000e+00   2.012370582509487e+00   2.030640000000000e-02 -1.59053155e+00  -7.05145200e-02   6.80824350e-01
C     2.454820634600000e+00   2.692467842688624e+00   2.285016000000000e-01  9.76700300e-02   6.26630600e-01  -9.41606050e-01
C     3.667318737200000e+00   1.977003111172690e+00   2.927550000000000e-02  1.20765875e+00   1.36285846e+00   1.72460020e-01
C     4.932956816800000e+00   2.754161681065995e+00  -1.079879999999989e-02 -2.79140588e+00  -5.51763170e-01   2.69450590e-01
C     6.114943593100000e+00   2.035609328750597e+00  -1.545054000000015e-01  1.37536441e+00   2.54925360e-01   4.50754860e-01
C     7.358400320900000e+00   2.732335372548382e+00  -1.526016000000006e-01  1.09635040e+00  -4.12817260e-01  -2.25080990e-01
C     8.615477899200000e+00   2.024390008271030e+00  -1.545897000000025e-01 -1.08995418e+00  -1.23997970e+00   4.52120840e-01
C     9.843788483799999e+00   2.698272491232718e+00   3.112380000000000e-02  1.94682200e-01   8.78592910e-01  -5.33657570e-01
C     2.408366723599999e+00   4.118408474237658e+00   3.114867000000000e-01  4.63759570e-01   1.50377447e+00  -3.47305690e-01
C     3.630590385100000e+00   4.863639940116557e+00   2.060535000000000e-01  1.55554666e+00  -1.12989300e-01  -1.30920300e-01
C     4.888141194099999e+00   4.189776242977925e+00   8.168820000000000e-02  6.16859960e-01  -1.56128711e+00  -7.31133940e-01
C     6.145021227300000e+00   4.852203814160903e+00  -1.340171999999988e-01 -9.79612300e-01   8.48615690e-01   3.27625830e-01
C     7.385815212799999e+00   4.133951351893563e+00  -1.688649000000026e-01 -7.53086330e-01   8.89675040e-01   7.63017100e-02
C     8.621451481599999e+00   4.853009299019482e+00  -1.217436000000021e-01 -4.38268690e-01  -1.19621267e+00   1.62968580e-01
C     9.813075273999999e+00   4.131100176294291e+00   7.926840000000000e-02  1.28737620e+00   4.84539800e-01   2.19624200e-02
C     1.104411421920000e+01   4.890285324588664e+00   2.363988000000000e-01 -7.49304200e-02  -2.09446394e+00  -3.49125350e-01
C     3.722177558700000e+00   6.283133618753190e+00   8.881050000000000e-02 -1.84459826e+00   3.31659140e-01   2.02583690e-01
C     4.928561820400000e+00   7.017499364576500e+00  -9.399149999999779e-02 -6.37782780e-01  -4.87869920e-01  -3.29709540e-01
C     6.114172294599999e+00   6.284790955297254e+00  -2.127933000000013e-01  2.96089980e+00  -3.33878790e-01   4.86716120e-01
C     7.415067022699999e+00   6.971049794658549e+00  -2.347104000000009e-01 -2.15470311e+00   4.58399580e-01  -1.44442460e-01
C     8.644902653499999e+00   6.247636781407621e+00  -1.777068000000028e-01 -9.22395180e-01   1.57986632e+00   3.65328040e-01
C     9.841000125099999e+00   6.988418995875918e+00  -3.792539999999889e-02  6.97250140e-01   1.24048817e+00  -3.41273200e-01
C     1.106246274250000e+01   6.301119507307424e+00   1.235181000000000e-01  9.20073580e-01  -5.00983290e-01   2.61753010e-01
C     1.233616240740000e+01   6.987899397088210e+00   1.138983000000000e-01 -1.18147935e+00  -1.57739220e-01  -3.01213650e-01
