32
Lattice="9.86 0 0 4.93 8.53901048131456 0 0 0 30 " PBC="1 1 1" Properties=species:S:1:pos:R:3:force:R:3 Energy="-256.8046142"
C     1.250839747900000e+00   6.585577770235465e-01   3.478131000000000e+00  4.92244370e-01  -3.94837190e-01   1.24182670e-01
C     2.485911581000000e+00   1.375537755949157e+00   3.648735900000000e+00  7.40207600e-02  -1.47413258e+00  -6.98409020e-01
C     3.714406005300000e+00   6.362876961312872e-01   3.522938100000000e+00  7.06183280e-01   8.26862180e-01  -8.12169200e-02
C     4.979144261299999e+00   1.363266258598244e+00   3.504259800000000e+00 -7.75241120e-01  -1.66441588e+00   6.65125100e-02
C     6.242997582300000e+00   6.678492451070440e-01   3.436430400000000e+00 -2.64911993e+00  -1.10158151e+00   7.19325800e-02
C     7.415044394000000e+00   1.405266662495696e+00   3.409845000000000e+00  2.06232130e+00  -2.46215816e+00   4.63096000e-03
C     8.678073961300001e+00   6.541308124302951e-01   3.454865400000000e+00 -1.62238931e+00  -4.25072570e-01  -6.69993490e-01
C     9.874074952799999e+00   1.361245843328571e+00   3.461622300000000e+00  1.43116738e+00   4.34927940e-01   6.42671510e-01
C     2.506988464900000e+00   2.773046983594087e+00   3.804813300000000e+00 -1.03986327e+00   1.19074546e+00  -4.05428220e-01
C     3.720882842099999e+00   3.492545372880564e+00   3.745346100000000e+00  9.28326610e-01  -7.61265730e-01   3.77870000e-01
C     4.940065038700000e+00   2.746910267976274e+00   3.572905200000000e+00  9.23418760e-01   1.98565290e+00  -3.36557030e-01
C     6.181539906499999e+00   3.469496192672110e+00   3.415437000000000e+00 -5.50154520e-01   1.53835343e+00   1.53120890e-01
C     7.409304641499999e+00   2.785056931053997e+00   3.346533000000000e+00  9.32058110e-01   1.16043478e+00   7.79717380e-01
C     8.678612514499999e+00   3.476275825432810e+00   3.480162900000000e+00 -9.67425100e-01   9.27343840e-01  -5.39253100e-01
C     9.896027059600000e+00   2.791909913914722e+00   3.588731700000000e+00  7.42421400e-01  -1.19441700e-02  -5.11453600e-02
C     1.113627657590000e+01   3.524652052285364e+00   3.769338300000000e+00 -4.85130270e-01  -4.68681570e-01  -3.18638230e-01
C     3.749507999700000e+00   4.901469293564844e+00   3.814101600000000e+00 -1.34650030e-01   3.96829970e-01  -8.96432740e-01
C     4.968422546599999e+00   5.613251747591488e+00   3.520668300000000e+00 -6.31840180e-01   3.80912150e-01   2.89598290e-01
C     6.184448409300000e+00   4.940551832191175e+00   3.393837900000000e+00  6.86365720e-01  -2.30165731e+00   3.94050950e-01
C     7.424654886699999e+00   5.640318105280258e+00   3.384724200000000e+00  4.52963340e-01  -1.19316507e+00  -4.44301300e-01
C     8.691529410299999e+00   4.899469798870848e+00   3.451725600000000e+00 -1.52243383e+00   7.41902310e-01   4.95948420e-01
C     9.875256279399999e+00   5.648886063005786e+00   3.621596400000000e+00  1.20918153e+00  -6.21827510e-01  -2.38507710e-01
C     1.115400155280000e+01   4.979007863618589e+00   3.758958600000000e+00 -2.14989963e+00  -2.66814349e+00   5.04509030e-01
C     1.236777805370000e+01   5.604405759684732e+00   3.873195900000000e+00  1.37804833e+00   3.15095332e+00  -1.26645123e+00
C     4.980900573800001e+00   7.028859493338883e+00   3.406426200000000e+00 -9.94671020e-01   3.32505750e-01   4.76806830e-01
C     6.195565017000000e+00   7.754503920808445e+00   3.366908100000000e+00 -7.22867560e-01   1.01966941e+00  -4.19919000e-03
C     7.394010351800000e+00   7.044748371699438e+00   3.344586300000000e+00  2.10834641e+00   4.52353250e-01   3.24617910e-01
C     8.651256240300000e+00   7.766529153097115e+00   3.392563200000000e+00 -8.36402480e-01  -2.10317550e-01   8.06030700e-01
C     9.864762626499999e+00   7.051289509897433e+00   3.563023500000000e+00  6.99987530e-01   8.88970730e-01  -8.04229500e-01
C     1.112106757520000e+01   7.754681361446219e+00   3.511160100000000e+00  6.00468500e-01   9.26561340e-01   6.63686360e-01
C     1.236791348080000e+01   7.080194487322757e+00   3.641631300000000e+00 -2.97405860e-01  -2.15840054e+00   6.64228800e-02
C     1.360390175160000e+01   7.738895292771844e+00   3.462036000000000e+00 -4.80292300e-02   1.56262205e+00   5.12453190e-01
