32
Lattice="9.86 0 0 4.93 8.53901048131456 0 0 0 30 " PBC="1 1 1" Properties=species:S:1:pos:R:3:force:R:3 Energy="-257.36070895"
C     1.223876937000000e+00   8.860256593268080e-01   3.311461500000000e+00 -2.52792810e-01   8.43641260e-01   5.53780120e-01
C     2.461833066600000e+00   1.581093256509166e+00   3.295040700000000e+00  2.47984360e-01   2.05327700e-02   1.34969100e-01
C     3.697992507000000e+00   8.601813194278304e-01   3.410062800000000e+00  8.38741200e-02   1.65852549e+00   1.29275090e-01
C     4.904916110699999e+00   1.645357763991542e+00   3.414531300000000e+00  7.58228910e-01  -2.00008221e+00  -1.43670010e-01
C     6.151668839300000e+00   9.011022216204008e-01   3.416200500000000e+00 -1.08936567e+00  -4.63716480e-01   5.99531250e-01
C     7.374679526000000e+00   1.581231076138314e+00   3.449232900000000e+00  9.48121130e-01   3.87021110e-01  -6.17296030e-01
C     8.621236434999998e+00   8.801168348548576e-01   3.411197400000000e+00 -3.07835670e-01   2.07915640e-01   3.21447290e-01
C     9.835427351700000e+00   1.598235234657662e+00   3.306382500000000e+00  3.82845020e-01   5.08609000e-01   4.66296930e-01
C     2.456568023800000e+00   3.004694540747099e+00   3.242288700000000e+00  1.44713268e+00   4.80288330e-01   2.76773530e-01
C     3.706535556100000e+00   3.772724993827390e+00   3.269273400000000e+00 -8.82429960e-01  -1.62035639e+00   1.51442700e-01
C     4.938975557999999e+00   3.055410285690963e+00   3.374712000000000e+00 -1.27352340e+00  -4.08366320e-01  -8.25245200e-02
C     6.164929208199999e+00   3.718882007075435e+00   3.440081100000000e+00  6.77824640e-01   8.65422700e-01  -2.81704560e-01
C     7.387779374100000e+00   2.990952284231111e+00   3.407018700000000e+00  5.32960270e-01   1.61095991e+00   1.93951230e-01
C     8.629345841299999e+00   3.764884986745282e+00   3.362377200000000e+00 -1.26525868e+00  -1.68966247e+00   6.19596620e-01
C     9.835035564600000e+00   3.045169108861880e+00   3.338443500000000e+00  8.51287050e-01  -1.23505187e+00  -4.36401680e-01
C     1.109919533440000e+01   3.709569191465738e+00   3.303419700000000e+00 -6.62610200e-01  -7.44598700e-02  -4.37136230e-01
C     3.690735399099999e+00   5.178127768150137e+00   3.274757700000000e+00 -5.26998700e-02  -4.73546820e-01   3.32240380e-01
C     4.925033961700000e+00   5.858764096060876e+00   3.369178200000000e+00  3.47053910e-01   1.41240769e+00   3.35046200e-01
C     6.157346572400000e+00   5.157206082402774e+00   3.455467800000000e+00 -5.94542600e-02  -4.03220880e-01  -7.00494840e-01
C     7.372764960500000e+00   5.875893863424385e+00   3.429670200000000e+00  5.20195520e-01   7.47718690e-01   9.43692810e-01
C     8.617482387899999e+00   5.166415661375769e+00   3.460430700000000e+00 -6.51239530e-01   1.28118550e-01  -7.91423990e-01
C     9.841685345799998e+00   5.843019783147748e+00   3.406769400000000e+00  1.40239643e+00   7.14472490e-01   3.26073580e-01
C     1.110060521580000e+01   5.113288414482248e+00   3.296490300000000e+00 -9.99208290e-01   1.51268511e+00   4.72314620e-01
C     1.230898602890000e+01   5.847485258678264e+00   3.304612800000000e+00  2.58817700e-01   1.67621743e+00  -2.14122570e-01
C     4.932183595600000e+00   7.302262214008362e+00   3.424881600000000e+00  1.40827410e-01  -5.49102510e-01   3.95755470e-01
C     6.175927988900000e+00   8.030197060258974e+00   3.466655400000000e+00 -1.17209733e+00  -8.44610330e-01  -6.85227800e-01
C     7.389298455000000e+00   7.320776154970678e+00   3.484698600000000e+00  5.97846520e-01  -1.40511556e+00   9.49433300e-02
C     8.650243864800000e+00   7.990514314586003e+00   3.540070200000000e+00 -1.07075906e+00   3.88471690e-01  -7.36109800e-01
C     9.857287908400000e+00   7.280185797873789e+00   3.502746300000000e+00  9.15680950e-01  -7.95677080e-01  -4.91309530e-01
C     1.109246435610000e+01   7.997841212528368e+00   3.430229400000000e+00 -5.14291870e-01   6.92990750e-01  -9.88741900e-02
C     1.232574610620000e+01   7.313057060276968e+00   3.356375400000000e+00 -5.74526750e-01  -1.78991272e+00   7.61445850e-01
C     1.354864177600000e+01   8.004258022733772e+00   3.490350300000000e+00  7.15016740e-01  -1.03117070e-01  -1.39228034e+00
