32
Lattice="9.92 0 0 4.96 8.59097200554163 0 0 0 30 " PBC="1 1 1" Properties=species:S:1:pos:R:3:force:R:3 Energy="-258.00352748"
C     1.284581710110009e-03  -1.104768212772365e-03   2.997969364301421e+00 -2.19949300e-01   5.05940900e-02   4.46986500e-02
C     1.237455335723903e+00   7.165862320544516e-01   3.000140369192080e+00  1.68535980e-01  -3.11312500e-02   1.95754100e-02
C     2.480274960156965e+00  -9.377513255238936e-04   3.002704010591776e+00 -6.66117900e-02   2.47526800e-02  -1.55681300e-02
C     3.721100083287649e+00   7.145002462460460e-01   2.999787606090778e+00 -1.40232460e-01   2.30861800e-02   5.02816200e-02
C     4.958248571950082e+00  -3.252886953309284e-03   3.002350086025919e+00  6.34142300e-02   1.12687770e-01  -2.91931000e-02
C     6.195676292101598e+00   7.131792283578070e-01   2.998957970059963e+00  2.33524470e-01   1.40305890e-01   7.28345900e-02
C     7.440787236943441e+00  -2.482502643410344e-03   3.003928168004175e+00 -1.50603810e-01   1.61219670e-01  -7.32252400e-02
C     8.677637370137003e+00   7.156435070562694e-01   3.000437263216442e+00  1.88464660e-01  -2.74628300e-02   2.96623400e-02
C     1.237261340026016e+00   2.149421685913632e+00   3.003736376708099e+00  4.88217200e-02  -8.47068900e-02  -5.25674500e-02
C     2.477338042628297e+00   2.863315125678388e+00   3.000098301477310e+00  9.33823300e-02  -4.66629400e-02   1.64951800e-02
C     3.717302257295161e+00   2.147488679168710e+00   3.002417459065533e+00  9.55313500e-02  -6.63779400e-02  -3.53941000e-02
C     4.958107400379889e+00   2.863193473551141e+00   3.001616117608735e+00  5.82323400e-02   1.18973530e-01   2.16841300e-02
C     6.202586472338833e+00   2.150418843766612e+00   3.003708283651130e+00 -1.65814580e-01  -2.08555770e-01  -5.17664700e-02
C     7.443126775306819e+00   2.864307584907048e+00   3.001307655881741e+00 -4.01524300e-02  -1.21093510e-01   4.35190500e-02
C     8.684472362150942e+00   2.146559837195585e+00   3.004004302863795e+00 -2.44897110e-01   2.24010500e-02  -4.77470000e-02
C     9.918933202881181e+00   2.864215682711709e+00   3.001210234579635e+00  9.32091500e-02   3.24607600e-02   3.55508600e-02
C     2.482734865767354e+00   4.292726571512579e+00   2.997050148001370e+00 -1.57360930e-01   1.27573340e-01   4.86383900e-02
C     3.717718557154955e+00   5.015054020604809e+00   3.001275109564215e+00  8.69207800e-02  -2.70898980e-01  -1.63082200e-02
C     4.957071612157713e+00   4.298136618826119e+00   3.002502346724349e+00  1.18323990e-01  -5.84186100e-02  -1.43886400e-02
C     6.200509333610912e+00   5.012694255897257e+00   3.001005226091923e+00 -7.12349700e-02  -6.51537700e-02   1.07300100e-02
C     7.439398312992427e+00   4.292417518403995e+00   3.002642017168148e+00  8.35221000e-03   1.89344170e-01  -3.27077700e-02
C     8.678162986349028e+00   5.010854085998855e+00   2.999520463372539e+00  1.47665050e-01  -5.41837000e-03   3.16104400e-02
C     9.920911942801633e+00   4.296381863722207e+00   3.001858211940767e+00 -6.43559600e-02  -3.31715400e-02  -2.35453300e-02
C     1.116234480454251e+01   5.008916246558545e+00   3.000295637743541e+00 -5.40049200e-02   1.22554610e-01  -3.84965900e-02
C     3.717853462189815e+00   6.440233451983686e+00   3.002016099287363e+00  5.70561200e-02   2.61770450e-01  -1.53965100e-02
C     4.956179150719956e+00   7.159806289449222e+00   3.002832382628986e+00  2.18761760e-01  -9.86740000e-02  -4.46627000e-02
C     6.202254283327249e+00   6.445696243563594e+00   2.999688084191242e+00 -2.22892990e-01  -1.30254080e-01   4.97895800e-02
C     7.439235600622792e+00   7.156648231038713e+00   3.004311664259069e+00  1.85405140e-01   1.59715420e-01  -4.78788200e-02
C     8.683688696006651e+00   6.442028777978181e+00   3.001017737745854e+00 -2.06212500e-01  -2.07808300e-02   2.09908400e-02
C     9.922040639483996e+00   7.157609731414818e+00   3.002491092945269e+00 -7.02856700e-02  -2.73322000e-02  -3.71913000e-02
C     1.115995036229173e+01   6.444093805801391e+00   2.996536748789368e+00  1.31649750e-01  -1.18141770e-01   5.06963100e-02
C     1.240169054170712e+01   7.160280783140636e+00   2.998386210285729e+00 -1.22641620e-01  -1.33204340e-01   2.92799700e-02
