32
Lattice="9.86 0 0 4.93 8.53901048131456 0 0 0 30 " PBC="1 1 1" Properties=species:S:1:pos:R:3:force:R:3 Energy="-254.00515529"
C     9.814452962500001e+00   2.877193964204560e-02   3.513088200000000e+00 -9.27274400e-02   5.90188020e-01  -5.93516430e-01
C     1.197530031000000e+00   7.059145314148928e-01   3.502783500000000e+00  8.17024120e-01   1.24331096e+00  -6.93527600e-02
C     7.304539430000000e+00   8.466907929407929e+00   3.456182700000000e+00  3.85913304e+00   3.61015670e+00   7.60794900e-02
C     3.740302654400000e+00   6.912031825995295e-01   3.474855600000000e+00 -3.73333540e+00  -2.32154190e-01  -1.20076460e-01
C     4.983395844000000e+00   2.514687352297120e-02   3.484757100000000e+00 -4.02719782e+00  -2.46888635e+00  -9.80696290e-01
C     6.158523856400000e+00   6.623298849030864e-01   3.417583200000000e+00  3.30491734e+00   1.96160548e+00   2.63276320e-01
C     7.395059751600000e+00   8.208721554633600e-03   3.451101000000000e+00  1.81603020e+00   1.38684270e-01   1.86969340e-01
C     8.613710247699998e+00   7.732349799678504e-01   3.560583000000000e+00 -7.83385150e-01   9.69116880e-01  -9.96550240e-01
C     1.285595114000000e+00   2.183860640050689e+00   3.513278100000000e+00 -4.46692316e+00  -2.00508249e+00   3.46668640e-01
C     2.422426048300000e+00   2.910232505823042e+00   3.610676400000000e+00  4.32998572e+00  -7.80357517e+00  -1.00427308e+00
C     3.698609250000000e+00   2.098747028410032e+00   3.432058800000000e+00 -2.72707300e-01  -3.40734390e-01   6.90894270e-01
C     4.979115174300000e+00   2.686795121856445e+00   3.325088700000000e+00 -2.97277103e+00   5.27574365e+00   7.54375210e-01
C     6.202475595200000e+00   2.068158243508157e+00   3.379126500000000e+00  1.04067910e-01   1.41166857e+00   3.43014180e-01
C     7.359278255300000e+00   2.922066891227484e+00   3.493265400000000e+00  1.30141079e+00  -8.22662770e-01  -3.62286150e-01
C     8.610483611999999e+00   2.275746370122826e+00   3.495375900000000e+00  5.73763270e-01  -3.71596250e+00   4.95941940e-01
C     9.877152801099999e+00   2.923924638347513e+00   3.480230100000000e+00 -2.59722690e-01  -1.30817259e+00   5.42751090e-01
C     2.466375322100000e+00   4.189562596935716e+00   3.662838900000000e+00  1.73226760e-01   8.37250780e+00  -1.09395458e+00
C     3.688281393000000e+00   4.968220531679205e+00   3.508752300000000e+00  5.65641970e-01  -1.59655828e+00  -4.72098560e-01
C     4.853267655900000e+00   4.200419777980827e+00   3.362538000000000e+00  4.23146222e+00   1.15925138e+00   6.05388890e-01
C     6.153794606000000e+00   5.078713790268518e+00   3.417058800000000e+00 -1.28234080e+00  -4.74500990e+00  -3.79345070e-01
C     7.434100865300000e+00   4.347996934403522e+00   3.502185600000000e+00 -5.54978443e+00  -1.36540676e+00  -7.13428390e-01
C     8.598607833599999e+00   5.004596374763586e+00   3.428546100000000e+00  2.81805913e+00   1.08537474e+00  -1.87833730e-01
C     9.833628542600000e+00   4.318257183313674e+00   3.485978700000000e+00  2.83193633e+00   9.77955100e-02  -1.20522890e-01
C     1.114884738570000e+01   4.935149883381317e+00   3.510957000000000e+00 -2.80251850e+00   3.71901736e+00  -2.25985590e-01
C     3.756187607400000e+00   6.395580346770014e+00   3.391255500000000e+00 -3.54257128e+00  -7.16883390e-01   5.99444370e-01
C     4.880476769600000e+00   7.143968257872847e+00   3.366173400000000e+00  2.56898466e+00   8.02363870e-01   5.53907840e-01
C     6.122497536300000e+00   6.445578900223664e+00   3.367710000000000e+00 -4.23227420e-01  -5.01694300e-02  -7.74382000e-03
C     7.355361222399999e+00   7.104455694678743e+00   3.363635700000000e+00  6.51325060e-01  -5.89593900e-01   3.91993800e-02
C     8.597055918899999e+00   6.390672038156005e+00   3.308509800000000e+00  8.82082260e-01   2.38311771e+00   9.71440650e-01
C     9.842411485500000e+00   7.144143905318420e+00   3.384139200000000e+00  1.42734069e+00  -1.39386965e+00  -1.61589070e-01
C     1.114241639790000e+01   6.477120809475315e+00   3.366079500000000e+00 -1.30387335e+00  -3.62548078e+00   8.71721500e-01
C     1.238354858140000e+01   7.135456059885754e+00   3.399091200000000e+00 -7.43305710e-01  -3.97003700e-02   1.48179980e-01
