32
Lattice="9.86 0 0 4.93 8.53901048131456 0 0 0 30 " PBC="1 1 1" Properties=species:S:1:pos:R:3:force:R:3 Energy="-249.35104133"
C     9.625931487999999e+00   7.939599269137536e-01   4.687467600000001e+00  7.44302949e+00  -7.57328066e+00  -4.52489170e-01
C     1.127316921700000e+00   1.439328689910311e+00   4.759497300000000e+00 -2.47088220e+00  -6.14565060e-01  -5.37484990e-01
C     2.371077879800000e+00   7.411715933461840e-01   4.492302000000000e+00 -1.50880102e+00  -4.76451714e+00  -1.97933880e+00
C     3.715335852600000e+00   1.244926588668963e+00   4.258893000000000e+00 -4.35240049e+00   8.29753320e-01   2.98712371e+00
C     4.919572409100000e+00   5.291562459679496e-01   4.515381900000000e+00 -5.64715858e+00  -1.16625790e+00  -2.33701832e+00
C     5.947343510300000e+00   1.409682611765428e+00   4.400558999999999e+00  3.30433306e+00  -3.28344039e+00   9.52127500e-01
C     7.121900086399999e+00   5.884459259446768e-01   4.506127200000000e+00  3.47474893e+00   2.39666372e+00  -7.27415640e-01
C     8.448052929999999e+00   1.350079550104085e+00   4.611910200000000e+00 -4.19381853e+00  -2.67546044e+00   6.41656580e-01
C     1.089187389650000e+01   2.838648102386897e+00   4.882598100000000e+00  1.27703960e-01  -9.03193570e-01  -3.41320000e-03
C     2.314368040500000e+00   3.416922188267588e+00   4.577763900000000e+00 -4.26164390e-01  -8.27818540e-01   1.30621890e+00
C     3.566664307600000e+00   2.627737019843936e+00   4.449435900000000e+00  8.78615400e-02   3.59509352e+00   6.77236020e-01
C     4.710266498299999e+00   3.465952332542700e+00   4.640221200000000e+00  1.81615263e+00   1.07153086e+00  -2.13608921e+00
C     5.925344272700000e+00   2.813231225352548e+00   4.357418400000000e+00  2.69885800e-01  -1.80509855e+00   7.72751840e-01
C     7.227486586600000e+00   3.338011057669288e+00   4.303511100000000e+00  6.18323520e-01   3.05007530e+00   1.60315772e+00
C     8.407631465600000e+00   2.666005619991314e+00   4.796216400000000e+00 -7.86608330e-01   5.61314125e+00  -9.09725860e-01
C     9.549322738999999e+00   3.512323514344445e+00   5.097025500000000e+00  3.82318787e+00  -8.60647390e-01  -2.70716700e+00
C     1.218489930930000e+01   4.796960515080333e+00   4.651453500000001e+00  2.23930399e+00   2.65224229e+00  -3.87023420e-01
C     3.571793627500000e+00   5.619514343267626e+00   4.579728300000000e+00 -8.82710500e-01  -1.96234795e+00   1.34252350e-01
C     4.811387355200000e+00   4.951544356552394e+00   4.638243000000000e+00 -2.03443484e+00  -2.63867511e+00  -1.31677087e+00
C     5.959367878900000e+00   5.624225656909860e+00   4.242813900000001e+00  3.34428631e+00  -4.87449293e+00   5.15378660e-01
C     7.325044236699999e+00   4.736083860005898e+00   4.178684400000000e+00 -3.26019441e+00   3.35593650e+00   1.04058865e+00
C     8.444095323199999e+00   5.590079264071702e+00   4.405930800000000e+00  1.27583272e+00  -5.55102474e+00   5.59407470e-01
C     9.727430328000001e+00   4.917027797609928e+00   4.804740000000000e+00 -3.27367721e+00  -9.41780010e-01  -7.54696180e-01
C     1.098515999740000e+01   5.536192813756405e+00   4.658084100000000e+00 -4.12551060e-01  -1.56385810e+00   6.33450030e-01
C     1.346833616790000e+01   6.990950641703027e+00   4.426071900000000e+00 -3.53027057e+00   3.18896358e+00   1.46424208e+00
C     4.791857554600000e+00   7.731346124386684e+00   4.507451100000000e+00 -1.69477703e+00   2.37053924e+00  -5.01098100e-01
C     5.956625171999999e+00   6.974483074602243e+00   4.261354500000000e+00  9.55494360e-01   5.06789154e+00   4.77505220e-01
C     7.132802929299999e+00   7.794959446929855e+00   4.213953300000000e+00  3.06188844e+00  -1.22907637e+00   1.41594111e+00
C     8.355601182299999e+00   6.901435853280768e+00   4.332070500000000e+00  1.68754748e+00   8.22899912e+00  -4.12828940e-01
C     9.689341936800000e+00   7.606310247829093e+00   4.455933000000000e+00  1.25446415e+00   5.49256040e-01   6.25099670e-01
C     1.098816281110000e+01   6.907917303795508e+00   4.537960200000000e+00 -3.27281618e+00   2.50233177e+00  -3.49212500e-01
C     1.210644851510000e+01   7.735925851877423e+00   4.493530199999999e+00  2.96322107e+00  -1.23688322e+00  -2.94365300e-01
