32
Lattice="9.86 0 0 4.93 8.53901048131456 0 0 0 30 " PBC="1 1 1" Properties=species:S:1:pos:R:3:force:R:3 Energy="-255.031288"
C     9.656584058800000e+00   6.710630724814016e-01   4.248144600000000e+00  1.19456118e+00   3.63880610e-01   7.20160450e-01
C     1.070202723800000e+00   1.390600228875458e+00   4.271602200000000e+00 -3.50264872e+00   1.93669905e+00  -2.59618950e-01
C     2.242968280200000e+00   7.505460606115472e-01   4.427684400000000e+00  3.89184332e+00  -2.85270488e+00   3.03764370e-01
C     3.503080470700000e+00   1.436807632456196e+00   4.537252800000000e+00 -7.40977860e-01   4.55535940e-01   1.30469010e-01
C     4.698105815200000e+00   6.557997620286111e-01   4.670177700000000e+00  5.05837430e-01   4.86372922e+00  -1.22229055e+00
C     5.950787608300000e+00   1.428326858027670e+00   4.527710100000000e+00  3.24220100e-01  -3.82022997e+00   6.47998000e-01
C     7.195019233499999e+00   6.739459278095543e-01   4.429068600000000e+00 -2.37022000e-03   2.53196078e+00  -7.18654390e-01
C     8.419299986799999e+00   1.389875437665915e+00   4.248477600000000e+00  4.97183300e-02  -7.40711740e-01   6.70348340e-01
C     1.090135882210000e+01   2.845393579105678e+00   4.235301900000000e+00  2.69729194e+00  -1.99122993e+00  -1.52962310e-01
C     2.327805593600000e+00   3.561914500827883e+00   4.250143500000000e+00 -2.83896009e+00   1.36210580e-01   6.38589470e-01
C     3.524596075300000e+00   2.900152203951403e+00   4.479969600000000e+00  1.52816910e-01  -3.16069691e+00   3.63288240e-01
C     4.750945160800000e+00   3.550627295215000e+00   4.700055900000000e+00 -6.93195100e-02  -2.27274238e+00  -1.53461393e+00
C     5.981824916299999e+00   2.795651793697163e+00   4.576040700000000e+00 -1.56314017e+00   1.60239600e+00   7.04218630e-01
C     7.157112759300000e+00   3.523412358743878e+00   4.494403200000000e+00  3.15710838e+00  -1.76255376e+00  -1.39911954e+00
C     8.412093017000000e+00   2.774865195095594e+00   4.298094300000000e+00  2.31236430e-01   2.46625579e+00   4.53118920e-01
C     9.696095839600000e+00   3.503347818868498e+00   4.280160299999999e+00 -1.70425063e+00  -1.24397453e+00  -8.98772890e-01
C     1.214067504010000e+01   4.983182842012575e+00   4.302903300000000e+00 -1.27855328e+00   2.28146400e-01  -3.88530900e-02
C     3.467890870200000e+00   5.641469420063276e+00   4.413519600000000e+00  3.03665009e+00   1.97989326e+00   1.06217704e+00
C     4.729840323800000e+00   4.891556954029346e+00   4.587793200000000e+00  6.19136620e-01   4.53604877e+00   2.62929360e-01
C     6.008541177900000e+00   5.607160615245790e+00   4.653615000000000e+00 -1.73923866e+00   3.06450405e+00  -1.27292170e+00
C     7.199424188500000e+00   4.920955144699994e+00   4.428831600000000e+00  1.05342129e+00   6.88732710e-01   1.96961812e+00
C     8.472346491000000e+00   5.598814330232323e+00   4.497090300000000e+00  1.38052570e-01   1.22907532e+00  -9.98237750e-01
C     9.724048693100000e+00   4.870975291679296e+00   4.243107300000000e+00 -1.97485018e+00   5.22889467e+00   2.12273362e+00
C     1.089565846030000e+01   5.747697186747517e+00   4.351639200000000e+00  4.46962100e-01  -3.06970521e+00  -6.32224310e-01
C     1.335952515190000e+01   7.121464976604378e+00   4.468220100000000e+00  2.47436346e+00  -2.76433486e+00  -5.43406040e-01
C     4.751714931000000e+00   7.807692733967526e+00   4.469562000000000e+00  7.02567340e-01  -3.56912500e-02  -4.25801770e-01
C     6.029072162899999e+00   7.124593157703622e+00   4.572496800000001e+00 -1.56831362e+00  -2.60469086e+00  -1.74400960e-01
C     7.252461670799999e+00   7.808516577698636e+00   4.503142199999999e+00 -1.46889127e+00   1.04920864e+00   8.49941840e-01
C     8.460855301900001e+00   7.088989411946843e+00   4.647329400000000e+00 -1.02703630e+00  -2.16829808e+00  -1.56824275e+00
C     9.608382807900000e+00   7.851625003595974e+00   4.563002100000000e+00  3.68331601e+00  -3.17996034e+00   6.76625760e-01
C     1.090437282690000e+01   7.137480403100247e+00   4.488499500000000e+00 -1.81978200e-01   4.88615950e-01  -6.65001950e-01
C     1.220997328930000e+01   7.839023302709800e+00   4.397113800000001e+00 -4.69857481e+00  -1.18226304e+00   9.29141740e-01
