32
Lattice="9.86 0 0 4.93 8.53901048131456 0 0 0 30 " PBC="1 1 1" Properties=species:S:1:pos:R:3:force:R:3 Energy="-255.54137144"
C     9.772552843200000e+00   3.907973783089376e-01   3.997110600000001e+00  1.87998847e+00  -1.57891794e+00   1.77772590e-01
C     1.186960061700000e+00   1.110256402757102e+00   4.008785700000000e+00 -1.54869247e+00  -4.52618462e+00   5.52842310e-01
C     2.369910751600000e+00   3.383159367780192e-01   4.225035600000000e+00  1.45403587e+00   8.62768790e-01  -6.59025020e-01
C     3.652169537400000e+00   9.787319883060720e-01   4.111665900000000e+00  2.78583900e-01  -5.16549520e-01  -1.43493860e-01
C     4.914580784100000e+00   2.438337497892296e-01   4.127765400000000e+00 -1.53176297e+00   2.20002244e+00   2.70802650e-01
C     6.105748206399999e+00   1.043018270265171e+00   4.127672700000000e+00  2.59094240e-01  -1.09638973e+00   2.32280970e-01
C     7.359728117799999e+00   3.060215699228688e-01   4.104279300000000e+00 -1.38751253e+00   1.20863170e-01  -4.77822860e-01
C     8.555800051999999e+00   1.066045590606797e+00   4.031331900000000e+00  1.17134520e-01  -2.35050139e+00  -5.00254520e-01
C     1.104511288930000e+01   2.441337166883815e+00   3.857042400000000e+00 -1.05579594e+00   3.72394701e+00  -3.71628330e-01
C     2.419681418700000e+00   3.119320765798837e+00   3.859865399999999e+00  1.12194450e-01   1.92402246e+00  -1.12677270e-01
C     3.649365057600000e+00   2.367716465618504e+00   3.933536100000000e+00 -1.36320830e-01   3.47759702e+00   6.43292940e-01
C     4.840927422200000e+00   3.219204730817276e+00   4.055619600000000e+00  4.60551420e-01  -2.47507108e+00   3.38390100e-02
C     6.056900731100001e+00   2.496904777582415e+00   4.194783600000000e+00  1.50989850e+00  -8.71602050e-01  -8.79652520e-01
C     7.321814100699999e+00   3.183536515531372e+00   4.141861799999999e+00 -1.17385880e-01  -6.37905600e-02  -4.81303320e-01
C     8.585664858099999e+00   2.425823834204170e+00   3.929639700000000e+00 -2.30767348e+00   4.23565084e+00   1.01177031e+00
C     9.766298300100001e+00   3.179754758569989e+00   3.825224100000000e+00  1.98349247e+00   6.40581780e-01   4.90905510e-01
C     1.225151682170000e+01   4.625894248629253e+00   3.868348200000000e+00  9.91233270e-01  -2.98173674e+00  -4.52908600e-02
C     3.645598882700000e+00   5.262532471140745e+00   4.051868700000000e+00 -9.51016010e-01   2.90057002e+00  -2.82117510e-01
C     4.857739856100000e+00   4.625575401977930e+00   4.086829500000000e+00  1.69483797e+00  -7.66590700e-01   1.15433040e+00
C     6.113128416399999e+00   5.366881143178755e+00   4.352645099999999e+00 -1.73246830e+00  -1.28697517e+00  -1.47307729e+00
C     7.305569652099999e+00   4.625595212482244e+00   4.194332100000000e+00  1.79820203e+00  -1.08180928e+00   7.02395530e-01
C     8.587284511000000e+00   5.294608153937502e+00   4.152956100000001e+00 -2.07690741e+00   2.04755006e+00  -2.32978330e-01
C     9.805337293899999e+00   4.663514737881200e+00   3.935024700000000e+00 -4.80032830e-01  -3.54941913e+00  -7.92129820e-01
C     1.103083812360000e+01   5.336531450570321e+00   3.825420000000000e+00  5.93884910e-01   7.67811400e-02   1.72121651e+00
C     1.355355890870000e+01   6.713268852101812e+00   4.122542100000000e+00 -2.49122374e+00  -4.95570380e-01  -1.55550315e+00
C     4.863630910300000e+00   7.476646312981445e+00   4.039722900000000e+00  8.31377370e-01   5.09785490e-01   1.95774937e+00
C     6.080742901299999e+00   6.779354645129466e+00   4.356514199999999e+00  3.73287500e-01   1.23508700e-01  -8.92831720e-01
C     7.315102694500000e+00   7.487298899335455e+00   4.384907100000000e+00  2.25284790e-01  -1.23898964e+00  -9.62045570e-01
C     8.548624880700000e+00   6.743602149810126e+00   4.204504800000000e+00 -3.38249660e-01  -1.17814055e+00   8.14129960e-01
C     9.796679227899999e+00   7.372639628313159e+00   4.133917500000000e+00  6.81750390e-01   2.24895656e+00   2.32647870e-01
C     1.105088478540000e+01   6.742692318243481e+00   4.086123300000000e+00 -7.23104270e-01  -2.49117729e+00  -1.54459491e+00
C     1.227636737410000e+01   7.372890675221272e+00   4.014339900000000e+00  1.63331427e+00   3.45681030e+00   1.41045092e+00
