32
Lattice="9.86 0 0 4.93 8.53901048131456 0 0 0 30 " PBC="1 1 1" Properties=species:S:1:pos:R:3:force:R:3 Energy="-254.25895822"
C     5.172497530199999e+00   7.763791802507540e+00  -9.141422999999982e-01 -1.41699669e+00  -4.70428964e+00   1.07170813e+00
C     6.435300021700000e+00   8.388600677630773e+00  -8.297286000000028e-01 -2.16975804e+00   5.44523110e-01  -2.88143160e-01
C     7.602645437500000e+00   7.644444870902039e+00  -8.886459000000002e-01  1.59527694e+00  -7.23301100e-01   9.11287500e-01
C     8.797821985099999e+00   8.400226369619084e+00  -7.874213999999995e-01  2.02507974e+00  -1.05877914e+00  -8.30325200e-02
C     1.010289321200000e+01   7.683127186107172e+00  -7.532736000000000e-01 -1.73675266e+00   2.03941670e-01  -1.14779103e+00
C     1.130130729060000e+01   8.411167318357002e+00  -1.000920600000001e+00 -4.27899130e-01  -5.43679300e-02   1.77699905e+00
C     1.249284835760000e+01   7.706510241625395e+00  -8.373738000000017e-01  1.86152384e+00  -2.18991905e+00   5.07602540e-01
C     1.371771420330000e+01   8.420939618120629e+00  -8.368967999999981e-01  4.02522183e+00  -1.05291759e+00  -8.08323840e-01
C     1.512437971500000e+00   1.240120748180714e+00  -6.439691999999972e-01 -6.52630490e-01   3.15654147e+00  -9.73667400e-02
C     2.738014723200000e+00   1.998647624157184e+00  -4.491704999999975e-01 -2.78098185e+00   8.72776170e-01  -2.16408970e-01
C     3.895967503000000e+00   1.310751258756139e+00  -6.453008999999987e-01  1.20564986e+00  -3.03537177e+00   4.62614600e-01
C     5.122930767900000e+00   1.954447912720503e+00  -5.537978999999993e-01  2.81015824e+00   6.16647450e-01  -2.03640842e+00
C     6.421251937400000e+00   1.318146554172448e+00  -9.390354000000016e-01 -2.93144298e+00  -2.06810637e+00   1.37836893e+00
C     7.639316601599999e+00   1.934335895946854e+00  -8.380392000000008e-01  1.92714070e+00   2.84189454e+00  -3.74901770e-01
C     8.956934777100001e+00   1.285423955941726e+00  -8.532186000000017e-01 -4.78221799e+00  -1.07349170e-01  -7.94302700e-02
C     1.011392596040000e+01   2.004133426049955e+00  -7.398813000000004e-01  2.53748773e+00   1.30026492e+00   1.00109237e+00
C     2.721060305300000e+00   3.443752442316586e+00  -2.782419000000012e-01 -1.82158193e+00  -2.22513686e+00  -4.38351000e-02
C     3.929834236600000e+00   4.119217630870742e+00  -3.268205999999978e-01  9.62505600e-02   9.60198030e-01  -1.35210544e+00
C     5.119464238399999e+00   3.353366418655053e+00  -5.035178999999985e-01  1.65402764e+00   1.94383864e+00   1.89725150e-01
C     6.380710181000000e+00   4.081229622607737e+00  -6.809891999999991e-01  1.69348900e-02  -8.21950740e-01   2.29599780e-01
C     7.627667948299999e+00   3.376101277887738e+00  -7.649262000000014e-01 -1.11657426e+00  -4.65554240e-01   6.71816130e-01
C     8.817746185699999e+00   4.107041599656996e+00  -6.153401999999986e-01  1.08737036e+00   2.27953304e+00  -7.29701460e-01
C     1.009154326740000e+01   3.537659783119862e+00  -5.745557999999988e-01 -1.37481937e+00  -6.62750284e+00   3.75809000e-02
C     1.129242673370000e+01   4.103924519271377e+00  -2.956380000000003e-01  2.39887379e+00   1.88173934e+00  -9.24719820e-01
C     3.898691821000000e+00   5.552647486951365e+00  -6.274265999999997e-01  4.54661208e+00  -1.86516990e+00   1.30454163e+00
C     5.217802061000000e+00   6.184968385764168e+00  -8.029271999999992e-01 -3.07056918e+00   4.31179247e+00  -1.34176700e-01
C     6.429904333900000e+00   5.512344979897756e+00  -7.413182999999997e-01 -2.28436629e+00  -2.26244906e+00  -2.34011180e-01
C     7.616005392400000e+00   6.175742668061367e+00  -8.077055999999985e-01  1.01387081e+00   4.31651381e+00  -3.07556120e-01
C     8.830263998000000e+00   5.562976615588393e+00  -6.774123000000003e-01  1.93893823e+00  -2.03563733e+00   4.54419200e-01
C     1.011856252680000e+01   6.240100165367869e+00  -6.415505999999986e-01 -1.30086070e+00   8.59861300e-01   1.10043920e-01
C     1.132383867240000e+01   5.502926707508631e+00  -4.652759999999994e-01  7.05820730e-01   1.60769479e+00   4.39053180e-01
C     1.258739343260000e+01   6.211542127938347e+00  -5.262273000000022e-01 -3.57878642e+00   3.60004199e+00  -1.68854048e+00
