32
Lattice="9.86 0 0 4.93 8.53901048131456 0 0 0 30 " PBC="1 1 1" Properties=species:S:1:pos:R:3:force:R:3 Energy="-256.7501862"
C     1.240735910100000e+00   8.983559050698232e-01   3.342942600000000e+00  6.71487120e-01  -1.03248962e+00   6.23838230e-01
C     2.487883531700000e+00   1.594540746383385e+00   3.336241800000000e+00 -1.03358119e+00  -5.17259200e-02  -7.02695400e-02
C     3.698005226399999e+00   8.779462183908416e-01   3.395391900000000e+00  6.53610260e-01   3.40711520e-01  -1.39727010e-01
C     4.944040442800000e+00   1.561364214355546e+00   3.350093400000000e+00  1.08430145e+00  -9.62559690e-01   4.54577900e-02
C     6.196505020099999e+00   8.426573059504600e-01   3.357482400000000e+00 -3.62903240e-01   6.85940160e-01   5.62010320e-01
C     7.412034431800000e+00   1.595603767798040e+00   3.448557000000000e+00 -1.64992260e-01  -4.51603760e-01   8.03858500e-02
C     8.663782532199999e+00   8.259021449767088e-01   3.443319000000000e+00 -1.45174054e+00   2.00584534e+00   7.55676800e-02
C     9.870465551900001e+00   1.571338888667548e+00   3.429145500000000e+00  1.89525600e-01   1.74818610e-01  -7.11855450e-01
C     2.464059849000000e+00   3.008138323673683e+00   3.252876000000000e+00  1.63358142e+00   1.72062020e-01  -1.77247600e-01
C     3.735979290900000e+00   3.701244595538891e+00   3.242259300000000e+00 -1.08049813e+00   3.69472910e-01  -1.71086480e-01
C     4.988295672400000e+00   2.947941715393875e+00   3.323059800000000e+00 -2.59968170e+00   2.79571823e+00   7.60055900e-02
C     6.127864038500000e+00   3.752331445878215e+00   3.432487500000000e+00  2.17159326e+00  -8.48111090e-01  -1.09599740e-01
C     7.351918751299999e+00   3.049028997769154e+00   3.525611700000000e+00  2.66538460e+00  -1.31217911e+00  -1.02719090e+00
C     8.671507546399999e+00   3.716213566300435e+00   3.405827700000000e+00 -2.52783739e+00  -3.74433360e-01   2.42238480e-01
C     9.873387760099998e+00   2.992788854605149e+00   3.337224600000000e+00  1.94364050e-01   4.83970310e-01   1.62135960e-01
C     1.110779364880000e+01   3.723618083848062e+00   3.218409300000000e+00  9.46750800e-02  -4.79823500e-02   3.93518940e-01
C     3.697047327400000e+00   5.153228440540981e+00   3.195763800000000e+00  1.98538765e+00  -1.08627440e+00   8.19724100e-01
C     4.984469598000000e+00   5.829449929253351e+00   3.382455000000000e+00 -3.46154894e+00   1.73640343e+00  -6.32493090e-01
C     6.177649298400000e+00   5.187594029778159e+00   3.415496400000000e+00  7.69079100e-02  -2.96637873e+00   3.91292800e-01
C     7.393021245900000e+00   5.839777435478386e+00   3.489751500000000e+00  1.56822748e+00   1.30137767e+00  -3.92789710e-01
C     8.633815675099999e+00   5.122207667098922e+00   3.350360400000000e+00  3.75477730e-01   7.89554770e-01   7.95536300e-01
C     9.852428505999999e+00   5.849089653357351e+00   3.308650800000000e+00  1.41498051e+00   3.37714480e-01  -2.65248950e-01
C     1.115906752220000e+01   5.151129893325416e+00   3.226875600000000e+00 -3.35286623e+00  -1.91504500e-02  -3.05834010e-01
C     1.233970303480000e+01   5.891452367469468e+00   3.173830500000000e+00  9.36610930e-01  -1.49131550e+00   7.36462120e-01
C     4.946048481100000e+00   7.239452241571149e+00   3.432792600000000e+00 -2.31962300e-02   1.64675463e+00  -5.73250070e-01
C     6.176225563700000e+00   8.008561769405798e+00   3.400710600000000e+00 -3.39129470e-01  -1.07554620e+00   8.48037790e-01
C     7.403377844800000e+00   7.275647655364088e+00   3.529021800000000e+00  5.04643000e-01   5.49062260e-01  -8.94762240e-01
C     8.653244361399999e+00   8.017838977341793e+00   3.471717600000000e+00 -1.04644430e+00  -1.52711004e+00  -4.17650870e-01
C     9.863348603900000e+00   7.289973297076070e+00   3.336446100000000e+00  4.45383210e-01  -9.64665060e-01   5.21605710e-01
C     1.113043344130000e+01   7.954626134390135e+00   3.345638100000000e+00 -1.91937433e+00   1.65565641e+00  -1.31781530e-01
C     1.232786733730000e+01   7.286460348164598e+00   3.336768300000000e+00  7.13399570e-01  -9.92113280e-01  -5.56379980e-01
C     1.354591627480000e+01   7.959588238770168e+00   3.395043900000000e+00  1.98425311e+00   1.58575840e-01   2.03349520e-01
