26
Lattice="8.88768389401873 1.33226762955019e-15 0 4.44384194700937 7.69696003302603 0 0 0 30 " PBC="1 1 1" Properties=species:S:1:pos:R:3:force:R:3 Energy="-205.5358549"
C     8.894807820550230e-01   1.158885320865721e+00   3.216613200000000e+00 -1.35635828e+00  -3.52325836e+00   6.98511140e-01
C     3.236590780964113e+00   5.921040442278099e-01   3.347003400000000e+00  3.88997410e+00  -1.89102677e+00   1.71183150e-01
C     4.655480984775616e+00   9.589257653375499e-01   3.450074400000000e+00 -2.35216940e-01   2.36281488e+00   1.06412935e+00
C     5.696279827476364e+00   9.347873289874670e-02   3.663064500000000e+00  2.32576719e+00  -4.03676447e+00  -1.58319050e-01
C     7.147732594183311e+00   4.210765147868058e-01   3.557611800000000e+00 -2.89973765e+00   1.36679900e-01   6.28907450e-01
C     1.248483898954828e+01   7.005231538167889e+00   3.522150600000000e+00  9.65585060e-01   8.14928490e-01  -1.33084283e+00
C     4.955548261118786e+00   7.324041008063295e+00   3.279540900000000e+00  1.40179417e+00   4.68152908e+00   6.23185600e-02
C     6.064234521794733e+00   6.428330606360936e+00   3.233300100000000e+00 -2.18234937e+00   1.02565133e+00  -3.46272510e-01
C     7.374908464409739e+00   6.940570839378265e+00   3.279108000000000e+00  2.63762562e+00  -3.05144971e+00   1.95878509e+00
C     8.503683690250027e+00   5.971761715544593e+00   3.660935100000000e+00 -3.87122232e+00  -2.13309996e+00  -3.16102497e+00
C     9.831453003838556e+00   6.311510149444810e+00   3.792376500000000e+00  1.12304931e+00   4.07719170e-01  -4.40727740e-01
C     1.080781031674183e+01   5.196643666021060e+00   3.751939500000000e+00  2.14996940e-01   1.68483302e+00  -1.26257147e+00
C     3.255207682349767e+00   5.605178369286982e+00   3.447217500000000e+00 -2.88162843e+00   3.10731243e+00   1.85651696e+00
C     4.257063849375769e+00   4.745047550171299e+00   3.286822800000000e+00  3.32173121e+00  -5.30860996e+00  -4.62519170e-01
C     5.646059795143681e+00   5.083324479252982e+00   3.187668900000000e+00  1.47276057e+00   2.53247530e-01   4.26615150e-01
C     6.710425709218857e+00   4.139507692515122e+00   3.230643300000000e+00  1.09814244e+00   4.22567480e-01   3.18307070e-01
C     8.142895583009302e+00   4.521312162080060e+00   3.351739500000000e+00 -5.46603170e-01   1.42846552e+00   1.74321901e+00
C     9.158855037792593e+00   3.494469114164191e+00   3.452093700000000e+00 -3.10933619e+00   1.34003039e+00  -1.14654408e+00
C     1.048219006367056e+01   3.794579512393115e+00   3.574044600000000e+00  4.55313800e-02   4.05272212e+00   6.50888370e-01
C     2.557170187677539e+00   2.851277421372461e+00   3.454389600000000e+00  4.90394153e+00   1.25328810e-01  -5.25820270e-01
C     4.010831632772888e+00   3.278780051118713e+00   3.337576500000000e+00 -2.68919713e+00   2.11376561e+00   1.13446466e+00
C     5.075533190264309e+00   2.387516952921688e+00   3.502389300000000e+00 -3.78866625e+00  -2.33575196e+00  -1.66178902e+00
C     6.365332140833391e+00   2.790665939315419e+00   3.371473500000000e+00  3.89304907e+00  -1.07504940e+00   5.62638880e-01
C     7.479364965463708e+00   1.828240443221828e+00   3.469071000000000e+00 -3.59383164e+00  -2.10635656e+00  -1.08612332e+00
C     8.770979669812625e+00   2.171521550867015e+00   3.230778300000000e+00  2.28055085e+00  -9.91779360e-01   1.13451292e+00
C     2.247380766055058e+00   1.490910009315034e+00   3.360752700000000e+00 -2.42035207e+00   2.49555074e+00  -8.28443350e-01
