32
Lattice="9.86 0 0 4.93 8.53901048131456 0 0 0 30 " PBC="1 1 1" Properties=species:S:1:pos:R:3:force:R:3 Energy="-257.25031292"
C     1.296600106500000e+00   1.096068239113848e-01   3.563820600000000e+00 -8.23797810e-01   6.12459560e-01   2.25814680e-01
C     2.493688360200000e+00   8.574472990523440e-01   3.552810900000000e+00  1.11590687e+00  -2.52308860e-01  -3.95756400e-01
C     3.727880533400000e+00   1.525562534335840e-01   3.568130400000000e+00  8.13978220e-01   4.72313200e-02  -6.57970020e-01
C     4.981793347500000e+00   8.449850402073080e-01   3.493211700000000e+00 -2.59987640e-01  -2.29564020e-01   6.39014100e-02
C     6.218301437499999e+00   1.173515356365352e-01   3.466406700000000e+00 -5.14952690e-01   3.47671120e-01   3.21250600e-01
C     7.441162252200000e+00   8.385163128181841e-01   3.504963000000000e+00 -5.40554800e-01   1.21126659e+00   4.02875060e-01
C     8.663936249599999e+00   1.574038496830800e-01   3.555578100000000e+00  8.89351160e-01  -1.62087283e+00  -3.19056020e-01
C     9.932834094499999e+00   7.986448550136056e-01   3.554924700000000e+00 -1.34142546e+00   2.82644052e+00  -2.45728510e-01
C     2.520119717100000e+00   2.275009538908507e+00   3.406008600000000e+00 -1.87446384e+00  -1.27346140e+00   6.39062300e-01
C     3.713198303200000e+00   2.971590163357816e+00   3.367271400000000e+00  1.98076933e+00   6.64710160e-01   6.67831330e-01
C     4.965587303600000e+00   2.253444694891790e+00   3.457208700000000e+00  2.44253140e-01   8.59061840e-01  -1.40911050e-01
C     6.211296745599999e+00   2.981459551670600e+00   3.495909600000000e+00 -1.40967777e+00   1.42240830e-01   1.59703060e-01
C     7.428935901499999e+00   2.288689716818305e+00   3.563403600000000e+00 -1.10428590e-01  -1.43847851e+00  -8.72181030e-01
C     8.644208657400000e+00   2.985443512400149e+00   3.464222100000000e+00  1.50544616e+00  -7.41271380e-01   6.12146560e-01
C     9.900929451600000e+00   2.292425790073619e+00   3.478711200000000e+00 -9.89716660e-01  -3.28628644e+00   2.52076970e-01
C     1.111446615730000e+01   2.934261110533553e+00   3.440902500000000e+00  1.10257898e+00   2.72058543e+00  -5.53232110e-01
C     3.727922537000000e+00   4.406099691923529e+00   3.412946700000000e+00  7.40197830e-01  -3.07201300e-01  -5.75066830e-01
C     4.974916589099999e+00   5.125567255382174e+00   3.483918900000000e+00 -7.50887210e-01  -4.21409210e-01  -5.48119600e-02
C     6.181587727500000e+00   4.407777863653164e+00   3.511318200000000e+00  1.50899406e+00  -1.52004290e-01   1.25321840e-01
C     7.454391069100000e+00   5.100519434380771e+00   3.550596000000000e+00 -9.97827430e-01   2.57837810e-01  -1.14489440e-01
C     8.674942129500000e+00   4.376935128579613e+00   3.468559800000000e+00 -5.57979740e-01   1.62288519e+00  -2.51800740e-01
C     9.880564656899999e+00   5.124942712155667e+00   3.361244700000000e+00  1.05308728e+00  -1.15573898e+00   5.50194640e-01
C     1.111086005950000e+01   4.379451062627441e+00   3.373372800000000e+00  6.41843290e-01   5.30802990e-01  -4.46703750e-01
C     1.237337656170000e+01   5.101479048378512e+00   3.318749700000000e+00 -1.35450505e+00   8.98982500e-02   6.59249880e-01
C     4.990813522000000e+00   6.544023358855382e+00   3.521504400000000e+00 -2.15853052e+00   2.58115200e-02   1.01985190e-01
C     6.186338078299999e+00   7.240552578461602e+00   3.586998000000000e+00  2.51600556e+00  -5.06568150e-01   1.14527370e-01
C     7.452954368499999e+00   6.521120793456870e+00   3.603168000000000e+00  6.32811500e-02   9.54319460e-01  -7.21851810e-01
C     8.696264280899999e+00   7.286925895015967e+00   3.498473700000000e+00 -1.25660470e+00  -1.81614511e+00   6.53415030e-01
C     9.920775807500000e+00   6.543142901484789e+00   3.404769000000000e+00 -1.73547789e+00  -1.20348100e-02   1.77147070e-01
C     1.112396321070000e+01   7.228491567719022e+00   3.441022500000000e+00  1.30274194e+00   8.65408400e-01  -5.75304910e-01
C     1.235585834900000e+01   6.531233287398019e+00   3.370053600000000e+00  7.74907350e-01   1.95548100e-02   5.54664060e-01
C     1.358435109710000e+01   7.263200766737916e+00   3.503836500000000e+00  4.23475500e-01  -5.84840520e-01  -3.56302470e-01
