26
Lattice="8.88768389401873 1.33226762955019e-15 0 4.44384194700937 7.69696003302603 0 0 0 30 " PBC="1 1 1" Properties=species:S:1:pos:R:3:force:R:3 Energy="-208.79782569"
C     1.269413674610203e+01   6.956278718437889e+00  -1.670169000000001e-01 -4.00004970e-01   2.56640920e-01  -1.03040500e-01
C     8.902020217305900e+00   6.725164870522689e+00  -3.594110999999991e-01  8.05955510e-01   3.91007830e-01   1.04117368e+00
C     1.029908511305385e+01   6.339911854985911e+00  -2.116163999999969e-01 -3.77142310e-01   3.46345340e-01  -1.00120406e+00
C     1.065684691763043e+01   4.925269406246541e+00  -2.361956999999997e-01 -1.45378791e+00   1.85589858e+00  -8.43773900e-02
C     6.529010218088921e+00   6.155468062395015e+00  -2.366703000000001e-01  1.45845600e-02  -1.06378427e+00   1.03675060e-01
C     7.855158906438954e+00   5.695388665078590e+00  -3.356477999999967e-01  1.70548755e+00   3.62924018e+00  -8.64316800e-02
C     8.230704966538674e+00   4.371963197533151e+00  -3.269750999999985e-01 -4.81404400e-01  -1.23093281e+00   4.67820700e-01
C     9.582236791252001e+00   3.989298438745660e+00  -3.080138999999988e-01  1.74145777e+00  -1.89920734e+00   9.96194800e-02
C     9.959429605789852e+00   2.555920742627666e+00  -2.888765999999983e-01 -9.53408840e-01   2.84539786e+00   4.44735820e-01
C     4.147699744248965e+00   5.574089116212208e+00  -9.433830000000043e-02 -6.34919500e-01  -4.64392030e-01  -4.72791220e-01
C     5.516854557397671e+00   5.184768411238775e+00  -1.036775999999975e-01 -1.11323890e+00  -2.67406560e-01  -1.81683420e-01
C     5.822555420453911e+00   3.797716793301343e+00  -9.647160000000099e-02  5.71470930e-01   1.49350830e-01  -2.98618310e-01
C     7.190149556311578e+00   3.408463359758572e+00  -1.990026000000000e-01  4.02598900e-02  -1.09785742e+00  -1.07161170e-01
C     7.518342392107172e+00   2.014899959696560e+00  -1.970580000000020e-01  1.47926612e+00   7.87873280e-01   4.67215400e-02
C     8.920214769375566e+00   1.612836090727859e+00  -2.275139999999993e-01 -6.67503200e-01  -3.16525230e-01  -4.34035840e-01
C     3.118859723385883e+00   4.560672183555070e+00  -1.668269999999978e-01  7.20672550e-01  -1.87412910e-01   9.00663480e-01
C     3.446772197188544e+00   3.159991635462118e+00  -6.762030000000152e-02 -1.25610600e-02   1.99884391e+00  -1.09933691e+00
C     4.796726235841484e+00   2.811481751959751e+00  -9.735419999999806e-02  9.70750030e-01  -2.75348590e-01   6.72370730e-01
C     5.152228524572593e+00   1.442849729070113e+00  -1.096989000000015e-01 -3.97939990e-01  -4.48014770e-01  -8.69599710e-01
C     6.503396087556071e+00   1.051543054469739e+00  -1.675710000000024e-01  5.90008820e-01  -7.30052220e-01   4.05212500e-02
C     1.132266891324100e+01   7.376459768894803e+00  -2.107029000000011e-01 -7.21752740e-01  -1.61908542e+00   4.91743570e-01
C     2.438317545839050e+00   2.214353901920360e+00  -2.060510999999998e-01 -1.07748370e+00  -2.03656906e+00  -2.07204480e-01
C     2.748454207470965e+00   8.035897204313056e-01  -2.910518999999994e-01  2.01241802e+00   1.66530191e+00   5.86320040e-01
C     4.141964918461468e+00   4.647615350722744e-01  -2.694788999999993e-01 -7.18090710e-01  -2.27353765e+00   2.86188200e-02
C     3.874560907903181e-01   2.420806305051438e-01  -2.241816000000014e-01  1.72656930e-01  -7.06333380e-01   3.51078290e-01
C     6.216479703208779e+00   7.518705747817228e+00  -2.441543999999993e-01 -1.81575044e+00   6.90559000e-01  -3.29577780e-01
