32
Lattice="9.86 0 0 4.93 8.53901048131456 0 0 0 30 " PBC="1 1 1" Properties=species:S:1:pos:R:3:force:R:3 Energy="-255.36785576"
C     1.201588505600000e+00   8.499251139403025e-01   3.655276500000000e+00  2.28644139e+00  -2.26590039e+00   1.18207880e-01
C     2.464311574800000e+00   1.538927281198507e+00   3.512861100000000e+00 -2.17413734e+00   5.71623600e-01   9.23441400e-02
C     3.648811172100000e+00   8.575230400753016e-01   3.804422400000000e+00 -3.13160450e-01  -5.85393740e-01   3.58990000e-03
C     4.877267142399999e+00   1.525217216752029e+00   3.851189400000000e+00  8.43223490e-01   5.68729220e-01  -2.83552840e-01
C     6.088624640200000e+00   8.065110768578864e-01   3.994404900000000e+00  2.93279105e+00   1.06663368e+00  -1.05621977e+00
C     7.356158107600000e+00   1.530418328035397e+00   3.852162000000000e+00  2.49127860e-01   8.48318950e-01   7.53604070e-01
C     8.657131419900001e+00   8.203197668754089e-01   3.812131200000000e+00 -3.09485446e+00   1.41519900e+00  -2.04105760e-01
C     9.874993658299999e+00   1.555186496443580e+00   3.669833100000000e+00 -1.30878494e+00  -1.00763502e+00  -6.86609210e-01
C     2.425222393600000e+00   2.948642085033445e+00   3.266764200000000e+00 -4.06435000e-02   9.25014970e-01   8.23461060e-01
C     3.661928669600000e+00   3.649464633718904e+00   3.433816500000000e+00  5.37297680e-01   1.04486113e+00  -1.24953800e-01
C     4.913793463099999e+00   2.927079631939663e+00   3.654601200000000e+00 -1.20944299e+00   1.48022435e+00   6.10760000e-04
C     6.115610227700000e+00   3.700125472825381e+00   3.757631700000000e+00  1.90001920e-01  -1.70512692e+00   3.10846880e-01
C     7.342754325000000e+00   3.017280017513361e+00   3.874773300000000e+00  9.02582430e-01  -3.42129483e+00  -5.87510150e-01
C     8.606831517299998e+00   3.637062147947228e+00   3.806142000000000e+00 -7.65543000e-03   2.97856279e+00  -6.98307820e-01
C     9.838336840499998e+00   2.936930405209601e+00   3.466985700000000e+00 -1.00327507e+00   2.44219229e+00   1.32447932e+00
C     1.102042828070000e+01   3.714915722097580e+00   3.266563800000000e+00  1.50617679e+00  -5.95061510e-01   1.07701972e+00
C     3.669302865000000e+00   5.116753374154822e+00   3.495598500000000e+00  1.39276229e+00  -9.16089140e-01   2.19455140e-01
C     4.940265196700000e+00   5.803745543736141e+00   3.798810900000000e+00 -2.82945034e+00  -2.62812100e-02  -9.63889460e-01
C     6.148653059699999e+00   5.082356617529391e+00   3.812160600000000e+00 -1.40022530e+00   1.16496053e+00   1.16802621e+00
C     7.320523919699999e+00   5.789257746215143e+00   4.113981300000000e+00  2.15257051e+00  -2.79367670e-01  -1.20099676e+00
C     8.565111737399999e+00   5.146890274622096e+00   3.932092800000000e+00  2.73065037e+00  -2.92307064e+00   6.84024200e-02
C     9.867191144500000e+00   5.837574541554756e+00   3.869660100000000e+00 -1.93788886e+00   4.82573370e-01  -6.03850510e-01
C     1.107530805470000e+01   5.156840185803707e+00   3.505463400000000e+00 -1.01580691e+00  -1.30246111e+00  -4.26389280e-01
C     1.231260144440000e+01   5.864255789870878e+00   3.449133000000000e+00  9.85029500e-02  -1.47285904e+00   1.30325452e+00
C     4.863909849700000e+00   7.227288762702809e+00   3.897865200000000e+00  1.79800871e+00   1.88735640e-01  -1.15961949e+00
C     6.139798779700000e+00   7.923900554540371e+00   3.863105400000000e+00 -7.82720260e-01   7.71614640e-01   9.11669380e-01
C     7.367881302499999e+00   7.181503613190306e+00   4.106243400000000e+00 -1.18277538e+00   3.64648807e+00  -1.17011698e+00
C     8.556279987500000e+00   8.006532217394911e+00   4.020693300000000e+00  1.70999938e+00  -2.94882046e+00   8.59194500e-02
C     9.852317827499999e+00   7.284393224507599e+00   3.958394100000000e+00 -1.21517095e+00  -1.09853131e+00   4.03895530e-01
C     1.109866930340000e+01   7.938038338021792e+00   3.925766400000001e+00 -1.30400351e+00   3.19433400e-01   2.94986000e-03
C     1.231809400670000e+01   7.229239755817279e+00   3.765682500000000e+00 -1.46518145e+00   8.17707670e-01  -6.20022990e-01
C     1.349197428540000e+01   7.954717928752795e+00   3.759399600000000e+00  2.95504032e+00  -1.84980300e-01   1.11840859e+00
