32
Lattice="9.904 0 0 4.952 8.57711559908108 0 0 0 30 " PBC="1 1 1" Properties=species:S:1:pos:R:3:force:R:3 Energy="-258.0391375"
C     6.350671773633333e-04   1.601561319178536e-03   3.003413744027547e+00 -7.76204600e-02  -1.03802550e-01  -3.69125800e-02
C     1.234109151062386e+00   7.160806896968290e-01   3.002067381062476e+00  1.33946420e-01   5.48291900e-02  -1.65212000e-03
C     2.473546984147996e+00   2.939393625931522e-03   3.001630427735728e+00  1.26667000e-02  -5.58613000e-02   6.35390000e-04
C     3.709744719976413e+00   7.163638658272041e-01   3.001726357012126e+00  1.12825210e-01   3.30114700e-02  -3.47678500e-02
C     4.950264081241902e+00   3.817158805731942e-03   2.996773067317953e+00 -3.67990400e-02  -1.19753780e-01   7.23712200e-02
C     6.189458998127544e+00   7.138909025935178e-01   3.003723677216926e+00 -1.77560500e-02   1.41482530e-01  -6.30343700e-02
C     7.426459587691986e+00  -2.802860741638532e-03   3.001113346228423e+00  6.37872800e-02   1.52963810e-01   1.60378700e-02
C     8.667968587696777e+00   7.139294927833564e-01   3.001637220530140e+00 -1.79595420e-01   9.70909000e-03   7.65150000e-04
C     1.237068641690408e+00   2.145366828143944e+00   2.999474067653148e+00 -8.15205000e-03  -5.43191000e-03   1.76255600e-02
C     2.477811119870181e+00   2.857797916906547e+00   3.000002383662212e+00 -2.44822610e-01   1.27576730e-01  -7.36622000e-03
C     3.710680801179994e+00   2.145580308455667e+00   3.001178942064045e+00  9.22099900e-02  -7.19287300e-02  -1.89499900e-02
C     4.948102213994822e+00   2.859976020473967e+00   2.998058047997584e+00  9.13166100e-02  -1.07112040e-01   5.06831600e-02
C     6.186660061705943e+00   2.146316561341725e+00   3.001199267821390e+00  6.53820400e-02  -1.10621480e-01   1.52016000e-02
C     7.424988272777926e+00   2.860485411613078e+00   3.002940957806591e+00  5.48802900e-02  -7.34671000e-02  -4.09311900e-02
C     8.665145148863534e+00   2.143622785928100e+00   3.000429140733366e+00 -6.05423100e-02   4.38347400e-02   2.02443900e-02
C     9.902289367552909e+00   2.860813266677799e+00   2.999766170754449e+00  4.43405200e-02  -2.02570060e-01   1.05056100e-02
C     2.474129852040556e+00   4.289145757641893e+00   2.997873118483541e+00  2.34639500e-02   5.48192000e-03  -2.62189000e-02
C     3.711472644788621e+00   5.002327096311174e+00   2.995341837864162e+00  1.66864180e-01   1.07281560e-01   8.85425200e-02
C     4.951342295513232e+00   4.285019281602435e+00   3.002664153550784e+00 -7.34954700e-02   2.15796060e-01  -6.19760700e-02
C     6.190108193704822e+00   5.002317477100349e+00   3.003441385542553e+00 -9.56088800e-02   4.70043600e-02  -2.08448600e-02
C     7.426368166989677e+00   4.289713626604881e+00   2.999184895427942e+00  1.09506340e-01  -5.76705600e-02   5.95671200e-02
C     8.668495032659463e+00   4.999658677909014e+00   3.001774047124033e+00 -1.69635420e-01   1.84842110e-01  -1.71145900e-02
C     9.901947886001009e+00   4.284586947165892e+00   3.002364808265398e+00  1.67379290e-01   2.68836510e-01  -4.51197500e-02
C     1.114150043341811e+01   5.006378692477873e+00   2.996849366389484e+00 -7.48360000e-02  -2.07678290e-01   7.40226700e-02
C     3.718246303902951e+00   6.435880634951920e+00   3.002554442571068e+00 -3.43049400e-01  -2.13940740e-01  -7.67857100e-02
C     4.951093159578353e+00   7.147128911091322e+00   2.999359364049370e+00  1.35126900e-01   1.03344880e-01   6.53128600e-02
C     6.187997908176806e+00   6.432004910921092e+00   3.003079409025040e+00  1.81219870e-01   8.50545700e-02  -2.72636600e-02
C     7.429793310351603e+00   7.151853068015369e+00   3.000980427154999e+00 -1.10196450e-01  -2.51042030e-01   3.03743000e-03
C     8.669098285712820e+00   6.432554406583090e+00   2.999653983695568e+00 -1.16890310e-01   2.82441100e-02   1.47471200e-02
C     9.904008802135907e+00   7.150418600844776e+00   2.999668889540521e+00  2.84354400e-02  -3.39849200e-02   5.35418000e-03
C     1.114299891227106e+01   6.433704009094265e+00   3.004033006374059e+00 -1.31920410e-01   1.52736600e-02  -8.09133100e-02
C     1.237719626032307e+01   7.147287257458426e+00   2.999937801063209e+00  2.57569270e-01  -9.70182000e-03   4.51973200e-02
