32
Lattice="9.86 0 0 4.93 8.53901048131456 0 0 0 30 " PBC="1 1 1" Properties=species:S:1:pos:R:3:force:R:3 Energy="-256.67491357"
C     9.855550872199998e+00   4.682668677678992e-01   1.433718000000000e-01  2.01725060e-01  -6.95947750e-01  -3.02535200e-01
C     1.218044648400000e+00   1.139263677527976e+00  -1.640399999999431e-03  1.47482391e+00   3.68056550e-01   5.79887080e-01
C     2.453349769100000e+00   4.196198688930248e-01   8.687160000000001e-02  1.30168863e+00   5.69063600e-01  -3.99618220e-01
C     3.710925770399999e+00   1.150588454786971e+00  -3.945899999997948e-03 -3.95725970e-01   6.84702710e-01  -2.61501390e-01
C     4.972745762200000e+00   4.618175239325648e-01   5.722890000000000e-02 -2.74900342e+00  -6.97968060e-01   8.53774500e-02
C     6.155257090499999e+00   1.145726256829554e+00   1.117599000000000e-01  1.56275483e+00   4.61127070e-01   1.19390600e-01
C     7.380435646100000e+00   4.126431557704456e-01   1.281018000000000e-01  1.40087133e+00   2.86155022e+00  -3.68295710e-01
C     8.646718126000000e+00   1.149954860209355e+00   1.088997000000000e-01 -1.55125578e+00  -1.74831100e-02   5.19376980e-01
C     1.111069411570000e+01   2.554035027198855e+00  -1.411559999999987e-01 -7.38992770e-01   7.57361670e-01  -4.24739510e-01
C     2.441043552400000e+00   3.305809936808579e+00  -3.347072999999980e-01  2.18600918e+00  -1.38693968e+00   7.80153250e-01
C     3.730892319700000e+00   2.594148736730751e+00  -1.951536000000011e-01 -1.44401564e+00  -6.12334140e-01   4.01515640e-01
C     4.955880577299999e+00   3.306779541448583e+00  -5.794080000000079e-02 -5.16433270e-01  -3.86985940e-01   2.92755200e-02
C     6.165442519799999e+00   2.556611844391405e+00   1.354383000000000e-01 -2.98834580e-01   9.55490340e-01  -4.15614820e-01
C     7.390607024900000e+00   3.254080525930635e+00   1.697577000000000e-01  1.66559127e+00   4.90056910e-01  -3.23047490e-01
C     8.666209719099999e+00   2.561501879522987e+00   1.058346000000000e-01 -2.07685725e+00  -2.91992260e-01  -1.57515800e-02
C     9.859385081099999e+00   3.259791074579239e+00  -6.436109999999928e-02  7.12928910e-01   8.60530620e-01  -3.05889640e-01
C     1.234736622680000e+01   4.719969124818148e+00  -3.704660999999980e-01  2.98272000e-02   5.64878590e-01   2.28518310e-01
C     3.724510089600000e+00   5.447849065231373e+00  -2.388893999999979e-01 -2.57908780e-01   5.21872720e-01   5.82355390e-01
C     4.929445325700000e+00   4.743857262806261e+00  -4.792830000000237e-02  1.21016695e+00  -1.02213554e+00  -7.09535000e-03
C     6.176143380599999e+00   5.408915276167603e+00   1.583628000000000e-01 -3.09910970e-01   1.12495902e+00  -9.54140400e-02
C     7.432651790400000e+00   4.674434339092919e+00   1.526616000000000e-01 -1.69500425e+00   1.25817363e+00   1.45998120e-01
C     8.639600339899999e+00   5.434778145719322e+00   6.619740000000000e-02  3.74444430e-01  -1.08070788e+00  -2.21111000e-03
C     9.820741966300000e+00   4.684820081369428e+00  -1.548090000000002e-01  2.94749231e+00   1.15191285e+00   2.38989690e-01
C     1.114034076930000e+01   5.429730907404804e+00  -2.923032000000028e-01 -3.34665082e+00   4.13520050e-01   7.45251200e-01
C     1.359084839340000e+01   6.881144346506830e+00  -6.233280000000008e-02 -1.24893232e+00  -6.16265360e-01   2.95494000e-02
C     4.921116780899999e+00   7.594914682173219e+00   1.821225000000000e-01  5.75471010e-01  -9.54599810e-01  -5.73606680e-01
C     6.135867647000000e+00   6.870533430523963e+00   2.354829000000000e-01  2.03986378e+00  -1.60217476e+00  -3.81812320e-01
C     7.426856131699999e+00   7.531724638379542e+00   1.994091000000000e-01 -1.52502011e+00   1.10329814e+00   2.32137590e-01
C     8.667201339300000e+00   6.855620988011796e+00   1.540812000000000e-01 -8.34963580e-01  -3.56791130e-01  -5.83839780e-01
C     9.877698749299999e+00   7.582400933094988e+00   3.934200000000000e-02 -1.93400500e-01  -5.18636430e-01   3.39970700e-02
C     1.107132693180000e+01   6.873910609168804e+00  -1.195649999999979e-01  2.47780831e+00  -1.10781068e+00  -3.24588350e-01
C     1.234525564450000e+01   7.602956551463073e+00  -6.032610000000105e-02 -9.78557100e-01  -2.79778216e+00   3.37879100e-02
