32
Lattice="9.86 0 0 4.93 8.53901048131456 0 0 0 30 " PBC="1 1 1" Properties=species:S:1:pos:R:3:force:R:3 Energy="-257.31510765"
C     1.195778895000000e+00   8.339043932579360e-01   3.594494700000000e+00 -9.70664910e-01   2.59492900e-01  -3.36029330e-01
C     2.409783063300000e+00   1.538103181297082e+00   3.491190000000000e+00  1.25538891e+00  -8.55621880e-01   1.42598880e-01
C     3.644184909399999e+00   7.945159872762111e-01   3.595442700000000e+00  8.95290410e-01   5.56963220e-01   1.70563660e-01
C     4.903536302300000e+00   1.496421880221268e+00   3.625593300000000e+00 -2.69004410e-01   4.63328640e-01  -3.18618820e-01
C     6.170485367500000e+00   8.186898405549864e-01   3.701506800000000e+00 -2.17358491e+00  -1.36958300e-02  -1.60728320e-01
C     7.374958268199999e+00   1.537149629996781e+00   3.654904800000000e+00  4.87457070e-01  -9.84338290e-01  -4.33640000e-04
C     8.591565377900000e+00   7.865151906267656e-01   3.599187900000000e+00  1.10627680e+00   7.75372680e-01   3.65970340e-01
C     9.815328284000000e+00   1.537558819378982e+00   3.561247800000000e+00  4.56341700e-02   2.50224330e-01  -3.65182420e-01
C     2.438796507700000e+00   2.942910786589374e+00   3.339641100000000e+00  3.11349600e-01   2.56503720e-01   3.42318210e-01
C     3.675353108900000e+00   3.648175840867157e+00   3.390401700000000e+00 -1.43406700e-01  -1.26065760e-01   1.41234210e-01
C     4.898663145200000e+00   2.920637717043446e+00   3.517747500000000e+00 -9.57676400e-02   2.72469770e-01   1.79760520e-01
C     6.118736636500000e+00   3.647038957011850e+00   3.603215100000000e+00  6.52314170e-01  -1.21906090e-01   4.56945350e-01
C     7.364902843000000e+00   2.943304861923026e+00   3.668037600000000e+00  1.62323420e-01   7.71606800e-01  -5.68483960e-01
C     8.601003221999999e+00   3.678538939722046e+00   3.585742800000000e+00 -2.46826110e-01  -1.57014886e+00   4.02791700e-01
C     9.830079189099999e+00   2.982280919088671e+00   3.463944300000000e+00  3.47996870e-01  -1.19665525e+00   1.67743260e-01
C     1.109003278150000e+01   3.669883030188575e+00   3.340628700000000e+00 -1.43654875e+00   2.21957570e-01   7.17932600e-01
C     3.669818543000000e+00   5.074732732802532e+00   3.438867300000000e+00 -5.41311490e-01   5.79291800e-02  -3.72054900e-02
C     4.892816115900000e+00   5.756631553412740e+00   3.577729200000000e+00  8.27985820e-01   8.85762710e-01   4.66992500e-02
C     6.122939954500000e+00   5.074742552664585e+00   3.668911500000000e+00  6.62731990e-01  -6.40473990e-01  -3.59844030e-01
C     7.367210181600000e+00   5.786049554587702e+00   3.733237800000000e+00 -7.39571160e-01   7.42308710e-01   2.15079290e-01
C     8.607366175799999e+00   5.055276255863434e+00   3.707938200000000e+00 -1.12602307e+00   2.08850817e+00  -8.04699790e-01
C     9.802931306000000e+00   5.789697761425178e+00   3.591834300000000e+00  1.77449213e+00  -1.63187920e-01   2.52096940e-01
C     1.106335107920000e+01   5.091565001040918e+00   3.453111000000000e+00  1.03108450e-01   4.37484660e-01  -3.18951150e-01
C     1.230145550320000e+01   5.821651421762176e+00   3.444176700000000e+00 -5.87374400e-01  -3.45507980e-01   1.52631390e-01
C     4.934964707200000e+00   7.175080654897355e+00   3.613575900000000e+00 -1.29150940e+00   1.02185491e+00   9.94314100e-02
C     6.113723911100000e+00   7.963263001930237e+00   3.669095400000000e+00  8.34883730e-01  -1.34590649e+00   1.16292790e-01
C     7.339194273400000e+00   7.249971021630937e+00   3.742151700000000e+00  1.04286146e+00  -1.80511189e+00  -3.75666140e-01
C     8.604133771999999e+00   7.909686432305257e+00   3.696026700000000e+00 -1.30111997e+00   9.95042490e-01  -6.86336000e-03
C     9.824464264200000e+00   7.209791049377717e+00   3.662389500000000e+00  2.73306130e-01   7.23407500e-02   2.20813120e-01
C     1.105475754690000e+01   7.945001815678127e+00   3.690438300000000e+00  5.78968680e-01  -4.71847150e-01  -7.03097750e-01
C     1.228740825700000e+01   7.258157883318742e+00   3.549186900000000e+00  7.61336270e-01  -1.91235208e+00   4.75812480e-01
C     1.356516506540000e+01   7.888257273165070e+00   3.604987800000000e+00 -1.20099315e+00   1.42366827e+00  -3.10911180e-01
