32
Lattice="9.86 0 0 4.93 8.53901048131456 0 0 0 30 " PBC="1 1 1" Properties=species:S:1:pos:R:3:force:R:3 Energy="-255.07799613"
C     5.048753051199999e+00   7.792683715246831e+00   2.417760000000000e-01 -1.25910125e+00   1.10849405e+00  -3.75491010e-01
C     6.264749333899999e+00   8.507280627127683e+00   2.400645000000000e-01  3.21762340e-01   1.70849577e+00  -3.01585170e-01
C     7.534780733700000e+00   7.846374878392450e+00   2.347293000000000e-01 -1.57405369e+00   1.08987864e+00  -6.25057580e-01
C     3.808845874100000e+00   2.668688406303920e-02   1.059276000000000e-01  5.18150080e-01   6.07911110e-01   1.06799905e+00
C     9.941332773599999e+00   7.814680889364149e+00   1.741434000000000e-01  1.39805390e+00   1.96542863e+00  -9.84516920e-01
C     6.284263112000000e+00   3.515561848678880e-02   1.876059000000000e-01 -2.19881159e+00  -1.65379104e+00  -6.28402420e-01
C     1.242070337850000e+01   7.844672712043367e+00   4.300980000000000e-02  7.44179060e-01   3.58679461e+00   1.75763667e+00
C     8.729822347199999e+00   1.887462876499200e-02   2.682009000000000e-01  5.56790060e-01  -2.40772524e+00  -9.36778760e-01
C     1.288089201000000e+00   1.418652756884563e+00   7.422810000000001e-02  2.48333210e+00  -6.36269470e-01  -1.40113355e+00
C     2.559343980300000e+00   2.178793164281334e+00  -1.638848999999993e-01 -1.43237889e+00  -1.81707136e+00   1.33135541e+00
C     3.795473051900000e+00   1.487234246505207e+00   3.943770000000000e-02 -9.21793650e-01  -1.02140159e+00  -7.49062370e-01
C     4.974934238499999e+00   2.218016255020166e+00   4.330020000000000e-02  3.53493860e+00  -1.83402394e+00   7.73127630e-01
C     6.263582402899999e+00   1.430585084739211e+00   2.165604000000000e-01 -1.19049298e+00   1.65011775e+00  -6.69277720e-01
C     7.504019752199999e+00   2.090765615314376e+00   1.786023000000000e-01 -8.16636080e-01   4.37997785e+00   4.23236470e-01
C     8.725645552600000e+00   1.413550868902973e+00   2.428557000000000e-01 -2.43376910e-01   1.02385300e-02  -1.08826196e+00
C     9.933706162199998e+00   2.069733690941717e+00  -7.611990000000191e-02  1.67706680e-01   3.25836205e+00   2.08702739e+00
C     2.581309891100000e+00   3.576097711845059e+00  -2.841579000000003e-01 -4.75868320e-01   5.41534380e-01   3.67412850e-01
C     3.832014606300000e+00   4.256857855407757e+00  -1.481555999999991e-01 -2.05011786e+00   2.74537264e+00   1.21217840e-01
C     5.058505084200000e+00   3.623694753991312e+00  -8.031599999998917e-03 -5.34009840e-01  -1.53026540e+00   4.28894180e-01
C     6.266417498000000e+00   4.325284618158505e+00   1.905300000000000e-01 -3.47579950e-01   6.36686500e-02  -1.24154474e+00
C     7.494974977000000e+00   3.698398287175592e+00   1.596780000000000e-01  4.84534090e-01  -5.51744523e+00   5.72590520e-01
C     8.729621400399999e+00   4.334870169762933e+00   1.553682000000000e-01  1.18355035e+00  -1.27060077e+00  -8.32138700e-01
C     9.955260319400001e+00   3.545748616967357e+00  -4.790520000000242e-02  4.59418790e-01   1.23915280e+00  -7.39718340e-01
C     1.120596330910000e+01   4.331045120018416e+00  -2.502236999999994e-01 -1.26938839e+00  -1.39471988e+00   7.92063870e-01
C     3.744994880500000e+00   5.698152994041508e+00   5.810400000000000e-03  7.82979370e-01   5.33250580e-01  -1.31470341e+00
C     5.024943123200000e+00   6.373067074859285e+00   7.151820000000000e-02 -3.05748183e+00   1.78950872e+00   7.93890360e-01
C     6.205875175300000e+00   5.715510240644204e+00   1.129260000000000e-01  4.02772163e+00   6.43741560e-01   9.51772260e-01
C     7.491973888799999e+00   6.469355347954699e+00   2.134614000000000e-01 -4.73257800e-02  -2.68631971e+00  -1.19114530e-01
C     8.748878325500000e+00   5.741844548964524e+00   1.724607000000000e-01 -2.34040052e+00  -6.69199120e-01  -3.23305860e-01
C     9.942995021700000e+00   6.393605017475676e+00   1.911120000000000e-02  7.34695400e-02   2.88232697e+00   8.39388830e-01
C     1.115501032940000e+01   5.775785322430323e+00  -1.534013999999999e-01  1.68403635e+00  -2.25683463e+00  -1.75060680e-01
C     1.237812913100000e+01   6.512590748937874e+00  -1.006865999999995e-01  1.33819460e+00  -5.10858792e+00   1.97540390e-01
