2
Lattice="2.423 0 0 1.2115 2.09837955336969 0 0 0 30 " PBC="1 1 1" Properties=species:S:1:pos:R:3:force:R:3 Energy="-16.08837847"
C     0.000000000000000e+00   0.000000000000000e+00   3.000000000000000e+00  0.00000000e+00   0.00000000e+00  -0.00000000e+00
C     1.211500000000000e+00   6.994598511232316e-01   3.000000000000000e+00 -0.00000000e+00  -0.00000000e+00   0.00000000e+00
