32
Lattice="9.78 0 0 4.89 8.46972844901181 0 0 0 30 " PBC="1 1 1" Properties=species:S:1:pos:R:3:force:R:3 Energy="-257.83084452"
C     3.085551079995974e-03  -9.947618115999934e-03   3.005918655141578e+00 -2.25190690e-01   4.49347510e-01  -9.43209000e-03
C     1.218149600220106e+00   7.091145928007389e-01   2.996685145613962e+00  3.34174900e-02  -4.26136330e-01   3.44330800e-02
C     2.435470129171672e+00  -6.606790854548254e-03   2.988403316404596e+00  3.85958820e-01   5.89196890e-01   6.69066300e-02
C     3.664329142577583e+00   7.037120006150048e-01   2.992971783054359e+00 -5.25805850e-01  -2.34674200e-02   8.07393500e-02
C     4.882302298323017e+00   7.689335003958554e-03   2.996950837469985e+00  1.75813160e-01  -4.18469660e-01  -7.74452000e-02
C     6.099480491483391e+00   7.169931567398025e-01   2.997513849814398e+00  8.65699730e-01  -5.47888920e-01  -5.53308000e-03
C     7.337089576589657e+00   1.328804889132047e-02   2.995415124657065e+00 -5.11310290e-01  -5.52891140e-01  -3.32188600e-02
C     8.561979055082354e+00   7.085579311883768e-01   3.001042791264144e+00 -1.49855100e-02   3.25096400e-02   6.17858500e-02
C     1.215415141858495e+00   2.115786904988314e+00   3.003145313109761e+00  5.12618900e-01   2.91213790e-01  -1.08964390e-01
C     2.445027509841208e+00   2.830945389848500e+00   2.988298638487787e+00 -4.46998040e-01  -6.67704640e-01   2.64953630e-01
C     3.660561437310654e+00   2.115295725603886e+00   3.010352988607130e+00 -3.75711200e-02  -6.57130500e-02  -2.23967350e-01
C     4.876579344897058e+00   2.812652436560930e+00   3.003423322059883e+00  8.10094280e-01   3.44933300e-01  -2.66490800e-02
C     6.123748593405709e+00   2.117326045390556e+00   2.995683886159203e+00 -1.28362144e+00   1.69204140e-01   4.59778000e-02
C     7.326609173061354e+00   2.819694436078296e+00   2.994638104358152e+00  9.18144550e-01   4.22167690e-01   3.26018400e-02
C     8.563703567224083e+00   2.124262202335142e+00   3.009085303866202e+00 -4.35465560e-01  -2.19500000e-01  -9.59576800e-02
C     9.783187781420629e+00   2.825992427356295e+00   3.008297035129278e+00 -1.72338410e-01   2.19538770e-01  -1.61327500e-02
C     2.434094440874117e+00   4.231490981749134e+00   3.005638581142312e+00  1.04655054e+00   2.52454810e-01  -2.03535410e-01
C     3.671825550553723e+00   4.942216894784326e+00   2.997115928253760e+00 -5.18671490e-01  -4.02179000e-02   1.38600860e-01
C     4.887339308034907e+00   4.226107947016710e+00   2.995947012110541e+00  8.39434800e-02   2.05885280e-01   5.05695800e-02
C     6.119922208530989e+00   4.932368733227511e+00   2.997905155431847e+00 -7.42348460e-01   6.51465970e-01  -7.47367300e-02
C     7.329688791570003e+00   4.240291406485248e+00   2.990742325364634e+00  2.14584220e-01  -6.12777910e-01   1.16124120e-01
C     8.542885816223915e+00   4.948467129135966e+00   3.004125502388518e+00  8.89494990e-01  -3.76642600e-01  -1.26605940e-01
C     9.785852379578259e+00   4.239881495032814e+00   3.001426460689240e+00 -7.17095690e-01  -2.89986400e-02   3.04494500e-02
C     1.100642743157413e+01   4.930600939844612e+00   2.995656344340061e+00 -4.43095230e-01   9.48956020e-01   1.52253320e-01
C     3.659140841276823e+00   6.360335803501312e+00   3.010951180420641e+00  3.41524980e-01  -6.97014610e-01  -1.59366900e-01
C     4.886917562283783e+00   7.051933508616068e+00   3.012433990727025e+00  1.55207410e-01   2.28313370e-01  -7.75815400e-02
C     6.117001290485359e+00   6.358345623174313e+00   2.998655013591843e+00 -4.45896980e-01  -8.18590440e-01   8.83723000e-02
C     7.331624009216450e+00   7.059628371337296e+00   2.997228375660786e+00 -6.70344300e-02   3.19144900e-02  -9.73034800e-02
C     8.547393438609152e+00   6.353173078742103e+00   2.992603404684512e+00  5.17851580e-01   1.68187550e-01   4.24904300e-02
C     9.780103275754469e+00   7.058588023877083e+00   2.987725916086831e+00 -2.17035120e-01   1.01391220e-01   1.42357810e-01
C     1.100508564359374e+01   6.357843984471646e+00   3.005401708101803e+00 -4.06916970e-01  -5.94527250e-01  -2.53094780e-01
C     1.221830421804676e+01   7.053851197213962e+00   2.988113606569279e+00  2.60477150e-01   9.83860040e-01   2.40909220e-01
