26
Lattice="8.88768389401873 1.33226762955019e-15 0 4.44384194700937 7.69696003302603 0 0 0 30 " PBC="1 1 1" Properties=species:S:1:pos:R:3:force:R:3 Energy="-208.82788282"
C     3.020800662421579e-01   4.052380952850733e-01   3.438897000000000e+00  1.04657497e+00   1.34844130e-01   9.63695100e-02
C     7.167549245350059e+00   7.485826181839475e+00   3.463960500000000e+00 -1.18287301e+00   4.58815650e-01   9.89001100e-02
C     4.074569078043712e+00   1.278640551671684e-01   3.442657800000000e+00 -5.46816300e-02   3.82144963e+00  -1.94446100e-01
C     9.534109140557648e+00   6.914094066571068e+00   3.366170700000000e+00  1.11197225e+00  -2.50367341e+00   7.89523650e-01
C     1.090248090480934e+01   7.282324870153499e+00   3.387798900000000e+00  9.55127120e-01   1.23508729e+00  -2.55761660e-01
C     1.196763875595776e+01   6.338869147810646e+00   3.389220900000000e+00 -7.78479530e-01  -1.21088315e+00   1.00720610e-01
C     4.456981501218810e+00   6.705336193002204e+00   3.428275500000000e+00 -8.96750700e-01   5.78641150e-01  -1.95632960e-01
C     5.487826049005374e+00   5.715898369622529e+00   3.422500200000000e+00 -9.08943100e-01   7.84239940e-01   6.64296440e-01
C     6.824714659570973e+00   6.124759500963323e+00   3.446869200000000e+00  7.82541970e-01  -9.81331630e-01  -3.15754670e-01
C     7.848511940596017e+00   5.115245927646201e+00   3.414297600000000e+00 -1.00511495e+00   6.56967420e-01   3.75497050e-01
C     9.199145976421864e+00   5.503310950560339e+00   3.442498200000000e+00  1.33183500e-01   1.31210033e+00  -7.78281570e-01
C     1.021815119608952e+01   4.559096538867329e+00   3.405764700000000e+00  1.14747411e+00  -1.19320917e+00   7.78932600e-02
C     1.160423042622368e+01   4.938712993604538e+00   3.393104100000000e+00 -5.96007800e-01   1.48943079e+00   2.28955050e-01
C     3.751498216093195e+00   4.014117825149597e+00   3.448078200000000e+00  8.19980460e-01  -2.68047981e+00   6.65100000e-05
C     5.128378071242690e+00   4.361947066476511e+00   3.505845600000000e+00  1.85470930e-01  -8.08293410e-01  -1.52951355e+00
C     6.147500741601625e+00   3.338725900072360e+00   3.354566400000000e+00 -1.90414224e+00   2.79331090e-01   1.83572742e+00
C     7.474620632171181e+00   3.744466221999391e+00   3.411219600000000e+00  1.50788723e+00   4.85058720e-01  -3.74009670e-01
C     8.522553929745822e+00   2.796592213690517e+00   3.429831000000000e+00 -8.46041860e-01  -1.76756932e+00  -1.62200320e-01
C     9.878878882864639e+00   3.158401597459121e+00   3.425554500000000e+00  3.45972180e-01   1.41252361e+00   3.03598050e-01
C     2.021960173666269e+00   2.218538354240670e+00   3.486321300000000e+00  1.76859573e+00  -2.10864115e+00  -5.83411440e-01
C     3.451112230616811e+00   2.592113157171931e+00   3.423321000000000e+00 -2.24115201e+00  -6.80681900e-02   6.21934930e-01
C     4.425910332748177e+00   1.556268976318580e+00   3.444278700000000e+00 -7.11612700e-02   4.16568300e-02   2.66455760e-01
C     5.793108256168932e+00   1.953499539236443e+00   3.485575500000000e+00 -3.91063060e-01   5.05572670e-01  -1.42068052e+00
C     6.809140589999173e+00   9.867700570332769e-01   3.391566600000000e+00 -3.71575890e-01  -7.74532790e-01   5.13720950e-01
C     8.149759539250137e+00   1.400333569134800e+00   3.410454000000000e+00  1.55976136e+00  -1.51805320e-01   9.75675800e-02
C     1.690788895412874e+00   7.910370561967798e-01   3.494286300000000e+00 -1.16554760e-01   1.05276810e+00  -2.61534410e-01
