32
Lattice="9.86 0 0 4.93 8.53901048131456 0 0 0 30 " PBC="1 1 1" Properties=species:S:1:pos:R:3:force:R:3 Energy="-251.81795529"
C     5.303885826299999e+00   8.098010124326523e+00  -2.819618999999989e-01 -4.67713467e+00  -2.94933655e+00   1.10099490e-01
C     1.514672691200000e+00   2.660431183169760e-01  -3.243176999999982e-01  3.52007360e+00   4.74395990e-01   7.35255220e-01
C     7.754622103799999e+00   8.076767542565323e+00  -5.131727999999995e-01 -7.48130264e+00  -2.58991372e+00   1.08882889e+00
C     3.904977423100000e+00   2.291821740472264e-01  -5.690664000000005e-01  6.53405246e+00   3.86192988e+00   2.62565676e+00
C     1.006182138200000e+01   8.048502222415054e+00  -3.468362999999997e-01  2.66060716e+00  -1.40537543e+00  -3.19562600e-01
C     6.414531657199999e+00   2.196470879947344e-01  -3.469689000000002e-01 -9.10587250e-01  -1.61595133e+00   1.05239082e+00
C     1.257601938030000e+01   8.039941095897911e+00  -1.772703000000000e-01  4.71671920e-01  -8.65930370e-01  -2.61965490e-01
C     8.869296779999999e+00   2.435754447222096e-01  -3.375678000000022e-01  1.68550634e+00  -3.23749790e+00   9.95345940e-01
C     1.479966674400000e+00   1.640428790972171e+00   9.861030000000000e-02  1.55898100e+00  -4.69391840e-01  -3.23051198e+00
C     2.754234275300000e+00   2.384694153205364e+00   1.278267000000000e-01 -1.31558181e+00  -2.12516459e+00   1.41297081e+00
C     3.943643265200000e+00   1.661918747866978e+00  -1.069884000000023e-01 -2.91666640e-01  -3.78582340e-01  -1.29554918e+00
C     5.151510421599999e+00   2.393048635668891e+00  -6.243779999999788e-02  2.16591782e+00  -2.65751066e+00  -7.57499300e-01
C     6.421283045700000e+00   1.627936474810246e+00  -2.929160999999993e-01 -2.05171841e+00   1.05526653e+00  -9.33847400e-02
C     7.586467938299999e+00   2.344238541693849e+00  -3.415146000000000e-01  2.53903336e+00   2.39367697e+00  -5.15223890e-01
C     8.894014419599999e+00   1.608653595954205e+00  -3.731547000000006e-01 -2.55746228e+00   2.03615959e+00   2.70506400e-02
C     1.011090929340000e+01   2.270847539810450e+00  -1.651404000000021e-01  1.93139490e-01   2.00823853e+00   2.09864187e+00
C     2.801639232600000e+00   3.728216682551961e+00   5.348007000000000e-01 -3.44176132e+00   3.83140190e-01  -1.02597954e+00
C     3.993129520600000e+00   4.403625769807264e+00   4.532400000000000e-01  9.29773250e-01   3.54699399e+00  -1.72649915e+00
C     5.201868054499999e+00   3.768287099300724e+00   1.070007000000000e-01  4.63503600e-02   1.02541786e+00  -3.06797460e-01
C     6.378993752200000e+00   4.544178736209112e+00  -2.411337000000024e-01 -1.12876156e+00   3.56051000e-03   1.02771494e+00
C     7.525826818400000e+00   3.884370762661189e+00  -3.769781999999999e-01  6.46765097e+00  -4.77268843e+00   9.75184450e-01
C     8.917883951299999e+00   4.529788539577901e+00  -1.670213999999994e-01 -2.20243835e+00  -3.22829725e+00  -2.44355210e-01
C     1.007947980390000e+01   3.657619815677828e+00   1.176732000000000e-01  6.06258600e-01   4.48435452e+00  -7.60995750e-01
C     1.136657689170000e+01   4.469770225836916e+00   4.202763000000000e-01 -6.52751000e-01  -3.13800817e+00  -6.78665100e-01
C     3.943143757600000e+00   5.833735487833053e+00   1.440675000000000e-01  3.58699196e+00   1.74931506e+00   5.28227920e-01
C     5.369138764000000e+00   6.624591825997745e+00  -1.457918999999990e-01 -6.66487165e+00   2.22633424e+00   3.06576120e-01
C     6.515567077200000e+00   5.957548407309699e+00  -2.577024000000030e-01  6.40108530e-01  -8.43387060e-01   1.47684060e-01
C     7.757113824399999e+00   6.650810857676586e+00  -3.632310000000025e-01 -2.15087934e+00   9.38100380e-01  -8.36082090e-01
C     8.919552115400000e+00   5.941144114276571e+00  -2.270828999999992e-01  4.52080220e-01  -2.63874957e+00   1.99180710e-01
C     1.011425661550000e+01   6.560936662303223e+00  -1.382028000000020e-01  3.23529469e+00   3.63479289e+00   1.40601000e-01
C     1.137779343050000e+01   5.836544224550239e+00   1.951890000000000e-01 -1.42299417e+00   2.33769009e+00  -2.34123200e-01
C     1.261499339670000e+01   6.585479827785258e+00   1.510731000000000e-01 -3.43580670e-01   7.56418000e-01  -1.18421497e+00
