32
Lattice="9.86 0 0 4.93 8.53901048131456 0 0 0 30 " PBC="1 1 1" Properties=species:S:1:pos:R:3:force:R:3 Energy="-253.15885726"
C     5.048062111699999e+00   8.303758948083798e+00  -7.999541999999984e-01 -4.00490692e+00  -2.40261750e+00   6.13078490e-01
C     1.289294093000000e+00   4.418439245187968e-01  -7.447686000000004e-01  2.67410251e+00   1.09704895e+00   3.56501450e-01
C     7.443810056600000e+00   8.214310849333389e+00  -8.474949000000009e-01  2.06746282e+00   3.33874284e+00   8.25714680e-01
C     3.781515235900000e+00   3.913712852032984e-01  -7.890516000000005e-01  3.34107690e-01   1.70739645e+00   1.33239572e+00
C     1.000781722530000e+01   8.172930377596785e+00  -6.325740000000017e-01 -4.48448121e+00   6.39306263e+00  -1.06895973e+00
C     6.228112285400001e+00   4.230855970765424e-01  -6.802476000000013e-01  1.49888513e+00   3.56167950e-01   1.99884600e-01
C     1.237712622110000e+01   8.275325409427076e+00  -6.352578000000015e-01  2.08697455e+00  -2.96164328e+00   6.82613470e-01
C     8.678347231200000e+00   4.039956144672448e-01  -8.508174000000004e-01  1.53532550e-01   4.71159270e-01   6.71730250e-01
C     1.304292779900000e+00   1.873030667936428e+00  -4.135308000000002e-01 -4.09031000e-03  -1.47535488e+00  -2.38627130e+00
C     2.512940059500000e+00   2.610724663874527e+00  -3.559374000000020e-01  2.32888942e+00  -8.07458760e-01   1.13247822e+00
C     3.816777356700000e+00   1.962771910916617e+00  -5.450580000000009e-01 -4.75326153e+00  -5.53207054e+00  -6.54976050e-01
C     4.979755039000000e+00   2.599678172967075e+00  -5.561216999999985e-01  3.14924787e+00   2.24308686e+00   1.34864110e-01
C     6.243763802900000e+00   1.864384919825428e+00  -7.200072000000013e-01 -3.58378150e+00  -3.39124810e-01  -1.11925600e-02
C     7.387773852499999e+00   2.587419996472511e+00  -8.149755000000027e-01  3.93526403e+00  -7.57333970e-01  -2.16291980e-01
C     8.620243237200000e+00   1.788202515416117e+00  -8.883219000000011e-01  2.74492775e+00   3.73844481e+00   1.19923272e+00
C     9.961644620100000e+00   2.538733632759324e+00  -6.053351999999990e-01 -3.10297251e+00   2.23005670e+00   3.08731000e-01
C     2.548091206000000e+00   3.979726063471558e+00  -1.693080000000080e-02 -2.94818250e-01   4.60879730e-01  -1.34117255e+00
C     3.771908342100000e+00   4.725924486897214e+00  -8.201610000000059e-02  3.56431060e-01  -3.04087086e+00  -9.04593400e-01
C     4.957353020399999e+00   4.064959562819356e+00  -4.127192999999991e-01  3.26110506e+00  -2.32205780e+00   1.67355600e-01
C     6.252708104700000e+00   4.726021319276057e+00  -5.568618000000001e-01 -8.44890160e-01   1.18765719e+00  -9.21945290e-01
C     7.495024819300000e+00   4.004947482556021e+00  -7.426689000000017e-01 -1.86540620e+00  -4.95346680e-01   1.19543514e+00
C     8.726773635200001e+00   4.667389655446919e+00  -5.227436999999995e-01 -1.57454485e+00   3.00057793e+00  -1.01776743e+00
C     9.958169315199999e+00   4.082111702390321e+00  -4.259670000000000e-01  1.10195298e+00  -5.40848738e+00  -5.46453100e-02
C     1.121103785670000e+01   4.712898397190183e+00  -1.693388999999996e-01 -1.88300297e+00   8.50442330e-01  -2.33119110e-01
C     3.788023476800000e+00   6.049387855945034e+00  -2.972666999999980e-01  1.68078593e+00   5.58503264e+00  -2.77814920e-01
C     5.000135905500000e+00   6.864504120614139e+00  -6.050913000000016e-01  5.96445730e-01  -8.42082950e-01  -3.24966120e-01
C     6.247936949300000e+00   6.199677770607121e+00  -7.003988999999997e-01 -2.15869243e+00  -3.60013992e+00   1.24325572e+00
C     7.464870770099999e+00   6.824825217495886e+00  -7.627763999999999e-01 -1.96368300e-02   6.67466500e-01  -1.91594420e-01
C     8.635927637799998e+00   6.121123399866675e+00  -5.618693999999991e-01  3.06023663e+00  -2.48593320e-01  -1.12859060e-01
C     9.888448762199999e+00   6.875363607192080e+00  -5.113275000000002e-01  1.93093324e+00  -6.61581240e+00   7.85537400e-01
C     1.118697457600000e+01   6.125220417094980e+00  -3.091728000000025e-01  1.92197970e-01   7.47407260e-01   8.96539420e-01
C     1.248594423770000e+01   6.794125254677561e+00  -2.583944999999979e-01 -4.57899726e+00   2.77436501e+00  -2.02717877e+00
