32
Lattice="9.86 0 0 4.93 8.53901048131456 0 0 0 30 " PBC="1 1 1" Properties=species:S:1:pos:R:3:force:R:3 Energy="-256.33872121"
C     4.940092350900000e+00   8.483156214719585e+00   2.153010000000000e-02 -1.54068990e-01  -2.36456743e+00  -7.05381040e-01
C     1.232730083100000e+00   6.461002146342744e-01  -3.232919999999950e-02  9.69308880e-01  -6.26946600e-01   6.95461730e-01
C     7.367316571000000e+00   8.405614058281440e+00   4.344570000000000e-02  2.42728344e+00   2.77009025e+00  -1.10941851e+00
C     3.725473165099999e+00   6.148834709016999e-01  -1.057649999999981e-01 -1.19265423e+00  -2.23520910e-01   5.32925010e-01
C     9.909093186499998e+00   8.479245689480166e+00  -1.457622000000001e-01 -1.66782736e+00  -1.31168796e+00  -2.28319860e-01
C     6.182674989700000e+00   6.317859298062312e-01  -1.488608999999990e-01  1.04802929e+00   7.48851490e-01   2.12805300e-02
C     1.233232312060000e+01   8.422756292600249e+00  -2.065088999999993e-01  7.97345590e-01   1.30858432e+00   3.27006800e-01
C     8.630723283300000e+00   5.936927209341128e-01  -4.938419999999866e-02  2.93049280e-01   8.89314900e-01   1.63556480e-01
C     1.312617676500000e+00   2.067542153902025e+00  -1.704456000000008e-01 -2.59542357e+00  -5.16823810e-01  -6.03762720e-01
C     2.510483736300000e+00   2.723549243105091e+00  -3.878133000000012e-01  4.76784190e-01   2.31581880e+00   4.61331090e-01
C     3.736790670300000e+00   2.037549050371234e+00  -2.189733000000018e-01  1.56208830e-01  -4.69839890e-01  -3.76445580e-01
C     4.972952871500000e+00   2.761908356763556e+00  -2.009450999999984e-01 -5.20682470e-01  -3.78350680e-01   2.10069000e-02
C     6.216665909999999e+00   2.088877469317039e+00  -7.608719999999991e-02 -1.32691695e+00  -2.22363634e+00  -4.06199800e-02
C     7.424065998200000e+00   2.758514185487861e+00   2.306820000000000e-02  1.38216728e+00  -1.64484110e-01  -3.98059550e-01
C     8.666826757900001e+00   2.006528874659910e+00   1.597140000000000e-02  3.23761300e-02   2.26688387e+00  -8.34423890e-01
C     9.901456862999998e+00   2.793291184249966e+00  -1.895051999999993e-01 -1.59357970e-01  -2.46013139e+00   1.08219067e+00
C     2.476683853500000e+00   4.197637768366443e+00  -5.450720999999987e-01 -1.00946880e-01  -1.93853615e+00   2.96459260e-01
C     3.688156417500000e+00   4.877349321442198e+00  -4.473656999999989e-01  1.74642312e+00   1.54523470e-01   6.97678300e-02
C     4.907453335200000e+00   4.158810631543568e+00  -2.646675000000016e-01  2.05106631e+00   1.75904005e+00   5.20573700e-01
C     6.177238530800000e+00   4.923346836145337e+00  -6.719190000000097e-02 -6.66002730e-01  -1.90441176e+00  -5.14986640e-01
C     7.417564215600000e+00   4.169722803816169e+00  -1.905689999999893e-02 -3.51658320e-01   1.14173173e+00  -1.17039500e-02
C     8.648363119099999e+00   4.877520955552845e+00  -1.186161000000006e-01  2.06005300e-02   1.42816653e+00  -6.65993900e-02
C     9.874603941799998e+00   4.191261774631132e+00  -2.572548000000019e-01  5.66504020e-01   2.55773410e-01  -7.48973170e-01
C     1.111630346970000e+01   4.904047903949594e+00  -5.329467000000001e-01 -1.35736534e+00  -6.71709850e-01   9.43906660e-01
C     3.788808776500000e+00   6.289982759059199e+00  -3.808955999999988e-01 -1.88572903e+00   1.27859346e+00   6.69976930e-01
C     4.965428754800000e+00   6.998804055031589e+00  -6.198780000000070e-02  2.35640770e-01   2.15464556e+00  -4.53280680e-01
C     6.201281401299999e+00   6.341303749065885e+00  -1.232759999999899e-02 -2.44486480e-01  -1.78067170e+00   1.77643500e-02
C     7.437635083700000e+00   7.012543920624642e+00   2.355570000000000e-02 -9.64808520e-01   6.08509200e-01   6.36983500e-02
C     8.655249836099999e+00   6.341535327030103e+00  -1.263234000000004e-01 -1.15558450e-01  -1.98557209e+00   1.97684310e-01
C     9.861137548199999e+00   7.034292524146888e+00  -2.426132999999986e-01  1.83515223e+00   3.38440460e-01  -2.31685180e-01
C     1.108370571810000e+01   6.299167660291906e+00  -4.640792999999981e-01  2.10764222e+00   2.14368871e+00   3.65661710e-01
C     1.242133067170000e+01   7.052730894866457e+00  -4.045224000000012e-01 -2.84209482e+00  -2.54176556e+00  -1.26592190e-01
