32
Lattice="9.86 0 0 4.93 8.53901048131456 0 0 0 30 " PBC="1 1 1" Properties=species:S:1:pos:R:3:force:R:3 Energy="-253.5285565"
C     1.089962410300000e+00   9.370859533435399e-01   3.811225200000000e+00  6.14062470e-01   4.68368110e-01  -1.63482920e+00
C     2.335881525200000e+00   1.606303831050318e+00   3.417298500000000e+00  1.32195060e-01  -4.26782259e+00   2.19505960e+00
C     3.581009227200000e+00   9.097461765392000e-01   3.592494900000000e+00 -1.65226700e-02  -2.06140424e+00  -5.43038450e-01
C     4.797309148600000e+00   1.595733560757336e+00   3.629954100000000e+00  1.30313879e+00   7.74880600e-02   5.64380930e-01
C     6.094677644900000e+00   9.061433118473735e-01   3.827609400000000e+00 -3.35029130e+00   2.26765433e+00  -1.80285721e+00
C     7.302908191599999e+00   1.640647560420669e+00   3.808432200000000e+00 -1.21361570e-01  -2.38524977e+00   2.60932950e-01
C     8.449703346100000e+00   8.493214912894711e-01   3.820781100000000e+00  4.62112944e+00   2.08486048e+00   5.73490000e-02
C     9.729394144200000e+00   1.657021454576488e+00   3.838991400000000e+00 -6.60389630e-01  -2.53647554e+00  -1.05590419e+00
C     2.377980077000000e+00   2.925132139819489e+00   3.220229100000000e+00 -1.12552840e-01   4.51986065e+00   8.99564500e-02
C     3.559554163000000e+00   3.701933779074731e+00   3.290090100000000e+00  2.11889509e+00   1.53827151e+00  -6.16716960e-01
C     4.822922224100000e+00   3.005514541923493e+00   3.508140000000000e+00 -9.80575530e-01   2.31537100e-02  -5.54468450e-01
C     6.081932756800000e+00   3.640979589785137e+00   3.544677300000000e+00  6.22627400e-01   3.65161250e+00   1.07074515e+00
C     7.382132404200000e+00   3.027018588185592e+00   3.751578900000000e+00 -2.99588567e+00   6.09927290e-01  -2.35729150e-01
C     8.557477928199999e+00   3.778726466563048e+00   3.755687700000000e+00  7.19595040e-01  -6.98219750e-01  -1.48717061e+00
C     9.771928409400001e+00   3.015804988843046e+00   3.543659700000000e+00  5.50614880e-01   1.93224728e+00   1.09795710e+00
C     1.105058523860000e+01   3.672606376800962e+00   3.286731000000000e+00 -2.91677419e+00   1.86629095e+00   7.61493720e-01
C     3.576188476000000e+00   5.215811873030158e+00   3.224593200000000e+00 -2.74630658e+00  -2.41750720e+00   6.34410810e-01
C     4.731476837300000e+00   5.794025075766127e+00   3.633922500000000e+00  5.48501874e+00   2.35573629e+00   1.97978960e-01
C     6.028624075200000e+00   5.115911086161075e+00   3.621235200000000e+00  9.66109110e-01  -1.22960251e+00   1.04551125e+00
C     7.319537032300000e+00   5.833340729378562e+00   3.849936600000000e+00 -4.15237104e+00   3.20307860e+00  -1.44243283e+00
C     8.508260209900000e+00   5.195068652601829e+00   3.677429400000000e+00  2.82592525e+00  -1.57695748e+00   7.98133580e-01
C     9.808781638399999e+00   5.838873922779498e+00   3.589616400000000e+00 -2.26297567e+00   1.81956801e+00  -1.08473139e+00
C     1.098195608900000e+01   5.147426866040659e+00   3.351266700000000e+00  2.62399857e+00  -3.45229370e-01  -1.02721811e+00
C     1.220417082720000e+01   6.005348934075692e+00   3.185804100000000e+00 -9.13883520e-01  -2.78129666e+00   1.66054008e+00
C     4.891208147100000e+00   7.223090131249792e+00   3.895322700000000e+00 -3.25492804e+00   1.86775387e+00  -2.35790982e+00
C     6.049258688799999e+00   8.070727217331980e+00   3.854277900000000e+00  9.45013590e-01  -2.61931351e+00   9.67083910e-01
C     7.295502986499999e+00   7.360698163717299e+00   3.823789800000000e+00 -8.84713900e-02  -3.19551790e+00  -1.21350410e-01
C     8.542943745899999e+00   7.957732284842340e+00   3.652221600000000e+00 -8.67036820e-01   2.88757138e+00  -1.87022200e-02
C     9.762946393099998e+00   7.291039136364183e+00   3.479451900000000e+00  3.65311810e-01  -3.70591250e-01   1.46654215e+00
C     1.094964767910000e+01   8.096179189699400e+00   3.551136000000000e+00  1.09841044e+00  -2.01993843e+00   5.79929170e-01
C     1.216720563790000e+01   7.397392853453002e+00   3.517887900000000e+00  3.06296544e+00  -2.19303101e+00  -1.53045733e+00
C     1.352335723570000e+01   8.000680262732757e+00   3.632293200000000e+00 -2.61468467e+00  -4.75285830e-01   2.06551153e+00
