32
Lattice="9.86 0 0 4.93 8.53901048131456 0 0 0 30 " PBC="1 1 1" Properties=species:S:1:pos:R:3:force:R:3 Energy="-255.9898272"
C     9.799851337800000e+00   4.338730997961360e-01   3.579347700000000e+00 -8.41297800e-01   4.41665501e+00   2.76925000e-01
C     1.133615588300000e+00   1.227563962489665e+00   3.569819400000000e+00 -1.66878020e-01  -2.76552380e-01  -9.89804070e-01
C     2.339334447900000e+00   4.911103432138904e-01   3.541605300000000e+00  1.07252982e+00   1.42627014e+00   8.93899010e-01
C     3.573359543400000e+00   1.215956800154096e+00   3.533956800000000e+00  1.15009272e+00  -5.32163780e-01  -7.25335720e-01
C     4.806688917300000e+00   4.211406666595128e-01   3.548601300000000e+00  9.27325560e-01   4.98474165e+00   7.27622400e-02
C     6.062028621300000e+00   1.189273331695249e+00   3.522361500000000e+00  5.18592600e-02  -1.02194570e-01  -1.83441530e-01
C     7.317659195300000e+00   4.970845765061176e-01   3.503465700000000e+00  2.27775440e-01   5.00788820e-01   3.85249900e-01
C     8.613444027700000e+00   1.237316537139082e+00   3.498154800000000e+00 -3.02336232e+00  -1.65604438e+00   5.46618950e-01
C     1.098452422460000e+01   2.679868874285803e+00   3.382156500000000e+00  2.01902800e-02  -1.51354902e+00   8.38319700e-02
C     2.366834333000000e+00   3.337607504034003e+00   3.231838800000000e+00  1.13390549e+00   4.42444540e-01   1.24528492e+00
C     3.620425119499999e+00   2.666482694506831e+00   3.381818700000000e+00 -1.07009020e+00  -2.20930822e+00   4.82025070e-01
C     4.839370281700000e+00   3.366542538776217e+00   3.529238400000000e+00 -3.72588930e-01  -1.37528802e+00  -3.78894710e-01
C     6.069305005500000e+00   2.634588124122355e+00   3.521938500000000e+00 -6.22914450e-01  -5.22496230e-01  -8.40237800e-02
C     7.270145038499999e+00   3.362578217770772e+00   3.476027700000000e+00  1.41071033e+00  -4.21718200e-01   1.28237906e+00
C     8.530116132400000e+00   2.656045888947651e+00   3.539802600000000e+00  6.25365730e-01   3.74650750e-01  -1.12443372e+00
C     9.762763095699999e+00   3.413849681516674e+00   3.427962600000000e+00 -8.89554800e-01  -2.66476300e+00   4.14319460e-01
C     1.228347712430000e+01   4.759897964773151e+00   3.296250600000000e+00 -1.71690780e+00  -3.31719660e-01  -1.43858090e-01
C     3.613963565700000e+00   5.475800064405871e+00   3.439251300000000e+00  1.46000150e-01   8.24406130e-01   3.20812410e-01
C     4.807730133300000e+00   4.750303361817614e+00   3.606938400000000e+00  1.93716333e+00   1.13031529e+00  -9.92844480e-01
C     6.082274750900000e+00   5.430071613922956e+00   3.614641500000000e+00 -3.33719420e+00   4.37559131e+00   1.22699368e+00
C     7.268455576799999e+00   4.807091624064329e+00   3.618816900000000e+00  2.76940310e+00  -2.35771756e+00  -1.00884165e+00
C     8.517240500699998e+00   5.505397470191018e+00   3.567536700000000e+00  1.97199960e-01   1.41698732e+00   4.20212630e-01
C     9.732023066699998e+00   4.784194523632524e+00   3.438717300000000e+00  1.66546274e+00   1.54713980e+00  -2.68535080e-01
C     1.104683469180000e+01   5.442678182045104e+00   3.351970200000000e+00 -2.18287297e+00   1.24922853e+00  -1.44638120e-01
C     1.344913061340000e+01   6.911965904834390e+00   3.503183400000000e+00 -1.26165510e-01  -1.26668264e+00   8.27254480e-01
C     4.805158842500000e+00   7.606930265380045e+00   3.686292600000000e+00  1.36127605e+00  -1.08072817e+00  -7.00341750e-01
C     6.060566679099999e+00   6.938915448859794e+00   3.722832000000000e+00  2.15584800e-01  -3.27120905e+00  -5.09197500e-01
C     7.308326409499999e+00   7.612586505921997e+00   3.688265100000000e+00 -1.35780609e+00   1.48233816e+00  -1.89291200e-01
C     8.552835297900000e+00   6.986360752789818e+00   3.656499000000000e+00 -2.04384426e+00  -5.09994664e+00  -4.66787550e-01
C     9.752953135199999e+00   7.602056283588166e+00   3.550688400000000e+00  2.14995549e+00  -9.69533400e-01  -5.61018360e-01
C     1.099381392220000e+01   6.862213018712251e+00   3.371156400000000e+00  2.25320590e-01   5.72519790e-01   1.55184212e+00
C     1.220944784990000e+01   7.590317449710995e+00   3.539932800000000e+00  4.64356510e-01   9.07537690e-01  -1.55912359e+00
