32
Lattice="9.86 0 0 4.93 8.53901048131456 0 0 0 30 " PBC="1 1 1" Properties=species:S:1:pos:R:3:force:R:3 Energy="-251.97958215"
C     5.093268831300000e+00   8.316580784660148e+00  -1.441050000000033e-02 -5.70395408e+00  -7.56623790e-01   7.84133840e-01
C     1.294960388500000e+00   4.590022975674136e-01  -6.688860000000219e-02  4.14612721e+00   3.22347618e+00  -5.75651260e-01
C     7.492346054500000e+00   8.293887851968920e+00   1.292832000000000e-01 -1.54680255e+00   4.54337598e+00   2.82570780e-01
C     3.758488832800000e+00   5.732873037603713e-01   2.308578000000000e-01 -3.34509700e-01  -1.76286048e+00  -1.38545425e+00
C     9.886213204400001e+00   8.442447250767129e+00   1.546461000000000e-01  4.43592749e+00  -3.78972192e+00  -2.02635953e+00
C     6.296283092900000e+00   5.477936610218073e-01  -4.909560000000113e-02 -2.46705195e+00  -2.91652817e+00   9.90642390e-01
C     1.241498147260000e+01   8.293960177387685e+00  -1.198712999999998e-01  1.36928037e+00   4.13470100e+00   1.42634361e+00
C     8.726113310999999e+00   5.578585072844784e-01   1.257141000000000e-01  1.34241257e+00  -4.30770217e+00  -2.41410200e+00
C     1.331456981300000e+00   1.932666604788119e+00  -4.235727000000011e-01  2.15254546e+00  -1.44156542e+00   7.47756900e-01
C     2.648476999900000e+00   2.605904904799196e+00  -6.279195000000009e-01 -3.50873055e+00   1.03850997e+00   7.63649940e-01
C     3.844907542300000e+00   1.919205708667447e+00  -1.688903999999987e-01 -3.92153315e+00   1.46752469e+00  -1.34407102e+00
C     4.982058729399999e+00   2.640658250502272e+00  -2.426724000000000e-01  5.81503727e+00   8.54962300e-01   5.99265300e-01
C     6.318988848800000e+00   1.913203211250531e+00  -3.122549999999791e-02 -3.20507341e+00   1.69363133e+00  -6.59794600e-02
C     7.501259839599999e+00   2.569658940064216e+00   4.647330000000000e-02  2.51897050e+00   5.54860522e+00  -2.84308980e-01
C     8.772663455600000e+00   1.931771460319501e+00   3.710850000000000e-02 -4.14223990e-01   6.95525720e-01  -6.23768170e-01
C     9.994711904899999e+00   2.640664654760132e+00  -3.381755999999996e-01 -1.06809459e+00   1.63713302e+00   6.96633180e-01
C     2.526876725800000e+00   4.111346371010278e+00  -9.057905999999996e-01  3.18015035e+00  -3.37480033e+00   1.54295370e+00
C     3.796891215700000e+00   4.763012312675416e+00  -7.262303999999986e-01  1.75584302e+00   1.35134165e+00   1.44023294e+00
C     5.099868178600000e+00   4.074892310589901e+00  -3.952355999999995e-01 -2.95614618e+00  -1.26046649e+00   2.18640140e-01
C     6.268283650899999e+00   4.762958004568763e+00   5.368560000000000e-02 -2.87476140e-01   6.89282310e-01  -9.82760050e-01
C     7.554413916400000e+00   4.132988663852048e+00   6.069420000000000e-02 -1.93929857e+00  -4.09910492e+00   2.99811800e-02
C     8.772242433600001e+00   4.819365768508491e+00  -6.421890000000019e-02 -6.58529300e-01  -8.72307970e-01  -3.64675030e-01
C     9.970190873700000e+00   4.110594681917724e+00  -4.199880000000000e-01  9.12631330e-01  -6.74190280e-01  -7.92579900e-02
C     1.120829184670000e+01   4.832491508467823e+00  -7.235238000000024e-01 -2.51676255e+00  -2.56173300e-02   4.54682630e-01
C     3.800555438200000e+00   6.168421149695605e+00  -4.438755000000008e-01 -1.60581070e-01   1.10699075e+00   4.51136430e-01
C     5.030138850200000e+00   6.851737189875178e+00  -2.848080000000053e-02 -5.72223874e+00   3.04833057e+00  -1.27228250e+00
C     6.109864559200000e+00   6.191165487229924e+00   2.003355000000000e-01  7.58786900e+00  -2.23397015e+00   8.80664900e-02
C     7.385331727700001e+00   6.967608744215320e+00   2.749914000000000e-01  2.19141330e+00  -5.07198583e+00  -8.49395980e-01
C     8.658662431400000e+00   6.204275259239658e+00   8.073600000000000e-03  2.09290117e+00   2.73974904e+00   5.02254700e-01
C     9.966582015100000e+00   6.936801702205575e+00  -1.551837000000020e-01 -2.43476148e+00   1.45500842e+00   9.43766750e-01
C     1.119970881530000e+01   6.272156550000942e+00  -5.488107000000007e-01 -1.33351987e+00  -3.12944480e-01   9.55238910e-01
C     1.243332289670000e+01   6.953380191052496e+00  -3.962399999999988e-01  6.78178810e-01  -2.32775841e+00  -6.49883600e-01
