32
Lattice="9.884 0 0 4.942 8.55979509100539 0 0 0 30 " PBC="1 1 1" Properties=species:S:1:pos:R:3:force:R:3 Energy="-258.07565421"
C    -8.542553944376176e-04  -9.051283855101371e-04   2.999660695786923e+00  4.80627600e-02   3.82074400e-02   1.28043700e-02
C     1.235942578031226e+00   7.125612436754546e-01   2.999385240857596e+00 -6.35920300e-02   2.08140600e-02   6.92120000e-04
C     2.471638546903485e+00   1.423755348085737e-04   3.000036578010117e+00 -2.35651600e-02  -1.96525800e-02   8.38270000e-04
C     3.706420433459796e+00   7.122961694887003e-01   3.000813194837868e+00  2.06234200e-02   7.60801600e-02  -1.45292400e-02
C     4.941502440821319e+00  -1.158044307214808e-03   3.000439852224640e+00  5.66716700e-02   3.49135800e-02   2.66212000e-03
C     6.178497021400465e+00   7.133519664618782e-01   3.000096629627043e+00 -8.80842200e-02  -4.61691700e-02  -5.13826000e-03
C     7.413406053292879e+00   3.312542422659216e-04   2.999637799505780e+00 -4.91129200e-02  -2.55105100e-02   1.24627200e-02
C     8.647330333649235e+00   7.124891887773042e-01   3.000937297227713e+00  9.57797900e-02   1.58237900e-02  -1.14799900e-02
C     1.234432084346416e+00   2.139625283767854e+00   2.999049901948960e+00  1.91319900e-02  -3.58324300e-02  -8.27610000e-04
C     2.470002442826572e+00   2.852236525258190e+00   2.998979296684114e+00  1.43236300e-02   5.90184300e-02  -4.19794000e-03
C     3.705319494194415e+00   2.140618519316872e+00   2.998886104392039e+00  6.78682200e-02  -6.01340700e-02   1.22499900e-02
C     4.941914066626776e+00   2.854355317234616e+00   2.999299501901085e+00 -4.10312700e-02  -6.24622100e-02   2.93189000e-03
C     6.177157317926777e+00   2.138790661091494e+00   2.999515794045027e+00 -8.54328000e-03   6.46494300e-02   2.01194000e-03
C     7.412229709422870e+00   2.852341270787020e+00   2.999788029796749e+00  6.25734400e-02   6.35325000e-03   1.02007000e-02
C     8.649598782292594e+00   2.138808019579906e+00   3.001129346064353e+00 -1.15722240e-01   2.23319600e-02  -1.52098100e-02
C     9.883076626371427e+00   2.852222138850786e+00   2.999174891119860e+00  4.59365800e-02   4.89196500e-02   1.37425700e-02
C     2.472123731483223e+00   4.279324424865729e+00   2.999012936665498e+00 -7.65305400e-02   3.25265300e-02   7.54407000e-03
C     3.707507614935620e+00   4.993345691926716e+00   3.000614519467749e+00 -7.83060000e-02   9.22472000e-03  -8.71102000e-03
C     4.941028213714310e+00   4.280605275457591e+00   3.000392339776329e+00  9.29319000e-02  -2.77904800e-02  -9.39101000e-03
C     6.177158894675420e+00   4.993584094266542e+00   2.999334172612872e+00  2.52861200e-02  -1.12676900e-02   1.12914700e-02
C     7.413535857379778e+00   4.279319631493094e+00   3.000303429319652e+00 -5.10462800e-02  -4.61508000e-03  -1.07824400e-02
C     8.649276657163817e+00   4.992075599418303e+00   3.000225508754527e+00 -6.18271900e-02   3.77975300e-02   4.56618000e-03
C     9.883558649329197e+00   4.279925755129863e+00   3.000008415832989e+00  3.84638000e-02  -3.20195400e-02  -7.92577000e-03
C     1.111903313903433e+01   4.994221923705282e+00   2.999441931137163e+00  7.17609100e-02  -1.13711420e-01   6.04348000e-03
C     3.707287448841502e+00   6.419976743972404e+00   3.000363458958678e+00 -5.24611200e-02   1.35170000e-02   7.08433000e-03
C     4.942501302597089e+00   7.132944647993437e+00   3.000984317812386e+00 -4.85376600e-02   9.84875000e-03  -1.73298600e-02
C     6.176422911651509e+00   6.420252718021218e+00   2.999547517269817e+00  9.73709000e-02  -1.44975300e-02   5.88057000e-03
C     7.413503433956029e+00   7.133830671579268e+00   2.999797387700686e+00 -5.62469900e-02  -5.19397600e-02   4.00831000e-03
C     8.647484991403383e+00   6.419187843389953e+00   3.000641270725664e+00  6.25382400e-02   9.33886000e-03  -6.42942000e-03
C     9.883923849075661e+00   7.132428574485624e+00   3.000484547906172e+00 -4.59428000e-03  -1.98083600e-02   4.80368000e-03
C     1.112051298307385e+01   6.418754710219202e+00   3.000713099128888e+00 -5.72286600e-02   8.70867300e-02  -9.90524000e-03
C     1.235474223457961e+01   7.133941251023651e+00   3.000164023648884e+00  5.71064500e-02  -6.10410400e-02   3.88500000e-05
