32
Lattice="9.572 0 0 4.786 8.28959516502464 0 0 0 30 " PBC="1 1 1" Properties=species:S:1:pos:R:3:force:R:3 Energy="-256.04603292"
C     1.906168002164064e-03   1.138631500478193e-03   2.995787543235983e+00 -4.53449700e-02   6.85339500e-02   6.11620800e-02
C     1.197682322723565e+00   6.932258483293388e-01   2.998565243622599e+00  1.22897950e-01  -9.71553500e-02   4.24522700e-02
C     2.395632738998585e+00  -3.394732840897873e-03   3.002742438493808e+00 -2.14835240e-01   4.69056260e-01  -5.34024400e-02
C     3.590092218871288e+00   6.933679192569914e-01   2.996901253114906e+00  1.44673630e-01  -3.27940570e-01   6.24237400e-02
C     4.788293305991792e+00  -1.898123615481821e-03   2.997560029042773e+00 -1.44711750e-01   4.19981800e-02   1.01293300e-02
C     5.985029659815281e+00   6.895456579108031e-01   2.999134811406439e+00 -1.70572290e-01   5.48672100e-02  -2.99639900e-02
C     7.178736161132017e+00   5.235403765836295e-04   2.996771749914060e+00  1.84536510e-01  -1.39842760e-01   4.95390900e-02
C     8.376099255019655e+00   6.933558193369441e-01   3.000974283790149e+00  5.36085000e-03  -2.66663150e-01  -5.88246400e-02
C     1.198284526219393e+00   2.076762451094456e+00   3.004321813507217e+00 -5.79621900e-02  -3.49723700e-01  -8.78700100e-02
C     2.389408967692675e+00   2.765366961266270e+00   2.998395962136720e+00  4.55976200e-01  -1.71683090e-01   9.25593800e-02
C     3.590630230257186e+00   2.070109777942466e+00   3.002839776002288e+00 -1.27254080e-01   3.67678830e-01  -6.65077100e-02
C     4.787763109639113e+00   2.766137738529180e+00   3.000400662928662e+00 -1.05723130e-01  -3.63211970e-01   2.91893000e-03
C     5.983665849369605e+00   2.072488649029638e+00   2.998466720491744e+00  1.63535700e-02  -2.07370500e-02   2.74714500e-02
C     7.180697227433851e+00   2.761939405336469e+00   3.001311999461982e+00 -2.04250600e-02   1.60207800e-02  -2.82174200e-02
C     8.378595533987946e+00   2.070613972010587e+00   2.999276639468716e+00 -8.52087700e-02   1.54185620e-01   1.88557700e-02
C     9.575262728859546e+00   2.759521847360459e+00   2.998197927157505e+00 -2.14756200e-01   3.35834210e-01   2.03198600e-02
C     2.391668620333258e+00   4.143041111152592e+00   3.003422621318892e+00 -2.48306900e-02   1.65207410e-01  -7.42242900e-02
C     3.588383213213131e+00   4.833120529665237e+00   3.000078994257284e+00  1.79960800e-02   1.63279470e-01   2.34775500e-02
C     4.783409305485079e+00   4.142291816502764e+00   2.999583069034601e+00  1.36274980e-01   2.63150460e-01   7.71540000e-04
C     5.981554456511186e+00   4.836250796746080e+00   2.998329392000233e+00 -5.57659500e-02  -1.98822560e-01   1.71556800e-02
C     7.176276887246192e+00   4.143706226896692e+00   3.000485739648612e+00  1.26182850e-01  -1.51471800e-02  -1.62745200e-02
C     8.374414352458144e+00   4.833547598297743e+00   2.997875736501610e+00 -1.28491620e-01   1.73784100e-01   1.54925300e-02
C     9.569770339454591e+00   4.145113143000151e+00   2.995959132028604e+00  6.78625900e-02  -2.05438690e-01   8.92000000e-05
C     1.076619387854130e+01   4.833635436281068e+00   2.996573170563407e+00  7.27730000e-02   9.84508300e-02   6.45562700e-02
C     3.593196231936637e+00   6.218358191224286e+00   2.999350308674335e+00 -1.92271920e-01  -2.05401500e-01   1.32440500e-02
C     4.785868422099450e+00   6.909616550986825e+00   3.001437484479383e+00  2.41140330e-01  -1.11146260e-01  -5.82839700e-02
C     5.984785274652797e+00   6.213690013542559e+00   2.999430729507059e+00 -2.62876060e-01   3.26034390e-01   1.15224300e-02
C     7.176007136462727e+00   6.911602445250852e+00   3.001105778863169e+00  1.81744730e-01  -3.67696620e-01   7.09081000e-03
C     8.372864807367050e+00   6.218484703609502e+00   3.001432926480846e+00 -8.12527700e-02  -2.13611590e-01  -2.34318400e-02
C     9.567691923429031e+00   6.903849787407127e+00   3.000518156617310e+00  2.93454020e-01   2.27585070e-01   5.06538000e-03
C     1.076876724910013e+01   6.215982037130344e+00   3.002682933816471e+00 -7.73251100e-02  -5.34303700e-02  -5.25505000e-02
C     1.196659937632091e+01   6.905240183785127e+00   2.999323830706242e+00 -5.76194800e-02   1.81985650e-01   3.25400000e-03
