32
Lattice="9.86 0 0 4.93 8.53901048131456 0 0 0 30 " PBC="1 1 1" Properties=species:S:1:pos:R:3:force:R:3 Energy="-254.78827894"
C     9.765275275800001e+00   4.356061773631568e-01   4.408287300000000e+00 -2.48534981e+00   5.22170960e+00   1.18986141e+00
C     1.065697689800000e+00   1.172376593927739e+00   4.554426600000000e+00  3.84888862e+00  -8.38186600e-01   7.62790200e-02
C     2.332158586400000e+00   4.246928096290880e-01   4.515444599999999e+00 -3.63842660e-01   3.44585087e+00   4.09453740e-01
C     3.519380480400000e+00   1.243279925888000e+00   4.593900600000000e+00  2.96046980e-01  -6.61935780e-01  -5.62728220e-01
C     4.684895584400000e+00   4.560197065968544e-01   4.385061300000000e+00  4.14023743e+00   2.19346216e+00   2.32268050e+00
C     6.018346109800000e+00   1.141048330718296e+00   4.548559200000000e+00 -9.19776380e-01   4.74877160e-01  -5.20644670e-01
C     7.282682422899999e+00   4.530033011447944e-01   4.536285599999999e+00 -5.07465500e-02   2.56265890e-01   8.89026210e-01
C     8.537582222999999e+00   1.197682463825848e+00   4.593344399999999e+00 -2.78434003e+00   3.24155020e-01  -5.61644780e-01
C     1.099952611600000e+01   2.585844122088427e+00   4.753366499999999e+00 -5.11796160e-01  -4.88783290e-01  -2.46204790e-01
C     2.324154632800000e+00   3.371878310254854e+00   4.818885000000000e+00  1.98677770e+00  -3.92394830e-01  -8.22496510e-01
C     3.576119850400000e+00   2.728796038094526e+00   4.725947400000000e+00 -6.53321960e-01  -3.80653325e+00  -5.31509050e-01
C     4.828792720200000e+00   3.360970236707283e+00   4.567668900000000e+00 -1.27847795e+00  -1.48932106e+00   6.18908310e-01
C     6.015082992099999e+00   2.569310804606947e+00   4.619867100000000e+00  2.89910660e-01   1.02493583e+00  -1.35247258e+00
C     7.208688693799999e+00   3.359200782955617e+00   4.529179800000001e+00  5.67327840e-01  -8.51670860e-01   1.29101421e+00
C     8.429466829999999e+00   2.683849931751789e+00   4.680213900000000e+00  3.71386191e+00  -3.68036155e+00  -7.68423180e-01
C     9.792520575699999e+00   3.259548908242027e+00   4.730924400000000e+00 -4.17363910e+00   2.22615114e+00   3.00899750e-01
C     1.227376285510000e+01   4.789774766981203e+00   4.688832900000000e+00 -5.23419904e+00  -1.75434910e+00   1.00553962e+00
C     3.583120056000000e+00   5.462877552895963e+00   4.597567200000000e+00  1.28059461e+00   2.00902202e+00  -7.87839930e-01
C     4.780546902099999e+00   4.747827561119043e+00   4.452261300000000e+00  7.21729500e-01   6.36149420e-01   1.01947540e-01
C     5.969755684700000e+00   5.450225728018271e+00   4.296779100000000e+00  2.37599054e+00   2.83332112e+00   8.40985750e-01
C     7.209718127100000e+00   4.784998556859320e+00   4.474965900000000e+00 -8.32777900e-02  -1.08611032e+00  -7.90113760e-01
C     8.463831789400000e+00   5.426851126120424e+00   4.487280900000000e+00  1.98323246e+00   3.35659120e-01   9.39820450e-01
C     9.717570673100001e+00   4.680516761647928e+00   4.745996700000000e+00  5.77292060e-01   1.18368732e+00  -1.50719531e+00
C     1.095714862480000e+01   5.406671053433249e+00   4.664362500000000e+00  4.89755810e-01   2.31250962e+00  -4.97209600e-02
C     1.342410336980000e+01   6.907816287301530e+00   4.530236400000001e+00  2.24543569e+00  -1.54625281e+00  -4.56924300e-01
C     4.797649910200001e+00   7.650445148176231e+00   4.303392600000000e+00  1.10543915e+00  -4.85004364e+00   8.33238780e-01
C     6.083281407599999e+00   6.923736589220652e+00   4.303785000000000e+00 -2.36571366e+00  -1.91621585e+00  -1.96825580e-01
C     7.344310972500001e+00   7.567371933089770e+00   4.418072400000000e+00 -1.81754428e+00   2.17684050e-01  -7.17446410e-01
C     8.559803458499999e+00   6.864347856722357e+00   4.414641599999999e+00 -7.75827110e-01  -1.49245924e+00   6.43095510e-01
C     9.752484440100000e+00   7.602362407113874e+00   4.508481000000000e+00 -6.95484490e-01  -1.17457365e+00  -1.25135500e+00
C     1.097851041340000e+01   6.868470405591995e+00   4.533255000000000e+00 -6.12382690e-01  -1.23169789e+00   1.23286225e+00
C     1.221228003630000e+01   7.537433650006260e+00   4.643535600000000e+00 -8.16801290e-01   2.56544938e+00  -1.57206800e+00
