32
Lattice="9.86 0 0 4.93 8.53901048131456 0 0 0 30 " PBC="1 1 1" Properties=species:S:1:pos:R:3:force:R:3 Energy="-256.5483367"
C     1.277563108700000e+00   5.370970133737207e-01   3.523322100000000e+00 -1.43066184e+00  -8.96461850e-01  -3.61162750e-01
C     2.472047435000000e+00   1.228315139241590e+00   3.391236000000000e+00  1.42090101e+00   3.74748150e-01  -8.53552550e-01
C     3.715958265100000e+00   5.167191772038296e-01   3.350791800000000e+00 -8.20935500e-01  -5.10934810e-01   2.37439400e-01
C     4.906199586900001e+00   1.235133453719766e+00   3.436992600000000e+00  1.40458021e+00   3.10718240e-01  -8.96801000e-01
C     6.142238686000000e+00   5.218496708705280e-01   3.420510600000000e+00  1.54300017e+00   2.53786780e-01   8.12998800e-02
C     7.424551504599999e+00   1.170607140176074e+00   3.445412700000000e+00 -8.72342320e-01   3.37547378e+00   5.75563850e-01
C     8.662496492399999e+00   5.486993938634208e-01   3.529444500000000e+00  7.04342850e-01  -1.53830948e+00  -1.14104839e+00
C     9.905186703800000e+00   1.239506878717307e+00   3.454104900000000e+00 -7.74619300e-01   1.71517861e+00   8.07841340e-01
C     2.463551664600000e+00   2.617264948171474e+00   3.140237700000000e+00  1.61335609e+00   8.69923210e-01   7.51510220e-01
C     3.758151719400000e+00   3.358789544210901e+00   3.097516500000000e+00 -2.19854018e+00   4.15895320e-01   1.21454784e+00
C     4.948354143500000e+00   2.656526208287151e+00   3.338543100000000e+00  1.17793382e+00  -3.15720830e-01   1.83305540e-01
C     6.251625476699999e+00   3.323395601941615e+00   3.466440300000000e+00 -2.82821678e+00   7.56369770e-01  -3.64716800e-01
C     7.455529208900000e+00   2.639706577784276e+00   3.486486300000000e+00  5.95594300e-01  -8.70713410e-01   5.28260000e-04
C     8.668556103299998e+00   3.423320810380671e+00   3.457078500000000e+00 -6.10870300e-01  -1.11360131e+00   3.97023900e-02
C     9.888190578099998e+00   2.721993264615425e+00   3.393982800000000e+00 -9.86882730e-01  -3.57644541e+00   7.44750800e-02
C     1.109302770720000e+01   3.323629485438663e+00   3.210110100000000e+00  2.22138413e+00   2.76950522e+00  -4.95031320e-01
C     3.717812290199999e+00   4.803704369387123e+00   3.202695900000000e+00 -2.21364600e-01   1.90057180e-01  -9.92221870e-01
C     4.942962596900000e+00   5.512687223437795e+00   3.360735600000000e+00  6.22761000e-01  -1.52407468e+00   3.22782770e-01
C     6.202493589700000e+00   4.737253021320820e+00   3.480834600000000e+00 -7.11080260e-01   2.15017463e+00  -4.15071050e-01
C     7.402461653600000e+00   5.513279916155211e+00   3.468329100000000e+00  6.19089270e-01  -9.35885430e-01   1.96312450e-01
C     8.656249985200001e+00   4.836517054178410e+00   3.430474500000000e+00 -1.92243280e-01  -4.10763590e-01  -5.93737190e-01
C     9.894193346100000e+00   5.519839327835633e+00   3.241108200000000e+00  1.89306820e-01  -7.72517360e-01   4.22590930e-01
C     1.111046620180000e+01   4.768022064733928e+00   3.129331200000000e+00  2.53256050e-01   1.36277003e+00   1.16939690e-01
C     1.233120504590000e+01   5.559481342428613e+00   3.085868700000000e+00  7.10513180e-01  -2.32448245e+00   4.59068200e-01
C     4.926204984600000e+00   6.927643698855880e+00   3.447460500000000e+00  2.32250381e+00   6.07521810e-01   2.97870270e-01
C     6.210476985200000e+00   7.649267618631039e+00   3.566662200000000e+00 -1.01517531e+00  -7.44286760e-01  -6.69562270e-01
C     7.436452869700000e+00   6.916717437215986e+00   3.459461100000000e+00 -7.34182490e-01   1.08024405e+00  -2.80883620e-01
C     8.669856292200000e+00   7.626846909593913e+00   3.287226600000000e+00 -2.04231890e-01   2.34767260e-01   1.29448556e+00
C     9.914651317799999e+00   6.932341862421976e+00   3.284657100000000e+00 -3.09241140e-01   2.53769550e-01  -4.11772510e-01
C     1.113762044460000e+01   7.662858307711007e+00   3.314741400000000e+00 -1.13774393e+00  -4.72251150e-01  -5.76492210e-01
C     1.236361945080000e+01   6.973705853868353e+00   3.172102800000000e+00  3.61754300e-02  -1.96657150e-01   9.94803720e-01
C     1.359509031330000e+01   7.667644337694941e+00   3.384765300000000e+00 -3.86366280e-01  -5.17797960e-01  -1.90138700e-02
