32
Lattice="9.86 0 0 4.93 8.53901048131456 0 0 0 30 " PBC="1 1 1" Properties=species:S:1:pos:R:3:force:R:3 Energy="-248.03893166"
C     1.164245333200000e+00   8.972086890118351e-01   3.433664400000000e+00  1.38611907e+00  -3.67935264e+00   2.40098845e+00
C     2.449574769500000e+00   1.551797875524697e+00   3.481445700000000e+00  5.68329390e-01  -7.73271413e+00   1.52891442e+00
C     3.714286206300000e+00   8.108327554519192e-01   3.924954900000000e+00 -2.21833971e+00   8.84685500e-02  -9.15276180e-01
C     4.886161454000000e+00   1.559647360908437e+00   3.822075000000000e+00  1.36208428e+00  -1.58140925e+00   3.19753430e-01
C     6.095610400899999e+00   8.316868976263847e-01   3.797672400000000e+00  1.88858855e+00   1.44638313e+00   1.47374854e+00
C     7.392963860699999e+00   1.622938421196092e+00   3.916531500000000e+00 -2.60305132e+00  -2.41128100e+00  -7.44448290e-01
C     8.631524063200001e+00   8.092107704112432e-01   3.987131400000000e+00 -4.70017363e+00  -2.22630395e+00  -3.18566990e-01
C     9.714256973600000e+00   1.465792364239403e+00   3.560813400000000e+00  4.96115834e+00   1.20391050e+00   6.69464190e-01
C     2.443695695200000e+00   2.825533633921399e+00   3.513739800000000e+00  2.54274317e+00   8.61089125e+00   1.05684220e-01
C     3.738437388900000e+00   3.625027437356926e+00   3.631631700000000e+00 -5.64382962e+00   3.11979245e+00  -1.06234180e-01
C     4.878900500699999e+00   2.937780719873199e+00   3.777297000000000e+00  2.65740240e+00   4.99609726e+00  -6.88450970e-01
C     6.104660845600000e+00   3.930626240870930e+00   3.758034300000000e+00  1.05270700e+00  -1.32532148e+01   2.83921760e-01
C     7.322328349000000e+00   3.088544378836717e+00   3.781571400000000e+00 -6.12718700e-01  -3.75430297e+00  -6.96412000e-02
C     8.589540676200000e+00   3.597494166575109e+00   3.734504100000000e+00  7.61155620e-01   1.88298199e+00   1.74253424e+00
C     9.857493095000001e+00   2.840145759434984e+00   3.729638400000000e+00 -2.46038182e+00   3.25501301e+00  -1.69518010e+00
C     1.108776113610000e+01   3.527511254554487e+00   3.589785000000000e+00 -1.25249630e-01   2.83443893e+00  -3.41790360e-01
C     3.611877337600000e+00   5.270465126486561e+00   3.658687800000000e+00  1.25265116e+00  -5.51671485e+00   7.66311900e-02
C     4.916482580900000e+00   5.793207892463191e+00   3.763663500000000e+00 -1.28287152e+00   3.51967347e+00   1.19399877e+00
C     6.193284546899999e+00   5.185895705983793e+00   3.900409500000000e+00 -3.84857191e+00   3.67964757e+00  -1.65333809e+00
C     7.392662144699999e+00   5.837365677358415e+00   3.869412000000000e+00  2.84574300e-02   1.73699987e+00   2.57261860e+00
C     8.471756123500001e+00   4.976018441439646e+00   4.002954600000000e+00  6.99914619e+00   3.06846859e+00  -2.41109008e+00
C     9.838913798400000e+00   5.692130515340069e+00   3.832822500000000e+00 -1.12531079e+00   6.91715490e-01   1.74719042e+00
C     1.111173897990000e+01   5.035664112763284e+00   3.591646500000000e+00 -4.53713220e+00  -1.18992130e+00   1.02066213e+00
C     1.214949653560000e+01   5.942537168446278e+00   3.664007700000000e+00  5.32947989e+00  -4.83040094e+00  -9.07559980e-01
C     4.916053375100000e+00   7.209098108677265e+00   3.940332900000000e+00  1.37125181e+00   8.29081440e-01  -3.01409960e-01
C     6.194098834999999e+00   8.081218928728546e+00   3.875539200000000e+00 -1.96364140e+00  -3.40855864e+00  -4.90218890e-01
C     7.383475385500000e+00   7.270142982258156e+00   4.094191500000000e+00  1.60295696e+00   1.18537704e+00  -7.11987460e-01
C     8.679615177899999e+00   7.947468394245380e+00   4.263605400000000e+00 -1.93937387e+00  -7.58473270e-01  -2.45450034e+00
C     9.887529070699999e+00   7.147078250879767e+00   4.103796000000000e+00 -1.86727883e+00   1.54945710e-01  -1.33636440e+00
C     1.100267037140000e+01   7.952284652326415e+00   3.816771300000000e+00  1.34344469e+00   1.18090763e+00   6.47300490e-01
C     1.223934499680000e+01   7.293003023384478e+00   3.734948700000000e+00  6.88246700e-02  -4.54223660e-01   1.49564910e+00
C     1.352059219590000e+01   7.755117448711433e+00   4.081163400000000e+00 -2.48575660e-01   7.31207757e+00  -2.13300246e+00
