26
Lattice="8.88768389401873 1.33226762955019e-15 0 4.44384194700937 7.69696003302603 0 0 0 30 " PBC="1 1 1" Properties=species:S:1:pos:R:3:force:R:3 Energy="-208.25215321"
C     1.304221253181998e+01   7.445542986978466e+00  -2.128256999999998e-01  2.63661970e+00  -3.19119730e-01  -1.05473650e-01
C     9.368464843353479e+00   7.179708922063940e+00  -1.804242000000009e-01 -3.70276650e-01   1.58514350e-01   1.60339090e-01
C     1.070117037608763e+01   6.769945707007629e+00  -1.483023000000010e-01  4.67575950e-01   2.70067348e+00   2.57482840e-01
C     1.102880986473216e+01   5.450170445786817e+00  -1.034190000000024e-01  1.56559154e+00  -3.16269872e+00  -2.38877500e-01
C     6.951116455595487e+00   6.651274977869893e+00  -2.009954999999977e-01  5.35310220e-01  -2.10822153e+00   7.34147000e-03
C     8.372251598967152e+00   6.227443875027551e+00  -1.858997999999978e-01 -3.37732287e+00  -9.70120760e-01  -7.09314900e-02
C     8.635119824842333e+00   4.812860308032409e+00  -1.725899999999996e-01  2.53591358e+00   2.02939599e+00   7.69857130e-01
C     1.004245052873996e+01   4.420966201442547e+00  -6.729329999999933e-02 -1.42632236e+00   4.61822460e-01  -8.43913530e-01
C     1.033850278885451e+01   3.040921049250824e+00  -1.497008999999991e-01  1.77306593e+00   1.41333457e+00  -4.99625530e-01
C     4.510719903784792e+00   6.043897163128151e+00  -2.201175000000006e-01  9.32990170e-01   3.60626650e-01   2.39452320e-01
C     5.887092493896946e+00   5.653868029953557e+00  -1.885610999999976e-01  8.96521020e-01   3.29366570e-01   6.63376700e-02
C     6.237904929578992e+00   4.263701606231185e+00  -1.300914000000013e-01  2.21989660e-01  -1.53918700e-01  -7.18366010e-01
C     7.623903592379863e+00   3.906208446738604e+00  -1.443288000000003e-01 -1.06102809e+00  -4.16972503e+00  -1.69423690e-01
C     8.012836948408975e+00   2.394947367225849e+00  -1.862865000000014e-01 -4.93646418e+00   5.08425261e+00   5.26891460e-01
C     9.311970010785336e+00   2.113815209403696e+00  -2.248644000000013e-01  2.85168005e+00  -2.95811834e+00   1.85671200e-02
C     3.533621045596867e+00   5.035498340532173e+00  -1.823553000000011e-01 -1.44049357e+00  -3.14829390e-01   1.45638380e-01
C     3.842372961641272e+00   3.626228062015341e+00  -2.283356999999988e-01  7.70341240e-01   1.04400419e+00  -9.87360800e-02
C     5.229045844125237e+00   3.242873270761161e+00  -2.178380999999980e-01 -6.27170400e-01  -7.28986800e-02   5.57706910e-01
C     5.553171453575544e+00   1.841417484853987e+00  -1.620923999999988e-01  1.41073149e+00   1.84648106e+00  -1.73748980e-01
C     6.932506753138711e+00   1.491845574806681e+00  -1.331579999999981e-01  3.71877700e-02  -1.09345759e+00  -2.79573680e-01
C     7.251911224918806e+00   1.091043314556497e-01  -1.439568000000016e-01  9.87620400e-02  -3.15902910e-01  -2.42856240e-01
C     2.824113195205001e+00   2.638672607180603e+00  -2.830428000000005e-01  6.25083820e-01   2.41692140e-01   5.35736400e-01
C     3.244699193173965e+00   1.274556698618967e+00  -3.241496999999995e-01 -2.24701781e+00  -2.56284050e-01   8.52732830e-01
C     4.573591642876384e+00   8.457010202690404e-01  -1.971822000000003e-01 -8.72884500e-02   9.66383710e-01  -4.96410860e-01
C     8.141732587003236e-01   7.398990695142622e-01  -2.689013999999972e-01 -1.50166692e+00  -1.68559250e+00   4.08173440e-01
C     2.180008433011976e+00   3.085537324730321e-01  -2.433125999999994e-01 -2.84312870e-01   9.44340160e-01  -6.08319820e-01
