26
Lattice="8.88768389401873 1.33226762955019e-15 0 4.44384194700937 7.69696003302603 0 0 0 30 " PBC="1 1 1" Properties=species:S:1:pos:R:3:force:R:3 Energy="-206.80509528"
C     1.170886273593788e+00   1.564037595046460e+00   3.466314000000000e+00  1.06450239e+00  -4.27910255e+00   1.66701889e+00
C     3.523987460173695e+00   9.365533194967501e-01   3.610099500000000e+00  2.59776976e+00  -1.23686969e+00   8.57673600e-01
C     4.898634151409703e+00   1.252263839344877e+00   3.854565000000000e+00  2.08764181e+00   4.48382950e-01  -5.16557040e-01
C     5.970645028943645e+00   2.602416846655291e-01   4.030484400000000e+00 -3.31728660e-01   3.24239468e+00  -7.82648090e-01
C     7.356913077989921e+00   7.443327494003430e-01   3.926692200000000e+00 -3.88399210e-01  -3.20553131e+00   2.37940970e-01
C     1.284416813839638e+01   7.464830568208842e+00   3.800371800000000e+00  2.01890700e-01  -8.64338570e-01   1.65951660e-01
C     8.979192817154681e-01   1.032403254871939e-01   3.564228600000000e+00 -2.57989242e+00   3.13046909e+00  -4.29710380e-01
C     6.351777714537762e+00   6.872103839914605e+00   3.476890500000000e+00 -8.35603020e-01  -3.29134791e+00   7.41286020e-01
C     7.676509217807487e+00   7.265418959265206e+00   3.551010900000000e+00  1.82489601e+00  -2.43439164e+00   1.28650662e+00
C     8.679564733200491e+00   6.196650570065930e+00   3.881413200000000e+00  3.81790100e-01   1.28388781e+00  -1.49804292e+00
C     1.007742063334658e+01   6.630239570955904e+00   4.062442200000000e+00 -1.27918101e+00  -3.20341707e+00  -3.03645010e-01
C     1.108156186822117e+01   5.588537079884521e+00   4.043113800000000e+00  1.47042797e+00   3.16498345e+00  -5.17269760e-01
C     3.618008005044874e+00   6.106233379988716e+00   3.877418100000000e+00 -1.73746968e+00  -3.26749278e+00   9.81936600e-02
C     4.622763156689521e+00   5.072774717957463e+00   3.715393800000000e+00  4.83484590e-01  -3.34044770e-01  -2.13339330e-01
C     6.009131325415703e+00   5.435078708377595e+00   3.611281200000000e+00 -8.18256700e-02   5.69815140e-01  -5.00533820e-01
C     7.009293944160814e+00   4.396914894680003e+00   3.603128700000000e+00 -6.22248750e-01   1.05021571e+00  -3.70207290e-01
C     8.378253139882457e+00   4.770139716838700e+00   3.709413600000000e+00 -1.52471244e+00   3.32365520e+00   8.51751890e-01
C     9.376309199857610e+00   3.833037296213410e+00   3.779713500000000e+00 -9.53774200e-02   2.39556090e-01   2.75416860e-01
C     1.068789884048575e+01   4.255910897228020e+00   3.905172300000000e+00  3.23114243e+00  -8.42965890e-01  -1.16744047e+00
C     2.832516589615247e+00   3.278153903420272e+00   3.635795100000000e+00  3.05151467e+00   4.52063210e-01   1.48197686e+00
C     4.299921371353779e+00   3.667387786684567e+00   3.654871200000000e+00 -1.65917418e+00  -7.59717030e-01   4.15223570e-01
C     5.367995315946768e+00   2.603597868202294e+00   3.714611400000000e+00 -4.70328063e+00   1.41760917e+00  -4.70340460e-01
C     6.661521227887172e+00   3.020430510137359e+00   3.589997400000000e+00  2.68515291e+00  -2.14470940e-01   2.03459116e+00
C     7.735086916847733e+00   2.039035856049833e+00   3.834112800000000e+00 -1.83802489e+00   3.28894319e+00  -1.61116768e+00
C     9.072211006618510e+00   2.479468762889683e+00   3.704242500000000e+00 -1.15354252e+00  -4.29928760e-01  -3.68666700e-01
C     2.524775068093260e+00   1.884781618875805e+00   3.600172500000000e+00 -2.49752850e-01   2.75164322e+00  -1.36396282e+00
