2
Lattice="2.459 0 0 1.2295 2.12955646790593 0 0 0 30 " PBC="1 1 1" Properties=species:S:1:pos:R:3:force:R:3 Energy="-16.12960274"
C     0.000000000000000e+00   0.000000000000000e+00   3.000000000000000e+00 -0.00000000e+00  -0.00000000e+00   0.00000000e+00
C     1.229500000000000e+00   7.098521559686448e-01   3.000000000000000e+00  0.00000000e+00   0.00000000e+00   0.00000000e+00
