32
Lattice="9.86 0 0 4.93 8.53901048131456 0 0 0 30 " PBC="1 1 1" Properties=species:S:1:pos:R:3:force:R:3 Energy="-254.18825372"
C     1.080360200000000e+00   1.192879953551686e+00   3.697203000000000e+00  9.57288390e-01  -3.29484478e+00   4.33780850e-01
C     2.369366085200000e+00   1.756712523348182e+00   3.586820700000000e+00 -6.42648410e-01   1.20898750e+00   2.14259400e-02
C     3.580765586600000e+00   9.915586067282897e-01   3.892479900000000e+00 -3.26799390e-01   6.57638396e+00  -1.77851514e+00
C     4.785336791499999e+00   1.842895816831670e+00   3.781355400000000e+00  1.37123956e+00  -4.61679078e+00   1.57288209e+00
C     6.069437228100000e+00   1.178707843248135e+00   4.026378900000000e+00 -2.13796478e+00  -2.68691224e+00  -1.47367030e+00
C     7.315927039799999e+00   1.789712895589819e+00   3.920949600000000e+00 -4.21986520e-01  -3.60396860e-01  -2.91518910e-01
C     8.517059816200000e+00   1.098727116197110e+00   3.884864700000000e+00  1.94523450e+00   7.94030140e-01  -9.12169310e-01
C     9.706116952000000e+00   1.917539149992066e+00   3.589074900000000e+00  9.76366300e-01  -3.73626198e+00   1.29633152e+00
C     2.383283179400000e+00   3.211487685486080e+00   3.297516000000000e+00 -1.12993478e+00  -6.96118470e-01   1.00123670e+00
C     3.556656654100000e+00   3.935486560246041e+00   3.453138600000000e+00  2.20369810e+00   4.39582640e-01   6.63393320e-01
C     4.836878955500000e+00   3.172179119252343e+00   3.649427100000000e+00 -8.85487180e-01   4.40534691e+00  -4.09153050e-01
C     6.128886816300000e+00   3.847102507591543e+00   3.786964200000000e+00 -1.73056200e+00   2.09983364e+00   1.10492520e-01
C     7.355340615000000e+00   3.155822388507589e+00   3.767166300000000e+00  3.75722600e-01   3.52716977e+00   1.21159777e+00
C     8.592479498499998e+00   3.976255553442172e+00   3.824705100000001e+00 -2.76030188e+00  -7.54869150e-01  -5.13530770e-01
C     9.788205987600000e+00   3.303924523294595e+00   3.528631500000000e+00 -8.05372810e-01   2.41854750e-01   2.62240800e-02
C     1.099583019360000e+01   3.971804081888843e+00   3.310469400000000e+00  8.40740200e-01   9.89335070e-01   2.67723850e-01
C     3.491871031100000e+00   5.369389989847885e+00   3.635564700000000e+00  5.62585426e+00  -1.63893366e+00  -1.19286670e-01
C     4.843168156500000e+00   6.060307457156753e+00   3.903845400000000e+00 -1.84134546e+00  -1.21635994e+00  -7.86055580e-01
C     6.077968790300000e+00   5.317729488784513e+00   3.985265400000000e+00 -3.09538230e-01  -2.88763090e-01  -5.93051000e-02
C     7.285351820699999e+00   6.084165110877453e+00   4.218434700000000e+00 -1.08463064e+00  -1.93457783e+00  -1.09828494e+00
C     8.510301180599999e+00   5.369382048568138e+00   4.043184900000000e+00  7.10583880e-01  -7.62994890e-01  -5.37653270e-01
C     9.743966681900000e+00   6.016553909017651e+00   3.873048300000000e+00  3.65325580e-01   4.05931672e+00  -1.55950520e-01
C     1.094662277900000e+01   5.459623848342663e+00   3.414707700000000e+00  6.85337270e-01  -3.93485375e+00   1.02147703e+00
C     1.221294075490000e+01   6.075081994649668e+00   3.566217600000000e+00 -2.39017965e+00   4.02912757e+00   4.24335090e-01
C     4.836808555100000e+00   7.481184797051565e+00   3.896967600000000e+00  1.19721880e-01   3.77428200e-02   7.28331690e-01
C     6.050438388500000e+00   8.206177014900664e+00   4.005507300000000e+00 -1.34203351e+00   2.14938567e+00  -1.03852939e+00
C     7.223643750200000e+00   7.475144727988537e+00   4.172259300000000e+00  2.58101771e+00   2.13959801e+00  -7.61360800e-02
C     8.515384700799999e+00   8.227845010163978e+00   4.110402300000001e+00 -3.65203600e-01  -5.08323359e+00   4.99768620e-01
C     9.765113029500000e+00   7.490863423870226e+00   4.035639300000000e+00 -8.04287670e-01  -2.81685690e-01  -2.59739070e-01
C     1.095909385490000e+01   8.252556137982156e+00   3.931278000000000e+00  1.57461690e+00  -8.91342100e-02   5.99608150e-01
C     1.222791459460000e+01   7.542335981312933e+00   3.817663500000000e+00 -5.82463180e-01  -9.04315770e-01  -1.66236560e-01
C     1.347693527110000e+01   8.223918175414541e+00   3.887307000000000e+00 -7.72007430e-01  -4.16648450e-01  -2.02874560e-01
