26
Lattice="8.88768389401873 1.33226762955019e-15 0 4.44384194700937 7.69696003302603 0 0 0 30 " PBC="1 1 1" Properties=species:S:1:pos:R:3:force:R:3 Energy="-207.02075857"
C     1.238760986049033e+01   6.473397307941389e+00  -1.962516000000001e-01  2.53595070e-01   6.91329830e-01   2.52222010e-01
C     8.488910404434669e+00   6.126131638027871e+00  -1.921337999999970e-01  3.02838330e+00   3.67140372e+00   1.00576633e+00
C     9.933984657762682e+00   5.830646497020177e+00  -2.064507000000013e-01 -3.61311370e-01  -1.29839424e+00  -7.13122530e-01
C     1.022848592812928e+01   4.400863589114594e+00  -3.328410000000019e-01  1.28359118e+00   2.86651217e+00   1.41178734e+00
C     6.164819728283057e+00   5.600375543197862e+00  -6.325980000000087e-02  9.33679760e-01   3.76493840e+00   4.26837780e-01
C     7.472690183696284e+00   5.136738918833973e+00  -9.666239999999959e-02  1.63093800e+00   1.43049947e+00  -1.31117498e+00
C     7.777910578588736e+00   3.791721323255575e+00  -3.358100999999998e-01  2.92082456e+00   3.49695600e-01   1.82303469e+00
C     9.213498073654057e+00   3.434526036116155e+00  -1.886651999999991e-01 -3.40386500e-01  -4.49689820e-01  -1.49159777e+00
C     9.646601974441136e+00   2.077844390338695e+00  -1.006476000000021e-01 -1.93414342e+00   5.10298830e-01  -4.50109650e-01
C     3.796453321772665e+00   5.132524833217547e+00  -2.797173000000015e-01  3.38317770e-01  -2.68402358e+00   2.16414650e-01
C     5.177278152668674e+00   4.707979837332423e+00  -2.196513000000024e-01 -3.65447993e+00  -3.27825849e+00   8.34996530e-01
C     5.451620956121388e+00   3.256589022625820e+00  -1.104725999999978e-01  4.30935320e-01   2.06587962e+00  -2.09718838e+00
C     6.766373945095448e+00   2.844147496387871e+00  -2.909366999999996e-01  1.50958728e+00  -3.14882440e-01   4.15547570e-01
C     7.169744810447508e+00   1.494025353887177e+00  -2.899998000000004e-01 -1.29615990e-01  -9.55117540e-01   1.14302103e+00
C     8.535290201869007e+00   1.128995562042021e+00  -1.085001000000005e-01  2.49788728e+00  -5.01339800e-02  -4.76230100e-01
C     2.757484274199799e+00   4.102376710664798e+00  -2.931555000000010e-01 -1.92257950e-01   6.34634290e-01  -1.05813810e-01
C     3.119731470691958e+00   2.762237525323015e+00  -2.180768999999998e-01  8.08519410e-01  -2.62913891e+00  -2.57043240e-01
C     4.482812884993644e+00   2.279337796061645e+00  -2.356271999999997e-01 -1.89217276e+00   2.42948181e+00   7.81959430e-01
C     4.820558381230295e+00   9.510549309804722e-01  -2.223558000000025e-01 -9.20210600e-01  -4.46670381e+00   3.99369270e-01
C     6.154537963416282e+00   4.892733509534127e-01  -1.808180999999998e-01  1.92873196e+00   7.31156240e-01  -5.49659820e-01
C     1.104615689148225e+01   6.828185447801027e+00  -1.525257000000018e-01 -4.59748998e+00  -1.99256030e-01  -5.23360830e-01
C     2.162766504931540e+00   1.713225385250340e+00  -1.359624000000004e-01 -3.21155744e+00   2.36124482e+00   4.51837280e-01
C     2.421528532022617e+00   3.754821096266951e-01  -2.325959999999938e-02  2.76373715e+00  -3.03958520e+00  -2.00556420e-01
C     8.235761527513581e+00   7.608580764029929e+00  -1.338417000000014e-01 -7.51128140e-01  -6.96341890e-01  -8.64187600e-02
C     4.526816077935716e+00   7.470422101792236e+00  -7.467180000000084e-02 -1.11704677e+00  -8.07651100e-01   2.09126130e-01
C     5.884324159030193e+00   7.056721814710980e+00   5.674560000000000e-02 -1.22692721e+00  -6.37897740e-01  -1.10964375e+00
