32
Lattice="9.86 0 0 4.93 8.53901048131456 0 0 0 30 " PBC="1 1 1" Properties=species:S:1:pos:R:3:force:R:3 Energy="-249.29489222"
C     5.201110214900000e+00   7.545746205928331e+00  -3.412371000000007e-01 -5.63796940e-01  -5.42927360e-01   9.49525030e-01
C     6.417281118200000e+00   8.274471764549391e+00  -1.952067000000000e-01  5.40615200e-01  -2.59740950e+00   1.89850480e-01
C     7.610991828899999e+00   7.507122382944985e+00  -1.416611999999979e-01  3.58922292e+00   5.18134164e+00   4.97985220e-01
C     8.936512054900000e+00   8.297163757949466e+00  -5.598359999999758e-02 -2.40068860e+00  -2.03226040e+00  -1.35802988e+00
C     1.014910436980000e+01   7.526507217586157e+00  -1.347878999999992e-01 -1.88203078e+00   3.42286510e-01   2.88378467e+00
C     1.133291100630000e+01   8.304306640215986e+00  -1.037064000000001e-01  2.43339679e+00  -3.70898586e+00   4.27558630e-01
C     1.268374086630000e+01   7.533719692788089e+00  -3.491999999987172e-04 -4.15371804e+00  -1.29466929e+00  -1.32223358e+00
C     1.382292513610000e+01   8.197928672337405e+00  -2.585448000000028e-01 -2.98302300e-02   2.12652356e+00   3.95896700e-02
C     1.483624340000000e+00   1.054258511320414e+00   1.973343000000000e-01 -4.58330718e+00   1.33469279e+00  -2.10963069e+00
C     2.626231065100000e+00   1.827553435141834e+00   3.035205000000000e-01  3.55090577e+00  -4.96423509e+00  -8.45001330e-01
C     3.959156397600000e+00   1.143987970466141e+00  -1.683840000000103e-02 -2.92858860e-01   1.88830032e+00   1.52926889e+00
C     5.225735071899999e+00   1.892699424676060e+00   3.300150000000000e-02 -3.54029199e+00  -6.98007600e-02   1.16067614e+00
C     6.392912325399999e+00   1.162561513721608e+00  -4.985070000000036e-02 -7.17051610e-01  -9.56547000e-02   1.53327800e-02
C     7.570360395800000e+00   1.866186565646603e+00   6.912509999999999e-02  1.79130857e+00  -1.27507054e+00  -2.46892210e+00
C     8.704808611799999e+00   1.077023513260094e+00  -2.285117999999997e-01  3.40617174e+00   1.25949762e+00   2.07404173e+00
C     9.927323587000000e+00   1.722115526926995e+00   5.238300000000000e-02  6.41896458e+00   2.32749157e+00   8.45453240e-01
C     2.688040200600000e+00   3.111143382412666e+00   5.833484999999999e-01  3.39097763e+00   6.32503814e+00   4.06717180e-01
C     4.003295673600000e+00   3.920499316002069e+00   6.269730000000000e-01 -1.38364864e+00  -1.20242296e+00  -2.42663489e+00
C     5.223926501400000e+00   3.310207527205779e+00   3.536367000000000e-01  2.76841680e+00  -1.96322790e+00  -1.52116234e+00
C     6.495367289599999e+00   3.996935243632531e+00   5.376150000000000e-02 -3.02059952e+00   2.90078895e+00   8.17552390e-01
C     7.705878059900000e+00   3.283907460317484e+00  -7.062300000001187e-03 -5.42591030e+00  -3.83509820e+00   6.13001190e-01
C     8.868571083999999e+00   3.823090383171259e+00   1.120161000000000e-01  6.81746686e+00   7.28165799e+00   9.75273120e-01
C     1.019476050820000e+01   3.173794273084635e+00   2.140671000000000e-01 -4.23602772e+00  -2.38028840e-01  -1.91779080e-01
C     1.145162673740000e+01   3.928093228802142e+00   4.350174000000000e-01 -4.33745373e+00   8.16080930e-01  -1.05192229e+00
C     4.008270339400000e+00   5.208818765007458e+00   1.115517000000000e-01 -3.31689380e-01   6.63622192e+00   3.54901690e-01
C     5.206159126499999e+00   6.126182165845342e+00  -1.390673999999983e-01 -6.63180580e-01  -2.02508990e+00   5.18177200e-02
C     6.440411593599999e+00   5.505563895505274e+00  -6.923009999999863e-02  6.47619810e-01  -4.18286033e+00   5.61281700e-01
C     7.684052752700000e+00   6.178992530059950e+00  -2.146229999999960e-02 -2.70750896e+00  -2.88375585e+00  -3.38109670e-01
C     8.795420582100000e+00   5.398592893348855e+00   2.189973000000000e-01  2.18037902e+00  -2.57204969e+00  -2.29393670e-01
C     9.956603300699999e+00   6.122031182070804e+00   3.571356000000000e-01  6.85467942e+00  -3.01642800e-01  -3.65668836e+00
C     1.136528542890000e+01   5.381739106804059e+00   1.973628000000000e-01  2.34618200e-01   4.91895090e-01   2.14031818e+00
C     1.271573493940000e+01   6.114700526963828e+00   6.434970000000000e-02 -4.35515026e+00  -3.12662706e+00   9.85578240e-01
