32
Lattice="9.86 0 0 4.93 8.53901048131456 0 0 0 30 " PBC="1 1 1" Properties=species:S:1:pos:R:3:force:R:3 Energy="-255.93413066"
C     4.942261008599999e+00   8.506441669348023e+00  -6.953010000000148e-02 -1.57351996e+00  -8.44598700e-02  -5.96014670e-01
C     1.219869093500000e+00   6.451974704463288e-01  -1.176594000000009e-01  1.28954600e+00   2.48469911e+00  -2.94081600e-01
C     7.438194441499999e+00   8.505656165773967e+00  -1.555470000000270e-02 -2.82385298e+00   2.21427215e+00  -6.42126000e-01
C     3.676468767900000e+00   7.294083378990408e-01  -1.088765999999985e-01  9.94585760e-01  -9.07644990e-01   8.87851410e-01
C     9.824230039899998e+00   8.530831901152361e+00  -1.334759999999946e-02  1.24963715e+00  -5.58597500e-01  -1.08575303e+00
C     6.142647037900000e+00   6.888512829430232e-01  -6.607380000000163e-02 -7.99912320e-01   1.62976120e+00  -5.92560200e-01
C     7.376219904499998e+00   1.959967614484880e-02  -1.960068000000028e-01  2.11014490e-01   4.67818840e-01   1.16302389e+00
C     8.633519480700000e+00   7.455467261458216e-01  -1.057352999999992e-01 -2.04871090e-01  -2.67039178e+00  -9.79438300e-02
C     1.104021498360000e+01   2.130025765358691e+00  -3.342543000000013e-01  1.11232893e+00  -1.26381281e+00   1.05061150e-01
C     2.408293513100000e+00   2.855040953145982e+00  -4.535535000000017e-01  4.84319030e-01  -9.73719730e-01   9.97148690e-01
C     3.658576910500000e+00   2.144376511761484e+00  -2.096801999999975e-01 -2.31354455e+00   6.90457200e-02  -1.10773078e+00
C     4.813373800100000e+00   2.871958099148539e+00  -2.124032999999983e-01  4.88655863e+00  -8.32464220e-01   2.77579290e-01
C     6.130165411799999e+00   2.133571845630826e+00  -1.148823000000014e-01 -1.55459212e+00   1.55197950e-01   2.41425910e-01
C     7.353692269499999e+00   2.828358936318916e+00  -9.483209999999787e-02  3.84950510e-01   2.21271055e+00   2.50556610e-01
C     8.609517972899999e+00   2.126381913416561e+00  -6.871350000000120e-02 -2.80169650e-01   1.71020640e+00  -1.24839932e+00
C     9.831167930299999e+00   2.865158485103314e+00  -3.192561000000005e-01 -3.80297740e-01  -1.39798402e+00   1.47186708e+00
C     1.230673666710000e+01   4.284291475937272e+00  -5.138877000000015e-01  2.06503143e+00  -1.56202721e+00   3.34068230e-01
C     3.705929905600000e+00   4.967596500793326e+00  -3.973008000000000e-01 -1.66857289e+00   1.78827810e+00   4.22915760e-01
C     4.911239870999999e+00   4.276191114425631e+00  -2.774687999999976e-01  4.60908800e-02   4.28255360e-01   6.91354060e-01
C     6.133191544399999e+00   5.013218555205660e+00  -2.980769999999922e-02  1.91863250e-01  -1.18277814e+00  -1.11279826e+00
C     7.374260574599999e+00   4.355803895515072e+00  -5.592090000000027e-02 -3.16617100e-02  -4.28296112e+00   1.75181720e-01
C     8.620952023300001e+00   4.991432038476884e+00  -5.944530000000015e-02  4.79768530e-01   1.86261640e-01  -1.27299770e-01
C     9.867428721200000e+00   4.254513128520054e+00  -2.311715999999997e-01  3.52470900e-02   1.63058056e+00  -6.77040810e-01
C     1.114315116510000e+01   4.975415928860176e+00  -3.927849000000023e-01 -4.39502402e+00   2.30724820e-01   2.62671380e-01
C     1.349928631350000e+01   6.408040897812954e+00  -2.092779000000000e-01  2.87547440e-01  -3.94568270e-01  -9.20938250e-01
C     4.913711082800000e+00   7.059323437907541e+00  -1.371986999999990e-01 -1.27949653e+00   2.20132414e+00   7.75401590e-01
C     6.144544200500000e+00   6.403870786654942e+00  -3.216420000000042e-02  1.91539640e-01   5.87770900e-01   2.30638050e-01
C     7.393069609199999e+00   7.132105010612983e+00   5.502000000000000e-02 -4.07462030e-01  -1.75539921e+00  -1.55053790e-01
C     8.598444946400001e+00   6.413043989443291e+00   1.298640000000000e-02  1.17466436e+00  -9.41631370e-01  -5.53062800e-01
C     9.852173920799999e+00   7.066551197938232e+00  -1.334172000000002e-01 -2.55998553e+00   2.44817339e+00   8.55224130e-01
C     1.102112922810000e+01   6.380544942506935e+00  -3.275357999999997e-01  2.93828802e+00   9.60520390e-01   6.43808530e-01
C     1.223354164730000e+01   7.166376756124986e+00  -2.354544000000018e-01  2.24998198e+00  -2.59716096e+00  -5.74974350e-01
