32
Lattice="9.656 0 0 4.828 8.36234129894254 0 0 0 30 " PBC="1 1 1" Properties=species:S:1:pos:R:3:force:R:3 Energy="-257.08783387"
C    -1.181956792519920e-03   4.525265447055347e-06   2.999989796729626e+00  6.64885000e-02  -1.86943000e-02  -3.83781000e-03
C     1.206116064482908e+00   6.959978310721654e-01   2.999320600642962e+00  4.22920700e-02   6.98107600e-02   8.75067000e-03
C     2.413803278747753e+00  -6.080837794496684e-04   2.998995919997914e+00 -1.65813600e-02   9.48305000e-03   1.95075900e-02
C     3.620627033717082e+00   6.960573730124072e-01   3.000913841632476e+00  5.42676300e-02   4.61812000e-02  -9.55417000e-03
C     4.829088627172347e+00  -1.113461420740780e-03   3.000480645242837e+00 -7.21011000e-02   6.01812300e-02  -2.26582000e-03
C     6.035175642194785e+00   6.978225640952737e-01   3.000402894120628e+00  1.71598900e-02  -4.93152300e-02  -5.35980000e-03
C     7.242115480408275e+00   4.886598017002854e-04   2.999725955887450e+00  5.40967000e-03   4.13735000e-03  -9.00870000e-04
C     8.449469374968123e+00   6.976460122131825e-01   2.999917123699537e+00 -6.14869100e-02  -4.11883900e-02   5.70840000e-03
C     1.208063425924597e+00   2.091318552540444e+00   3.001166829225214e+00 -1.27770270e-01  -8.21340400e-02  -1.05802300e-02
C     2.413202501925807e+00   2.787497998140977e+00   3.001075479044581e+00  9.54474800e-02  -1.02409600e-02   1.66978000e-03
C     3.621360990678070e+00   2.091456372998302e+00   3.001136622273186e+00 -6.02199100e-02  -1.23164110e-01   6.88700000e-04
C     4.827240897632260e+00   2.786826980887719e+00   3.000901389635247e+00  6.73984500e-02   2.90734400e-02  -3.38877000e-03
C     6.035980753346493e+00   2.091208807795762e+00   2.999630421316414e+00 -8.13766500e-02  -1.07435300e-02   1.19687500e-02
C     7.241911972799558e+00   2.787713937753920e+00   2.999991024066459e+00  3.58962700e-02   1.41615100e-02   5.61827000e-03
C     8.448946829268683e+00   2.090429755627581e+00   3.000894165627574e+00 -6.06513000e-03   3.75371600e-02  -1.11784500e-02
C     9.655245283774008e+00   2.787900144908480e+00   3.000491319425557e+00  6.77317400e-02  -4.96793900e-02   5.57358000e-03
C     2.415026432986533e+00   4.180058893401135e+00   3.000355139746498e+00 -8.72507600e-02   8.88441800e-02  -5.38747000e-03
C     3.621333262319108e+00   4.877939962540353e+00   2.998921085450708e+00 -4.12971600e-02  -2.39342300e-02   1.68760600e-02
C     4.826886110208514e+00   4.180372898305167e+00   3.000711038599166e+00  6.07220100e-02   1.74827500e-02  -1.33776000e-02
C     6.034185530996396e+00   4.877160339604417e+00   2.999644941525104e+00  1.10220100e-02   2.99330900e-02   1.64526400e-02
C     7.241962579270740e+00   4.181647985104958e+00   3.000726991626114e+00 -2.21742600e-02  -1.73883500e-02  -1.84026900e-02
C     8.448436993346252e+00   4.879020899952298e+00   2.998848200817227e+00  2.90945600e-02  -9.62806500e-02   1.90600900e-02
C     9.655698546348665e+00   4.180445564326626e+00   2.999620531823196e+00 -1.09393200e-02   8.33567400e-02  -6.03210000e-04
C     1.086286508708024e+01   4.878027933402562e+00   2.999793232028067e+00  4.02057100e-02  -6.13370700e-02  -2.98940000e-03
C     3.620310213894405e+00   6.271071942473426e+00   2.999353789405173e+00  6.09593500e-02   5.35703000e-02  -4.79402000e-03
C     4.828553012688192e+00   6.968414776780957e+00   3.000202530201726e+00 -7.80150900e-02  -8.92982000e-03  -3.39249000e-03
C     6.034986328564790e+00   6.271587107216410e+00   3.000566724682326e+00 -1.68429000e-03  -2.74017500e-02  -2.62191000e-03
C     7.242135706599144e+00   6.968141299487750e+00   3.001136506842280e+00 -2.19572200e-02  -1.21607000e-03  -1.47428300e-02
C     8.448335770065665e+00   6.270883962951793e+00   3.000277446995525e+00  4.21002800e-02   7.42161100e-02  -8.59630000e-03
C     9.655980516459435e+00   6.967852879817822e+00   2.999056875583608e+00  3.67765000e-03  -4.30790000e-03   9.88223000e-03
C     1.086309553531717e+01   6.271247342672562e+00   2.999041772481157e+00 -4.24429000e-03   1.97725000e-02  -3.87077000e-03
C     1.206997731213729e+01   6.968936618445727e+00   2.998884657689662e+00 -6.70954000e-03  -1.17855600e-02   4.08787000e-03
