32
Lattice="9.86 0 0 4.93 8.53901048131456 0 0 0 30 " PBC="1 1 1" Properties=species:S:1:pos:R:3:force:R:3 Energy="-257.06596229"
C     1.171968572600000e+00   3.101541094347696e-01   3.353124600000000e+00  1.78263001e+00   6.29041800e-02  -1.28590810e-01
C     2.424285595000000e+00   1.067835537983614e+00   3.431662800000000e+00 -5.98567060e-01  -4.39113930e-01   8.83610780e-01
C     3.653633747400000e+00   3.252018952630448e-01   3.510071100000000e+00 -8.68639070e-01   4.42635620e-01  -5.39242720e-01
C     4.880773752800000e+00   1.038134127050821e+00   3.464672700000000e+00  1.61226220e-01  -1.07531580e-01   9.90505370e-01
C     6.117493635600000e+00   3.422204847101040e-01   3.542851800000000e+00  5.95123200e-01  -1.28755022e+00  -5.70114510e-01
C     7.366161669199999e+00   1.010888364751866e+00   3.480133800000000e+00 -4.85674820e-01   1.80963089e+00  -1.18538660e-01
C     8.605225471199999e+00   3.434279007919760e-01   3.416922300000000e+00 -7.89328180e-01  -5.48448160e-01   4.17283200e-02
C     9.823985955600001e+00   1.028743606445755e+00   3.361370400000000e+00  4.37878460e-01   1.76779683e+00   5.73235390e-01
C     2.432529541000000e+00   2.497464338939170e+00   3.653911800000000e+00  1.28101040e-01  -1.08946723e+00  -7.65147460e-01
C     3.698536088800000e+00   3.184542154795602e+00   3.685399200000000e+00 -1.84251363e+00  -9.67454020e-01  -3.87421650e-01
C     4.882828823300001e+00   2.455611318362603e+00   3.546126600000000e+00  9.22341490e-01  -7.26556000e-02  -1.62948900e-02
C     6.129017905000000e+00   3.156203911495835e+00   3.538398300000000e+00 -2.70782650e-01  -2.09085860e-01  -2.44856970e-01
C     7.346956262600000e+00   2.446771136982973e+00   3.462680400000000e+00  1.29571888e+00   3.38492890e-01   6.12453260e-01
C     8.598235322799999e+00   3.202191093996294e+00   3.549883800000000e+00 -6.22345080e-01  -1.11672893e+00  -7.40986570e-01
C     9.839263039600000e+00   2.489298653997355e+00   3.512577600000000e+00 -5.40544270e-01  -7.58528590e-01   5.30254200e-02
C     1.105150852900000e+01   3.211036484172316e+00   3.672579600000000e+00  6.56382420e-01  -1.37191121e+00  -6.11528200e-02
C     3.659623549500000e+00   4.579425295157513e+00   3.684485400000000e+00  1.11763278e+00   1.00137091e+00   4.19232000e-01
C     4.874593849899999e+00   5.313881469101805e+00   3.553179000000000e+00  7.21606800e-01  -9.58451510e-01   2.33087340e-01
C     6.131171230400000e+00   4.568871846715176e+00   3.541997100000000e+00 -1.05653644e+00   1.32745220e+00  -3.95778130e-01
C     7.335645955200000e+00   5.311572435277909e+00   3.478647000000000e+00  1.06843177e+00  -1.13910252e+00   8.67281000e-02
C     8.590271943099999e+00   4.622164579631799e+00   3.542856000000000e+00  3.88883490e-01  -5.09230940e-01   6.97994750e-01
C     9.848575168699998e+00   5.310052064461944e+00   3.695733300000000e+00 -1.38470122e+00   6.81695820e-01  -4.01809900e-01
C     1.107624628300000e+01   4.604884440293738e+00   3.801019200000000e+00 -6.78261360e-01   5.49818050e-01  -3.24130710e-01
C     1.231443032650000e+01   5.285755847162991e+00   3.813022200000000e+00 -3.08879300e-01   1.26525719e+00  -3.24568230e-01
C     4.877320189200000e+00   6.728312624595161e+00   3.466521300000000e+00  8.33771700e-01  -1.89259600e-02  -4.63841070e-01
C     6.137943817899999e+00   7.391362262691607e+00   3.326008500000000e+00 -1.66393806e+00   2.10960714e+00   4.97744530e-01
C     7.346257632300000e+00   6.707396062254087e+00   3.400650600000000e+00 -8.09979400e-02   5.10270670e-01   5.82710470e-01
C     8.536450590799998e+00   7.445283808339978e+00   3.558695400000000e+00  1.95521426e+00  -3.24327390e-01  -7.83309840e-01
C     9.790393970899999e+00   6.736096530378416e+00   3.631131900000000e+00  1.48836368e+00   3.85424250e-01   1.76326720e-01
C     1.107559626250000e+01   7.446455787528357e+00   3.603743100000000e+00 -1.11422967e+00  -4.89489390e-01   9.11930160e-01
C     1.232849428540000e+01   6.721404052776213e+00   3.740994300000000e+00 -1.02613795e+00   9.88784080e-01  -1.21437478e+00
C     1.353143420260000e+01   7.479331917167510e+00   3.499163100000000e+00 -2.21229520e-01  -1.83313770e+00   7.19847130e-01
