32
Lattice="9.92 0 0 4.96 8.59097200554163 0 0 0 30 " PBC="1 1 1" Properties=species:S:1:pos:R:3:force:R:3 Energy="-257.8803331"
C    -4.411064393780812e-03  -3.031523713153527e-03   3.004950556847528e+00  1.78420440e-01   4.53028750e-01  -8.26059700e-02
C     1.227045888461718e+00   7.251677873190450e-01   2.993137051086111e+00  8.50354010e-01  -6.56534960e-01   4.25574600e-02
C     2.487305614057505e+00   3.788624858313391e-03   2.993361109729193e+00 -7.65351040e-01   2.08906690e-01   4.40242100e-02
C     3.719459112921089e+00   7.134417955376772e-01   2.995080254376967e+00 -1.21678400e-02   4.48216470e-01   1.87829110e-01
C     4.951022127197128e+00  -5.508770727374074e-03   3.008779399304047e+00  5.37691900e-02   2.01473400e-01  -2.28389490e-01
C     6.185233933287264e+00   7.059868060332899e-01   2.995832498939219e+00  5.42995730e-01   3.40665020e-01   7.55661800e-02
C     7.430616842790877e+00  -1.425783381158162e-02   2.992997360105290e+00  4.30226640e-01   1.14680621e+00   1.42620110e-01
C     8.684537062557196e+00   7.067926716836839e-01   3.010071466238442e+00 -7.62158720e-01   5.48144630e-01  -1.97539310e-01
C     1.248941019504850e+00   2.141023598378243e+00   2.993555143862672e+00 -5.24044390e-01   5.69879520e-01   4.79774300e-02
C     2.483662918341776e+00   2.857209195114517e+00   2.993139314114741e+00  7.95172700e-02   3.65568760e-01   1.63655510e-01
C     3.721318487228691e+00   2.157072282125814e+00   3.013229402040930e+00 -1.71876210e-01  -8.42398070e-01  -3.14278540e-01
C     4.955768234537214e+00   2.853709360539832e+00   2.992267912941890e+00  4.41534450e-01   5.95242610e-01   1.51733360e-01
C     6.194155206025239e+00   2.145801551188100e+00   3.000060641467940e+00  5.17266860e-01  -1.69436160e-01  -6.00892700e-02
C     7.453716803292062e+00   2.871035042694003e+00   3.001147583936385e+00 -7.91545720e-01  -1.61991250e-01  -7.38362000e-02
C     8.682902226599156e+00   2.157779595940834e+00   2.993459503745889e+00  3.41398600e-01  -7.04594500e-01   2.06719940e-01
C     9.926125784528619e+00   2.869885609449350e+00   3.005545172718765e+00 -9.62621600e-02   1.77865800e-02  -1.74737220e-01
C     2.488727462531599e+00   4.295977160809865e+00   3.004341212944423e+00 -5.19555780e-01  -5.82979460e-01  -2.92617100e-02
C     3.710408769906580e+00   5.003004005446934e+00   3.008526936455848e+00  9.21102580e-01   5.50037000e-01  -1.14793970e-01
C     4.967444653809348e+00   4.290623155288341e+00   2.991835858582343e+00 -6.87904820e-01  -5.91459700e-02   1.48941380e-01
C     6.192926502280476e+00   5.004148697598745e+00   3.006532080544495e+00  7.03737390e-01   5.25133760e-01  -1.02420450e-01
C     7.450431700111193e+00   4.303743735065075e+00   3.000735092967229e+00 -3.82014550e-01  -2.27495010e-01  -5.35010000e-03
C     8.686396027898242e+00   5.019347974074807e+00   2.992633884097470e+00 -1.29562060e-01   1.28196240e-01   1.28182770e-01
C     9.916471760367887e+00   4.307209043280552e+00   2.996350062228271e+00  5.32328010e-01  -5.58686760e-01   4.21619700e-02
C     1.116980781281409e+01   5.005228430110710e+00   3.001379358076032e+00 -2.76648950e-01   5.16780600e-01  -8.88446300e-02
C     3.715043273599618e+00   6.444314930215176e+00   3.003732460908237e+00  6.65890490e-01  -2.05480100e-02  -1.63031500e-02
C     4.965909984888668e+00   7.171764556518769e+00   2.993189737745980e+00 -1.73622620e-01  -1.06966881e+00   1.74623440e-01
C     6.209717684021633e+00   6.445844212626453e+00   3.005663531264370e+00 -4.16928360e-01   2.44027900e-02  -4.10686300e-02
C     7.445811296931327e+00   7.168974464659084e+00   3.007233322378851e+00  1.03234040e-01  -4.13112010e-01  -4.07304700e-02
C     8.693516005160159e+00   6.451137866046317e+00   3.007154934520897e+00 -8.30785850e-01  -1.72370850e-01  -1.43508280e-01
C     9.909740935863693e+00   7.161340226347430e+00   2.991196019724935e+00  1.14117855e+00  -3.25314160e-01   1.28713680e-01
C     1.116945505000170e+01   6.437387954239958e+00   2.987842129878458e+00 -3.76589140e-01   3.25997380e-01   1.27667660e-01
C     1.240926958334569e+01   7.169095740859446e+00   3.000846941010682e+00 -5.85936060e-01  -1.00199045e+00  -9.92168300e-02
