32
Lattice="9.86 0 0 4.93 8.53901048131456 0 0 0 30 " PBC="1 1 1" Properties=species:S:1:pos:R:3:force:R:3 Energy="-253.82124801"
C     5.056306945100000e+00   8.225418991896507e+00  -4.255664999999986e-01 -2.71417701e+00  -2.85427242e+00   5.48959440e-01
C     1.322402001000000e+00   3.501298285573088e-01  -2.668853999999996e-01  5.29931170e-01  -2.31801067e+00  -2.37737389e+00
C     7.445070460399999e+00   8.107467846944067e+00  -4.015817999999989e-01  2.78934836e+00   6.37548080e-01   4.61310370e-01
C     3.806152565800000e+00   2.525562636044448e-01  -3.800541000000024e-01 -1.58119400e-02   2.28869756e+00   1.49941090e-01
C     9.992631001199999e+00   8.096440227249774e+00  -3.012974999999969e-01 -2.72215582e+00   3.28574702e+00  -4.58675390e-01
C     6.265725621800000e+00   2.441256985575408e-01  -3.480819000000004e-01 -6.46430230e-01   4.29039744e+00   6.65631150e-01
C     1.237924957210000e+01   8.109920336144027e+00  -2.508194999999986e-01  3.01851980e+00  -1.59813433e+00  -1.26677399e+00
C     8.652652564199999e+00   3.132252499440064e-01  -5.069426999999997e-01  1.89304993e+00  -1.48309495e+00   1.68912152e+00
C     1.312277851600000e+00   1.714374401586247e+00  -3.963344999999983e-01  4.19716915e+00   4.18595580e-01   1.78582132e+00
C     2.589028447000000e+00   2.372266050402248e+00  -2.102169000000025e-01  4.09709900e-02   2.18150112e+00  -1.77659736e+00
C     3.859040471900000e+00   1.756305810279020e+00  -3.770739000000027e-01 -1.85568885e+00  -2.62987765e+00   1.29112521e+00
C     5.043783167499999e+00   2.534913279470572e+00  -3.280064999999972e-01  4.71737210e-01  -4.38525104e+00   2.01273200e-01
C     6.267899603900000e+00   1.788283209065153e+00  -3.266549999999988e-01  6.09848170e-01  -2.78611701e+00  -8.48801870e-01
C     7.544217690399999e+00   2.421445798140970e+00  -3.805175999999975e-01 -3.57894690e+00   2.14845510e+00   4.42560020e-01
C     8.682371836699998e+00   1.691253579079865e+00  -4.666040999999979e-01  4.03984580e+00   7.95212440e-01   4.65393970e-01
C     1.002907839260000e+01   2.381906251673749e+00  -3.491742000000002e-01 -6.28195856e+00   3.44438990e+00  -4.59713700e-01
C     2.561134950700000e+00   3.799397788523137e+00  -2.270760000000003e-01 -1.75812280e-01   3.17724432e+00  -4.71602870e-01
C     3.815414261000000e+00   4.629259045708897e+00  -2.163696000000002e-01 -3.98844500e-02  -3.94259959e+00   6.44947470e-01
C     5.036946933699999e+00   3.882297576306750e+00  -2.527454999999996e-01  3.78310600e-02   2.52102899e+00  -1.63831458e+00
C     6.276084488500000e+00   4.539573904027563e+00  -5.403638999999991e-01 -5.36922920e-01   1.44573449e+00   2.76617060e+00
C     7.490600095000000e+00   3.873041374336534e+00  -3.402537000000017e-01  9.49889560e-01  -1.15436268e+00  -1.28018629e+00
C     8.733617411899999e+00   4.557545788604608e+00  -3.243809999999989e-01 -1.27970430e+00   1.15422939e+00   4.08750150e-01
C     9.901160717900000e+00   3.870109334308017e+00  -2.550194999999995e-01  4.33229905e+00  -2.45555883e+00  -1.35376781e+00
C     1.115816641680000e+01   4.599470195308789e+00  -3.853910999999997e-01  1.20417559e+00  -2.16089524e+00   2.08026255e+00
C     3.905227817800000e+00   5.996325590921266e+00  -9.889440000000249e-02 -1.71650492e+00   2.07684885e+00  -1.96970035e+00
C     5.092489595500000e+00   6.779834025177814e+00  -3.572960999999992e-01  9.17865300e-02  -1.63084441e+00   4.71129640e-01
C     6.302515253799999e+00   5.975556326510971e+00  -4.653543000000013e-01 -8.23706700e-01   8.96028920e-01  -5.24031940e-01
C     7.520283625000000e+00   6.676722314197937e+00  -5.020787999999996e-01  8.35177150e-01   3.10835430e-01   1.32084321e+00
C     8.812365485099999e+00   5.976098809846766e+00  -3.128783999999989e-01 -3.34612989e+00   1.33846450e+00  -1.13518974e+00
C     9.953365030199999e+00   6.771360338127986e+00  -2.560964999999982e-01  3.14097551e+00  -5.47416430e+00  -3.77039190e-01
C     1.125457986320000e+01   6.016119529554535e+00  -2.975294999999996e-01 -2.23192944e+00  -1.13502889e+00   4.98935460e-01
C     1.248744458460000e+01   6.627554008733258e+00  -1.772991000000026e-01 -2.16790820e-01   3.59725286e+00   4.55925800e-02
