32
Lattice="9.86 0 0 4.93 8.53901048131456 0 0 0 30 " PBC="1 1 1" Properties=species:S:1:pos:R:3:force:R:3 Energy="-257.27726893"
C     1.243270127300000e+00   4.615400914820696e-01   3.272365200000000e+00 -4.35507920e-01   3.93488140e-01   3.03020150e-01
C     2.458254576800000e+00   1.168982508042149e+00   3.395000400000000e+00 -2.52203940e-01   6.52898090e-01  -3.96314300e-02
C     3.680262649400000e+00   4.556048814677360e-01   3.416876100000000e+00  3.17333190e-01   7.27142170e-01   9.72236200e-02
C     4.924585824699999e+00   1.154779657300870e+00   3.441328200000000e+00  1.06641270e-01  -3.60575940e-01  -4.01791410e-01
C     6.144520339300000e+00   4.401804398871880e-01   3.375124200000000e+00  1.48403049e+00   7.90276730e-01   4.68514210e-01
C     7.410163447500000e+00   1.166548121544406e+00   3.274812300000000e+00 -1.38360655e+00   9.83670610e-01   3.83845810e-01
C     8.634258684899999e+00   4.989882635025288e-01   3.268090800000000e+00  7.13599000e-02  -1.65915352e+00   4.59460250e-01
C     9.880231142400000e+00   1.186133110591229e+00   3.282114900000000e+00 -2.41610800e-01   2.43295060e-01  -6.53273200e-02
C     2.428342886400000e+00   2.601047659467858e+00   3.520342200000000e+00  1.44926472e+00  -2.00639530e-01   1.08541160e-01
C     3.696564433900000e+00   3.281934607336185e+00   3.550692300000000e+00  7.68197600e-02   3.35340370e-01  -1.38716240e-01
C     4.940626861499999e+00   2.553298452154850e+00   3.440393400000000e+00 -3.56552530e-01   2.05873023e+00   8.81186600e-02
C     6.166352203399999e+00   3.328924184276891e+00   3.351317700000000e+00  5.75451500e-02  -2.84518609e+00   3.05666940e-01
C     7.421007672700000e+00   2.607236819653866e+00   3.301791900000000e+00 -1.24109844e+00  -3.64424420e-01  -5.54467560e-01
C     8.637923153899999e+00   3.316301221254621e+00   3.289107000000000e+00  5.78771280e-01  -2.92279830e-01   1.02633582e+00
C     9.878034087899998e+00   2.607372077579869e+00   3.375962400000000e+00 -5.42682550e-01   2.59430450e-01  -1.13297960e-01
C     1.107948544090000e+01   3.337423488358159e+00   3.568077300000000e+00  2.10832900e-01  -3.32859500e-01  -1.93681280e-01
C     3.719353260300000e+00   4.724234787503431e+00   3.579639900000000e+00 -8.81975000e-03  -5.69677100e-02  -2.22675480e-01
C     4.962166968200000e+00   5.431874284425389e+00   3.439914300000000e+00 -1.47704127e+00   1.19232448e+00  -5.12206800e-02
C     6.168916690800000e+00   4.706713164948995e+00   3.367341300000000e+00  4.16256650e-01   1.42544279e+00  -3.62629910e-01
C     7.418723406500000e+00   5.407566539462287e+00   3.306376500000000e+00 -1.40987880e+00   1.61881427e+00   6.31206350e-01
C     8.626288945499999e+00   4.730010403411893e+00   3.418503900000000e+00  1.39379932e+00   3.18345750e-01  -4.57151000e-01
C     9.853511331200000e+00   5.479970602514408e+00   3.557652300000000e+00  2.85236670e-01  -5.84255460e-01   1.91715580e-01
C     1.109439602870000e+01   4.760597822072092e+00   3.693168600000000e+00 -3.19625500e-01   1.47168780e-01  -9.79859060e-01
C     1.234326683320000e+01   5.462462898547055e+00   3.636630300000000e+00  4.95739200e-02  -7.97022780e-01   1.41397960e-01
C     4.909509490300000e+00   6.898062261020330e+00   3.341114700000000e+00  1.21291860e-01  -1.63113338e+00   3.14716110e-01
C     6.138410442400000e+00   7.594154795630603e+00   3.245464200000000e+00  1.01558066e+00  -1.11612998e+00   4.56840610e-01
C     7.379726367000000e+00   6.846604561455860e+00   3.325158000000000e+00  5.95462750e-01   5.93068050e-01  -2.40602740e-01
C     8.626596035199999e+00   7.596652968536632e+00   3.409741500000000e+00 -9.04516230e-01  -1.19222060e+00  -7.77765600e-02
C     9.871957715000001e+00   6.912951306643783e+00   3.524672700000000e+00 -1.37923361e+00  -1.78901451e+00   7.64510000e-02
C     1.109087408600000e+01   7.575844424678129e+00   3.542412900000000e+00  7.29947650e-01   7.22567530e-01  -6.69919650e-01
C     1.233269499050000e+01   6.873335506812976e+00   3.538670400000000e+00 -6.27497010e-01   1.70455400e-02   2.77641790e-01
C     1.352536616140000e+01   7.591631688813973e+00   3.416621100000000e+00  1.62012678e+00   7.42814200e-01  -7.61947760e-01
