32
Lattice="9.86 0 0 4.93 8.53901048131456 0 0 0 30 " PBC="1 1 1" Properties=species:S:1:pos:R:3:force:R:3 Energy="-251.41038328"
C     5.077716308199999e+00   8.338528347126577e+00  -8.940090000000005e-01 -5.99741012e+00  -2.69249188e+00   1.28688906e+00
C     1.292391266900000e+00   5.092514709786504e-01  -9.481071000000014e-01  2.58059666e+00   8.27934140e-01   5.91206010e-01
C     7.457392847500000e+00   8.312106684729047e+00  -1.010341199999999e+00  1.22895968e+00   6.08511740e-01   2.09424792e+00
C     3.768031784499999e+00   3.994671210393864e-01  -5.874428999999992e-01 -2.08802250e+00   4.34902000e+00  -1.22870614e+00
C     9.917354831200001e+00   8.282419533943756e+00  -5.524613999999985e-01  2.11398190e-01   4.14850387e+00  -8.74334600e-01
C     6.215131151699999e+00   4.689890118841928e-01  -7.301582999999994e-01  4.66211310e-01   1.60449016e+00   2.09345615e+00
C     1.235291469530000e+01   8.265894926252964e+00  -5.090636999999987e-01  2.87196219e+00   9.33435710e-01  -1.35913004e+00
C     8.709785643999998e+00   4.707179053360784e-01  -8.250939000000024e-01 -8.78834420e-01   4.30262080e-01   9.07305750e-01
C     1.309361312900000e+00   1.918256853822910e+00  -5.740890000000007e-01 -2.59699160e+00  -1.49294002e+00  -1.35425663e+00
C     2.475260858300000e+00   2.553295890451706e+00  -3.584414999999979e-01  2.93623210e+00   4.07347961e+00   3.01409559e+00
C     3.755040987999999e+00   1.938482097875523e+00  -3.519347999999987e-01 -2.05804539e+00  -4.52042268e+00  -1.64794038e+00
C     4.905006674799999e+00   2.648172067384043e+00  -4.915328999999993e-01  3.46482360e+00   1.68872506e+00  -1.47870900e-02
C     6.185799623700000e+00   1.998052540516833e+00  -7.516533000000010e-01 -1.63586560e-01  -2.28490344e+00  -4.66542110e-01
C     7.428709959599999e+00   2.724326549229084e+00  -9.440280000000030e-01  4.13215910e-01  -5.80957993e+00   1.38358196e+00
C     8.662438416999999e+00   1.910404294395397e+00  -8.479158000000027e-01  1.67223932e+00   1.87390777e+00   1.70817000e-01
C     9.987819271900001e+00   2.694101440783553e+00  -5.739924000000016e-01 -2.47160982e+00  -9.75185570e-01  -3.61048170e-01
C     2.477612862700000e+00   3.975695565134894e+00   1.451940000000000e-01  1.17647111e+00   2.61725384e+00  -2.08558788e+00
C     3.772105985800000e+00   4.792184902689184e+00  -3.200520000000040e-02 -1.31960763e+00  -4.98397854e+00   1.89563760e-01
C     4.927499158900000e+00   4.102196735890853e+00  -3.997127999999996e-01  3.78985368e+00  -1.38290877e+00  -8.47845110e-01
C     6.294922708700000e+00   4.781500978166713e+00  -7.287095999999984e-01 -3.72264752e+00  -5.06270500e-02   9.66093960e-01
C     7.526254101499999e+00   4.052379294849485e+00  -8.439060000000005e-01 -3.70005060e-01   3.25937858e+00   4.15048250e-01
C     8.790686056599998e+00   4.735433785138056e+00  -6.427401000000010e-01 -3.27682228e+00   3.06665721e+00  -5.88243970e-01
C     9.992971664199999e+00   4.158247910752936e+00  -3.354435000000002e-01  3.63979070e-01  -3.04911734e+00   2.00363490e-01
C     1.115928414640000e+01   4.880560074772782e+00   1.191648000000000e-01 -5.93199480e-01  -3.39982581e+00  -1.30467456e+00
C     3.774147055099999e+00   6.124971675719697e+00  -1.666983000000002e-01  9.55743000e-02   4.21006518e+00  -7.03420840e-01
C     4.927437583200000e+00   6.840936707859655e+00  -6.367478999999996e-01  1.82736549e+00   2.38334661e+00  -4.77772930e-01
C     6.157508276400000e+00   6.210620768707556e+00  -8.005200000000023e-01  2.25254092e+00  -1.98879919e+00  -5.40415320e-01
C     7.431405239900000e+00   6.894056098863533e+00  -1.003815599999999e+00 -7.46366680e-01  -1.63428530e-01   7.24826820e-01
C     8.633159541400000e+00   6.185544256630940e+00  -7.220003999999989e-01  2.34043896e+00   1.67785490e-01   7.04805700e-01
C     9.855298554800001e+00   6.968183846571147e+00  -4.536806999999996e-01  1.20782029e+00  -6.08044091e+00   1.20078849e+00
C     1.110140540410000e+01   6.294789026497972e+00   3.354540000000000e-02  1.06196699e+00  -1.10903430e+00  -1.39321313e+00
C     1.244052266870000e+01   6.846588593506262e+00  -1.105638000000013e-01 -3.67850069e+00   3.74092692e+00  -6.95171000e-01
