32
Lattice="9.86 0 0 4.93 8.53901048131456 0 0 0 30 " PBC="1 1 1" Properties=species:S:1:pos:R:3:force:R:3 Energy="-257.36889611"
C     9.851953352599999e+00   9.160286681097551e-01   3.594492600000000e+00 -2.10861941e+00  -2.45342700e-02  -2.17367960e-01
C     1.166203085500000e+00   1.654414750847258e+00   3.573706200000000e+00  1.22645401e+00  -8.01683560e-01   3.31882230e-01
C     2.388417922300000e+00   9.437827577025848e-01   3.647815800000000e+00  1.34315483e+00  -3.33315570e-01  -2.53111290e-01
C     3.642524189600000e+00   1.646723578717818e+00   3.672297300000000e+00 -1.79492700e-01  -4.10372480e-01  -2.42242220e-01
C     4.882106036000000e+00   9.176333189591568e-01   3.659424000000000e+00 -3.45559570e-01   8.29134240e-01   3.46060090e-01
C     6.089940654399999e+00   1.660871694401920e+00   3.637048800000000e+00  1.79403640e+00  -1.17867633e+00  -2.23547170e-01
C     7.367738036700000e+00   9.363005351595896e-01   3.570489000000000e+00 -8.19593480e-01  -3.54558200e-02   6.19610740e-01
C     8.623698674200000e+00   1.631291366637733e+00   3.573117600000000e+00 -1.35460159e+00   7.13311040e-01  -5.20207000e-01
C     1.102506721350000e+01   3.051270317239945e+00   3.557379900000000e+00  2.54037040e-01   1.47931734e+00   1.74745050e-01
C     2.394541327400000e+00   3.771192668396754e+00   3.644612100000000e+00  1.08468121e+00  -1.56109760e-01  -2.81862380e-01
C     3.643170512600000e+00   3.067052714139814e+00   3.650325000000000e+00  4.65380920e-01  -2.25830450e-01  -3.57553600e-02
C     4.907267178400000e+00   3.764031854208226e+00   3.610158900000000e+00 -2.11901758e+00   1.06131792e+00   9.36705640e-01
C     6.115743140499999e+00   3.071902786702350e+00   3.644385000000000e+00  6.34081210e-01  -2.18821460e-01  -8.63509480e-01
C     7.362908312900000e+00   3.768491181651196e+00   3.520140300000000e+00 -4.57758260e-01   7.81068110e-01   1.04224305e+00
C     8.583718296900001e+00   3.088499719811907e+00   3.498009300000000e+00  6.76845840e-01  -1.73786746e+00   1.96788940e-01
C     9.812250287800000e+00   3.787817267900266e+00   3.506612700000000e+00 -1.88646630e-01   9.91972590e-01   5.06976540e-01
C     1.231068717470000e+01   5.188813998205437e+00   3.650501700000000e+00 -1.47094826e+00   2.56803440e-01  -1.56281870e-01
C     3.663708153100000e+00   5.925147729774073e+00   3.661488900000000e+00 -6.61641600e-01  -1.02245710e+00  -6.13506700e-02
C     4.868297056699999e+00   5.202504081367393e+00   3.678609900000000e+00  9.89599590e-01  -9.44538100e-01  -6.26422310e-01
C     6.101718966700000e+00   5.880866983127937e+00   3.636789300000000e+00  8.40019520e-01   8.54989400e-01   4.09615200e-01
C     7.372123025200000e+00   5.196607980021057e+00   3.634544100000000e+00 -1.47509074e+00   1.70865300e-02  -1.02709137e+00
C     8.556060553200000e+00   5.956648566385317e+00   3.574947900000000e+00  1.78888899e+00  -1.57763857e+00   4.65183440e-01
C     9.816160221500001e+00   5.238517358066793e+00   3.601600200000000e+00 -2.33051750e-01  -1.28505955e+00  -7.09910660e-01
C     1.106752743010000e+01   5.900178638449296e+00   3.616790400000000e+00 -3.85041020e-01   8.49985330e-01   3.47041780e-01
C     1.348213794940000e+01   7.325539385796632e+00   3.608056500000000e+00  7.64025710e-01   7.39488500e-01   3.13490800e-01
C     4.861295273500000e+00   8.035881137975091e+00   3.615869700000000e+00  8.32771140e-01  -3.55228230e-01   3.36505600e-02
C     6.092301976499999e+00   7.307237980805162e+00   3.640595700000000e+00  1.19644959e+00   7.39699540e-01  -2.79912940e-01
C     7.366057448999999e+00   8.056414981866451e+00   3.616782000000000e+00 -1.69003965e+00  -3.00216560e-01   2.28813840e-01
C     8.604172521799999e+00   7.353340525337207e+00   3.603060600000000e+00 -1.42411984e+00   3.59440000e-01   4.55659860e-01
C     9.827550099100000e+00   8.035713602589473e+00   3.692772300000000e+00 -4.44651140e-01   8.47671460e-01  -6.94820430e-01
C     1.103369875610000e+01   7.341185841649660e+00   3.656816400000000e+00  9.58852210e-01  -1.16684702e+00  -5.96698700e-02
C     1.225744031530000e+01   8.033432320549636e+00   3.619077900000000e+00  5.08595000e-01   1.25336682e+00  -1.55404780e-01
