32
Lattice="9.768 0 0 4.884 8.4593361441664 0 0 0 30 " PBC="1 1 1" Properties=species:S:1:pos:R:3:force:R:3 Energy="-257.88622468"
C     1.085460704177543e-03  -8.767225834863670e-05   2.999249805460714e+00 -7.62146500e-02   3.82719000e-02   3.24012000e-03
C     1.221199987289341e+00   7.052379243217770e-01   3.000449875050645e+00 -6.54650000e-03   3.25679100e-02  -1.57851400e-02
C     2.441031594509359e+00   5.994518212665866e-04   2.999467592889121e+00  7.73081400e-02  -2.97993100e-02   5.53017000e-03
C     3.663618862841806e+00   7.056594658279447e-01   3.000311112256114e+00 -6.36773000e-02  -5.84029300e-02  -3.46597000e-03
C     4.883861999756507e+00   1.131782390579031e-03   3.000969636524183e+00  1.73294000e-03  -1.10924390e-01  -1.53820900e-02
C     6.104259596071488e+00   7.051789913477771e-01   3.000179186500865e+00  5.71969800e-02  -2.95765800e-02   9.34820000e-04
C     7.326500486322904e+00   1.048257848934817e-03   2.998904103242144e+00 -7.49195600e-02  -1.03923600e-01   9.50052000e-03
C     8.546108210876929e+00   7.040094622924694e-01   2.999669657865631e+00  9.63624400e-02   7.44216100e-02   1.06185000e-03
C     1.221740929267076e+00   2.115982368765940e+00   2.999592135350306e+00 -3.75644900e-02  -6.80500900e-02   1.48987100e-02
C     2.441947301332700e+00   2.818994679968966e+00   3.000982989220550e+00  5.57870400e-02   3.12587900e-02  -1.85424500e-02
C     3.663643651822937e+00   2.114098653456879e+00   2.999672005621943e+00 -2.50315600e-02   4.71581400e-02   1.71128700e-02
C     4.884233411907852e+00   2.818655624923580e+00   3.000792741534890e+00  1.62826100e-02   6.85682300e-02  -1.99530000e-03
C     6.105342542716657e+00   2.113659768621882e+00   3.000747345703673e+00 -3.22092900e-02   4.58411700e-02  -6.69861000e-03
C     7.325767747856148e+00   2.818566515407763e+00   2.999915100001082e+00  1.76155400e-02   8.56351000e-02   1.29302600e-02
C     8.546601589942801e+00   2.114920481407779e+00   3.001066645081619e+00  4.98330000e-02  -2.75313300e-02  -1.66548400e-02
C     9.768919546455159e+00   2.820394280310006e+00   2.999914520666962e+00 -6.09783700e-02  -5.33127800e-02  -2.14608000e-03
C     2.442497925400104e+00   4.228541629612004e+00   3.000438830517856e+00 -2.16593200e-02   8.56456400e-02   1.46831600e-02
C     3.662802148229790e+00   4.935596531124472e+00   3.001087084706161e+00  6.01501300e-02  -6.37046700e-02  -3.87139000e-03
C     4.885164959129650e+00   4.229865078814846e+00   3.001160818842394e+00 -8.80936200e-02  -3.77932300e-02  -6.62174000e-03
C     6.105213149699342e+00   4.934200910723489e+00   2.999939589293073e+00  1.17994600e-02   4.33961700e-02   1.51362600e-02
C     7.325861226727426e+00   4.230229847362151e+00   3.000316562120461e+00  4.16694900e-02  -7.41790600e-02  -4.68931000e-03
C     8.547886595807599e+00   4.934212338748348e+00   3.000465816831412e+00 -6.74600500e-02   4.16820800e-02  -7.60165000e-03
C     9.767801235365624e+00   4.228946858026028e+00   2.998875787139046e+00  5.24035100e-02   7.29509700e-02   2.43723900e-02
C     1.098923814551053e+01   4.935687183623939e+00   3.001136753052107e+00  8.64171000e-03  -1.26949160e-01  -2.72126900e-02
C     3.663830984154526e+00   6.345541285982967e+00   3.000205500858109e+00 -5.98991200e-02  -3.11425100e-02  -4.33349000e-03
C     4.883775933109031e+00   7.050594280636505e+00   2.998953286091159e+00  8.16575700e-02  -5.25909500e-02   1.46731800e-02
C     6.105457481845254e+00   6.344431296177482e+00   3.000686956874983e+00 -4.32514100e-02   5.67532000e-03  -2.15166900e-02
C     7.325964041209941e+00   7.049016014812720e+00   2.999114651373649e+00 -2.02525600e-02   6.68836600e-02   1.91070700e-02
C     8.546839780280493e+00   6.345656986270161e+00   3.000714650917379e+00  2.31719400e-02  -1.01057720e-01  -1.54770100e-02
C     9.767576273735838e+00   7.048483795624967e+00   2.999316353301979e+00  3.73823800e-02   1.02941710e-01   1.20188100e-02
C     1.098940214995549e+01   6.343752863844921e+00   2.999076483698032e+00 -2.26285200e-02   5.84860200e-02   1.49012100e-02
C     1.221011618775803e+01   7.048964113429653e+00   2.999685735846058e+00  1.13914700e-02   6.75538900e-02  -8.10695000e-03
