32
Lattice="9.86 0 0 4.93 8.53901048131456 0 0 0 30 " PBC="1 1 1" Properties=species:S:1:pos:R:3:force:R:3 Energy="-257.39546464"
C     9.824314737299998e+00   6.130522801042640e-02   3.435003300000000e+00  7.97775090e-01  -1.56922376e+00  -2.41093520e-01
C     1.213243420000000e+00   7.243900468300496e-01   3.427054500000000e+00  2.41577430e-01  -4.54349490e-01  -1.01080060e-01
C     7.382632601999999e+00   8.537056071281338e+00   3.408047100000000e+00 -3.69019590e-01  -5.99379540e-01   1.32353740e-01
C     3.683371260900000e+00   6.776942118498551e-01   3.425077800000000e+00  8.76700020e-01   8.03569100e-01  -2.24433470e-01
C     9.863466233699999e+00   8.530520568830260e+00   3.428391600000000e+00  4.45712030e-01   5.50300340e-01  -2.17519740e-01
C     6.196664505599999e+00   7.192664697618401e-01   3.395907600000000e+00 -1.24051978e+00  -6.20732140e-01   2.17902040e-01
C     1.235204563490000e+01   8.520507042020574e+00   3.393589200000000e+00 -9.11221280e-01   5.45626490e-01   5.00144080e-01
C     8.602854141200000e+00   7.631282925538272e-01   3.454935900000000e+00  6.97858200e-01  -1.06975481e+00  -5.08187130e-01
C     1.107418273290000e+01   2.126590606832692e+00   3.417938100000000e+00  1.29537593e+00   7.77825170e-01   2.15890070e-01
C     2.477626913200000e+00   2.812475608315173e+00   3.455371500000000e+00 -1.02125013e+00   1.69103863e+00  -2.14343470e-01
C     3.703806061600000e+00   2.100340920106229e+00   3.397061700000000e+00 -2.25463320e-01   8.78237290e-01   2.41015310e-01
C     4.924877927200000e+00   2.851159204371878e+00   3.359710800000000e+00  7.36589850e-01  -1.54094615e+00   6.38674940e-01
C     6.176519095899999e+00   2.154577384461101e+00   3.413920200000000e+00 -2.44768620e-01  -1.03995817e+00  -5.44773410e-01
C     7.403951548899999e+00   2.859021156710919e+00   3.401193000000000e+00 -5.63776430e-01   1.40126690e-01   5.96740120e-01
C     8.635091608400000e+00   2.169750779133538e+00   3.423816300000000e+00 -3.61661260e-01   4.19232500e-02  -9.80798200e-02
C     9.870681042199999e+00   2.866088981075320e+00   3.395804400000000e+00 -1.91088860e-01  -4.23329500e-02   6.01485210e-01
C     1.231154460030000e+01   4.292996826341422e+00   3.483432900000000e+00  4.41819360e-01  -1.64942875e+00  -6.57125260e-01
C     3.717109370799999e+00   4.941039495079687e+00   3.426799800000000e+00 -6.27371840e-01   1.11067479e+00  -5.50160100e-02
C     4.953935593699999e+00   4.246313543706634e+00   3.397218600000000e+00 -1.34257217e+00   3.30900180e-01  -2.06183690e-01
C     6.152388076999999e+00   4.970211316582512e+00   3.383204700000000e+00  2.06412070e-01   1.18641070e+00   6.14685070e-01
C     7.366640569399999e+00   4.263849341018467e+00   3.464119800000000e+00  1.47888937e+00   7.61387240e-01  -1.15686180e+00
C     8.623896958800000e+00   4.968360229890657e+00   3.389162100000000e+00 -3.49576140e-01   4.12378560e-01   5.06975610e-01
C     9.867820261799999e+00   4.286706393491121e+00   3.441307800000000e+00 -5.76707200e-01  -1.92064960e-01  -6.47934030e-01
C     1.106887992630000e+01   5.030946821813713e+00   3.414873900000000e+00  1.19880597e+00  -1.95372603e+00   2.54762920e-01
C     3.712113851100000e+00   6.368189506683004e+00   3.386469600000000e+00  1.47663280e-01   1.00102840e+00   2.97186140e-01
C     4.919524193700000e+00   7.165118789101072e+00   3.373613100000000e+00 -1.22900540e-01  -1.28256775e+00   5.12106220e-01
C     6.148445950399999e+00   6.419723203440747e+00   3.413051400000000e+00  1.54175330e-01  -2.07267380e-01  -5.68027030e-01
C     7.400016324299999e+00   7.103934729649358e+00   3.387676500000000e+00 -4.39959160e-01   3.51377600e-01   1.22728580e-01
C     8.638595556600000e+00   6.393581876757276e+00   3.359744100000000e+00 -5.65972050e-01   7.04856800e-02   5.15860750e-01
C     9.861757495699999e+00   7.118669646133646e+00   3.418622100000000e+00 -2.65435940e-01   1.96592090e-01  -6.20762980e-01
C     1.108020418560000e+01   6.421622108591290e+00   3.365152200000000e+00  7.92387250e-01   1.40589430e-01   7.32711380e-01
C     1.234185044420000e+01   7.076845999753129e+00   3.421824600000000e+00 -9.24768900e-02   1.23126029e+00  -6.39800750e-01
