32
Lattice="9.86 0 0 4.93 8.53901048131456 0 0 0 30 " PBC="1 1 1" Properties=species:S:1:pos:R:3:force:R:3 Energy="-256.97424804"
C     9.897846328199998e+00   3.686628969031008e-01  -2.716151999999994e-01 -6.27793940e-01   3.89069170e-01   3.79725130e-01
C     1.253267970100000e+00   1.097959886105482e+00  -1.513763999999966e-01  3.40483590e-01  -8.20527500e-01  -1.42517470e-01
C     2.462717262100000e+00   3.821331005451960e-01  -2.587734000000026e-01  2.56344799e+00  -4.77597040e-01   3.02105620e-01
C     3.751521855400000e+00   1.080954361344458e+00  -1.348050000000001e-01 -1.42889376e+00   5.36590380e-01  -6.28820950e-01
C     4.989637470500000e+00   3.724201469044056e-01  -2.617463999999998e-01 -1.33528660e+00   7.56758670e-01   7.46648590e-01
C     6.189998652600000e+00   1.110001513294274e+00  -2.147471999999979e-01  1.17665495e+00  -3.18725800e-02  -5.43576360e-01
C     7.421831179900001e+00   3.800781022830792e-01  -2.440922999999984e-01  6.94911870e-01   3.08852770e-01   1.10739590e-01
C     8.669552998600000e+00   1.087370744599339e+00  -2.751851999999992e-01 -6.84249370e-01   6.17670670e-01   1.34170180e-01
C     1.113350093660000e+01   2.486853593736512e+00   7.992990000000000e-02 -1.93138610e-01   1.11417325e+00  -6.70510250e-01
C     2.498515126000000e+00   3.232805666709819e+00   1.502244000000000e-01  8.20072710e-01  -1.10920215e+00  -2.15973700e-02
C     3.748499370999999e+00   2.524785073750139e+00   5.708999999999999e-04 -2.73585690e-01  -1.39951113e+00  -3.70314500e-02
C     4.992570376800000e+00   3.206550429626544e+00  -1.077123000000029e-01 -1.65778602e+00   1.49894944e+00   3.99714070e-01
C     6.204527707700001e+00   2.546835616682958e+00  -2.380974000000009e-01  1.34861021e+00  -7.92580270e-01  -1.68468480e-01
C     7.459386736699999e+00   3.299402177954282e+00  -3.206658000000004e-01 -1.17742190e+00  -3.97485922e+00   3.63169110e-01
C     8.670236000799999e+00   2.540157171196445e+00  -2.556504000000004e-01  1.98814300e-01  -9.58938470e-01   2.75224430e-01
C     9.904303494299999e+00   3.202493801917810e+00  -3.873060000000095e-02 -4.25367880e-01   5.95224670e-01  -1.78813580e-01
C     1.237724222400000e+01   4.639896944964882e+00   2.237616000000000e-01 -1.22718711e+00   9.90838310e-01  -5.51574500e-01
C     3.754481383700000e+00   5.372867416475759e+00   8.897730000000000e-02 -1.19948269e+00  -1.12189513e+00  -4.13229310e-01
C     4.932326368400000e+00   4.640421069428144e+00  -8.325329999999909e-02  2.30396430e+00   1.52486610e-01  -4.72206450e-01
C     6.176680356200000e+00   5.354281320874887e+00  -3.144471000000024e-01 -7.17647950e-01  -1.36012080e-01   1.88784810e-01
C     7.413395358300000e+00   4.655105861920914e+00  -3.467169000000005e-01  3.42176180e-01   1.92604677e+00   3.19246680e-01
C     8.642628345900000e+00   5.358433073160367e+00  -2.359383000000008e-01  8.76800650e-01  -2.12013270e-01  -2.19060120e-01
C     9.865265732999999e+00   4.631809818919483e+00  -4.252229999999813e-02  9.36085850e-01   4.70785680e-01   3.80996910e-01
C     1.110783515940000e+01   5.343847845529794e+00   1.284477000000000e-01  6.32823950e-01   1.00869221e+00  -6.49011160e-01
C     1.361132090860000e+01   6.760989197559397e+00  -1.053384000000008e-01 -4.46381290e-01   1.33684476e+00   2.79889780e-01
C     4.962732981500000e+00   7.481405445082369e+00  -2.500476000000020e-01  6.58902900e-01   2.54472900e-02  -5.42762110e-01
C     6.196098245800000e+00   6.767139846808141e+00  -3.896289000000017e-01  2.55244340e-01   4.10575740e-01   6.32834530e-01
C     7.454480450000000e+00   7.482722245888489e+00  -4.091208000000002e-01 -1.49261119e+00   6.07890750e-01   5.09476270e-01
C     8.676507601699999e+00   6.768959936891953e+00  -3.005364000000021e-01 -1.00721420e-01   6.96445500e-01  -1.11594630e-01
C     9.896092579299999e+00   7.500787461850082e+00  -2.310786000000000e-01  1.16467488e+00  -8.52563430e-01   2.77967770e-01
C     1.114793395530000e+01   6.803676479459860e+00  -4.980390000000057e-02 -1.13171572e+00  -1.47933324e+00  -1.54261500e-02
C     1.237875509310000e+01   7.497428385907460e+00  -1.223604000000016e-01 -1.94397510e-01  -7.64371200e-02   6.55068700e-02
