32
Lattice="9.86 0 0 4.93 8.53901048131456 0 0 0 30 " PBC="1 1 1" Properties=species:S:1:pos:R:3:force:R:3 Energy="-251.51565735"
C     9.725789130999999e+00   5.282814243442736e-01   4.546234200000000e+00  1.56912581e+00  -2.94720369e+00   2.49205370e-01
C     1.097828964800000e+00   1.179367994148344e+00   4.383610800000000e+00 -1.70619078e+00   2.36716982e+00  -1.35286406e+00
C     2.282731786800000e+00   5.358024139948480e-01   4.558602300000000e+00  2.10746320e-01  -2.95962101e+00   1.45753184e+00
C     3.449477123000000e+00   1.261239343509746e+00   4.691268000000000e+00  4.43306273e+00  -2.75543679e+00  -3.82959700e-02
C     4.736471420300000e+00   5.525679925613848e-01   4.931512500000000e+00  3.05997515e+00  -1.07148719e+00  -9.72641740e-01
C     6.074352142300000e+00   1.222924547315671e+00   4.752998099999999e+00 -1.50072329e+00  -1.94260462e+00  -1.49476331e+00
C     7.302531588899999e+00   4.612149259629912e-01   4.414587900000000e+00 -6.28858330e-01   3.79413029e+00   1.27487667e+00
C     8.640379427799999e+00   1.297887068687810e+00   4.274037600000000e+00 -6.04850662e+00  -4.13865322e+00   1.53117547e+00
C     1.095293298180000e+01   2.602517906292304e+00   3.975039600000000e+00  2.38608000e-02   1.58390558e+00   1.91669928e+00
C     2.342598502300000e+00   3.340119937087534e+00   4.060819800000000e+00  5.10663520e-01  -8.05391900e-02   1.11696426e+00
C     3.592748346000000e+00   2.588196790255877e+00   4.405566900000000e+00 -2.65578549e+00   3.26584648e+00  -4.75093000e-02
C     4.782991048200000e+00   3.284269428971731e+00   4.663188000000000e+00  5.20955770e-01   2.58977772e+00   3.08499460e-01
C     6.021645364399999e+00   2.599920168524079e+00   4.610878500000000e+00  1.66548118e+00   2.93972841e+00   5.59489430e-01
C     7.281429414100000e+00   3.412789648755687e+00   4.482115500000000e+00 -1.42024115e+00  -6.24193290e-01   1.81168976e+00
C     8.502708684800000e+00   2.665273143672339e+00   4.332509400000000e+00  8.47320630e-01   3.17214865e+00  -1.28723082e+00
C     9.713551490600000e+00   3.420451105128658e+00   4.112335200000000e+00  4.74308110e-01  -1.28383287e+00   1.01283412e+00
C     1.219370631060000e+01   4.799975041950088e+00   4.209260400000000e+00  2.80271591e+00  -2.92280778e+00  -1.57898240e-01
C     3.609059941200000e+00   5.490818390647990e+00   4.542534600000001e+00 -3.99589897e+00  -2.76390930e-01  -5.35896950e-01
C     4.759337056100000e+00   4.814646855146929e+00   4.889368200000000e+00 -1.15184259e+00  -5.14996127e+00  -2.25534253e+00
C     5.925347082800000e+00   5.478505820656669e+00   4.945384799999999e+00  5.63371135e+00   4.12726720e-01   7.39641030e-01
C     7.266279031100000e+00   4.853026974771176e+00   4.837305000000001e+00 -2.05050930e-01  -3.01557799e+00  -2.23529416e+00
C     8.535797267200000e+00   5.514407407098990e+00   4.669757100000000e+00 -2.15329259e+00   2.89328049e+00   8.57191850e-01
C     9.725121263899998e+00   4.857452914683169e+00   4.350442500000000e+00 -3.68271700e-02  -3.93391803e+00  -9.54164020e-01
C     1.098587869280000e+01   5.429380381024600e+00   4.263420300000000e+00 -1.52673978e+00   4.53341674e+00   5.50498700e-01
C     1.340076430610000e+01   6.896884048354300e+00   4.533614700000000e+00 -9.43203030e-01  -9.78485410e-01   9.82429610e-01
C     4.733145888800000e+00   7.469573023650338e+00   4.897382100000000e+00  2.15286560e-01   7.24659355e+00  -2.39171186e+00
C     5.968519092799999e+00   6.869963366184319e+00   4.967973600000000e+00  1.33197744e+00   8.32371210e-01  -4.84731810e-01
C     7.209771223200001e+00   7.633057161135807e+00   4.807866600000001e+00  1.32731769e+00   5.38537020e-01   4.53716210e-01
C     8.526578610900000e+00   7.011115514951547e+00   4.823539800000000e+00 -1.57445808e+00  -3.52083753e+00   2.79737800e-01
C     9.811965925399999e+00   7.603246109308450e+00   4.909489200000000e+00 -3.72999323e+00   2.72814408e+00  -1.76652124e+00
C     1.091016666150000e+01   6.880609548280468e+00   4.437666300000000e+00  2.45614470e+00   4.19540100e-01   1.42267065e+00
C     1.212949577210000e+01   7.632868022053675e+00   4.440090900000000e+00  2.19495839e+00  -1.71576607e+00  -5.49985490e-01
