32
Lattice="10.156 0 0 5.078 8.79535400083476 0 0 0 30 " PBC="1 1 1" Properties=species:S:1:pos:R:3:force:R:3 Energy="-256.26693925"
C     4.122377840317733e-03   3.233830135375262e-03   3.001003734315071e+00 -2.02817010e-01  -2.41442770e-01   1.91132300e-02
C     1.267185710482621e+00   7.311716033023286e-01   3.004073561707584e+00  2.37382890e-01   1.59415360e-01  -3.51549400e-02
C     2.540770691014286e+00   1.488397959288405e-03   2.999405244193351e+00 -2.87994100e-02   2.74636300e-02   2.91083200e-02
C     3.811070441374584e+00   7.354776262877392e-01   2.998610470282016e+00 -1.56704810e-01  -6.59679100e-02  -2.32432000e-02
C     5.074841550474672e+00  -3.690935911765295e-03   2.997955653900319e+00  2.16836300e-01   2.49247900e-01   1.04543600e-02
C     6.348470757814383e+00   7.338000806677694e-01   3.000553322990511e+00 -9.36181200e-02  -1.28369600e-01   2.32809000e-03
C     7.615061313370695e+00  -3.860026291827487e-03   3.002419100977033e+00  1.01288790e-01   2.12330550e-01  -5.67522100e-02
C     8.887784603894959e+00   7.313885301836180e-01   2.999874026325881e+00 -6.82229100e-02   7.32143800e-02   4.95090200e-02
C     1.270771378517899e+00   2.198683831332261e+00   3.004114845727216e+00 -7.41330300e-02   2.07996500e-02  -3.35910000e-02
C     2.537734742311297e+00   2.933770986273547e+00   3.000716426856187e+00  7.95860400e-02  -1.74240750e-01   8.87809000e-03
C     3.809369643750069e+00   2.202003084705192e+00   2.995795929346236e+00 -4.73738200e-02  -9.98244700e-02   4.33740000e-02
C     5.076707116103112e+00   2.930291150636926e+00   2.997019035280220e+00  1.04156030e-01   4.08354400e-02   2.93778100e-02
C     6.347565654631038e+00   2.198155892807972e+00   3.000606370960416e+00 -9.02315700e-02  -6.04239900e-02  -3.48216600e-02
C     7.612834425236426e+00   2.929716734945062e+00   2.997857426628178e+00  1.83645130e-01   1.08765630e-01   6.47312100e-02
C     8.882694582138813e+00   2.199409054285914e+00   3.004209189958996e+00  1.54143290e-01  -8.00686200e-02  -7.90381000e-02
C     1.015824553703834e+01   2.934255725320608e+00   2.999867032260615e+00 -1.64786550e-01  -1.50615250e-01   5.41589700e-02
C     2.540914974045688e+00   4.393752483444326e+00   3.003533458060505e+00 -1.55643340e-01   2.34927610e-01  -2.90714600e-02
C     3.805373580969638e+00   5.128265708590146e+00   3.002326937520987e+00  2.78184500e-01   5.33747000e-03  -2.98119700e-02
C     5.081531313147840e+00   4.394244460668070e+00   3.001196948698373e+00 -2.61209720e-01   1.02514370e-01  -2.69935700e-02
C     6.344480938990091e+00   5.128607446994895e+00   2.998442846098072e+00  2.84310750e-01   3.02531900e-02   2.45684700e-02
C     7.620245899581034e+00   4.397963511391150e+00   2.999677430368170e+00 -3.19714860e-01  -1.50373810e-01  -4.80238600e-02
C     8.882917601347714e+00   5.125978970147940e+00   2.995621622103768e+00  1.32217380e-01   1.94310630e-01   5.11416000e-02
C     1.015284325330913e+01   4.395824407697927e+00   2.999765406298494e+00  2.37578460e-01   1.55591850e-01  -2.22478800e-02
C     1.142854602453862e+01   5.134133066475312e+00   3.000954505408994e+00 -1.66854370e-01  -2.54476550e-01   7.17945000e-03
C     3.810973769135121e+00   6.594611945758157e+00   2.996719099833065e+00 -1.05699510e-01   6.28736600e-02   5.43487700e-02
C     5.081353416142407e+00   7.327465481115165e+00   3.002227840762108e+00  1.28657000e-03   4.63737200e-02  -5.54285000e-02
C     6.351944599630833e+00   6.593966936446003e+00   2.999388246550632e+00 -1.87729590e-01   9.25595600e-02   2.01500200e-02
C     7.619415485354494e+00   7.332068131799397e+00   2.999880148208354e+00 -2.51836000e-02  -1.29836790e-01  -1.36776700e-02
C     8.883207749548545e+00   6.594768965007411e+00   2.998253144220409e+00  2.28817450e-01   8.08529400e-02  -1.58672000e-02
C     1.015814812733850e+01   7.332292914127327e+00   2.997456169525601e+00 -1.88514810e-01  -2.93497350e-01   2.05320900e-02
C     1.142838598207228e+01   6.595346413393804e+00   3.000032921623374e+00 -9.01781500e-02   1.25101330e-01  -3.05376600e-02
C     1.269300087684555e+01   7.331368124262016e+00   2.996568106393060e+00  1.87981580e-01  -1.93630980e-01   4.53073900e-02
