32
Lattice="9.86 0 0 4.93 8.53901048131456 0 0 0 30 " PBC="1 1 1" Properties=species:S:1:pos:R:3:force:R:3 Energy="-255.59371716"
C     1.025186450100000e+00   6.715363898323080e-01   3.794150400000000e+00  9.16666910e-01  -9.91989090e-01  -1.11247550e-01
C     2.287205761800000e+00   1.341964757664731e+00   3.670934400000000e+00 -1.50701220e-01  -3.23481120e-01  -6.75700210e-01
C     3.503965652200000e+00   6.257678913902416e-01   3.473616600000000e+00  1.09800008e+00  -1.30902208e+00  -1.03224240e-01
C     4.743374702100000e+00   1.344430226160622e+00   3.351900300000000e+00 -8.75515400e-02   1.61430150e-01   5.72298340e-01
C     6.047559120599999e+00   7.157323441043776e-01   3.451424400000000e+00 -4.35465699e+00  -2.65546817e+00  -3.03778100e-01
C     7.191805366500000e+00   1.394597595851460e+00   3.675318000000000e+00  4.49422865e+00  -1.99114756e+00   2.32668000e-01
C     8.460285640399999e+00   6.316835470705761e-01   3.780957900000000e+00 -3.01167030e-01   1.25197740e+00  -3.03574170e-01
C     9.669954761100000e+00   1.420710231459719e+00   3.824117700000000e+00  7.53386170e-01  -1.73752296e+00  -2.49286690e-01
C     2.315929272900000e+00   2.739803249553770e+00   3.507800400000000e+00 -9.45696330e-01   2.48185742e+00  -1.07715715e+00
C     3.517756932800000e+00   3.481607327406208e+00   3.281570100000000e+00  6.74569000e-03  -2.21532810e-01   1.34804468e+00
C     4.705966650900000e+00   2.757573101142860e+00   3.340932000000000e+00  3.66583616e+00   3.15738720e-01   3.17478040e-01
C     6.023827283799999e+00   3.442601810654407e+00   3.478615800000000e+00 -7.07034110e-01   1.87081403e+00   2.58769590e-01
C     7.309961197500000e+00   2.762928939296126e+00   3.670336800000000e+00 -3.48411560e+00   2.50204472e+00  -1.19663720e+00
C     8.500952668100000e+00   3.511108498543246e+00   3.553981200000000e+00  3.72312780e-01  -2.09016700e-01   1.33068963e+00
C     9.733666482200000e+00   2.833059063857422e+00   3.673011000000000e+00 -1.66201600e-02  -1.87738030e-01  -1.01242889e+00
C     1.095885879250000e+01   3.524831200725234e+00   3.404720400000000e+00 -3.93448750e-01  -1.94475640e-01   1.63386240e+00
C     3.570966176300000e+00   4.893814241449734e+00   3.380300100000000e+00 -1.05775141e+00   1.59379593e+00  -3.82478480e-01
C     4.785663305400000e+00   5.651945761240979e+00   3.410373900000000e+00 -5.81388100e-02  -1.66650407e+00   2.12915800e-01
C     6.006219591600000e+00   4.943247683189815e+00   3.499804800000000e+00  3.31767740e-01  -2.58064455e+00  -1.01876592e+00
C     7.217493279399999e+00   5.648467139151637e+00   3.427917600000000e+00  1.36750071e+00  -3.70337770e-01   1.54558774e+00
C     8.508456867600000e+00   4.906633943273462e+00   3.514754100000000e+00 -2.71163326e+00   1.86684595e+00  -1.59760178e+00
C     9.688901737099998e+00   5.659038177955562e+00   3.335734200000000e+00  8.41518090e-01  -1.54634214e+00   7.99937390e-01
C     1.092297159700000e+01   4.993449550482993e+00   3.345744600000000e+00  2.18283659e+00  -2.48360784e+00   2.57345400e-02
C     1.220965476200000e+01   5.653310465895893e+00   3.417047700000000e+00 -1.59948582e+00  -7.33485000e-02  -8.36442530e-01
C     4.818107191700000e+00   7.050480182484138e+00   3.508773000000000e+00 -1.93962991e+00  -1.66159740e-01   1.11530193e+00
C     6.002746406600000e+00   7.735142397665883e+00   3.703367400000000e+00 -9.18877990e-01   3.70095039e+00  -3.46484670e-01
C     7.197251981199999e+00   7.099837797811158e+00   3.553199100000000e+00  2.03232413e+00  -3.75240781e+00  -7.85342370e-01
C     8.451416323899998e+00   7.689732366883767e+00   3.424732200000000e+00 -3.30358060e-01   4.13848509e+00   7.71067140e-01
C     9.680746235299999e+00   7.034078280373945e+00   3.361791000000000e+00  9.76071060e-01   2.25430095e+00  -3.12852210e-01
C     1.092397066150000e+01   7.806477035045488e+00   3.392491800000000e+00  6.72233070e-01  -6.16671390e-01   1.49514750e-01
C     1.216406281220000e+01   7.083275362303941e+00   3.430651500000000e+00  1.24173036e+00  -1.14503880e-01   8.28508930e-01
C     1.344955577660000e+01   7.752631828150809e+00   3.636233700000000e+00 -1.89629121e+00   1.05368112e+00  -8.29376770e-01
