32
Lattice="9.86 0 0 4.93 8.53901048131456 0 0 0 30 " PBC="1 1 1" Properties=species:S:1:pos:R:3:force:R:3 Energy="-255.64435703"
C     5.105636426499999e+00   8.472071554435288e+00  -3.065955000000002e-01 -1.06359125e+00   8.09878940e-01  -6.74307250e-01
C     1.385746239900000e+00   6.769060611825513e-01  -3.894623999999993e-01 -3.17004560e-01   9.09588000e-03   2.05294582e+00
C     7.545668194999999e+00   8.469294070496458e+00  -4.302446999999994e-01  2.98851300e-02   4.41351865e+00  -5.60168740e-01
C     3.865109992100000e+00   6.815207132261528e-01  -4.465478999999988e-01 -1.87352948e+00  -2.97380870e+00   3.09705770e-01
C     9.980601850499999e+00   8.466966250849506e+00  -5.358641999999989e-01  1.15984040e+00  -1.40369445e+00   1.54951247e+00
C     6.257949089100000e+00   6.126841633624712e-01  -3.311096999999990e-01  1.48067528e+00   9.74413500e-01  -9.73168500e-01
C     1.247410040570000e+01   8.509442875361428e+00  -3.048606000000014e-01 -6.90582030e-01  -2.18031923e+00   4.65664200e-02
C     8.787986289999999e+00   6.154170736665951e-01  -3.264360000000011e-01 -7.96813090e-01   2.68118241e+00   1.11948952e+00
C     1.318923393000000e+00   2.077998940745728e+00  -2.181060000000201e-02  2.60542257e+00  -1.00224710e-01  -1.52717886e+00
C     2.642956533800000e+00   2.781723899093339e+00  -2.631089999999858e-02 -3.26504222e+00   6.96047410e-01   1.08667116e+00
C     3.815046433699999e+00   2.028115834713769e+00  -1.839018000000010e-01  1.50993448e+00   2.85453621e+00  -1.29887993e+00
C     5.054443503700000e+00   2.759199782639300e+00  -3.696815999999998e-01 -9.90408170e-01   2.19714278e+00   1.50851248e+00
C     6.233909127300000e+00   2.034600017711861e+00  -3.628728000000017e-01  1.99670594e+00   1.06054202e+00  -1.87406030e-01
C     7.477467708900000e+00   2.795623102621950e+00  -3.347717999999986e-01  5.69469600e-01  -2.75463800e-02   5.35504250e-01
C     8.710466033300001e+00   2.077560462557580e+00  -1.863245999999990e-01  8.21354720e-01  -2.88272070e-01  -8.36944710e-01
C     9.951737390700000e+00   2.792615492350684e+00  -3.013439999999790e-02  2.01230090e-01   4.35890880e-01  -4.51237430e-01
C     2.614480360800000e+00   4.246204842103224e+00   1.415892000000000e-01  5.05621500e-01  -1.93162366e+00  -1.61260934e+00
C     3.830878635700000e+00   4.966193114420938e+00  -8.786070000000024e-02  8.93362850e-01  -2.51546712e+00   8.51496400e-02
C     5.104383762800000e+00   4.257167223757448e+00  -2.752698000000002e-01 -2.59362653e+00  -2.15775277e+00   1.87933510e-01
C     6.290844908500000e+00   4.968557054082222e+00  -3.724185000000020e-01  1.30949587e+00   1.13436440e-01  -6.78720760e-01
C     7.537865385400000e+00   4.264603164863642e+00  -3.648683999999989e-01 -1.65627674e+00  -2.83636124e+00  -2.60213110e-01
C     8.755716186199999e+00   4.916248356733314e+00  -3.802911000000009e-01  1.61696996e+00   1.28612309e+00   1.01071364e+00
C     1.001974718440000e+01   4.235773586900856e+00  -1.066214999999993e-01 -2.17175525e+00  -1.00518730e+00  -6.54380300e-02
C     1.122459382840000e+01   4.932466670118187e+00   3.004170000000000e-02  1.05481962e+00   3.74138700e-01   3.91550020e-01
C     3.806532866000000e+00   6.329468765930710e+00  -2.010564000000024e-01  1.86205336e+00   2.71200136e+00   1.45548670e-01
C     5.063138889800000e+00   7.077623391267228e+00  -3.006165000000003e-01 -4.25304300e-02  -1.44033725e+00  -9.40669750e-01
C     6.286864081399999e+00   6.383686359072422e+00  -4.922858999999988e-01 -7.77224800e-02   4.55946310e-01   1.13109727e+00
C     7.513368166099999e+00   7.136753391747980e+00  -5.343306000000005e-01  1.02659079e+00  -4.88860527e+00   1.76241650e-01
C     8.758201399200001e+00   6.347940182620837e+00  -4.436712000000007e-01  3.13316560e-01   1.18936120e-01  -3.70218170e-01
C     1.003254669690000e+01   6.994636078626196e+00  -3.933657000000004e-01 -1.71999708e+00   2.30443537e+00   1.35812490e-01
C     1.125591352680000e+01   6.361329351053477e+00  -6.128429999999696e-02 -8.34667360e-01  -5.22499550e-01  -1.57607547e+00
C     1.247860721450000e+01   7.064000851678170e+00  -2.060469000000005e-01 -8.63202060e-01   7.74433630e-01   5.40281300e-01
