32
Lattice="9.86 0 0 4.93 8.53901048131456 0 0 0 30 " PBC="1 1 1" Properties=species:S:1:pos:R:3:force:R:3 Energy="-251.49096747"
C     5.387243597399999e+00   8.034174616730661e+00  -2.370455999999983e-01  5.37568570e-01   3.03662321e+00   4.35835420e-01
C     1.712006590000000e+00   1.974386587581408e-01  -1.900109999999984e-01 -4.92565120e-01   2.21903432e+00  -1.10685730e-01
C     7.835868010799999e+00   8.067447383406611e+00   1.151121000000000e-01  1.38235610e-01  -1.66221691e+00  -1.76481138e+00
C     4.117462690900000e+00   2.197981430901256e-01  -8.330610000000149e-02  1.47235249e+00  -4.50290090e-01   2.00842236e+00
C     1.030278163960000e+01   7.975157587358561e+00   6.525060000000001e-02 -2.72662500e-02   5.15964757e+00  -1.61966378e+00
C     6.586931341500000e+00   2.087747929010744e-01  -1.684679999999972e-02  1.12557362e+00   1.13079083e+00  -7.42731090e-01
C     1.280144944770000e+01   8.067307941365472e+00  -3.051077999999983e-01 -9.83238560e-01   6.17232176e+00   2.39329749e+00
C     9.116592629899998e+00   2.798162860509016e-01  -1.993554000000017e-01 -9.68280250e-01  -2.54994640e+00  -6.48613000e-01
C     1.727449371300000e+00   1.694929623091505e+00  -5.489949000000003e-01 -3.49838890e+00  -2.63893338e+00   1.42698020e-01
C     2.835935960800000e+00   2.439273544221114e+00  -7.890249000000011e-01  4.32527214e+00  -2.05239053e+00   1.69770927e+00
C     4.145142866100000e+00   1.590837548318418e+00  -2.926989000000013e-01 -6.78355540e-01   5.25286680e+00  -2.86774927e+00
C     5.349594912900000e+00   2.443399508694945e+00  -3.929654999999990e-01  1.18049140e+00  -2.02723922e+00   9.56343710e-01
C     6.630133325899999e+00   1.696247533968988e+00  -1.121150999999969e-01 -2.39425086e+00  -4.28322920e-01  -8.16004780e-01
C     7.843813642500000e+00   2.378080689588604e+00  -3.037719000000010e-01  3.79265330e-01   2.22414383e+00   9.28820700e-01
C     9.082034710299999e+00   1.663587355904874e+00  -2.340984000000006e-01 -1.25220900e-02   1.48767734e+00  -1.51864825e+00
C     1.027459441390000e+01   2.350705475890772e+00  -6.252426000000000e-01  2.16836172e+00  -5.34288410e-01   1.74750780e+00
C     2.920630107000000e+00   3.840568712942561e+00  -1.114364100000000e+00  9.10078830e-01   1.10688798e+00   1.04355110e+00
C     4.205115182199999e+00   4.556490110738966e+00  -1.008823499999998e+00 -1.02566508e+00   1.54057123e+00   1.44629877e+00
C     5.405093254000000e+00   3.897769836345985e+00  -6.292559999999980e-01 -4.34274400e-01  -2.70774266e+00   2.91346920e-01
C     6.643299679700000e+00   4.572799193805242e+00  -3.116519999999987e-01 -1.69619456e+00  -8.50029550e-01  -9.27634870e-01
C     7.856296451799999e+00   3.913411424963040e+00  -3.437133000000010e-01  2.73671762e+00  -4.04463711e+00   2.44239210e-01
C     9.202821978099999e+00   4.548262517971172e+00  -3.994974000000013e-01 -3.13702675e+00  -2.49078328e+00  -1.23918000e-02
C     1.036974326600000e+01   3.735791467968560e+00  -6.067563000000007e-01  4.63724400e-01   4.80636610e+00  -2.00534652e+00
C     1.161415173030000e+01   4.652157341602170e+00  -1.012676100000000e+00 -2.90862386e+00  -1.87342910e+00   1.35414671e+00
C     4.131578414800000e+00   6.010900827909578e+00  -7.559715000000011e-01  4.04358780e-01  -5.49361180e-01   3.52622280e-01
C     5.374731799699999e+00   6.654986348411201e+00  -3.201494999999994e-01 -1.72224057e+00  -1.27259121e+00  -5.22153440e-01
C     6.563791449800000e+00   5.932564116546267e+00  -1.140812999999987e-01  3.16584318e+00   1.67386213e+00   2.05882570e-01
C     7.887613980999999e+00   6.594460561277390e+00   1.140576000000000e-01 -1.59386122e+00   6.91395470e-01  -1.53872464e+00
C     9.141560417699999e+00   5.916702136068724e+00  -2.546022000000008e-01 -2.17731633e+00   1.24599378e+00   9.16716720e-01
C     1.027951800490000e+01   6.692894773096532e+00  -4.042416000000024e-01  1.26786247e+00  -9.46604520e-01   4.01992100e-01
C     1.148725318520000e+01   6.165216459062460e+00  -8.599859999999993e-01  1.24307058e+00  -4.84391159e+00   4.03396330e-01
C     1.272607664970000e+01   6.813937296013047e+00  -6.628815000000010e-01  2.23129360e+00  -5.82546430e+00  -1.87566892e+00
