32
Lattice="9.86 0 0 4.93 8.53901048131456 0 0 0 30 " PBC="1 1 1" Properties=species:S:1:pos:R:3:force:R:3 Energy="-253.63916281"
C     4.933811826700000e+00   8.462034801517097e+00  -1.900598999999978e-01 -2.62890050e-01  -2.64964888e+00  -1.23880018e+00
C     1.232683001600000e+00   6.451254865879824e-01  -2.637369000000014e-01  5.31392710e-01  -1.81779129e+00   1.23624226e+00
C     7.324480984199999e+00   8.334421083085697e+00  -1.176630000000003e-01  3.87044395e+00   6.39690123e+00  -1.94305831e+00
C     3.752910192700000e+00   5.890001931149336e-01  -3.603795000000005e-01 -2.36934045e+00  -9.30835990e-01   6.73342420e-01
C     9.921260820899999e+00   8.415311043972633e+00  -4.521498000000008e-01 -1.63916320e+00   2.07020025e+00  -5.83222900e-02
C     6.206646720299999e+00   6.349880587362312e-01  -4.602471000000001e-01 -5.96326000e-01  -1.11944355e+00   1.54247250e-01
C     1.231550053090000e+01   8.411792288534034e+00  -5.378048999999976e-01  2.25152338e+00  -1.63142336e+00  -5.15473960e-01
C     8.616248901899999e+00   5.358556120301383e-01  -3.206483999999996e-01  5.04354870e-01   2.40377512e+00   5.59649480e-01
C     1.320230286700000e+00   2.062343604321801e+00  -4.740909000000002e-01 -1.44353898e+00  -5.12430030e-01  -1.31795262e+00
C     2.526914243100000e+00   2.718552384952404e+00  -8.375396999999971e-01 -3.74433750e-01   1.31175040e-01   1.03071731e+00
C     3.733499599500000e+00   2.003367049859375e+00  -5.796975000000018e-01  1.34285426e+00   9.96988500e-02  -3.57134990e-01
C     4.993748153799999e+00   2.747966628962755e+00  -5.655603000000013e-01 -1.56227448e+00  -5.15952040e-01   2.43616210e-01
C     6.222033003799999e+00   2.066415431469189e+00  -3.075977999999999e-01 -1.59009965e+00  -1.23727035e+00  -5.78615410e-01
C     7.427139951799999e+00   2.729469253680770e+00  -1.549551000000022e-01  2.07913230e+00   6.66803040e-01  -6.47832490e-01
C     8.659405431700000e+00   1.970335766399801e+00  -2.077910999999979e-01  8.94702890e-01   2.20888457e+00  -1.25553024e+00
C     9.936786524799999e+00   2.763562619263846e+00  -5.326343999999992e-01 -1.86905260e+00  -7.02870890e-01   1.60658307e+00
C     2.475486849500000e+00   4.127425925474852e+00  -1.121571599999999e+00 -4.64322900e-01   3.22106780e-01   4.37876870e-01
C     3.691983921600000e+00   4.844914146304232e+00  -9.610650000000014e-01  1.19861397e+00   8.06073900e-02  -2.26284700e-02
C     4.875206303800000e+00   4.162266027524405e+00  -6.854934000000021e-01  3.74057147e+00  -2.85334740e-01   1.25091985e+00
C     6.139219652600000e+00   4.909247734381390e+00  -3.602193000000007e-01  1.36597378e+00  -2.58888719e+00  -1.59997590e-01
C     7.463940528399999e+00   4.161063222508192e+00  -2.025785999999989e-01 -2.95108824e+00  -1.45118200e-02  -7.32591280e-01
C     8.656125798500000e+00   4.863970399822134e+00  -4.073349000000022e-01  6.34614110e-01   1.70743050e+00  -4.17675140e-01
C     9.895162682699999e+00   4.226057132265769e+00  -6.867155999999994e-01 -5.04455570e-01  -3.20171123e+00  -2.88379180e-01
C     1.107233590560000e+01   4.852733488980977e+00  -1.139099099999999e+00  5.55905070e-01   2.13282459e+00   1.69152205e+00
C     3.855131277700000e+00   6.249914306282847e+00  -8.219825999999983e-01 -4.12148568e+00   1.18268141e+00   2.51368910e-01
C     4.936965153300000e+00   6.957360565397643e+00  -3.118566000000023e-01  2.60780039e+00   2.31796865e+00  -4.67761680e-01
C     6.213152496199999e+00   6.294622771963926e+00  -2.409965999999990e-01 -2.12047688e+00  -6.50375690e-01  -2.44563500e-02
C     7.431441031699999e+00   6.996827530275783e+00  -1.668917999999984e-01 -5.66319840e-01  -2.04928952e+00  -1.44332650e-01
C     8.642735819900000e+00   6.308523170954004e+00  -4.348361999999995e-01 -1.80870500e-01  -7.60206130e-01   5.46928520e-01
C     9.829867100500000e+00   7.028477543400113e+00  -6.157475999999988e-01  3.12087312e+00  -1.14785866e+00  -8.40506350e-01
C     1.107648676840000e+01   6.339993267127520e+00  -9.946505999999999e-01  2.19578918e+00  -1.67325833e+00   1.86146980e-01
C     1.246241231240000e+01   6.972355665531256e+00  -9.134856000000013e-01 -4.27840669e+00   1.76804227e+00   1.14188797e+00
