32
Lattice="9.86 0 0 4.93 8.53901048131456 0 0 0 30 " PBC="1 1 1" Properties=species:S:1:pos:R:3:force:R:3 Energy="-254.40387683"
C     5.070865875999999e+00   8.283944601215483e+00   1.399596000000000e-01 -3.46984710e-01   1.31495929e+00  -6.13443590e-01
C     1.390114269200000e+00   5.051446338882944e-01   1.584846000000000e-01 -2.40545753e+00   5.19957020e-01  -2.93169340e-01
C     7.540654779400000e+00   8.342290293583646e+00   2.224848000000000e-01 -1.30442935e+00   6.38494670e-01  -1.14513496e+00
C     3.800428786500000e+00   4.869028311899752e-01  -7.645829999999876e-02 -1.02208040e+00   2.45100440e-01   2.25483288e+00
C     9.879786357800000e+00   8.307021447817892e+00   1.010130000000000e-01  4.49607126e+00  -2.37327304e+00  -1.67109575e+00
C     6.248566214499999e+00   4.254827534885928e-01   9.791670000000001e-02 -1.61668863e+00   3.13083902e+00   4.96318000e-03
C     1.239730047130000e+01   8.335448069876128e+00  -4.045470000000151e-02  1.14181922e+00  -2.16005656e+00   1.38044900e-02
C     8.751989944300000e+00   5.114268692885352e-01   6.638610000000000e-02 -8.24423400e-01  -2.61874685e+00   2.95271800e-01
C     1.319184683000000e+00   1.937684554296691e+00  -1.140597000000021e-01  4.46148080e-01  -8.61453480e-01  -1.26592287e+00
C     2.579463852600000e+00   2.583179438478038e+00  -4.457220000000000e-01 -2.20105259e+00   2.11819549e+00   1.01023923e+00
C     3.764488790700000e+00   1.894606356496453e+00  -1.711148999999992e-01  4.67551580e-01  -3.18383040e-01  -1.19453029e+00
C     4.975821638500000e+00   2.577893705600814e+00  -1.484468999999997e-01  2.58638152e+00   5.45788210e-01   5.01782490e-01
C     6.235675349099999e+00   1.904146309784919e+00   1.290369000000000e-01  1.15704050e-01  -7.26449360e-01  -4.12469680e-01
C     7.491190709000000e+00   2.639797347465678e+00   1.752123000000000e-01 -1.82009286e+00  -1.01731205e+00  -7.67454950e-01
C     8.710869701699998e+00   1.904062115141586e+00   1.254276000000000e-01  8.42448220e-01   1.60993911e+00  -1.04223637e+00
C     9.913847431999999e+00   2.638241198195803e+00  -2.185391999999986e-01  1.10418575e+00  -1.24689420e+00   1.96725672e+00
C     2.551329575100000e+00   4.058242179445053e+00  -6.634427999999986e-01  1.26579910e-01  -2.24839600e+00   5.47648710e-01
C     3.833650281700000e+00   4.736949032547733e+00  -5.423282999999977e-01 -2.07450002e+00   1.01158059e+00   1.94689440e-01
C     5.012502218900000e+00   3.975936877571058e+00  -3.071249999999992e-01  1.26850916e+00   3.19815761e+00   9.63641700e-01
C     6.250991478700000e+00   4.813008731376446e+00  -3.600900000002127e-03 -2.07424320e-01  -4.15013896e+00  -8.42639430e-01
C     7.468095137999999e+00   4.056689701949685e+00   5.831940000000000e-02  5.18103840e-01   2.20728290e-01   4.87064090e-01
C     8.718721318299998e+00   4.748223258864686e+00  -1.461359999999701e-02 -2.40146030e-01  -6.13218400e-02  -1.58206750e-01
C     9.944061923000000e+00   4.054346255913554e+00  -2.596263000000008e-01 -1.54503880e+00  -8.56508470e-01  -7.57486960e-01
C     1.110997635700000e+01   4.722186022718964e+00  -6.259961999999994e-01  3.49615913e+00   3.63069700e-01   9.21707430e-01
C     3.777007589000000e+00   6.194549838643566e+00  -3.706119000000001e-01  1.43329501e+00  -5.54372630e-01   5.07506710e-01
C     5.072557063200000e+00   6.852519534015356e+00  -1.866240000000019e-02 -3.10972701e+00   1.70793862e+00  -4.75796670e-01
C     6.294607780300000e+00   6.191582105551243e+00   8.865179999999999e-02 -2.91392950e-01   9.87979590e-01   3.69439180e-01
C     7.492537042699999e+00   6.969073867633478e+00   2.770305000000000e-01  1.86696595e+00  -4.12139934e+00  -9.65604730e-01
C     8.757316513499999e+00   6.149449090821037e+00   8.022660000000001e-02 -1.92284930e+00   1.48289474e+00   1.20164490e-01
C     9.960843544399999e+00   6.827883122538878e+00  -8.348640000000174e-02  4.48357240e-01   1.58171704e+00  -5.95318000e-03
C     1.122394080060000e+01   6.122871847652560e+00  -4.592039999999997e-01 -5.17134281e+00   1.17455727e+00   1.17374442e+00
C     1.233171973790000e+01   6.880242883170457e+00  -3.336237000000004e-01  5.74535079e+00   1.46280913e+00   2.77388570e-01
