32
Lattice="9.86 0 0 4.93 8.53901048131456 0 0 0 30 " PBC="1 1 1" Properties=species:S:1:pos:R:3:force:R:3 Energy="-252.80869076"
C     5.079821368899999e+00   7.990972603278465e+00  -3.077582999999997e-01 -3.80746568e+00  -2.23564399e+00   1.31948319e+00
C     1.331229264600000e+00   7.819359754766561e-02  -1.671185999999985e-01  2.43266896e+00   4.16527715e+00   7.52642590e-01
C     7.550452513500000e+00   7.964623095519491e+00  -1.402464000000023e-01 -2.69337541e+00  -5.31338090e-01  -1.90691230e-01
C     3.745649781699999e+00   1.970934265644344e-01   2.922090000000000e-02  2.48721339e+00  -3.55739958e+00  -6.91561300e-02
C     9.905663681299998e+00   8.053250851533088e+00   1.001508000000000e-01  2.02776443e+00  -3.46778136e+00  -4.95752440e-01
C     6.233608939600000e+00   1.895605676892928e-01  -4.373700000002145e-03  1.94592270e-01  -1.62764684e+00   8.93990720e-01
C     1.237298117570000e+01   7.908706410072468e+00   1.332510000000000e-01  1.16606986e+00   4.35516144e+00  -1.91452883e+00
C     8.700915242900001e+00   1.807475403629896e-01  -2.372627999999999e-01  3.93383940e-01  -4.60373832e+00   9.29929040e-01
C     1.295576490600000e+00   1.564663175664389e+00   1.928199000000000e-01  2.83721772e+00  -2.09668543e+00  -1.14736412e+00
C     2.614311360400000e+00   2.225801868605515e+00   4.870335000000000e-01 -3.98462062e+00   9.91741210e-01  -4.67892310e-01
C     3.801460980600000e+00   1.519787943108635e+00   2.189043000000000e-01 -1.55371555e+00   3.57381971e+00   1.08596199e+00
C     4.949611885099999e+00   2.270756599348838e+00   1.663611000000000e-01  4.47380633e+00   1.66331495e+00  -1.13663260e+00
C     6.260776739899999e+00   1.604546758863849e+00  -1.003985999999983e-01 -3.01241990e-01   4.47873360e-01   7.59410540e-01
C     7.536824514499999e+00   2.290145447324935e+00  -1.450203000000023e-01 -2.73533800e+00   1.63896298e+00  -6.98375860e-01
C     8.737550812399999e+00   1.547010308518875e+00  -3.151010999999997e-01 -2.82453860e-01   2.48116831e+00   1.70022803e+00
C     9.970535875099998e+00   2.277945933832369e+00   1.283280000000000e-02  5.74812700e-02  -1.84174299e+00   6.68942420e-01
C     2.532896847400000e+00   3.649188823680400e+00   7.349898000000000e-01  9.72518560e-01   6.68116510e-01  -7.98882340e-01
C     3.793640373700000e+00   4.445900446721334e+00   6.442500000000000e-01  2.88549160e-01  -1.89461570e+00  -1.84782785e+00
C     4.992243715000000e+00   3.728553461125293e+00   1.925442000000000e-01 -6.95654230e-01  -1.10425435e+00   1.03273148e+00
C     6.226386884000000e+00   4.421891396344822e+00  -9.705750000000180e-02 -9.58920300e-01  -9.52780270e-01   6.98934960e-01
C     7.464205269399999e+00   3.805133527252658e+00  -1.125873000000013e-01  2.00701225e+00  -5.64667461e+00   4.60993830e-01
C     8.734201222499998e+00   4.357721330318356e+00   1.142595000000000e-01  3.64769070e-01   1.39691458e+00  -6.35105770e-01
C     9.956887022200000e+00   3.616272475301886e+00   3.771627000000000e-01 -1.46300959e+00   2.36850746e+00  -1.21118023e+00
C     1.113507681110000e+01   4.380888007311015e+00   6.200523000000000e-01  1.97169509e+00  -1.02781323e+00  -2.37821370e-01
C     3.792995726900000e+00   5.819976494856523e+00   4.426881000000000e-01  1.11789851e+00   2.91013473e+00  -1.28765334e+00
C     5.099287227400000e+00   6.545543473501032e+00  -7.348200000000205e-02 -3.83634128e+00  -3.23897040e-01   9.07218810e-01
C     6.255472700800000e+00   5.786957251401726e+00  -1.857074999999995e-01  2.36875603e+00   3.95117689e+00   3.00615100e-02
C     7.604386072599999e+00   6.570520079155032e+00  -2.401382999999981e-01 -1.58593534e+00  -3.28196203e+00   5.84754770e-01
C     8.820603613699999e+00   5.761502888111370e+00  -3.523229999999700e-02 -1.27359693e+00   2.30817619e+00   5.21276870e-01
C     1.001154100220000e+01   6.498965391475356e+00   1.699563000000000e-01 -1.20581989e+00   2.67104891e+00  -3.47027240e-01
C     1.122344410310000e+01   5.813266540421340e+00   4.280703000000000e-01 -3.14786370e+00  -9.46838500e-01   8.20327190e-01
C     1.236419138010000e+01   6.555134233901853e+00   4.578246000000000e-01  4.36395553e+00  -4.50582080e-01  -6.80996250e-01
