2
Lattice="2.537 0 0 1.2685 2.19710644940112 0 0 0 30 " PBC="1 1 1" Properties=species:S:1:pos:R:3:force:R:3 Energy="-16.0233449"
C     0.000000000000000e+00   0.000000000000000e+00   3.000000000000000e+00 -0.00000000e+00   0.00000000e+00   0.00000000e+00
C     1.268500000000000e+00   7.323688164670401e-01   3.000000000000000e+00  0.00000000e+00  -0.00000000e+00   0.00000000e+00
