32
Lattice="9.86 0 0 4.93 8.53901048131456 0 0 0 30 " PBC="1 1 1" Properties=species:S:1:pos:R:3:force:R:3 Energy="-254.79192708"
C     9.776872114800000e+00   8.379552998296480e-02   3.828309000000000e+00  3.73298003e+00  -1.36447640e-01  -4.75646110e-01
C     1.215100255200000e+00   8.297506770000448e-01   3.797298600000000e+00 -2.01107117e+00  -1.27031221e+00  -6.03867840e-01
C     2.371939939600000e+00   2.317316664062400e-02   3.623729700000000e+00  3.17396373e+00   3.56457301e+00   9.12667850e-01
C     3.743724123699999e+00   7.069700385003256e-01   3.727502100000000e+00 -2.32596468e+00   1.01122750e-01  -5.65813900e-01
C     5.030734739300000e+00   7.145964849303280e-02   3.733072500000000e+00 -4.94821449e+00  -9.45965230e-01   4.49118670e-01
C     6.172923696199999e+00   8.350858507479488e-01   3.779019000000000e+00  1.48421719e+00  -2.95809137e+00  -1.33517210e+00
C     7.379224345100000e+00   2.255109972715600e-02   3.667165500000000e+00  4.73471880e-01   3.66318889e+00   5.69210980e-01
C     8.598502479499999e+00   7.964433273316520e-01   3.698926200000000e+00 -3.43076240e-01  -1.17923140e+00   7.29773450e-01
C     1.108849166350000e+01   2.272634327753389e+00   3.776404800000000e+00 -2.48478666e+00  -2.00357855e+00  -1.43983010e-01
C     2.426815276600000e+00   2.901250918429864e+00   3.728337300000000e+00  2.89517269e+00  -2.60006092e+00   7.41385620e-01
C     3.691337302800000e+00   2.099148874243221e+00   3.766820700000000e+00 -9.82003870e-01   2.51491625e+00  -5.56383730e-01
C     4.874118055599999e+00   2.877239733300733e+00   3.718559700000000e+00  1.05156358e+00   1.30769983e+00   8.63345550e-01
C     6.128423347000000e+00   2.219951621745458e+00   3.663430200000000e+00  6.80001700e-02  -6.99660500e-02   3.63854220e-01
C     7.369645552300000e+00   2.870282232951733e+00   3.617562300000000e+00  1.29767238e+00   1.80269507e+00   1.63444889e+00
C     8.629551718100000e+00   2.202414287411739e+00   3.767019000000000e+00 -6.17904480e-01   1.40571100e+00  -1.47413013e+00
C     9.847650990900000e+00   3.019553358273452e+00   3.738712800000000e+00 -5.54594270e-01  -3.55167308e+00   6.67480370e-01
C     1.229222205690000e+01   4.247232512014492e+00   3.839479200000000e+00  1.81230759e+00   3.77548479e+00  -2.66287360e-01
C     3.690955474300000e+00   4.995901015001697e+00   3.768193800000000e+00 -1.36090441e+00   2.08052238e+00   4.49947360e-01
C     4.893564539200000e+00   4.352807727517850e+00   3.833462100000000e+00  2.47205118e+00  -2.07701876e+00  -1.83479498e+00
C     6.190332561500000e+00   5.070262475426148e+00   3.648168300000000e+00 -1.96768227e+00  -2.03002019e+00   1.49551993e+00
C     7.421342814099999e+00   4.297624628461164e+00   3.760842600000000e+00 -2.79804350e+00   3.41038720e-01  -2.05036295e+00
C     8.583306099600000e+00   5.034207784525920e+00   3.709086300000000e+00  7.20136260e-01   2.35548457e+00   5.75119300e-01
C     9.824752373399999e+00   4.407540222991505e+00   3.764417400000000e+00  1.92480367e+00  -9.59970630e-01   7.57634210e-01
C     1.112022819340000e+01   5.001123217640950e+00   3.937730100000000e+00 -1.93061887e+00   3.47176517e+00  -1.74805586e+00
C     1.358252334890000e+01   6.457411919386428e+00   3.713032200000000e+00 -1.81422548e+00  -1.32270449e+00   8.14752040e-01
C     4.919538047000000e+00   7.170766234462230e+00   3.827049000000000e+00 -1.09733471e+00   1.15979457e+00  -1.34991128e+00
C     6.120854810999999e+00   6.476928254788993e+00   3.629462100000000e+00  3.92699190e-01  -7.08764640e-01   3.15330220e-01
C     7.304295345700000e+00   7.203955062665161e+00   3.525999600000000e+00  1.63671116e+00  -2.06722983e+00   1.28817492e+00
C     8.537419927399998e+00   6.468195921111724e+00   3.711599700000000e+00  1.29760347e+00   1.02345668e+00  -7.33930300e-01
C     9.809118751800000e+00   7.188014523291201e+00   3.786029400000000e+00  2.19686644e+00  -7.87908760e-01  -4.50348420e-01
C     1.110891236440000e+01   6.523404039469117e+00   3.804976800000000e+00 -1.91597210e+00  -4.05521693e+00   6.23621270e-01
C     1.232963710870000e+01   7.171553958179010e+00   3.692577300000000e+00  5.22176570e-01   1.56707020e-01   3.37303110e-01
