26
Lattice="8.88768389401873 1.33226762955019e-15 0 4.44384194700937 7.69696003302603 0 0 0 30 " PBC="1 1 1" Properties=species:S:1:pos:R:3:force:R:3 Energy="-208.37822951"
C     9.800248171254329e-01   1.140264758191545e+00   3.551251500000000e+00 -1.70938460e-01  -1.94140959e+00  -9.58860000e-03
C     3.335080983079796e+00   4.936814769321939e-01   3.645405600000000e+00  1.04845060e-01   1.67277976e+00  -1.96490640e-01
C     4.687462604175928e+00   8.617247055986950e-01   3.730803300000000e+00  1.81034715e+00   4.17990730e-01  -9.27605960e-01
C     1.019234998509420e+01   7.588413420268124e+00   3.626930400000000e+00  2.27171320e-01   6.16832730e-01   8.49044750e-01
C     7.153019210702589e+00   3.431967489632583e-01   3.629430600000000e+00 -1.59185337e+00  -3.33930669e+00  -6.58187620e-01
C     1.260912458327502e+01   7.031230098848422e+00   3.560853600000000e+00  7.12056930e-01  -5.89662200e-02   4.16355430e-01
C     5.129751042640444e+00   7.425995710316677e+00   3.542616900000000e+00 -1.64893668e+00  -9.85102000e-03  -5.54001600e-02
C     6.151858508341470e+00   6.438014382683479e+00   3.498417600000000e+00 -1.72922199e+00  -9.24095280e-01   1.03171458e+00
C     7.480197433639570e+00   6.853286312033260e+00   3.523829100000000e+00  5.22234390e-01  -2.81326279e+00  -2.97278500e-01
C     8.484602766021400e+00   5.781485551490965e+00   3.464460900000000e+00 -4.31887410e-01   2.62989405e+00   8.31127250e-01
C     9.834987013517827e+00   6.210048206572549e+00   3.606275100000000e+00  7.20846970e-01  -7.98081330e-01  -1.02308742e+00
C     1.085037930076383e+01   5.198834220845598e+00   3.538210800000000e+00  1.50192300e+00   1.87331761e+00   6.73066870e-01
C     3.361672314492847e+00   5.653789059143650e+00   3.594328500000000e+00 -1.69079490e-01  -1.16833945e+00   9.61697600e-02
C     4.418065487259991e+00   4.654419694298064e+00   3.672923400000000e+00 -6.13553340e-01   3.41016870e-01  -8.04647380e-01
C     5.794002892429766e+00   5.033001215789640e+00   3.657619800000000e+00  2.01321590e-01  -1.96512920e-01  -2.26001856e+00
C     6.796556742516758e+00   3.981407284414102e+00   3.388221900000000e+00 -1.72264714e+00   2.28831450e+00   2.60505449e+00
C     8.126503316535384e+00   4.427594592511582e+00   3.433563000000000e+00  1.11753992e+00  -6.98208200e-01  -4.05707840e-01
C     9.161085135403473e+00   3.447055378561790e+00   3.503177400000000e+00 -3.05361860e-01   7.07209700e-02  -9.55090000e-04
C     1.051308667471066e+01   3.834506876791937e+00   3.556405200000000e+00  5.88057560e-01   5.44487320e-01  -1.31023350e-01
C     2.674886449862155e+00   2.885223709040771e+00   3.603940800000000e+00  4.81471380e-01   1.99908100e-02  -4.16128220e-01
C     4.050790526224767e+00   3.275235985872899e+00   3.570457800000000e+00  6.06591920e-01  -8.27446190e-01   1.27389375e+00
C     5.074337085662375e+00   2.227392321302379e+00   3.659930100000000e+00 -5.35688800e-01   1.68855085e+00   1.00453960e-01
C     6.452451751215300e+00   2.640143034424734e+00   3.630147000000000e+00 -4.39445000e-01  -7.82867670e-01  -1.51308964e+00
C     7.494257124041792e+00   1.659554252052349e+00   3.538922400000000e+00 -1.06097021e+00   1.82978474e+00   8.91344070e-01
C     8.828202222584022e+00   2.074816637171694e+00   3.536158500000000e+00  4.14867390e-01   6.27141570e-01  -2.92640310e-01
C     2.316557475937771e+00   1.528395513144339e+00   3.595008000000000e+00  1.41030917e+00  -1.06247518e+00   2.23624380e-01
