32
Lattice="9.86 0 0 4.93 8.53901048131456 0 0 0 30 " PBC="1 1 1" Properties=species:S:1:pos:R:3:force:R:3 Energy="-254.58717057"
C     1.152921517600000e+00   8.473130306344704e-01   3.473276700000000e+00  1.78180413e+00  -3.54450199e+00  -5.32329070e-01
C     2.420978649600000e+00   1.447483871869235e+00   3.456204600000000e+00  3.94220030e-01  -8.94059820e-01  -2.44317200e-01
C     3.663652739899999e+00   7.042073270496264e-01   3.412018800000000e+00 -2.64643220e-01  -1.11265468e+00   3.03909330e-01
C     4.903569678399999e+00   1.350712803121281e+00   3.451933800000000e+00  1.42537600e+00   1.34725224e+00  -5.28290310e-01
C     6.165841258200000e+00   6.903366438160192e-01   3.458366100000000e+00  1.02174742e+00   1.32645873e+00  -4.59675970e-01
C     7.476492554899999e+00   1.442594690638701e+00   3.385824600000000e+00 -2.77763645e+00  -1.44003805e+00   4.66051400e-01
C     8.690013139500000e+00   6.709191901548136e-01   3.380223600000000e+00 -1.98296506e+00   1.26094439e+00   1.10889713e+00
C     9.803017679600000e+00   1.531113745048888e+00   3.519792300000000e+00  1.57365821e+00  -1.69960654e+00  -1.10804265e+00
C     2.419474112200000e+00   2.827912602241126e+00   3.436430700000000e+00  3.16426848e+00   1.60809202e+00   5.11998130e-01
C     3.729151290199999e+00   3.467989142712494e+00   3.519789900000000e+00 -2.36124759e+00   3.63615952e+00  -4.78762720e-01
C     4.947088661800000e+00   2.766916913360600e+00   3.387621600000000e+00 -6.22843580e-01   1.90884803e+00   5.50890890e-01
C     6.147751411999999e+00   3.565905634326235e+00   3.304338900000000e+00  1.83772193e+00  -3.48335659e+00   1.39638202e+00
C     7.428462621500000e+00   2.889138075893670e+00   3.424995600000000e+00 -6.63141610e-01  -2.22049047e+00  -1.25060377e+00
C     8.648119379899999e+00   3.586986487228945e+00   3.397328100000000e+00 -1.30774623e+00   3.12337240e-01   1.26339425e+00
C     9.877173605699999e+00   2.931377315914247e+00   3.446841000000000e+00 -7.52898090e-01  -5.49056940e-01  -1.97891440e-01
C     1.111624381670000e+01   3.603831051642422e+00   3.385163400000000e+00 -4.20448960e-01  -1.13528060e-01   1.33688635e+00
C     3.668732957000000e+00   5.051873289406944e+00   3.581851500000000e+00  9.15773980e-01  -3.88770627e+00  -1.45554656e+00
C     4.971000640800000e+00   5.601807936526401e+00   3.454740300000000e+00 -1.45897360e+00   2.75228440e+00  -1.27924210e-01
C     6.205868273300000e+00   4.925819477410030e+00   3.390157800000000e+00 -2.19954108e+00   1.10486764e+00  -4.54183480e-01
C     7.381381663799999e+00   5.670875552013673e+00   3.355228800000000e+00 -2.82457900e-01   2.23811486e+00   1.36130604e+00
C     8.563060117899999e+00   4.965634150794918e+00   3.540217200000000e+00  3.38318659e+00   1.97423619e+00  -2.54364543e+00
C     9.856184032100000e+00   5.665785191696230e+00   3.371636400000000e+00 -8.89681010e-01   8.81102480e-01   1.17875208e+00
C     1.111094781350000e+01   5.019410960215652e+00   3.489012300000000e+00 -1.34613176e+00  -4.77505330e-01  -1.38435119e+00
C     1.226957615120000e+01   5.794635700405552e+00   3.429882900000000e+00  2.73944014e+00  -3.13959466e+00   5.48399090e-01
C     4.961475437099999e+00   7.035736385428951e+00   3.363510600000000e+00  3.56165900e-01   2.18176217e+00   6.51669860e-01
C     6.140684947199999e+00   7.938256936690080e+00   3.336385800000000e+00 -3.84164690e-01  -2.82273525e+00   1.15767182e+00
C     7.363624247500001e+00   7.155935766450671e+00   3.424536300000000e+00  4.41186300e-01  -6.85116630e-01  -1.27476894e+00
C     8.638864636000001e+00   7.798887989481388e+00   3.367637400000000e+00 -9.78677760e-01   9.18911350e-01   2.73515420e-01
C     9.885204329200000e+00   7.093351565450551e+00   3.304725600000000e+00 -1.25238696e+00   3.48130400e-02   1.16444965e+00
C     1.109503387210000e+01   7.833891015850900e+00   3.437419800000000e+00 -6.48122300e-01   4.88067010e-01  -1.37163334e+00
C     1.229868908300000e+01   7.166035793436520e+00   3.313997100000000e+00  1.77767027e+00  -5.81860540e-01   1.58458686e+00
C     1.359463345020000e+01   7.740188952859564e+00   3.443874600000000e+00 -2.18511520e-01   2.67756050e+00  -1.44679401e+00
