32
Lattice="9.636 0 0 4.818 8.34502079086685 0 0 0 30 " PBC="1 1 1" Properties=species:S:1:pos:R:3:force:R:3 Energy="-256.77986373"
C     1.074303241597746e-02  -8.244397510061046e-03   2.999781496060668e+00 -7.26542680e-01   7.15097430e-01   5.29697000e-02
C     1.210280719760168e+00   6.901548766448160e-01   3.007985469901861e+00  1.07763800e-01   2.39585210e-01  -5.96057000e-02
C     2.418250403848119e+00  -6.348493042361988e-03   2.996384790972971e+00 -7.31574570e-01   2.81749770e-01   7.71686700e-02
C     3.603454101031511e+00   7.017206895914316e-01   2.997082533115898e+00  9.66266530e-01  -2.91033970e-01  -5.43859000e-03
C     4.817594123794624e+00  -2.011216041572709e-03   2.989011286609446e+00 -3.33040660e-01   2.21015850e-01   7.58388500e-02
C     6.018509170245463e+00   6.886530168244733e-01   2.998530865295900e+00 -1.10625340e-01   4.64381610e-01   9.78314400e-02
C     7.220617111486863e+00   3.502193942000173e-03   3.009985993604360e+00  6.46904080e-01   2.32822410e-01  -1.57380280e-01
C     8.432701384893335e+00   7.046926547905151e-01   2.993414049378859e+00  1.12293880e-01  -1.30450712e+00   1.23683550e-01
C     1.204638964679705e+00   2.089536025471072e+00   3.013193458193034e+00  5.00911250e-01  -4.25057760e-01  -4.71942000e-02
C     2.421920558887432e+00   2.785918918502809e+00   3.002706700933470e+00 -7.01950100e-01  -1.46974330e-01   9.75826700e-02
C     3.621533715012259e+00   2.093319458128001e+00   3.007619398916081e+00 -2.58974500e-01  -3.10123270e-01  -6.54481500e-02
C     4.828767235284357e+00   2.780663269163878e+00   3.005164462738474e+00 -4.87766160e-01  -8.65225400e-02   5.18904700e-02
C     6.014422436356378e+00   2.083425247477497e+00   3.011832391661778e+00  9.88542490e-01  -2.27392040e-01  -2.11925820e-01
C     7.230871104324285e+00   2.772544469482176e+00   2.988315848773562e+00 -4.91660050e-01   3.26274390e-01   1.26509630e-01
C     8.426636310233041e+00   2.074916058900426e+00   2.992619414452500e+00  4.26396000e-01   6.73366650e-01   3.58089000e-02
C     9.635236170014197e+00   2.770057613364542e+00   3.010643473693821e+00 -5.60103500e-02   7.35243270e-01  -1.39258360e-01
C     2.408407867424891e+00   4.174809544578657e+00   3.001926563594651e+00 -9.79947600e-02  -3.30441710e-01  -9.09915200e-02
C     3.603671395203432e+00   4.860107442725000e+00   2.994529543994835e+00  1.09928609e+00   2.66254760e-01   1.26596310e-01
C     4.826626625314903e+00   4.159578535683216e+00   3.000879469153118e+00 -3.15520490e-01   9.90323900e-01  -8.41456400e-02
C     6.033783249272742e+00   4.867782479724397e+00   2.990557603783951e+00 -5.13669540e-01  -4.35221760e-01   1.06389700e-01
C     7.239410903834871e+00   4.170850511730233e+00   2.990432068294655e+00 -5.65867750e-01  -3.43849470e-01  -3.28182800e-02
C     8.427350639800684e+00   4.870063008198222e+00   2.992194513113832e+00  7.40989980e-01   2.34739100e-01   7.05395000e-02
C     9.638442099035721e+00   4.172880057791428e+00   2.996846807866059e+00 -3.07681970e-01  -3.57009120e-01   5.93993000e-03
C     1.084113981438962e+01   4.864492995663944e+00   2.991642207081665e+00 -6.33915100e-02   2.40698100e-01   1.40404750e-01
C     3.612571763068009e+00   6.254742239405823e+00   3.007604925169304e+00 -7.67380900e-02   1.35478790e-01  -9.62967200e-02
C     4.813420930840191e+00   6.954636332359971e+00   3.005298966944267e+00  1.58727000e-01  -4.93244100e-01  -1.31180500e-02
C     6.015066814723863e+00   6.253409858884744e+00   3.001381898658350e+00  2.25212260e-01   1.91112520e-01  -3.15055800e-02
C     7.218708276418157e+00   6.949592947175693e+00   3.000541798028438e+00  3.05401990e-01   1.39190200e-01  -6.75366000e-03
C     8.426733393228718e+00   6.267769332913915e+00   3.005241676635563e+00  3.30126740e-01  -5.13640070e-01  -1.61685670e-01
C     9.645065689359125e+00   6.955654542783188e+00   2.993166621514083e+00 -5.95853080e-01  -1.60074210e-01   7.39444400e-02
C     1.084514459665314e+01   6.256996697452621e+00   3.002945632182130e+00  1.60144220e-01   1.98013200e-01  -1.12245040e-01
C     1.205121485300968e+01   6.966769001877093e+00   3.005490282654507e+00 -3.34104710e-01  -8.60255690e-01   5.27127300e-02
