2
Lattice="2.41 0 0 1.205 2.0871212231205 0 0 0 30 " PBC="1 1 1" Properties=species:S:1:pos:R:3:force:R:3 Energy="-16.05755926"
C     0.000000000000000e+00   0.000000000000000e+00   3.000000000000000e+00  0.00000000e+00  -0.00000000e+00   0.00000000e+00
C     1.205000000000000e+00   6.957070743734990e-01   3.000000000000000e+00 -0.00000000e+00   0.00000000e+00  -0.00000000e+00
