32
Lattice="9.86 0 0 4.93 8.53901048131456 0 0 0 30 " PBC="1 1 1" Properties=species:S:1:pos:R:3:force:R:3 Energy="-255.12568386"
C     4.972403817400000e+00   8.210293586462967e+00  -1.035776999999989e-01  2.82103046e+00   1.19106264e+00   1.00773760e-01
C     1.352727614200000e+00   4.147672346273456e-01  -1.952286000000001e-01 -3.73643805e+00   1.86259612e+00   1.86175734e+00
C     7.470640151900000e+00   8.288111894500037e+00  -1.060005000000004e-01 -2.23195509e+00  -3.86104937e+00   1.97970800e-02
C     3.699898297100000e+00   3.957155921751032e-01   7.830840000000000e-02  4.31267382e+00   1.82124018e+00  -1.15514724e+00
C     9.905499808100000e+00   8.242282512913249e+00  -3.398849999999953e-02 -2.79123180e-01   6.09388500e-02   1.63860270e+00
C     6.207166440899999e+00   3.975231299135096e-01   2.218530000000000e-02  1.67412752e+00   1.47831940e-01  -4.69957630e-01
C     1.242549824720000e+01   8.224788215192349e+00   3.994380000000000e-02 -1.98389103e+00  -5.12813700e-02   3.35452340e-01
C     8.712652734799999e+00   3.901175022945200e-01  -5.561129999999892e-02 -6.66526320e-01   9.86492610e-01  -4.66018500e-01
C     1.330380910200000e+00   1.853254405054853e+00   8.421780000000000e-02 -2.25392352e+00  -8.92090610e-01  -1.72886390e+00
C     2.550116450000000e+00   2.542489687299162e+00   1.036362000000000e-01 -1.25582461e+00   4.79492870e-01   1.21520194e+00
C     3.765085468600000e+00   1.829909604303581e+00   1.042413000000000e-01 -7.72970870e-01  -8.89031770e-01  -2.41792430e-01
C     4.972344410900000e+00   2.515714339087550e+00   4.845270000000000e-02  2.04055333e+00   1.06695115e+00   4.61243000e-03
C     6.233036763800000e+00   1.815941661740607e+00  -3.074099999999902e-02 -3.05833410e-01   6.40123930e-01   7.38450000e-04
C     7.468496587899999e+00   2.570206717586508e+00  -1.011138000000003e-01 -3.93869230e-01  -2.27327738e+00   6.63089700e-02
C     8.719842942600000e+00   1.827163970873842e+00  -1.501136999999986e-01 -1.04444717e+00   1.31743443e+00   1.17230344e+00
C     9.886141867299997e+00   2.607364904811066e+00   4.359810000000000e-02  2.99717945e+00  -2.06326327e+00  -1.10047319e+00
C     2.484024081200000e+00   3.940133404359152e+00   2.956077000000000e-01  1.46271841e+00   1.58722726e+00  -7.29125800e-01
C     3.758000319100000e+00   4.623024628767345e+00   2.685648000000000e-01 -1.28139789e+00   1.37194936e+00  -1.02034806e+00
C     4.988834965100000e+00   3.957698746647246e+00   7.001700000000000e-02  7.49546860e-01  -2.12172180e-01   8.77280480e-01
C     6.252689617200000e+00   4.705366562996299e+00   5.915999999999999e-02 -1.39375951e+00  -1.62850657e+00  -9.93855590e-01
C     7.452422815900000e+00   3.962864506427227e+00  -3.487140000000011e-02  2.19602668e+00   1.39268457e+00   2.91965510e-01
C     8.761989068900000e+00   4.698417089317151e+00   2.416650000000000e-02 -5.32841556e+00   1.58574697e+00  -8.82246740e-01
C     9.955338016199999e+00   4.034192312598448e+00  -1.452959999999948e-02 -1.17025990e+00  -1.73154291e+00   1.40265912e+00
C     1.111850338360000e+01   4.743183620269495e+00   2.311566000000000e-01  2.58404070e+00  -4.09561659e+00   1.71459900e-02
C     3.704437594600000e+00   6.063319934663992e+00   1.209273000000000e-01  3.52644947e+00   4.15091130e-01   1.24270644e+00
C     5.002682595600000e+00   6.834008667096811e+00   6.453570000000000e-02 -1.74003910e+00  -2.44122826e+00  -1.33673116e+00
C     6.248873353499999e+00   6.111167169817310e+00  -6.772289999999970e-02 -4.36450418e+00  -1.00466329e+00   1.20553017e+00
C     7.379951224299999e+00   6.799545135409426e+00  -8.567610000000059e-02  3.46984860e+00   3.88772829e+00  -2.70310420e-01
C     8.581341346700000e+00   6.156716984200983e+00   9.720000000000001e-03  5.36941947e+00  -2.31069099e+00   4.38364060e-01
C     9.902672107999999e+00   6.845312096829606e+00   9.861150000000000e-02 -1.25225766e+00  -1.25660384e+00  -1.59704450e-01
C     1.113065805210000e+01   6.078711244883878e+00   2.927229000000000e-01 -2.71624010e-01   4.64275413e+00  -1.11417844e+00
C     1.239867505390000e+01   6.800428752213897e+00   2.029905000000000e-01 -1.47655446e+00   2.53671960e-01  -2.22446640e-01
