32
Lattice="9.86 0 0 4.93 8.53901048131456 0 0 0 30 " PBC="1 1 1" Properties=species:S:1:pos:R:3:force:R:3 Energy="-256.32811843"
C     5.015239798600000e+00   7.147371907450175e+00  -1.228872000000010e-01 -2.41180868e+00   1.29511771e+00   1.77371970e-01
C     6.189297507999999e+00   7.874284719536435e+00  -1.193247000000000e-01  2.53622400e+00   3.02530300e-01   9.35080620e-01
C     7.463856866299999e+00   7.195720724079087e+00  -1.968953999999989e-01 -2.48239170e-01  -1.04872425e+00   1.28100620e-01
C     8.691475969099999e+00   7.877384294950570e+00  -9.609090000000009e-02  3.35900710e-01   4.93897070e-01  -7.94056970e-01
C     9.957600935500000e+00   7.146927964295320e+00  -1.519235999999999e-01 -1.91230693e+00   1.19370656e+00   1.14539143e+00
C     1.113772141100000e+01   7.910533331364665e+00  -2.352299999998309e-03  1.01770836e+00  -1.99115991e+00  -1.04026553e+00
C     1.238165748270000e+01   7.222356801029771e+00  -2.871599999999930e-02  3.78720860e-01  -1.14861419e+00   3.72014550e-01
C     1.362563693840000e+01   7.889802492501530e+00  -7.328069999999798e-02  1.52292170e-01  -4.20191000e-02   2.72292060e-01
C     1.263300175000000e+00   7.295114037555344e-01   1.784085000000000e-01  6.38309730e-01   1.17887910e+00  -2.21339556e+00
C     2.479562135400000e+00   1.507995911196174e+00   1.037610000000000e-02  1.63852499e+00  -2.58109191e+00   8.81278500e-01
C     3.745668318499999e+00   7.974816710060200e-01  -9.925859999999886e-02 -1.46439104e+00  -2.31982793e+00   1.76431490e-01
C     4.963628614600000e+00   1.414376078875760e+00  -2.051514000000019e-01  1.10728794e+00   3.91015671e+00   2.52785610e-01
C     6.222838368599999e+00   7.433314506569952e-01  -1.095275999999998e-01 -1.96823581e+00   1.13160926e+00  -2.71476250e-01
C     7.409949288300000e+00   1.456123898843214e+00  -9.916680000000255e-02  2.32593892e+00   6.91021860e-01   1.94608100e-02
C     8.671278695800000e+00   7.658324263926336e-01  -3.446669999999941e-02 -4.81553300e-02  -2.70578770e-01   2.88833490e-01
C     9.909792359099999e+00   1.453715385547225e+00   1.023147000000000e-01 -6.07370950e-01   6.80911590e-01  -2.57089830e-01
C     2.562946380600000e+00   2.885745953980489e+00   9.557760000000000e-02 -4.88894550e-01   1.72301712e+00  -3.12513300e-01
C     3.797352318600000e+00   3.667070536306778e+00   1.894530000000000e-02 -1.52043321e+00  -2.50156393e+00  -1.27332281e+00
C     4.970515824600000e+00   2.914562552647345e+00  -2.528109000000001e-01  9.32218420e-01  -9.76249690e-01   1.20236380e+00
C     6.212935724099999e+00   3.610468424488526e+00  -2.588523000000009e-01  1.03422210e+00   6.24636710e-01  -2.00398530e-01
C     7.475262667800000e+00   2.876351676210813e+00  -1.511868000000014e-01 -2.46594172e+00   8.23925600e-02  -4.30616600e-02
C     8.681977781800001e+00   3.569942195360341e+00  -3.055319999999995e-02  2.15533350e-01   1.19872998e+00  -8.13890620e-01
C     9.914763820399997e+00   2.883336928343872e+00   1.976610000000000e-02  1.60229451e+00  -2.95618770e-01   9.02782790e-01
C     1.119594761970000e+01   3.572885677662902e+00   7.846290000000000e-02 -1.73241067e+00   2.09109031e+00   1.75645580e-01
C     3.725757083800000e+00   5.060035729524776e+00  -5.396819999999991e-02  2.05087722e+00   6.89676290e-01   6.35029610e-01
C     4.980883861100000e+00   5.759181301942068e+00  -1.228425000000009e-01  4.93822810e-01  -8.56835530e-01  -1.11028886e+00
C     6.227802730700000e+00   5.078963897885478e+00  -3.012507000000006e-01 -7.83853210e-01  -2.27209727e+00   8.93301470e-01
C     7.475981609700000e+00   5.743686584305269e+00  -2.837129999999988e-01 -8.96790350e-01   1.03553669e+00   5.02938710e-01
C     8.647598328199999e+00   4.996562190583163e+00  -1.272774000000005e-01  2.85657033e+00   9.16416360e-01  -2.53431970e-01
C     9.950809712600000e+00   5.739021125149312e+00  -9.327689999999933e-02 -1.69517726e+00  -1.12879334e+00   2.56479970e-01
C     1.117187235910000e+01   5.050244131597465e+00   6.142440000000000e-02  3.16948280e-01  -1.26366977e+00  -4.15928780e-01
C     1.239920872640000e+01   5.797114745928106e+00   3.589349999999999e-02 -1.38938582e+00  -5.42481840e-01  -2.18462420e-01
