2
Lattice="2.419 0 0 1.2095 2.09491545175456 0 0 0 30 " PBC="1 1 1" Properties=species:S:1:pos:R:3:force:R:3 Energy="-16.07982501"
C     0.000000000000000e+00   0.000000000000000e+00   3.000000000000000e+00  0.00000000e+00  -0.00000000e+00  -0.00000000e+00
C     1.209500000000000e+00   6.983051505848523e-01   3.000000000000000e+00 -0.00000000e+00   0.00000000e+00   0.00000000e+00
