26
Lattice="8.88768389401873 1.33226762955019e-15 0 4.44384194700937 7.69696003302603 0 0 0 30 " PBC="1 1 1" Properties=species:S:1:pos:R:3:force:R:3 Energy="-204.28819986"
C     1.109631378561161e+00   1.537069140432546e+00   3.285295200000000e+00  1.06777460e+00  -2.44130898e+00   1.47101771e+00
C     3.512869412000639e+00   9.198359841291920e-01   3.673127400000000e+00  1.06489652e+00   8.19647990e-01  -4.00311260e-01
C     4.947650039166088e+00   1.304754566752667e+00   3.669612000000000e+00 -3.50188135e+00   4.62553257e+00   5.91339590e-01
C     5.947759287515827e+00   4.919395009382043e-01   3.902731500000000e+00  6.04983997e+00  -5.68771618e+00  -1.14887175e+00
C     7.432613214539728e+00   7.927367758802046e-01   3.544800000000000e+00 -2.65220171e+00  -7.48891520e-01   1.27958080e+00
C     1.281551309006607e+01   7.357011244230200e+00   3.445608000000000e+00 -2.76861728e+00   3.20909075e+00   2.29464810e-01
C     8.040809377217276e-01   1.023669514325898e-01   3.329548200000000e+00  4.96427860e-01   1.76634334e+00  -5.52049830e-01
C     6.319747523893772e+00   6.890458857467746e+00   3.300914700000000e+00 -8.04487190e-01  -1.04667699e+00  -4.82441210e-01
C     7.643923946860252e+00   7.274695951250165e+00   3.500796300000000e+00  2.91429130e+00  -1.13925717e+00   1.95882015e+00
C     8.763265162894655e+00   6.325644615935103e+00   3.812682000000000e+00 -2.17792817e+00  -1.45990463e+00  -3.20557851e+00
C     1.010839105665097e+01   6.746496379489032e+00   4.009174199999999e+00 -6.70140900e-01  -2.60631150e+00  -6.55213280e-01
C     1.105265098794542e+01   5.535099472453839e+00   3.892923600000000e+00  9.46955590e-01   5.73167066e+00  -1.17439481e+00
C     3.475309307737010e+00   6.013132644797042e+00   3.467299800000000e+00  7.50050050e-01  -5.58153960e-01   8.78690370e-01
C     4.528748792155323e+00   5.131913694591166e+00   3.184647000000000e+00  1.89297271e+00  -3.32062579e+00   9.75525300e-01
C     5.969374449087155e+00   5.544088059346474e+00   3.100917900000000e+00 -4.06195260e-01  -2.34125997e+00   1.15443296e+00
C     7.042805000780684e+00   4.511145555454833e+00   3.191960700000000e+00 -1.49280417e+00   1.42614745e+00  -1.63379922e+00
C     8.441542559139256e+00   4.899467656833974e+00   3.303301500000000e+00 -1.71396608e+00   1.78465664e+00   2.45667104e+00
C     9.364507111121615e+00   3.858891000106178e+00   3.380584800000000e+00  1.56455593e+00   3.46222857e+00   7.34436210e-01
C     1.070449890091725e+01   4.208366159365907e+00   3.702935700000000e+00 -8.23249190e-01   5.56644870e-01  -1.05866121e+00
C     2.783485948316383e+00   3.245332757369147e+00   3.514907100000000e+00  4.41482403e+00  -4.18550280e-01   1.06324663e+00
C     4.254580229852978e+00   3.670320636334398e+00   3.405907200000000e+00 -1.17855420e+00   7.12385430e-01   2.01658100e-02
C     5.338552552336726e+00   2.716580466908260e+00   3.529833600000000e+00 -2.20499205e+00   5.99217760e-01  -2.57914938e+00
C     6.655926164315934e+00   3.125162891326368e+00   3.098896800000000e+00  1.21528002e+00  -4.44568620e-01   3.75376311e+00
C     7.755050432491883e+00   2.178245999997225e+00   3.374692500000000e+00 -3.58519486e+00  -1.55220583e+00  -2.03233186e+00
C     9.055266770652489e+00   2.564147253507730e+00   3.210170100000000e+00 -5.27719000e-03  -2.72695469e+00   2.63474110e-01
C     2.442461650408964e+00   1.851218639816989e+00   3.608067300000000e+00  1.60762102e+00   1.79882010e+00  -1.90782628e+00
