32
Lattice="9.86 0 0 4.93 8.53901048131456 0 0 0 30 " PBC="1 1 1" Properties=species:S:1:pos:R:3:force:R:3 Energy="-257.5900886"
C     9.901361861900000e+00   3.567196391150392e-01  -1.581350999999991e-01  1.16654860e-01  -7.59774300e-02  -2.72424320e-01
C     1.282029688700000e+00   1.042978393086230e+00  -1.568357999999996e-01  1.64589460e-01   5.96516970e-01  -3.25241400e-02
C     2.530764375900000e+00   3.331441143005976e-01  -2.050799999999988e-01 -2.08787351e+00  -7.44196920e-01  -2.00777860e-01
C     3.715552821900000e+00   1.035358009353668e+00  -2.477345999999976e-01  1.51253680e+00   1.37167192e+00   1.64471430e-01
C     4.946917097799999e+00   3.591861322921872e-01  -2.591243999999975e-01  1.24469095e+00  -1.13136392e+00   1.91921850e-01
C     6.191804511600000e+00   1.048563845231302e+00  -1.914671999999982e-01  4.95703900e-02   5.87180850e-01  -3.84674100e-01
C     7.430508817999999e+00   3.327194693094272e-01  -1.960181999999975e-01 -3.62441120e-01   5.34082270e-01  -1.95560160e-01
C     8.654632156400000e+00   1.071104954316197e+00  -2.004471000000017e-01  6.19785880e-01  -1.53122927e+00   4.33224340e-01
C     1.115413895190000e+01   2.480444810200957e+00  -1.387374000000001e-01 -7.16842500e-01  -9.65309120e-01  -7.11107900e-02
C     2.514196815100000e+00   3.162767934241916e+00  -1.597830000000009e-01 -1.34184030e-01   1.51055679e+00  -1.58732550e-01
C     3.739254536400000e+00   2.467830044628749e+00  -2.182682999999983e-01 -3.18351460e-01   1.13690150e-01   1.64355910e-01
C     4.938460767400000e+00   3.218356465516192e+00  -2.145876000000015e-01  1.74436659e+00  -1.41720332e+00   3.17801520e-01
C     6.206259222300000e+00   2.482597665523175e+00  -1.918043999999988e-01 -7.31003470e-01   4.77402200e-02  -2.56299750e-01
C     7.441389377299999e+00   3.172714173649020e+00  -2.125337999999992e-01  3.99875300e-02   1.50273585e+00   2.09946170e-01
C     8.686403886499999e+00   2.460605956372564e+00  -1.895753999999990e-01 -5.71124070e-01   1.53487162e+00   4.88452000e-02
C     9.921463936900000e+00   3.194557645577699e+00  -1.519958999999993e-01 -3.58841010e-01  -8.20640170e-01  -4.50260800e-01
C     1.234617701220000e+01   4.608677468748954e+00  -1.626572999999993e-01  5.31977640e-01  -1.62007830e-01   1.69940770e-01
C     3.719264914700000e+00   5.318815480137359e+00  -1.453901999999978e-01  3.33415010e-01   6.18742910e-01  -5.12099400e-02
C     4.966656719200000e+00   4.624899197738019e+00  -1.625520000000016e-01 -6.34832570e-01  -1.38670050e-01  -4.24194820e-01
C     6.200842927100000e+00   5.325968779996665e+00  -2.377442999999992e-01 -6.28664240e-01   3.19521230e-01   3.22810100e-01
C     7.423623481400000e+00   4.647417593055037e+00  -2.210666999999980e-01  1.19724396e+00  -1.87339154e+00  -3.03837670e-01
C     8.679001294299999e+00   5.340005717764318e+00  -2.524623000000012e-01 -3.68755610e-01  -7.02544840e-01   1.74921710e-01
C     9.902743888800000e+00   4.596596476721849e+00  -2.381048999999997e-01 -1.26226860e-01   1.20631446e+00   5.71276430e-01
C     1.112323864860000e+01   5.345202132591922e+00  -1.820868000000004e-01  4.15289700e-02  -1.85338795e+00  -1.95934040e-01
C     1.358651216260000e+01   6.751200246725334e+00  -1.460091000000006e-01  7.12245780e-01   5.40044900e-02  -4.69120110e-01
C     4.992124852700000e+00   7.481471195463064e+00  -1.817355000000020e-01 -1.70055622e+00  -9.07045100e-01  -1.90361300e-02
C     6.186684361499999e+00   6.741415138445988e+00  -2.586714000000008e-01  1.54278638e+00   7.24343240e-01   4.06056490e-01
C     7.456087580699999e+00   7.443571992909052e+00  -2.557251000000029e-01 -7.51801820e-01   3.20341710e-01   2.28055730e-01
C     8.696061559299999e+00   6.759429718075434e+00  -2.332089000000011e-01 -4.44876630e-01  -5.30548380e-01  -5.58358900e-01
C     9.923780248099998e+00   7.462732849305334e+00  -2.630453999999993e-01 -1.06781624e+00   7.57353090e-01   3.75964110e-01
C     1.112257462690000e+01   6.739543045788353e+00  -1.989909000000019e-01  7.40251140e-01   8.49962840e-01  -3.44129980e-01
C     1.235584671420000e+01   7.449976506939366e+00  -2.160812999999990e-01  4.12560000e-01   2.03885230e-01   6.08594330e-01
