32
Lattice="9.66 0 0 4.83 8.36580540055768 0 0 0 30 " PBC="1 1 1" Properties=species:S:1:pos:R:3:force:R:3 Energy="-256.989808"
C    -6.101698270553646e-03  -8.687778941281029e-03   3.000787842952589e+00  7.05551400e-02   1.13501163e+00   6.16807500e-02
C     1.203265322597169e+00   7.014737437522399e-01   3.009230809519332e+00 -1.09773520e-01  -9.29623650e-01  -1.38683900e-01
C     2.407548492662540e+00  -9.446207524486275e-03   3.008810207455344e+00  3.43097930e-01   5.16213870e-01  -5.63345500e-02
C     3.629969149258838e+00   6.956473948186584e-01   3.006543366485261e+00 -9.32312700e-01  -5.55110340e-01   3.23444900e-02
C     4.824919383668023e+00  -5.373874448772569e-03   3.007259078911934e+00  4.89702650e-01   4.91962210e-01  -8.90928200e-02
C     6.043569753689562e+00   6.991263189412860e-01   3.000513727056207e+00 -9.55982000e-01   1.00266750e-01   7.43194300e-02
C     7.235825590780029e+00   8.899547729879952e-03   3.008515768656448e+00  6.89756420e-01  -2.42747160e-01  -2.08202120e-01
C     8.444890079242739e+00   7.084679810239213e-01   2.994863453419435e+00  2.15582210e-01  -1.04023174e+00   7.33984000e-02
C     1.193857135333216e+00   2.082234391746788e+00   2.989819987979979e+00  6.32338740e-01   6.50330790e-01   3.21102430e-01
C     2.406396034535245e+00   2.782889135306453e+00   3.010943870228321e+00  1.77629800e-01  -7.04696100e-02  -1.44616530e-01
C     3.619666188027640e+00   2.080284075014447e+00   3.009521818322829e+00 -3.65851340e-01   4.28626470e-01   1.57369100e-02
C     4.823962061707895e+00   2.774306505509756e+00   3.008443410016309e+00  1.60534900e-02   6.07465630e-01   8.27275000e-03
C     6.029137464985112e+00   2.096435851145175e+00   2.998481733231633e+00  9.71281700e-01  -1.99454690e-01   5.44561400e-02
C     7.255494257850210e+00   2.797522869452608e+00   3.001934837195218e+00 -9.46900370e-01  -4.73367130e-01  -2.72326300e-02
C     8.449685058557932e+00   2.086659139834916e+00   2.997215887867513e+00  2.79035660e-01   7.87583390e-01   9.24205800e-02
C     9.661008001611536e+00   2.788825719591003e+00   3.013122066487226e+00 -3.10720300e-01   3.51614700e-02  -2.99461340e-01
C     2.410363695653065e+00   4.181105902038787e+00   3.004276631556825e+00 -1.16734840e-01  -2.58852630e-01   9.18034200e-02
C     3.618881299676466e+00   4.874622905351919e+00   3.004509974860039e+00  2.99702350e-01   5.22792000e-03  -1.89552200e-02
C     4.830955480644055e+00   4.170932436923067e+00   3.013035520617744e+00 -2.20536860e-01   3.23081220e-01  -1.10804600e-01
C     6.033155983663728e+00   4.880641106654742e+00   2.998386410975066e+00  2.89585340e-01  -3.60116100e-01   1.86770060e-01
C     7.253019031827713e+00   4.187603481894007e+00   3.005653574608076e+00 -7.66786660e-01  -2.29366460e-01  -9.38563400e-02
C     8.447141326353371e+00   4.872023140978417e+00   2.998745102480150e+00  8.54004850e-01   7.26365720e-01   7.93773000e-03
C     9.666174695143836e+00   4.187099337578691e+00   2.995651413809646e+00 -7.23686860e-01  -5.52342720e-01   1.97122990e-01
C     1.085945581787846e+01   4.877112989978086e+00   3.008891632889466e+00  7.75527790e-01   7.61140530e-01  -1.97613760e-01
C     3.628864622806832e+00   6.267993384436093e+00   2.990730949561576e+00 -9.99588700e-02   5.78922660e-01   1.37157090e-01
C     4.842352880211074e+00   6.981830785094875e+00   3.010590871884548e+00 -5.77666600e-01  -1.16537991e+00  -9.56198000e-02
C     6.050454814685589e+00   6.273074992055777e+00   3.012476203356716e+00 -1.17853199e+00  -2.30014780e-01  -1.31787000e-01
C     7.234154914025663e+00   6.962117352850177e+00   2.996430322826652e+00  1.26416616e+00   4.20777470e-01   1.72773670e-01
C     8.458340762617908e+00   6.271383546033226e+00   3.000501969966431e+00 -9.10846750e-01  -2.38503300e-01  -7.09833200e-02
C     9.644008332514549e+00   6.975220028169793e+00   2.997998151487842e+00  1.26893000e+00  -3.65934190e-01   2.72794800e-02
C     1.087673850507962e+01   6.283894661469440e+00   2.993372414275448e+00 -1.05045738e+00  -4.72606730e-01   6.32517200e-02
C     1.207247882324054e+01   6.977775010324692e+00   2.990897297306324e+00  6.29796770e-01  -1.84016590e-01   6.54158800e-02
