32
Lattice="9.86 0 0 4.93 8.53901048131456 0 0 0 30 " PBC="1 1 1" Properties=species:S:1:pos:R:3:force:R:3 Energy="-253.01822884"
C     1.189977665400000e+00   9.473565897587791e-01   3.874147800000000e+00 -2.37855656e+00  -3.14410010e+00  -8.72137000e-02
C     2.385166291500000e+00   1.564196860302076e+00   3.651507900000000e+00  1.76674354e+00   2.73678289e+00  -5.32712280e-01
C     3.562335668999999e+00   8.787239514653600e-01   3.915386400000000e+00  3.92063542e+00  -1.92447330e+00   1.27269688e+00
C     4.888333611999999e+00   1.516805095967762e+00   4.026186600000000e+00 -1.41297689e+00   3.54812604e+00  -1.57960979e+00
C     6.164989650000000e+00   9.228443354946816e-01   4.216115400000001e+00 -2.22107457e+00  -1.04205320e+00  -6.08526850e-01
C     7.357655792300000e+00   1.635425016220996e+00   4.013418900000000e+00  9.33711490e-01  -1.68524193e+00   6.82266770e-01
C     8.569009740499999e+00   7.990632665271256e-01   3.893907600000000e+00  2.60038449e+00   3.63704238e+00   3.28613320e-01
C     9.834519393599999e+00   1.623675423190621e+00   3.780282900000000e+00 -2.36577680e+00  -2.34095670e-01  -8.75005890e-01
C     2.443687412800000e+00   3.003854302115867e+00   3.301707300000000e+00 -1.54137894e+00  -8.91273840e-01   7.42965570e-01
C     3.632193670400000e+00   3.723733702049961e+00   3.415692300000000e+00  2.30330046e+00  -2.18836761e+00   6.37488400e-01
C     4.927797916899999e+00   2.990552487760437e+00   3.728329200000000e+00 -3.36472857e+00  -1.83689158e+00   2.52785280e-01
C     6.084833519500000e+00   3.692715319530838e+00   3.926136300000000e+00  1.62699123e+00   1.44471098e+00   1.18962334e+00
C     7.325273876100001e+00   3.048871367635694e+00   4.092980400000000e+00  2.40070338e+00  -1.05763383e+00  -1.77735142e+00
C     8.619546776099998e+00   3.759310208363309e+00   3.895170900000000e+00 -1.65716135e+00  -2.81749091e+00   2.68279920e-01
C     9.793055776499999e+00   3.058030139496332e+00   3.528696000000000e+00  1.19222188e+00  -1.20354569e+00   8.31098810e-01
C     1.106780503840000e+01   3.760737333184832e+00   3.282619200000000e+00 -1.32965060e+00  -6.62993410e-01   2.02238864e+00
C     3.644799680400000e+00   5.095379547802544e+00   3.512319600000000e+00  6.80926910e-01   4.77169548e+00   1.46885151e+00
C     4.901814204000000e+00   5.770495917778591e+00   3.934751400000000e+00 -1.62409702e+00   4.64328510e-01  -8.40359340e-01
C     6.091012288500000e+00   5.130359860404178e+00   4.103712300000000e+00  1.66882834e+00  -2.13873106e+00  -1.84315720e-01
C     7.318272043600000e+00   5.796196631521296e+00   4.343467200000000e+00  1.17115461e+00   1.80915406e+00  -5.24073860e-01
C     8.632714756799999e+00   5.083189427221505e+00   4.174729800000000e+00 -3.42799199e+00   3.27429019e+00  -3.26427180e-01
C     9.765029268799999e+00   5.843129765602730e+00   3.988740600000000e+00  3.76692866e+00   5.75328360e-01  -4.25492800e-02
C     1.102894707420000e+01   5.139705721984433e+00   3.631897500000000e+00  1.24005401e+00   3.05389948e+00  -7.18412480e-01
C     1.232048860630000e+01   5.995734264445526e+00   3.601940700000000e+00 -2.79985735e+00  -4.51976251e+00   3.37145720e-01
C     4.969008723599999e+00   7.161673896103126e+00   4.043166900000000e+00 -3.58909404e+00   3.24977827e+00  -9.50681470e-01
C     6.065022067999999e+00   8.018561206848192e+00   4.109715300000000e+00  3.35970674e+00  -5.79901400e-01   6.50212990e-01
C     7.327402206400000e+00   7.303063002411176e+00   4.332659400000000e+00 -1.25540558e+00  -2.31760835e+00  -9.73977850e-01
C     8.543366986399999e+00   7.964408168625709e+00   4.201129500000000e+00  7.70796740e-01   1.92735255e+00  -1.91550000e-01
C     9.811555700099998e+00   7.277161878092506e+00   4.169499600000000e+00  1.06058530e-01   4.47143080e-01   3.13443840e-01
C     1.107396280560000e+01   8.040165074142802e+00   4.229263800000000e+00 -1.69529301e+00  -7.30425470e-01  -1.18331784e+00
C     1.225109905350000e+01   7.385347042149077e+00   3.925248600000000e+00  3.23828384e+00  -3.44337671e+00  -3.02535550e-01
C     1.359253381250000e+01   7.930758404637068e+00   3.907479600000000e+00 -2.08438696e+00   1.47833428e+00   7.00759480e-01
