32
Lattice="9.852 0 0 4.926 8.53208227808429 0 0 0 30 " PBC="1 1 1" Properties=species:S:1:pos:R:3:force:R:3 Energy="-258.07255826"
C     2.590774129349643e-03  -2.192933906079475e-03   2.996392428488061e+00 -3.10668170e-01   1.47081300e-01   5.33500500e-02
C     1.228084540245910e+00   7.103939002680688e-01   2.996304132309011e+00  3.64171530e-01  -1.33613410e-01   3.12937300e-02
C     2.464587067600661e+00  -1.954539679569293e-03   2.998609898492668e+00 -7.32010500e-02   4.69654700e-02  -4.59965400e-02
C     3.698378424285492e+00   7.113078587760621e-01   2.996479470097272e+00 -2.43962800e-01   2.93020000e-03   1.41319100e-02
C     4.926675149244402e+00   1.719738712439863e-03   2.997962077570296e+00 -4.47817000e-03  -2.42771560e-01   6.87843000e-03
C     6.154247782588373e+00   7.139136971400558e-01   3.002730077874655e+00  1.63048600e-01  -1.32546830e-01  -3.92519700e-02
C     7.387542143503647e+00   4.221722036973790e-03   2.999336300768267e+00  2.46914400e-02  -1.82661480e-01   5.19672500e-02
C     8.620806115072748e+00   7.146499492043729e-01   3.003816130821513e+00  5.08652400e-02  -2.92013540e-01  -9.03165600e-02
C     1.232593178198353e+00   2.129442774542719e+00   3.000943772402697e+00 -2.26138410e-01   2.63587500e-01  -6.15732900e-02
C     2.458457270522739e+00   2.846630909076779e+00   2.997546005736785e+00  3.19910210e-01  -2.10528570e-01   5.52813000e-02
C     3.696801163004747e+00   2.133948474172670e+00   2.996825437409206e+00 -2.34650680e-01   4.16495500e-02   1.95162000e-03
C     4.926660611923609e+00   2.844154425707913e+00   2.998430945251278e+00 -7.07174100e-02  -1.65246800e-02   1.90059900e-02
C     6.154655405300898e+00   2.131827860735445e+00   3.001920972231624e+00  2.05653880e-01   2.08842160e-01  -2.71284300e-02
C     7.387744146392756e+00   2.846636462731258e+00   2.997931041812032e+00  8.29267000e-02  -1.86825610e-01   4.13168900e-02
C     8.624492669830106e+00   2.130711176013647e+00   2.997915594233696e+00 -3.45035590e-01   3.08329270e-01   2.75175200e-02
C     9.849580389492383e+00   2.845345242713341e+00   2.997440187587655e+00  2.80314120e-01  -7.00611200e-02   2.46407300e-02
C     2.462282438570512e+00   4.266887827426861e+00   3.004195702915220e+00  1.00673950e-01   8.99733900e-02  -8.34552000e-02
C     3.696428433862744e+00   4.981357505897114e+00   3.000019328632249e+00  4.41211000e-03  -3.51214980e-01   1.77572000e-02
C     4.928141459793535e+00   4.263019895507890e+00   3.000015303871964e+00 -1.75905000e-02   2.88048620e-01   2.61953000e-03
C     6.161467075950533e+00   4.977354383879686e+00   3.002447132365502e+00 -2.65166080e-01   3.56319100e-02  -1.50036500e-02
C     7.389223157282940e+00   4.269147520086181e+00   3.002140131077774e+00  5.37417700e-02  -1.88551990e-01  -1.10816600e-02
C     8.619458732874209e+00   4.978404978654697e+00   3.003142921609964e+00  1.24361590e-01  -1.05474400e-01  -5.55175400e-02
C     9.852867340644288e+00   4.267459735476878e+00   2.998395724081873e+00 -3.16748300e-02  -1.16352700e-02   1.25652400e-02
C     1.108593676829096e+01   4.978132011891130e+00   2.998343579756011e+00 -1.43913590e-01  -2.98765900e-02   4.77902000e-02
C     3.695356828651067e+00   6.398575518481600e+00   2.998593731561110e+00 -1.78407270e-01   1.30168670e-01   2.07821400e-02
C     4.922063497290919e+00   7.111375098916366e+00   3.000032406355986e+00  2.72024880e-01  -9.13334400e-02  -3.03345500e-02
C     6.157730691050096e+00   6.400491921337331e+00   3.000421542920359e+00 -1.91369520e-01  -1.20890930e-01  -3.32840000e-03
C     7.386781374695071e+00   7.105454438921345e+00   2.996735777713011e+00  1.16797360e-01   2.87682880e-01   2.86550100e-02
C     8.617917574867228e+00   6.395790991994331e+00   2.997433592618806e+00  1.56037890e-01   1.41323190e-01   2.07820500e-02
C     9.852664145317110e+00   7.106883016553746e+00   2.997030725845126e+00 -1.53213580e-01   2.07737030e-01   1.64603100e-02
C     1.108321288166129e+01   6.400214573015093e+00   3.000647998518590e+00 -8.84884000e-03  -9.66989600e-02  -3.52163200e-02
C     1.231197270065070e+01   7.108521331561535e+00   2.999199813456156e+00  1.79405220e-01   2.63272220e-01   3.45701000e-03
