32
Lattice="9.86 0 0 4.93 8.53901048131456 0 0 0 30 " PBC="1 1 1" Properties=species:S:1:pos:R:3:force:R:3 Energy="-251.68559736"
C     5.099755035099999e+00   8.466184077489538e+00  -5.737698000000009e-01 -3.50115022e+00  -1.97138693e+00   1.05134752e+00
C     1.357666586800000e+00   5.434711285267264e-01  -4.391117999999992e-01  1.88748658e+00   4.09803931e+00   6.88899880e-01
C     7.569325490199999e+00   8.433601006690060e+00  -6.317799000000015e-01 -2.71962438e+00  -1.26340280e-01   4.10087150e-01
C     3.762699890900000e+00   6.713142047796183e-01  -5.572845000000015e-01  2.32782998e+00  -8.74642240e-01   3.90940820e-01
C     4.984965851800000e+00   3.683746199092960e-02  -4.800944999999999e-01  2.97117504e+00  -4.84424463e+00  -2.90600380e-01
C     6.263546808300000e+00   6.983481996186697e-01  -4.567040999999996e-01 -5.01329640e-01  -2.79611662e+00   6.91675740e-01
C     1.238148374950000e+01   8.399488428333402e+00  -2.806850999999995e-01  1.32158740e+00   4.15512669e+00  -1.27804492e+00
C     8.719056016000000e+00   6.749450774258191e-01  -4.774560000000001e-01  8.83302480e-01  -5.30243156e+00   6.39379280e-01
C     1.324817060100000e+00   2.007723653006271e+00   4.405980000000000e-02  2.77557434e+00  -1.86486620e+00  -2.19723901e+00
C     2.650533746600000e+00   2.684940363390085e+00   1.860030000000000e-01 -3.85566885e+00   1.38408386e+00  -1.12428510e-01
C     3.812141579100000e+00   2.021466678033203e+00  -2.775488999999993e-01 -2.75649136e+00   1.51757626e+00   1.75905443e+00
C     4.928407166300000e+00   2.777934200852211e+00  -2.341917000000002e-01  6.26087991e+00   4.75010500e-02  -1.44871926e+00
C     6.306628254200000e+00   2.080928846021626e+00  -4.753470000000029e-01 -1.42105007e+00   1.86828209e+00   4.87749330e-01
C     7.552165096900000e+00   2.773245088637223e+00  -4.549007999999972e-01 -1.58474625e+00   1.48528516e+00  -6.41888790e-01
C     8.784791502099999e+00   2.028883150195501e+00  -4.523547000000008e-01 -1.37712507e+00   2.37890986e+00   7.53297870e-01
C     9.995603446099999e+00   2.725552153403279e+00  -1.216650000000001e-01 -1.56276500e-02  -1.57816863e+00   5.78150090e-01
C     2.564627412000000e+00   4.133948277849790e+00   4.676682000000000e-01  7.82808650e-01   5.02326570e-01  -1.66886556e+00
C     3.835416651400000e+00   4.925658687842693e+00   3.521748000000000e-01 -3.25487640e-01  -1.30997168e+00  -1.98595648e+00
C     4.997053373700000e+00   4.172967200848046e+00  -1.229820000000004e-01  9.98960520e-01   1.61893700e+00   3.20936850e-01
C     6.289198732199999e+00   4.897960870328926e+00  -5.033984999999994e-01 -3.61442919e+00  -2.24716850e-01   1.15376814e+00
C     7.490598024400001e+00   4.274563237467722e+00  -5.352254999999992e-01  3.01585566e+00  -5.33154876e+00   1.55447983e+00
C     8.773686331999999e+00   4.841247495204120e+00  -2.654034000000003e-01 -7.58646960e-01   4.35055080e-01  -1.35920685e+00
C     9.954502923500000e+00   4.094774115641009e+00   6.692760000000000e-02 -1.36104820e-01   2.81658007e+00  -1.07295859e+00
C     1.115484478000000e+01   4.871664645995347e+00   2.091129000000000e-01  2.08065652e+00  -1.96065586e+00   6.21474150e-01
C     3.841279259499999e+00   6.317038784545288e+00   1.132110000000000e-01  4.62752880e-01   1.89419925e+00  -1.72658274e+00
C     5.148954265900000e+00   6.998542163580167e+00  -4.533392999999997e-01 -6.30945948e+00   1.71429207e+00   1.71075146e+00
C     6.265610210499999e+00   6.293352594155026e+00  -6.078086999999996e-01  4.76361299e+00   6.70151520e-01  -1.47416970e-01
C     7.621357893400000e+00   7.053184401713049e+00  -7.146009000000006e-01 -1.77173103e+00  -3.76442188e+00   4.44635800e-01
C     8.839233985100000e+00   6.219530969973120e+00  -5.284118999999983e-01 -1.30815976e+00   2.71388306e+00   3.64365810e-01
C     1.002390559010000e+01   6.944162158459125e+00  -3.953115000000018e-01 -2.94769320e-01   3.52810925e+00  -2.98102870e-01
C     1.123848927990000e+01   6.259169056621281e+00  -9.845849999999956e-02 -2.14519142e+00   6.20129270e-01   1.09322040e+00
C     1.238017932080000e+01   7.046223400369754e+00   2.038170000000000e-02  3.86431018e+00  -1.49895532e+00  -4.86203610e-01
