32
Lattice="9.692 0 0 4.846 8.39351821347878 0 0 0 30 " PBC="1 1 1" Properties=species:S:1:pos:R:3:force:R:3 Energy="-257.41351539"
C     3.643567877350307e-04   1.321352455952433e-05   3.000917351364043e+00 -5.93931200e-02   1.09235700e-02  -7.97746000e-03
C     1.210729098866075e+00   7.003133118486302e-01   3.000606080221235e+00  3.49740600e-02  -1.21257100e-02  -8.56154000e-03
C     2.423402464340317e+00   1.182170671172656e-03   2.999411134487969e+00 -6.72655700e-02  -3.53061900e-02   1.88435500e-02
C     3.633357085256935e+00   6.997886985399936e-01   3.000841537914880e+00  1.18337790e-01  -4.03058200e-02  -2.46782500e-02
C     4.846572251116656e+00  -1.161084367809383e-03   2.999058914385601e+00 -7.33525200e-02   5.90686700e-02   1.79144100e-02
C     6.057009884626517e+00   6.999128798968480e-01   3.000876219933692e+00  1.09789000e-02  -3.54134100e-02  -1.58808700e-02
C     7.268269791052303e+00   3.808690211690539e-04   3.000483765589048e+00  2.29352900e-02  -3.78683000e-02   2.86013000e-03
C     8.480142346951801e+00   7.001624255306124e-01   3.000760938154058e+00  2.62389800e-02  -8.98727700e-02  -8.44032000e-03
C     1.210766851772349e+00   2.099468583547532e+00   2.999943302735243e+00  1.46303200e-02  -3.55673500e-02   4.82617000e-03
C     2.423403672643159e+00   2.797139913559187e+00   3.000745136282687e+00 -5.13479600e-02   1.62549600e-02  -1.38229500e-02
C     3.634063099470111e+00   2.097880260236397e+00   2.999520047744447e+00  6.51207500e-02   3.94592500e-02   1.48152300e-02
C     4.846794476020590e+00   2.797966693621015e+00   2.999252934352152e+00 -4.61945900e-02  -5.49305100e-02   1.01587800e-02
C     6.058019144082708e+00   2.098718459245241e+00   3.000080452883353e+00 -3.11675700e-02  -2.61662300e-02   3.42242000e-03
C     7.269175735134079e+00   2.796657786231247e+00   3.000473061621432e+00  1.64933700e-02   9.57933800e-02  -1.22192400e-02
C     8.480583979266727e+00   2.097359796789673e+00   2.998821543666726e+00 -5.56160000e-04   8.22324800e-02   2.01062600e-02
C     9.691461737916034e+00   2.799044569032374e+00   2.999335130345761e+00  5.39741000e-03  -8.43314200e-02   7.90904000e-03
C     2.422042952200842e+00   4.195587103526239e+00   2.999616263316916e+00  9.82386200e-02   7.07013000e-02   8.53017000e-03
C     3.635246763896328e+00   4.895534023308912e+00   3.001053047837134e+00 -3.35659900e-02  -1.58352600e-02  -1.34773600e-02
C     4.847183630353655e+00   4.195574300191021e+00   3.000690319372744e+00 -4.52159900e-02   6.41197300e-02  -1.09489800e-02
C     6.057949136048382e+00   4.896256863244725e+00   2.999440561212313e+00  2.28908000e-03   2.81415500e-02   1.13970900e-02
C     7.269399265503734e+00   4.197430579288516e+00   2.999941038003909e+00  2.65883400e-02  -6.90585900e-02   1.78034000e-03
C     8.481681906064091e+00   4.896209860442320e+00   3.000415598018582e+00 -8.55019300e-02   2.52328900e-02  -2.15970000e-04
C     9.691831018238751e+00   4.196179955810103e+00   3.001076287785011e+00  4.11355300e-02   8.28920800e-02  -2.21373200e-02
C     1.090395341914156e+01   4.896605802886191e+00   2.998874198810634e+00 -4.07178500e-02  -6.83640600e-02   1.32204200e-02
C     3.635484219605132e+00   6.294941780023096e+00   2.999941711089045e+00 -1.04981720e-01  -3.88691000e-02   1.77070000e-03
C     4.845117140499291e+00   6.994264725685142e+00   2.999578794598897e+00  6.55074600e-02   5.25930900e-02   1.22089700e-02
C     6.056647147227308e+00   6.295855591170447e+00   3.000056315640829e+00  7.24267800e-02  -2.44451000e-02  -4.19461000e-03
C     7.269955084359758e+00   6.995311880539250e+00   3.000313422643488e+00 -1.16804490e-01   8.52309000e-03  -9.25429000e-03
C     8.479451148687438e+00   6.295834715350894e+00   2.999706637761053e+00  8.10161700e-02  -6.13156100e-02   3.68929000e-03
C     9.691928818043024e+00   6.993578672162734e+00   2.999160228068432e+00 -1.47425200e-02   5.06829200e-02  -2.50085000e-03
C     1.090320241729511e+01   6.294778247153448e+00   2.998903604845337e+00  2.05232700e-02  -5.05812000e-03   1.58568000e-03
C     1.211436353892646e+01   6.993862997338951e+00   2.999724869911822e+00  4.79758700e-02   4.82146000e-02  -7.28640000e-04
