32
Lattice="9.86 0 0 4.93 8.53901048131456 0 0 0 30 " PBC="1 1 1" Properties=species:S:1:pos:R:3:force:R:3 Energy="-253.31190702"
C     5.096848405699999e+00   8.392128655200690e+00   3.143610000000000e-02 -6.98619938e+00  -4.41713520e+00  -4.25795050e-01
C     1.302637236600000e+00   5.326621075007232e-01   1.383876000000000e-01  2.35830286e+00   8.87459200e-02  -5.69801080e-01
C     7.436063301099999e+00   8.288568219220089e+00   9.726600000000001e-02  2.19756830e+00   8.91511790e-01  -1.15950080e-01
C     3.787814543400000e+00   4.078414140072272e-01  -9.881070000000136e-02 -3.10916081e+00   2.23570188e+00   6.19164270e-01
C     9.900359888699999e+00   8.239455929664159e+00  -1.105973999999996e-01  5.16512360e-01   1.11793122e+00  -2.96215200e-02
C     6.187505009299999e+00   4.101801635875944e-01   3.630600000000000e-03  6.43114310e-01   5.40257830e-01  -1.00068535e+00
C     1.233000759820000e+01   8.197480118116889e+00  -1.536764999999995e-01  2.54746110e+00   2.30119247e+00   6.23807890e-01
C     8.681281468600000e+00   4.601539539108512e-01   4.260900000000000e-03 -1.62661280e-01  -4.13594080e-01  -2.37412740e-01
C     1.293323234100000e+00   1.945110333980414e+00  -7.386120000000318e-02 -1.02581490e+00  -1.13322093e+00  -1.15685100e-02
C     2.490232726000000e+00   2.545657830967451e+00  -3.355557000000005e-01  1.80319915e+00   2.03055098e+00  -1.31697573e+00
C     3.753801536700000e+00   1.857124711554913e+00  -2.815148999999977e-01 -9.32575680e-01  -1.05170913e+00   1.41805230e-01
C     4.940226791999999e+00   2.590331030535248e+00  -3.356744999999997e-01  1.22249103e+00   4.30951910e-01   1.65616962e+00
C     6.149209952500000e+00   1.876002243583468e+00   5.443949999999999e-02 -1.09726080e-01  -4.32074820e-01  -1.47592560e+00
C     7.364423301900000e+00   2.594034313990319e+00   9.849960000000001e-02  1.93818814e+00  -1.42627073e+00   3.66511800e-02
C     8.600358525899999e+00   1.867578509744948e+00   5.128590000000000e-02  2.47881613e+00   1.35726608e+00  -2.18511910e-01
C     9.970472080899999e+00   2.687758493018799e+00  -1.463228999999977e-01 -3.67233419e+00  -3.11065478e+00   6.54927130e-01
C     2.433418617200000e+00   3.926800764175889e+00  -7.262610000000009e-01  2.37279254e+00   3.00816560e+00   1.10016997e+00
C     3.731151539099999e+00   4.760280000102026e+00  -5.833712999999996e-01 -8.23178000e-02  -5.54278237e+00  -1.28376530e-01
C     4.937795956900001e+00   4.040663260130297e+00  -3.665939999999992e-01  3.37872009e+00  -6.14300940e-01   5.83104370e-01
C     6.305241050799999e+00   4.746513151235856e+00  -6.287370000000081e-02 -4.32657686e+00   2.91273770e-01  -2.76087000e-01
C     7.511039579200000e+00   3.988215547690774e+00   1.125804000000000e-01 -3.24036329e+00   8.27121320e-01  -6.20344110e-01
C     8.701003391299999e+00   4.685757323159713e+00  -1.072110000000137e-02  3.33044630e-01   2.19478969e+00  -1.11918192e+00
C     9.900402927600000e+00   4.057196577611777e+00  -3.893151000000010e-01  6.49394630e-01  -2.42215490e-01   5.77312260e-01
C     1.110918765560000e+01   4.743893041260173e+00  -7.389752999999999e-01 -3.66330160e-01  -8.58167100e-01   1.15786220e+00
C     3.805324128600000e+00   6.066326691034210e+00  -3.643419000000030e-01 -2.32853938e+00   6.16292015e+00  -6.20489950e-01
C     4.985514856599999e+00   6.857905771045929e+00  -1.001048999999981e-01 -3.74267090e-01   2.40415634e+00   1.70599730e-01
C     6.176726500999999e+00   6.229517257339376e+00   1.789470000000000e-02  3.39314393e+00  -4.22828374e+00   4.62715930e-01
C     7.454910493900000e+00   6.874397759716688e+00   1.655082000000000e-01 -1.71659778e+00   5.56817860e-01  -7.93479890e-01
C     8.627735407500001e+00   6.123144327476977e+00  -3.783209999999926e-02  1.86401568e+00   4.51619340e-01  -2.22863320e-01
C     9.848985640500000e+00   6.877140319102653e+00  -2.763510000000018e-01  1.35706105e+00  -3.29649922e+00  -3.02255150e-01
C     1.110555799240000e+01   6.174348759990611e+00  -6.174293999999989e-01  4.59395410e-01  -2.24504150e-01   7.19060120e-01
C     1.239817761690000e+01   6.822614809243033e+00  -4.889765999999973e-01 -1.07975667e+00   1.00438510e-01   9.81975520e-01
