32
Lattice="9.86 0 0 4.93 8.53901048131456 0 0 0 30 " PBC="1 1 1" Properties=species:S:1:pos:R:3:force:R:3 Energy="-256.69156648"
C     1.260909519400000e+00   7.271151866346368e-01   3.583406400000000e+00 -1.58610763e+00   4.92016130e-01  -4.71604280e-01
C     2.470939565400000e+00   1.419517587865978e+00   3.589662600000000e+00 -5.59454000e-01   8.15511290e-01   1.92584060e-01
C     3.661667379600000e+00   7.526458032885792e-01   3.488921400000000e+00  3.01097500e+00  -6.99125450e-01  -2.89156690e-01
C     4.906657238799999e+00   1.496876411749118e+00   3.467017200000000e+00 -2.15619970e-01  -1.06029528e+00   4.94238530e-01
C     6.116356531099999e+00   7.087304409008824e-01   3.467533500000000e+00 -1.80265700e-01   2.52760452e+00  -6.37898810e-01
C     7.323687204899999e+00   1.427728614953441e+00   3.421851000000000e+00  3.34148497e+00  -3.06526450e-01   7.64749990e-01
C     8.621723765499999e+00   7.055141372134857e-01   3.481751700000000e+00  4.19852400e-02   2.33832060e+00  -2.27729720e-01
C     9.908650916199999e+00   1.462681944281958e+00   3.557892300000000e+00 -3.20223454e+00  -1.11573610e+00  -2.24562770e-01
C     2.463073947600000e+00   2.824742579990531e+00   3.675755400000000e+00  3.41438920e-01   1.98541315e+00   3.60101600e-02
C     3.660740145200000e+00   3.625847096972901e+00   3.645221700000000e+00  1.76114773e+00  -1.42477966e+00  -3.61585580e-01
C     4.953802631600000e+00   2.933963526018325e+00   3.548622900000000e+00 -2.27387841e+00  -2.00362510e+00   2.18175480e-01
C     6.187356813499999e+00   3.566951406939721e+00   3.547502700000000e+00 -5.61695970e-01   1.27178468e+00  -8.83012950e-01
C     7.401122616300000e+00   2.842628989072673e+00   3.466786200000000e+00 -5.11413510e-01   1.18438980e+00   3.41019210e-01
C     8.610489182899999e+00   3.628825759998639e+00   3.523616700000000e+00  3.11445250e-01  -2.19371284e+00  -8.39988720e-01
C     9.823996308599998e+00   2.878482330105783e+00   3.555319800000000e+00  1.62261649e+00   4.86413300e-02   8.37890030e-01
C     1.109853417210000e+01   3.538971289739485e+00   3.702155400000000e+00 -1.35346599e+00   1.05397025e+00  -8.80652090e-01
C     3.707267266700000e+00   5.040183640230138e+00   3.599660100000000e+00 -1.05959000e+00  -5.41996880e-01   2.22774900e-02
C     4.945326630500000e+00   5.725110991687288e+00   3.504669600000000e+00 -1.36445209e+00   5.36313120e-01  -7.72036000e-03
C     6.122704990699999e+00   4.998401920391079e+00   3.448525500000000e+00  2.08055764e+00  -4.74106370e-01   7.37054600e-01
C     7.345083996500000e+00   5.699281851226965e+00   3.430047900000000e+00  1.29507936e+00   2.00818395e+00  -8.33377160e-01
C     8.619230319400000e+00   5.036044184119748e+00   3.405190500000000e+00 -1.30350483e+00  -3.11816840e-01   1.13787440e+00
C     9.836960187300001e+00   5.732915134925379e+00   3.501982500000000e+00  1.43080548e+00  -4.58771500e-01  -4.12519780e-01
C     1.106169888830000e+01   4.969198846109898e+00   3.630213600000000e+00  1.57907698e+00   1.34073724e+00  -1.55748040e-01
C     1.233635028970000e+01   5.726965152422914e+00   3.586486800000000e+00 -1.97295797e+00   4.45175450e-01   2.58819230e-01
C     4.917414498799999e+00   7.149270471040298e+00   3.485042400000000e+00 -1.05379800e-02  -3.94414800e-01  -1.64838800e-01
C     6.130847970300000e+00   7.864577828593085e+00   3.460107000000000e+00  1.30503351e+00  -3.75892960e-01   1.83269190e-01
C     7.374111097000000e+00   7.159651346080834e+00   3.386572500000000e+00  7.38295790e-01  -1.09833333e+00   5.15355090e-01
C     8.660925449299999e+00   7.861023380090680e+00   3.409025100000000e+00 -1.72147830e+00  -4.28085500e-02  -1.32796910e-01
C     9.902277954499999e+00   7.157333602466247e+00   3.402701700000000e+00 -2.10490545e+00  -9.83871480e-01   4.53374890e-01
C     1.109812695410000e+01   7.858661319011703e+00   3.444950100000000e+00 -5.05148310e-01  -6.86024800e-02   2.87988770e-01
C     1.230276998910000e+01   7.179904256527402e+00   3.527754900000000e+00  9.91188620e-01  -2.38786638e+00  -3.83391920e-01
C     1.353723636890000e+01   7.852664884292229e+00   3.475581300000000e+00  6.35579660e-01  -1.05779070e-01   4.25903480e-01
