32
Lattice="9.86 0 0 4.93 8.53901048131456 0 0 0 30 " PBC="1 1 1" Properties=species:S:1:pos:R:3:force:R:3 Energy="-254.64928743"
C     5.029388208399999e+00   7.683072024099473e+00  -7.106600999999984e-01 -2.11486313e+00  -2.27487021e+00   6.44322300e-01
C     6.196644785600000e+00   8.421123292236054e+00  -6.801047999999987e-01  2.33231075e+00  -1.82901270e-01   1.02851812e+00
C     7.438619999100000e+00   7.640424192427426e+00  -6.957276000000014e-01 -3.63294740e-01   2.77134669e+00   5.07024500e-01
C     8.670525786199999e+00   8.363544403008994e+00  -5.188763999999999e-01 -1.07935380e-01  -1.65602371e+00  -7.80393800e-02
C     9.892065311600000e+00   7.609688792715610e+00  -4.338596999999993e-01  8.61274410e-01   4.08177280e+00  -7.42002010e-01
C     1.113770459970000e+01   8.348627007870750e+00  -5.772882000000017e-01  4.40290450e-01   1.35318820e-01   8.96122290e-01
C     1.238763530490000e+01   7.660772483621057e+00  -4.621463999999982e-01 -3.45030310e-01  -9.28412800e-02  -1.79340760e-01
C     1.362308093060000e+01   8.351869526320320e+00  -5.999709000000024e-01  5.77994670e-01  -1.34990961e+00  -3.12658020e-01
C     1.296486568600000e+00   1.300001156902448e+00  -3.002375999999991e-01  1.08627747e+00  -1.41920292e+00  -1.33245852e+00
C     2.580874374900000e+00   1.959968553776033e+00  -1.533828000000028e-01 -1.96974723e+00   9.97434140e-01   8.64299870e-01
C     3.780638188900000e+00   1.218962104892532e+00  -3.392492999999988e-01 -8.14368720e-01   3.87355920e-01  -3.98254800e-02
C     4.989262445400000e+00   1.905010713815810e+00  -3.921770999999978e-01  1.75877955e+00   2.62279529e+00  -1.28553785e+00
C     6.236000433299999e+00   1.238833577740959e+00  -6.660971999999994e-01  5.64367410e-01   8.10913040e-01   1.68739263e+00
C     7.537696878000000e+00   2.007721176693232e+00  -5.600093999999984e-01 -3.18312807e+00  -1.78267079e+00  -1.51631071e+00
C     8.729185834899999e+00   1.180740640083004e+00  -5.973986999999994e-01 -3.44728880e-01   5.13722265e+00   9.69414430e-01
C     9.931332613699999e+00   1.972390593881708e+00  -3.565326000000013e-01  4.66604790e-01   7.98352050e-01   9.81616400e-01
C     2.563069975700000e+00   3.393269470798407e+00   1.419987000000000e-01 -8.72006570e-01  -6.45656200e-02  -1.71960771e+00
C     3.784502815900000e+00   4.097125076006362e+00  -1.373870999999980e-01 -1.55958577e+00  -2.03639090e-01  -4.54019910e-01
C     4.968615309600001e+00   3.406640280358515e+00  -4.413666000000021e-01 -3.61885380e-01  -2.86665110e+00   1.11696041e+00
C     6.139176909500000e+00   4.111684601215392e+00  -6.001946999999994e-01  3.68699568e+00  -2.52399260e-01  -8.65140820e-01
C     7.427032083399999e+00   3.447768424335435e+00  -6.395562000000012e-01  2.03736526e+00  -2.19308085e+00   1.27575754e+00
C     8.720160681099999e+00   4.113709371380408e+00  -4.457397000000007e-01 -1.50120272e+00   1.79057594e+00  -3.25151180e-01
C     9.957220438099998e+00   3.438079977654722e+00  -8.751120000000157e-02 -2.40711590e+00  -1.43531150e+00  -1.87126609e+00
C     1.114104092790000e+01   4.175686021784878e+00   1.014054000000000e-01  1.65063763e+00  -1.28278421e+00  -4.69662810e-01
C     3.710668177900000e+00   5.469684083539677e+00  -3.908720999999993e-01  2.32637754e+00   2.96348220e+00   1.03407552e+00
C     5.030345663699999e+00   6.190226964588066e+00  -6.347240999999997e-01 -2.88045765e+00   1.99168405e+00  -2.22446210e-01
C     6.237832470600001e+00   5.515408008347037e+00  -7.234452000000005e-01 -1.56926848e+00  -1.78966240e-01   4.40489600e-01
C     7.437703117700000e+00   6.251066560357018e+00  -7.336973999999969e-01  9.10625560e-01  -7.89113810e-01  -2.33558370e-01
C     8.664822269199998e+00   5.566231174042739e+00  -5.975438999999980e-01  2.11298929e+00  -1.75474697e+00   2.13413005e+00
C     9.916803952999999e+00   6.264398773589757e+00  -2.734365000000025e-01 -2.39748588e+00  -1.63383624e+00  -1.39548361e+00
C     1.112437363320000e+01   5.611356599605557e+00  -8.634869999999850e-02  1.24246903e+00  -2.30591688e+00   8.51938190e-01
C     1.237484121540000e+01   6.272819945725133e+00  -1.801113000000001e-01  7.36745300e-01  -7.68822040e-01  -1.38955238e+00
