26
Lattice="8.88768389401873 1.33226762955019e-15 0 4.44384194700937 7.69696003302603 0 0 0 30 " PBC="1 1 1" Properties=species:S:1:pos:R:3:force:R:3 Energy="-207.74757768"
C     3.568517513815688e-01   4.278708523140877e-01   3.624680700000000e+00 -7.96128870e-01  -1.58243879e+00   2.08294254e+00
C     7.145652702989024e+00   7.486346881185504e+00   3.994684500000000e+00 -1.28044810e-01   1.76368665e+00   8.96302900e-02
C     4.069169943448616e+00   2.091738942584851e-01   4.019593500000000e+00  9.06616660e-01  -2.89443860e-01  -8.82427960e-01
C     9.540933104218610e+00   6.868250356875586e+00   3.929428500000000e+00 -1.73363110e-01   3.04164208e+00   8.19470340e-01
C     1.092339269182068e+01   7.320775572770567e+00   3.761621100000000e+00 -1.67826474e+00  -1.10874444e+00   2.53702900e-02
C     1.192648540222396e+01   6.333895526178462e+00   3.664709100000000e+00  1.06473338e+00  -3.71484590e-01   3.86596180e-01
C     4.406380450638570e+00   6.708794283204483e+00   3.594108900000000e+00  1.24957884e+00   1.04659336e+00  -3.94877200e-01
C     5.451932471053373e+00   5.737537064263670e+00   3.577216800000000e+00 -1.61447530e-01  -6.11563940e-01   9.57405960e-01
C     6.814427209906553e+00   6.124506655826338e+00   3.817194900000000e+00 -8.06359600e-02  -5.03765590e-01   8.34253490e-01
C     7.824800488750270e+00   5.121995391896507e+00   4.049605799999999e+00 -1.57552714e+00   7.55825420e-01  -1.60263915e+00
C     9.176407859289101e+00   5.528180521143672e+00   4.132879500000000e+00  1.04267079e+00  -4.67649600e-01  -1.57847093e+00
C     1.021075406567241e+01   4.570950473070331e+00   3.936766200000000e+00  1.50319202e+00  -7.09811340e-01   1.63943365e+00
C     1.162872141683590e+01   4.951168522203486e+00   3.813409500000000e+00 -2.09286802e+00  -8.98601200e-02  -4.46207590e-01
C     3.741055765177535e+00   3.945824930921816e+00   3.750779700000000e+00  6.21044450e-01   1.21044463e+00  -8.56315800e-02
C     5.123354263465959e+00   4.331948549607588e+00   3.619786800000000e+00 -9.72160650e-01   1.01412546e+00  -1.26894750e-01
C     6.135754956336668e+00   3.354720183014701e+00   3.611531100000000e+00 -1.62032960e+00   4.21387590e-01   1.46912280e-01
C     7.445330603355487e+00   3.775396686788747e+00   3.779259900000000e+00  2.73157950e+00  -7.95027270e-01   1.19155398e+00
C     8.482975073655222e+00   2.797279013433994e+00   3.887754600000000e+00  1.34059901e+00  -1.37466003e+00   7.01928500e-02
C     9.895117125730783e+00   3.181369172249440e+00   4.082199300000000e+00 -1.48500256e+00   4.89523640e-01  -2.54855687e+00
C     2.027261010529363e+00   2.217000116778674e+00   3.867090300000001e+00 -2.80275750e-01  -1.23443855e+00   2.59237767e+00
C     3.396236204084310e+00   2.593769542970387e+00   3.881024400000000e+00 -4.99595310e-01  -1.92218210e-01  -6.46514810e-01
C     4.420234746739794e+00   1.628516183761774e+00   3.846776400000000e+00 -1.38579242e+00  -2.28743913e+00   2.74921870e-01
C     5.733693778325517e+00   1.999941841513459e+00   3.648992700000000e+00  3.13143833e+00  -1.14489484e+00   6.81866770e-01
C     6.799630057222925e+00   9.879438434378519e-01   3.703147200000000e+00  1.69800940e-01   8.96956980e-01  -4.95367940e-01
C     8.209523614144517e+00   1.361817519327078e+00   3.716754600000000e+00 -1.93453709e+00   2.51836278e+00  -1.61270910e-01
C     1.668923104453873e+00   8.158413565590581e-01   4.018520400000000e+00  1.10271961e+00  -3.95108290e-01  -2.82406845e+00
