32
Lattice="9.86 0 0 4.93 8.53901048131456 0 0 0 30 " PBC="1 1 1" Properties=species:S:1:pos:R:3:force:R:3 Energy="-254.58135077"
C     4.958381221199999e+00   7.609898340032788e+00  -7.104390000000009e-01  2.20919275e+00   1.86218199e+00   4.26391240e-01
C     6.280694235700000e+00   8.374761844906256e+00  -5.945588999999991e-01 -3.97735356e+00   3.96377620e-01  -5.33953170e-01
C     7.445375479499999e+00   7.700337134779089e+00  -7.250597999999968e-01  6.32519280e-01  -4.65066857e+00  -1.28710050e-01
C     8.636509427100000e+00   8.356590318264187e+00  -6.418827000000000e-01  2.10048138e+00   2.56836451e+00   1.18069909e+00
C     9.873443567699999e+00   7.776810975616082e+00  -3.346698000000004e-01  7.32053240e-01  -4.95271063e+00  -1.73766651e+00
C     1.112118648680000e+01   8.365549704230119e+00  -5.558678999999991e-01  1.20822849e+00   1.73390270e+00   1.05347519e+00
C     1.234869698170000e+01   7.623642133570663e+00  -5.280669000000024e-01  1.83698280e-01  -2.45090930e-01   3.30042210e-01
C     1.361044031200000e+01   8.316484891572458e+00  -6.205844999999997e-01 -3.37826880e-01   2.29859889e+00  -2.44376280e-01
C     1.380901972600000e+00   1.244560948240210e+00  -3.347382000000003e-01 -2.64182069e+00   2.15902290e-01   8.72201000e-02
C     2.573226268700000e+00   1.959875649342010e+00  -1.391033999999998e-01  4.41389740e-01  -1.22213500e+00  -1.65778209e+00
C     3.776441970100000e+00   1.221658724402116e+00  -5.034492000000022e-01 -6.40034590e-01   2.16690547e+00   1.94771384e+00
C     5.022851324199999e+00   1.960221393876346e+00  -3.946472999999990e-01 -1.14590138e+00  -2.19202077e+00  -1.24272954e+00
C     6.249926746600000e+00   1.281573630726189e+00  -5.952270000000013e-01 -1.23804724e+00  -2.19828102e+00   1.28730690e-01
C     7.444817699300000e+00   1.953693064194071e+00  -6.593871000000000e-01  3.05796645e+00   6.99043560e-01   2.95145510e-01
C     8.738697678299999e+00   1.296015573760908e+00  -6.044711999999990e-01 -1.04888927e+00  -2.81412322e+00   2.52805830e-01
C     9.961984395699998e+00   1.980817743324420e+00  -3.556632000000022e-01 -6.54349240e-01  -1.51244740e-01   6.89142070e-01
C     2.500960849700000e+00   3.369517017686820e+00   1.558110000000000e-02  2.30510403e+00  -2.01871200e-01  -4.46670260e-01
C     3.715971822600000e+00   4.088869816844613e+00  -2.030574000000023e-01  1.50197388e+00  -1.49563010e-01  -3.26585670e-01
C     4.942033982100000e+00   3.324697459479396e+00  -3.924437999999988e-01  1.27663975e+00   3.84866388e+00  -4.58584880e-01
C     6.203435762000000e+00   4.074663123548618e+00  -6.718836000000010e-01 -1.70912730e-01  -4.88340440e-01   7.35775870e-01
C     7.462823883399999e+00   3.359252870919545e+00  -6.702687000000012e-01 -4.22450500e-01   2.04609308e+00   4.65417020e-01
C     8.699450293400000e+00   4.135541486425149e+00  -4.689399000000023e-01 -4.46133370e-01  -2.56026806e+00   1.13513340e-01
C     9.865919549599999e+00   3.411356034286200e+00  -7.754279999999980e-02  1.84709035e+00  -1.43140943e+00  -1.75797351e+00
C     1.116732965990000e+01   4.052681405040268e+00   4.808940000000000e-02 -3.51822864e+00   1.24009317e+00  -2.96038600e-01
C     3.769756692900000e+00   5.524122837052820e+00  -3.782223000000009e-01 -4.94539660e-01  -1.23578650e+00  -3.41854910e-01
C     4.985818889700000e+00   6.211493882529135e+00  -7.478484000000023e-01 -5.06328200e-02  -5.66684500e-01   1.39997368e+00
C     6.241597117200000e+00   5.511548717170496e+00  -7.526976000000012e-01 -3.18955850e-01  -9.16695790e-01  -3.33534180e-01
C     7.494518705499999e+00   6.189549479496583e+00  -7.893006000000007e-01 -1.51394926e+00   2.33665582e+00   1.64209460e-01
C     8.718929758700000e+00   5.518419119612600e+00  -6.058863000000017e-01 -4.50913600e-02   1.92986615e+00   1.44150603e+00
C     9.885330438599999e+00   6.302978876839444e+00  -2.528958000000010e-01  1.10476703e+00  -1.79723552e+00  -7.09621280e-01
C     1.111980958710000e+01   5.453607517728771e+00  -1.059419999999989e-01  6.94115210e-01   3.57240969e+00  -4.83214300e-02
C     1.237507677080000e+01   6.190177694497597e+00  -2.807432999999975e-01 -6.30102820e-01   8.59070510e-01  -4.47358850e-01
