32
Lattice="9.86 0 0 4.93 8.53901048131456 0 0 0 30 " PBC="1 1 1" Properties=species:S:1:pos:R:3:force:R:3 Energy="-257.01151468"
C     4.961341686200000e+00   8.172363301910808e+00  -1.243881000000009e-01  3.04286230e-01  -5.19035950e-01  -2.47324500e-01
C     1.266958580100000e+00   3.253527795782264e-01  -1.440401999999992e-01  1.48109400e-02   1.55757548e+00   9.32745110e-01
C     7.435400314700000e+00   8.164115044737652e+00  -1.920684000000001e-01  9.74908600e-02   1.47063958e+00   2.99380100e-01
C     3.735017645100000e+00   3.818875186037912e-01  -6.632339999999814e-02 -7.65337430e-01  -1.78653772e+00  -3.89399290e-01
C     9.875693274600000e+00   8.175380475873812e+00  -5.540069999999986e-02  1.32956178e+00  -7.13112880e-01   4.32754640e-01
C     6.209211750000000e+00   3.301833831968672e-01  -4.751279999999980e-02 -1.48402258e+00   8.75395460e-01   4.48693700e-02
C     1.236090726060000e+01   8.193306932915103e+00  -2.323349999999991e-02  2.28345180e-01  -5.42712440e-01  -1.17200080e-01
C     8.671960761299999e+00   3.649439016687464e-01  -1.251138000000012e-01 -3.33022720e-01  -1.20878386e+00   2.80985490e-01
C     1.255969166400000e+00   1.774545734395033e+00   1.206219000000000e-01  5.03547130e-01  -5.41122190e-01  -1.49759975e+00
C     2.500312406800000e+00   2.511783747173501e+00   1.626654000000000e-01 -7.48531630e-01  -7.85729290e-01   4.62053260e-01
C     3.705612117800000e+00   1.780457803690966e+00   3.209760000000000e-02  1.15930205e+00   6.33681720e-01   2.92363610e-01
C     4.963834195600000e+00   2.477871920953229e+00   1.087770000000000e-02 -3.55106800e-01  -4.19056760e-01  -5.21814000e-02
C     6.193520595299999e+00   1.755524661600310e+00  -6.369240000000076e-02  2.89989680e-01   4.13489330e-01  -5.78569760e-01
C     7.433948528300000e+00   2.469263488318026e+00  -1.755890999999998e-01 -9.86209600e-01   1.03391226e+00   3.38629160e-01
C     8.654462367200001e+00   1.763070841331800e+00  -1.646840999999988e-01  7.58825590e-01   1.11205729e+00   5.74342980e-01
C     9.888679782000001e+00   2.493055989388765e+00   1.638870000000000e-02  1.94195500e-02  -8.11907400e-01   4.63553000e-03
C     2.511160378800000e+00   3.928586271267258e+00   3.388563000000000e-01  6.45191660e-01  -8.19338410e-01  -7.31311110e-01
C     3.763756784300000e+00   4.632481582873945e+00   2.664147000000000e-01 -8.53697460e-01   5.45406100e-02  -9.58447900e-01
C     4.948400633400000e+00   3.887261900829507e+00   1.724430000000000e-02  1.06668325e+00   1.46696607e+00   1.48109070e-01
C     6.183255398600000e+00   4.642760245959035e+00  -1.895670000000003e-01 -4.09137730e-01  -1.88884562e+00   6.74166980e-01
C     7.411371001700000e+00   3.930222260285121e+00  -1.819068000000001e-01  5.50330410e-01  -1.28524931e+00   6.53752400e-02
C     8.640012783700000e+00   4.631462878923680e+00  -5.735639999999975e-02  1.12563137e+00  -7.25751490e-01  -8.59143100e-02
C     9.907600727599998e+00   3.899313347880350e+00   8.190330000000000e-02 -1.15082845e+00   7.77395240e-01   5.41178400e-02
C     1.114270707070000e+01   4.599136405389125e+00   2.537136000000000e-01 -7.23179950e-01   3.20628010e-01   1.44818690e-01
C     3.757068943499999e+00   6.063883594745777e+00   1.209546000000000e-01 -1.59223433e+00  -6.07699940e-01   2.26111620e-01
C     4.974872021900000e+00   6.721060699164812e+00  -8.760089999999821e-02 -5.51562870e-01   2.06426778e+00  -9.92411300e-02
C     6.190172533699999e+00   6.033570619882405e+00  -2.080130999999987e-01  8.68193690e-01   9.30829560e-01  -4.99135100e-02
C     7.438815029900000e+00   6.773163691751257e+00  -2.599388999999981e-01 -1.79135690e-01  -1.43656509e+00   7.67638500e-01
C     8.660274048400000e+00   6.046644442658018e+00  -7.011689999999859e-02 -2.12607870e-01  -1.85028250e-01  -4.87485090e-01
C     9.902605355799999e+00   6.713031553000572e+00   3.281490000000000e-02 -4.79829750e-01   1.65548494e+00  -2.42047900e-02
C     1.113169276050000e+01   6.009767274268357e+00   2.149347000000000e-01 -2.80815820e-01   1.62313431e+00  -6.55308390e-01
C     1.232664627490000e+01   6.789465004317996e+00   1.248540000000000e-01  2.14365129e+00  -1.71352106e+00   2.31003840e-01
