32
Lattice="9.86 0 0 4.93 8.53901048131456 0 0 0 30 " PBC="1 1 1" Properties=species:S:1:pos:R:3:force:R:3 Energy="-253.61874324"
C     1.195284218800000e+00   9.099418906594017e-01   4.029545100000000e+00 -3.44800922e+00  -1.24950708e+00  -1.41809170e-01
C     2.352775994300000e+00   1.603368716978028e+00   4.038713700000000e+00  3.74665178e+00  -3.78331110e-01   9.09972250e-01
C     3.641212908200000e+00   9.296419001773905e-01   3.954946200000000e+00 -1.61597518e+00  -1.89446003e+00  -1.00209659e+00
C     4.805770113199999e+00   1.689351514495445e+00   3.948423000000000e+00  1.46110473e+00  -7.16196640e-01   1.70248000e-03
C     6.033122305800000e+00   9.436733729783361e-01   3.773816700000000e+00  2.74749094e+00   1.42133470e+00   7.64397400e-02
C     7.358657025999999e+00   1.558178138765248e+00   3.847212300000000e+00 -5.61081080e-01   4.03780637e+00   2.86534900e-02
C     8.617475683100000e+00   9.786813519739256e-01   3.998906400000000e+00 -1.78956376e+00  -4.01533988e+00  -7.19847450e-01
C     9.813105297700000e+00   1.666432212636391e+00   4.111853400000000e+00  9.75774940e-01   6.40663250e-01   1.05608500e-02
C     2.356030287300000e+00   2.953544757900536e+00   4.311156000000000e+00  1.91422432e+00   3.75307022e+00  -6.39219800e-02
C     3.615718349900000e+00   3.763529504221687e+00   4.346189700000000e+00 -8.25696840e-01   1.45232965e+00  -8.91062230e-01
C     4.809224367000000e+00   3.109571350583297e+00   4.103454300000000e+00  3.42364801e+00  -1.58362284e+00  -1.15196149e+00
C     6.207897806400000e+00   3.731443233051934e+00   3.785216100000000e+00 -3.76805599e+00  -3.34836578e+00   1.20361138e+00
C     7.466986479600001e+00   3.042402640246570e+00   3.789552599999999e+00 -4.36709261e+00  -2.62097113e+00   7.85533150e-01
C     8.567891320699999e+00   3.783458700780959e+00   4.034233200000000e+00  2.61464439e+00   2.47022310e+00  -7.88465470e-01
C     9.819922403100000e+00   3.129659628907812e+00   4.179661200000000e+00 -1.67992347e+00  -3.47017425e+00  -1.06924050e-01
C     1.103308245680000e+01   3.720260032586697e+00   4.293543600000000e+00  8.40975120e-01   3.40501214e+00  -6.80998400e-01
C     3.650203502700000e+00   5.271325944133049e+00   4.252727100000000e+00 -1.74900147e+00  -2.09379422e+00  -7.14206600e-01
C     4.872023988800000e+00   5.896932533615323e+00   3.921966000000000e+00 -3.95858110e-01  -2.42978001e+00   1.25903260e-01
C     6.105855236700000e+00   5.036566344610601e+00   3.701796900000000e+00 -4.24965710e-01   7.22575551e+00   8.28940400e-01
C     7.303604258300000e+00   5.844164266722382e+00   3.692877900000000e+00 -1.69254500e-02   8.24322110e-01  -4.49498200e-01
C     8.534309097400000e+00   5.256964609357261e+00   3.887580900000000e+00  2.07465446e+00  -2.14412560e+00  -5.63793200e-02
C     9.824830119500000e+00   5.949625657216041e+00   3.869862000000000e+00 -3.14993090e-01  -1.59008382e+00   2.36667490e-01
C     1.101811349780000e+01   5.193085808978267e+00   4.069485600000000e+00  5.42801360e-01  -1.92524730e-01   1.10116006e+00
C     1.220925439670000e+01   5.984197036605788e+00   4.130897700000000e+00  1.94977218e+00  -2.56986412e+00  -8.19119250e-01
C     4.800034699099999e+00   7.303606510428228e+00   3.887845200000000e+00  3.83517963e+00   8.18197650e-01   3.05048020e-01
C     6.092101522699999e+00   8.029280482874050e+00   3.903653400000000e+00  1.57223110e-01  -1.10220744e+00  -1.29183209e+00
C     7.326837080500000e+00   7.262253619695474e+00   3.648589200000000e+00  1.37800660e-01   2.53059134e+00   1.53109876e+00
C     8.624806642399999e+00   8.005559538711134e+00   3.723364500000000e+00 -1.17362561e+00   9.80417590e-01   4.60087390e-01
C     9.933563783800000e+00   7.357002394591450e+00   3.726885300000000e+00 -5.43022304e+00  -1.14563423e+00  -2.25168510e-01
C     1.106622640310000e+01   8.095059383865054e+00   3.674564100000000e+00  3.56001170e-01  -3.16859590e-01   4.42356490e-01
C     1.225636108900000e+01   7.330391251551368e+00   3.773516400000000e+00  5.90200880e-01   1.93317367e+00   1.26795709e+00
C     1.348534101970000e+01   8.028171265412698e+00   3.916867800000000e+00  1.92842960e-01   1.36894518e+00  -2.12401480e-01
