26
Lattice="8.88768389401873 1.33226762955019e-15 0 4.44384194700937 7.69696003302603 0 0 0 30 " PBC="1 1 1" Properties=species:S:1:pos:R:3:force:R:3 Energy="-209.06947483"
C     1.263017230732486e+01   6.936366451931478e+00  -2.319275999999988e-01  5.65815640e-01  -1.80536345e+00   1.35488800e-02
C     8.882418874827518e+00   6.658692846129205e+00  -3.742079999999959e-02 -1.92275030e-01   1.91211223e+00   7.03154400e-02
C     1.026061526213797e+01   6.308148733060509e+00  -4.420499999998384e-03 -7.26632360e-01  -1.09486149e+00  -7.24269670e-01
C     1.057793659411936e+01   4.909785200845389e+00  -4.688219999999887e-02  5.73133540e-01   9.16046580e-01  -1.12596710e-01
C     6.497510133300972e+00   6.097502410348286e+00  -1.823997000000013e-01 -7.45747520e-01   1.21159900e+00   8.56170500e-02
C     7.844374990745260e+00   5.684084524730530e+00  -2.650979999999947e-02  3.38369570e-01   5.12398540e-01  -1.67155450e-01
C     8.171562185121884e+00   4.310815545240419e+00   3.516900000000000e-02  7.41639580e-01  -2.69130400e-02  -3.50624450e-01
C     9.564628645206870e+00   3.931542836738149e+00  -5.934599999999790e-03 -5.60902860e-01  -2.46095030e-01  -1.87893120e-01
C     9.917557016244693e+00   2.562411512051364e+00  -1.436912999999969e-01 -3.20543630e-01  -7.06584560e-01   5.76377760e-01
C     4.071906198132969e+00   5.512593946174121e+00  -2.572748999999988e-01  6.58419930e-01   2.42922161e+00  -1.18662560e-01
C     5.444789616889405e+00   5.159875595836152e+00  -2.648282999999978e-01  8.18883100e-02  -1.95689817e+00   8.34216600e-02
C     5.778047810354304e+00   3.750727391105395e+00  -2.707727999999996e-01  4.53951710e-01  -1.42604860e-01   7.09572650e-01
C     7.141955690435231e+00   3.351434196838693e+00  -6.429539999999889e-02 -1.87368290e-01  -1.04456463e+00  -8.76046520e-01
C     7.492719377156817e+00   1.939219292323184e+00  -1.447782000000011e-01  5.94933040e-01   1.31588017e+00   2.31648560e-01
C     8.877110480123164e+00   1.564914971520279e+00  -1.445234999999983e-01  6.67070300e-02   1.12752188e+00  -3.87136110e-01
C     3.062804656702524e+00   4.553074514309458e+00  -2.213363999999984e-01 -5.16521350e-01  -9.38656320e-01   4.83336460e-01
C     3.421208240962189e+00   3.183680338437648e+00  -2.313563999999992e-01 -7.18601100e-01  -1.84106520e+00  -2.50017360e-01
C     4.761839587965722e+00   2.725242394817221e+00  -3.012458999999978e-01  6.60544680e-01   2.36397207e+00   3.69340290e-01
C     5.126420379173444e+00   1.377382157960543e+00  -2.150187000000017e-01 -6.73320220e-01  -1.18081636e+00   6.72778700e-02
C     6.478384545253665e+00   9.701894196758517e-01  -1.961402999999997e-01  1.27886780e-01  -2.50870900e-01   1.44542900e-01
C     1.127235146858862e+01   7.279754855199482e+00  -1.641756000000001e-01 -2.75921790e-01   1.02923079e+00   2.79506680e-01
C     2.405314064881957e+00   2.155263031286845e+00  -1.799889000000015e-01 -4.10687430e-01   1.63491317e+00  -3.33330570e-01
C     2.753052428478575e+00   7.934917706895473e-01  -2.071013999999991e-01 -1.02138054e+00  -9.76311280e-01   3.36083420e-01
C     4.097007369346043e+00   3.887014075694192e-01  -1.407966000000016e-01  7.54214660e-01  -1.26336683e+00  -1.68704470e-01
C     3.420309606546387e-01   2.109670550366742e-01  -2.436165000000017e-01 -1.60814680e-01  -9.07447660e-01   2.72526060e-01
C     6.146303839913146e+00   7.496604157999885e+00  -2.175936000000007e-01  8.93212330e-01  -7.04762500e-02  -4.66787000e-02
