32
Lattice="9.868 0 0 4.934 8.54593868454484 0 0 0 30 " PBC="1 1 1" Properties=species:S:1:pos:R:3:force:R:3 Energy="-258.08603685"
C    -1.150227129385945e-03  -2.687177784890263e-05   3.000853791934992e+00  8.62004200e-02   1.45076400e-02  -1.51857700e-02
C     1.233281428733531e+00   7.124857587723971e-01   2.999484256966336e+00  1.28787600e-02  -4.77843400e-02   2.98100000e-03
C     2.467105588312791e+00  -6.705765357785495e-04   2.999359261704680e+00  2.89280500e-02   6.03211200e-02   2.35144000e-03
C     3.701618679719267e+00   7.125212713815545e-01   2.998810553597663e+00 -6.06425600e-02  -2.70805000e-02   2.13190900e-02
C     4.935223942394354e+00   5.802249167071789e-04   3.000547532050956e+00 -7.32242000e-02  -6.14112000e-02  -1.57654000e-03
C     6.167279194885934e+00   7.114307827811384e-01   3.001140006939138e+00  4.65893300e-02   6.86313900e-02  -5.14166000e-03
C     7.400320270026171e+00  -1.115619917958051e-03   3.000946950962368e+00  4.98278300e-02   5.93852900e-02   4.86500000e-05
C     8.635459988801111e+00   7.133032399912949e-01   3.000274267831152e+00 -1.16763490e-01  -1.05532790e-01   7.56122000e-03
C     1.234698502835128e+00   2.136245593912002e+00   2.999153611556337e+00 -7.49929300e-02   8.55199000e-03   9.93457000e-03
C     2.467215737003759e+00   2.848361346728796e+00   2.999491561738004e+00 -1.15310700e-02   5.74217900e-02   5.67412000e-03
C     3.699309861737556e+00   2.136402915017204e+00   3.001011633879385e+00  6.34261600e-02  -4.33602000e-03  -3.03125200e-02
C     4.933019416627545e+00   2.848470117872513e+00   2.999089347470760e+00  1.62307700e-02   5.18668700e-02   2.37518800e-02
C     6.166542828950570e+00   2.137542608547927e+00   3.000294253095151e+00  2.04042500e-02  -6.39465500e-02  -1.03625700e-02
C     7.400434851691522e+00   2.849225659675668e+00   2.999232718914336e+00 -3.22782000e-03  -2.21562800e-02   6.95642000e-03
C     8.633963117284193e+00   2.135970220568000e+00   3.000043492491883e+00  1.47903400e-02   5.93603700e-02   2.16770000e-03
C     9.867718419773428e+00   2.847984895677307e+00   3.000755495959865e+00  3.48739300e-02   8.66068000e-03  -1.94806400e-02
C     2.467512354315193e+00   4.273832096651716e+00   2.999664146515754e+00 -2.90856300e-02  -5.21947100e-02  -1.39502000e-03
C     3.700094562411878e+00   4.986191489880295e+00   3.000675965468501e+00  3.92036400e-02  -4.69271200e-02  -1.44617000e-03
C     4.934224091292380e+00   4.273925612721799e+00   3.000443401524232e+00 -5.21916800e-02  -4.35490200e-02  -6.40803000e-03
C     6.166310495330693e+00   4.985871129025802e+00   3.000404734650893e+00  6.41505800e-02  -1.37091200e-02  -8.65055000e-03
C     7.400503924080589e+00   4.273036363365996e+00   2.999248918087970e+00 -5.90133000e-03   3.37963800e-02   8.77579000e-03
C     8.633729678382442e+00   4.985772787381380e+00   3.000103686555790e+00  7.04881300e-02  -6.89010400e-02  -5.74183000e-03
C     9.868907418253110e+00   4.272152938165787e+00   2.999455562238510e+00 -8.75806000e-02   3.78061600e-02   5.06615000e-03
C     1.110153350470343e+01   4.985178607248328e+00   2.998863234529578e+00  2.89979700e-02  -3.92524800e-02   1.51882300e-02
C     3.701072988352524e+00   6.408884377181968e+00   3.001007266301457e+00 -2.78126000e-02   5.68994200e-02  -9.04572000e-03
C     4.934935685052935e+00   7.121237735516417e+00   2.999622901894651e+00 -5.82040600e-02   3.16278600e-02   1.42470800e-02
C     6.167889433625790e+00   6.410174680672284e+00   2.999734061833967e+00  2.29279400e-02  -1.09343700e-02   9.25119000e-03
C     7.402161539129896e+00   7.122125452600796e+00   3.000874776976594e+00 -3.81463700e-02  -3.25626900e-02  -1.50787200e-02
C     8.635539999525415e+00   6.409477382110778e+00   3.000605258319827e+00 -5.83461200e-02   2.23966000e-03   3.02456000e-03
C     9.867093928428407e+00   7.121179287339593e+00   3.001050945223803e+00  1.24281060e-01   2.27575300e-02  -2.34955000e-03
C     1.110273248032583e+01   6.408451045342491e+00   3.001037336309688e+00 -1.29408270e-01   4.26850500e-02  -1.00371800e-02
C     1.233385318498043e+01   7.120698380266610e+00   3.000941112135440e+00  1.02859560e-01   2.37590100e-02   3.91339000e-03
