32
Lattice="9.86 0 0 4.93 8.53901048131456 0 0 0 30 " PBC="1 1 1" Properties=species:S:1:pos:R:3:force:R:3 Energy="-256.64601503"
C     5.054518488999999e+00   6.753764340792269e+00  -3.080222999999975e-01  6.22091990e-01  -2.05403110e-01   4.96478890e-01
C     6.330777514099999e+00   7.447161109794006e+00  -1.945253999999998e-01 -2.40796697e+00   3.14371660e-01  -1.12297318e+00
C     7.532190758200000e+00   6.707239200631570e+00  -2.210150999999989e-01 -1.29818968e+00   1.09616663e+00   9.98649850e-01
C     8.724165122899999e+00   7.446839872219748e+00  -2.064582000000001e-01  2.99559270e-01  -1.44052281e+00  -8.65746400e-01
C     9.897654008900000e+00   6.698400214713407e+00  -3.940280999999999e-01  3.47795581e+00   1.27208051e+00   2.51091070e-01
C     1.117486472120000e+01   7.418932421998697e+00  -4.859904000000022e-01 -4.02620280e-01   3.41996180e-01   7.47277800e-01
C     1.244309016340000e+01   6.770298597564903e+00  -5.390604000000003e-01 -1.21231278e+00  -2.70007218e+00  -1.19402160e-01
C     1.365535704900000e+01   7.449401660753852e+00  -4.242807000000006e-01  1.14656266e+00   3.34778140e-01  -3.20404470e-01
C     1.371666357100000e+00   3.398246945397304e-01  -3.187175999999994e-01  2.35043650e-01  -4.69888410e-01   8.76096390e-01
C     2.634252027200000e+00   1.033276796329378e+00  -2.804411999999985e-01 -2.79355595e+00   6.93002090e-01  -2.61700970e-01
C     3.801025513700000e+00   3.030815032245000e-01  -1.989422999999988e-01  1.51615660e+00   7.34291260e-01  -1.64143000e-02
C     5.040659568800000e+00   1.013915785527445e+00  -1.622690999999996e-01 -3.26821670e-01  -1.42156310e-01  -2.48647600e-01
C     6.245159485899999e+00   2.888401415459560e-01  -2.939813999999998e-01  1.26910932e+00   7.93899240e-01  -5.80834700e-01
C     7.503343651999999e+00   1.031698274852045e+00  -3.730982999999988e-01 -1.61147396e+00   7.49391400e-01   3.27973380e-01
C     8.706602096500001e+00   3.264011992849608e-01  -4.311153000000019e-01  2.27953835e+00   7.59541020e-01   7.13109190e-01
C     9.990203321299999e+00   1.048075328441741e+00  -3.140712000000008e-01 -8.12553040e-01  -6.67268180e-01  -8.48157460e-01
C     2.567837335000000e+00   2.453303480000173e+00  -3.808100999999979e-01  8.10712530e-01   1.06954640e-01   8.93471450e-01
C     3.807539029700000e+00   3.176833050744153e+00  -3.254504999999988e-01  9.42326300e-02  -2.37551850e-01   3.19326600e-01
C     5.027673505099999e+00   2.429682783820292e+00  -1.306751999999989e-01 -2.09528950e-01   1.25835043e+00  -6.55071970e-01
C     6.244756409100000e+00   3.186984567963196e+00  -1.129956000000014e-01  1.05123814e+00  -1.32208326e+00  -1.47361630e-01
C     7.487113451099999e+00   2.487487956825071e+00  -2.858412000000001e-01  7.29618790e-01  -9.38934940e-01   5.59293610e-01
C     8.759310057600000e+00   3.181028010422662e+00  -2.869595999999994e-01 -1.44479742e+00   3.18079060e-01   2.00136780e-01
C     9.992966438400000e+00   2.477809586176725e+00  -3.217089000000009e-01 -2.48963816e+00  -1.79850957e+00   2.71521310e-01
C     1.116847396220000e+01   3.144537744597850e+00  -3.151191000000004e-01  3.92604687e+00   1.63947450e+00  -1.08163508e+00
C     3.844963103400000e+00   4.613794385388989e+00  -4.208028000000006e-01 -8.36433500e-02  -7.20564180e-01   2.97080450e-01
C     5.071426170500000e+00   5.326321441129489e+00  -2.376077999999993e-01 -6.28598160e-01   2.85490700e-02   2.13139200e-02
C     6.284657906400000e+00   4.589922215350472e+00  -3.301199999999938e-02 -9.59652620e-01   9.45132470e-01  -1.15822940e+00
C     7.492148755899999e+00   5.313729133154842e+00  -1.205364000000024e-01  1.86388814e+00  -1.16127864e+00  -2.42907250e-01
C     8.754762527000000e+00   4.610619068951896e+00  -2.222426999999989e-01 -8.49766300e-02  -7.67315630e-01  -1.46846210e-01
C     9.999230792199999e+00   5.304853771052035e+00  -3.681062999999973e-01 -5.48286730e-01  -1.03589295e+00   6.20662800e-02
C     1.127003467370000e+01   4.566551029056817e+00  -4.387769999999982e-01 -2.66609233e+00   8.23936490e-01   9.42456000e-03
C     1.246215383250000e+01   5.290007591261192e+00  -5.716434000000028e-01  6.58953950e-01   1.39744724e+00   7.72021260e-01
