32
Lattice="9.86 0 0 4.93 8.53901048131456 0 0 0 30 " PBC="1 1 1" Properties=species:S:1:pos:R:3:force:R:3 Energy="-257.45983368"
C     1.269933440700000e+00   6.859280380953000e-01   3.648580800000000e+00 -1.03176749e+00  -2.67167480e-01  -6.32722420e-01
C     2.478296505799999e+00   1.394087389975280e+00   3.575132700000000e+00  1.65521316e+00  -2.51222100e-01   2.83517720e-01
C     3.733622800200000e+00   6.842334714655440e-01   3.541279800000000e+00 -6.75774400e-02  -6.59671260e-01  -4.37759500e-02
C     4.970047721100000e+00   1.382025610721756e+00   3.509196300000000e+00 -4.43259700e-01   8.53980060e-01   4.36025750e-01
C     6.206620443399999e+00   6.892619239570064e-01   3.564732000000000e+00 -9.36839900e-01  -5.79066190e-01  -5.37849020e-01
C     7.427349082400000e+00   1.404849104883224e+00   3.561766500000000e+00 -8.13235350e-01  -1.75222690e-01   1.73525350e-01
C     8.625602097899998e+00   6.922800372111625e-01   3.563708700000000e+00  1.89651685e+00  -1.38907689e+00   3.26783960e-01
C     9.878372828200000e+00   1.361679795841165e+00   3.639691500000000e+00 -9.96360200e-02   1.56885357e+00  -5.18252920e-01
C     2.504735849300000e+00   2.807184922811869e+00   3.582427800000000e+00 -5.26304090e-01  -2.22997540e-01   1.57120960e-01
C     3.727199404599999e+00   3.524251828864166e+00   3.614132700000000e+00 -1.66738070e-01   3.55092090e-01  -8.56302520e-01
C     4.948871892100000e+00   2.812634690080415e+00   3.536873400000000e+00  1.00680792e+00   2.09048700e-01   5.04899830e-01
C     6.202151743500000e+00   3.533195161490394e+00   3.588537900000000e+00 -1.10580332e+00   3.50239840e-01  -4.13179080e-01
C     7.418820527499999e+00   2.817301942428573e+00   3.591150900000000e+00  6.40947400e-02   2.21308430e-01   1.22492820e-01
C     8.647720937299999e+00   3.519040897718746e+00   3.620475600000000e+00  5.09474870e-01  -4.34485280e-01  -6.70588020e-01
C     9.876239765099999e+00   2.807197731327590e+00   3.572447700000000e+00  2.48707960e-01  -1.39593868e+00   7.42336620e-01
C     1.111888092300000e+01   3.477154916561726e+00   3.578416500000000e+00 -1.74297620e-01   1.91754945e+00  -9.78666400e-02
C     3.702908752300000e+00   4.953793104962302e+00   3.558798000000000e+00  2.76616100e-01   4.79472000e-01   1.86476690e-01
C     4.933185371600000e+00   5.684365651550186e+00   3.567682800000000e+00  1.11003738e+00  -1.58723104e+00  -9.40129400e-02
C     6.186369433099999e+00   4.972115430529447e+00   3.558853800000000e+00  4.39200990e-01  -3.44653510e-01   3.90295310e-01
C     7.449899641899999e+00   5.678352394980064e+00   3.565175700000000e+00 -8.99788680e-01  -8.36079240e-01  -4.23291470e-01
C     8.679665661100000e+00   4.913336297989320e+00   3.549273300000000e+00 -1.38806654e+00   1.92431822e+00   4.01316450e-01
C     9.884540603300000e+00   5.655257445675438e+00   3.534333600000000e+00  3.80080520e-01  -1.53386250e+00  -3.49827950e-01
C     1.110140865790000e+01   4.922623667347787e+00   3.553878600000000e+00  7.77806100e-01   3.18911630e-01  -1.53378470e-01
C     1.232904186050000e+01   5.678166586112019e+00   3.523265700000000e+00 -2.12075180e-01  -1.35606812e+00   5.31311700e-01
C     4.994869038600000e+00   7.075774866278518e+00   3.580113600000000e+00 -1.83281216e+00   1.64940845e+00  -3.08337620e-01
C     6.201393657399999e+00   7.816108270355985e+00   3.569872500000000e+00  6.85887220e-01  -8.85616480e-01   2.70953160e-01
C     7.437396964700000e+00   7.104063668707606e+00   3.525537300000000e+00  2.74340330e-01  -4.74035340e-01   4.68055380e-01
C     8.688376478100000e+00   7.782395830030421e+00   3.543588900000000e+00 -1.50705114e+00   1.02312225e+00  -6.35400150e-01
C     9.879364793499999e+00   7.052020278414311e+00   3.456890100000000e+00  5.78037480e-01   1.28411602e+00   9.95398180e-01
C     1.109023338320000e+01   7.796995573978811e+00   3.538210500000000e+00  8.57375400e-01   1.54841490e-01  -1.65905380e-01
C     1.231272770170000e+01   7.091476825699666e+00   3.568405200000000e+00  1.93235941e+00   2.45725810e-01  -5.48618480e-01
C     1.360394740340000e+01   7.797403567899545e+00   3.546525300000000e+00 -1.48730374e+00  -1.63593670e-01   4.58799150e-01
