32
Lattice="9.86 0 0 4.93 8.53901048131456 0 0 0 30 " PBC="1 1 1" Properties=species:S:1:pos:R:3:force:R:3 Energy="-252.71262781"
C     4.952662076099999e+00   7.733207714061430e+00   1.151754000000000e-01  2.42994931e+00   5.32099919e+00   6.68226590e-01
C     1.314328682300000e+00   3.310412121896880e-02   9.103080000000000e-02 -9.08231960e-01  -3.05253744e+00   5.31176460e-01
C     7.407159105500000e+00   7.799300167517258e+00   2.024400000000000e-01  2.14464887e+00  -1.30259918e+00  -7.37624650e-01
C     8.666186794600000e+00   8.420357172215789e+00  -3.136620000000079e-02  9.34307090e-01   2.85331076e+00   1.12114397e+00
C     9.956596990300000e+00   7.683839937311938e+00   2.950140000000000e-02 -2.08051224e+00   7.03861666e+00  -1.08039350e+00
C     1.111899455950000e+01   8.463367741053025e+00  -1.097916000000012e-01  3.44106240e+00   3.26366470e-01   1.77157747e+00
C     1.241722299570000e+01   7.798262677743939e+00  -5.440619999999896e-02 -6.67782900e-01   5.12154530e-01   4.13885440e-01
C     1.363215479280000e+01   8.479265243814165e+00   1.901529000000000e-01 -6.08578870e-01   1.29789415e+00  -1.55314412e+00
C     1.401562813800000e+00   1.412365312687930e+00  -1.640237999999989e-01 -5.56382386e+00  -3.77434220e-01  -1.06172037e+00
C     2.498909279499999e+00   2.143153042339910e+00  -3.941693999999991e-01  6.51223714e+00   1.11692312e+00   4.09329110e-01
C     3.813709960000000e+00   1.393143146196401e+00  -1.648050000000012e-01 -1.52964340e+00  -1.71874861e+00  -3.07885080e-01
C     5.090766412600000e+00   2.056404807923065e+00  -5.079780000000156e-02 -2.58519090e+00   7.97913030e-01  -1.16883543e+00
C     6.299472014100000e+00   1.338991901166119e+00   4.099020000000000e-02 -8.71199130e-01   8.46518440e-01   3.71538190e-01
C     7.504194372800000e+00   2.152241196583879e+00   1.570959000000000e-01 -8.57389000e-03  -3.29666128e+00  -1.07360577e+00
C     8.743590062399999e+00   1.395650370453539e+00   1.061970000000000e-01 -2.85312860e-01   1.01611110e-01  -1.08929011e+00
C     9.921369478099999e+00   2.050609637680604e+00  -3.372330000000012e-01  8.97795500e-01   2.69062295e+00   2.82370272e+00
C     2.606543011500000e+00   3.625062105739474e+00  -6.047024999999984e-01 -1.60421018e+00  -4.00864935e+00   5.85127300e-01
C     3.853096814600000e+00   4.239397201388149e+00  -4.641453000000020e-01 -5.61361520e-01   8.74745700e-02   1.16776552e+00
C     5.014051126300000e+00   3.491404390300227e+00  -1.510422000000027e-01  1.56866976e+00   2.87407920e-01   1.02442832e+00
C     6.211989114800000e+00   4.225761255552636e+00   1.970421000000000e-01 -8.09996270e-01   8.85551570e-01  -7.85501200e-01
C     7.426655431400000e+00   3.533287126633264e+00   5.108790000000001e-02  2.64095035e+00   1.36185843e+00   4.79933430e-01
C     8.705460111299999e+00   4.299128518986902e+00  -1.711026000000011e-01 -1.72498486e+00  -1.89279892e+00   5.92375060e-01
C     9.901431818599999e+00   3.562913052713415e+00  -3.130352999999992e-01  1.97111015e+00  -1.62042678e+00  -1.77624167e+00
C     1.121819237130000e+01   4.271889417116120e+00  -5.702922000000008e-01 -2.14576652e+00  -6.56480000e-02   6.29033300e-01
C     3.825427682600000e+00   5.634218604704289e+00  -2.219177999999999e-01  7.99026800e-01   1.96181115e+00   1.38169140e-01
C     5.010398932999999e+00   6.389287608386883e+00   9.842100000000001e-02  5.94096780e-01  -3.49626614e+00   7.44633670e-01
C     6.237045050999999e+00   5.675940551469989e+00   4.010844000000000e-01 -1.42249451e+00  -2.63878715e+00  -2.26445982e+00
C     7.472494324900000e+00   6.281328471937719e+00   2.943501000000000e-01 -1.72200368e+00   5.16956871e+00  -3.18656670e-01
C     8.625119894599999e+00   5.710353788385647e+00  -1.338417000000014e-01  3.85651042e+00  -1.61028540e+00   6.76398440e-01
C     9.923507964200001e+00   6.410287255299928e+00  -2.024219999999985e-01  5.66736160e-01  -6.96739038e+00  -1.19152310e+00
C     1.119263692750000e+01   5.658321071855452e+00  -4.755863999999974e-01  2.60235680e-01   2.97443077e+00   1.38577390e+00
C     1.251267893750000e+01   6.431280839515532e+00  -2.584805999999986e-01 -3.51766885e+00  -3.58280068e+00  -1.12533655e+00
