32
Lattice="9.808 0 0 4.904 8.49397716031777 0 0 0 30 " PBC="1 1 1" Properties=species:S:1:pos:R:3:force:R:3 Energy="-258.02285682"
C    -9.477262669167714e-04   1.163432547558192e-03   3.000560857321345e+00  2.87696700e-02  -4.59212700e-02  -1.05877100e-02
C     1.225635799060049e+00   7.083404778254925e-01   3.000734630483270e+00  1.65038400e-02  -1.18774100e-02  -2.93997000e-03
C     2.452356917667254e+00  -2.094017631746161e-04   3.000505188039642e+00 -6.46392600e-02   3.00818000e-02  -1.88959700e-02
C     3.677378784284111e+00   7.072331234680238e-01   2.998832875840364e+00  2.66140800e-02   2.83943100e-02   1.28558500e-02
C     4.903016076041289e+00  -4.893298604941209e-04   3.000345378121991e+00  3.05550500e-02   7.97628000e-03  -5.02505000e-03
C     6.129564053888667e+00   7.070602616530433e-01   3.001022958582240e+00 -6.93526000e-03   1.13030000e-02  -8.91261000e-03
C     7.355438297809875e+00  -5.552605698030067e-04   3.001114219897241e+00  5.33357000e-03   1.07088500e-02  -1.43997800e-02
C     8.581085684928238e+00   7.084377234383854e-01   2.998786843467374e+00  6.68100000e-05  -3.80169500e-02   1.91475900e-02
C     1.226874850570483e+00   2.123974774685085e+00   3.000130019026783e+00 -4.35468700e-02  -7.79482000e-03   4.79047000e-03
C     2.453067198175347e+00   2.831356673000856e+00   2.999209504784841e+00 -4.28425200e-02   6.57066000e-03   4.04934000e-03
C     3.678090394923123e+00   2.122987853553130e+00   2.998799996233712e+00  4.53219200e-02   2.71524700e-02   1.22205700e-02
C     4.904941079360026e+00   2.831709239015123e+00   3.001084411644931e+00 -4.56407400e-02  -5.32033200e-02  -2.63417200e-02
C     6.130600605870132e+00   2.122923490092449e+00   2.999661287776437e+00 -2.83252600e-02   1.76430100e-02   1.25047700e-02
C     7.356064742327425e+00   2.831440682054967e+00   2.999408259634408e+00 -1.70049000e-03  -2.60984100e-02   5.53471000e-03
C     8.581202208323466e+00   2.123152751630837e+00   2.999117726914469e+00  4.46405900e-02   3.94370800e-02   7.37178000e-03
C     9.807728020862431e+00   2.831256790301250e+00   3.001149563615257e+00  1.11911600e-02   2.98470500e-02  -2.13660800e-02
C     2.451130931386256e+00   4.247023532736656e+00   3.000067802287135e+00  3.67422100e-02   3.42129000e-03   7.59340000e-04
C     3.677522454649425e+00   4.953985532687449e+00   3.000237627061582e+00 -1.62388000e-02   7.77325200e-02  -7.46550000e-03
C     4.903028343043883e+00   4.247155233007936e+00   2.999721223245690e+00  3.79786500e-02  -1.39746300e-02   1.30938600e-02
C     6.128981738460880e+00   4.954972032167642e+00   3.000363071755811e+00  5.93227900e-02  -1.55895800e-02   7.96457000e-03
C     7.356397062033421e+00   4.246226603527281e+00   3.001113475134137e+00 -7.39226400e-02   6.70060700e-02  -1.29364600e-02
C     8.580918727966774e+00   4.955752275875986e+00   3.000695775010162e+00  4.19752600e-02  -2.51006500e-02   1.71672000e-03
C     9.807393074620800e+00   4.248035806120154e+00   2.999864528471281e+00 -4.64859000e-03  -3.52020200e-02   1.59589900e-02
C     1.103369877507038e+01   4.955785665356965e+00   3.000622940088439e+00 -1.08764400e-02  -4.87126800e-02  -8.92831000e-03
C     3.678672971055817e+00   6.371412297187433e+00   2.999954594642020e+00 -4.28260700e-02  -9.59834800e-02   4.11569000e-03
C     4.903516712577900e+00   7.078174359409998e+00   3.000068981743884e+00  4.81596700e-02   5.99624100e-02   9.49560000e-03
C     6.130265170610461e+00   6.370544770908086e+00   3.001171977912145e+00 -2.13418700e-02   9.66254000e-03  -2.01307100e-02
C     7.356250201776584e+00   7.079136445956087e+00   2.998983341556024e+00 -1.95507100e-02  -3.60691500e-02   3.18958200e-02
C     8.581971289094401e+00   6.371464437753080e+00   3.001022621005903e+00 -3.06115600e-02  -3.72236400e-02  -1.91042000e-02
C     9.807305798389484e+00   7.078070623556447e+00   3.000110762128757e+00  5.32033300e-02   1.21966200e-02   7.71418000e-03
C     1.103434799321053e+01   6.370418212259413e+00   3.000155883755641e+00 -3.01078500e-02   2.53584700e-02   7.43644000e-03
C     1.226021892351984e+01   7.077857218834589e+00   3.000632661557471e+00 -2.62367000e-03   2.63136100e-02  -1.59224000e-03
