32
Lattice="10 0 0 5 8.66025403784439 0 0 0 30 " PBC="1 1 1" Properties=species:S:1:pos:R:3:force:R:3 Energy="-257.66083895"
C     2.472832737959701e-03   1.956984679905470e-03   2.997302437848961e+00 -1.67109500e-01  -5.99265500e-02   5.48590700e-02
C     1.248471992501783e+00   7.242825028504800e-01   3.002283853415255e+00  1.54279840e-01  -6.40424300e-02  -4.65101300e-02
C     2.500965920844714e+00   2.016107458509499e-03   3.004368386996085e+00 -1.50197200e-01  -1.25475830e-01  -4.11782100e-02
C     3.749066603795130e+00   7.208022006425542e-01   3.003789773622603e+00  7.05183000e-03   8.44952500e-02  -4.97510400e-02
C     4.996311356884143e+00   6.321553401543628e-04   2.999056288461539e+00  8.29674800e-02  -1.19306550e-01   1.83517900e-02
C     6.247605050238151e+00   7.181473547520302e-01   3.002377588585442e+00  3.25772900e-02   2.24585350e-01  -6.72249800e-02
C     7.497295226801969e+00  -3.557616332030436e-04   2.998741373551729e+00  1.07227950e-01  -4.05447800e-02   3.85484700e-02
C     8.749331965098198e+00   7.228819804539559e-01   3.001200136132238e+00 -9.63566000e-03  -4.84439000e-02  -3.83449000e-02
C     1.250945912918883e+00   2.164039448550156e+00   2.995948757005289e+00 -6.57349200e-02   2.27847200e-01   9.75608100e-02
C     2.502311599734143e+00   2.889890102424613e+00   3.004343120840761e+00 -7.47634500e-02  -2.55085190e-01  -1.13985890e-01
C     3.752468899517801e+00   2.164633313796092e+00   2.997892557604418e+00 -1.73825490e-01   7.10819000e-03   6.13903800e-02
C     4.998422341315393e+00   2.883796331559628e+00   2.995220450159430e+00  2.03478520e-01   1.03301260e-01   4.03387400e-02
C     6.250887938145179e+00   2.166363722721667e+00   2.996569148763714e+00 -3.09116800e-02  -1.66606580e-01   1.43591400e-02
C     7.502456556201308e+00   2.887053423927061e+00   2.995841817275736e+00 -1.69900060e-01   4.98562400e-02   7.66847200e-02
C     8.748045844131964e+00   2.167154918280772e+00   3.001968105181184e+00  1.12138580e-01  -1.02966970e-01  -5.33306100e-02
C     9.997168915576459e+00   2.889559835611426e+00   2.998088449773296e+00  1.84181190e-01  -2.06324680e-01   1.10205400e-02
C     2.500114404303888e+00   4.329233610495784e+00   2.997113528270454e+00 -7.17847000e-02   1.05594390e-01   3.43693900e-02
C     3.745204080812042e+00   5.050301775577883e+00   2.997017961715881e+00  3.47126940e-01   1.07241590e-01   1.13911300e-02
C     5.001519027829280e+00   4.327608128314556e+00   3.000752236033460e+00 -2.29877190e-01   1.20292820e-01  -5.30711200e-02
C     6.246337850377239e+00   5.054069435508472e+00   3.000735486024890e+00  2.44111580e-01  -1.66529770e-01   2.43096600e-02
C     7.503486655421814e+00   4.330397664867079e+00   3.003321533767616e+00 -2.26053670e-01   9.34211200e-02  -6.67680600e-02
C     8.750474515380219e+00   5.051935611369540e+00   3.000819142744646e+00  7.11270200e-02   4.29950500e-02   3.54690200e-02
C     1.000087181207839e+01   4.327813851192533e+00   2.999864539551459e+00 -2.01822800e-02   2.12638560e-01  -2.30428400e-02
C     1.125105342766977e+01   5.052423169742140e+00   2.997592962411160e+00 -7.22187400e-02   3.32448000e-03   4.41434100e-02
C     3.751923555084542e+00   6.497612888273560e+00   2.995799375261495e+00 -9.79785400e-02  -1.90780630e-01   3.93263000e-02
C     5.003385753842435e+00   7.216278335864923e+00   2.999458685072218e+00 -1.60720700e-01   1.62879800e-01  -2.83761000e-02
C     6.249358602941162e+00   6.496869392078946e+00   3.001056564757814e+00  1.35613300e-02  -1.10884500e-01  -2.73995600e-02
C     7.497092363593300e+00   7.216095411174150e+00   2.997538673038771e+00  2.17259600e-01   1.47093120e-01   8.86026700e-02
C     8.752841550654786e+00   6.497924423103015e+00   3.002854952711912e+00 -2.84571140e-01  -1.89010280e-01  -8.17660700e-02
C     9.996343452676818e+00   7.215464562526901e+00   2.995563864519187e+00  1.93069370e-01   1.86606890e-01   1.09648560e-01
C     1.124990888577460e+01   6.498047767720641e+00   3.004650121082474e+00 -6.32073200e-02  -2.15637640e-01  -1.14260320e-01
C     1.249875200468633e+01   7.214730938301036e+00   2.999363444602499e+00  9.85136900e-02   1.82284970e-01   4.63606000e-03
