32
Lattice="9.64 0 0 4.82 8.34848489248199 0 0 0 30 " PBC="1 1 1" Properties=species:S:1:pos:R:3:force:R:3 Energy="-256.7926703"
C     3.635299630203906e-03  -4.350152081851726e-05   2.996318555598069e+00  1.55487930e-01   2.65853210e-01   6.36264700e-02
C     1.212053061900763e+00   7.017076242588574e-01   2.997850897366978e+00 -5.44231330e-01  -2.28939000e-01   3.31454800e-02
C     2.401285690997541e+00  -1.252594813045420e-02   2.995496550404833e+00  3.73002280e-01   6.53624810e-01  -3.09480500e-02
C     3.603974317961565e+00   6.854243369743483e-01   2.988967150636197e+00  5.96554790e-01   5.76297600e-01   1.87849310e-01
C     4.817559345425744e+00  -1.198923598833624e-03   3.002446673768022e+00  1.27446660e-01   2.43969910e-01  -1.79443060e-01
C     6.033965034257088e+00   6.972796944397650e-01   2.988290062985405e+00 -6.61953130e-01  -1.70491530e-01   1.25102400e-01
C     7.239993226801563e+00   6.912563579947451e-03   3.003028315076322e+00 -2.63232610e-01  -1.88835860e-01  -1.17551800e-01
C     8.441260442425500e+00   6.973681303725777e-01   2.993283250809395e+00  7.99595700e-02   2.03127850e-01   9.03666000e-02
C     1.209512384744464e+00   2.099485729152039e+00   3.007641870532110e+00  4.17123000e-02  -1.02048279e+00  -6.56062500e-02
C     2.406871316447176e+00   2.773860833238887e+00   3.006605801359159e+00  6.78089250e-01   1.11887950e+00  -5.61711000e-03
C     3.621854527326315e+00   2.090400872638995e+00   3.005774259764982e+00 -8.78845350e-01  -7.42914830e-01  -1.45363210e-01
C     4.814310508778253e+00   2.786015916571442e+00   2.992407744439874e+00  5.23977890e-01  -5.81629600e-01   1.54207400e-02
C     6.017742537689897e+00   2.083214558415285e+00   2.985139523228399e+00  5.62683590e-01   2.29683410e-01   1.20046570e-01
C     7.237632772650716e+00   2.771081074265390e+00   3.008720191061958e+00 -7.38500770e-01   9.32154690e-01  -1.46696780e-01
C     8.435506922950292e+00   2.092450657404535e+00   3.003485033314145e+00  7.21321340e-01  -5.39796520e-01  -3.68686200e-02
C     9.653291197760820e+00   2.781737469476235e+00   3.002682935693264e+00 -1.09484119e+00   4.50841410e-01   9.69517200e-02
C     2.403677567144966e+00   4.183566624980835e+00   2.996357859629415e+00  8.95171000e-01  -1.20319791e+00   5.85122900e-02
C     3.620736639061156e+00   4.861190922290375e+00   2.993785607513734e+00 -2.04020130e-01   4.13298050e-01   9.93364000e-03
C     4.821090879420987e+00   4.161792801348319e+00   2.994548557546764e+00  3.33216930e-01   8.81559930e-01  -2.94734500e-02
C     6.033352283827064e+00   4.868739211648974e+00   2.991513128251638e+00 -4.33306160e-01   8.89754300e-02   1.15067960e-01
C     7.235278079835031e+00   4.177130460342019e+00   3.003272726798112e+00  1.81416360e-01  -4.18633410e-01  -7.12123400e-02
C     8.448204177983529e+00   4.875594796421989e+00   2.992773113032667e+00 -9.81616420e-01  -5.39975320e-01   1.08511400e-01
C     9.628810003979245e+00   4.174511595344389e+00   3.008447662192979e+00  1.44312796e+00  -2.71138960e-01  -1.03130120e-01
C     1.085517048717783e+01   4.861388700955102e+00   3.000395802731921e+00 -1.23204870e+00   7.03288930e-01  -3.95028600e-02
C     3.625996732472831e+00   6.256716905321483e+00   2.997559835386855e+00 -7.26679970e-01   1.54500140e-01   7.25839600e-02
C     4.821419603462695e+00   6.957085582206301e+00   3.011256827031615e+00  1.36196240e-01   1.45226940e-01  -1.39679860e-01
C     6.026776277676829e+00   6.270459570010977e+00   3.003859981149516e+00 -7.75320900e-02  -8.40120160e-01  -5.33051800e-02
C     7.228248665287620e+00   6.953516744427351e+00   2.994320870360974e+00  2.69228370e-01  -3.18554900e-01   1.01171300e-02
C     8.438073379923130e+00   6.251878289737736e+00   2.988670948277262e+00 -2.27258780e-01   9.23178150e-01   3.24376600e-02
C     9.632877614537271e+00   6.962127393828053e+00   2.996458366062153e+00  4.72195710e-01  -5.67505130e-01  -4.21762300e-02
C     1.084238854827474e+01   6.256786834869524e+00   2.990217359955196e+00  2.36946890e-01   4.38469750e-01   1.01296780e-01
C     1.205034314589200e+01   6.966246254564193e+00   2.999402255070707e+00  2.36331550e-01  -7.90713790e-01  -3.43952100e-02
