32
Lattice="10.02 0 0 5.01 8.67757454592007 0 0 0 30 " PBC="1 1 1" Properties=species:S:1:pos:R:3:force:R:3 Energy="-257.53523828"
C    -1.738025374413480e-03   5.051912687957325e-04   2.997557345473073e+00  1.02629140e-01   1.41623100e-02   3.23308300e-02
C     1.254548214625012e+00   7.239818763488701e-01   3.001153212613121e+00 -9.97832100e-02  -5.82041000e-02  -3.68786400e-02
C     2.506256842528609e+00  -6.191012293009733e-04   3.000575927837120e+00 -1.44141800e-02   4.60746200e-02   4.95681200e-02
C     3.760390640282619e+00   7.250532816951006e-01   3.002896846155419e+00 -7.43716800e-02  -2.31023330e-01  -7.87704500e-02
C     5.012792645644497e+00  -3.485809493427622e-03   2.995714525914661e+00 -1.38056930e-01   2.28124610e-01   1.16165770e-01
C     6.261149447862723e+00   7.270945570902969e-01   3.002586639358740e+00  1.60071660e-01  -4.05502250e-01  -8.23102100e-02
C     7.513620145812227e+00  -1.614098003788763e-03   3.000199974071208e+00  2.10787400e-02   8.60710700e-02   3.95690200e-02
C     8.766887583529719e+00   7.236308450362193e-01   3.001063614594701e+00 -1.01097000e-02  -1.30668000e-03  -5.41383100e-02
C     1.251689577750136e+00   2.170698854250066e+00   2.998956808571685e+00  1.63063400e-02  -6.66792900e-02  -5.96468000e-03
C     2.500632841674119e+00   2.892474155878224e+00   2.998726848481779e+00  2.43959220e-01  -8.50295000e-03   4.45771700e-02
C     3.757017748349520e+00   2.168558718575619e+00   2.999015511562571e+00 -3.36035000e-02   3.50773300e-02   1.94790900e-02
C     5.009292270695249e+00   2.888285823565085e+00   2.999276306310429e+00  8.07452100e-02   1.25737570e-01  -1.15218300e-02
C     6.267037437136352e+00   2.164733274141632e+00   2.997521407744194e+00 -2.66467970e-01   3.11561020e-01   7.62502400e-02
C     7.513562938059291e+00   2.893751076700394e+00   3.004015170174851e+00  2.24160380e-01  -1.07396110e-01  -9.70456500e-02
C     8.771407221106042e+00   2.171898113559941e+00   2.996343129784284e+00 -2.22736990e-01  -5.71544200e-02   7.30387100e-02
C     1.002134801368626e+01   2.893379243204824e+00   2.996919213121204e+00 -3.53369300e-02   7.46264500e-02   2.49320400e-02
C     2.507792514945006e+00   4.337730101201191e+00   3.004939367266842e+00 -1.44201800e-01  -1.08914000e-03  -9.72588600e-02
C     3.759085501521046e+00   5.059186393958844e+00   2.999397285005131e+00 -6.03692600e-02   1.90551470e-01   3.21685500e-02
C     5.007304159576976e+00   4.337716391057326e+00   2.999905113596508e+00  2.18917970e-01  -9.60604100e-02  -2.03857000e-02
C     6.263470568482463e+00   5.060679854627611e+00   2.998582673211755e+00 -9.19187400e-02   9.83677700e-02   1.40176000e-02
C     7.515271984314817e+00   4.338581684753541e+00   2.999270985339390e+00 -9.27195700e-02  -8.00030000e-03   3.30150800e-02
C     8.765262023256733e+00   5.060812434985280e+00   3.000751890161252e+00  1.55354200e-01   1.52822010e-01  -9.53875000e-03
C     1.002019495259825e+01   4.341505185997930e+00   3.001380929814931e+00 -3.00301000e-03  -1.23667690e-01  -4.88370200e-02
C     1.127378910956205e+01   5.060423207544269e+00   2.998190774989709e+00 -8.06055000e-03   1.26557150e-01   7.69520100e-02
C     3.757847477617444e+00   6.510935717243723e+00   2.998240551441652e+00 -5.53273100e-02  -2.52925930e-01   1.16534100e-02
C     5.007487634679887e+00   7.231561163504387e+00   2.997043082752849e+00  1.38011090e-01   6.59695200e-02   1.70849500e-02
C     6.264947338193326e+00   6.510626654300129e+00   3.000173298290651e+00 -2.44422170e-01  -2.29531680e-01  -3.30596000e-03
C     7.511851908750199e+00   7.228638764034304e+00   3.004833069527770e+00  2.49393270e-01   2.15640380e-01  -6.97836600e-02
C     8.768792996879158e+00   6.510474294837007e+00   2.999917255894142e+00 -1.82488850e-01  -2.16496270e-01   5.29401100e-02
C     1.001876466189046e+01   7.229336629748611e+00   3.003017831786784e+00  1.16729680e-01   8.02107300e-02  -6.64705700e-02
C     1.127239818815025e+01   6.508898904794336e+00   3.001322574177349e+00 -4.60050900e-02  -1.91080280e-01   7.09440000e-04
C     1.252267431243862e+01   7.228044848714696e+00   3.002147340822610e+00  9.60405300e-02   2.03066830e-01  -3.22418600e-02
