26
Lattice="8.88768389401873 1.33226762955019e-15 0 4.44384194700937 7.69696003302603 0 0 0 30 " PBC="1 1 1" Properties=species:S:1:pos:R:3:force:R:3 Energy="-206.9269506"
C     2.119551742748248e-01   3.173698304913942e-01   3.776993700000000e+00 -9.64758240e-01  -3.53979173e+00   5.68596490e-01
C     6.953446495736384e+00   7.411542743620345e+00   3.615084000000000e+00  2.39423807e+00  -2.32494323e+00   5.44699200e-02
C     3.880675677376164e+00   1.398024250216999e-01   3.608560500000000e+00  1.21725830e+00  -5.33681348e+00  -4.26944480e-01
C     9.443982426515987e+00   6.673623024347398e+00   3.549571800000000e+00 -1.58631601e+00   3.53490973e+00   2.28985066e+00
C     1.080250334861162e+01   7.098965425291630e+00   3.859478400000000e+00 -2.09582692e+00  -2.65714710e-01  -1.84489291e+00
C     1.183313690279918e+01   6.134997920225629e+00   3.868866600000000e+00  8.36549570e-01   6.67948320e-01  -4.08163700e-02
C     4.317208318363882e+00   6.589579840810228e+00   3.938667600000000e+00 -5.99283940e-01   6.08753960e-01  -1.48930094e+00
C     5.300974493533322e+00   5.626531583680610e+00   3.752945400000000e+00 -3.17663000e-03  -3.60932959e+00   1.30297575e+00
C     6.655735747531041e+00   5.961415769750668e+00   3.672004800000000e+00  1.14773087e+00   1.12097182e+00  -4.01879150e-01
C     7.686768314248311e+00   4.938131411304671e+00   3.643859100000000e+00 -5.31254520e-01   4.80308220e-01   5.27709310e-01
C     9.074322855476723e+00   5.328409310227435e+00   3.660591300000000e+00  1.04631320e-01  -8.39393870e-01  -1.24636966e+00
C     1.014441732616914e+01   4.332166219637236e+00   3.592677900000000e+00 -5.41725990e-01   1.52114560e+00   6.02479500e-01
C     1.152342200440065e+01   4.766221348426628e+00   3.667839300000000e+00 -1.74931422e+00  -7.43781500e-02   6.77939840e-01
C     3.606861603642949e+00   3.753857667779996e+00   3.733472400000000e+00  1.53487240e-01   2.65520802e+00   3.51437920e-01
C     4.942436125692046e+00   4.139710199533511e+00   3.858694200000000e+00  1.27274848e+00   2.20713549e+00  -2.00388649e+00
C     5.932618986418627e+00   3.146887407071842e+00   3.659700000000000e+00  1.08354072e+00   5.41434610e-01   2.64802867e+00
C     7.314489142787936e+00   3.542189727562990e+00   3.736949700000000e+00  1.01676516e+00   6.87819190e-01  -1.15214008e+00
C     8.367979775773177e+00   2.578061971789165e+00   3.704573700000000e+00  9.29984650e-01  -4.87760650e-01  -1.22620620e-01
C     9.816888798513403e+00   2.966367216825839e+00   3.610250700000000e+00 -2.94829593e+00   8.88674240e-01   3.85788900e-01
C     1.965534668202300e+00   2.032256989412212e+00   3.635158500000000e+00 -4.09626305e+00  -1.48339110e-01  -3.38727910e-01
C     3.230085619699811e+00   2.447541233898041e+00   3.684751200000000e+00  3.04479264e+00  -1.51290733e+00  -1.51548520e-01
C     4.235930934677013e+00   1.455041944666434e+00   3.692036100000000e+00  2.66050690e-01  -1.26330240e-01   6.76173910e-01
C     5.582510675698034e+00   1.774255351024213e+00   3.860696400000000e+00  1.74897679e+00   6.68487520e-01  -2.11256652e+00
C     6.617475553741786e+00   7.937253734264579e-01   3.796016100000000e+00  1.47454135e+00  -1.89127260e-01   1.08808635e+00
C     8.027729195169782e+00   1.157744862298076e+00   3.776190300000000e+00 -1.57564040e+00   4.01187214e+00  -1.32622360e-01
C     1.547119529714088e+00   7.058233189782470e-01   3.648075300000000e+00  5.60010000e-04  -1.13983950e+00   2.90778790e-01
