32
Lattice="9.86 0 0 4.93 8.53901048131456 0 0 0 30 " PBC="1 1 1" Properties=species:S:1:pos:R:3:force:R:3 Energy="-246.61221055"
C     1.220735294500000e+00   6.212964385523896e-01   3.576225600000000e+00  1.68949526e+00   5.29215558e+00  -1.13447740e-01
C     2.494895766500000e+00   1.459159175508434e+00   3.627504300000000e+00 -3.23083088e+00  -1.80643655e+00   1.55091140e-01
C     3.757848918800000e+00   7.742696518677120e-01   3.552005700000000e+00 -1.05307878e+01  -5.06224258e+00  -9.68791110e-01
C     4.818636032800000e+00   1.436983450681979e+00   3.526239300000000e+00  9.91147138e+00   4.46893830e-01  -3.84385440e-01
C     6.067491899399999e+00   6.496229834077984e-01   3.451203600000000e+00  4.58117775e+00   1.87794399e+00  -1.11340161e+00
C     7.426055006700000e+00   1.349188162800077e+00   3.489860100000000e+00 -3.42489360e+00   2.44833627e+00  -3.54747930e-01
C     8.675792751700000e+00   8.284861349380617e-01   3.610865400000000e+00 -1.30263331e+00  -2.93162667e+00  -1.78060467e+00
C     9.869909497200000e+00   1.497672418306064e+00   3.618648000000000e+00  1.74988831e+00  -2.33285276e+00   4.57747410e-01
C     2.380813002900000e+00   2.860512751061566e+00   3.755051100000000e+00  4.91758411e+00  -5.35769200e-02   4.40001750e-01
C     3.821242556300000e+00   3.470236354100516e+00   3.812718000000000e+00 -9.82683939e+00   7.59142048e+00   8.35335480e-01
C     4.893123254900000e+00   2.836523425799263e+00   3.578020800000000e+00  4.97575997e+00  -2.71025803e+00  -9.45344600e-01
C     6.123038160100000e+00   3.473543683639629e+00   3.349251900000000e+00  3.15079842e+00   1.84789525e+00  -4.22452650e-01
C     7.460650295699999e+00   2.725250043212497e+00   3.276122100000000e+00 -3.29782837e+00   5.40505368e+00   3.03213835e+00
C     8.567847197199999e+00   3.680290290771494e+00   3.656544600000000e+00  6.20707680e-01  -2.79778191e+00  -3.35493544e+00
C     9.818926198000000e+00   2.862556904780373e+00   3.677122800000000e+00  1.30076904e+00   5.45849801e+00   7.01875630e-01
C     1.108030510270000e+01   3.631526307453044e+00   3.753660900000000e+00 -1.20222493e+00   1.31989900e-01  -1.18342720e+00
C     3.771664849400000e+00   5.083391118649043e+00   3.843304500000000e+00 -1.58940865e+00  -7.09551388e+00  -3.75134980e-01
C     4.888303785500000e+00   5.722999465175793e+00   3.591085500000000e+00  3.13342663e+00   1.82327883e+00  -1.62228966e+00
C     6.170418861800000e+00   4.942169035385982e+00   3.313062300000000e+00 -6.21046919e+00  -2.48876527e+00   1.94424782e+00
C     7.251463690900000e+00   5.678802400832360e+00   3.455204700000000e+00  4.09434478e+00   4.56525764e+00  -2.90447174e+00
C     8.488030990200000e+00   5.160985448441223e+00   3.402652800000000e+00  6.92360726e+00  -4.81834256e+00   2.69836304e+00
C     9.958475566799999e+00   5.902118274679827e+00   3.516074400000000e+00 -4.18021839e+00  -3.69093886e+00  -1.63727547e+00
C     1.118715240110000e+01   5.076600812125243e+00   3.514467600000000e+00 -4.94796324e+00  -1.60290754e+00   2.03904120e+00
C     1.238897222230000e+01   5.705847325604826e+00   3.676459200000000e+00  1.59553126e+00  -2.04005537e+00   1.25459300e-01
C     4.815523280100000e+00   7.201728942633025e+00   3.456420900000000e+00  5.60020135e+00  -2.22111122e+00  -4.92871790e-01
C     6.164715985699999e+00   7.780292330188778e+00   3.432252000000000e+00 -3.96719841e+00   2.44352475e+00  -3.24481620e-01
C     7.324333182800000e+00   7.128907492748642e+00   3.201419700000000e+00  9.49163570e-01  -1.54448762e+00   2.39729541e+00
C     8.526691064200000e+00   7.842421572710525e+00   3.307999500000000e+00  2.21091147e+00   2.74384241e+00   4.80990380e-01
C     9.813064033600000e+00   7.290824038690191e+00   3.327292200000000e+00  2.00503575e+00  -4.89875100e+00  -2.29145820e-01
C     1.113613868380000e+01   7.801772125661114e+00   3.230751600000000e+00 -9.42840320e-01   1.26928228e+00   2.34047989e+00
C     1.242784127900000e+01   6.991074201184674e+00   3.475457700000000e+00 -2.58426930e+00   1.10595888e+01  -2.64763331e+00
C     1.360208268020000e+01   8.013884390808297e+00   3.296293500000000e+00 -2.17146823e+00  -6.30931291e+00   3.20677596e+00
