32
Lattice="9.86 0 0 4.93 8.53901048131456 0 0 0 30 " PBC="1 1 1" Properties=species:S:1:pos:R:3:force:R:3 Energy="-251.63317238"
C     5.068312382499999e+00   8.017569571561149e+00  -1.049485199999999e+00 -1.88674816e+00   1.28597834e+00  -1.51530762e+00
C     1.311603033200000e+00   2.060567404751856e-01  -1.268798400000001e+00  3.12920967e+00   9.97464470e-01   3.87610729e+00
C     7.467623189099999e+00   8.036106055511134e+00  -8.666501999999987e-01  5.19870320e-01   2.32470670e-01  -4.03960514e+00
C     3.728642957900000e+00   2.375404990654696e-01  -1.020727200000000e+00  3.06496982e+00  -1.27661892e+00  -5.17602460e-01
C     9.978300230700000e+00   8.036662798994429e+00  -1.264588800000002e+00 -1.49564347e+00   1.99664713e+00   1.80242672e+00
C     6.256784869600000e+00   2.887278535581440e-01  -1.289255999999998e+00  2.20768201e+00  -6.48451435e+00   1.83108120e+00
C     1.241086176740000e+01   8.068761878679902e+00  -9.883620000000022e-01  1.61979233e+00  -9.96017220e-01  -2.95643765e+00
C     8.764955449899999e+00   1.990322942840232e-01  -1.096208999999998e+00 -6.04949980e-01   1.96039285e+00   1.56687074e+00
C     1.462245000600000e+00   1.689084072687211e+00  -1.178879100000000e+00 -2.17910355e+00  -1.13403710e+00  -4.01170450e-01
C     2.649210485300000e+00   2.466992965431394e+00  -1.231773600000000e+00  1.00532127e+00  -4.70526826e+00   1.31916988e+00
C     3.868559168000000e+00   1.652686711296421e+00  -1.084430999999999e+00 -1.50286506e+00  -1.24997440e+00  -1.19737273e+00
C     5.137041512500000e+00   2.167040070256661e+00  -1.240541700000001e+00 -1.34301192e+00   7.15841815e+00   5.82541820e-01
C     6.428597144399999e+00   1.607901309130917e+00  -1.208407500000000e+00 -5.24156559e+00   9.14936680e-01  -2.52609800e-01
C     7.543087044200000e+00   2.323070249323824e+00  -1.045047300000000e+00  3.85147183e+00   2.81064057e+00   4.03911420e-01
C     8.810215019099999e+00   1.692881285257563e+00  -1.007510099999998e+00  4.53920670e-01  -2.82425386e+00  -7.65188520e-01
C     1.008343849530000e+01   2.385851701466033e+00  -1.078342200000002e+00 -2.25352890e+00  -3.67679110e-01  -8.82380710e-01
C     2.600067703000000e+00   3.826310444023267e+00  -1.223075099999999e+00  3.88368355e+00  -7.05176680e-01  -1.56820588e+00
C     3.843909168000000e+00   4.540801728344482e+00  -1.352725500000002e+00 -5.72501200e-02  -4.17410949e+00   7.40535970e-01
C     5.016042747699999e+00   3.724773838916530e+00  -1.211725800000000e+00  1.39781784e+00  -1.74797146e+00   4.08535300e-02
C     6.250488618700000e+00   4.380165094683779e+00  -1.016652300000001e+00 -1.13612143e+00   3.84391677e+00  -1.52116106e+00
C     7.484156437099999e+00   3.768370610823218e+00  -9.882425999999995e-01  1.57286755e+00  -1.85442309e+00  -7.87956920e-01
C     8.693820134799999e+00   4.494955268736732e+00  -1.173044099999998e+00  1.70766429e+00  -1.89262144e+00   6.43320960e-01
C     9.989661859400000e+00   3.778868384917226e+00  -1.264537199999999e+00  3.84593240e-01  -9.09351800e-02   5.65530790e-01
C     1.129029500170000e+01   4.402756242370086e+00  -1.373309100000000e+00 -6.69990473e+00   5.42601986e+00   1.42344352e+00
C     3.846231838900000e+00   5.890390370736071e+00  -1.395579899999998e+00 -3.41546580e-01   3.51050148e+00   2.50078709e+00
C     5.027873613800000e+00   6.608802000158758e+00  -1.088481600000001e+00  2.24200255e+00  -1.29173653e+00  -1.60631615e+00
C     6.243867677999999e+00   5.857684167405471e+00  -1.143896399999999e+00  2.15131215e+00   5.63756080e-01   8.31652410e-01
C     7.604804678900000e+00   6.627929810584483e+00  -1.161555900000000e+00 -7.06024623e+00  -1.25867760e-01   2.09013067e+00
C     8.699047610999999e+00   5.876395701070295e+00  -1.120494600000001e+00  4.96185992e+00   1.46949706e+00  -2.82737950e-01
C     1.003783712920000e+01   6.633079943975285e+00  -1.107690000000002e+00 -3.01553762e+00  -1.53585371e+00  -8.99063640e-01
C     1.117911078230000e+01   5.857240565811034e+00  -1.175521500000002e+00  4.60003221e+00   1.10532387e+00  -1.30763124e+00
C     1.250795363110000e+01   6.633968940356358e+00  -1.199674200000000e+00 -3.93604786e+00  -8.18905400e-01   2.82383910e-01
