32
Lattice="9.86 0 0 4.93 8.53901048131456 0 0 0 30 " PBC="1 1 1" Properties=species:S:1:pos:R:3:force:R:3 Energy="-256.8792627"
C     1.261009746300000e+00   7.368509394334087e-01   3.481711200000000e+00 -1.71251740e+00  -1.41660288e+00   1.62720380e-01
C     2.446427654700000e+00   1.436204436755889e+00   3.552018600000000e+00  8.53966580e-01   1.20304567e+00   1.36797110e-01
C     3.643420167800000e+00   7.413488632037488e-01   3.478159500000000e+00  3.05184659e+00   1.48552410e-01  -2.61841660e-01
C     4.960740620600000e+00   1.416904138318469e+00   3.465063000000000e+00 -2.28487983e+00   5.75483940e-01   3.97904600e-02
C     6.159654650499998e+00   6.897338750662360e-01   3.368507400000000e+00  4.59451120e-01   1.30378902e+00   3.87711440e-01
C     7.359121924999999e+00   1.443403932661891e+00   3.460033200000000e+00  1.63165299e+00   6.36343700e-01  -5.08572120e-01
C     8.634594516500000e+00   7.300111920389288e-01   3.494997900000000e+00 -5.50155530e-01   1.83372040e-01  -6.10370880e-01
C     9.901875420000000e+00   1.421725605195896e+00   3.515732100000000e+00 -2.08561854e+00   1.21422988e+00   4.73711390e-01
C     2.462970812000000e+00   2.853181754394171e+00   3.664822800000000e+00 -1.47595854e+00   5.99230230e-01  -3.36315310e-01
C     3.663484725500000e+00   3.571503382646399e+00   3.633781200000000e+00  2.67591912e+00  -1.12434385e+00  -1.73986480e-01
C     4.958267929800000e+00   2.841090003213862e+00   3.535258800000000e+00 -1.55018520e+00   3.51661590e-01  -2.59085750e-01
C     6.157249402100000e+00   3.597763913916172e+00   3.414843000000000e+00 -1.50910904e+00  -6.43133890e-01   4.20900540e-01
C     7.358724665600000e+00   2.914524127100186e+00   3.406791300000000e+00  1.63344149e+00  -2.76894495e+00   5.79870070e-01
C     8.623205082599998e+00   3.560994849399187e+00   3.489642300000000e+00 -4.26382500e-02   8.46009880e-01  -2.04767670e-01
C     9.856642719300000e+00   2.873897820769175e+00   3.603351600000000e+00 -3.50335780e-01  -1.58356261e+00  -6.00373800e-01
C     1.106435788380000e+01   3.577171321632709e+00   3.634956000000000e+00  1.39415846e+00   7.90237220e-01  -2.09177810e-01
C     3.725576547200000e+00   4.973124997738497e+00   3.602454600000000e+00 -1.04296406e+00   1.75050697e+00  -2.10033050e-01
C     4.958124220299999e+00   5.729899497984261e+00   3.485161500000000e+00 -2.43883865e+00  -9.43537650e-01   2.51093950e-01
C     6.112840504399999e+00   4.993934395498048e+00   3.423607200000000e+00  3.02406402e+00   9.15586080e-01  -2.28664650e-01
C     7.383938509699999e+00   5.692877934927383e+00   3.366668400000000e+00  7.48113000e-02  -5.99363590e-01  -2.27241100e-02
C     8.644191550300000e+00   4.986297019134630e+00   3.414183300000000e+00 -1.34637488e+00   3.65360480e-01   1.35566750e-01
C     9.836127066600000e+00   5.737380610455894e+00   3.438888900000000e+00  1.33806061e+00  -4.92634020e-01   4.96164000e-03
C     1.108631339230000e+01   5.016041637460454e+00   3.519134700000000e+00  3.64621380e-01  -1.73652910e-01   7.05154860e-01
C     1.235080071130000e+01   5.711939568021887e+00   3.575112000000000e+00 -8.76086300e-01   1.22421070e-01  -6.00718780e-01
C     4.909962951700000e+00   7.136952350692164e+00   3.453904800000000e+00  8.46550000e-03   3.05043760e-01  -1.16755530e-01
C     6.130358125500000e+00   7.845503386982862e+00   3.434956500000000e+00  1.61903250e+00  -4.84380010e-01  -4.68386830e-01
C     7.382044748799999e+00   7.093427904204241e+00   3.340589400000000e+00 -3.66979400e-02   2.24539500e+00   6.32985340e-01
C     8.617081233800000e+00   7.891205622703604e+00   3.370263000000000e+00 -3.08966020e-01  -2.54274005e+00   1.62901340e-01
C     9.874916898199999e+00   7.158807862625619e+00   3.400345800000000e+00 -1.57936336e+00  -1.87254830e-01  -5.05162960e-01
C     1.111130020990000e+01   7.824579566482879e+00   3.346396500000000e+00 -1.15779828e+00   6.80094920e-01   6.07660270e-01
C     1.231958626840000e+01   7.168170887616939e+00   3.453205500000000e+00  2.08515590e-01  -3.27431285e+00  -8.77740100e-02
C     1.352072959500000e+01   7.828302148101636e+00   3.422347800000000e+00  2.01048037e+00   1.99810023e+00   7.02885830e-01
