32
Lattice="9.956 0 0 4.978 8.62214892007787 0 0 0 30 " PBC="1 1 1" Properties=species:S:1:pos:R:3:force:R:3 Energy="-257.8914836"
C    -1.129903966851233e-03  -3.229668751882735e-04   2.999358630167786e+00  6.42980900e-02   1.14347800e-02   1.07070300e-02
C     1.244819786732556e+00   7.197322939458962e-01   2.999080533654604e+00 -6.03178600e-02  -6.70772900e-02   1.06999700e-02
C     2.488187563427570e+00  -6.015563104850571e-04   2.999796895028073e+00  2.04018000e-02   3.28726200e-02  -1.14644200e-02
C     3.732581606025356e+00   7.179908403686627e-01   2.999988316869846e+00  5.28534300e-02  -1.15093000e-02  -8.23180000e-04
C     4.979162373738887e+00  -5.042966306429886e-04   3.000377835019831e+00 -6.14073600e-02   6.62603100e-02   1.39807000e-03
C     6.222588640502164e+00   7.194757186684314e-01   3.000907485038286e+00  2.54893700e-02  -8.00986900e-02  -1.36112300e-02
C     7.468096486196786e+00  -9.810813182694323e-04   3.000281810353495e+00 -8.90175900e-02   5.74250900e-02   1.06707600e-02
C     8.710700012528664e+00   7.174525367071886e-01   3.001234376589053e+00  6.10579800e-02   3.11277300e-02  -1.97690700e-02
C     1.244142265929801e+00   2.156382182021791e+00   3.000343659753818e+00  1.17739600e-02  -1.38891700e-02  -2.01276000e-02
C     2.488277253812264e+00   2.875240444681289e+00   2.999100005884046e+00  4.16856600e-02  -7.08908800e-02   7.49369000e-03
C     3.733632472320351e+00   2.154956631887083e+00   2.999531300909117e+00 -5.52460000e-02   1.57935700e-02   6.59978000e-03
C     4.977579354878241e+00   2.873168113229186e+00   3.000798369577657e+00 -6.46603000e-03   4.40598400e-02  -1.12023400e-02
C     6.221656521315252e+00   2.155533106665903e+00   2.999579437289701e+00  3.03147700e-02  -8.35700000e-05   2.03640400e-02
C     7.466240462396797e+00   2.873169349337433e+00   3.000464760994724e+00  6.70078800e-02   5.04732300e-02  -8.43066000e-03
C     8.712731106945190e+00   2.155001490388061e+00   3.000164751726855e+00 -1.19420370e-01  -2.05158700e-02   2.40092000e-03
C     9.955054945486490e+00   2.872913070399320e+00   2.999148393527393e+00  3.30290000e-02   1.01549570e-01   2.04811700e-02
C     2.488833272571113e+00   4.310768849248769e+00   2.998905278986624e+00  3.55504300e-02   1.58224200e-02   5.59485000e-03
C     3.733810720458882e+00   5.029556495908385e+00   2.999780261429021e+00 -2.78712800e-02  -2.14680100e-02   6.10410000e-04
C     4.977879370250564e+00   4.311205404951917e+00   3.001082265401134e+00 -3.41997000e-03  -4.96266700e-02  -7.83972000e-03
C     6.221913626494662e+00   5.028386373878262e+00   3.000493849123463e+00  4.60609000e-02   8.86347500e-02   4.94150000e-04
C     7.467764976180844e+00   4.311428751320909e+00   3.000068457621418e+00 -5.49242700e-02  -6.88061100e-02  -2.01839000e-03
C     8.712327252868693e+00   5.029216281175112e+00   2.999227323881589e+00 -5.52234500e-02   4.88132600e-02   2.40246600e-02
C     9.954798521167309e+00   4.312270984457879e+00   3.000774138590623e+00  9.81301400e-02  -1.13970190e-01  -2.50618100e-02
C     1.120164691942122e+01   5.028374057628744e+00   2.999460173251937e+00 -9.90150100e-02   8.13102000e-02   7.31252000e-03
C     3.732821298783144e+00   6.465373990512547e+00   2.999624064410042e+00  2.71882200e-02   4.69136700e-02   5.90215000e-03
C     4.977850199241757e+00   7.184331429196241e+00   3.000019480308521e+00 -3.16396300e-02   3.77873400e-02  -6.49259000e-03
C     6.221959394939175e+00   6.467736836008847e+00   2.999937407556557e+00  4.31495000e-03  -1.12280260e-01  -5.35810000e-03
C     7.466402737840775e+00   7.184648731741017e+00   2.998808713233974e+00  1.39453500e-02   6.38997000e-03   2.23559000e-02
C     8.710959094206606e+00   6.466009188961211e+00   3.001114917241181e+00  3.49414000e-02   4.95851200e-02  -2.75611400e-02
C     9.956554878343667e+00   7.185943105646039e+00   3.000182838316287e+00 -5.53810000e-02  -7.05719300e-02   9.38822000e-03
C     1.119956235901494e+01   6.466808794035495e+00   3.000110047375941e+00  6.94513500e-02  -3.19445500e-02  -3.14208000e-03
C     1.244495690039259e+01   7.185387049278845e+00   3.000096314134367e+00 -1.81448800e-02  -5.35209800e-02  -3.59595000e-03
