32
Lattice="9.86 0 0 4.93 8.53901048131456 0 0 0 30 " PBC="1 1 1" Properties=species:S:1:pos:R:3:force:R:3 Energy="-256.59081217"
C     9.839336989600000e+00   1.453172219090592e-01   4.044760500000001e+00 -1.70753687e+00   2.50712834e+00   6.85226150e-01
C     1.168033841000000e+00   8.832479192176640e-01   4.100978400000000e+00  1.32604649e+00  -1.69886893e+00   2.01889700e-02
C     2.390385041600000e+00   1.375402327242944e-01   4.048935900000000e+00  2.73133610e+00   2.31164801e+00  -1.08659140e-01
C     3.674762494900000e+00   9.113842149195784e-01   4.014112799999999e+00 -6.21857680e-01  -2.08560482e+00  -3.23237000e-02
C     4.933885973900000e+00   1.513402129511272e-01   3.919645200000000e+00 -2.77966757e+00   1.85868078e+00   8.03894090e-01
C     6.119531056700000e+00   9.018504097186584e-01   3.975792900000000e+00  1.22554923e+00  -1.82297234e+00   1.91843140e-01
C     7.356974367699999e+00   1.723661600164504e-01   3.995533800000000e+00  4.03513350e-01  -3.79807880e-01   9.58311780e-01
C     8.588497389600001e+00   8.641753561897456e-01   4.146744000000000e+00 -2.72877370e-01   7.19284750e-01  -1.25064509e+00
C     1.103031071220000e+01   2.276147191274757e+00   4.184383500000000e+00  1.66239995e+00   7.38443650e-01  -2.02197770e-01
C     2.410514428800000e+00   3.017325445049115e+00   4.168308600000000e+00  6.10415940e-01  -8.56120800e-02  -6.70374420e-01
C     3.679209650700000e+00   2.326249408315633e+00   4.063881299999999e+00 -1.08720942e+00  -8.39060580e-01  -1.08620910e-01
C     4.917956108599999e+00   2.999532708911939e+00   3.967026600000001e+00 -1.03958308e+00   1.03525656e+00   8.83832550e-01
C     6.123396373900000e+00   2.284284270531463e+00   4.072122600000000e+00  7.71065610e-01   1.76228875e+00  -1.17666484e+00
C     7.372762939199999e+00   3.032248561324383e+00   4.043000100000000e+00 -1.14140796e+00  -2.78664733e+00   5.98639610e-01
C     8.567406553800000e+00   2.327840994479000e+00   4.114740599999999e+00  1.38010875e+00  -2.66044172e+00   2.08953860e-01
C     9.826677143999998e+00   2.963169845123488e+00   4.144219800000000e+00 -1.18689971e+00   2.46192716e+00   2.47436610e-01
C     1.229092137500000e+01   4.446903524282419e+00   4.063190400000000e+00 -1.15159305e+00  -1.07670069e+00   6.63151010e-01
C     3.669285314200000e+00   5.120186056367782e+00   4.022347500000000e+00 -5.42008410e-01   1.99139111e+00  -5.01226100e-01
C     4.870696241199999e+00   4.436490713342688e+00   3.964051500000000e+00  2.48200155e+00  -1.34512714e+00  -6.35936600e-02
C     6.145446834199999e+00   5.104908912718014e+00   3.931336800000000e+00 -1.38591894e+00   1.72610921e+00   6.15343660e-01
C     7.386188463100000e+00   4.388621959882961e+00   4.017195300000000e+00 -1.93700073e+00   2.85562192e+00  -8.42602620e-01
C     8.557859855300000e+00   5.132867597001945e+00   3.957099000000000e+00  2.80750847e+00  -4.16728740e-01   1.01038634e+00
C     9.816978404300000e+00   4.412741761225398e+00   4.121199000000000e+00 -3.15429830e-01   2.92924000e-03  -9.40999510e-01
C     1.103581150760000e+01   5.130950332978871e+00   4.062962700000000e+00  4.01694630e-01   1.59985597e+00  -4.78180640e-01
C     1.353208866010000e+01   6.563761537750216e+00   3.980513400000000e+00 -4.50842130e-01   7.69411400e-02   4.87529440e-01
C     4.897692181699999e+00   7.318830370652600e+00   3.974872800000000e+00 -2.06309200e-02  -3.44857491e+00   8.47276200e-02
C     6.107390586599999e+00   6.558308952608213e+00   3.979072200000000e+00  2.42534659e+00  -2.73386160e-01  -3.83807220e-01
C     7.423424408000000e+00   7.279955415371038e+00   3.991240200000000e+00 -3.77244454e+00  -8.82044760e-01  -1.25086050e-01
C     8.612958225499998e+00   6.549132334215671e+00   3.940714800000000e+00 -2.83914600e-01   3.39512270e-01   2.99761310e-01
C     9.824699228000000e+00   7.285930844124733e+00   3.981123900000000e+00  1.10852540e-01  -9.85531600e-02  -1.03678176e+00
C     1.103494816600000e+01   6.611662568669558e+00   3.924605700000000e+00  1.12018936e+00  -3.10052840e+00   1.45094090e+00
C     1.228486708850000e+01   7.265957671661489e+00   4.037711400000000e+00  2.38794240e-01   1.01364081e+00  -1.28840359e+00
