32
Lattice="9.86 0 0 4.93 8.53901048131456 0 0 0 30 " PBC="1 1 1" Properties=species:S:1:pos:R:3:force:R:3 Energy="-257.40129471"
C     4.979607237600000e+00   7.613613492712427e+00  -1.821635999999991e-01 -1.03390450e+00  -6.86206000e-03   1.35280480e-01
C     6.189794550599999e+00   8.324608564582711e+00  -1.577403000000004e-01  8.39872060e-01  -4.03356260e-01  -8.75920210e-01
C     7.414641514400000e+00   7.609362260954854e+00  -2.539212000000006e-01  1.12287744e+00  -7.69087030e-01   5.90437530e-01
C     8.672726587500000e+00   8.294640992693255e+00  -2.280881999999984e-01 -6.49200200e-02   1.75103918e+00   1.19040400e-02
C     9.923007322699998e+00   7.636029676073998e+00  -1.851017999999982e-01 -9.93030560e-01  -1.31142505e+00  -5.66756620e-01
C     1.114090840950000e+01   8.339651824735430e+00  -2.199291000000017e-01  5.80075550e-01  -3.50836700e-01   3.93658990e-01
C     1.235647548640000e+01   7.583645835432868e+00  -1.833489000000021e-01  1.15934512e+00   1.50447701e+00   3.14768400e-02
C     1.359426724980000e+01   8.322814689261072e+00  -1.143338999999983e-01 -8.81176700e-02  -5.71128980e-01  -5.55715010e-01
C     1.295317665600000e+00   1.196299656468717e+00  -2.096363999999973e-01 -1.17259909e+00   1.27613640e-01   9.57213430e-01
C     2.500664063700000e+00   1.888587378789311e+00  -1.834044000000006e-01  1.83423270e+00   1.48542011e+00  -7.51808760e-01
C     3.777098547500000e+00   1.212004177593009e+00  -2.311187999999973e-01 -1.72619245e+00  -1.14875242e+00   1.95618310e-01
C     4.982727483900000e+00   1.936681135175186e+00  -2.433347999999995e-01  3.76550660e-01  -8.56571920e-01   3.56721000e-03
C     6.242726629500000e+00   1.227754040862950e+00  -2.295528000000004e-01 -2.00975879e+00  -8.15570480e-01  -4.64194000e-02
C     7.435190937599999e+00   1.915097676115624e+00  -2.207484000000015e-01  1.58116773e+00   1.47846120e-01   3.47754330e-01
C     8.665631873799999e+00   1.196314685127162e+00  -1.272956999999977e-01  7.43242880e-01   5.00112970e-01  -2.99228470e-01
C     9.925870765300001e+00   1.921424485150570e+00  -1.490211000000023e-01 -1.16095432e+00  -1.34056628e+00  -5.96393000e-02
C     2.498500237400000e+00   3.339631932638602e+00  -2.372027999999986e-01 -3.53612860e-01  -3.60352920e-01   3.21932700e-01
C     3.721783208000000e+00   4.059200854151643e+00  -3.059697000000021e-01  6.70560380e-01  -9.06960570e-01   7.49931200e-01
C     4.948147280700000e+00   3.335838648013071e+00  -2.591877000000018e-01  1.58282422e+00   8.21213940e-01  -3.26238840e-01
C     6.238104409400000e+00   4.031411498445531e+00  -2.607621000000009e-01 -2.70236009e+00   9.00967770e-01  -2.96305100e-02
C     7.447158216800000e+00   3.328961243582375e+00  -2.456336999999991e-01 -8.72762600e-02   2.79817170e-01   4.55150600e-02
C     8.663291405599999e+00   4.037968775373333e+00  -2.221463999999997e-01  5.47506270e-01   3.79955600e-01   2.41220150e-01
C     9.877514071499998e+00   3.313037611449166e+00  -1.500833999999998e-01  1.52758270e+00   1.74883332e+00  -2.75672790e-01
C     1.113183701230000e+01   4.065396333205407e+00  -1.667681999999999e-01 -5.03072240e-01  -7.59220510e-01  -5.03681420e-01
C     3.762821020999999e+00   5.463020495931398e+00  -2.330463000000016e-01 -2.33092140e-01   5.27694150e-01  -6.92850390e-01
C     4.969390552100000e+00   6.196012998089315e+00  -2.848365000000008e-01  3.99938460e-01  -3.01300270e-01   8.15559620e-01
C     6.177130563800000e+00   5.473186700248467e+00  -2.553564000000001e-01  2.16132960e+00  -6.90464560e-01  -2.92965690e-01
C     7.445852604900000e+00   6.164600027895910e+00  -2.456831999999984e-01 -1.06071770e+00   9.55189830e-01  -1.09927580e-01
C     8.685209248900000e+00   5.472981849387052e+00  -2.330973000000007e-01 -4.19381580e-01  -3.25459230e-01   9.28996100e-02
C     9.906501436199999e+00   6.196997802167973e+00  -2.064570000000003e-01  8.44715450e-01   2.30596540e-01   1.11669500e-02
C     1.114700612930000e+01   5.487688245576337e+00  -2.208419999999975e-01  3.26377760e-01  -3.08513470e-01   2.85952200e-01
C     1.242491108420000e+01   6.179227779798674e+00  -2.225064000000003e-01 -2.68920871e+00  -1.34348640e-01   1.55366310e-01
