32
Lattice="9.86 0 0 4.93 8.53901048131456 0 0 0 30 " PBC="1 1 1" Properties=species:S:1:pos:R:3:force:R:3 Energy="-254.84606953"
C     1.936849100000000e-01   1.206234282821568e-01  -1.315169999999988e-01 -1.66375601e+00  -5.25284690e-01   1.57937250e-01
C     1.395357127000000e+00   8.131930233386960e-01  -1.949621999999991e-01  1.33714246e+00  -1.41335600e+00  -2.22188700e-01
C     2.665310928599999e+00   6.501243941031840e-02  -2.042676000000014e-01 -7.43385650e-01   1.37665811e+00   5.15951500e-01
C     3.879387124200000e+00   7.833891442801424e-01  -9.689850000000177e-02 -1.43766563e+00   1.69861848e+00   2.89884950e-01
C     5.068588610400000e+00   9.273621551594399e-02  -7.954679999999925e-02  8.75457220e-01  -1.87378533e+00   8.79500000e-05
C     6.316203546700000e+00   7.952893654553849e-01  -1.399985999999984e-01 -1.93287254e+00   3.82228040e-01   3.37382700e-02
C     7.485547288700000e+00   6.947227919391760e-02  -1.367562000000007e-01  3.76386193e+00  -6.91620360e-01   1.00115686e+00
C     8.781728246600000e+00   8.229408161422448e-01  -8.617800000000031e-02 -8.98498400e-01  -8.00586770e-01  -4.96094070e-01
C     1.372106655400000e+00   2.194046825652281e+00  -1.602648000000002e-01  1.70220537e+00   6.56859890e-01   1.03222669e+00
C     2.613411290300000e+00   2.884631527722745e+00   6.938849999999999e-02 -1.98765934e+00   1.35546910e+00  -1.51770192e+00
C     3.790306264000000e+00   2.237037840155518e+00   4.409520000000000e-02  3.34915971e+00  -2.62552211e+00  -1.77816760e-01
C     5.007244324600000e+00   2.972387706936648e+00   3.817380000000000e-02  1.88257073e+00  -2.38230309e+00  -9.72335070e-01
C     6.262288277900000e+00   2.227586265625521e+00  -1.594046999999996e-01  2.77292530e-01   2.93571590e-01   6.86522950e-01
C     7.505258365400000e+00   2.916376750813927e+00  -1.683038999999980e-01  7.28881460e-01   1.79831021e+00   3.06897570e-01
C     8.780234505899999e+00   2.266551649028067e+00  -9.660600000000130e-02 -1.22575193e+00  -2.69880962e+00  -5.69826840e-01
C     1.004317986880000e+01   2.907024655756021e+00  -9.985410000000172e-02 -1.71522941e+00  -8.64775410e-01   1.12947700e-01
C     2.681811392100000e+00   4.293747063802196e+00   4.192500000000000e-03 -2.65687116e+00   2.08667373e+00   1.50188643e+00
C     3.881669517000000e+00   5.048212444833958e+00   1.553793000000000e-01 -6.53480080e-01   1.44651498e+00  -4.52816300e-01
C     5.047875560500000e+00   4.351907630423153e+00   2.948580000000000e-02  3.20384538e+00   8.64491880e-01  -2.37607550e-01
C     6.331204649300000e+00   5.092653127146384e+00  -1.499261999999995e-01 -2.23166812e+00  -1.82426474e+00   6.54599490e-01
C     7.532806515200000e+00   4.388925692485734e+00  -1.548996000000002e-01 -6.96026330e-01  -2.12823110e+00   3.19794980e-01
C     8.715812470400000e+00   5.070508142757657e+00  -2.399399999998053e-03  4.58619155e+00  -2.82336928e+00  -4.59670550e-01
C     1.001504130220000e+01   4.253509794788655e+00   1.618560000000000e-02  1.28382870e-01   5.39566036e+00  -2.20587370e-01
C     1.127793021660000e+01   5.017411038571131e+00   1.224810000000000e-02 -7.10357710e-01  -1.74002900e-01  -1.20916320e-01
C     3.950951152100000e+00   6.488327065268849e+00   1.933953000000000e-01 -3.18154315e+00   4.42322000e-01  -1.91840078e+00
C     5.160250374900000e+00   7.242109410852316e+00  -6.136500000000211e-02 -1.60772603e+00  -1.53140693e+00   6.64170050e-01
C     6.344576584100000e+00   6.462931194200281e+00  -1.661067000000003e-01  1.91848409e+00   3.34557721e+00   2.44385350e-01
C     7.649684736699999e+00   7.227805202056639e+00  -1.633680000000020e-01 -2.20798845e+00  -3.02369851e+00  -1.95602660e-01
C     8.883648798799999e+00   6.444039914364853e+00  -5.405550000000048e-02 -6.53853183e+00   3.83391410e-01  -1.46086910e-01
C     9.974466416199999e+00   7.156508819443983e+00  -2.001089999999905e-02  6.25955932e+00   3.52113077e+00  -4.46870780e-01
C     1.126484170750000e+01   6.490101471646592e+00  -2.179229999999777e-02 -2.49941343e+00  -3.55907700e+00   5.79353960e-01
C     1.244331753500000e+01   7.122767773433312e+00   2.334420000000000e-02  4.57539057e+00   3.89261607e+00   5.29806400e-02
