26
Lattice="8.88768389401873 1.33226762955019e-15 0 4.44384194700937 7.69696003302603 0 0 0 30 " PBC="1 1 1" Properties=species:S:1:pos:R:3:force:R:3 Energy="-208.04663694"
C     1.234330297877981e+01   6.500960737565622e+00  -2.171681999999997e-01 -1.43680630e+00   1.87941531e+00   3.65910590e-01
C     8.510039806564560e+00   6.439371433706368e+00  -5.477100000000235e-02  2.66119529e+00  -2.68408053e+00  -9.76197590e-01
C     9.937276833740739e+00   6.002323188070111e+00  -2.027693999999975e-01 -1.67107928e+00  -8.01151430e-01   1.33916333e+00
C     1.028919045344967e+01   4.601257253188456e+00  -1.749587999999989e-01 -3.08731330e-01  -1.11152290e+00   1.79113000e-02
C     6.172674041278649e+00   5.771990042810754e+00  -1.675889999999995e-01 -3.66427120e-01  -1.18809964e+00   5.19106900e-02
C     7.555673688456627e+00   5.399918917990954e+00  -7.459290000000252e-02 -1.59373041e+00   5.66303630e-01  -4.24316630e-01
C     7.845890650834338e+00   4.016763424251108e+00  -1.483305000000001e-01  3.51824277e+00   9.56043210e-01   2.87009020e-01
C     9.263646519032626e+00   3.585665005687641e+00  -1.056896999999992e-01 -1.36684131e+00   1.83226146e+00  -3.65425540e-01
C     9.540493294154436e+00   2.208698175690316e+00  -1.159713000000018e-01  1.84174289e+00   5.81308250e-01  -7.51581350e-01
C     3.797378307474886e+00   5.134631876025761e+00  -3.003854999999973e-01 -6.29873990e-01   2.36162810e-01   5.97840030e-01
C     5.146764112054050e+00   4.779551174715382e+00  -2.755391999999972e-01  1.04612064e+00   1.06704570e-01   1.62102100e-02
C     5.491762980400893e+00   3.408634155301638e+00  -3.042693000000014e-01  9.02713370e-01   1.16125571e+00   1.87745180e-01
C     6.872734902525895e+00   3.077400021617006e+00  -2.717306999999991e-01 -1.05177619e+00  -3.41493585e+00   3.39670680e-01
C     7.224116461012809e+00   1.636390789629267e+00  -2.322953999999982e-01 -2.91145514e+00   1.78499731e+00   1.31686230e-01
C     8.537953796370346e+00   1.248952453200770e+00  -1.797006000000003e-01  9.17268210e-01  -2.64765630e+00   4.94671290e-01
C     2.784274997464112e+00   4.125826653940198e+00  -2.416295999999996e-01 -2.03636201e+00   3.35361853e+00  -7.57796010e-01
C     3.069967995464815e+00   2.801569298954716e+00  -3.795848999999976e-01  1.08338374e+00  -2.05127856e+00   1.60425071e+00
C     4.493290664529199e+00   2.465288961304815e+00  -2.833560000000013e-01 -2.46199573e+00  -2.67287675e+00  -1.19887334e+00
C     4.802550556142997e+00   1.050877652275146e+00  -2.801597999999998e-01 -1.89383753e+00   1.36260423e+00   8.27682450e-01
C     6.123026324821367e+00   7.116171286712293e-01  -1.768788000000008e-01  3.34680465e+00  -3.21013119e+00  -3.98866080e-01
C     1.094521239991039e+01   6.944504755649597e+00  -1.483944000000008e-01  1.14322154e+00   1.83950829e+00  -7.43348060e-01
C     2.018793980446457e+00   1.799179570023759e+00  -2.407196999999996e-01  7.45495900e-01   8.34905310e-01  -1.81859150e-01
C     2.358971769112287e+00   4.385737831142039e-01  -2.167139999999996e-01 -1.46699630e-01  -4.25693410e-01   4.09160870e-01
C     3.730536744395218e+00   7.532145024877610e-02  -1.724537999999995e-01  4.41068430e-01   1.12620493e+00  -3.14138180e-01
C     4.473177217027030e+00   7.512607138507057e+00  -1.538576999999997e-01 -3.24191022e+00   9.32669010e-01  -4.91155630e-01
C     5.765769699432806e+00   7.107279527576836e+00  -1.580097000000009e-01  3.47026878e+00   1.65346399e+00  -6.72650300e-02
