32
Lattice="9.86 0 0 4.93 8.53901048131456 0 0 0 30 " PBC="1 1 1" Properties=species:S:1:pos:R:3:force:R:3 Energy="-249.49987947"
C     9.746201894600000e+00   1.100447385248411e+00   3.915259800000000e+00 -1.54244103e+00   3.71944290e-01  -1.57592403e+00
C     1.091129982200000e+00   1.750781155888565e+00   3.725292900000000e+00  2.87206429e+00   1.30142309e+00  -7.82336290e-01
C     2.377511628400000e+00   1.064790526846446e+00   3.603197400000000e+00 -2.98429830e+00   9.80834420e-01   7.01082350e-01
C     3.548620852700000e+00   1.764545784612011e+00   3.352490700000000e+00  3.41735082e+00   1.31523625e+00   9.35055340e-01
C     4.875873579299999e+00   1.115654935962767e+00   3.403228800000000e+00 -1.21820770e-01  -1.63971367e+00   9.47123690e-01
C     6.162705038700000e+00   1.661016430629556e+00   3.543751500000000e+00 -7.67240690e-01   6.53973606e+00  -8.04693280e-01
C     7.426078374900000e+00   1.118847842761449e+00   3.871698000000000e+00 -3.20380689e+00  -6.13321000e-02  -1.16541368e+00
C     8.492984802099999e+00   2.025996281532423e+00   3.967138500000000e+00  3.62017829e+00  -4.11078687e+00  -2.53462158e+00
C     1.102321989320000e+01   3.152136610024002e+00   3.508210800000000e+00  5.75086220e-01   1.88456593e+00   1.91922190e-01
C     2.425306795200000e+00   3.926082633394522e+00   3.626582700000000e+00 -1.38682197e+00  -3.44912158e+00  -1.57437163e+00
C     3.657187932300000e+00   3.203302446210266e+00   3.441899700000000e+00 -2.52603208e+00  -1.69027523e+00  -1.19289217e+00
C     4.884250240900000e+00   3.834434373203834e+00   3.170092800000000e+00  5.19556530e-01   7.14956540e-01   3.78003146e+00
C     6.144041488399999e+00   3.205050808606047e+00   3.389144700000000e+00  1.09299976e+00  -1.39150493e+00   3.04787800e-02
C     7.327274371500000e+00   4.076720939684193e+00   3.541707000000000e+00 -1.89174210e-01  -2.15820684e+00   3.69915300e-02
C     8.593677932200000e+00   3.354286923984797e+00   3.419560500000000e+00 -1.84900353e+00  -1.31596038e+00   2.13879110e+00
C     9.854524051799999e+00   3.941495888871341e+00   3.212268000000000e+00 -4.86348820e-01  -1.68720260e-01   3.40371163e+00
C     1.220353929420000e+01   5.307196021626699e+00   3.581865300000000e+00 -1.47197072e+00  -1.42068702e+00   1.07532964e+00
C     3.518290210900000e+00   5.908347397434882e+00   3.638811000000000e+00  5.35448321e+00   4.42691177e+00  -1.14056333e+00
C     4.816861035600000e+00   5.174402454048027e+00   3.589992600000000e+00 -1.40532140e-01   5.03488206e+00  -1.94488603e+00
C     6.033344057200000e+00   6.075646850192920e+00   3.583275600000000e+00 -4.19872590e-01  -1.82110968e+00   1.41272307e+00
C     7.273843327300000e+00   5.471891930089384e+00   3.825525300000000e+00  2.98565816e+00  -8.16038190e-01  -4.29712135e+00
C     8.643804298799999e+00   6.218102308129712e+00   3.533622300000000e+00 -3.82446679e+00  -2.97782424e+00   2.94381983e+00
C     9.852500188200001e+00   5.328748484078218e+00   3.600819000000000e+00 -4.87855687e+00   7.01364470e-01  -2.65348604e+00
C     1.097927382390000e+01   5.982749674329428e+00   3.706213200000000e+00  3.53875273e+00   5.20356863e+00  -3.50437610e-01
C     1.339618729410000e+01   7.432708834556606e+00   3.556120800000000e+00  4.63133989e+00  -9.76944470e-01   1.13016624e+00
C     4.826151719199999e+00   8.216021213132532e+00   3.595078800000000e+00 -9.04092960e-01  -1.35158038e+00   1.16234267e+00
C     6.112976178000000e+00   7.464444323175840e+00   3.571009200000000e+00 -5.45608744e+00   1.87901340e+00   8.14515030e-01
C     7.228123345399998e+00   8.223757898187833e+00   3.765417600000000e+00  3.43993001e+00  -1.14161930e-01  -1.37366917e+00
C     8.495127429400000e+00   7.624097348219352e+00   3.677787000000000e+00  3.82893782e+00  -3.05205394e+00  -5.12401000e-03
C     9.822044521599999e+00   8.261918223682324e+00   3.657568500000000e+00 -2.58624413e+00  -5.23142660e-01  -6.77744300e-01
C     1.098236380000000e+01   7.479841866873376e+00   3.695441700000000e+00  2.03561019e+00   4.26287310e-01   3.39917480e-01
C     1.231348135080000e+01   8.237725669970597e+00   3.684104400000000e+00 -3.17313601e+00  -1.74155982e+00   1.02928249e+00
