32
Lattice="9.86 0 0 4.93 8.53901048131456 0 0 0 30 " PBC="1 1 1" Properties=species:S:1:pos:R:3:force:R:3 Energy="-256.98421315"
C     4.988491787800000e+00   7.736380724965692e+00  -2.332323000000009e-01 -1.25172630e+00  -3.09309900e-02   3.23478540e-01
C     6.199270010599999e+00   8.453027597092479e+00  -1.198917000000002e-01  8.47833360e-01  -1.23065198e+00  -1.40828455e+00
C     7.415005397700000e+00   7.711203196395099e+00  -3.238734000000001e-01  1.97468875e+00   7.96462580e-01   9.59009780e-01
C     8.687604686600000e+00   8.424818122070750e+00  -2.515202999999993e-01 -1.43422095e+00   7.95707520e-01   4.08631440e-01
C     9.920091276999999e+00   7.712740474451813e+00  -1.861107000000004e-01 -9.65597020e-01   1.14644605e+00  -5.70060740e-01
C     1.112159257090000e+01   8.454493318241370e+00  -1.846823999999998e-01  8.99166800e-01  -2.85228180e-01  -1.33114200e-02
C     1.235360376140000e+01   7.719993680733734e+00  -1.951341000000006e-01  6.52137400e-01   5.09280710e-01   5.96859080e-01
C     1.358935317370000e+01   8.427978153679085e+00  -1.915013999999999e-01  5.06545480e-01   8.56162050e-01  -8.71275400e-02
C     1.297147188600000e+00   1.315566748326230e+00  -9.339900000000512e-03 -1.10885570e+00   6.01504970e-01   3.98494930e-01
C     2.496748608400000e+00   2.025669664381563e+00   9.348990000000000e-02  1.51779851e+00   9.03273780e-01  -9.52926560e-01
C     3.729509011000000e+00   1.343838045783833e+00  -1.272084000000007e-01  3.87738230e-01  -1.33420298e+00   3.14965130e-01
C     4.957148721200000e+00   2.066469739575842e+00  -1.823817000000005e-01  7.81413600e-02  -7.44030600e-01   1.26166940e-01
C     6.212504743499999e+00   1.350358690356676e+00  -1.955646000000009e-01 -1.60019796e+00  -7.99777930e-01  -3.40262520e-01
C     7.416355281000000e+00   2.046422363111526e+00  -2.151804000000013e-01  1.67245565e+00  -2.68182820e-01  -3.61850800e-02
C     8.673211403700000e+00   1.324463970295866e+00  -1.677941999999994e-01  6.47311000e-03   1.50225400e-01   2.00821080e-01
C     9.929065602500000e+00   2.044255589202227e+00  -3.927239999999799e-02 -1.41200246e+00  -7.88482910e-01  -7.90863800e-02
C     2.531153648700000e+00   3.470151988676974e+00   1.444116000000000e-01 -6.45801950e-01  -1.95429610e-01  -1.93696800e-02
C     3.749621981300000e+00   4.204803364400839e+00   8.344500000000001e-03 -4.92034990e-01  -1.40177127e+00   7.45499200e-02
C     4.929484765700000e+00   3.474249859806326e+00  -1.984178999999990e-01  2.29278679e+00   6.80763010e-01   7.11200100e-02
C     6.208446367500000e+00   4.181904641557042e+00  -3.415533000000011e-01 -1.18720900e+00   1.44794880e-01   1.91530460e-01
C     7.422113274499999e+00   3.459470540467541e+00  -2.917590000000025e-01  3.72406860e-01   2.94947820e-01   3.30457550e-01
C     8.663755367899999e+00   4.159127343442271e+00  -1.767338999999986e-01  2.41012290e-01   9.68089700e-02  -2.17414260e-01
C     9.883617460800000e+00   3.456884842704093e+00   3.663000000000000e-03  1.52134272e+00   3.11691840e-01   1.88302720e-01
C     1.115967065840000e+01   4.180692358239196e+00   1.423770000000000e-01 -1.69713056e+00  -3.38164040e-01  -9.09528880e-01
C     3.769577487399999e+00   5.600671223451304e+00   2.096400000000000e-03  3.67755630e-01   1.05810371e+00  -1.42563700e+00
C     4.981094027000000e+00   6.314513713756249e+00  -2.951694000000025e-01  7.51658920e-01  -3.50796100e-02   8.01516860e-01
C     6.232264824400001e+00   5.619767354148148e+00  -4.038417000000010e-01 -6.94196390e-01  -1.44505844e+00   4.92074430e-01
C     7.486765639599999e+00   6.278519564440323e+00  -3.866876999999995e-01 -1.86471305e+00   1.48343311e+00   4.35275900e-02
C     8.690459156599999e+00   5.581246511631190e+00  -2.538555000000002e-01 -1.84485900e-02  -2.71495400e-01  -7.84421200e-02
C     9.895916183899999e+00   6.309857305951399e+00  -1.693424999999991e-01  1.07822034e+00  -1.01778289e+00   2.01638310e-01
C     1.111692691750000e+01   5.587129121340968e+00  -2.939130000000034e-02  2.10834581e+00   7.20593430e-01   6.02186250e-01
C     1.241812484060000e+01   6.312031081849293e+00  -3.373919999999941e-02 -2.90437309e+00  -3.63930170e-01  -1.87694270e-01
