32
Lattice="10.084 0 0 5.042 8.73300017176228 0 0 0 30 " PBC="1 1 1" Properties=species:S:1:pos:R:3:force:R:3 Energy="-257.02553949"
C     2.819176848427995e-03   8.640403869344864e-04   3.004237757741124e+00 -1.34587370e-01  -6.74886600e-02  -4.71644200e-02
C     1.260726173356528e+00   7.267155487576711e-01   2.997584744973866e+00  6.62644600e-02   4.72048900e-02   6.82910500e-02
C     2.521594973783883e+00   3.518644541069845e-03   2.998762302381528e+00  8.21174000e-02  -7.21092200e-02   1.75827300e-02
C     3.785647603137217e+00   7.282834903886258e-01   3.002861942844790e+00 -1.78115870e-01   4.98558300e-02  -4.63330500e-02
C     5.041728984137881e+00   1.981818288165841e-04   2.997907643094513e+00  1.26234030e-01   2.75110500e-02   1.19657800e-02
C     6.303494556118971e+00   7.296792395152191e-01   2.997160936811623e+00 -4.78231500e-02  -1.36156140e-01   5.28655000e-02
C     7.560622570313265e+00  -5.701433266755577e-04   3.003601152236345e+00  1.86701480e-01   3.13509000e-03  -6.70810700e-02
C     8.825944380359212e+00   7.277671038078867e-01   3.002885229789038e+00 -1.45545380e-01  -2.14136800e-02  -7.77587000e-03
C     1.258792278617949e+00   2.180276923826943e+00   3.002890458850940e+00 -1.68596500e-02   1.35314880e-01  -7.48514100e-02
C     2.516912319313898e+00   2.912826097970620e+00   3.001286361635053e+00  1.92562100e-01  -6.16121300e-02   3.63989800e-02
C     3.784513778160433e+00   2.185365190260617e+00   3.003334585966432e+00 -2.27534250e-01  -5.09800100e-02  -2.19867600e-02
C     5.040416533844605e+00   2.908403851518382e+00   2.999855311553433e+00  1.84330480e-01   2.04767600e-01   2.23451400e-02
C     6.302971417958588e+00   2.179965425078633e+00   2.999929761637060e+00 -1.01358900e-02   2.04489440e-01  -3.50916400e-02
C     7.563144934051158e+00   2.912109041971201e+00   2.996548139558671e+00 -5.61527300e-02  -2.55488300e-02   2.44706200e-02
C     8.821176381012647e+00   2.184950045761974e+00   2.997388556575255e+00  3.39025100e-02  -1.20497630e-01   9.86805000e-03
C     1.008048431323117e+01   2.907713037880548e+00   2.996347010077513e+00  1.66654950e-01   1.54175800e-01   6.38965500e-02
C     2.523771425600238e+00   4.369378834584468e+00   3.002652535238776e+00 -2.20412530e-01  -1.04970190e-01  -4.41429000e-02
C     3.781757020411220e+00   5.091669698898888e+00   3.000841971711941e+00  1.78263920e-01   2.36619970e-01  -1.26952500e-02
C     5.046151542622296e+00   4.369791353564616e+00   2.999927861624581e+00 -1.85430610e-01  -2.83210600e-01   1.38608000e-03
C     6.304786496245655e+00   5.091552129715906e+00   2.999342781780180e+00  1.62332300e-02   2.03156980e-01  -1.15836000e-03
C     7.565601707818404e+00   4.369065840598815e+00   2.998612910136059e+00 -1.07068880e-01  -2.39687420e-01   8.04510000e-03
C     8.820843946142684e+00   5.091436397182423e+00   3.002270077677519e+00  1.93879860e-01   2.48852960e-01  -1.31209800e-02
C     1.008591582186401e+01   4.365897679391393e+00   3.001655249421980e+00 -1.25005620e-01  -2.33859600e-02  -4.75616500e-02
C     1.134322004652280e+01   5.097793914219656e+00   2.998148419221676e+00  7.45287900e-02  -1.42474100e-01   8.11279600e-02
C     3.784189473825343e+00   6.552544413840893e+00   2.997876876004756e+00 -1.95844250e-01  -1.83312320e-01   3.60375800e-02
C     5.040367119317477e+00   7.277108323784816e+00   3.002372822596632e+00  2.31236980e-01  -7.56760000e-04  -2.27326100e-02
C     6.305201988389658e+00   6.546697177403556e+00   3.000324630570829e+00 -1.07649630e-01   1.52409840e-01   5.33229000e-03
C     7.565055508212669e+00   7.280647120976242e+00   2.999850193271584e+00 -1.36988150e-01  -6.29114600e-02   7.20128000e-03
C     8.819544540729769e+00   6.552510452777081e+00   3.002408556777719e+00  2.90615650e-01  -1.14021090e-01  -3.23351700e-02
C     1.008785769466091e+01   7.279216782449236e+00   2.997605254239877e+00 -3.15915560e-01  -4.65034100e-02   6.42071200e-02
C     1.134242844394239e+01   6.550752505078808e+00   3.004186419349929e+00  1.03180320e-01  -1.99177200e-02  -1.07183870e-01
C     1.260342182681308e+01   7.275875770008661e+00   2.997711547963574e+00  8.43633700e-02   1.09462980e-01   7.01932000e-02
