32
Lattice="9.86 0 0 4.93 8.53901048131456 0 0 0 30 " PBC="1 1 1" Properties=species:S:1:pos:R:3:force:R:3 Energy="-254.77154714"
C     6.252227972000000e-01   1.073744704015984e+00   3.995244600000000e+00  2.32243825e+00   2.61559202e+00  -2.69931360e-01
C     1.970493293400000e+00   1.744450504298902e+00   3.978599700000000e+00 -3.71166081e+00   2.03988969e+00  -8.22669880e-01
C     3.167272633300000e+00   1.041443762122764e+00   3.752639400000000e+00 -3.30475550e-01   4.04284332e+00   8.75655240e-01
C     4.301409914200000e+00   1.931796394230102e+00   3.761690100000000e+00  1.55193477e+00  -1.15670841e+00  -9.91110310e-01
C     5.540090014300000e+00   1.235653991798626e+00   3.733053900000000e+00  8.09532380e-01  -1.38634190e+00   1.60460315e+00
C     6.804270292900000e+00   1.826363780201761e+00   3.844083000000000e+00 -1.19535900e-02   3.71967339e+00  -8.46075840e-01
C     8.010131087200000e+00   1.179275772835160e+00   3.902514300000000e+00  2.18487073e+00  -3.06535576e+00  -4.44055580e-01
C     9.272323441899999e+00   1.816739290709543e+00   3.878978400000000e+00  8.92746350e-01   1.89045660e+00   1.18078744e+00
C     1.899310699600000e+00   3.235291031100128e+00   3.936118500000001e+00  1.48171552e+00  -1.44427550e+00  -5.78100100e-01
C     3.088349249300000e+00   4.010125709291302e+00   3.792591600000001e+00  1.04577328e+00  -1.57763940e-01   4.32205730e-01
C     4.353566652000000e+00   3.371973093271182e+00   3.717062700000000e+00 -5.58792750e-01  -3.12393287e+00   2.49200900e-02
C     5.642468218399999e+00   3.948550136209078e+00   3.660454500000000e+00  8.49506680e-01   1.93914177e+00   5.26059910e-01
C     6.905415158899999e+00   3.275518224081303e+00   3.747385200000000e+00 -1.70806661e+00  -1.94591766e+00   5.40851470e-01
C     8.138253554099999e+00   3.937787482009981e+00   3.865713000000000e+00 -1.54605360e+00   3.20610889e+00  -1.00085081e+00
C     9.350913459299999e+00   3.280907535155650e+00   3.935181899999999e+00 -8.50175320e-01  -2.67558644e+00  -8.37064360e-01
C     1.055832330890000e+01   3.974151712040110e+00   3.870204000000000e+00  3.70865510e-01  -3.13340912e+00   1.16501168e+00
C     1.297516149800000e+01   5.413293909961538e+00   3.843811800000000e+00 -2.24554200e-01   9.72805010e-01  -4.34309530e-01
C     4.403737487200000e+00   6.076030422543681e+00   3.736551000000000e+00 -2.71775300e-02   1.35063763e+00   9.65181170e-01
C     5.711989057100000e+00   5.368430375850141e+00   3.725748600000000e+00 -4.27349995e+00  -4.51653200e-02  -2.59137810e-01
C     6.896390843199999e+00   6.067339076116718e+00   3.785872200000000e+00 -1.04748531e+00   3.48498402e+00   5.10734450e-01
C     8.086698719999999e+00   5.434266232041046e+00   3.756873600000000e+00  3.17685692e+00  -3.32079063e+00   7.78185350e-01
C     9.345616568699999e+00   6.097974569405919e+00   3.841873200000000e+00 -2.13630080e-01  -6.60293150e-01   6.76833700e-02
C     1.054976882220000e+01   5.321472222468002e+00   3.932002800000000e+00 -1.41607196e+00   3.79505784e+00  -3.31737470e-01
C     1.167757997640000e+01   6.110877953532352e+00   3.953160300000000e+00  4.59508071e+00   8.94697470e-01  -3.46935460e-01
C     4.383572604000000e+00   7.552368464725885e+00   3.855743700000000e+00 -5.01088250e-01  -2.16342786e+00  -1.51676970e-01
C     5.584771787499999e+00   8.250476205809438e+00   3.990680400000000e+00  2.26690750e+00  -2.54176519e+00  -5.30639790e-01
C     6.889324329100000e+00   7.522492772589194e+00   3.951190200000000e+00 -9.42370090e-01  -9.28359200e-02  -1.77600210e+00
C     8.130665446000000e+00   8.209892423750619e+00   3.700840500000000e+00 -1.56083560e-01  -2.46779465e+00   1.86489624e+00
C     9.407685465900000e+00   7.495671911451725e+00   3.817340700000000e+00 -1.53869525e+00   2.64221884e+00  -4.56948400e-02
C     1.056369217750000e+01   8.374131836713042e+00   3.954324600000000e+00 -6.86927920e-01  -3.88575901e+00  -1.64277839e+00
C     1.178022025930000e+01   7.553502189147315e+00   3.938684700000000e+00 -1.17202733e+00   1.17085240e+00  -5.13523000e-03
C     1.301418353260000e+01   8.266620485973450e+00   3.849402299999999e+00 -6.31438950e-01  -4.97835570e-01   7.77130550e-01
