26
Lattice="8.88768389401873 1.33226762955019e-15 0 4.44384194700937 7.69696003302603 0 0 0 30 " PBC="1 1 1" Properties=species:S:1:pos:R:3:force:R:3 Energy="-208.84360912"
C     1.277474168433961e+01   7.032122330455100e+00  -2.735418000000003e-01  7.89396140e-01  -3.67185600e-01   2.84864400e-02
C     8.993371431942240e+00   6.883637657549960e+00  -3.977400000000131e-02  1.65781424e+00  -2.14207080e-01  -1.91498580e-01
C     1.040411029596248e+01   6.462986630713612e+00  -1.795530000000056e-02 -7.08319350e-01   1.15826196e+00  -7.59180700e-01
C     1.072504562685586e+01   5.082785153263680e+00  -6.433110000000042e-02  1.47137850e+00   2.93073980e-01  -6.84335800e-02
C     6.625281254553578e+00   6.271742958784213e+00  -2.277570000000004e-01  7.89893700e-02  -1.78070262e+00   7.30428200e-02
C     7.983609268951154e+00   5.897800010254716e+00  -5.310240000000022e-02  3.23458080e-01  -5.16923590e-01   1.15030950e-01
C     8.336219638641566e+00   4.501230254574587e+00   4.108230000000000e-02  8.17400280e-01   7.90999560e-01  -7.22272030e-01
C     9.729257880320668e+00   4.107279828143109e+00  -2.189969999999875e-02 -1.42765032e+00  -7.72838290e-01  -6.63125600e-02
C     1.005828033697451e+01   2.722233807080695e+00  -1.765220999999997e-01 -5.85753910e-01  -2.52458280e-01   4.88640060e-01
C     4.251314229507819e+00   5.659705481409909e+00  -3.029226000000023e-01 -1.96309660e-01  -1.05311644e+00   2.80827470e-01
C     5.629317087459014e+00   5.243657852428305e+00  -2.898341999999978e-01 -7.32863410e-01   9.41038180e-01  -3.11183830e-01
C     5.969065823171979e+00   3.862925053827502e+00  -3.177492000000015e-01 -1.58282620e-01   1.52488778e+00   1.22793346e+00
C     7.336544641374216e+00   3.539932055246990e+00  -8.520899999999898e-02 -7.92982560e-01  -2.46739011e+00  -7.62327260e-01
C     7.652376353075127e+00   2.107556349385701e+00  -1.502295000000018e-01  5.66373180e-01   2.11125619e+00   1.00185500e-02
C     9.001991993145628e+00   1.730835029194177e+00  -1.926036000000018e-01  1.65523231e+00  -1.24635958e+00  -2.11927270e-01
C     3.219670588779038e+00   4.673076124805981e+00  -2.241356999999979e-01 -4.05838990e-01   5.91973910e-01  -1.41873700e-01
C     3.550481069680478e+00   3.292048224757628e+00  -2.989367999999999e-01  5.69849120e-01   1.12364014e+00   5.15199290e-01
C     4.911230000296715e+00   2.924054410574519e+00  -3.021878999999998e-01  1.15325082e+00  -1.52550878e+00  -4.06072460e-01
C     5.273708143218014e+00   1.527354653239483e+00  -2.576592000000026e-01 -6.71086270e-01   7.74093710e-01   3.56010640e-01
C     6.642212289037934e+00   1.151579982162047e+00  -2.140304999999998e-01 -4.02527260e-01  -1.37083541e+00   1.17130070e-01
C     1.145494062423523e+01   7.450621441206260e+00  -1.853049000000020e-01 -2.60451535e+00  -1.57589860e-01   4.04947080e-01
C     2.547464747652775e+00   2.327815944266594e+00  -2.283131999999988e-01 -1.72267399e+00  -9.74525860e-01  -5.41185360e-01
C     2.845491317862793e+00   9.418345886213347e-01  -2.726553000000003e-01  1.31296780e-01  -6.18880740e-01   3.12507170e-01
C     4.225219719671613e+00   5.725553821132162e-01  -1.847001000000006e-01 -1.42616460e-01  -9.50983330e-01  -1.86843130e-01
C     4.584156700682744e-01   2.902022555215047e-01  -2.965280999999997e-01 -3.86534700e-02   2.65677627e+00   1.42693580e-01
C     6.249135053604827e+00   7.603854060875506e+00  -3.039290999999977e-01  1.37563479e+00   2.30350391e+00   2.96642900e-01
