32
Lattice="9.86 0 0 4.93 8.53901048131456 0 0 0 30 " PBC="1 1 1" Properties=species:S:1:pos:R:3:force:R:3 Energy="-251.93922067"
C     5.453499247800000e+00   8.122222232372248e+00  -3.892296000000002e-01  1.42707250e-01  -8.97210300e-01  -3.43256030e-01
C     1.764704888300000e+00   2.185540092631896e-01  -4.647186000000012e-01 -4.10012990e-01   6.39303950e+00   1.30348898e+00
C     7.914177609799999e+00   8.192575822837806e+00  -4.231523999999993e-01 -7.40770080e-01  -5.10916320e+00  -1.38830493e+00
C     4.206289951900000e+00   2.940376664449224e-01  -5.966838000000010e-01  1.34943963e+00  -2.45511010e+00   2.07129797e+00
C     1.038673870150000e+01   8.170555166441668e+00  -3.964116000000004e-01 -3.41842710e-01  -3.56393450e+00  -1.76662918e+00
C     6.707371290799998e+00   2.507005658469312e-01  -6.263585999999997e-01  5.42897280e-01  -1.67544919e+00   1.39287681e+00
C     1.285283597160000e+01   7.978169296354857e+00  -5.616929999999982e-01  3.78793390e-01   3.76056247e+00   1.81410387e+00
C     9.166371776599998e+00   2.237850924733424e-01  -4.194834000000007e-01 -1.49162620e+00   3.00485070e+00  -8.90426830e-01
C     1.830936924000000e+00   1.780155351939765e+00  -3.894009000000018e-01 -4.52090518e+00  -2.26878839e+00  -2.31019963e+00
C     2.967155256499999e+00   2.510692547024262e+00  -3.267045000000017e-01  3.30829751e+00  -6.14490760e+00  -1.59798590e-01
C     4.294669174500000e+00   1.575499606914033e+00  -3.472964999999988e-01 -5.64495480e-01   9.70347126e+00  -3.61153650e-01
C     5.574459361400001e+00   2.344630226104567e+00  -3.580034999999988e-01 -3.26377762e+00   1.27955730e-01  -6.65951800e-01
C     6.774349284800000e+00   1.655906772148429e+00  -5.561165999999993e-01 -2.75469951e+00  -4.01608810e-01   5.70239640e-01
C     7.895964957299999e+00   2.385066283282082e+00  -4.724657999999984e-01  5.45641139e+00   3.94535254e+00  -1.09794834e+00
C     9.167291566699999e+00   1.782029750130230e+00  -4.598657999999993e-01  6.59488090e-01  -3.05840816e+00  -1.73037569e+00
C     1.042645374620000e+01   2.524323113283171e+00  -7.326492000000009e-01 -6.98423170e-01  -2.60732541e+00   3.32370336e+00
C     2.898184310000000e+00   3.842264218863470e+00  -3.234969000000021e-01  7.19619047e+00   2.30600567e+00   5.98025870e-01
C     4.273249014699999e+00   4.499710899843359e+00  -2.920034999999999e-01 -9.90014270e-01   1.58604265e+00  -3.16880820e-01
C     5.522132933000000e+00   3.804710846233898e+00  -3.735524999999988e-01 -4.57171830e-01  -1.04217675e+00   8.59602980e-01
C     6.745134400600000e+00   4.538631965781513e+00  -4.060284000000003e-01 -1.03201675e+00   2.57700971e+00  -1.52964377e+00
C     7.995316437200000e+00   3.916725927270957e+00  -5.810352000000023e-01 -3.98831709e+00  -3.80680731e+00   9.56856240e-01
C     9.146423961299998e+00   4.624752241367658e+00  -6.535674000000000e-01  1.67444123e+00   6.53915020e-01   2.73254200e-01
C     1.037763521000000e+01   3.929852094180813e+00  -6.374811000000022e-01  1.79906974e+00  -5.67367360e-01   4.89409470e-01
C     1.164901432390000e+01   4.565668095373185e+00  -3.171011999999997e-01 -5.55137048e+00   2.67945518e+00  -7.44481500e-01
C     4.291799865200000e+00   5.968379629762951e+00  -3.295743000000009e-01 -3.89044119e+00  -2.52990712e+00   1.02708887e+00
C     5.438881403400000e+00   6.713985189690979e+00  -4.064330999999974e-01  8.13546850e-01  -6.86509500e-02  -3.17588990e-01
C     6.662072577399999e+00   6.047134411079361e+00  -5.266041000000001e-01 -9.72188270e-01  -4.19758306e+00   9.72165230e-01
C     7.827526647999999e+00   6.706405622428512e+00  -5.134457999999995e-01  4.44306528e+00   3.00280144e+00   4.97524000e-03
C     9.105945752600000e+00   6.042898720320863e+00  -5.423195999999990e-01 -2.05916445e+00  -1.62339993e+00   3.66587300e-01
C     1.028762701680000e+01   6.668160589950059e+00  -3.015188999999978e-01  3.76501973e+00   3.88906529e+00  -2.71326890e-01
C     1.155815393090000e+01   6.004644892661615e+00  -1.685588999999972e-01  2.38351890e-01  -2.07283858e+00  -7.38889620e-01
C     1.281250876880000e+01   6.629266763455336e+00  -2.185199999999980e-01  1.95951752e+00   4.61109600e-01  -1.39081980e+00
