26
Lattice="8.88768389401873 1.33226762955019e-15 0 4.44384194700937 7.69696003302603 0 0 0 30 " PBC="1 1 1" Properties=species:S:1:pos:R:3:force:R:3 Energy="-208.54499984"
C     1.250825505907165e+01   6.770204016986236e+00   1.481670000000000e-02  1.37922714e+00   1.57966651e+00  -9.75830000e-04
C     8.728349763573817e+00   6.566229188319215e+00   9.069060000000000e-02  1.67182289e+00  -2.02634278e+00  -1.07269589e+00
C     1.013633531199705e+01   6.138297914868891e+00  -4.630829999999975e-02 -1.29464588e+00   1.71821986e+00   1.58237014e+00
C     1.039659891325006e+01   4.752411847588803e+00   3.669330000000000e-02  3.32885951e+00   8.25680210e-01   2.73288200e-01
C     6.377612255741202e+00   5.987980364871807e+00  -3.899099999999933e-02 -5.38753920e-01  -1.97686635e+00   2.96951570e-01
C     7.716518681049129e+00   5.519941079370757e+00   4.428570000000000e-02  3.99680870e-01   3.18512941e+00   4.16816200e-02
C     8.042164484428923e+00   4.177788754133128e+00   7.473000000000000e-02  6.01730950e-01  -1.16976627e+00  -3.34533200e-01
C     9.425085608899940e+00   3.775247904551367e+00   7.701390000000000e-02 -1.10795785e+00  -9.28244410e-01  -7.19735900e-02
C     9.804823767256872e+00   2.387777341079503e+00   6.237030000000000e-02 -1.45918709e+00   1.22575446e+00  -4.51829200e-01
C     3.972955258374748e+00   5.442173227346046e+00   5.375670000000000e-02 -5.67760670e-01  -3.93704402e+00   6.46171600e-02
C     5.344796596140895e+00   5.006041227831759e+00  -9.510900000002209e-03 -1.12930973e+00   1.60690580e-01   3.47334120e-01
C     5.633448215181412e+00   3.604309967725112e+00   5.711940000000000e-02  1.27255862e+00   1.41884827e+00   8.79631200e-02
C     7.003969020906771e+00   3.216803051382749e+00   4.467330000000000e-02  6.13434600e-02  -8.90667240e-01   2.43099670e-01
C     7.339311731763035e+00   1.825827523222023e+00   4.786140000000000e-02  1.55893058e+00   1.30049672e+00  -2.04943440e-01
C     8.726223648512647e+00   1.453902640642793e+00  -1.408260000000183e-02  1.23733096e+00  -1.39353313e+00   6.31571440e-01
C     2.924833318393204e+00   4.363689119440100e+00   1.361196000000000e-01 -1.56116480e-01   2.89527364e+00  -1.25363824e+00
C     3.282733193191061e+00   3.029173025217834e+00   5.297670000000000e-02 -1.30437450e-01  -7.78510140e-01   9.71995650e-01
C     4.629954224588150e+00   2.647942364023133e+00   1.369941000000000e-01  5.51702850e-01  -1.93357515e+00  -1.09153905e+00
C     5.013277407984027e+00   1.242361469357481e+00   5.947350000000001e-02 -2.82482596e+00   3.71478170e-01   6.88131360e-01
C     6.331673947430475e+00   8.657284332975000e-01   5.813520000000000e-02  1.52412546e+00  -2.10832834e+00  -1.64034320e-01
C     1.117741242930700e+01   7.161086973936958e+00   3.728460000000000e-02 -2.61893626e+00  -2.14282820e-01  -5.24829680e-01
C     2.286720854860010e+00   2.016784329451105e+00   3.430979999999999e-02 -1.05801714e+00   5.96587000e-03   1.50707400e-01
C     2.597065888270764e+00   6.522587886766716e-01   4.005150000000000e-02  6.35829640e-01  -1.22677147e+00  -2.43264140e-01
C     3.968083737691726e+00   2.248113461338343e-01   8.321819999999999e-02 -1.76872650e-01   1.58318775e+00  -2.07535400e-01
C     2.440721974343944e-01   5.883148308050410e-02  -2.102100000000107e-02 -2.76598486e+00   4.13618560e-01  -1.48810590e-01
C     6.008847987286469e+00   7.333423987187866e+00  -4.228529999999964e-02  1.60566303e+00   1.89992210e+00   3.90891110e-01
