32
Lattice="9.86 0 0 4.93 8.53901048131456 0 0 0 30 " PBC="1 1 1" Properties=species:S:1:pos:R:3:force:R:3 Energy="-254.02399213"
C     5.058508683099999e+00   8.288346717288238e+00  -4.051313999999984e-01 -4.18606761e+00  -2.20907453e+00  -7.70548130e-01
C     1.293044097500000e+00   4.378742239367496e-01  -4.927829999999993e-01  2.18424829e+00  -2.76603160e-01  -5.99547800e-01
C     7.436491668799999e+00   8.188284628511187e+00  -4.541819999999994e-01 -2.27162870e-01   1.71598093e+00  -3.16754610e-01
C     3.719135995200000e+00   3.443403794518688e-01  -5.999091000000014e-01  1.46249582e+00   3.43014442e+00   1.44875057e+00
C     9.916077468199999e+00   8.287448498775847e+00  -5.598515999999982e-01  3.48173790e-01  -1.34278874e+00  -9.24158050e-01
C     6.254384304699999e+00   4.688517045956744e-01  -6.863552999999989e-01 -9.33129850e-01  -2.25092737e+00   9.51370930e-01
C     1.238881520180000e+01   8.190194292814935e+00  -6.907227000000020e-01  5.55748720e-01   3.41470845e+00   6.34102570e-01
C     8.668949961000001e+00   4.326545830006400e-01  -4.936653000000000e-01  2.43674722e+00  -2.72698420e+00  -1.73675850e-01
C     1.356977619300000e+00   1.838463045711292e+00  -7.569090000000003e-01  1.84798410e-01   2.06204100e-01   2.81174037e+00
C     2.587875517200000e+00   2.553405104395746e+00  -5.454420000000013e-01 -1.35646511e+00  -3.69153382e+00  -1.19372945e+00
C     3.800050359700000e+00   1.814570723608042e+00  -4.703640000000000e-01 -1.59659660e-01   3.57211750e-01  -1.35315846e+00
C     5.025899986899999e+00   2.605350381458625e+00  -5.086122000000017e-01 -1.32560320e-01  -4.91830538e+00   5.43398360e-01
C     6.293665953100001e+00   1.871831620084826e+00  -5.578277999999983e-01 -1.01384562e+00   1.42721900e-02  -1.44467000e-03
C     7.537357644699999e+00   2.519276472699386e+00  -5.040252000000010e-01  9.32067900e-02   1.99746785e+00   1.61689970e-01
C     8.747544809800001e+00   1.803299998285385e+00  -4.215087000000004e-01  8.84145390e-01   2.55172611e+00  -1.53812674e+00
C     1.005084927260000e+01   2.594724180646999e+00  -5.906577000000013e-01 -3.56161319e+00  -1.33968883e+00   8.93548570e-01
C     2.436361432800000e+00   3.884285030995970e+00  -6.352911000000034e-01  4.38583208e+00   5.65427029e+00  -8.09136000e-03
C     3.692604904400000e+00   4.636451625016411e+00  -7.379226000000010e-01  2.51450193e+00  -2.80190780e-01   2.90845681e+00
C     4.965860129799999e+00   3.952282196129467e+00  -4.493175000000029e-01  9.21300860e-01   2.19015629e+00  -2.26401245e+00
C     6.271044993199999e+00   4.617244145622909e+00  -5.441016000000012e-01 -1.94919390e+00   2.73544554e+00   1.09741338e+00
C     7.533683414300000e+00   3.977352816288852e+00  -5.317955999999988e-01 -1.36260286e+00  -8.13317250e-01  -2.92380000e-01
C     8.705073254200000e+00   4.754891457538623e+00  -5.944752000000015e-01  1.42337493e+00  -2.23637175e+00   1.46286370e+00
C     9.969111647399998e+00   4.016690927498850e+00  -4.388133000000032e-01 -7.63451420e-01   5.59852820e-01  -1.64673984e+00
C     1.119945837130000e+01   4.741187968130213e+00  -5.096477999999998e-01 -3.01099496e+00  -2.00767247e+00  -4.40548650e-01
C     3.837010323199999e+00   6.029751889005644e+00  -5.672385000000020e-01 -3.23292468e+00   2.59715433e+00  -1.55808092e+00
C     5.055127935600000e+00   6.813841744485775e+00  -4.711718999999981e-01 -2.58592857e+00   8.31232570e-01   4.46914280e-01
C     6.213898848900000e+00   6.118230639286366e+00  -4.292240999999990e-01  2.54472410e+00  -3.64142622e+00  -5.08697600e-01
C     7.447364290800000e+00   6.793221912758882e+00  -3.932138999999992e-01 -1.17359470e+00   1.14363951e+00  -7.18438000e-01
C     8.664124033300000e+00   6.162741939215461e+00  -5.488305000000011e-01  1.24137000e-03  -1.97191232e+00   6.51920650e-01
C     9.847013739099999e+00   6.848826155812441e+00  -5.281307999999996e-01  4.18292467e+00   1.14235730e+00  -6.28098730e-01
C     1.111892968070000e+01   6.135743466660007e+00  -5.965497000000006e-01  1.66030708e+00   6.95746680e-01  -2.52757700e-01
C     1.241053816220000e+01   6.807037519374894e+00  -7.208658000000021e-01 -1.34576140e-01  -1.53077432e+00   1.17681883e+00
