32
Lattice="9.86 0 0 4.93 8.53901048131456 0 0 0 30 " PBC="1 1 1" Properties=species:S:1:pos:R:3:force:R:3 Energy="-256.22657456"
C     1.243881891000000e+00   9.467984800338063e-01   3.625375800000000e+00 -4.00304923e+00  -7.91817130e-01  -6.28514300e-01
C     2.385833912100000e+00   1.661675129897983e+00   3.590431200000000e+00  2.17117576e+00   9.87036020e-01   2.91331380e-01
C     3.599429925700000e+00   9.502770167330440e-01   3.664818300000000e+00  2.39875472e+00   6.80390450e-01  -3.39121160e-01
C     4.898271653900000e+00   1.627564344733527e+00   3.661971000000000e+00 -6.31405090e-01  -3.01224330e-01  -2.08438400e-02
C     6.145663458400000e+00   9.132282142327345e-01   3.708689700000000e+00 -1.22669344e+00   1.34028994e+00  -8.76703480e-01
C     7.331150436100000e+00   1.667083226795387e+00   3.623418300000000e+00  1.89320344e+00   7.91449960e-01   9.02362170e-01
C     8.613954479899999e+00   9.789923427356072e-01   3.660555900000000e+00 -1.42354826e+00  -1.59457170e+00  -9.38989910e-01
C     9.849584142499999e+00   1.631440030810190e+00   3.635496000000000e+00  6.36791900e-02   2.58291168e+00  -7.59518120e-01
C     2.364869530800000e+00   3.078635027954887e+00   3.569340000000000e+00  3.04146353e+00   5.01192270e-01  -6.76612400e-02
C     3.643175886300000e+00   3.768638394191871e+00   3.629474700000000e+00  2.61023660e-01  -7.25538850e-01  -3.69507240e-01
C     4.916114753600000e+00   3.029195352737153e+00   3.591370800000000e+00 -1.56481050e+00   1.61171944e+00   2.46325680e-01
C     6.115531249100000e+00   3.803136508871700e+00   3.567768900000000e+00  7.60452300e-02  -1.24165306e+00   4.48365180e-01
C     7.337079944299999e+00   3.112780908452415e+00   3.660725400000000e+00  1.76879788e+00  -9.40962530e-01  -2.49582870e-01
C     8.655762654699998e+00   3.805803583405023e+00   3.699754800000000e+00 -2.53764672e+00  -1.12249564e+00  -1.32810893e+00
C     9.847590499799999e+00   3.120980834826255e+00   3.507720000000000e+00  5.24047500e-02  -2.58049553e+00   1.34951712e+00
C     1.106750021650000e+01   3.827939772612956e+00   3.487184700000000e+00 -1.21001958e+00   7.16091030e-01   6.38445100e-01
C     3.665636029599999e+00   5.186364070708620e+00   3.664237500000000e+00  6.61326000e-03   1.08928698e+00  -4.20589800e-01
C     4.921096518600000e+00   5.918277668892388e+00   3.653243400000000e+00 -1.74871144e+00   2.78819130e-01  -2.32517240e-01
C     6.125973186300000e+00   5.205617063027981e+00   3.581840100000000e+00  2.07834740e-01   1.34866010e-01   1.18590302e+00
C     7.357444443199999e+00   5.862828408879041e+00   3.770127899999999e+00  3.94784470e-01   2.38934369e+00  -1.73096168e+00
C     8.636700957599999e+00   5.195855693197769e+00   3.655594500000000e+00 -2.09227174e+00   1.57278235e+00   1.14973213e+00
C     9.782750203099999e+00   5.982492991674399e+00   3.672187800000000e+00  2.73510887e+00  -4.48763250e-01  -6.03748630e-01
C     1.105671367230000e+01   5.261112262917711e+00   3.602251800000000e+00 -3.41753430e-01   1.59079610e-01  -1.42722090e-01
C     1.229622541410000e+01   5.949999153534436e+00   3.639277200000000e+00 -2.24331000e-02  -7.32342000e-03   4.01161010e-01
C     4.858410829100000e+00   7.348636640634089e+00   3.652495200000000e+00  6.13669350e-01   4.25902000e-03  -1.01247024e+00
C     6.095337821199999e+00   8.085188885480907e+00   3.572305200000000e+00  8.47624140e-01  -2.10731930e+00   1.32132890e+00
C     7.314661558099999e+00   7.330644091651681e+00   3.692000100000000e+00  1.48526448e+00  -2.37262090e-01  -2.05150860e-01
C     8.586204939599998e+00   8.090944349324637e+00   3.661113900000000e+00 -1.92539456e+00  -9.64231050e-01   3.85379950e-01
C     9.825243302799999e+00   7.416284987189478e+00   3.661183500000000e+00 -9.32937910e-01  -2.07470315e+00   3.17166150e-01
C     1.107081421180000e+01   8.049213351207829e+00   3.672928200000000e+00 -1.31078333e+00   1.71797558e+00   3.56821030e-01
C     1.227487240090000e+01   7.411814900593304e+00   3.690039600000000e+00  6.21401050e-01  -4.13301521e+00  -8.89563170e-01
C     1.347764879000000e+01   8.045140072428659e+00   3.551168700000000e+00  2.33260981e+00   2.71388308e+00   1.82243598e+00
