26
Lattice="8.88768389401873 1.33226762955019e-15 0 4.44384194700937 7.69696003302603 0 0 0 30 " PBC="1 1 1" Properties=species:S:1:pos:R:3:force:R:3 Energy="-205.19555926"
C     1.270105323049359e+01   6.820087476153463e+00  -1.716258000000010e-01 -2.51701918e+00  -1.88546156e+00   2.31539750e-01
C     8.976198071356935e+00   6.770348334986799e+00  -8.170589999999933e-02 -1.76459621e+00   1.00220218e+00  -1.15163881e+00
C     1.031063399169976e+01   6.350907347236767e+00   9.676799999999999e-02 -2.86379820e-01   2.09860502e+00   1.16221970e-01
C     1.063832885062221e+01   5.042339475576437e+00   1.446453000000000e-01  1.80873225e+00  -6.14419022e+00  -4.03562940e-01
C     6.583269972582558e+00   6.095420998416973e+00  -4.774560000000001e-01 -2.28479508e+00  -6.82722110e-01   1.62730995e+00
C     7.951704216827939e+00   5.810865078834276e+00  -1.504784999999984e-01  2.72333120e-01  -1.94115740e+00  -7.43619470e-01
C     8.385245969345775e+00   4.429418079312289e+00  -7.295909999999850e-02 -4.36605183e+00  -2.42053267e+00  -2.47490390e-01
C     9.680926832983086e+00   3.957282548652874e+00   8.353500000000000e-03 -4.33379800e-01   2.61170495e+00   1.21023280e-01
C     9.935375755953944e+00   2.611468240741770e+00  -2.112642000000022e-01 -7.30975000e-03  -3.98478003e+00  -1.06129296e+00
C     4.128287976002246e+00   5.406461949773256e+00  -1.837275000000034e-01  6.67160350e-01   1.60647959e+00   1.49678764e+00
C     5.516290633771275e+00   5.056112800702121e+00  -1.995840000000015e-01  1.45413350e+00   1.95399670e+00  -1.39641000e+00
C     5.919831964925443e+00   3.744626318768015e+00  -7.332360000000193e-02  5.19981100e-01  -2.13773033e+00   5.34767730e-01
C     7.337550415998259e+00   3.350020265281182e+00  -1.348229999999973e-01 -2.03230033e+00   1.40143813e+00   4.25630680e-01
C     7.561909596285902e+00   1.925686266289637e+00  -1.642961999999990e-01  1.71300889e+00   1.71197493e+00   1.14690377e+00
C     8.868754057493859e+00   1.497443958684501e+00  -3.059051999999980e-01  2.49025753e+00   1.88791812e+00  -8.88787000e-03
C     3.094098147193869e+00   4.480838313519107e+00   1.076046000000000e-01  1.47554911e+00   2.44844070e-01  -2.36041956e+00
C     3.518874377020245e+00   3.073948012013151e+00  -2.325392999999991e-01 -4.19969031e+00   1.61756258e+00   2.19810892e+00
C     4.850351276363251e+00   2.710078998710119e+00   1.459860000000000e-02  1.87570865e+00   8.68285220e-01  -1.90603620e+00
C     5.187989231605793e+00   1.352486263773908e+00  -8.339189999999874e-02  1.10388536e+00  -4.19721400e-02   7.20111580e-01
C     6.668654126098027e+00   9.085350765043451e-01   1.278315000000000e-01 -6.07301462e+00   3.67456480e+00  -1.94057028e+00
C     1.136594966737807e+01   7.302826415919808e+00   5.471730000000000e-02  1.11557931e+00  -3.42594652e+00   5.97072100e-02
C     2.370360181732721e+00   2.153925684481633e+00  -4.087736999999976e-01  2.97292154e+00  -7.53766750e-01   4.08702100e-01
C     2.752653949131710e+00   7.324443328164062e-01  -5.820882000000012e-01 -2.22368336e+00   2.07391643e+00   4.01930210e-01
C     4.123331267043251e+00   4.571283058713228e-01  -3.675716999999992e-01  1.79943759e+00  -2.67126150e+00   1.41532389e+00
C     2.634125086113821e-01   8.598097019432309e-02  -4.273503000000005e-01  4.90777925e+00   3.01145046e+00  -5.84449750e-01
C     6.115071541035732e+00   7.430831941212328e+00  -6.343160999999995e-01  2.01175272e+00   3.24578030e-01   9.00309540e-01
