32
Lattice="9.86 0 0 4.93 8.53901048131456 0 0 0 30 " PBC="1 1 1" Properties=species:S:1:pos:R:3:force:R:3 Energy="-246.50851344"
C     9.926051893499999e+00   3.116512541422280e-01   4.407178800000001e+00 -4.52641853e+00   1.25214916e+01  -5.14385600e-01
C     1.100622647900000e+00   1.350008590926996e+00   4.504627200000000e+00 -2.21237230e-01  -3.25636788e+00  -6.64238070e-01
C     2.265534566400000e+00   5.564207086998560e-01   4.757862299999999e+00  2.89576391e+00   1.63196958e+00   1.83943270e-01
C     3.491975202000000e+00   1.262352830476338e+00   4.510892100000000e+00  1.38035879e+00  -1.20577731e+00  -7.46347720e-01
C     4.789673613900000e+00   4.189157420888440e-01   4.347068399999999e+00 -2.88380952e+00   4.55170187e+00   2.53490401e+00
C     5.930354927500000e+00   1.203144100318961e+00   4.580352900000000e+00  2.87269969e+00   8.32852030e-01  -1.01027788e+00
C     7.276117141900000e+00   6.603279138960504e-01   4.687330500000000e+00 -5.89454690e-01  -3.64742222e+00  -3.02156520e-01
C     8.582201779600000e+00   1.156752083331645e+00   4.357421700000000e+00 -1.28545428e+00   2.53644020e+00   1.53272246e+00
C     1.086058220050000e+01   2.753299155617410e+00   4.173579300000000e+00  3.66391144e+00  -1.69058794e+00   7.74179450e-01
C     2.337993340000000e+00   3.436835929217891e+00   4.286932800000001e+00 -4.02875388e+00  -3.91260190e-01  -3.37498620e-01
C     3.448493933100000e+00   2.729509472420131e+00   4.357311900000000e+00  5.68568455e+00  -2.89730329e+00   1.73504315e+00
C     4.740350738700000e+00   3.509929090415748e+00   4.620338700000000e+00 -1.84625400e+00  -5.03100276e+00  -2.06186242e+00
C     5.943918885800000e+00   2.602735992619963e+00   4.578962700000000e+00 -8.19230090e-01   4.24912628e+00   1.02323632e+00
C     7.156743502300000e+00   3.339083813555890e+00   4.646155500000000e+00  4.64051900e+00  -8.15475280e-01  -4.04746050e-01
C     8.530827728599998e+00   2.696331232590195e+00   4.399254900000000e+00 -3.80594196e+00  -3.36484507e+00  -7.05504630e-01
C     9.649898929499999e+00   3.436571817623745e+00   4.056616500000000e+00 -2.31418920e-01  -9.97704620e-01   7.51248290e-01
C     1.227727232490000e+01   4.820524256060313e+00   4.396692900000000e+00 -2.36221999e+00   1.12465555e+00  -1.66895978e+00
C     3.541456182300000e+00   5.680630261415709e+00   4.379144700000000e+00 -1.03938325e+00  -7.62445000e-01   1.70357605e+00
C     4.676471003200000e+00   4.864731481826216e+00   4.569630300000000e+00  6.11492604e+00   2.88189012e+00   6.67989640e-01
C     6.193962076800000e+00   5.531208080998600e+00   4.810915500000000e+00 -6.52791254e+00   1.12085985e+00   9.12484840e-01
C     7.333330580699999e+00   4.772006964754629e+00   4.891218300000000e+00 -1.50136158e+00  -6.17105790e-01  -1.69186185e+00
C     8.487254071500001e+00   5.558442657193827e+00   4.676292000000000e+00  2.54263138e+00  -8.58061360e-01  -1.24718253e+00
C     9.666460081299999e+00   4.813333213774685e+00   4.061570100000001e+00  8.69917800e-02   2.43343032e+00   3.24416941e+00
C     1.098918213790000e+01   5.363286305156780e+00   4.289788800000000e+00 -1.92565200e+00   6.42635128e+00   1.81947340e-01
C     1.326142022250000e+01   7.155175111397113e+00   4.581829200000000e+00  1.02468779e+01  -8.14761289e+00   7.54937300e-02
C     4.864570666899999e+00   7.635552174607957e+00   4.741033799999999e+00 -2.64449079e+00  -4.19197973e+00   3.37856830e-01
C     6.081632371900000e+00   6.972133565868671e+00   4.989750000000000e+00 -2.43598920e-01  -4.92193238e+00  -2.48377650e-01
C     7.268338094899999e+00   7.639143853196055e+00   5.113098300000000e+00 -2.48362580e-01   4.49417972e+00  -2.07964526e+00
C     8.492498950600000e+00   7.027204633107860e+00   4.847056800000000e+00 -3.17088194e+00  -5.88304951e+00   2.93226030e-01
C     9.633383971800001e+00   7.605532856314994e+00   4.546464600000000e+00  5.81103937e+00   1.85685040e-01  -1.04794140e+00
C     1.091680860400000e+01   6.852715077355347e+00   4.484730000000001e+00  3.18684580e-01   1.91192270e-01   1.30436917e+00
C     1.214123449650000e+01   7.680641394766340e+00   4.855870200000000e+00 -6.35825171e+00   3.49810750e+00  -2.52540400e+00
