32
Lattice="9.86 0 0 4.93 8.53901048131456 0 0 0 30 " PBC="1 1 1" Properties=species:S:1:pos:R:3:force:R:3 Energy="-257.05426408"
C     9.793521760099999e+00   5.538640435720392e-01  -2.046242999999990e-01  1.44613213e+00  -9.24258820e-01   8.57302300e-02
C     1.174654436600000e+00   1.217865952117214e+00  -6.377609999999834e-02  9.29909170e-01   1.02788464e+00  -4.68505500e-02
C     2.419037166300000e+00   5.066296532008712e-01  -8.927879999999888e-02  3.26252310e-01   1.16052935e+00   2.99028400e-02
C     3.673357740700000e+00   1.256307296446602e+00  -5.174099999997850e-03 -4.76949390e-01  -8.78508250e-01   1.11919270e-01
C     4.913061703199999e+00   5.659473411319728e-01  -1.512209999999925e-02  4.22402330e-01  -1.22891489e+00   6.05924600e-02
C     6.164088741799999e+00   1.241386827264584e+00  -6.450750000000127e-02 -1.14275222e+00   8.21723160e-01  -1.31409450e-01
C     7.369678139600000e+00   5.096363241809840e-01  -1.289136000000006e-01  4.83593550e-01   1.66566033e+00   1.57284490e-01
C     8.603569681400000e+00   1.260988808942263e+00  -1.893428999999998e-01 -1.24178639e+00  -4.06079840e-01   6.69657100e-02
C     1.105105363790000e+01   2.648848442404164e+00   1.271436000000000e-01  4.95176790e-01  -2.26728990e-01  -6.16049980e-01
C     2.430680248700000e+00   3.369726735784209e+00   2.389176000000000e-01  4.74615550e-01  -1.02588803e+00  -2.01034520e-01
C     3.705644360000000e+00   2.659460126897975e+00   1.195989000000000e-01 -1.69648510e+00   8.42432890e-01   1.82449900e-02
C     4.920282723500000e+00   3.392769084784279e+00   4.693290000000000e-02 -2.88928600e-02  -8.26583180e-01  -7.21788500e-02
C     6.142152904000000e+00   2.677342351864981e+00  -7.506240000000020e-02  9.94445640e-01  -2.64041390e-01  -1.25403890e-01
C     7.396568134399999e+00   3.376341480252541e+00  -1.381538999999989e-01 -1.15159635e+00   7.52824430e-01   1.39867210e-01
C     8.622836367900000e+00   2.680044180170958e+00  -1.434828000000010e-01 -1.20690633e+00  -9.46371790e-01   4.88546100e-02
C     9.821049154599999e+00   3.360165008019019e+00   1.972920000000000e-02  8.38557520e-01   1.29357286e+00   8.00140950e-01
C     1.227709509140000e+01   4.778940555874285e+00   3.204378000000000e-01  1.09180269e+00   6.29892820e-01  -1.98532020e-01
C     3.684724595200000e+00   5.499988434002462e+00   2.344173000000000e-01 -6.75041010e-01   1.17162558e+00  -1.06089814e+00
C     4.898907426700000e+00   4.809045605832468e+00   3.164850000000000e-02 -4.52129600e-01  -5.50512000e-01   5.69728150e-01
C     6.107025125700000e+00   5.501908259728681e+00  -1.066689000000025e-01  8.77136810e-01   6.58231130e-01  -3.50202100e-01
C     7.360735168900000e+00   4.810625151991059e+00  -1.218879000000008e-01 -9.21608770e-01  -5.61672630e-01   3.40906300e-01
C     8.543833660199999e+00   5.535521476752467e+00   2.192040000000000e-02  2.50893697e+00  -2.08188890e-01  -1.55608730e-01
C     9.777897751999999e+00   4.788494342359728e+00   1.746654000000000e-01  1.25878264e+00   5.76217040e-01  -4.57874720e-01
C     1.105749256300000e+01   5.487015115380199e+00   2.885403000000000e-01 -1.23697402e+00   1.18120758e+00  -4.82864270e-01
C     1.357461799530000e+01   6.949048180255782e+00   3.872970000000001e-02 -2.32257344e+00  -9.92262850e-01  -3.60401800e-02
C     4.887147552599999e+00   7.664403014706838e+00  -2.167467000000016e-01  7.88923330e-01  -6.83789160e-01   7.47276240e-01
C     6.119431224200000e+00   6.919570576787669e+00  -2.043573000000016e-01  1.24323800e-01   6.78155790e-01   1.31659420e-01
C     7.359045805799999e+00   7.635068439664265e+00  -1.830957000000026e-01  7.94596710e-01   3.35118000e-02   4.66931250e-01
C     8.626424076799999e+00   6.958258613129824e+00  -3.284160000000114e-02 -1.02745504e+00  -2.32743910e-01   5.08806300e-02
C     9.874078601000001e+00   7.665019531263495e+00   5.822910000000000e-02 -1.32123166e+00   1.81564410e-01  -3.22717490e-01
C     1.109026143490000e+01   6.952505284038715e+00   1.530048000000000e-01 -5.54812950e-01  -1.40402801e+00   2.22229840e-01
C     1.229654911790000e+01   7.662870176935574e+00   2.375040000000000e-02  1.60160720e+00  -1.31446119e+00   2.08550300e-01
