32
Lattice="9.86 0 0 4.93 8.53901048131456 0 0 0 30 " PBC="1 1 1" Properties=species:S:1:pos:R:3:force:R:3 Energy="-256.57354114"
C     9.806884870199999e+00   2.045709526516656e-01   7.729530000000001e-02  1.90188404e+00  -7.55863000e-03   7.76161900e-02
C     1.232241865200000e+00   8.909769191635312e-01   5.105400000000000e-02 -9.12788100e-01   1.66360040e-01  -2.48702900e-02
C     2.480198598399999e+00   2.130464328936944e-01   1.130913000000000e-01 -1.78610507e+00  -8.65956800e-01  -2.41672920e-01
C     3.671571651000000e+00   9.501647287452319e-01   1.532430000000000e-02  1.63596323e+00  -1.23977484e+00   3.95616870e-01
C     4.931507002399999e+00   2.273861639729680e-01   1.365189000000000e-01 -6.25943950e-01  -2.41702840e-01  -4.85501940e-01
C     6.136956240300000e+00   9.305283348553192e-01   1.255638000000000e-01  1.31038462e+00   1.10502659e+00   3.20919460e-01
C     7.412352022399999e+00   2.494373046365200e-01   1.447641000000000e-01 -2.97171623e+00  -9.62005040e-01  -7.22381650e-01
C     8.590384988000000e+00   9.360721166292496e-01   4.073280000000000e-02  1.59661630e+00  -9.97393500e-02   3.87163530e-01
C     1.108549954790000e+01   2.297076562131551e+00  -3.597029999999890e-02 -1.10405435e+00   1.38361680e+00  -3.77311240e-01
C     2.443345763800000e+00   3.043552844958226e+00  -1.428174000000020e-01 -8.89398900e-02   6.88185870e-01   2.43668720e-01
C     3.706185575400000e+00   2.361135791801987e+00  -1.331532000000024e-01 -1.93058813e+00  -5.82111160e-01   7.90641960e-01
C     4.904114246200000e+00   3.041946144746309e+00  -7.528499999999383e-03  1.71116876e+00   2.51962582e+00   2.75196520e-01
C     6.146231640900000e+00   2.374251114168534e+00   1.304853000000000e-01 -7.42555620e-01  -1.41270622e+00  -5.25449870e-01
C     7.372975027799999e+00   3.076331886048221e+00   1.324953000000000e-01 -2.32367470e-01  -1.51783422e+00  -2.61597710e-01
C     8.589628676699999e+00   2.335688088939806e+00   1.303620000000000e-02 -3.02944410e-01   7.61874960e-01   6.61637780e-01
C     9.791999918399998e+00   3.019579402255416e+00  -1.489499999999921e-02  3.00991939e+00   6.43983790e-01  -6.18503500e-02
C     1.227263777980000e+01   4.491300743031502e+00  -1.323036000000002e-01  1.89594034e+00  -7.68085380e-01  -3.89191180e-01
C     3.681748847200000e+00   5.225678187299169e+00  -5.968769999999779e-02 -7.00928280e-01  -9.82670970e-01   9.13505400e-02
C     4.957070482100000e+00   4.516794385770067e+00   3.992400000000000e-02 -3.61258038e+00  -1.93396814e+00  -7.24871700e-01
C     6.145156950200000e+00   5.184002521970272e+00   1.127304000000000e-01  1.56188035e+00   7.09998620e-01   7.55969530e-01
C     7.369865726100000e+00   4.448841794271274e+00   1.696362000000000e-01  1.63837501e+00   2.11395402e+00  -3.45645520e-01
C     8.667943304300000e+00   5.147352662039588e+00   1.332360000000000e-01 -3.80669327e+00   2.74857391e+00   2.51231700e-01
C     9.846835766100000e+00   4.469533524466410e+00   1.532130000000000e-02  4.59434800e-02  -1.88064726e+00  -6.30164460e-01
C     1.104114645780000e+01   5.178057150533467e+00  -1.571364000000024e-01  1.53804098e+00   5.74118150e-01   1.06773586e+00
C     1.349988244910000e+01   6.647950886896520e+00   4.013400000000000e-03  2.33628605e+00  -8.36174610e-01   3.21099940e-01
C     4.902072141600000e+00   7.322022338160130e+00   1.329045000000000e-01 -5.41202430e-01   2.95286520e-01  -4.22051450e-01
C     6.138662168200000e+00   6.606087790287585e+00   1.843161000000000e-01 -1.28360324e+00  -1.05019430e-01  -2.78966880e-01
C     7.330511064400000e+00   7.301110643055029e+00   1.966269000000000e-01  3.15407126e+00   1.56215762e+00  -7.42179600e-02
C     8.596600731999999e+00   6.634781597983739e+00   1.713606000000000e-01  1.61922082e+00  -1.86677953e+00  -2.05979790e-01
C     9.896711935199999e+00   7.330910764948971e+00   1.248474000000000e-01 -2.77503998e+00  -1.43102930e-01  -2.29710200e-01
C     1.108570522750000e+01   6.589758555156576e+00  -4.093409999999764e-02  3.71226130e-01   1.93289400e+00   4.76429270e-01
C     1.232911926150000e+01   7.383841273041034e+00   2.706960000000000e-02 -1.90886994e+00  -1.75981936e+00  -1.14842740e-01
