26
Lattice="8.88768389401873 1.33226762955019e-15 0 4.44384194700937 7.69696003302603 0 0 0 30 " PBC="1 1 1" Properties=species:S:1:pos:R:3:force:R:3 Energy="-208.23501449"
C     8.573537155999220e-01   1.089940032305797e+00   3.438276900000000e+00  7.13114120e-01  -1.70300600e-01   7.13285100e-02
C     3.199694672203933e+00   5.130849743806218e-01   3.550326300000000e+00  1.13184185e+00  -2.21019339e+00  -8.46174910e-01
C     4.555317587174014e+00   8.775635099484289e-01   3.404093700000000e+00  1.08504259e+00  -8.15924210e-01   8.75429200e-02
C     1.007769437461445e+01   7.560115777626629e+00   3.279130500000000e+00 -9.12914030e-01   1.49093776e+00  -5.03496350e-01
C     6.997531047428643e+00   2.939161926751803e-01   3.176973300000000e+00  5.91828110e-01  -1.14516634e+00   1.06112568e+00
C     1.250595088273191e+01   6.996748102762023e+00   3.237302100000000e+00 -1.69807382e+00   3.41209050e-01  -1.83283080e-01
C     4.979188567111920e+00   7.404925359204152e+00   3.365652300000000e+00 -1.17687619e+00   4.86012060e-01   1.90400690e-01
C     5.964081922794917e+00   6.448354632726982e+00   3.433705500000000e+00  1.55380091e+00  -3.62477357e+00  -3.40045750e-01
C     7.354750441775871e+00   6.758589073392165e+00   3.442615500000000e+00 -1.51788730e+00   2.87509183e+00   7.00765540e-01
C     8.340158838728016e+00   5.783118769439731e+00   3.354526800000000e+00  7.89753810e-01   2.02631140e-01  -8.25333700e-01
C     9.727841762566733e+00   6.198817957040777e+00   3.201418200000000e+00 -6.51118050e-01  -1.51468967e+00   9.53923930e-01
C     1.073928707382298e+01   5.168156447254026e+00   3.198697200000000e+00  1.32312835e+00   3.24187814e+00  -1.33268960e-01
C     1.211649955061267e+01   5.624699322345468e+00   3.226863900000000e+00  8.73498770e-01  -8.14783590e-01   4.25186980e-01
C     4.282979491194006e+00   4.629540579484295e+00   3.359709300000000e+00 -8.56191580e-01   1.42486675e+00  -8.33263540e-01
C     5.634330096524241e+00   5.003376001482172e+00   3.371571000000000e+00 -1.37480440e-01   1.59982043e+00   3.21973420e-01
C     6.636296426295340e+00   3.994356342090173e+00   3.347338200000000e+00 -1.66903022e+00  -1.33602010e-01  -8.34826630e-01
C     7.944879985594024e+00   4.405932345172750e+00   3.277111800000000e+00  3.93313400e+00  -5.43505500e-02   8.66061470e-01
C     9.034563622619523e+00   3.447876798136192e+00   3.343550700000000e+00  6.90467330e-01  -1.06829925e+00  -5.51243000e-01
C     1.046365999823233e+01   3.824276616307264e+00   3.288207600000000e+00 -2.83159763e+00  -3.46851470e-01   9.17553900e-02
C     2.626372316340445e+00   2.895333204222574e+00   3.351069000000000e+00 -3.59535174e+00  -1.91074662e+00   8.07085970e-01
C     3.927302868778265e+00   3.280948130819963e+00   3.340359600000000e+00  1.26233202e+00  -7.10116940e-01   3.29005680e-01
C     4.875351219883743e+00   2.245809992110165e+00   3.362243700000000e+00  3.10178367e+00  -1.17791300e-02  -7.53147380e-01
C     6.284745066769291e+00   2.605321833309813e+00   3.216918600000000e+00 -2.22617360e-01   8.55398410e-01   1.67554240e+00
C     7.348024994749505e+00   1.660824019548498e+00   3.294736500000000e+00 -6.90025590e-01  -4.39201980e-01  -8.86824210e-01
C     8.728724376500535e+00   2.026186704914951e+00   3.364494300000000e+00 -1.24874752e+00   2.60848092e+00  -9.60946800e-02
C     2.217080474207106e+00   1.514940611255097e+00   3.533399400000000e+00  1.58185960e-01  -1.55547150e-01  -7.94696360e-01
