32
Lattice="9.612 0 0 4.806 8.32423618117602 0 0 0 30 " PBC="1 1 1" Properties=species:S:1:pos:R:3:force:R:3 Energy="-256.58373342"
C     3.469471293557876e-03  -2.018979986800395e-03   3.001241577077021e+00 -3.23836580e-01   6.80101800e-02  -9.59594000e-03
C     1.198248574933702e+00   6.966949299062550e-01   3.001362686355098e+00  2.45398040e-01  -2.84110960e-01  -6.76737000e-03
C     2.398962669798903e+00  -1.595282801384047e-03   3.003676166886278e+00  2.12883760e-01   1.42766360e-01  -1.21018400e-02
C     3.604403484420561e+00   6.956511989114251e-01   3.002224467938039e+00 -2.93556520e-01  -9.45886500e-02  -1.91810300e-02
C     4.802486046818357e+00   1.182203988110257e-03   3.000043037569874e+00  2.98764560e-01  -6.89086500e-02   1.65238800e-02
C     6.008798832693157e+00   6.956038945305859e-01   3.003326205111063e+00 -1.28975540e-01  -1.86451160e-01  -3.10429700e-02
C     7.212227377010432e+00   1.001481894459809e-05   3.000660518621621e+00 -2.97557920e-01  -1.09336220e-01   2.81972900e-02
C     8.409268743340480e+00   6.905852764643039e-01   3.002722710697038e+00  2.76165600e-01   2.09998000e-02  -2.55695100e-02
C     1.203045618046031e+00   2.078876074668030e+00   2.997552053306561e+00 -2.71770600e-01   3.15475840e-01   4.29073100e-02
C     2.401356397252128e+00   2.777165247900264e+00   2.999762726195813e+00 -4.97311000e-02  -7.39050500e-02  -8.86851000e-03
C     3.600719683535380e+00   2.082578441878295e+00   2.998814595970817e+00  2.42957520e-01   9.28235300e-02   3.09180300e-02
C     4.806456686280861e+00   2.778225724062870e+00   3.000317607132295e+00 -2.14756410e-01  -3.42933260e-01  -1.67146400e-02
C     6.005301090809340e+00   2.081239691648366e+00   3.001592686551589e+00  7.30005000e-02   5.02178100e-02   1.09939600e-02
C     7.206721590754134e+00   2.773662571452483e+00   3.000874730941247e+00  1.00751910e-01   1.22072840e-01  -1.47383000e-03
C     8.407678524243112e+00   2.076935862464073e+00   3.001171632231049e+00  3.17984700e-02   1.99699910e-01   1.82494300e-02
C     9.608860989387733e+00   2.774645515176673e+00   3.001492661717195e+00  1.85885820e-01  -9.04371400e-02  -7.96818000e-03
C     2.399337000885537e+00   4.164204103837724e+00   3.001728182526378e+00  2.49002250e-01  -6.26898200e-02  -2.08899900e-02
C     3.605752167425013e+00   4.851227723514376e+00   2.999595494750646e+00 -1.45740880e-01   2.07007290e-01  -1.84651500e-02
C     4.803819951841702e+00   4.159156579884826e+00   2.997587598045969e+00  3.13692810e-01   2.81960370e-01  -3.79490000e-04
C     6.009188802191903e+00   4.859338862647579e+00   2.995525027071536e+00 -1.76327740e-01  -3.57481790e-01   3.15284600e-02
C     7.210597522686896e+00   4.165122178562151e+00   2.998464607940998e+00 -9.34105900e-02  -1.97786710e-01  -1.61686600e-02
C     8.409197692953851e+00   4.859129017717542e+00   2.997700185144838e+00  2.38668270e-01  -1.74937770e-01   4.40905400e-02
C     9.615147539260647e+00   4.162058306618173e+00   3.003800368822541e+00 -2.64455890e-01   1.21027330e-01  -6.27097500e-02
C     1.081553422318930e+01   4.859963753119358e+00   2.999212882413126e+00 -1.77961260e-01  -2.64487620e-01   4.87787900e-02
C     3.608800053247047e+00   6.240739966212529e+00   2.996138248519043e+00 -2.65475080e-01   6.88417000e-03   2.91553900e-02
C     4.807007488373190e+00   6.935597635277476e+00   2.996673312762962e+00  1.32159580e-01  -5.97328000e-03   3.12798900e-02
C     6.009197827365078e+00   6.240484416566355e+00   3.000475158136557e+00 -4.47615500e-02   2.09983990e-01  -3.72775100e-02
C     7.210909446408564e+00   6.934759912974960e+00   3.002619352483551e+00 -2.79321690e-01   2.21348810e-01  -9.81440000e-04
C     8.407457142104446e+00   6.245735078554321e+00   2.999696782673915e+00  2.57405070e-01  -1.49770230e-01  -1.64305600e-02
C     9.610127213315858e+00   6.935585602817705e+00   2.997645998226569e+00  7.25888700e-02   1.57782320e-01   3.39782200e-02
C     1.081378312524682e+01   6.241836546311663e+00   3.000615969477007e+00 -5.25608700e-02   2.79662630e-01  -2.55204600e-02
C     1.201517890232915e+01   6.935781582120815e+00   3.000878903581243e+00  1.49077200e-01  -3.39248600e-02  -2.84943600e-02
