32
Lattice="9.86 0 0 4.93 8.53901048131456 0 0 0 30 " PBC="1 1 1" Properties=species:S:1:pos:R:3:force:R:3 Energy="-249.97896047"
C     5.533604204900000e+00   8.153926468213125e+00  -6.782372999999993e-01 -2.49876715e+00  -2.97380729e+00   1.00783808e+00
C     1.807307335400000e+00   3.175282281050880e-01  -7.827599999999997e-01  1.97123380e+00  -2.49204928e+00   1.16404925e+00
C     8.043866337699999e+00   8.114258665808496e+00  -8.686479000000027e-01 -1.70692609e+00  -1.78465176e+00   5.21975090e-01
C     4.300766302700000e+00   2.515444762526696e-01  -7.511289000000012e-01  6.31205920e-01   2.08918278e+00   1.62806405e+00
C     1.047078470060000e+01   8.095788700750150e+00  -5.168460000000010e-01 -4.93274930e-01   3.03769944e+00  -2.70507512e+00
C     6.722398571699999e+00   3.660124734402136e-01  -5.847747000000005e-01  6.66542140e-01  -2.17169079e+00   1.04395279e+00
C     1.286661975860000e+01   8.107509004974579e+00  -4.435727999999983e-01  4.04085290e-01   9.88139570e-01   4.11822170e-01
C     9.114229187899999e+00   2.945419804038712e-01  -6.007595999999999e-01  4.42730917e+00  -1.18863561e+00  -6.84622250e-01
C     1.799590702200000e+00   1.569894173484437e+00  -2.100698999999970e-01 -1.07344870e-01   5.46653956e+00  -2.84848421e+00
C     3.048546746400000e+00   2.383935632904426e+00  -2.316435000000006e-01 -1.04011048e+00   1.46902335e+00   2.34224609e+00
C     4.274334551399999e+00   1.723376226434262e+00  -4.777425000000015e-01 -1.49793644e+00  -1.08058248e+00   1.31393910e-01
C     5.424508087000000e+00   2.494983585614520e+00  -4.251867000000011e-01  2.80607609e+00  -6.77967110e-01  -1.37615424e+00
C     6.714564801700000e+00   1.777289745412782e+00  -6.725573999999988e-01  1.09450290e-01   1.36285828e+00   9.42308000e-02
C     7.970225103600000e+00   2.503224926189187e+00  -8.021559000000025e-01  1.54117500e-01  -1.64899474e+00   1.00930899e+00
C     9.243794616499999e+00   1.693374669283097e+00  -7.185432000000027e-01 -4.57043461e+00   1.37097754e+00   4.23702800e-02
C     1.038012500790000e+01   2.357860654332383e+00  -4.081034999999993e-01  3.25308181e+00   1.91608205e+00   3.28047243e+00
C     3.030414699400000e+00   3.908903852110857e+00   2.148420000000000e-01 -1.60523463e+00  -1.54968740e+00  -1.53697012e+00
C     4.245374844000000e+00   4.700716559449310e+00   2.051400000000000e-01  9.88245410e-01  -3.41697364e+00  -3.20996599e+00
C     5.412390393499999e+00   3.900252382862836e+00  -3.442146000000008e-01  1.59259361e+00   2.20585481e+00   1.63686972e+00
C     6.726402964200000e+00   4.610729392967298e+00  -5.498630999999996e-01 -1.20430140e-01  -6.77723420e-01   2.18885040e-01
C     7.999710102500000e+00   3.920781701078642e+00  -6.928838999999982e-01 -2.78124965e+00  -1.97933042e+00   9.73787740e-01
C     9.198316796200000e+00   4.536734426872648e+00  -3.182505000000013e-01 -1.12142349e+00   3.05551143e+00  -2.67616785e+00
C     1.030612270060000e+01   3.873967856973614e+00  -1.917599999998743e-03  3.65889589e+00  -4.76686156e+00  -1.73791780e+00
C     1.152302669490000e+01   4.587180424475449e+00   8.991810000000000e-02  4.14801507e+00   3.45716340e-01  -7.65028390e-01
C     4.327084664000000e+00   6.122417059954396e+00  -3.823950000000309e-02  4.43496472e+00  -4.52351582e+00   1.02248629e+00
C     5.612260481500000e+00   6.645255121287983e+00  -3.922656000000018e-01 -2.54018862e+00   6.41577730e+00  -7.19250010e-01
C     6.829395002600000e+00   6.051243895262966e+00  -5.395326000000011e-01 -3.55158790e-01  -4.30334084e+00   3.15856050e-01
C     8.094682214100001e+00   6.608289574139853e+00  -7.325249999999990e-01 -7.19267650e-01   4.34846083e+00  -1.08724720e+00
C     9.313377178800000e+00   5.925403473137949e+00  -6.974033999999989e-01  2.09087700e-02   1.54950031e+00   1.00225260e+00
C     1.055779116470000e+01   6.747641614107795e+00  -7.377962999999994e-01 -8.37470980e-01  -4.52767362e+00   2.46773122e+00
C     1.172423621460000e+01   5.962503595091243e+00  -3.491333999999995e-01 -4.99553000e-03   4.83217120e-01   2.55064494e+00
C     1.301602705680000e+01   6.700986424817485e+00  -3.396210000000011e-02 -7.26651142e+00   3.65894509e+00  -3.51935435e+00
