32
Lattice="9.86 0 0 4.93 8.53901048131456 0 0 0 30 " PBC="1 1 1" Properties=species:S:1:pos:R:3:force:R:3 Energy="-249.65750517"
C     9.598761173400000e+00   1.054178244621902e+00   3.002913000000000e+00 -3.91029950e-01  -3.89158040e-01   3.59332996e+00
C     1.005356708300000e+00   1.675582274706340e+00   3.365122800000000e+00 -6.43904520e-01   2.05271124e+00  -1.49838665e+00
C     2.264614234000000e+00   9.612244551189281e-01   3.063762600000000e+00 -1.25007653e+00   3.00265997e+00   2.75008243e+00
C     3.451592733899999e+00   1.647293557667358e+00   3.630256200000000e+00 -2.61348000e-03   1.03539403e+00  -2.08017268e+00
C     4.709320382000000e+00   1.023226380994418e+00   3.606354600000000e+00  1.17777247e+00  -3.16552836e+00  -4.46329000e-03
C     6.028337888699999e+00   1.667330516538887e+00   3.682446000000000e+00 -7.56197785e+00   4.87956835e+00   5.13017690e-01
C     7.141392271099999e+00   1.036653718803903e+00   3.354389400000000e+00  1.81697467e+00  -3.55149770e+00   4.34292970e-01
C     8.313805036700000e+00   1.750206565873366e+00   3.349133100000000e+00  4.14458963e+00   6.77212030e-01   1.90254940e-01
C     1.079121113520000e+01   3.217903044059704e+00   3.763242300000000e+00  3.25275730e+00  -4.75944757e+00  -1.04586672e+00
C     1.204938874440000e+01   3.898545690838199e+00   3.685021800000000e+00  4.40776610e-01  -2.00406742e+00   1.34459797e+00
C     3.462768452300000e+00   3.074717927677396e+00   3.703954800000000e+00 -2.43373521e+00   3.20825857e+00   8.11622020e-01
C     4.630273797299999e+00   3.931546319250150e+00   3.808171200000000e+00  2.49964053e+00  -1.66088683e+00  -2.23218455e+00
C     5.878252764800000e+00   3.251534619956022e+00   3.684479100000000e+00  2.42747546e+00  -3.61721392e+00  -1.55776337e+00
C     7.149172106899999e+00   3.835622320341812e+00   3.222884400000000e+00 -1.41453240e+00   2.77997640e+00   3.14672592e+00
C     8.323235387200000e+00   3.167153143073920e+00   3.732003300000000e+00  7.55150000e-01  -1.57186390e+00  -2.74064777e+00
C     9.588186274100000e+00   3.827835084344471e+00   3.959411700000000e+00 -3.10678540e+00   1.05666452e+00  -1.96675019e+00
C     1.204586162520000e+01   5.316684399291866e+00   3.758250600000000e+00 -1.44704603e+00  -1.22893623e+00  -7.93989660e-01
C     1.325538905770000e+01   5.932844452260325e+00   3.474267300000000e+00  2.65978718e+00   4.53823854e+00  -1.51848882e+00
C     4.725209426899999e+00   5.340848518098694e+00   3.412766700000000e+00 -3.10303391e+00  -1.55820609e+00  -3.24611440e-01
C     5.866938464100000e+00   5.963694701663099e+00   2.804304600000000e+00  2.17690700e+00   1.70960187e+00   1.99810521e+00
C     7.179425002600000e+00   5.300464378104897e+00   2.919459900000000e+00 -1.52108004e+00  -2.70229645e+00   1.52855402e+00
C     8.396482714299999e+00   5.969500033328031e+00   3.220162800000000e+00 -1.76348797e+00   6.57765510e-01  -1.53374353e+00
C     9.531695178900000e+00   5.238685405793039e+00   3.726150900000000e+00 -9.22053490e-01   1.36529480e+00  -4.86203640e-01
C     1.068319424360000e+01   5.990106629588682e+00   3.678958500000000e+00  5.61311300e+00  -1.75563597e+00   8.19771300e-02
C     1.331830803480000e+01   7.443731757795133e+00   3.124747200000000e+00 -1.01071465e+00  -3.27402890e+00   2.62614099e+00
C     4.685119800800000e+00   8.105092977349369e+00   3.046772700000000e+00  1.08347223e+00   2.65559566e+00  -2.27500227e+00
C     5.955515823400000e+00   7.478597733046439e+00   2.780727600000000e+00 -4.48920064e+00  -4.02594573e+00   1.97925800e-02
C     7.140303973599999e+00   8.131114928666330e+00   2.721925200000000e+00  2.11306342e+00   9.80047950e-01   1.11390725e+00
C     8.337782387499999e+00   7.413819177133169e+00   2.945091900000000e+00  3.62561758e+00  -1.27266890e+00   2.48728070e+00
C     9.564146115100000e+00   8.074535189055535e+00   3.415186200000000e+00  1.02849867e+00   1.76240245e+00  -1.73106382e+00
C     1.084200798180000e+01   7.316413232956028e+00   3.402383400000000e+00 -1.53418049e+00   4.51532787e+00   1.20797772e+00
C     1.212458914030000e+01   8.114333979880929e+00   3.409518600000000e+00 -2.22014317e+00  -3.39337740e-01  -2.05832109e+00
