32
Lattice="9.904 0 0 4.952 8.57711559908108 0 0 0 30 " PBC="1 1 1" Properties=species:S:1:pos:R:3:force:R:3 Energy="-257.91778886"
C     9.192436956061808e-03   6.744053814601912e-04   3.008870989340072e+00 -5.83871900e-01   1.66092350e-01  -1.71815710e-01
C     1.239896899984923e+00   7.083833612851549e-01   2.994096225622433e+00 -6.49438400e-02   9.07353520e-01   1.39323610e-01
C     2.462540184755606e+00   6.958605123579898e-05   3.008799560997051e+00  9.55267610e-01   1.15086320e-01  -1.72219280e-01
C     3.722074575076568e+00   7.059272311666290e-01   3.006574723003205e+00 -1.05720919e+00   9.55226170e-01  -9.35476100e-02
C     4.943810084177053e+00  -1.143544132897459e-03   2.987839646258521e+00  7.00159190e-01   2.33432660e-01   2.98257810e-01
C     6.196246417280926e+00   7.016664662445683e-01   3.005504925520619e+00 -5.44611700e-01   9.24817100e-01  -9.55131700e-02
C     7.423333340770209e+00  -6.756128309223666e-03   3.007693079496827e+00  2.47506100e-01  -1.02340480e-01  -6.91358500e-02
C     8.663016762273292e+00   7.110440189874018e-01   2.992580485998701e+00  1.52464820e-01   6.07609900e-02   1.27826880e-01
C     1.247972580544515e+00   2.154052290135168e+00   2.990248133056815e+00 -7.45017180e-01  -6.49751250e-01   1.48618200e-01
C     2.469732189218907e+00   2.869317902943846e+00   3.003943731100957e+00  1.00306650e-01   9.31002000e-03  -6.72460700e-02
C     3.698547058187724e+00   2.157212662882686e+00   3.006580280600376e+00  6.97463620e-01  -8.15276210e-01  -1.67792200e-02
C     4.941762669532003e+00   2.867690288446739e+00   3.002217142061800e+00  3.38365440e-01  -7.78712910e-01   5.14655900e-02
C     6.191129738975303e+00   2.147995570554651e+00   3.004733261104274e+00 -2.35999390e-01  -5.72062720e-01  -4.34541800e-02
C     7.432172451340556e+00   2.854114635315209e+00   2.997470507723141e+00 -4.83778840e-01   1.99328470e-01   7.93590900e-02
C     8.662070662168224e+00   2.143532479103947e+00   2.989758746117872e+00  4.19886450e-01  -2.67360620e-01   8.18617700e-02
C     9.906017810524855e+00   2.858020880050246e+00   3.002872426642254e+00  3.07566100e-02   4.19289100e-02  -1.77232930e-01
C     2.465216387375806e+00   4.295520421975131e+00   3.000831757402993e+00  6.68821280e-01   7.20961800e-02  -3.84908000e-03
C     3.722842513367393e+00   5.001508820733580e+00   2.997322217832205e+00 -7.14965900e-01   1.31056110e-01   8.34782000e-02
C     4.951267740751694e+00   4.277693087630080e+00   3.003737498873615e+00  6.41838200e-02   8.27232000e-01  -8.25064100e-02
C     6.190861177141968e+00   5.001011195178300e+00   2.998285764192518e+00 -1.22416390e-01  -1.14622920e-01   1.99293940e-01
C     7.415512766441753e+00   4.281051311271570e+00   3.010872861257421e+00  1.04325328e+00   5.12050610e-01  -2.54778210e-01
C     8.676966510319586e+00   5.010141756343465e+00   2.990065335216308e+00 -7.66606110e-01  -5.08833140e-01   1.32680690e-01
C     9.910353432070869e+00   4.290672325171527e+00   2.997116148624702e+00 -4.81408160e-01  -2.90537210e-01   2.42105200e-02
C     1.113437792669679e+01   5.002383537824404e+00   3.000377882425453e+00  2.70701280e-01   8.07137200e-02  -1.08206000e-02
C     3.707750793217889e+00   6.434735400960598e+00   3.004405954186341e+00  3.26741660e-01  -1.64513600e-02   1.50000000e-06
C     4.953830826666477e+00   7.158357973822037e+00   3.008089594139745e+00 -4.46014500e-02  -7.24421510e-01   7.61015900e-02
C     6.197350868776781e+00   6.430572356612045e+00   3.014175653977052e+00 -4.79259620e-01   2.89296060e-01  -2.56139890e-01
C     7.422509642181554e+00   7.160234593993992e+00   2.989310217984445e+00  4.10679900e-01  -9.21254700e-01   2.15055360e-01
C     8.673587317465445e+00   6.431347726092064e+00   2.987771018535182e+00 -3.81606730e-01   6.23200010e-01   9.12066900e-02
C     9.905771749631375e+00   7.161799495678380e+00   3.008558133609192e+00 -2.33055160e-01  -9.95180660e-01  -2.67427170e-01
C     1.113330016090717e+01   6.424006488465894e+00   3.003282442967459e+00 -7.24069000e-03   5.66688330e-01   6.02558300e-02
C     1.236483626065778e+01   7.138300586978044e+00   3.008051377127745e+00  5.20034540e-01   4.11361400e-02  -2.65318800e-02
