32
Lattice="9.572 0 0 4.786 8.28959516502464 0 0 0 30 " PBC="1 1 1" Properties=species:S:1:pos:R:3:force:R:3 Energy="-255.88491196"
C     1.781055769170612e-03   1.283066457241563e-02   2.985779845561717e+00 -4.46580600e-01  -5.64946020e-01   2.49621980e-01
C     1.197764741056990e+00   6.841706390103083e-01   2.990412940288374e+00  6.23882000e-03   9.79324380e-01   1.28398780e-01
C     2.390706598232089e+00   6.564829800010861e-03   2.999311650191319e+00 -2.74068810e-01  -1.11507019e+00  -1.54798780e-01
C     3.579598062542017e+00   6.828080946778766e-01   2.988680926933869e+00  7.92300330e-01   6.14357190e-01   2.05571190e-01
C     4.781147703823319e+00  -4.035826399053260e-04   2.992359996978186e+00  3.24488000e-01  -4.82015480e-01  -4.36115700e-02
C     5.993443766497791e+00   6.873347887991144e-01   2.991714838440417e+00 -1.16422480e+00   5.10961560e-01   4.89970700e-02
C     7.176334935741201e+00   6.202109360264148e-03   3.005798664220181e+00  6.78082420e-01  -9.33272100e-01   1.72081100e-02
C     8.372950269316000e+00   7.047706111604353e-01   3.011670298057168e+00 -2.34757900e-02  -5.08827070e-01  -1.28081000e-01
C     1.195546826634209e+00   2.077652889573521e+00   3.010714530962504e+00  5.26321630e-01  -6.56729890e-01  -3.43985580e-01
C     2.392311551914805e+00   2.773274526047455e+00   2.991255852557584e+00  3.83553240e-01  -8.05093440e-01   3.30497300e-01
C     3.593922901890112e+00   2.067613655939159e+00   3.014606438914122e+00 -5.00226630e-01   2.05102700e-01  -2.77873360e-01
C     4.785294867308500e+00   2.762772797245143e+00   3.003042749474622e+00  2.07066720e-01  -3.08862770e-01   2.67738800e-02
C     5.990781224055404e+00   2.078699596954671e+00   2.990711253266532e+00 -3.90761690e-01  -5.47264870e-01   8.27780400e-02
C     7.184581577468428e+00   2.763806208354320e+00   3.001289644094477e+00 -5.26181010e-01   1.01454290e-01   2.36686200e-02
C     8.366941894963121e+00   2.078418351566529e+00   3.010728778182501e+00  1.09227559e+00  -1.65096100e-02  -1.45087130e-01
C     9.583946536706767e+00   2.756982540615708e+00   2.986751420371218e+00 -1.03909263e+00   6.28821790e-01   3.50674480e-01
C     2.395595517767667e+00   4.142548099127084e+00   3.003021682614745e+00 -1.59875860e-01   6.83433130e-01  -1.27574210e-01
C     3.595381523625203e+00   4.840190141733011e+00   3.006257567133803e+00 -5.33100760e-01  -7.68521850e-01  -7.08118900e-02
C     4.777093508276177e+00   4.140072359140441e+00   3.004292235723000e+00  3.52059950e-01   2.94641370e-01  -3.96103100e-02
C     5.969999485510813e+00   4.839726027425330e+00   2.988235900443280e+00  4.69297840e-01  -1.13198494e+00   1.29254010e-01
C     7.168939749662723e+00   4.135565322956887e+00   3.000665200876418e+00  2.82489190e-01   1.07483204e+00  -1.70800130e-01
C     8.363650741539988e+00   4.843705694247201e+00   2.986065367965349e+00  5.67394210e-01  -6.89862390e-01   2.57882060e-01
C     9.579025408310002e+00   4.146165759745447e+00   3.007224093385835e+00 -1.07978609e+00  -1.28404710e-01  -3.51595010e-01
C     1.076212905823314e+01   4.835346772991731e+00   2.988143652524148e+00  7.55158770e-01  -2.02963750e-01   2.25488560e-01
C     3.594188013034470e+00   6.207225565557589e+00   2.990224417966057e+00 -2.04149680e-01   1.01578481e+00   2.52520410e-01
C     4.779813012910465e+00   6.917537839233724e+00   3.008489978236248e+00  8.25346990e-01  -5.50009950e-01  -2.97906360e-01
C     5.993058235986544e+00   6.202383428292581e+00   2.994644460492145e+00 -1.02665185e+00   1.47086508e+00   5.09581000e-03
C     7.181681952333912e+00   6.902586868109352e+00   2.990386760361872e+00 -1.38335840e-01   6.42765830e-01   7.24060700e-02
C     8.381493711697210e+00   6.229043359797945e+00   2.996762446078455e+00 -1.08062482e+00  -1.19190010e+00  -1.30701990e-01
C     9.559410157398677e+00   6.892080516936636e+00   2.995002695583005e+00  1.47168555e+00   1.48639212e+00   5.51416600e-02
C     1.076820958316410e+01   6.210805689120674e+00   3.002294281533188e+00 -2.67591480e-01   2.79536030e-01  -9.94397300e-02
C     1.196365760320694e+01   6.898003055618410e+00   3.004273331927272e+00  1.20969130e-01   6.13966820e-01  -8.01009700e-02
