32
Lattice="10.032 0 0 5.016 8.68796685076549 0 0 0 30 " PBC="1 1 1" Properties=species:S:1:pos:R:3:force:R:3 Energy="-257.37102792"
C     8.574943778758216e-03  -5.633345295133468e-03   3.011784472828025e+00 -5.81091980e-01   2.54456850e-01  -2.68388060e-01
C     1.247204635967616e+00   7.248411773843840e-01   2.993089422257318e+00  4.49725710e-01   4.20661100e-02   1.81522800e-01
C     2.506156057330890e+00   1.925381730359340e-03   3.008829808625465e+00 -3.37909010e-01  -1.26023240e-01  -1.55087920e-01
C     3.754987168351991e+00   7.171946031589403e-01   3.002219894465376e+00  4.05088360e-01   2.59151070e-01   2.80880900e-02
C     5.010031723932748e+00  -1.064711916350077e-02   3.000363817961108e+00  2.64215110e-01   3.88979420e-01   1.23040010e-01
C     6.284014470466585e+00   7.186763241880995e-01   3.011742536107456e+00 -1.06747428e+00  -4.91041600e-02  -2.71039720e-01
C     7.522055438015474e+00  -5.793680250121099e-03   2.997559333713500e+00  3.95845520e-01   1.84765350e-01   6.55428600e-02
C     8.774393772859383e+00   7.273320354484294e-01   2.996146926145858e+00  3.67155980e-01  -7.23015400e-01   1.07791720e-01
C     1.260098895594764e+00   2.176532645518347e+00   2.992762338372325e+00 -6.41005020e-01  -1.31491130e-01   7.41777200e-02
C     2.497133485723282e+00   2.905432529807943e+00   3.003958481872246e+00  7.68011830e-01  -2.07992760e-01  -1.54672540e-01
C     3.761921537537162e+00   2.167348011107052e+00   3.001921798972238e+00 -2.41291360e-01   2.91008140e-01   3.48914000e-02
C     5.015131015050802e+00   2.897876209042381e+00   3.002914913569876e+00 -1.59630120e-01  -3.05602420e-01  -2.34576500e-02
C     6.268667034655122e+00   2.167907657984059e+00   2.990688909701958e+00  3.40157330e-01  -2.98018200e-02   2.05325470e-01
C     7.535526117002755e+00   2.881178463984352e+00   2.997928046977994e+00 -7.96700120e-01   4.79573880e-01   1.07962100e-02
C     8.778340157095226e+00   2.161403346163350e+00   2.998410057389608e+00  2.74798520e-01   3.09145140e-01  -1.28439200e-02
C     1.003176998230015e+01   2.891940660278925e+00   2.998298432314428e+00  1.44972580e-01   3.80225380e-01  -4.93914500e-02
C     2.503884346606275e+00   4.353642916461576e+00   2.988524154109752e+00  2.35077340e-01  -3.30934350e-01   1.17539900e-01
C     3.771302441489722e+00   5.071426799873321e+00   2.993272042704773e+00 -7.32279090e-01  -1.72124400e-01   1.38002760e-01
C     5.002972592188470e+00   4.344350911081460e+00   3.010223776431926e+00  7.52490800e-01  -1.08177530e-01  -2.03698430e-01
C     6.265932072383819e+00   5.067917018402993e+00   2.995244118485829e+00 -1.74365450e-01  -4.49172000e-01   1.04351610e-01
C     7.515250612134773e+00   4.336599573512135e+00   3.008191433305557e+00  2.58389430e-01  -1.50279750e-01  -1.14336750e-01
C     8.767172414996462e+00   5.057969358903653e+00   3.007346025481490e+00  3.10411250e-01   4.10444640e-01  -4.02806900e-02
C     1.003256939340468e+01   4.354955277754462e+00   2.996348149277231e+00 -3.03231580e-01  -9.09770360e-01   7.09994900e-02
C     1.128548699186745e+01   5.064505342773878e+00   2.994817937315563e+00 -1.74556000e-03   5.78483890e-01  -1.94784100e-02
C     3.769383451879275e+00   6.507769746430423e+00   3.008034427932082e+00 -2.92103630e-01   5.21823770e-01  -2.16424590e-01
C     5.018986922105150e+00   7.233899149907319e+00   2.995658339326262e+00 -1.54402420e-01   5.15585800e-02   1.20571460e-01
C     6.260680784261961e+00   6.504765884923065e+00   2.986632703301828e+00  5.33998160e-01   5.43867270e-01   1.32867580e-01
C     7.515936755826295e+00   7.248166808974210e+00   3.001708093879619e+00  3.28548790e-01  -6.77381260e-01  -1.37118500e-02
C     8.783517512398618e+00   6.509712384263683e+00   3.006626917406391e+00 -9.83486730e-01   9.28007400e-02  -3.14322000e-03
C     1.002001401330255e+01   7.234466340955782e+00   3.006726962365077e+00  6.77240070e-01   1.58194600e-02  -5.24346700e-02
C     1.128783259958662e+01   6.517937024372244e+00   3.000450231597090e+00 -1.85628880e-01  -1.21074060e-01  -1.06433400e-02
C     1.253930460909959e+01   7.239327307689873e+00   2.996724567284257e+00  1.46218460e-01  -3.12225000e-01   9.35241500e-02
