32
Lattice="9.86 0 0 4.93 8.53901048131456 0 0 0 30 " PBC="1 1 1" Properties=species:S:1:pos:R:3:force:R:3 Energy="-256.4489188"
C     1.278932564100000e+00   8.085330291494456e-01   3.385024800000000e+00 -9.89650840e-01  -2.88087700e-02   4.61590890e-01
C     2.491835814100000e+00   1.516138455419588e+00   3.552585900000000e+00  7.33788020e-01  -6.37696730e-01  -2.38716500e-02
C     3.717418038100000e+00   8.231665021892312e-01   3.467043900000000e+00  1.12681955e+00  -1.06131084e+00   5.60264600e-02
C     4.938917038900000e+00   1.565796729305609e+00   3.437721300000000e+00 -2.29480610e-01  -2.58778990e-01   1.61900910e-01
C     6.145840149599999e+00   8.039749907453264e-01   3.355866900000000e+00  1.03491240e+00   8.51191240e-01   4.67923800e-01
C     7.410600442699999e+00   1.484676642086238e+00   3.300701100000000e+00 -4.05928660e-01   1.64058578e+00   1.46011060e-01
C     8.637398848400000e+00   8.035958586800144e-01   3.300404100000000e+00  1.46052495e+00  -1.33697478e+00   1.28898769e+00
C     9.912804391900000e+00   1.503806758044791e+00   3.441028800000000e+00 -1.98090826e+00   9.40960260e-01  -6.88025590e-01
C     2.530172282900000e+00   2.894638394104257e+00   3.801600000000000e+00 -1.51172716e+00   1.43310229e+00  -1.05156900e-01
C     3.728542878900000e+00   3.684232495739796e+00   3.828711300000000e+00  4.57710230e-01  -1.65404660e-01  -1.28042819e+00
C     4.936303251500000e+00   3.008644260044623e+00   3.523011600000000e+00  1.27803096e+00  -1.47851164e+00   1.19796650e-01
C     6.215748732800000e+00   3.680802119059666e+00   3.349010100000000e+00 -2.01374863e+00  -1.22808188e+00   5.91642670e-01
C     7.438935666999999e+00   2.951567037683264e+00   3.321028500000000e+00 -1.50708893e+00  -1.45001570e+00  -5.21583120e-01
C     8.619408686799998e+00   3.665532660519330e+00   3.373221000000000e+00  2.35540842e+00   2.13517600e-01   9.61911330e-01
C     9.874778118700000e+00   2.946169785329170e+00   3.551082900000000e+00  8.29126900e-02  -1.20657043e+00  -1.83682790e-01
C     1.112001418210000e+01   3.572798579756006e+00   3.797673600000000e+00 -3.16414400e-02   2.66191004e+00  -1.64435320e-01
C     3.740014988900000e+00   5.119977789902175e+00   3.748369800000000e+00 -1.22976281e+00  -4.37468640e-01   3.26708740e-01
C     4.947174641000000e+00   5.809613124787472e+00   3.499407300000000e+00  1.79904610e-01  -1.71683175e+00  -1.47021460e-01
C     6.139006577999999e+00   5.061496924998114e+00   3.339567000000000e+00  2.47898882e+00   1.91969742e+00  -3.97611940e-01
C     7.411373170899999e+00   5.797100656560813e+00   3.217167000000000e+00 -8.33954720e-01  -3.10584860e-01   1.15150935e+00
C     8.625849189500000e+00   5.095731440424425e+00   3.418844700000000e+00  7.55420740e-01  -3.11131800e-01  -6.87171100e-01
C     9.896752509100001e+00   5.778476220802886e+00   3.557166300000000e+00 -2.46131840e-01  -1.16199657e+00   3.24909210e-01
C     1.109423146530000e+01   5.047463146664339e+00   3.828582000000000e+00  1.22246524e+00  -4.72032300e-02  -8.93587240e-01
C     1.235249411700000e+01   5.827177527784412e+00   3.786292800000000e+00 -1.01042055e+00  -2.14446597e+00   2.54901300e-02
C     4.963227164700000e+00   7.188668696884075e+00   3.376035900000000e+00 -6.01331060e-01   1.83245792e+00   3.57201590e-01
C     6.162507740100000e+00   7.936868408195927e+00   3.265886700000000e+00  2.03782130e+00  -8.30885940e-01   2.69368020e-01
C     7.424900055599999e+00   7.210262061195793e+00   3.265305600000000e+00  3.82489950e-01   9.89435670e-01   2.03417070e-01
C     8.705458090000000e+00   7.912696091939038e+00   3.412828500000000e+00 -1.56331047e+00   1.20283030e-01  -8.10359050e-01
C     9.953465552899999e+00   7.182658258187413e+00   3.451200000000000e+00 -3.03811714e+00   6.85905730e-01   5.60343060e-01
C     1.110312395280000e+01   7.933506002039217e+00   3.518560200000000e+00  1.50585791e+00   6.76759900e-02  -6.44719520e-01
C     1.233279679500000e+01   7.208407388119538e+00   3.589892700000000e+00  9.82029700e-01   1.16707465e+00   2.47154160e-01
C     1.359353406020000e+01   7.891914189793233e+00   3.489678300000000e+00 -8.81882390e-01   1.28892558e+00  -1.17423892e+00
