32
Lattice="9.86 0 0 4.93 8.53901048131456 0 0 0 30 " PBC="1 1 1" Properties=species:S:1:pos:R:3:force:R:3 Energy="-253.67652821"
C     4.971871081600000e+00   7.937000677468262e+00   1.934823000000000e-01 -9.23674300e-02  -5.77581602e+00   5.47357050e-01
C     6.189305889000000e+00   8.523493219375535e+00   2.060430000000000e-01  3.27643299e+00   2.53004302e+00  -1.11521500e+00
C     7.469015519699999e+00   7.768870037430101e+00   2.749239000000000e-01 -4.16597690e-01   3.10477755e+00  -5.10473370e-01
C     3.794116217300000e+00   9.939493588824800e-03   8.317950000000000e-02 -9.43253010e-01  -2.54401447e+00   4.07100000e-04
C     9.960728133100000e+00   7.812120467071721e+00   4.408350000000000e-02  4.45090210e-01  -1.79820035e+00  -1.21044647e+00
C     1.122580754510000e+01   8.470869603320125e+00   8.493000000000000e-04 -2.94429866e+00   3.09475109e+00   1.64970772e+00
C     1.242030700650000e+01   7.822419879952277e+00   1.202580000000000e-01  1.30713280e-01  -2.90663925e+00  -1.89430836e+00
C     8.659079755899999e+00   5.069243344525360e-02   1.666641000000000e-01  1.74571310e+00  -2.50308267e+00  -1.93413840e-01
C     1.276611322900000e+00   1.410558714240676e+00  -1.674216000000008e-01  3.46454345e+00  -3.40610970e-01   6.77493530e-01
C     2.619528385000000e+00   2.150414873022416e+00  -3.467073000000020e-01 -4.40979221e+00  -1.15269280e+00  -4.71662700e-02
C     3.771190041100000e+00   1.396717832153644e+00  -1.654742999999996e-01  1.88238268e+00   7.88057440e-01   8.13979180e-01
C     5.012048609599999e+00   2.119289838262397e+00  -3.488550000000146e-02  8.59065090e-01  -2.60705890e-01  -5.06098400e-02
C     6.235691815300000e+00   1.397674542887823e+00   1.656447000000000e-01  1.85953192e+00  -9.85576900e-02  -5.95536760e-01
C     7.551123634400000e+00   2.110659460370261e+00   2.494158000000000e-01 -3.78328713e+00   9.66701480e-01  -8.83117570e-01
C     8.739600657099999e+00   1.404929115411421e+00   9.406470000000000e-02 -9.23451190e-01   2.18690191e+00   5.10493240e-01
C     9.944090319800001e+00   2.115093085391687e+00  -1.416426000000008e-01 -2.56896200e-02  -2.50487980e-01  -2.42802210e-01
C     2.543394838699999e+00   3.544870892080117e+00  -5.868696000000000e-01  7.59836390e-01   8.19900500e-01   5.73406460e-01
C     3.851315901400000e+00   4.292624098533971e+00  -4.260386999999994e-01 -1.74341792e+00  -1.05240292e+00   1.07129927e+00
C     5.039304607600000e+00   3.564552884285994e+00  -7.056719999999927e-02 -2.33474954e+00  -1.55540393e+00  -1.39533112e+00
C     6.213173399400000e+00   4.251142951863808e+00   9.186480000000000e-02  2.54804032e+00  -1.09832755e+00   2.11441345e+00
C     7.480070551699999e+00   3.548313479545234e+00   2.118063000000000e-01 -5.57865450e-01  -9.31368270e-01  -9.89436010e-01
C     8.648735284799999e+00   4.260552429072139e+00  -6.763379999999941e-02  2.63674754e+00  -3.04103700e-02   1.68414540e-01
C     9.913413739899999e+00   3.509193369272791e+00  -3.262524000000013e-01 -1.68650471e+00   1.87912243e+00   1.10849620e-01
C     1.107471970850000e+01   4.235370118655676e+00  -6.233019000000013e-01  4.31325566e+00   2.79067810e-01   1.00796349e+00
C     3.838404330000000e+00   5.696122161179050e+00  -1.962803999999991e-01  1.98812460e-01   3.85375300e-02  -1.39810610e-01
C     5.053599931399999e+00   6.396953078094779e+00   1.701837000000000e-01 -1.56770357e+00   8.12923800e-01   3.16721040e-01
C     6.242836519200000e+00   5.593588455818564e+00   4.090485000000000e-01 -3.85512840e-01   4.48274317e+00  -2.14122217e+00
C     7.468483572700000e+00   6.396910639212694e+00   3.649704000000000e-01  2.05010381e+00  -2.40145206e+00  -8.77828720e-01
C     8.749623544300000e+00   5.688526967527404e+00   5.912100000000000e-03 -1.22676323e+00  -7.11906980e-01   4.68662700e-01
C     1.002379210150000e+01   6.315836150309285e+00  -1.800020999999994e-01 -2.86640808e+00   4.05927414e+00   1.15031722e+00
C     1.124583695190000e+01   5.697148294068431e+00  -4.503230999999985e-01 -2.86539683e+00  -2.83680859e+00  -7.12042700e-02
C     1.242669673020000e+01   6.348819529920068e+00  -2.461506000000000e-01  2.60279022e+00   3.20608693e+00   1.17643697e+00
