32
Lattice="9.86 0 0 4.93 8.53901048131456 0 0 0 30 " PBC="1 1 1" Properties=species:S:1:pos:R:3:force:R:3 Energy="-256.95270198"
C     1.284029691100000e+00   5.268980192564088e-01   3.416707800000000e+00  1.36566010e-01   1.72645570e+00   4.07917440e-01
C     2.529390237000000e+00   1.259094685637589e+00   3.325372500000000e+00 -1.12107244e+00  -1.68776090e-01   3.83185300e-02
C     3.767311166400000e+00   5.261131988031920e-01   3.363192300000000e+00 -1.35586777e+00   2.54259553e+00   1.66025160e-01
C     4.960651535499999e+00   1.287992319513900e+00   3.362316600000000e+00  1.05696482e+00  -1.58112285e+00   1.33782280e-01
C     6.174915859900000e+00   5.365389036487480e-01   3.408289500000000e+00  1.49287718e+00   5.67430170e-01   4.35294220e-01
C     7.440237137700000e+00   1.228872138895201e+00   3.567041100000000e+00 -1.52223584e+00   1.71906723e+00  -8.15286730e-01
C     8.659261968699999e+00   5.545756847054424e-01   3.504020100000000e+00 -3.81456800e-02  -5.16299390e-01   4.30678100e-01
C     9.898924371300000e+00   1.253990662903378e+00   3.483651300000000e+00  7.03049150e-01  -1.77647580e-01  -4.46062980e-01
C     2.472601517700000e+00   2.693752536815340e+00   3.204304200000000e+00  1.74148059e+00  -7.52755360e-01  -1.30733290e-01
C     3.745778158900000e+00   3.385999528055945e+00   3.210375600000000e+00 -8.66754670e-01   1.11347649e+00  -8.47881100e-02
C     4.975700952100000e+00   2.693022963759929e+00   3.356492400000000e+00 -6.17029200e-01   7.49313070e-01  -2.36463990e-01
C     6.185852621199999e+00   3.443457077944083e+00   3.453767400000000e+00  1.08025055e+00  -2.72888027e+00   6.36254680e-01
C     7.432057824000000e+00   2.681940096667832e+00   3.573063000000000e+00 -5.62185310e-01   2.32821000e-03  -7.27047760e-01
C     8.651203637200000e+00   3.395260170311610e+00   3.444367200000000e+00  7.26176270e-01  -5.97953560e-01   8.01204640e-01
C     9.924952454200000e+00   2.672824019859593e+00   3.397040100000000e+00 -2.34438499e+00   3.24363450e-01  -4.56376790e-01
C     1.109505822630000e+01   3.392975216497267e+00   3.147227700000000e+00  1.34293333e+00  -2.95660330e-01   7.17724500e-01
C     3.755975173700000e+00   4.849829969247463e+00   3.163239000000000e+00 -5.01867140e-01  -2.27613238e+00   5.29869110e-01
C     4.974841653099999e+00   5.518680925673916e+00   3.348425700000000e+00 -2.55059350e-01   2.63088347e+00   5.15014200e-01
C     6.201979144199999e+00   4.824428718602292e+00   3.509648400000000e+00 -8.04670000e-02   9.07358450e-01  -9.22768050e-01
C     7.449942680800000e+00   5.522615274752575e+00   3.498418800000000e+00 -1.42527765e+00   1.25357698e+00   8.83616410e-01
C     8.638235814500000e+00   4.822678306843998e+00   3.467958300000000e+00  2.26978133e+00  -7.44501440e-01  -1.24300481e+00
C     9.892572016999999e+00   5.515722073152491e+00   3.248812800000000e+00 -4.44459320e-01   1.02964039e+00   8.98955930e-01
C     1.112141109760000e+01   4.806383227754909e+00   3.109013100000000e+00 -4.67334120e-01   5.48767860e-01   2.80263320e-01
C     1.235979081280000e+01   5.514622248602667e+00   3.140669100000000e+00  4.75307510e-01   5.32969920e-01  -6.74375200e-02
C     4.933808868700000e+00   7.001011133070354e+00   3.458391900000000e+00  1.07593215e+00  -2.39409852e+00  -2.05819690e-01
C     6.198508177699999e+00   7.676943149327451e+00   3.526863600000000e+00 -1.63042690e-01  -1.09821760e+00  -2.26984160e-01
C     7.438732550999999e+00   6.950543104820515e+00   3.552887100000000e+00 -4.24770000e-02   3.95221820e-01  -5.88268860e-01
C     8.671683892499999e+00   7.687554065310319e+00   3.473390400000000e+00  9.50474000e-02  -2.00561152e+00  -2.82165370e-01
C     9.903073755099999e+00   6.968236019925180e+00   3.354697200000000e+00 -1.05781720e-01  -1.42231136e+00  -3.86619920e-01
C     1.113897954700000e+01   7.656793048567062e+00   3.311192400000000e+00 -2.68410420e-01  -6.77190000e-04   1.69281360e-01
C     1.238756125630000e+01   6.930306760054277e+00   3.272321100000000e+00 -2.51038125e+00   2.19389760e-01   4.95913500e-02
C     1.354510218390000e+01   7.664752004065156e+00   3.435736800000000e+00  2.49586729e+00   4.97806920e-01  -2.73963200e-01
