32
Lattice="9.86 0 0 4.93 8.53901048131456 0 0 0 30 " PBC="1 1 1" Properties=species:S:1:pos:R:3:force:R:3 Energy="-256.57266827"
C     9.833895058400000e+00   4.987943425745280e-02   3.665799300000000e+00  7.09745450e-01  -9.90958650e-01   3.11394200e-02
C     1.235944591000000e+00   7.349903744399215e-01   3.754530600000000e+00  3.40191300e-01   3.49015520e-01  -1.67287440e-01
C     2.507565767900000e+00   2.131465100965200e-02   3.552015900000000e+00 -2.65571042e+00   9.11012560e-01   4.50275830e-01
C     3.676858730900000e+00   8.041545661357208e-01   3.550926900000000e+00  9.02015200e-02  -6.47256150e-01   1.17435110e-01
C     4.878205518600000e+00   9.474749404440319e-02   3.446052000000000e+00  2.59617884e+00  -2.12291710e+00   3.00090410e-01
C     6.180847093599999e+00   7.389878268060288e-01   3.483551700000000e+00 -2.90099894e+00   1.68474305e+00   6.92740200e-01
C     7.380759842900000e+00   6.392789968925360e-02   3.563718600000000e+00 -6.05505500e-01  -2.65046580e+00   5.88489570e-01
C     8.567597788499999e+00   7.314078325930375e-01   3.732483300000000e+00  2.95271304e+00   1.42043582e+00  -5.08781030e-01
C     1.110319336720000e+01   2.172952054162490e+00   3.950444400000000e+00 -1.35607731e+00  -1.04585624e+00  -5.27309090e-01
C     2.448927411200000e+00   2.907055566973958e+00   3.897006000000000e+00 -9.71653400e-02   3.23336660e-01  -5.64676190e-01
C     3.656990387200000e+00   2.204244453527917e+00   3.705079200000000e+00  1.65959608e+00   7.69323100e-01   7.76715500e-02
C     4.945164778600000e+00   2.912376395184256e+00   3.632032200000000e+00 -1.11614352e+00  -1.37369707e+00  -2.82603120e-01
C     6.166004539799999e+00   2.177348790658642e+00   3.602966100000000e+00 -1.00810310e-01  -8.68198470e-01  -8.13527730e-01
C     7.394242308299999e+00   2.862665435603573e+00   3.587609100000000e+00 -2.11191290e-01   1.54930879e+00   6.14128600e-02
C     8.627838099400000e+00   2.167108980071236e+00   3.748338900000000e+00 -1.40398990e+00  -8.60406530e-01   1.46066710e-01
C     9.820943603299998e+00   2.856907239276490e+00   3.926321700000000e+00  2.05574676e+00   2.79158420e-01  -2.06600650e-01
C     1.227112643900000e+01   4.335484636957074e+00   3.797104200000000e+00  1.14790275e+00  -7.80436500e-02   1.28194840e-01
C     3.674400830100000e+00   5.037566091957599e+00   3.650865600000000e+00  2.55410860e-01  -1.03578974e+00  -2.58092260e-01
C     4.949999777500000e+00   4.298755876569555e+00   3.526037100000000e+00 -1.49738194e+00   2.12499433e+00   3.54759310e-01
C     6.168801476699999e+00   5.054307846684897e+00   3.376085400000000e+00 -3.85523650e-01  -2.75849173e+00   5.98385280e-01
C     7.367265939899999e+00   4.302266946898721e+00   3.442748100000000e+00  1.93881724e+00  -5.65445190e-01   5.97445610e-01
C     8.653298788600001e+00   4.976148832129676e+00   3.524608500000000e+00 -2.12933163e+00   1.48565910e-01   1.20001480e-01
C     9.840761660999998e+00   4.279790819683580e+00   3.846433200000000e+00 -1.33042449e+00  -1.38883570e-01  -1.18616706e+00
C     1.101075966330000e+01   5.013510333193762e+00   3.745574100000000e+00  2.86046577e+00   4.70702630e-01   5.35495910e-01
C     1.354612254600000e+01   6.455264443640814e+00   3.601191300000000e+00  3.83811960e-01  -4.22188100e-02  -5.45373200e-02
C     4.941620305800000e+00   7.154786159469749e+00   3.482644200000000e+00 -5.73763380e-01   3.68831820e-01   9.60299170e-01
C     6.185239871499999e+00   6.426589165597401e+00   3.429078300000000e+00 -1.15451313e+00   2.56057501e+00  -3.68680870e-01
C     7.405555869500000e+00   7.149850355241994e+00   3.425397300000000e+00  5.40393310e-01  -7.13739250e-01  -2.61944390e-01
C     8.621293869499999e+00   6.389797814263063e+00   3.389172300000000e+00  9.57663930e-01   1.48980266e+00   7.90980210e-01
C     9.836625933299999e+00   7.160743912471749e+00   3.485479800000000e+00 -1.09971110e-01   3.86333860e-01  -3.88796610e-01
C     1.107784710330000e+01   6.432725981649167e+00   3.609291300000000e+00 -1.03287955e+00   1.04029834e+00   1.96225420e-01
C     1.230592405520000e+01   7.158077948009789e+00   3.670382400000000e+00  1.72542620e-01   1.59294700e-02  -1.15810511e+00
