32
Lattice="9.704 0 0 4.852 8.40391051832419 0 0 0 30 " PBC="1 1 1" Properties=species:S:1:pos:R:3:force:R:3 Energy="-257.49532334"
C     9.559245641039197e-04  -3.895140411265889e-03   3.000602146142103e+00 -5.44373000e-02   2.83154200e-01  -3.11104000e-03
C     1.211393966821480e+00   7.009990626916017e-01   3.000942532888430e+00  7.47628300e-02  -1.04141060e-01  -1.73526800e-02
C     2.422225045222939e+00  -2.698697203122006e-03   3.000297544072125e+00  2.28990700e-01   1.43220100e-01   2.24102700e-02
C     3.640748275755562e+00   6.967399928244993e-01   3.001726572573384e+00 -3.05371750e-01   2.17521080e-01   1.10808700e-02
C     4.848569134990486e+00  -1.059382479355213e-03   3.003485481231329e+00  4.40757400e-01   1.25519540e-01  -1.27947200e-02
C     6.068382467768217e+00   7.023508300666664e-01   3.000870647510827e+00 -2.10465790e-01  -7.55322700e-02  -4.46145000e-03
C     7.281662346403538e+00   1.411816750480288e-03   2.996154838112729e+00 -1.64983200e-01  -1.69569100e-02   3.94221500e-02
C     8.492776191479379e+00   7.003426350791387e-01   3.000706255782742e+00  3.94619000e-02  -1.87341400e-02  -3.35344500e-02
C     1.213537410873067e+00   2.100615390022508e+00   2.998469432607538e+00 -8.92171400e-02   7.21920600e-02   5.91520000e-03
C     2.427173971159287e+00   2.802385862365364e+00   2.997021929224771e+00 -6.15990200e-02  -9.48956300e-02   4.19986500e-02
C     3.640478248882726e+00   2.102961187442176e+00   3.001844216452056e+00 -1.21715960e-01  -2.94235780e-01  -3.89253200e-02
C     4.849340632092415e+00   2.800795265830459e+00   2.998920626777378e+00  2.64119470e-01   2.82056000e-02   1.50814100e-02
C     6.068741105335929e+00   2.103507679708069e+00   3.001141557712983e+00 -3.67354900e-01  -1.98343240e-01  -1.71052400e-02
C     7.275745437715476e+00   2.798390859388156e+00   2.998806306478448e+00  2.40171970e-01   2.97332000e-01   4.45102000e-03
C     8.488953829510729e+00   2.101307243656884e+00   2.999214967804762e+00  7.79329100e-02  -1.18694060e-01   1.39082200e-02
C     9.701140876277542e+00   2.799830099975075e+00   2.999589440668732e+00  1.55640110e-01   1.95900870e-01   3.15023000e-03
C     2.427904561803237e+00   4.201527150106582e+00   3.000656735310085e+00 -1.97085570e-01   2.17481400e-02  -5.83751600e-02
C     3.637679517427375e+00   4.898814187024074e+00   2.997780068489873e+00  1.39485920e-01   1.70024860e-01   4.05386800e-02
C     4.849323013998929e+00   4.199665293070082e+00   2.996165172996508e+00  2.21889680e-01   1.21417930e-01   1.60574000e-02
C     6.067241112052993e+00   4.903190071650324e+00   2.997939097117129e+00 -1.26885900e-01  -2.81611590e-01  -2.93094000e-03
C     7.280993949808626e+00   4.201495486550946e+00   2.998186625219776e+00 -2.04834710e-01  -3.45650200e-02  -3.18164000e-03
C     8.489229074237079e+00   4.904313312876663e+00   2.998342907408198e+00  1.79250330e-01  -3.36506500e-02   1.14521600e-02
C     9.702874519667215e+00   4.204633732954947e+00   3.001168059653582e+00  1.17571380e-01  -1.39461690e-01  -3.98201100e-02
C     1.091926457322488e+01   4.904370893534740e+00   2.997576740772026e+00 -1.63636780e-01  -4.32502400e-02   6.01207500e-02
C     3.640092213315157e+00   6.299936032924412e+00   3.003072773326668e+00 -1.50405890e-01   2.00351990e-01  -8.26786900e-02
C     4.853161023612268e+00   7.004686199584282e+00   2.998570966384072e+00  5.45955700e-02  -3.72985590e-01   4.48252300e-02
C     6.069390529449244e+00   6.298812016238407e+00   3.000308211265248e+00 -1.93249330e-01   2.56276070e-01  -1.39801100e-02
C     7.280450192777421e+00   7.001636135985819e+00   3.001729790528464e+00 -3.54586900e-02   9.98738000e-03  -2.85340800e-02
C     8.494629101488282e+00   6.304429586367393e+00   2.998633348144784e+00 -1.02233180e-01  -3.03358000e-02   3.34232800e-02
C     9.707467225646210e+00   7.003547500843380e+00   3.002669820578857e+00 -2.93851170e-01   7.49955700e-02  -1.75601800e-02
C     1.091359516034403e+01   6.306880531502786e+00   3.001395413577109e+00  3.32852480e-01  -2.11194970e-01  -3.91189800e-02
C     1.212712215807187e+01   7.005471943165371e+00   2.996966731217913e+00  2.75303650e-01  -1.49258720e-01   4.96292600e-02
