32
Lattice="9.664 0 0 4.832 8.36926950217281 0 0 0 30 " PBC="1 1 1" Properties=species:S:1:pos:R:3:force:R:3 Energy="-257.15293074"
C    -2.085296933903573e-03  -6.659842961810728e-04   3.001061338123207e+00  2.36092590e-01   3.74312500e-02  -5.48404500e-02
C     1.209091088678497e+00   6.959285578717699e-01   2.997920880333134e+00 -6.88269800e-02   9.34026200e-02   5.43207200e-02
C     2.417322992919812e+00  -1.464420539630588e-03   3.000619628294581e+00 -1.42357610e-01   1.64056800e-02  -4.02754500e-02
C     3.621886093861971e+00   6.965522163641285e-01   2.996051822303620e+00  1.45472360e-01   1.33772080e-01   1.02073710e-01
C     4.831818906524257e+00   2.379898437735322e-03   3.002626171185897e+00  1.37704900e-02  -9.12371400e-02  -7.07447200e-02
C     6.041227348618235e+00   6.946085256487856e-01   3.000209862668628e+00 -3.85379300e-02   2.27805290e-01   4.16702100e-02
C     7.248476823618354e+00   1.533843489242317e-03   3.000869908665780e+00  1.42948530e-01  -2.36169450e-01  -3.35122200e-02
C     8.459748763091076e+00   6.964513085457670e-01   2.998011469657721e+00 -3.10279770e-01   2.54682750e-01   4.68903900e-02
C     1.207199541647526e+00   2.094374125664457e+00   3.002136854692091e+00  1.33477050e-01  -2.62881790e-01  -4.60831900e-02
C     2.416196378277574e+00   2.788664861898869e+00   3.001029128725657e+00 -1.07585100e-02   8.68946900e-02   2.58577700e-02
C     3.623383895747534e+00   2.093525127686740e+00   3.003941401493203e+00  1.28506450e-01  -3.64369600e-02  -8.34974100e-02
C     4.835380721382684e+00   2.792352348036486e+00   2.998381877189491e+00 -1.21224170e-01  -1.82283100e-01   4.65606400e-02
C     6.041585467741505e+00   2.090957978552786e+00   3.002356230894623e+00 -6.68223900e-02   3.90054200e-02  -5.89626500e-02
C     7.247365735283328e+00   2.791824558547008e+00   2.997776443935266e+00  3.89973100e-02  -1.96402430e-01   2.07974900e-02
C     8.454384167427222e+00   2.095214777191362e+00   2.999654131882254e+00  2.16218390e-01  -1.51034080e-01  -2.56357000e-02
C     9.666625490229656e+00   2.790738971954071e+00   2.999008258381229e+00 -2.18215650e-01  -3.62339000e-02   3.70929000e-03
C     2.418250528512202e+00   4.184940469755754e+00   3.000319969944490e+00 -1.19562710e-01  -9.54674000e-02   2.36490300e-02
C     3.621030583990039e+00   4.878700115120742e+00   3.002959735964545e+00  3.70424480e-01   3.14871580e-01  -5.59569400e-02
C     4.835868016310439e+00   4.186955754724932e+00   2.997811347297889e+00 -3.41795260e-01  -1.18310630e-01   4.75977100e-02
C     6.037362111375682e+00   4.881981425195670e+00   3.002198783939981e+00  3.72798670e-01   2.08933780e-01  -6.36229700e-02
C     7.249639998051260e+00   4.182440305956075e+00   2.997823128264836e+00 -1.67678670e-01   2.45623690e-01   5.05342600e-02
C     8.457150235141404e+00   4.879589796497459e+00   3.003150420579615e+00  4.11517200e-02   2.03367110e-01  -6.41812200e-02
C     9.667913577470763e+00   4.183558098137802e+00   2.997111818825555e+00 -2.26411600e-02   1.66696700e-01   5.16331900e-02
C     1.087658200193032e+01   4.883609300500585e+00   3.000243643992123e+00 -2.30483450e-01   3.53021600e-02  -3.45367100e-02
C     3.624929201395068e+00   6.279563516199771e+00   2.999224759322956e+00 -1.03221830e-01  -4.11729240e-01   6.79223000e-03
C     4.828436906523856e+00   6.975124390100881e+00   2.997614529230621e+00  2.54401210e-01   1.63148400e-02   2.47056500e-02
C     6.040154673506963e+00   6.280826181558861e+00   2.998875349100032e+00 -2.08640390e-01  -2.95001220e-01   3.65846400e-02
C     7.246463009573406e+00   6.971730769817729e+00   3.002207362089036e+00  6.11062400e-02   2.21702500e-01  -1.44761700e-02
C     8.452624261028486e+00   6.279429868117171e+00   3.002204153740925e+00  3.57198170e-01  -2.43016920e-01   1.58258000e-03
C     9.667787408452522e+00   6.977236177820402e+00   2.998665061955295e+00 -4.43129370e-01  -3.70506300e-02   3.17028600e-02
C     1.087000865279936e+01   6.280769961077553e+00   2.997743774930546e+00  2.92665830e-01  -2.45342790e-01   1.77362400e-02
C     1.208275296631587e+01   6.971604283074772e+00   2.998393915431004e+00 -1.91053640e-01   3.36385540e-01   1.19271900e-02
