32
Lattice="9.86 0 0 4.93 8.53901048131456 0 0 0 30 " PBC="1 1 1" Properties=species:S:1:pos:R:3:force:R:3 Energy="-252.58628532"
C     4.977140364199999e+00   8.222579343961382e+00  -9.433743000000021e-01  7.90661000e-02  -1.91184255e+00   1.66272039e+00
C     1.307046628600000e+00   3.360133072119824e-01  -7.739225999999988e-01 -5.67078300e-02  -4.29884920e-01  -2.31369279e+00
C     7.465502352400000e+00   8.079460917250923e+00  -8.821167000000010e-01 -1.93911990e-01   5.75349456e+00   1.16222724e+00
C     3.767987562400000e+00   3.738761335813504e-01  -7.628744999999988e-01 -5.26828980e-01  -3.40867447e+00   1.34206860e-01
C     9.915013179799999e+00   8.219147857209890e+00  -5.955116999999994e-01  1.62128481e+00  -1.85697120e-01  -8.99937590e-01
C     6.264248692399999e+00   3.761493889513360e-01  -7.279280999999997e-01 -3.37443407e+00   1.46229115e+00   6.38347330e-01
C     1.235182363700000e+01   8.209384011066637e+00  -6.032831999999999e-01  1.43403596e+00  -2.83312921e+00   4.84777400e-02
C     8.628127441099998e+00   3.694760668711112e-01  -8.401454999999984e-01  1.77139655e+00  -3.34029922e+00   2.78255200e-02
C     1.344078816600000e+00   1.775616184748806e+00  -7.283177999999992e-01  1.33494480e-01  -6.92702190e-01   2.95091843e+00
C     2.599377798800000e+00   2.382510130494894e+00  -2.107101000000000e-01 -3.69547945e+00   2.75538721e+00  -2.10675394e+00
C     3.812362295200000e+00   1.743613168931234e+00  -5.214314999999985e-01 -2.22290570e+00   7.59043740e-01   7.41459970e-01
C     4.945795079100000e+00   2.509840353778357e+00  -5.220239999999983e-01  4.30136277e+00   6.47013090e-01  -6.86899800e-01
C     6.226581766899999e+00   1.842816233253996e+00  -8.639808000000002e-01 -2.14008268e+00  -2.56964738e+00   1.55760470e+00
C     7.461132646899999e+00   2.437238100292996e+00  -8.826873000000006e-01 -1.18925747e+00   3.38828007e+00  -5.73617900e-02
C     8.618008616099999e+00   1.708233742979764e+00  -8.722284000000009e-01  4.47797611e+00   3.78215506e+00   1.85706200e-01
C     9.958065144299999e+00   2.465927980044329e+00  -6.829302000000013e-01 -9.28160760e-01   5.86798000e-03   2.36345110e-01
C     2.435843536300000e+00   3.845875793345987e+00  -1.792800000000483e-03  3.88103996e+00  -2.82713400e-01  -6.11942490e-01
C     3.733338043400000e+00   4.616380851663381e+00  -1.780058999999987e-01  7.21851400e-02   5.25896000e-03   6.91318210e-01
C     4.978949723500000e+00   3.941717988533926e+00  -3.181389000000010e-01  6.46180570e-01  -1.08789679e+00  -2.02072965e+00
C     6.234795097599999e+00   4.634394065051151e+00  -6.987287999999978e-01  2.95146510e-01  -1.43882450e+00   7.55793620e-01
C     7.481395735700000e+00   3.881691135782460e+00  -8.701943999999990e-01 -2.36108970e-01  -2.52604870e-01   6.72654910e-01
C     8.768675085599998e+00   4.510764905080033e+00  -7.590978000000028e-01 -3.12755879e+00   5.34113719e+00  -1.00030000e-02
C     9.935792143799999e+00   3.921251773605566e+00  -3.799577999999997e-01 -2.62851110e-01  -4.20327754e+00  -1.28924815e+00
C     1.108706689350000e+01   4.587422078472033e+00  -1.977929999999972e-02  2.35309266e+00   9.97156210e-01  -8.81908350e-01
C     3.838052574500000e+00   6.034735682472297e+00  -3.461247000000007e-01 -2.20110233e+00   1.06500275e+00  -5.28981050e-01
C     5.025943124399999e+00   6.756502289112577e+00  -7.897391999999996e-01 -9.57961640e-01   2.66229830e-01   1.35788305e+00
C     6.288321931700000e+00   6.052543276487708e+00  -7.612403999999984e-01 -5.78822037e+00  -2.32349722e+00  -2.98228640e-01
C     7.403338799200000e+00   6.724777986597070e+00  -8.690700000000007e-01  7.64896142e+00  -3.97609060e-01  -6.12533960e-01
C     8.733691657699998e+00   6.017352306497531e+00  -8.153214000000020e-01  4.99952110e-01  -1.34840920e-01   1.86522936e+00
C     9.966596953000000e+00   6.815390720986848e+00  -4.696679999999986e-01 -1.25944420e+00  -3.26158286e+00  -7.34916150e-01
C     1.123206701820000e+01   6.029263457606189e+00  -1.654142999999983e-01 -4.36811778e+00   3.85253530e-01  -3.55040430e-01
C     1.238726816780000e+01   6.735251082950791e+00  -2.632524000000025e-01  3.31395898e+00   2.14115288e+00  -1.28054087e+00
