32
Lattice="10.052 0 0 5.026 8.70528735884118 0 0 0 30 " PBC="1 1 1" Properties=species:S:1:pos:R:3:force:R:3 Energy="-257.2126216"
C    -5.818447979631628e-03   1.697152195735091e-03   2.991402206744851e+00 -1.80746800e-02   5.03101390e-01   1.37187860e-01
C     1.263879525690416e+00   7.330984029839825e-01   3.003466369413873e+00 -6.15379830e-01  -6.30044910e-01  -1.33115100e-01
C     2.504337354502586e+00   3.464953570829636e-03   3.008818938442702e+00  6.71309970e-01  -3.27311370e-01  -9.45009300e-02
C     3.771817011947442e+00   7.335313280658927e-01   2.989559616859961e+00 -4.90680350e-01  -5.93020760e-01   2.44337510e-01
C     5.025846395308661e+00   8.880119817108234e-03   3.010392657212051e+00 -2.44308000e-03  -4.18692620e-01  -2.16788180e-01
C     6.276985075506079e+00   7.236239742137818e-01   2.999161182857511e+00  3.26083100e-01   3.03087590e-01   6.51689100e-02
C     7.546010517196327e+00   6.260393870896802e-03   2.996267661656332e+00 -7.25398230e-01  -3.63798530e-01  -2.63435000e-03
C     8.779474170445559e+00   7.387266636228382e-01   2.998088936239313e+00  8.82028550e-01  -8.27023400e-01  -3.13004600e-02
C     1.261730087351963e+00   2.165364850356927e+00   2.989215455587761e+00 -4.18282040e-01   9.47164700e-01   1.66617020e-01
C     2.518088251041455e+00   2.893803689199342e+00   3.006114265666571e+00 -5.12207110e-01   3.05195280e-01  -9.92636300e-02
C     3.757497968315775e+00   2.168916190888537e+00   2.996004448235664e+00  7.44426820e-01   3.87199320e-01   2.02453500e-02
C     5.023562940143810e+00   2.897795322560874e+00   2.998159662743053e+00 -2.10826590e-01   3.85740260e-01  -3.99040700e-02
C     6.276846365844662e+00   2.181665456404511e+00   3.000766574755713e+00  3.01967840e-01  -2.91828300e-01  -5.82157800e-02
C     7.550086098383550e+00   2.896705720769775e+00   2.996777875832475e+00 -8.73489190e-01   1.71754650e-01   9.17661700e-02
C     8.792289177073460e+00   2.168170853879037e+00   3.004130724125566e+00  1.06326600e-01   7.89662590e-01  -1.06803240e-01
C     1.004011788894279e+01   2.907825360196131e+00   2.995157309365081e+00  7.15457150e-01  -5.37226130e-01   6.03147500e-02
C     2.511030783835777e+00   4.353336541635100e+00   3.014057016502346e+00 -1.03268800e-02  -2.88026660e-01  -1.46001940e-01
C     3.764185986926245e+00   5.075811002074977e+00   3.011277297517535e+00  6.24235600e-02   4.10095170e-01  -1.08298030e-01
C     5.015113204122801e+00   4.360112847677172e+00   2.991334547965705e+00  3.46021550e-01  -4.65394950e-01   2.18333490e-01
C     6.277917312214278e+00   5.082760866727837e+00   3.005234847010283e+00 -1.12620960e-01  -9.53973200e-02  -1.83230000e-01
C     7.530436615201184e+00   4.345747829890706e+00   3.001584368075010e+00  4.06575830e-01   2.84908000e-01   4.14640700e-02
C     8.794897842586446e+00   5.076314869298990e+00   3.008964233579325e+00 -2.18907080e-01   2.25995900e-02  -5.68678200e-02
C     1.005198930238771e+01   4.355922503241649e+00   3.006015355029397e+00 -1.98286100e-01  -2.57045350e-01  -1.18050480e-01
C     1.130699377527523e+01   5.071855175221998e+00   2.994058832049727e+00  1.54210250e-01   3.68748030e-01   2.73621360e-01
C     3.774365288184428e+00   6.536616078273553e+00   3.003256954002271e+00 -2.96033970e-01  -4.30811240e-01  -2.63385400e-02
C     5.018835772308675e+00   7.267318733382440e+00   2.999916169090691e+00  3.95904630e-01  -2.22794780e-01  -9.43021200e-02
C     6.283516466616128e+00   6.537451139783019e+00   2.992916918519597e+00 -2.58736010e-01  -3.56065670e-01   2.26045840e-01
C     7.536872388158435e+00   7.242200703251027e+00   3.012102824613057e+00  6.89279600e-02   7.88638080e-01  -1.28287870e-01
C     8.794788197210327e+00   6.524687317879482e+00   3.006436948790666e+00  2.39295490e-01   8.19765000e-02   4.00386000e-02
C     1.005922711880629e+01   7.256769134564745e+00   3.002774159710317e+00 -3.06967480e-01   1.29602900e-02   1.28359850e-01
C     1.131512938450677e+01   6.531458149030943e+00   3.010980189918316e+00 -2.25786020e-01  -2.57646400e-01  -2.30003710e-01
C     1.256997288233792e+01   7.247695879069627e+00   2.993638684912334e+00  7.34863300e-02   5.99296940e-01   1.60405470e-01
