26
Lattice="8.88768389401873 1.33226762955019e-15 0 4.44384194700937 7.69696003302603 0 0 0 30 " PBC="1 1 1" Properties=species:S:1:pos:R:3:force:R:3 Energy="-204.77905265"
C     1.194257930888469e+01   6.019669134163319e+00  -2.389709999999994e-01  3.99705340e-01   2.76573082e+00  -2.56565900e-02
C     8.241332904344553e+00   5.867941039271137e+00  -5.148854999999983e-01  2.81283616e+00  -3.86372859e+00   9.49963160e-01
C     9.642108541410504e+00   5.449839322566326e+00  -5.270489999999981e-01 -2.05970242e+00   3.17102230e-01  -4.15631770e-01
C     9.940823862702768e+00   4.093399284364208e+00  -5.696921999999986e-01  1.37245652e+00  -2.93252956e+00   2.87596728e+00
C     5.886259895455560e+00   5.323560225408535e+00  -2.224070999999981e-01 -6.68885440e-01  -6.76083683e+00   3.21985650e-01
C     7.322583557331679e+00   4.895846006231058e+00  -2.148764999999990e-01 -4.13992713e+00  -2.87834798e+00  -1.73617279e+00
C     7.621098239077815e+00   3.412696841714273e+00  -3.185102999999998e-01 -1.57900970e-01   3.32705336e+00   1.60996546e+00
C     9.006196757254108e+00   3.054897651090899e+00  -3.375354000000002e-01 -3.42927844e+00  -5.88466810e-01  -1.33962249e+00
C     9.200720827058413e+00   1.638913853127101e+00  -2.406630000000014e-01  2.14676163e+00   1.18143594e+00  -8.74080300e-02
C     3.341863221818143e+00   4.686167037455404e+00  -1.883009999999992e-01  2.25069883e+00  -3.92162127e+00  -6.66005680e-01
C     4.732725625169478e+00   4.298010959504110e+00  -2.924618999999993e-01  2.12195351e+00  -1.37530317e+00   2.66757910e+00
C     5.045504061930295e+00   2.840197570439675e+00  -5.134019999999850e-02  2.74337232e+00   1.54722396e+00  -2.91096143e+00
C     6.617658952193493e+00   2.478800127971877e+00  -9.844109999999873e-02 -4.38623203e+00  -2.39324013e+00  -1.39576610e+00
C     6.889182937822150e+00   1.025092682235445e+00  -2.896208999999992e-01 -4.55477289e+00   2.61409258e+00   8.18204710e-01
C     8.194026736993290e+00   6.664922380729486e-01  -2.534691000000002e-01  1.31935476e+00  -9.81534260e-01   1.43101240e-01
C     2.355112383303586e+00   3.584617064579557e+00  -2.080686000000007e-01  5.75619600e-01   3.07418539e+00  -1.65127290e+00
C     2.653038744875945e+00   2.195866727563504e+00  -2.209797000000009e-01  2.23340443e+00   1.19548219e+00  -6.49913800e-01
C     4.050533671226485e+00   1.837657058061731e+00  -3.553359000000000e-01  1.28774516e+00  -7.07743060e-01   1.79046933e+00
C     4.473891737749303e+00   3.943612901578794e-01  -4.784025000000014e-01 -4.15342718e+00   5.61815054e+00   5.96274940e-01
C     5.729953617481735e+00   4.372581417362760e-02  -3.759362999999993e-01  7.10973257e+00   2.63133557e+00   2.58089910e-01
C     1.059114435995483e+01   6.447082940990826e+00  -3.520080000000014e-01  9.21988260e-01  -2.47025862e+00  -4.97616630e-01
C     1.658838871944146e+00   1.219753034722161e+00  -2.164757999999978e-01  1.02437059e+00  -1.53722987e+00   3.67337190e-01
C     6.535500627894329e+00   7.527155470538162e+00  -1.373783999999993e-01 -1.65141930e-01   2.34109663e+00  -1.20923083e+00
C     7.923228078518218e+00   7.156044926330106e+00  -4.153139999999986e-01 -3.87781673e+00   2.43958911e+00   6.06619130e-01
C     4.121170319836217e+00   7.005672035190407e+00  -2.057580000000030e-01 -8.30003980e-01  -1.54272586e+00   2.86524990e-01
C     5.483844278312198e+00   6.587783062460824e+00  -1.028370000000010e-01  1.03089460e-01   2.90108769e+00  -7.06823050e-01
