32
Lattice="9.86 0 0 4.93 8.53901048131456 0 0 0 30 " PBC="1 1 1" Properties=species:S:1:pos:R:3:force:R:3 Energy="-256.83855632"
C     5.083418987100000e+00   6.689248103280944e+00  -2.711639999999989e-01  1.56173233e+00  -1.80912913e+00  -1.74681490e-01
C     6.322973817099999e+00   7.367143067267182e+00  -3.293457000000011e-01  7.30524180e-01   4.08480450e-01  -9.67413350e-01
C     7.545127571199999e+00   6.637336299139146e+00  -4.996647000000003e-01  9.58507550e-01   2.14925814e+00   5.45724060e-01
C     8.821882800799999e+00   7.397379617986759e+00  -4.525734000000021e-01 -4.34942780e-01  -1.05301032e+00   4.57921480e-01
C     1.006336309160000e+01   6.721030044117189e+00  -2.613296999999974e-01 -4.47869480e-01  -1.52040061e+00  -1.31883070e-01
C     1.130666102410000e+01   7.392879986414322e+00  -1.219143000000003e-01 -9.63457250e-01   4.03699170e-01  -7.38874340e-01
C     1.250385408960000e+01   6.631569222241163e+00  -1.457270999999984e-01  1.17248794e+00   2.16361040e+00   3.16817550e-01
C     1.375475570900000e+01   7.372788804826246e+00  -1.949207999999985e-01 -1.86489948e+00   3.04596580e-01  -2.10953300e-01
C     1.403815182900000e+00   2.623078989627096e-01  -3.737624999999980e-01  1.48090498e+00  -8.00486750e-01  -1.34814980e-01
C     2.648337628799999e+00   9.746657115154960e-01  -4.300992000000008e-01  3.02648670e-01  -6.38953130e-01   4.34234700e-02
C     3.917872281799999e+00   2.568848587969664e-01  -4.488740999999976e-01 -5.59870710e-01   2.07876567e+00   1.54312420e-01
C     5.179430835700000e+00   1.036020124226287e+00  -4.073054999999997e-01 -1.60907704e+00  -3.11161906e+00   2.79704430e-01
C     6.380734140800000e+00   2.899190455201040e-01  -2.175381000000023e-01  3.45274390e-01  -1.64385920e-01  -6.43673560e-01
C     7.627104991600000e+00   9.647485047440241e-01  -3.123041999999998e-01 -6.25915670e-01   1.00701583e+00  -1.77182250e-01
C     8.838168957200001e+00   2.575708828989296e-01  -3.103380000000016e-01 -8.21704070e-01  -1.15838511e+00   3.15664630e-01
C     1.004521788150000e+01   9.388248374376872e-01  -4.014458999999988e-01  5.33899300e-02   2.21177220e+00   7.60816170e-01
C     2.632745715000000e+00   2.396668322211363e+00  -3.661940999999977e-01  4.28864480e-01  -4.35404110e-01   9.29053100e-02
C     3.859641291000000e+00   3.072297545156840e+00  -3.702281999999997e-01  1.98490513e+00   2.18903873e+00  -4.10512200e-02
C     5.139326616800000e+00   2.422944906820839e+00  -4.873419000000005e-01 -9.41776980e-01  -4.67897900e-01   7.45103880e-01
C     6.374189122100000e+00   3.087077633006567e+00  -4.672733999999998e-01 -2.49342240e-01   1.26470549e+00  -3.93349480e-01
C     7.617174739099999e+00   2.394937891737591e+00  -4.620213000000000e-01 -1.34644979e+00  -4.47564400e-01   4.98119530e-01
C     8.793196363300000e+00   3.138360026685884e+00  -4.086278999999990e-01  2.03914795e+00  -5.08889590e-01  -1.06627900e-01
C     1.001246616600000e+01   2.380307748911893e+00  -3.314483999999993e-01  1.83791403e+00   1.23894067e+00  -3.93115320e-01
C     1.129521134560000e+01   3.129317812318297e+00  -2.763144000000004e-01 -2.40435722e+00  -5.01125740e-01  -2.30978400e-01
C     3.922320965900000e+00   4.523863149425620e+00  -2.272067999999976e-01 -2.67029130e+00  -1.04127634e+00  -7.20362140e-01
C     5.097151699299999e+00   5.246216813036400e+00  -3.460053000000016e-01  1.45982432e+00  -1.35100250e-01   2.25368220e-01
C     6.334911467000000e+00   4.509639805059188e+00  -4.850951999999999e-01  2.75756740e-01   8.53940550e-01   5.82363200e-02
C     7.555099334299999e+00   5.245737774548471e+00  -5.568242999999988e-01  1.15126011e+00  -8.48608280e-01   7.76386120e-01
C     8.841385239899999e+00   4.562706424978301e+00  -4.438545000000005e-01 -1.49884411e+00  -1.81407770e-01   4.86370300e-02
C     1.005551931370000e+01   5.266338137331472e+00  -2.594552999999991e-01 -2.18536110e-01   1.08126039e+00  -5.28768880e-01
C     1.128309611710000e+01   4.572693651635709e+00  -2.180265000000006e-01 -2.85808400e-02  -1.93152337e+00   1.98543810e-01
C     1.251568293440000e+01   5.242286904243189e+00  -1.685258999999988e-01  9.02772300e-01  -5.99916490e-01   7.60452300e-02
