32
Lattice="9.86 0 0 4.93 8.53901048131456 0 0 0 30 " PBC="1 1 1" Properties=species:S:1:pos:R:3:force:R:3 Energy="-257.51055387"
C     1.265850611900000e+00   4.627200119501960e-01   3.422755200000000e+00 -4.22427900e-01   1.16863357e+00  -2.94287870e-01
C     2.489244310300000e+00   1.198425101567294e+00   3.404904000000000e+00 -1.22386400e-01   9.57349850e-01   1.06941320e-01
C     3.729632310300000e+00   4.836257297479608e-01   3.378807000000000e+00 -8.67909020e-01   1.32166080e+00  -6.78894600e-02
C     4.954904338700000e+00   1.207680364246356e+00   3.335175300000000e+00 -4.33594120e-01  -3.99325330e-01   9.72726500e-02
C     6.157711836100000e+00   4.919297466595512e-01   3.320127000000000e+00  1.57491946e+00  -8.24944140e-01   1.29434830e-01
C     7.426854603400001e+00   1.173428600018875e+00   3.337250400000000e+00 -2.45739418e+00   2.24260584e+00   3.16423800e-01
C     8.626052946400000e+00   5.347669735840432e-01   3.388109400000000e+00  1.32004620e+00  -2.82895549e+00  -1.83600780e-01
C     9.871695833399999e+00   1.174806796310347e+00   3.403103700000000e+00  7.72764930e-01   1.55997631e+00   9.45484300e-02
C     2.469225207200000e+00   2.669051485029529e+00   3.400661100000000e+00  5.43468700e-02  -2.75977085e+00   4.30207000e-02
C     3.715623715300000e+00   3.331648726350745e+00   3.388450500000000e+00 -2.48508000e-03   3.23446620e-01  -2.53090770e-01
C     4.949322247600000e+00   2.611829526440534e+00   3.343208400000000e+00  1.04760730e-01   9.59444170e-01   1.51348510e-01
C     6.187271770999999e+00   3.337222223881146e+00   3.334922100000000e+00 -3.85001520e-01  -2.92764920e-01   6.47134900e-02
C     7.422804608399999e+00   2.608627397510534e+00   3.373750500000000e+00 -9.97919090e-01   2.19061870e-01  -5.21046970e-01
C     8.622592086399999e+00   3.334778700642189e+00   3.349963500000000e+00  1.02698690e+00   9.25455400e-02   1.22700340e-01
C     9.862516518500000e+00   2.617046605673500e+00   3.381023700000000e+00 -3.32454400e-01  -6.92258140e-01   4.04814700e-02
C     1.107493677640000e+01   3.327523786558171e+00   3.386854500000000e+00  9.39967270e-01   2.65029190e-01  -1.04653780e-01
C     3.698179206099999e+00   4.748705712956806e+00   3.361620300000000e+00  1.30154397e+00   5.01400910e-01  -2.57609520e-01
C     4.943722605700000e+00   5.493496992845461e+00   3.342018300000000e+00 -5.82960970e-01  -4.04090280e-01   9.34593600e-02
C     6.170445582399999e+00   4.761778681831371e+00   3.321749400000000e+00  8.62117930e-01   6.93830170e-01   1.81059270e-01
C     7.443237930100000e+00   5.493280272759479e+00   3.328140300000000e+00 -1.79493408e+00  -1.61888104e+00   1.13857530e-01
C     8.642065339899998e+00   4.770094055626900e+00   3.319393200000000e+00  6.01750920e-01  -6.42608780e-01  -2.39486900e-02
C     9.883802039999999e+00   5.471025818256399e+00   3.292326600000000e+00 -5.34054510e-01  -1.81724810e-01   2.61011600e-01
C     1.110034441880000e+01   4.734867307182813e+00   3.337769100000000e+00 -4.07181160e-01   8.95837770e-01  -3.17896950e-01
C     1.233056907590000e+01   5.437840234877450e+00   3.298834500000000e+00  2.34489260e-01   7.28633990e-01   6.31076530e-01
C     4.936093282800000e+00   6.935057609315034e+00   3.369485700000000e+00 -4.88740500e-02  -1.10898919e+00  -1.85587290e-01
C     6.187163064500000e+00   7.597242587210276e+00   3.373728900000000e+00  4.90748800e-02  -1.98085080e-01   3.96769460e-01
C     7.422673223900000e+00   6.877805849579465e+00   3.385764900000000e+00 -4.00745970e-01   1.69364372e+00  -3.90688730e-01
C     8.628883160799999e+00   7.632267473446616e+00   3.363564900000000e+00  8.50194960e-01  -1.82671198e+00  -1.32093080e-01
C     9.861633259700000e+00   6.892451106453713e+00   3.297816000000000e+00  1.72081680e-01   2.89517140e-01   3.08104930e-01
C     1.109195883390000e+01   7.597658778581071e+00   3.330725400000000e+00  6.27311140e-01  -1.19242340e-01  -2.97048600e-01
C     1.234930820310000e+01   6.867081364757214e+00   3.332077200000000e+00 -8.43209960e-01   1.25076760e+00  -1.33879740e-01
C     1.355729269350000e+01   7.643615732984431e+00   3.366689400000000e+00  1.41175310e-01  -1.26503268e+00   1.10980200e-02
