32
Lattice="9.86 0 0 4.93 8.53901048131456 0 0 0 30 " PBC="1 1 1" Properties=species:S:1:pos:R:3:force:R:3 Energy="-251.61773795"
C     9.813799885399998e+00   7.105344776449921e-02  -4.748525999999984e-01  6.39645581e+00  -6.49842469e+00  -2.62412480e-01
C     1.238320062200000e+00   7.069375048703967e-01  -5.743788000000016e-01 -3.40077900e-01  -2.20734800e+00   1.78096731e+00
C     7.393276422700000e+00   8.416643812728351e+00  -5.373069000000008e-01  8.03502200e-01   5.68842155e+00   7.37113630e-01
C     3.814317138800000e+00   6.958926363749360e-01  -2.944160999999994e-01 -3.08964437e+00  -6.68048760e+00  -2.11127033e+00
C     9.932932941000001e+00   8.473189567077435e+00  -3.918375000000012e-01 -1.24661744e+00   7.19512750e-01   5.95598530e-01
C     6.205259467599999e+00   5.945028168583504e-01  -4.421600999999988e-01  1.42082958e+00   4.84394083e+00   2.83031150e-01
C     7.494674197700000e+00   3.091420659126800e-02  -3.078654000000007e-01 -3.02487631e+00  -3.06783119e+00  -3.13195110e-01
C     8.696767239500000e+00   7.369595556467144e-01  -3.703928999999988e-01 -4.28256412e+00  -2.29563855e+00  -4.41704910e-01
C     1.102428339280000e+01   2.075312909609139e+00  -2.500466999999986e-01  2.79809494e+00  -8.15205470e-01  -2.09832097e+00
C     2.480775507000000e+00   2.686811602146672e+00  -2.828834999999970e-01 -9.13264070e-01   3.62929230e+00   1.92789902e+00
C     3.736326017800000e+00   2.005711093626240e+00  -2.877938999999969e-01 -9.41876290e-01   4.62933079e+00  -2.76147000e-02
C     4.935157716699999e+00   2.793186752151796e+00  -3.338555999999997e-01  1.25959941e+00  -2.29935450e+00  -8.67284420e-01
C     6.168275051299999e+00   2.154617859370777e+00  -5.083035000000002e-01 -3.94693190e-01  -5.72473522e+00   1.44912424e+00
C     7.408459047899999e+00   2.753509215275219e+00  -3.765687000000000e-01 -1.82760743e+00   1.24568930e-01  -1.57495683e+00
C     8.603321948900000e+00   2.057543655750783e+00  -4.888574999999982e-01 -2.12660000e-01   2.78569499e+00   1.05494950e+00
C     9.765804412700000e+00   2.725103343012450e+00  -3.433023000000013e-01  4.71140219e+00   2.38285386e+00   3.54225380e-01
C     2.537956013400000e+00   4.186863159552674e+00  -7.936860000000223e-02 -2.52100841e+00  -1.62242778e+00  -1.53273158e+00
C     3.766659519000000e+00   4.859988744625415e+00  -1.577783999999980e-01 -4.67760700e-02   2.52453355e+00  -1.71692014e+00
C     5.037133583499999e+00   4.139112244437571e+00  -3.741090000000007e-01 -5.07185308e+00   3.13051193e+00   1.46655698e+00
C     6.196378220500000e+00   4.864700143657754e+00  -4.236587999999983e-01  8.45833220e-01   1.60648770e-01   2.16974720e-01
C     7.372600742200000e+00   4.127613185974679e+00  -4.122255000000017e-01  3.15896101e+00   1.55665627e+00   2.39975600e-02
C     8.638696424399999e+00   4.756864822860551e+00  -3.998787000000021e-01  2.53493820e-01   6.42317795e+00   2.16672230e-01
C     9.892082369399999e+00   4.149885999350291e+00  -3.052491000000011e-01 -2.92235463e+00  -9.61253000e-01  -1.27172100e-02
C     1.103248193350000e+01   4.891741652826028e+00  -1.781442000000020e-01  5.40844602e+00   2.17265693e+00   7.18743010e-01
C     3.722293906700000e+00   6.385743321306950e+00  -3.822791999999993e-01 -1.17068563e+00  -2.95075568e+00   2.35395573e+00
C     4.933164714900000e+00   7.032140437335614e+00  -3.809027999999977e-01  1.60259048e+00   2.21721085e+00  -7.77055570e-01
C     6.210642781100000e+00   6.247513990436920e+00  -3.759675000000016e-01 -1.92726295e+00   4.08877268e+00  -1.46161112e+00
C     7.377257472299999e+00   7.070538318101659e+00  -5.705688000000002e-01  2.57849963e+00  -3.89951530e+00   1.53256848e+00
C     8.719753463099998e+00   6.388748199094861e+00  -4.117887000000024e-01 -5.88340477e+00  -4.67342674e+00  -6.24279840e-01
C     9.854875610099999e+00   7.073618168401585e+00  -3.031562999999977e-01  2.68079420e+00   4.47849670e-01   9.19664100e-02
C     1.108429189510000e+01   6.402541091942996e+00  -1.578650999999986e-01  9.81808170e-01  -2.60324492e+00  -8.01044260e-01
C     1.233910221570000e+01   7.129665329928741e+00  -2.449743000000026e-01  9.16915970e-01  -1.22598597e+00  -1.81224460e-01
