64
Lattice="7.10842262195238 0 0 0 7.10842262195238 0 0 0 7.10842262195238 " PBC="1 1 1" Properties=species:S:1:pos:R:3:force:R:3 Energy="-511.12450111"
C     7.102049990205396e+00   7.103903511403561e+00   7.082505737632837e+00  5.21543880e-01  -6.66095900e-02   4.90202650e-01
C     1.806001321866074e+00   1.802134908634603e+00   7.105065311996574e+00 -1.07465790e+00   3.04971440e-01  -1.18816111e+00
C     6.558365769241781e-02   1.749555825788571e+00   1.720891751331457e+00 -2.75295936e+00   1.47818080e-01   4.81227200e-02
C     1.811541199950745e+00   7.108301279225877e+00   1.704357133811979e+00 -1.68665908e+00   2.32079010e-01   2.26541803e+00
C     9.452845086721843e-01   9.123172084136005e-01   8.172923124190240e-01 -1.09831747e+00  -1.32755637e+00   1.14503843e+00
C     2.608150774830390e+00   2.649121305948380e+00   9.298296605486850e-01  1.66328132e+00   1.34629413e+00   4.56864170e-01
C     7.747300633079643e-01   2.677186211462854e+00   2.628808419637920e+00  4.33547830e+00  -1.25911740e-01   1.95890940e+00
C     2.679032482069946e+00   8.189694025677605e-01   2.644112853538780e+00 -9.18191540e-01   2.44237103e+00   7.75949700e-02
C     3.594257248587805e+00   7.097323457836906e+00   7.903954629094680e-02 -2.50212304e+00  -1.73023720e-01  -2.23529448e+00
C     5.258870125267972e+00   1.801517613214282e+00   1.058593404993020e-02  2.77036239e+00   1.08648920e-01  -8.47406010e-01
C     3.565853058061679e+00   1.777893694731653e+00   1.764749936970368e+00 -9.18133720e-01  -1.08526558e+00   1.00406201e+00
C     5.265202379222095e+00   8.136016193947200e-03   1.717854677767062e+00  3.16101201e+00  -2.55066020e-01   1.83026470e+00
C     4.420159211399948e+00   9.143964931141767e-01   8.603544258087220e-01  6.85618890e-01  -4.13562420e-01   1.69105180e+00
C     6.262417824765819e+00   2.674966748668211e+00   8.227699918057698e-01 -1.43924574e+00  -9.75769850e-01   2.44863926e+00
C     4.480857250225640e+00   2.617081797010158e+00   2.647236578774913e+00  2.54703020e-01   8.08069750e-01   7.72395140e-01
C     6.265361706909666e+00   8.214136336856476e-01   2.612610172676821e+00 -1.75923168e+00   2.22827294e+00   7.21155470e-01
C     2.770934221502200e-02   3.580256072890097e+00   1.024039362637200e-03 -9.65981810e-01  -1.37690523e+00  -1.63333613e+00
C     1.829004177464394e+00   5.351799671526852e+00   3.317643005206400e-03 -9.84732100e-01  -2.25425448e+00   8.33522010e-01
C     2.924945305987120e-02   5.364912081144381e+00   1.763707131372014e+00 -1.90441920e+00  -1.76064905e+00  -3.36566980e-01
C     1.731530500961453e+00   3.562693008785957e+00   1.817254452463117e+00  6.71076530e-01  -4.88966760e-01  -7.41673890e-01
C     8.947163275011234e-01   4.399374681248651e+00   8.960672832200544e-01  4.35121200e-01   2.76288930e+00  -4.26637900e-01
C     2.675588166973652e+00   6.174530495923984e+00   9.728644065112960e-01  7.79390480e-01   1.38377215e+00  -2.96892443e+00
C     8.657910185127241e-01   6.251815896764994e+00   2.609078423982300e+00  1.56652699e+00  -2.38425510e-01   1.54413148e+00
C     2.662073989309639e+00   4.475251761400186e+00   2.681851682481038e+00  1.35670000e-03  -2.36956260e+00   4.56532180e-01
C     3.530245405305122e+00   3.548452919003990e+00   1.102261866832204e-01 -2.15078650e-01   5.08739720e-01  -3.51188400e+00
C     5.286994172858645e+00   5.329980865884345e+00   7.102229406792325e+00  1.25540453e+00  -1.30551317e+00  -8.27837900e-02
C     3.545646087248257e+00   5.340922149981049e+00   1.855713862206365e+00  1.20875822e+00  -9.30262720e-01  -1.60459241e+00
C     5.383853539478765e+00   3.518538330839566e+00   1.808128801672014e+00 -9.66708790e-01   1.21595502e+00  -1.50401169e+00
C     4.442849936161023e+00   4.438763161828333e+00   9.151636340833272e-01 -8.00371200e-02  -1.15269360e-01   1.18815457e+00
C     6.208342276789824e+00   6.201169878366245e+00   8.686272791381042e-01 -1.58940780e-01   7.92532120e-01  -3.57844840e-01
C     4.459017190399499e+00   6.249471325732239e+00   2.673552670156415e+00 -6.23658140e-01  -1.16047702e+00   2.08071720e-01
C     6.203191371590920e+00   4.457630763651694e+00   2.675812650959991e+00  1.09998377e+00   3.57357670e-01   1.97189770e-01
C     7.060831943811778e+00   7.079162291053520e+00   3.549773024168751e+00  1.91113622e+00   7.75914890e-01  -1.53488280e-01
C     1.745086333982020e+00   1.743408390822569e+00   3.540069885123998e+00  4.33122940e-01   7.05666240e-01   1.33060490e-01
C     6.334955154717800e-03   1.773794409575151e+00   5.342450247591670e+00 -7.62682620e-01  -5.88479260e-01   3.95407050e-01
C     1.842749094526652e+00   7.090582825003264e+00   5.365735236483777e+00 -1.46230441e+00   9.09159860e-01  -7.56807860e-01
C     8.757900811911472e-01   8.887641609044926e-01   4.456309165718183e+00  4.25842150e-01  -1.10642297e+00  -2.32769430e-01
C     2.688036721002701e+00   2.658748455955324e+00   4.456592152022687e+00 -1.79537518e+00   5.02865360e-01  -2.16916913e+00
C     8.652315145683039e-01   2.671185636508181e+00   6.161435501941874e+00  2.15979769e+00   1.35378849e+00   1.28954180e+00
C     2.703898810658099e+00   9.320421570891601e-01   6.286047501070771e+00 -5.02269810e-01  -2.15693411e+00  -1.76271280e+00
C     3.543867986414091e+00   7.075561874996490e+00   3.545789250879824e+00  7.83385700e-01   1.46943384e+00  -2.26067690e-01
C     5.402418322498514e+00   1.753481807601597e+00   3.588330316891476e+00 -1.97960700e+00  -3.15469260e-01  -1.78006337e+00
C     3.528242962653068e+00   1.797258886138414e+00   5.343419978605491e+00  4.60248160e-01  -4.96821700e-02   3.27466710e-01
C     5.241438211561173e+00   1.498981511569880e-02   5.404802487445262e+00  1.49631006e+00  -3.43604450e-01  -2.62396435e+00
C     4.372068244427731e+00   9.002692139991887e-01   4.407935141357239e+00  2.44830661e+00  -2.08766940e-01   2.21093809e+00
C     6.238969768658809e+00   2.653057452805752e+00   4.513902032290781e+00  2.04277230e-01   1.63968370e-01  -3.05973165e+00
C     4.392163613006018e+00   2.693256222479888e+00   6.250100563302562e+00  1.06791861e+00  -6.87618570e-01  -5.92311080e-01
C     6.167007154675655e+00   8.878716273603253e-01   6.259424468000537e+00  4.95341970e-01   1.57405930e-01  -1.20711302e+00
C     8.971611272928200e-03   3.616411571777976e+00   3.549683458043738e+00 -1.02429625e+00  -1.42489632e+00   3.33731260e-01
C     1.813091973429524e+00   5.377629262464240e+00   3.539461901737309e+00 -1.38395549e+00   2.98560000e-01  -7.95700250e-01
C     7.107545227396013e+00   5.330210823356102e+00   5.302359525941358e+00  9.99104100e-02   7.69924190e-01   1.52816117e+00
C     1.797436454535462e+00   3.642206686865658e+00   5.222466187009523e+00 -6.19290580e-01  -2.30694903e+00   3.10654486e+00
C     9.075431917820086e-01   4.556325524992299e+00   4.392138235937264e+00 -2.82835240e-01  -2.90694439e+00   7.57911000e-02
C     2.701291370156857e+00   6.212347801851968e+00   4.408488460973979e+00 -6.80517280e-01   2.81794310e-01   2.06645912e+00
C     9.550610066383750e-01   6.177564655035106e+00   6.236783928703159e+00 -2.13662607e+00   1.86950558e+00  -9.17615470e-01
C     2.678494303393387e+00   4.447115202985702e+00   6.207321507301592e+00 -5.81259790e-01  -1.35369710e-01   1.13653680e+00
C     3.570608379541780e+00   3.492867257726603e+00   3.522056644615335e+00  2.48294080e-01   1.72080626e+00   1.05596491e+00
C     5.343757628679940e+00   5.349891060053381e+00   3.584278018408493e+00 -8.81523380e-01  -2.77454130e-01  -9.25653900e-01
C     3.546129388902191e+00   5.316971244057900e+00   5.357651538280314e+00  6.56365710e-01  -4.36989910e-01  -1.52437026e+00
C     5.353133709199946e+00   3.518795229233052e+00   5.303248931779573e+00 -1.67195885e+00   9.94869940e-01   2.51008295e+00
C     4.460297559481813e+00   4.421662358447173e+00   4.449519769105369e+00 -2.17282060e-01   4.34269400e-02  -5.82261320e-01
C     6.186196128285667e+00   6.247230964175094e+00   4.463581153142670e+00  1.76585380e-01  -5.92223580e-01   6.03417330e-01
C     4.379369731806089e+00   6.190296764042466e+00   6.233125152496418e+00  1.59787673e+00   1.21664945e+00   9.22275510e-01
C     6.196882077841861e+00   4.395624988316601e+00   6.214135641225124e+00  9.63798140e-01   2.07434641e+00  -2.83256130e-01
