64
Lattice="7.10842262195238 0 0 0 7.10842262195238 0 0 0 7.10842262195238 " PBC="1 1 1" Properties=species:S:1:pos:R:3:force:R:3 Energy="-511.02680234"
C     2.954189356645800e-02   4.680064609823460e-02   1.421911993523840e-02 -5.63881940e-01  -1.93737376e+00  -1.75010054e+00
C     1.776079838531708e+00   1.724470557783722e+00   7.092150943033237e+00  9.57139870e-01   2.01297249e+00   2.00254172e+00
C     1.700619027608800e-02   1.769948539685053e+00   1.752083083282659e+00 -5.37898460e-01  -2.61286280e-01   5.93835090e-01
C     1.760331554722455e+00   7.020032725678931e+00   1.863524668065447e+00  6.49225460e-01   3.64118653e+00  -3.28094814e+00
C     9.278312696975244e-01   8.642220474720378e-01   9.159467690033726e-01 -1.11776952e+00  -4.10462700e-02  -3.22720700e-01
C     2.701797703100080e+00   2.673759809591561e+00   9.157711909646586e-01 -1.08796992e+00  -4.74404690e-01  -1.73900422e+00
C     9.107755337157749e-01   2.652048483299069e+00   2.640440286992157e+00 -1.07379154e+00   2.85754500e-02   1.82962530e-01
C     2.710462799189634e+00   8.944697363204356e-01   2.596001201056739e+00 -2.49253567e+00  -2.43421104e+00   3.88216126e+00
C     3.581461519197996e+00   6.421606826455599e-03   7.098619963038567e+00 -2.17310307e+00   3.03494370e-01   1.15945354e+00
C     5.319238048947192e+00   1.793915155222192e+00   7.064259838451821e+00  7.49833340e-01  -2.01960599e+00   2.17593087e+00
C     3.559340889931044e+00   1.727533079501096e+00   1.745980218126485e+00  5.57077390e-01   2.11570290e+00   1.19749969e+00
C     5.359193212978139e+00   6.967675852124000e-04   1.753728612034963e+00 -1.06539238e+00   6.44879250e-01  -8.95368700e-02
C     4.412766807296279e+00   8.609791139885676e-01   8.816602876749694e-01  2.18569855e+00   1.08929903e+00  -6.93509590e-01
C     6.205865631264790e+00   2.619827140910228e+00   8.769344661487410e-01  5.87738740e-01   1.86367329e+00  -4.23436310e-01
C     4.459629509923985e+00   2.640037879187639e+00   2.723555944981864e+00 -9.87636300e-01   1.02123995e+00  -2.16906023e+00
C     6.206407506321113e+00   8.849108982548691e-01   2.624316820637020e+00  6.36201730e-01   1.41418246e+00   1.37357276e+00
C     7.090935900354801e-03   3.554283247236914e+00   1.782579140417400e-02 -5.49637040e-01   3.32003600e-02  -7.16976250e-01
C     1.759132363826461e+00   5.306610291583892e+00   3.506911865886519e-02  5.35490530e-01   1.72599521e+00  -1.45811172e+00
C     7.104471261118221e+00   5.337480749338027e+00   1.828954489590280e+00 -8.49004580e-01  -1.47226237e+00  -2.59653922e+00
C     1.746307703156588e+00   3.561157589500037e+00   1.724168734159277e+00  2.82931386e+00  -1.90814970e+00   3.29133552e+00
C     9.141452103745599e-01   4.377320942238553e+00   9.030117145302110e-01 -2.41592965e+00   3.37162064e+00  -8.76763420e-01
C     2.647416421867199e+00   6.271492508166737e+00   9.208825733337959e-01  3.23473250e-01  -2.88062584e+00  -5.52466240e-01
C     8.390411711829497e-01   6.174657168015074e+00   2.678351921688308e+00  1.41228402e+00   1.55161665e+00   1.42376894e+00
C     2.640624466222241e+00   4.445203890311636e+00   2.698336612126402e+00 -3.96883890e-01   1.23102067e+00  -1.95296994e+00
C     3.581265113481006e+00   3.570537437484032e+00   2.669561006518380e-02 -1.20022885e+00   5.09735950e-01  -4.10448550e-01
C     5.277124625640358e+00   5.315377962211852e+00   1.098343704284060e-02  1.66929957e+00   1.88962796e+00   1.57757030e-01
C     3.520006788784405e+00   5.377053195895115e+00   1.828907005327178e+00  1.32849853e+00  -8.92010930e-01  -1.39112104e+00
C     5.318071272458345e+00   3.535601886086197e+00   1.758466588963872e+00  4.88585050e-01  -4.49140720e-01   1.68328778e+00
C     4.426473623213293e+00   4.472994410712978e+00   9.494416563888125e-01 -2.94005200e-01  -1.00563780e+00  -1.36334002e+00
C     6.227492154075426e+00   6.271783384820347e+00   8.666855424152250e-01  3.28676030e-01  -2.20960762e+00   4.64534440e-01
C     4.518916740112286e+00   6.235569454698532e+00   2.642962995095769e+00 -2.26403322e+00  -1.66155825e+00   8.00741190e-01
C     6.199020291365956e+00   4.403349711177755e+00   2.695256177184025e+00  1.43579836e+00   2.34653550e-01  -2.70454320e+00
C     7.095419609006592e+00   5.667040656919980e-02   3.508991932513584e+00  4.14641750e-01  -1.42065685e+00   2.10118935e+00
C     1.791661216577843e+00   1.769968656521067e+00   3.557577432447474e+00  6.73087710e-01   1.15453474e+00  -8.14673220e-01
C     7.103404642304089e+00   1.829524727252856e+00   5.348220296400776e+00  1.27710741e+00  -6.22596670e-01  -2.76439670e-01
C     1.818966231714239e+00   2.028885984200400e-02   5.280056849971109e+00 -1.68112886e+00  -1.24535051e+00   1.64285067e+00
C     8.993110697142390e-01   9.369973674133357e-01   4.482852939876204e+00 -7.99033300e-02  -7.45502440e-01  -2.53780022e+00
C     2.687820624955052e+00   2.692670914961357e+00   4.424686352513946e+00 -7.19173400e-02  -3.38872510e-01   7.12999330e-01
C     9.439051192627732e-01   2.678851785966946e+00   6.252714614636840e+00 -2.01905585e+00  -1.99514250e-01  -6.96402770e-01
C     2.652866875995310e+00   8.956670079423221e-01   6.246998803092326e+00  1.26578375e+00  -1.03269679e+00  -2.07307761e+00
C     3.547143192136256e+00   7.041508834266928e+00   3.539173015442032e+00  9.18304960e-01   1.35299806e+00  -1.35282657e+00
C     5.305013597694987e+00   1.769900913253499e+00   3.627794146750930e+00  6.77865250e-01  -4.38854590e-01  -2.50497560e+00
C     3.552479342828637e+00   1.753571444810835e+00   5.339677180843382e+00 -3.52204440e-01   7.83965870e-01  -2.84560620e-01
C     5.331997951886995e+00   7.095432901756890e+00   5.333768375624733e+00  3.13279530e-01  -5.31347900e-02  -5.65572400e-01
C     4.390026892250672e+00   8.007272708507331e-01   4.400568896248811e+00  1.62763623e+00   2.50035286e+00   3.06104468e+00
C     6.233098140490463e+00   2.714746832250029e+00   4.456071246813092e+00 -8.71384700e-01  -2.33162558e+00   1.75093260e-01
C     4.441851913625175e+00   2.654112271638334e+00   6.277676622593459e+00 -2.81414100e-01   6.60768270e-01  -2.73742950e+00
C     6.240571083022417e+00   8.973494294080239e-01   6.190417322890101e+00 -7.85841170e-01   8.55390590e-01   7.54138660e-01
C     7.098297596072751e+00   3.541044449865200e+00   3.510960752326646e+00  6.10993640e-01  -6.04453660e-01   1.46714777e+00
C     1.724107743893197e+00   5.313199941521084e+00   3.575588398260900e+00  4.26906580e-01  -1.06931142e+00  -3.37579940e-01
C     3.634038896022600e-03   5.329617767656916e+00   5.313887041651534e+00 -7.66296350e-01   2.53144480e-01  -5.74906290e-01
C     1.792984662701234e+00   3.569131462574023e+00   5.340102051263379e+00  1.04588430e-01  -2.74024060e-01  -3.45839870e-01
C     8.744174447832253e-01   4.386619540952001e+00   4.431827473877998e+00 -3.39616230e-01   1.35279054e+00   4.88103980e-01
C     2.646841919151050e+00   6.158022606073558e+00   4.403055635733965e+00 -2.92044670e-01   3.28284367e+00  -1.69950570e-01
C     8.930507529970313e-01   6.188800298912504e+00   6.155643772443776e+00  3.83594830e-01   1.52826313e+00   2.66448472e+00
C     2.651336574773676e+00   4.541013911584592e+00   6.188463004259185e+00  6.30869890e-01  -3.33463455e+00   1.69093678e+00
C     3.552636225715860e+00   3.629651648665762e+00   3.515170928876020e+00  6.16801460e-01  -2.83728417e+00   2.50040197e+00
C     5.388560239348146e+00   5.284043111207953e+00   3.504874236542497e+00 -1.88960947e+00   2.66593106e+00   3.07955571e+00
C     3.504868336551722e+00   5.398940811068583e+00   5.306474520711850e+00  2.67512103e+00  -1.67997661e+00   1.41433789e+00
C     5.314934254471912e+00   3.520811177888084e+00   5.352918537247239e+00  1.05715550e-01   2.62930131e+00  -1.94579190e-01
C     4.465639752333422e+00   4.484309242418363e+00   4.485004943740184e+00 -1.20594450e+00  -8.81170940e-01  -1.96272835e+00
C     6.246264076530322e+00   6.253813647858119e+00   4.420804798342296e+00 -3.54904590e-01  -1.17586295e+00  -2.97235590e-01
C     4.446550012303186e+00   6.251208197715211e+00   6.254882825704393e+00 -8.76908840e-01  -8.95224760e-01  -1.59098370e+00
C     6.165532796740041e+00   4.512335762450690e+00   6.189002817872947e+00  1.53526043e+00  -2.87775738e+00   1.65707886e+00
