64
Lattice="7.10842262195238 0 0 0 7.10842262195238 0 0 0 7.10842262195238 " PBC="1 1 1" Properties=species:S:1:pos:R:3:force:R:3 Energy="-513.55466308"
C     3.493853693533580e-02   1.094014674908480e-02   1.761993148509880e-02 -1.16536831e+00  -2.60904360e-01  -1.47507870e+00
C     1.788062222205337e+00   1.792406463605324e+00   7.101401630978225e+00 -6.44831590e-01  -5.47075020e-01   5.46818200e-02
C     7.107267998913833e+00   1.785274867527582e+00   1.748554320125639e+00  4.38883300e-02  -9.36139850e-01   9.16691560e-01
C     1.779466433236328e+00   7.082567651993857e+00   1.737765724946813e+00  3.33311620e-01   1.02082700e+00   2.20591845e+00
C     9.037246893189971e-01   8.744854013034723e-01   8.757496342664394e-01  1.01545920e-01   7.07302720e-01   4.75915800e-01
C     2.641766860821501e+00   2.674046207938921e+00   8.919083583977709e-01  9.95523570e-01  -2.72329120e-01   1.69750830e-01
C     8.526840823806110e-01   2.643775203464330e+00   2.666778840989138e+00  1.12235810e+00   5.25889340e-01  -4.61029780e-01
C     2.676631114740458e+00   8.670679044679548e-01   2.671349983239155e+00 -4.86807980e-01   7.27689570e-01  -1.32394774e+00
C     3.544761870558555e+00   7.107547431007025e+00   4.671953899614040e-02  4.22644180e-01   7.25570400e-01  -2.36844545e+00
C     5.324096940144866e+00   1.739533163147049e+00   7.104031747347626e+00 -1.31049400e-02   1.41368000e+00  -2.48856330e-01
C     3.567773611685150e+00   1.779279623889875e+00   1.764187163151543e+00 -1.13561994e+00  -6.50040440e-01   1.61877780e-01
C     5.327256136409872e+00   7.099201645261562e+00   1.740222609056963e+00  8.13263840e-01   1.90184030e-01   1.89632806e+00
C     4.432211470867931e+00   8.670500623271785e-01   8.762580286522217e-01  6.68645590e-01   5.76156540e-01   5.50402620e-01
C     6.240128796967000e+00   2.625973083107481e+00   8.755189659524204e-01 -1.62987869e+00   1.50653188e+00  -1.02001550e-01
C     4.420613866110723e+00   2.638572406780300e+00   2.646149914208993e+00  1.14108171e+00   9.17440240e-01   1.40028038e+00
C     6.213468800099142e+00   9.090068159994665e-01   2.647892259677382e+00  2.93071840e-01  -1.22696233e+00  -5.48195200e-02
C     7.104080795463704e+00   3.549880930024122e+00   2.170201425886000e-04  9.10106100e-02  -3.83703200e-02   1.53282220e-01
C     1.778452701086490e+00   5.334929749712389e+00   2.541389038257160e-02  6.11160450e-01   2.90042250e-01  -4.29767870e-01
C     7.088636965395265e+00   5.339101256442710e+00   1.784709321423936e+00  1.26618426e+00  -8.20861720e-01   2.17362550e-01
C     1.788598623776242e+00   3.513178438015633e+00   1.796762789323765e+00 -1.11676175e+00   1.88071825e+00  -2.09199200e-02
C     8.884462011606999e-01   4.441395552892971e+00   9.051088413715633e-01 -2.54439800e-02  -3.37099900e-01  -1.46001970e-01
C     2.705953215879505e+00   6.258397300931947e+00   9.134168103086885e-01 -1.66828870e+00  -1.77619299e+00  -3.61146280e-01
C     9.145331880811594e-01   6.188783096529764e+00   2.682157273569473e+00 -1.35261168e+00   1.32784745e+00  -1.34247454e+00
C     2.647218452297232e+00   4.475153025409994e+00   2.673912285256761e+00  8.89632860e-01  -1.41860057e+00   2.27819610e-01
C     3.527642300941678e+00   3.597446868901626e+00   4.235155546460280e-02  6.47769290e-01  -1.17163626e+00  -1.46567407e+00
C     5.302882350425059e+00   5.382335606912490e+00   2.271880303042480e-02  1.27088922e+00  -2.32897744e+00  -6.88946290e-01
C     3.555271815570678e+00   5.373841610555400e+00   1.815639703180758e+00 -1.80084250e-01  -1.40768887e+00  -6.07748370e-01
C     5.315638912406232e+00   3.530651367320950e+00   1.775453373246207e+00  7.83378020e-01   4.92304930e-01  -1.28689940e-01
C     4.404517411761542e+00   4.463430454583126e+00   9.132894984595642e-01  1.27034271e+00  -5.63307900e-02   5.58813100e-02
C     6.243184210261754e+00   6.217853204086932e+00   9.056544838918745e-01 -8.41865150e-01   8.21629330e-01  -9.68595040e-01
C     4.483048137161350e+00   6.189853127386752e+00   2.683676841072950e+00 -1.03992532e+00   1.10808389e+00  -8.51089810e-01
C     6.240958705307885e+00   4.446638867585936e+00   2.660715640831183e+00 -1.72246679e+00  -9.48464370e-01   4.51061960e-01
C     1.281300285677620e-02   7.108333053874988e+00   3.531035079973978e+00 -2.38550910e-01   2.14472900e-02   3.47202640e-01
C     1.749876913238316e+00   1.776007616957889e+00   3.514438548093481e+00  1.03392950e+00  -3.43437710e-01   1.79325093e+00
C     4.709116733071400e-03   1.789593802943042e+00   5.324022941465392e+00 -1.21572190e-01  -4.92508440e-01   1.91854460e-01
C     1.813937591384399e+00   7.090369287987760e+00   5.289261688590199e+00 -5.53221410e-01   1.12249008e+00   1.95213479e+00
C     9.083667025425356e-01   8.671353633986185e-01   4.436632483232214e+00 -5.77818370e-01   8.15793030e-01  -4.23189710e-01
C     2.624489199885556e+00   2.710327525907175e+00   4.461266792906050e+00  1.70824940e+00  -1.59838197e+00  -1.40359569e+00
C     8.657320896892043e-01   2.657110035625640e+00   6.230054527177257e+00  1.27457760e+00   8.86240970e-01  -7.41347870e-01
C     2.682934010909160e+00   9.071769658486262e-01   6.239593106238357e+00 -3.66966850e-01  -6.39321340e-01  -9.92995050e-01
C     3.571536455199048e+00   7.085732534996960e+00   3.513665151712424e+00 -1.23812020e-01   5.30966810e-01   1.35083167e+00
C     5.319186655051649e+00   1.734368254355583e+00   3.571462740856478e+00  7.58228960e-01   1.67850311e+00  -1.31714472e+00
C     3.550659302301012e+00   1.794865053736903e+00   5.333677245646745e+00 -4.15860470e-01  -5.56463370e-01  -1.43103250e-01
C     5.303837082667151e+00   7.081786152011015e+00   5.314794573967429e+00  1.62812627e+00   1.28307393e+00   7.27219300e-01
C     4.454142234166703e+00   8.672756836611374e-01   4.420834440464621e+00 -1.11209112e+00   2.14358400e-01   8.21857620e-01
C     6.218450880260821e+00   2.681389848263417e+00   4.444911876310407e+00 -4.64571460e-01  -9.95242110e-01  -4.39885650e-01
C     4.421388044418268e+00   2.661430677062528e+00   6.222407570459566e+00  6.55793040e-01   5.28187620e-01   4.20396530e-01
C     6.218809926687357e+00   9.259063088520283e-01   6.213896727140866e+00 -1.45096600e-02  -2.20576702e+00  -2.46093100e-01
C     7.106776735826565e+00   3.550792158719780e+00   3.562380877948714e+00 -5.16375010e-01  -2.51559440e-01  -9.96650150e-01
C     1.741972347284876e+00   5.313216504145789e+00   3.561783343943276e+00  1.75550445e+00   2.89919820e-01  -2.79583000e-01
C     2.187389591781160e-02   5.331801332917327e+00   5.297561696093989e+00 -7.40331350e-01   2.76260000e-02   1.55215347e+00
C     1.778054700503996e+00   3.578774606531863e+00   5.315556383619614e+00 -6.70975970e-01  -9.50930300e-02   1.28856719e+00
C     8.692656865736064e-01   4.431027918501702e+00   4.408969985522258e+00  7.79314500e-01   4.00026610e-01   1.53443495e+00
C     2.693753883147514e+00   6.215809461499456e+00   4.434280377271483e+00 -9.95050930e-01   1.56358110e-01  -5.95475780e-01
C     9.107353000437458e-01   6.230389120629980e+00   6.224185031535697e+00  4.69397200e-02  -5.28903330e-01  -6.10322910e-01
C     2.685141886974932e+00   4.470415474986442e+00   6.241934904986289e+00 -1.29069063e+00   1.51061230e-01  -7.65438010e-01
C     3.594369774917880e+00   3.576154939543714e+00   3.573741487895771e+00 -2.80320092e+00  -6.69305860e-01  -8.35270660e-01
C     5.310983251011264e+00   5.303283691966185e+00   3.573549205063900e+00  1.71519752e+00   6.00168820e-01  -3.82991200e-01
C     3.560124238103769e+00   5.390624383108541e+00   5.322593224423831e+00 -2.73786490e-01  -2.55750383e+00   1.12778573e+00
C     5.314000420992323e+00   3.540952395792271e+00   5.307830665579293e+00  3.58710160e-01   6.64004570e-01   1.89667354e+00
C     4.413253165571938e+00   4.442077819296039e+00   4.467335040044065e+00  1.60197181e+00   4.24640010e-01  -4.77566890e-01
C     6.240400196542631e+00   6.226022416614515e+00   4.432356695942058e+00 -1.00221066e+00  -6.42137880e-01   1.43063420e-01
C     4.429054478213937e+00   6.223879085026132e+00   6.226077080384462e+00  4.03521250e-01   8.52848330e-01   1.59089020e-01
C     6.234976967673155e+00   4.431163547205291e+00   6.227280678502480e+00 -1.18413895e+00   8.93100230e-01  -5.59860700e-01
