64
Lattice="7.10842262195238 0 0 0 7.10842262195238 0 0 0 7.10842262195238 " PBC="1 1 1" Properties=species:S:1:pos:R:3:force:R:3 Energy="-512.68382587"
C     4.799507435107320e-02   7.088801738631597e+00   1.862314316945940e-02 -1.23783223e+00   6.38248780e-01  -7.78533960e-01
C     1.757859245335219e+00   1.777877771864984e+00   4.027674907027719e-02  1.67101096e+00  -2.25333850e-01  -1.09867074e+00
C     4.078656514058360e-02   1.742037886941433e+00   1.788252159257743e+00 -2.33112957e+00   1.00707177e+00  -1.32298070e-01
C     1.773749981933777e+00   7.073585662423904e+00   1.811537503570982e+00  6.24129150e-01   1.39292604e+00  -1.33055604e+00
C     9.320661835576156e-01   8.789154413644825e-01   9.079017406189613e-01 -1.32240039e+00  -5.55214210e-01   4.40182890e-01
C     2.668032340233949e+00   2.673835301039786e+00   9.157011019176254e-01 -1.33865288e+00   2.41592890e-01  -1.23751396e+00
C     8.398821686631219e-01   2.684671735902845e+00   2.687869388734226e+00  2.04097855e+00  -1.59255014e+00  -4.19779740e-01
C     2.710092592539584e+00   8.950208523261642e-01   2.630617086689353e+00 -2.40432401e+00  -1.26473714e+00   1.55735646e+00
C     3.586330148934660e+00   3.509797885470240e-02   7.089213671722427e+00 -2.53590541e+00  -1.02894552e+00   6.54278400e-01
C     5.305887649340343e+00   1.833646403940611e+00   7.090187454537140e+00  1.26065850e+00  -2.57967056e+00   3.51968480e-01
C     3.538241172320777e+00   1.773916887696894e+00   1.745247837343946e+00  9.52966490e-01   4.48979200e-01   5.85353640e-01
C     5.299387210107032e+00   2.040152834053100e-02   1.755995914513838e+00  8.52214030e-01   6.76167650e-01  -7.92910720e-01
C     4.416288390946453e+00   9.126565645094793e-01   8.398188326175777e-01  1.19422829e+00   3.13675770e-01   1.06797651e+00
C     6.201875886900862e+00   2.661371748239009e+00   8.808377010093830e-01  9.21208210e-01   2.51412870e-01   6.80769880e-01
C     4.449081748103525e+00   2.655241799992652e+00   2.627095147618047e+00  1.60092680e-01   7.32601020e-01   1.23954606e+00
C     6.206265124616034e+00   8.810340356421473e-01   2.652464610359244e+00  9.66712310e-01   3.90309000e-02   6.96164780e-01
C     2.573860312785320e-02   3.519050563773563e+00   3.629766734027980e-02 -1.63726828e+00   1.53654326e+00  -1.03575650e+00
C     1.808551397396773e+00   5.288252576915063e+00   3.188212846141440e-02 -7.76730380e-01   1.69964579e+00  -7.56568690e-01
C     1.847834460069000e-02   5.349800427664976e+00   1.792686535456552e+00 -1.54495014e+00  -1.28808990e+00  -3.16210350e-01
C     1.734943823335125e+00   3.577553663862651e+00   1.761309105001157e+00  1.07756044e+00  -9.58222230e-01   2.19440709e+00
C     8.787338211665415e-01   4.444369290411822e+00   9.247280167185372e-01  1.77889760e-01  -1.32411120e-01  -1.66849811e+00
C     2.649138792668025e+00   6.216229000602488e+00   9.087050634592475e-01  1.14181573e+00   1.83304170e-01  -2.91198130e-01
C     8.799536264881336e-01   6.191637767969730e+00   2.675824806362672e+00  1.69828210e-01   2.37435572e+00   3.57501840e-01
C     2.615640777576632e+00   4.433448336403811e+00   2.680199258558793e+00  1.95896754e+00   1.34424325e+00  -5.16081020e-01
C     3.536371941508622e+00   3.538052514784442e+00   7.104048665393462e+00  4.65660780e-01   9.12518390e-01  -4.03503350e-01
C     5.300848772881930e+00   5.335133050599320e+00   7.066672721425954e+00  1.49981450e-01  -9.87931400e-02   1.12666400e+00
C     3.561932976239427e+00   5.382157043336276e+00   1.805469327517193e+00 -1.05017152e+00  -2.32733976e+00  -1.65867217e+00
C     5.329249409196747e+00   3.583680128981924e+00   1.790040780557388e+00  5.45040840e-01  -1.24398357e+00  -6.52678240e-01
C     4.426814756414827e+00   4.437275226805514e+00   8.854357130969037e-01  3.73879870e-01   9.35728420e-01   1.82371090e-01
C     6.178758585698360e+00   6.243489445929058e+00   8.561947901441765e-01  1.47134815e+00  -9.59866300e-01   1.06425654e+00
C     4.430756874347201e+00   6.274294648363541e+00   2.619168972059843e+00  1.04023607e+00  -1.82275872e+00   1.25283540e+00
C     6.256787456461196e+00   4.405718664100096e+00   2.705126008739216e+00 -1.93315784e+00   2.27499008e+00  -1.23836346e+00
C     4.109379116621999e-04   7.097875995527159e+00   3.577481868794189e+00 -8.11265130e-01   7.62113700e-02   8.98563700e-02
C     1.783638864061590e+00   1.740127924867665e+00   3.572085367593764e+00 -3.90239510e-01   1.24176641e+00  -7.36993270e-01
C     8.983837759834599e-03   1.778080504078107e+00   5.376378677672704e+00  1.54901790e-01  -4.13086070e-01  -6.67250590e-01
C     1.873861451902546e+00   7.098503100570695e+00   5.348261240915068e+00 -3.38520237e+00  -4.50756300e-01  -3.15645940e-01
C     8.595449897249826e-01   8.816732960883640e-01   4.503232218853935e+00  2.30618183e+00  -6.56569520e-01  -1.73612908e+00
C     2.680532927916576e+00   2.645512857373789e+00   4.400868374093792e+00 -5.29587890e-01   8.99971620e-01   1.76286743e+00
C     9.064691802083529e-01   2.646961980409102e+00   6.238715571465918e+00 -5.58785280e-01   9.56441450e-01   4.80319520e-01
C     2.661993948470938e+00   9.022336265902258e-01   6.232651091791891e+00  1.10883044e+00   2.48156990e-01  -1.45114170e-01
C     3.558738877619356e+00   7.076491656675186e+00   3.513896175447575e+00  1.41359030e-01   2.01507454e+00   7.52720920e-01
C     5.359398219886501e+00   1.794971111402394e+00   3.559891721599868e+00 -8.90012040e-01  -8.99041060e-01  -3.52714150e-01
C     3.562164568648387e+00   1.795250188074455e+00   5.327171759433373e+00 -9.39534030e-01  -1.08505098e+00  -5.68285300e-01
C     5.303391597821556e+00   7.097348977074111e+00   5.332129173368561e+00  8.01086520e-01   5.36230150e-01   2.36102000e-01
C     4.411235013305895e+00   8.721748796150676e-01   4.435163598782017e+00  1.41275008e+00   4.86649140e-01  -2.30046200e-02
C     6.265108931401299e+00   2.669078202454030e+00   4.482307652777024e+00 -1.80846793e+00  -5.32122600e-01  -4.79990200e-01
C     4.437108321042396e+00   2.642306390098359e+00   6.194075814759937e+00 -1.49958740e-01   1.73135548e+00   4.61507480e-01
C     6.244964585791160e+00   8.817182924035485e-01   6.218290585330741e+00 -1.07647769e+00   1.99760120e-01   6.99108330e-01
C     7.101388480396379e+00   3.543101911708333e+00   3.600130653861807e+00  5.10114620e-01   2.87377200e-01  -1.20973200e+00
C     1.787402844923106e+00   5.408520618980879e+00   3.551087940184998e+00 -1.52707601e+00  -4.57212026e+00  -2.73952450e-01
C     6.318321445786999e-03   5.300159966730051e+00   5.344257350790127e+00 -3.14063910e-01   1.08936390e+00  -6.14740510e-01
C     1.745662898140728e+00   3.573030787802224e+00   5.336734222794476e+00  1.55696757e+00  -6.88348620e-01  -8.60594490e-01
C     8.780894426560385e-01   4.443230165686967e+00   4.412002367527724e+00  4.77122230e-01   6.10356790e-01   1.85143528e+00
C     2.684369983362626e+00   6.176180218645634e+00   4.393661428736278e+00  2.69935930e-01   2.79195434e+00   9.60324200e-01
C     9.387796622168484e-01   6.187884378657917e+00   6.241035689524860e+00 -5.10034520e-01   2.03958240e-01  -1.82061900e-01
C     2.667233140278782e+00   4.491348286833593e+00   6.188366685132684e+00 -1.63625230e-01  -2.79915034e+00   7.11086180e-01
C     3.562938249366348e+00   3.546661169998393e+00   3.530807539365912e+00 -6.43868270e-01   1.26367260e-01   6.07386200e-02
C     5.331272892779756e+00   5.379094805955806e+00   3.527919102918501e+00  3.97056040e-01  -1.66143420e+00   7.01740960e-01
C     3.545043079757402e+00   5.315055453077583e+00   5.251999763721516e+00  3.48141700e-01   6.84381750e-01   2.72746624e+00
C     5.331589146502120e+00   3.533650055403197e+00   5.334184005095325e+00  2.81714000e-03   1.06697821e+00  -4.82306460e-01
C     4.457403151959402e+00   4.462137290340095e+00   4.436610518206319e+00 -1.77905060e-01  -1.21711553e+00  -1.29803109e+00
C     6.197923177418786e+00   6.211083071299418e+00   4.463102471963439e+00  7.18030430e-01   4.20259460e-01  -5.09875870e-01
C     4.397427613208807e+00   6.236751869717143e+00   6.228741885856248e+00  1.19088580e+00  -6.56988710e-01  -1.73070548e+00
C     6.187346199981357e+00   4.449914286560779e+00   6.190851789680636e+00  1.35085679e+00  -9.53081540e-01   1.57363608e+00
