64
Lattice="7.10842262195238 0 0 0 7.10842262195238 0 0 0 7.10842262195238 " PBC="1 1 1" Properties=species:S:1:pos:R:3:force:R:3 Energy="-514.08465464"
C     1.614002897984100e-02   7.102293382595905e+00   7.098339891187339e+00 -5.53458780e-01   8.57400430e-01   2.80466330e-01
C     1.807935665829428e+00   1.806865919309344e+00   7.086726790068819e+00 -9.33592300e-01  -7.95256990e-01   1.33254750e-01
C     7.097339309619349e+00   1.790236759769021e+00   1.755006351000908e+00  7.68109300e-02  -3.71084150e-01   4.00015520e-01
C     1.760815709387103e+00   3.842671099919600e-02   1.751313596534045e+00  5.56112680e-01  -1.23950562e+00   1.09378888e+00
C     8.823362986661314e-01   9.141052610394353e-01   8.419753147878072e-01  6.90695110e-01   7.18926600e-02   1.15050642e+00
C     2.672963239752765e+00   2.689216292652263e+00   9.009847478201179e-01 -5.20960650e-01  -1.32469567e+00   2.19971090e-01
C     8.662107708684352e-01   2.672906585624483e+00   2.668339992764943e+00  7.43851730e-01  -6.10092640e-01   1.02102070e-01
C     2.670930444136123e+00   8.690488796836964e-01   2.698307041088303e+00 -7.08202740e-01   1.05144614e+00  -1.57557022e+00
C     3.565597865689620e+00   7.071556492102799e+00   2.984904850786820e-02 -8.30192150e-01   6.96835640e-01  -1.13490474e+00
C     5.281991620439820e+00   1.746357106693797e+00   7.107341144582593e+00  1.36390731e+00   1.06223234e+00  -6.31786170e-01
C     3.541133091895272e+00   1.753831684162953e+00   1.784048167036049e+00  1.97934440e-01   2.60069360e-01  -4.45340260e-01
C     5.349244477931866e+00   7.102136712961360e+00   1.786722853215276e+00  6.05668300e-02   1.01361680e-01   4.35699850e-01
C     4.431077819628493e+00   8.624504863866813e-01   8.834848065088448e-01  3.73891870e-01   4.27873900e-02   8.04578990e-01
C     6.198403920040576e+00   2.656406941544296e+00   8.562558514944824e-01 -9.45885800e-02   4.15049500e-02   9.06795800e-01
C     4.424570343056788e+00   2.658943297819338e+00   2.620786493627024e+00  4.89453130e-01   2.76800190e-01   9.79395750e-01
C     6.244520096124731e+00   8.895517030465624e-01   2.692005140098768e+00 -7.21623170e-01   1.36531000e-02  -1.52954652e+00
C     2.354643667607140e-02   3.546204951434641e+00   5.232652059034401e-03 -1.07464202e+00  -6.06178100e-02  -5.48057500e-02
C     1.760966763367778e+00   5.340979088446235e+00   2.292338343342840e-02  8.44268610e-01   1.53240540e-01  -1.43739480e-01
C     7.100011152429527e+00   5.335446176615731e+00   1.772287708316616e+00  7.39048150e-01  -1.02013332e+00   4.01072740e-01
C     1.792653268038690e+00   3.526655083208213e+00   1.801546899915477e+00 -1.02279476e+00   1.81320975e+00  -4.31042830e-01
C     8.752669012863151e-01   4.456603667667330e+00   8.969661432603533e-01  8.02439370e-01  -1.09921025e+00   4.82661800e-02
C     2.667819585144932e+00   6.214205232682574e+00   9.405793726557800e-01 -3.73075800e-02   2.96048560e-01  -1.59270133e+00
C     8.912418726929198e-01   6.203438033855834e+00   2.627635174484489e+00 -2.73072050e-01   1.21887740e+00   1.12494816e+00
C     2.674021897133561e+00   4.452622240157869e+00   2.664381170039412e+00  4.28470100e-01  -1.07600505e+00   3.53783530e-01
C     3.524787060827903e+00   3.576502399241380e+00   4.036404050005080e-02  1.39758611e+00  -3.31143920e-01  -1.69218067e+00
C     5.355940754208358e+00   5.378417728701251e+00   7.102643330241487e+00 -6.34606500e-02  -2.19490026e+00   1.23205020e-01
C     3.584223141385866e+00   5.327866394491799e+00   1.787363464261791e+00 -6.41009780e-01   1.69186410e-01   1.74595160e-01
C     5.287634997157838e+00   3.560315810093377e+00   1.737608060133101e+00  2.01539404e+00  -3.43607520e-01   3.71738370e-01
C     4.468752246261815e+00   4.444286690540978e+00   8.454730141379782e-01 -1.04272157e+00   1.13492008e+00   1.47861563e+00
C     6.260939201776633e+00   6.205476658379023e+00   9.153160386642999e-01 -1.54492756e+00   1.39598288e+00  -1.19326121e+00
C     4.458696955960468e+00   6.221814941265737e+00   2.699860160346546e+00 -1.54574000e-01  -1.34721650e-01  -8.82127560e-01
C     6.228855620618169e+00   4.436480434072372e+00   2.643242640441640e+00 -1.16688794e+00  -3.28481570e-01   1.21319534e+00
C     2.803206460197000e-03   7.096283495607599e+00   3.564456750606432e+00  4.23145340e-01   1.81827290e-01  -3.10077940e-01
C     1.778755235553197e+00   1.783356659683575e+00   3.535039254435824e+00 -7.98226300e-02  -4.04888260e-01   1.00271880e+00
C     1.119512586846420e-02   1.763857119089296e+00   5.326458855728813e+00 -4.85877960e-01   2.05030880e-01   3.79127690e-01
C     1.774739403278254e+00   7.085292594721008e+00   5.301059964117970e+00  3.10512320e-01   1.03161992e+00   1.37476061e+00
C     9.141674597373604e-01   8.803451584060432e-01   4.429173117787465e+00 -8.80483580e-01   5.52701900e-02   3.30391600e-02
C     2.664408110961142e+00   2.654901519801832e+00   4.463716426425129e+00 -3.25845720e-01   1.02507778e+00  -1.26482703e+00
C     8.960146098084403e-01   2.669764520657990e+00   6.211344519083381e+00  3.04978710e-01   5.03999080e-01  -3.81059440e-01
C     2.667440777303512e+00   8.736441194863954e-01   6.211415390056903e+00  2.32147950e-01   4.48759300e-02   3.07928820e-01
C     3.549903321555375e+00   5.896649815968599e-03   3.568913873757624e+00  5.09684430e-01  -1.81897700e-01   6.21598800e-02
C     5.325277151552465e+00   1.792180415766008e+00   3.503639077028045e+00  2.73330940e-01  -4.64366590e-01   1.76385467e+00
C     3.531396045674622e+00   1.792658528271429e+00   5.332369509137343e+00  7.77630440e-01  -1.00365782e+00   1.50678350e-01
C     5.328841812243716e+00   7.100352356715288e+00   5.316969893457602e+00  2.21889280e-01   1.19059603e+00   7.88598150e-01
C     4.459444904188544e+00   9.158899016224125e-01   4.440181931899059e+00 -9.27699500e-01  -6.23870250e-01  -4.02527690e-01
C     6.181844920631513e+00   2.644131193269140e+00   4.473892702079469e+00  1.16363605e+00   5.70528770e-01  -1.30244837e+00
C     4.399098163608732e+00   2.663341207810106e+00   6.221128836314454e+00  5.18727540e-01   2.69156120e-01   3.96127500e-01
C     6.223520891610311e+00   8.989116474472211e-01   6.220631744320638e+00 -5.33115340e-01  -1.09724019e+00  -8.71593900e-02
C     7.095442213790523e+00   3.526533458097184e+00   3.601519639641755e+00 -2.79596440e-01   9.26266880e-01  -1.98392987e+00
C     1.775937527910855e+00   5.331377528760722e+00   3.528662786093006e+00  1.26166930e-01   1.57472030e-01   1.39955660e-01
C     5.171732877181000e-03   5.323098491103661e+00   5.344574386438979e+00 -1.04882540e-01   3.99468220e-01  -4.18240000e-04
C     1.775350656539348e+00   3.586970404560043e+00   5.315872850594657e+00  2.39914910e-01  -6.60238680e-01   6.67502550e-01
C     8.720338485102868e-01   4.457290056955517e+00   4.414265831458383e+00  6.44299430e-01  -3.10647350e-01   1.16124084e+00
C     2.667545981958289e+00   6.223563755398709e+00   4.447552655313737e+00 -1.45271260e-01  -4.20706410e-01  -5.52447520e-01
C     8.893802478929679e-01   6.240902975274544e+00   6.224422097430074e+00  3.15278570e-01  -1.18861516e+00  -4.05075330e-01
C     2.682814447240691e+00   4.458207683231533e+00   6.255519598202692e+00 -1.31597895e+00   3.05598950e-01  -1.28119259e+00
C     3.577904535603174e+00   3.540256339049320e+00   3.561920678668295e+00 -1.31517555e+00   1.52342190e-01  -5.64627860e-01
C     5.326268207834144e+00   5.319164476773074e+00   3.571251265283533e+00  7.87601400e-01   3.92044830e-01  -4.61097120e-01
C     3.562889769924080e+00   5.349973304503095e+00   5.315990210652113e+00 -3.36587120e-01  -1.11350440e+00   1.00247945e+00
C     5.316675818013812e+00   3.549321141742797e+00   5.325518127079283e+00 -1.82633350e-01   2.03055800e-02   1.35924826e+00
C     4.429567706327100e+00   4.434695295899812e+00   4.427426009675921e+00  8.69610450e-01   1.25075420e-01   7.27868180e-01
C     6.227595439456095e+00   6.231122283339007e+00   4.476697330224189e+00 -2.77247770e-01  -1.09303021e+00  -1.04341273e+00
C     4.444531433531784e+00   6.211415318972676e+00   6.215322605634213e+00  4.36027610e-01   7.09526250e-01  -7.87225200e-02
C     6.236572168793309e+00   4.430019588753054e+00   6.257705367074117e+00 -3.40543660e-01   5.87063070e-01  -1.71362629e+00
