64
Lattice="7.10842262195238 0 0 0 7.10842262195238 0 0 0 7.10842262195238 " PBC="1 1 1" Properties=species:S:1:pos:R:3:force:R:3 Energy="-510.27447228"
C     7.083715733331213e+00   7.095875827570342e+00   7.067452586471593e+00  2.07755381e+00   7.03639600e-02   2.64684904e+00
C     1.860722883289774e+00   1.752227810767202e+00   3.332855029613200e-03 -1.22473821e+00   1.01960658e+00  -6.20050000e-02
C     7.080595846643296e+00   1.810830997446780e+00   1.794584199959187e+00  1.89120137e+00   1.38333790e-01  -1.17816039e+00
C     1.748110683469925e+00   4.517167997063540e-02   1.810670986853604e+00 -1.25827725e+00  -1.53055279e+00  -6.57441650e-01
C     8.983116965780932e-01   9.322344399210311e-01   8.846952997968046e-01 -4.62967480e-01  -6.91752450e-01  -4.24941510e-01
C     2.725823816134549e+00   2.681676815284586e+00   9.277963673424603e-01 -1.42122899e+00  -8.39711020e-01  -9.60491620e-01
C     9.469112711887713e-01   2.666012908451833e+00   2.672831307428937e+00 -2.32906460e+00   7.89335140e-01   1.75716830e-01
C     2.618335083002290e+00   8.893053962027795e-01   2.710934300862018e+00  2.24850705e+00  -9.63298700e-02  -1.29418193e+00
C     3.490193069136958e+00   7.012900916348511e+00   7.100129578750376e+00  1.69009936e+00   1.02593351e+00   7.69382390e-01
C     5.266299777506171e+00   1.740360228118886e+00   7.082453064221223e+00  1.00724015e+00   4.50024460e-01   1.12308807e+00
C     3.514574247881296e+00   1.720578696399272e+00   1.816958528829447e+00  2.02787554e+00   1.59005884e+00  -1.42100582e+00
C     5.414417410965300e+00   2.656829821605960e-02   1.852019614970751e+00 -2.52590271e+00  -2.16454570e-01  -2.52224147e+00
C     4.422556242591638e+00   8.148903764157259e-01   8.916850117590506e-01 -2.75113190e-01   1.42467559e+00   5.83891720e-01
C     6.172851913006498e+00   2.676536075130029e+00   8.229845240004414e-01  1.14672957e+00  -1.54007425e+00   1.67451788e+00
C     4.461480685342686e+00   2.677157280182791e+00   2.640345816055537e+00 -1.44416269e+00  -4.92303320e-01  -1.32826808e+00
C     6.259016373457923e+00   9.669450808271696e-01   2.724468097772462e+00 -1.53183223e+00  -1.64654847e+00  -9.04809430e-01
C     1.416474050219540e-02   3.518337233563646e+00   6.817403797937199e-03  9.13217350e-01   5.45182580e-01  -2.40098650e-01
C     1.769667259401980e+00   5.367582075764680e+00   1.251267200108120e-02 -1.28094766e+00  -1.76996843e+00   1.70426000e-01
C     7.068128881799661e+00   5.316523911022423e+00   1.767761633466010e+00  6.01865590e-01   4.48885870e-01  -2.29310710e-01
C     1.796606972699934e+00   3.583194836969657e+00   1.795893855742696e+00 -3.16948200e-02  -1.40995188e+00  -1.23934199e+00
C     8.595617656023657e-01   4.427466456600629e+00   9.052574784885475e-01  7.57360080e-01   5.69254520e-01  -3.23827270e-01
C     2.586552401373330e+00   6.171923126506969e+00   9.768444834204602e-01  2.31875501e+00   1.91393110e+00  -2.47824651e+00
C     7.766681036510812e-01   6.256066520239076e+00   2.612802739845597e+00  2.70676346e+00  -1.02387901e+00   2.00637219e+00
C     2.720137504543906e+00   4.422638913546708e+00   2.629349654936207e+00 -1.41943250e+00   1.05488594e+00   4.25272920e-01
C     3.552910042155183e+00   3.597106233289676e+00   7.105004250646268e+00 -3.37181660e-01  -8.16384970e-01   1.05241073e+00
C     5.392631801656429e+00   5.334424980622142e+00   7.071946602336184e+00 -1.55272707e+00   1.62602428e+00   1.51046475e+00
C     3.598547394891654e+00   5.335541074057708e+00   1.764872130755206e+00 -7.80969600e-01   2.66214990e-01   2.96880730e-01
C     5.314035892021197e+00   3.565283602325590e+00   1.678563084987690e+00  1.11884500e-02  -1.61396600e-02   2.30379621e+00
C     4.484529390266905e+00   4.498410220369657e+00   8.301171863415756e-01 -1.11560521e+00  -8.36151980e-01   6.44205990e-01
C     6.252722789322854e+00   6.260805065841794e+00   9.140770406016340e-01 -9.07966000e-01  -1.64589268e+00  -1.04004404e+00
C     4.459333088700731e+00   6.244359019268162e+00   2.667321782308854e+00  5.29099750e-01   3.07628870e-01   4.46676110e-01
C     6.188382465830900e+00   4.413985119849120e+00   2.652001141204420e+00  1.31171265e+00   5.81233070e-01  -6.00945490e-01
C     7.095922032317373e+00   4.074832182688800e-02   3.612999173499245e+00  6.44007160e-01  -3.78187790e-01  -1.04172398e+00
C     1.837922688820350e+00   1.797611890405723e+00   3.555437655070402e+00 -1.97882574e+00   3.20520580e-01   5.48838810e-01
C     4.500726215543480e-02   1.748565906854509e+00   5.409542596900956e+00 -4.58456440e-01   1.32222798e+00  -1.96703492e+00
C     1.723521583363952e+00   7.074669057115417e+00   5.303842413984117e+00  1.14853950e+00   1.02516910e-01  -8.44416680e-01
C     9.517956105394255e-01   9.255067444165581e-01   4.423193228342615e+00 -2.51657027e+00  -7.90811190e-01   1.73657863e+00
C     2.744899481487997e+00   2.656319650114523e+00   4.408512913947792e+00 -1.89071117e+00   7.23104650e-01   1.23100007e+00
C     1.033528964666448e+00   2.702285838481396e+00   6.242883381816476e+00 -3.79938999e+00  -1.71667903e+00  -1.90658280e-01
C     2.640147277811761e+00   7.728982938830166e-01   6.161056836268905e+00  7.96710660e-01   2.32969959e+00   2.28475430e+00
C     3.552990225162336e+00   4.249450584349100e-02   3.567285476303835e+00 -4.86327760e-01  -1.98360744e+00   2.84572880e-01
C     5.290346362797784e+00   1.817092380427381e+00   3.501091702697942e+00  1.57220520e+00  -6.01978150e-01   3.84005894e+00
C     3.528509457417092e+00   1.711754940316840e+00   5.323106239284316e+00  7.92294610e-01   2.04319296e+00   5.25514050e-01
C     5.356046954042301e+00   4.866283957199600e-02   5.336319730671503e+00 -1.52698885e+00  -2.17951696e+00  -3.52568700e-02
C     4.460881374231594e+00   9.167185304472260e-01   4.475444257484735e+00 -6.12947280e-01  -7.52157880e-01  -2.21659360e+00
C     6.141534122216886e+00   2.617340401425074e+00   4.536782836272716e+00  2.29677059e+00   1.88293552e+00  -1.84165845e+00
C     4.368001942352186e+00   2.672387031015187e+00   6.253714343194117e+00  7.77520740e-01  -6.55230170e-01  -1.28771858e+00
C     6.220428656686384e+00   8.307499070389818e-01   6.249646974855180e+00  3.63652400e-02   2.81761193e+00  -8.13965020e-01
C     7.069890491093349e+00   3.515043830279573e+00   3.558594150134814e+00  1.15416032e+00   4.05493430e-01   1.51868922e+00
C     1.744875000577527e+00   5.308611383635648e+00   3.438646413592255e+00  1.05307900e-02   1.38911722e+00   3.07486901e+00
C     7.077967080874193e+00   5.292218508063214e+00   5.361765680040091e+00  1.69644930e+00   6.12955390e-01  -8.27917000e-01
C     1.829859747210937e+00   3.613668929078502e+00   5.337917206486896e+00 -3.88786760e-01  -2.00886579e+00  -6.87168730e-01
C     9.066190968414085e-01   4.442478236742224e+00   4.473328364407666e+00 -1.47926746e+00  -3.60469630e-01  -2.44490803e+00
C     2.573288155848636e+00   6.225173244448329e+00   4.381565239216503e+00  2.91965803e+00  -1.24876579e+00   4.28394850e-01
C     8.846360155521538e-01   6.204390562486914e+00   6.182963288762317e+00 -1.29570729e+00   2.23569200e-01   1.60608819e+00
C     2.652747383411068e+00   4.476904114238205e+00   6.230383362807658e+00  1.43362325e+00  -3.00987420e-01  -7.26726000e-02
C     3.561636057426590e+00   3.544936808839234e+00   3.504447091427261e+00  2.01888092e+00   2.93074440e-01   9.32212800e-01
C     5.384947810056888e+00   5.363258590958743e+00   3.513012598515909e+00 -1.99397362e+00  -9.48346970e-01   1.78339034e+00
C     3.554005876586282e+00   5.271243258933023e+00   5.299297572897793e+00 -6.66499200e-02   3.11504198e+00  -7.52048310e-01
C     5.257282601244247e+00   3.600900993621136e+00   5.392864815749913e+00  2.23015780e+00  -2.56071060e+00  -1.71779926e+00
C     4.497094380258470e+00   4.452332003262294e+00   4.374953695337640e+00 -2.27252767e+00  -1.25881510e-01   1.87998584e+00
C     6.208504419909787e+00   6.212349294620719e+00   4.510301118644167e+00  7.95032750e-01   7.75430350e-01  -2.22071582e+00
C     4.444867022163675e+00   6.223458195322802e+00   6.198579498079290e+00 -1.60743090e-01  -1.28868020e+00  -1.81959200e-01
C     6.248166645844565e+00   4.415405951362406e+00   6.263981606657993e+00 -7.33234690e-01   3.21319310e-01  -1.47058437e+00
