64
Lattice="7.10842262195238 0 0 0 7.10842262195238 0 0 0 7.10842262195238 " PBC="1 1 1" Properties=species:S:1:pos:R:3:force:R:3 Energy="-510.2047648"
C     2.699722043695040e-02   2.014320826252020e-02   1.469467340851640e-02  1.33981970e-01   9.70782200e-02  -4.34410930e-01
C     1.815732965685532e+00   1.770074643102332e+00   8.722674312775800e-03  2.39199000e-02  -1.02720991e+00   8.94645090e-01
C     3.301016404698220e-02   1.855664600837608e+00   1.742904687995715e+00 -1.69946450e+00  -1.64171586e+00   1.58688560e-01
C     1.746610379791748e+00   7.065321197033214e+00   1.878044900782869e+00  8.12826330e-01   6.89344660e-01  -3.00540740e+00
C     9.519500054787320e-01   8.730487180077442e-01   9.381578174060508e-01 -2.58921821e+00   9.36187600e-01  -1.04653352e+00
C     2.669455162105568e+00   2.669284488878462e+00   9.070416925661676e-01  1.05791484e+00   9.00399180e-01  -5.07708580e-01
C     9.395180140743878e-01   2.710605607400070e+00   2.576359278757381e+00 -2.42566062e+00  -4.74991390e-01   2.85617971e+00
C     2.638866340055637e+00   8.952755471086388e-01   2.650234058425314e+00  6.91561210e-01  -9.31099680e-01   1.39296952e+00
C     3.574684917745897e+00   7.050638963364282e+00   4.049199210721080e-02 -2.34480428e+00   3.84449810e-01  -6.39659900e-01
C     5.358125456816389e+00   1.738664584987111e+00   6.990705648644050e+00 -2.62856796e+00   2.88541798e+00   5.13443838e+00
C     3.544419884346307e+00   1.760179860983744e+00   1.802692706557595e+00  3.68197470e-01   9.95566250e-01  -8.69190680e-01
C     5.348055949669802e+00   7.102205735745001e+00   1.777947647659339e+00 -1.50775760e-01   1.49795273e+00  -5.72158160e-01
C     4.390089019864371e+00   8.746275697558724e-01   8.708914539110265e-01  2.52658025e+00   1.37797230e-01   3.36143300e-01
C     6.181788693008588e+00   2.700362583657328e+00   8.391681276109429e-01  1.38592926e+00  -7.20189050e-01  -9.10570020e-01
C     4.472230966123591e+00   2.679229882966104e+00   2.717133556228920e+00 -1.54466125e+00  -1.11607308e+00  -2.43522515e+00
C     6.183897761999942e+00   9.357131597828066e-01   2.686267292444130e+00  1.86221092e+00  -6.44268950e-01  -1.02831306e+00
C     1.379552903131260e-02   3.583910299706360e+00   7.048003160256786e+00  2.52815910e-01  -9.45062210e-01   1.37732172e+00
C     1.746697386884616e+00   5.282573515915493e+00   7.083443622913320e+00  2.89965900e-02   3.78745243e+00   2.12460738e+00
C     7.056609114270141e+00   5.282168406910380e+00   1.804974652387067e+00  2.06395326e+00   2.12495933e+00  -3.00863000e-01
C     1.800150521376004e+00   3.592960103628108e+00   1.761868751114030e+00  2.18721970e-01  -1.31174964e+00  -4.52559690e-01
C     9.031190517117730e-01   4.446221461009689e+00   9.160263122524903e-01 -1.48282831e+00  -8.98159500e-02  -1.75418205e+00
C     2.644688777939452e+00   6.192624274860933e+00   9.609988142213135e-01  5.27115570e-01  -9.44911600e-02  -1.32057395e+00
C     8.642691052297822e-01   6.206363647353547e+00   2.754203411518411e+00 -3.08296340e-01  -2.69357800e-02  -2.50502078e+00
C     2.707089070729956e+00   4.411362111902340e+00   2.621935925564677e+00  2.70223700e-02   1.77939054e+00   2.08762383e+00
C     3.549802737375302e+00   3.652379550477140e+00   5.848518686408580e-02 -1.03335140e-01  -2.53773678e+00  -1.82543454e+00
C     5.365659602867101e+00   5.310305676167125e+00   1.240768059898380e-02 -4.52533800e-02   1.94360227e+00  -1.04346922e+00
C     3.580406131691605e+00   5.342603220846453e+00   1.822414101021844e+00 -2.32266060e-01   5.00766560e-01  -1.04723219e+00
C     5.264879372498242e+00   3.587132334427327e+00   1.713541073668567e+00  2.68232396e+00  -1.95664666e+00   3.05183130e+00
C     4.456033785425885e+00   4.513842392625000e+00   9.172273513383655e-01 -6.25259720e-01  -1.21785941e+00  -8.95276250e-01
C     6.262841700006650e+00   6.250316019592174e+00   8.472479161819659e-01 -1.17736740e+00  -1.56780816e+00   2.39282762e+00
C     4.482198325237128e+00   6.251137611078594e+00   2.681815287357224e+00 -2.21664802e+00  -7.30530650e-01  -2.99643480e-01
C     6.184122103817829e+00   4.414532112969729e+00   2.692828579775068e+00 -2.44039740e-01   1.31254069e+00  -1.69135098e+00
C     2.401409980024120e-02   4.768493387216260e-02   3.592301650440818e+00 -2.29296676e+00  -1.44303021e+00  -1.82668620e+00
C     1.741639033348224e+00   1.766164726324427e+00   3.484636770596035e+00  1.44342768e+00   1.99472979e+00   1.18806027e+00
C     4.663231865059300e-02   1.727704676823143e+00   5.341820796768669e+00 -9.24521530e-01   1.96380990e+00  -7.76949490e-01
C     1.792447123782710e+00   1.013668174034620e-02   5.291641517399149e+00 -2.58551480e+00  -6.77827360e-01   2.14307560e-01
C     8.812415304984252e-01   9.155317792908170e-01   4.387744733168521e+00  8.89729510e-01  -3.39699000e-01   1.96100446e+00
C     2.687830079157137e+00   2.655871179731427e+00   4.429152716614545e+00  2.05800680e-01  -1.40864247e+00  -8.01871900e-01
C     1.001468485881497e+00   2.626833913086763e+00   6.229270539246498e+00 -3.85733029e+00   1.22315028e+00  -9.72801650e-01
C     2.581521344179799e+00   8.178130043759390e-01   6.217650045368452e+00  4.47137393e+00   1.38102467e+00   6.51417590e-01
C     3.508852536346006e+00   7.102939680380516e+00   3.562633155867497e+00  1.15884865e+00  -5.07163540e-01  -5.18653970e-01
C     5.281441926118615e+00   1.753361319838188e+00   3.606346756190318e+00  1.31086984e+00  -8.54509400e-02  -1.21196926e+00
C     3.528569168167100e+00   1.665134208395117e+00   5.336235282610778e+00 -5.11679240e-01   3.27163025e+00   1.41945700e-01
C     5.296124515208678e+00   2.742692458432940e-02   5.365138768741733e+00  1.91050373e+00  -3.16384084e+00  -1.24756436e+00
C     4.409024293871075e+00   7.826204124161643e-01   4.461630388723063e+00 -4.62483540e-01   3.49252060e+00   2.40254330e-01
C     6.200630562342065e+00   2.616582003815746e+00   4.432265850300974e+00  9.01830720e-01   1.29112437e+00   1.76397634e+00
C     4.405866732543271e+00   2.678883205194927e+00   6.236219875368262e+00  4.36316440e-01  -8.21762760e-01  -5.70947970e-01
C     6.209258268128638e+00   8.901072973585415e-01   6.210912682409217e+00  1.89016560e+00  -8.30602200e-01  -7.60756910e-01
C     7.081293964828806e+00   3.557435548331979e+00   3.533372613668339e+00  1.12072863e+00  -9.42509180e-01   6.25709290e-01
C     1.802720429405813e+00   5.336591343499814e+00   3.526788934806147e+00 -1.06925818e+00  -1.95816769e+00   1.32814713e+00
C     2.590337636418480e-02   5.336889755081401e+00   5.347268478611958e+00 -2.64400710e-01   1.25442896e+00  -2.42506212e+00
C     1.827804204641911e+00   3.505131632525567e+00   5.295465848768708e+00 -1.92902120e-01   1.54272675e+00   1.29329771e+00
C     9.408140927706923e-01   4.415539660791888e+00   4.441277695245931e+00 -1.75021559e+00   1.21419540e-01  -2.43013890e-01
C     2.604185838861407e+00   6.207334089209629e+00   4.424548875620476e+00  2.59676003e+00   6.19700280e-01   2.34233510e-01
C     8.903162138993433e-01   6.272352271882626e+00   6.200747353725712e+00 -2.42788410e-01  -1.84793184e+00   4.39184260e-01
C     2.655725528151943e+00   4.537091483982876e+00   6.226601824142270e+00  1.72401090e-01  -4.18486607e+00  -8.32290000e-02
C     3.609247703461540e+00   3.567542659034227e+00   3.542845368735977e+00 -2.08742030e+00  -1.33060976e+00   4.42310680e-01
C     5.313677698605375e+00   5.379495863160026e+00   3.554600425054219e+00  8.92704860e-01  -2.03338880e+00   6.96134930e-01
C     3.487267171302340e+00   5.369056149363389e+00   5.351093734076459e+00  2.65814125e+00  -9.65373330e-01  -1.13976168e+00
C     5.286608683099963e+00   3.549889602299718e+00   5.359281499587079e+00  1.54385307e+00   9.64181300e-02  -1.56148394e+00
C     4.439056810766765e+00   4.394578130917353e+00   4.445308952797959e+00 -5.60372550e-01   3.29279079e+00   5.09651980e-01
C     6.226063432213031e+00   6.245078818142662e+00   4.391826602689604e+00  8.52202500e-02  -8.11814100e-02   2.95455610e+00
C     4.478870161766445e+00   6.174943068772849e+00   6.231369869698862e+00 -1.74316862e+00   1.51911736e+00   2.94410530e-01
C     6.228765983408930e+00   4.514304582263751e+00   6.164221363850878e+00  2.36705700e-02  -3.37327579e+00   1.93727348e+00
