64
Lattice="7.10842262195238 0 0 0 7.10842262195238 0 0 0 7.10842262195238 " PBC="1 1 1" Properties=species:S:1:pos:R:3:force:R:3 Energy="-511.51568711"
C     3.641076234416400e-03   9.419228645309599e-03   7.087571199591849e+00 -3.94945900e-02  -4.01754890e-01   1.40207106e+00
C     1.742508962108460e+00   1.737220224594954e+00   3.343602964614640e-02  1.95750640e-01   1.21435649e+00  -7.18850420e-01
C     3.206780046024880e-02   1.719338560988987e+00   1.780186445363508e+00 -1.36503052e+00   2.34263360e+00   5.44460940e-01
C     1.792864814695861e+00   7.101015074956151e+00   1.779017962853232e+00 -2.28755220e-01  -1.87381760e+00   7.77352020e-01
C     8.982853243301731e-01   8.389935447513958e-01   9.765839597314372e-01 -1.71479640e-01   7.79319210e-01  -3.41879997e+00
C     2.628190129038432e+00   2.653821679321628e+00   8.336623699548482e-01  1.46372691e+00   5.68078000e-02   2.47379663e+00
C     8.505054219318072e-01   2.713941590135636e+00   2.656171652755574e+00  2.46988456e+00  -3.08933186e+00  -2.71128080e-01
C     2.675813006381122e+00   8.257823280594472e-01   2.663730749369682e+00 -2.46502610e-01   2.92080154e+00  -1.35472237e+00
C     3.611451101221062e+00   5.806195138129099e-02   7.096032710457566e+00 -2.51522671e+00  -7.93603160e-01  -1.62216980e-01
C     5.363073558717945e+00   1.794866901926784e+00   3.634358775040500e-02  7.26527050e-01   3.38993420e-01  -2.03587002e+00
C     3.587155010295485e+00   1.782443867134941e+00   1.736501705236524e+00 -1.19354654e+00   3.27200750e-01   1.41768491e+00
C     5.262138222567518e+00   1.654570665876440e-02   1.727080344064429e+00  2.49819518e+00  -7.15007480e-01   1.30129042e+00
C     4.461918990681435e+00   9.410998513600164e-01   8.465735401280066e-01 -3.19488490e-01  -1.13904186e+00   1.46768839e+00
C     6.270169062043347e+00   2.672405441829773e+00   8.943925388507823e-01 -1.35384025e+00  -4.77032670e-01   8.60098610e-01
C     4.477635499841577e+00   2.685514936994029e+00   2.714874570604511e+00 -1.55557933e+00  -1.43777475e+00  -5.10101880e-01
C     6.216395124439118e+00   8.419778738199504e-01   2.638931097785705e+00 -1.42954226e+00   2.31849176e+00  -3.92385430e-01
C     7.104707260749205e+00   3.576761643414331e+00   7.094624603020770e+00 -1.72242860e-01  -2.47162440e-01   8.62350130e-01
C     1.778453625181430e+00   5.316365464282224e+00   7.056331032777247e+00  2.84215930e-01   5.68002770e-01   2.28428479e+00
C     7.101370922592507e+00   5.356222460996789e+00   1.785304580734134e+00  4.74925780e-01  -1.17643776e+00  -2.44314160e-01
C     1.799470956173532e+00   3.519352813903365e+00   1.792089712293376e+00 -1.66928114e+00   2.03240394e+00  -1.32203319e+00
C     9.088303138658120e-01   4.456079776920236e+00   8.890314375950046e-01 -7.47608140e-01  -3.54716450e-01  -5.23249770e-01
C     2.657519480768552e+00   6.202761027685505e+00   8.586227429742638e-01  7.70419950e-01   1.52166593e+00   2.62104150e-01
C     9.069755842358017e-01   6.198363330947417e+00   2.719647023383126e+00 -8.50888090e-01   7.02291300e-01  -1.22027680e+00
C     2.601812691969720e+00   4.492131706090543e+00   2.658714051189843e+00  2.40124297e+00  -2.34347675e+00   9.14401710e-01
C     3.533651903593079e+00   3.555640174030846e+00   5.149199177475599e-03  1.51914287e+00  -4.88881030e-01  -5.45818930e-01
C     5.285591681075719e+00   5.357108525876372e+00   7.102979771884092e+00  1.05812612e+00  -2.50576726e+00   1.25374545e+00
C     3.503572186771192e+00   5.367141780067597e+00   1.797766427513483e+00  1.26869434e+00  -1.61783060e+00  -7.30825650e-01
C     5.327166499200635e+00   3.540459000178217e+00   1.868170590921427e+00  1.25799831e+00   2.25757600e-01  -3.01193115e+00
C     4.437611384111214e+00   4.399476260607891e+00   9.582730184834483e-01 -1.06291290e+00   1.55552314e+00  -1.38149566e+00
C     6.188159687865990e+00   6.205298876729297e+00   8.770944056576909e-01  3.39926970e-01   1.19271247e+00  -3.23766840e-01
C     4.434451121582815e+00   6.234471558824873e+00   2.672297962479758e+00  4.21935190e-01  -1.69361872e+00  -2.07222614e+00
C     6.228903318133948e+00   4.423015091271759e+00   2.667511008518998e+00 -3.22578320e-01   1.52897971e+00   3.01278280e-01
C     7.040970655590367e+00   1.352128608663300e-02   3.492586190696208e+00  3.53542092e+00  -7.70537940e-01   2.25920692e+00
C     1.767091735718301e+00   1.788749819925370e+00   3.554273508697925e+00  8.10039600e-02  -7.42722540e-01   2.61438770e-01
C     7.089707067336480e+00   1.809341711823664e+00   5.304677582557741e+00  8.12342510e-01  -9.30616000e-02   1.09184097e+00
C     1.789587192110005e+00   1.299128209608580e-02   5.357742028500267e+00 -2.84393930e-01   4.16042660e-01  -1.05819967e+00
C     8.546465046133144e-01   9.223530216369691e-01   4.475230365048100e+00  8.61492770e-01  -1.09169017e+00  -1.80017805e+00
C     2.673410999293598e+00   2.640241464411476e+00   4.440759846658064e+00 -4.73338100e-01   1.62318157e+00  -2.49757380e-01
C     8.492689829012844e-01   2.648456455180731e+00   6.234222550780495e+00  1.14755636e+00   7.74457040e-01  -4.60478900e-02
C     2.674734161080085e+00   9.623010061610713e-01   6.228571923471404e+00 -3.89694770e-01  -2.65100652e+00   2.55397300e-02
C     3.549288442998745e+00   7.053874575172453e+00   3.449475384611563e+00 -2.10241320e-01   1.58678706e+00   5.44385998e+00
C     5.367689128609337e+00   1.769953373412435e+00   3.597137936854561e+00 -1.45650168e+00  -6.21916930e-01  -1.03248944e+00
C     3.547563157744645e+00   1.780632641051366e+00   5.315757054390176e+00  1.12894455e+00  -2.67793610e-01   8.51352710e-01
C     5.346854626247022e+00   7.055969427318567e+00   5.321645884941264e+00 -5.21474360e-01   1.89790381e+00   7.19161740e-01
C     4.404822292007714e+00   8.205774699328570e-01   4.497583368650499e+00  1.33119219e+00   1.38474485e+00  -2.65400276e+00
C     6.268679136662194e+00   2.690106409332740e+00   4.408779266543363e+00 -1.14204429e+00  -2.91865290e-01   3.83073250e-01
C     4.536346876713431e+00   2.633765762488882e+00   6.199632824143122e+00 -2.89522507e+00   1.61568422e+00   2.04891960e-01
C     6.239103833509422e+00   9.452592737718831e-01   6.206828396024443e+00 -4.90741980e-01  -2.31347702e+00   3.13688330e-01
C     1.437756667543820e-02   3.568525327377215e+00   3.506317601755488e+00  3.74884100e-02   5.34699000e-03   1.63220074e+00
C     1.797496307453922e+00   5.283575661336461e+00   3.644837940582677e+00 -1.53786057e+00   1.85834157e+00  -2.81708611e+00
C     7.093470692776865e+00   5.318181381924728e+00   5.265366157279259e+00  5.73720470e-01   1.22376009e+00   2.11999581e+00
C     1.770274247609501e+00   3.557750593622498e+00   5.361917587031480e+00  1.95848760e-01  -1.36127416e+00  -8.11125540e-01
C     8.985590696852692e-01   4.430022503206328e+00   4.448241034960257e+00 -5.33368100e-01  -5.49629610e-01   4.54731360e-01
C     2.679669041315567e+00   6.199453905145776e+00   4.428786490681163e+00 -3.73148720e-01   9.80175180e-01   8.74502210e-01
C     9.125989862862575e-01   6.230494965042793e+00   6.250632557651443e+00 -1.10536758e+00  -3.66002190e-01  -2.25457808e+00
C     2.673610817053446e+00   4.446572688171344e+00   6.206109450160656e+00 -2.34524770e-01  -6.09880100e-02   2.93589510e-01
C     3.539072004756603e+00   3.580698074608608e+00   3.552682785884021e+00  8.93703600e-02  -5.24312370e-01   4.74672490e-01
C     5.346197594744256e+00   5.305486165630765e+00   3.569443380158588e+00 -9.69293500e-01   1.28854483e+00  -9.08503810e-01
C     3.541535570784016e+00   5.366205529724317e+00   5.346792214296419e+00  7.36431800e-01  -1.03471758e+00   1.76431400e-02
C     5.382130031330319e+00   3.563552914670299e+00   5.300879481267648e+00 -2.04588032e+00  -7.41025510e-01   5.69261650e-01
C     4.412101601107499e+00   4.451790696879780e+00   4.473266307878194e+00  1.35623085e+00   7.37030000e-02  -8.25914920e-01
C     6.238412183988496e+00   6.255332291266656e+00   4.374787216079881e+00 -1.21156113e+00  -2.23729566e+00   2.09712758e+00
C     4.434673188705464e+00   6.227320983258736e+00   6.255896771106910e+00  3.73578140e-01   2.18306090e-01  -1.52974302e+00
C     6.171940897563519e+00   4.434944090691512e+00   6.202387480076824e+00  1.72978124e+00   1.49324045e+00   3.04320300e-02
