64
Lattice="7.10842262195238 0 0 0 7.10842262195238 0 0 0 7.10842262195238 " PBC="1 1 1" Properties=species:S:1:pos:R:3:force:R:3 Energy="-509.54193741"
C     7.069411312324535e+00   7.066364571305377e+00   4.127917882814960e-02  1.88350547e+00   1.40607743e+00  -1.36865415e+00
C     1.774083011533524e+00   1.716159745477549e+00   1.918492180911800e-02  7.48030850e-01   1.46062814e+00  -6.04848170e-01
C     6.836539671630239e-02   1.742041156815838e+00   1.807623392823732e+00 -2.89357700e+00   1.31338025e+00  -1.03379760e-01
C     1.763062610693059e+00   7.079254416210675e+00   1.782791469001059e+00  2.32902030e-01   8.35486900e-01   4.96097060e-01
C     8.818339464395760e-01   8.500393937448399e-01   9.165165090763656e-01  5.77455430e-01   1.06391690e-01  -5.02593250e-01
C     2.692979775924196e+00   2.687225934318664e+00   9.120408329421350e-01 -1.46205040e-01  -1.94502025e+00  -6.45231570e-01
C     9.022293615366537e-01   2.662150262684351e+00   2.682748338910325e+00  5.21640470e-01  -7.04922140e-01  -4.44499380e-01
C     2.709169066272794e+00   9.477082675329256e-01   2.683361795782432e+00 -3.06804880e+00  -2.70163238e+00  -4.39395100e-02
C     3.626043839849208e+00   1.891359331771260e-02   7.073493821603654e+00 -4.43892506e+00  -9.60765780e-01   1.11220977e+00
C     5.352378012791214e+00   1.809867877265997e+00   2.802858147488620e-02  1.78432040e-01  -1.28311334e+00  -1.17527296e+00
C     3.555422087624864e+00   1.820394811408181e+00   1.837818195007836e+00 -1.03157110e-01  -1.80428897e+00  -2.07443278e+00
C     5.333485318236004e+00   7.094304724002870e+00   1.781703738171747e+00 -7.14189780e-01   1.17488515e+00   6.94856720e-01
C     4.384360626411818e+00   8.755619719092714e-01   9.278557937555634e-01  3.19642952e+00   1.18120023e+00  -1.00695393e+00
C     6.244418374597038e+00   2.732713583674757e+00   8.597389074940561e-01 -2.40949530e-01  -2.34354349e+00   2.32907247e+00
C     4.449272822503550e+00   2.642474788630227e+00   2.672561258453603e+00  1.26565156e+00   2.06407411e+00  -1.96549440e-01
C     6.216528265194790e+00   8.703488680124419e-01   2.704249398061718e+00 -6.06074390e-01   2.25276885e+00  -1.68313753e+00
C     7.819271990422619e-02   3.579127326462267e+00   7.406514322569700e-02 -3.40354043e+00  -1.41070174e+00  -3.72998681e+00
C     1.663111648907049e+00   5.293548849356547e+00   7.051038172378621e+00  5.02532146e+00   6.59414230e-01   2.40844664e+00
C     7.078747017004059e+00   5.424251273902034e+00   1.750573680823529e+00  1.53739556e+00  -5.39192615e+00   1.00067415e+00
C     1.798292450787362e+00   3.513268217393324e+00   1.717397464024143e+00 -7.39824920e-01   2.29290049e+00   3.44576570e+00
C     9.086608490705512e-01   4.432960414275175e+00   8.943923966823299e-01 -9.51201320e-01   6.44428560e-01  -2.37081130e-01
C     2.574571368299999e+00   6.128430455959177e+00   9.721272630856019e-01  1.93748278e+00   2.48597921e+00  -4.05362006e+00
C     8.357597100488792e-01   6.194734410115680e+00   2.612579393206877e+00  1.79641883e+00   2.94579941e+00   3.27753244e+00
C     2.676783661489883e+00   4.429910687718515e+00   2.646636983326916e+00  1.74615520e-01  -2.02388190e-01   1.54378980e-01
C     3.608099977545315e+00   3.555376309383192e+00   9.329683845565460e-02 -2.44795975e+00  -1.25159563e+00  -5.88970293e+00
C     5.305989655204940e+00   5.347824997018878e+00   4.423784649104600e-02  9.87577410e-01  -1.40326051e+00  -2.50358867e+00
C     3.533568379627293e+00   5.322984827425967e+00   1.764910587321580e+00  2.79010510e-01  -2.48308160e-01   4.44505830e-01
C     5.300053553643431e+00   3.579825160310872e+00   1.779051088102642e+00  2.19029753e+00  -3.07104420e-01  -8.74676420e-01
C     4.445551207840849e+00   4.427036183779440e+00   8.115612888501014e-01  5.98229870e-01   1.69827633e+00   5.32353753e+00
C     6.238917379584100e+00   6.193472380763725e+00   9.035766919600486e-01 -3.06502641e+00   2.07818390e+00  -1.06149594e+00
C     4.426975904355623e+00   6.271354746936362e+00   2.671248546048368e+00 -7.80628300e-02  -2.44543555e+00  -4.57380360e-01
C     6.226005640737132e+00   4.499349242997759e+00   2.611988327866023e+00 -1.08189019e+00  -1.44346693e+00   1.92605962e+00
C     7.045586723071342e+00   2.860678057079700e-02   3.546409674006097e+00  3.25813148e+00  -5.80019100e-01   4.36525350e-01
C     1.797547630265239e+00   1.746145702205078e+00   3.602758993125552e+00 -2.73555100e-01   1.11273162e+00  -2.07825394e+00
C     3.796651171877720e-02   1.729102690299819e+00   5.314803672748383e+00 -1.31912458e+00   1.67654488e+00   1.83243801e+00
C     1.745739171515440e+00   7.084373475676242e+00   5.306839467129160e+00  1.20137131e+00   5.51653960e-01   1.50153284e+00
C     9.202140972706109e-01   8.916535925310701e-01   4.490489020707287e+00 -1.21781364e+00  -8.25012750e-01  -2.87956439e+00
C     2.695285463885219e+00   2.633445954555208e+00   4.360071075235052e+00 -2.27874000e-02   1.75755993e+00   3.67092448e+00
C     9.142143753266523e-01   2.618871484573196e+00   6.227563096133173e+00 -2.69334900e-01   1.40907900e+00   3.76863000e-01
C     2.628855832816796e+00   8.991229097674875e-01   6.187132094292042e+00  2.41555636e+00  -1.12112112e+00   7.53538400e-01
C     3.510731576781377e+00   1.951453936600740e-02   3.556051111942508e+00  1.51456047e+00  -3.84153300e-02  -9.37875440e-01
C     5.307146835323249e+00   1.822760992045700e+00   3.606819679547227e+00  7.87949030e-01  -2.50454163e+00  -2.56943118e+00
C     3.592120670000913e+00   1.805090306423095e+00   5.301281604735261e+00 -2.40599520e+00  -1.45260500e+00   7.24400000e-02
C     5.315610265463074e+00   7.095639259265549e+00   5.354218454491758e+00  5.03017870e-01   5.49283820e-01  -1.17665468e+00
C     4.395067261477836e+00   8.796803787226208e-01   4.390243841309035e+00  1.89328810e+00   6.48301690e-01   3.49528028e+00
C     6.205295393602214e+00   2.667030408065660e+00   4.442557851075567e+00  1.74120350e+00   1.93397500e-01   2.25984240e-01
C     4.456514243710771e+00   2.633076529831647e+00   6.192466610047221e+00  7.80301250e-01   1.50094953e+00   1.29925550e+00
C     6.273691285451556e+00   8.431275900945092e-01   6.228893863931863e+00 -2.72784735e+00   1.42306918e+00   5.05219580e-01
C     2.165588059605620e-02   3.565104825496697e+00   3.549229869596356e+00 -5.42333040e-01   5.68570560e-01  -1.04157898e+00
C     1.789641500458822e+00   5.382465691046436e+00   3.566486347432894e+00 -1.29434283e+00  -2.76803933e+00  -2.55023443e+00
C     1.908256052339000e-03   5.372111136152786e+00   5.373008929929693e+00 -8.35480770e-01  -5.35920240e-01  -2.76075933e+00
C     1.786888763799227e+00   3.527105970454999e+00   5.336919752624858e+00  1.21175085e+00   3.54726690e-01  -1.18487300e+00
C     9.164137212852804e-01   4.474705621290291e+00   4.394604076659917e+00 -8.83674560e-01  -8.05690760e-01   2.96482013e+00
C     2.645017471401401e+00   6.226800717807178e+00   4.404261082041865e+00  1.77567270e-01   7.64802440e-01   1.71965930e+00
C     8.679481404409893e-01   6.227254661675691e+00   6.225619724473091e+00 -2.56767540e-01  -4.38569600e-01   8.17054200e-02
C     2.705575403217253e+00   4.439318542887634e+00   6.219643957913362e+00 -2.20479830e+00  -6.90369420e-01   5.52037000e-03
C     3.593671585648144e+00   3.524738794638313e+00   3.516218568201755e+00 -2.33471427e+00   1.36140155e+00   2.36075990e-01
C     5.311662958382188e+00   5.316021700964320e+00   3.555142655531672e+00  7.19765600e-01   2.45400670e+00  -7.87872690e-01
C     3.537568289035568e+00   5.342000782029408e+00   5.312981855115103e+00  6.42817100e-02  -7.93988400e-01   1.09630660e-01
C     5.362804789258682e+00   3.548000396820001e+00   5.301152018190899e+00 -1.59787195e+00   1.05633666e+00   1.42200063e+00
C     4.395414365754371e+00   4.466948057516633e+00   4.384126048465358e+00  2.13101128e+00  -1.35017189e+00   1.76911915e+00
C     6.245068582014090e+00   6.312574570435634e+00   4.431525437000875e+00 -2.23189546e+00  -4.06321761e+00   1.57410975e+00
C     4.428074013481960e+00   6.172085767216514e+00   6.230073577749879e+00  9.26846320e-01   2.32007496e+00  -5.15561170e-01
C     6.187875137708511e+00   4.474487108378952e+00   6.213406459232765e+00  1.93347687e+00  -4.92912820e-01   5.08357800e-01
