64
Lattice="7.10842262195238 0 0 0 7.10842262195238 0 0 0 7.10842262195238 " PBC="1 1 1" Properties=species:S:1:pos:R:3:force:R:3 Energy="-505.79338414"
C     5.071909298328340e-02   7.037253234897012e+00   7.078610535289755e+00 -1.51673431e+00   3.44425552e+00   4.18814900e-02
C     1.746964379238224e+00   1.822803358244516e+00   7.056457420531430e+00  1.20740702e+00   4.10473780e-01  -8.83577500e-02
C     6.058067876823559e-02   1.658654810092761e+00   1.731154109983724e+00 -3.19281150e+00   3.56582055e+00   1.54035696e+00
C     1.785914270142252e+00   6.340499724361399e-03   1.769126948198633e+00  2.19213310e-01   6.01756950e-01   6.56570590e-01
C     9.144002605781654e-01   9.526848742091877e-01   8.358081184069214e-01  1.36289141e+00  -4.30783378e+00  -8.67395070e-01
C     2.605608234227669e+00   2.664611198595396e+00   9.110729501181959e-01  2.01429476e+00   7.70975350e-01   2.10609790e-01
C     7.433160244760770e-01   2.611730647546048e+00   2.699747207511115e+00  5.76144941e+00   1.04213977e+00  -1.70975462e+00
C     2.695155877340857e+00   9.257453741639116e-01   2.702858421923436e+00 -3.52583600e-01  -1.37133922e+00  -2.08024843e+00
C     3.619564512631077e+00   7.086536071089925e+00   2.822463177074580e-02 -2.09898211e+00   1.50471794e+00  -1.78218694e+00
C     5.320975489603971e+00   1.874550684559782e+00   7.044587989693233e+00  8.77881520e-01  -4.11513752e+00   7.74966670e-01
C     3.621921878824548e+00   1.770718381854799e+00   1.769636693184714e+00 -3.60590736e+00   1.09681741e+00   1.52024941e+00
C     5.280758095862571e+00   7.073190078705101e+00   1.707531115596036e+00  4.68285420e+00   1.47685772e+00   9.88498040e-01
C     4.441665815120984e+00   9.618827465741104e-01   8.672243608498210e-01  1.37101727e+00  -2.91024150e+00  -4.37215150e-01
C     6.175246029744914e+00   2.686369298308727e+00   8.646299998461996e-01  1.27913085e+00  -1.94181438e+00   1.05815546e+00
C     4.465961977130786e+00   2.705756810162515e+00   2.684984364329673e+00 -8.43222590e-01  -3.00572001e+00  -4.66821330e-01
C     6.352012454552526e+00   7.724049693531886e-01   2.611976527884474e+00 -5.81693852e+00   2.18204267e+00   2.23744360e-01
C     7.079908746512847e+00   3.566615365303448e+00   7.247058186357860e-02  1.58356860e-01   2.48229110e-01  -2.67760469e+00
C     1.734268523186225e+00   5.399942601068421e+00   7.091097332632500e+00  2.56631664e+00  -4.63755326e+00   2.45450025e+00
C     3.892152829777420e-02   5.306072397244237e+00   1.759035404941924e+00 -2.65794097e+00   3.09091690e-01   1.07771838e+00
C     1.732543237932125e+00   3.593068720325742e+00   1.787485018288593e+00  1.55933881e+00  -2.85383625e+00   1.39565241e+00
C     9.190735508612320e-01   4.441098634080134e+00   9.415083013237615e-01 -1.96750359e+00   6.72331330e-01  -2.37930044e+00
C     2.639310829722065e+00   6.100253734956890e+00   9.693935769986285e-01  1.37431177e+00   5.00684870e+00  -2.52300295e+00
C     8.557602522694160e-01   6.240667970822727e+00   2.637380253222699e+00  1.58505635e+00  -1.66732057e+00   1.28090433e+00
C     2.702564772985004e+00   4.383615237215884e+00   2.692235239738977e+00 -1.58464292e+00   8.94704410e-01   6.51025580e-01
C     3.597035291231928e+00   3.550031984004797e+00   9.450903776504320e-02 -3.50461873e+00   3.41359090e-01  -2.35713890e+00
C     5.329542987050953e+00   5.349095129972619e+00   1.038796447996320e-02  1.28473045e+00  -5.75121790e-01  -1.14273813e+00
C     3.574833625947108e+00   5.301328235987649e+00   1.809008611139691e+00  6.53155400e-01  -1.15429305e+00   7.53373260e-01
C     5.292831396261510e+00   3.495909022849927e+00   1.778771229504092e+00  1.53185374e+00   2.51237071e+00   3.93004760e-01
C     4.525564465862284e+00   4.441505520190903e+00   9.087182851253208e-01 -3.32743730e+00   2.36775820e-01   2.30622550e-01
C     6.273319657116982e+00   6.184195533823494e+00   8.024676259607878e-01 -1.71860773e+00   4.79899670e-01   2.92014197e+00
C     4.515395938388600e+00   6.242119652890183e+00   2.667047041774591e+00 -2.20607074e+00  -1.14349117e+00   1.92254660e-01
C     6.109788830890906e+00   4.337469276840952e+00   2.698347345844558e+00  3.95724684e+00   3.07353414e+00   9.24988000e-02
C     7.063931429326777e+00   7.036153704086151e+00   3.571189706343644e+00  4.51371440e+00   2.85392951e+00  -3.02219441e+00
C     1.779561188509853e+00   1.815230897795882e+00   3.614677045574470e+00 -1.57805895e+00  -2.51201079e+00  -4.10144278e+00
C     6.247912519735900e-02   1.697199663075901e+00   5.222131451388347e+00 -3.88265796e+00   3.15525574e+00   4.45012406e+00
C     1.758263714582297e+00   5.924728085317599e-02   5.336625748265294e+00  2.05262841e+00  -1.58716804e+00  -1.32254667e+00
C     8.815469083341804e-01   8.986382575132560e-01   4.384591863399646e+00  1.71895894e+00  -2.23548490e+00   7.63569620e-01
C     2.635083450789951e+00   2.621672060917023e+00   4.435097916957008e+00 -9.01601300e-02   3.26439494e+00   7.41172710e-01
C     7.868676949316143e-01   2.708515660065563e+00   6.162918034563500e+00  3.37196101e+00  -1.47580825e+00   1.16134914e+00
C     2.705387811944311e+00   9.718987272983690e-01   6.149038839397951e+00 -2.10588645e+00  -2.64134187e+00   2.31736863e+00
C     3.594178487265176e+00   7.104603193442047e+00   3.519234103245612e+00 -1.19496278e+00   1.28663984e+00   9.20868590e-01
C     5.355606231839861e+00   1.872673847735423e+00   3.583689156678652e+00 -1.22454959e+00  -4.11343746e+00  -1.54805391e+00
C     3.553543758031756e+00   1.823980228693482e+00   5.231203362504444e+00 -1.92602419e+00  -3.60448190e-01   5.31813729e+00
C     5.328548163305284e+00   5.518886912673940e-02   5.264775660612216e+00  1.86253800e-01  -9.27182480e-01   1.53565711e+00
C     4.329284923373189e+00   9.622523845503503e-01   4.440611209541081e+00  6.42586553e+00  -2.69658995e+00  -2.76863224e+00
C     6.205829378309429e+00   2.598893618220817e+00   4.504627033540431e+00  1.91588420e-01   3.23387296e+00  -1.30876050e+00
C     4.367161868966954e+00   2.656800179483635e+00   6.232798875898161e+00  1.87013771e+00   2.63636147e+00  -1.19723236e+00
C     6.281647813974348e+00   8.324488911293880e-01   6.140556856275088e+00 -1.29813636e+00   1.93309816e+00   1.33122229e+00
C     7.073931202847461e+00   3.498380905731805e+00   3.533868497230310e+00 -1.91680331e+00   1.55790587e+00   2.84676866e+00
C     1.788875283584613e+00   5.359724283232080e+00   3.580146318844844e+00 -2.63714730e-01  -1.10901229e+00  -1.15169057e+00
C     6.226978215120000e-05   5.402828123062557e+00   5.353415913577961e+00  2.99514010e-01  -3.14047711e+00   1.12432989e+00
C     1.763171227390693e+00   3.574777824829541e+00   5.299195780285875e+00 -6.63159280e-01   4.82533600e-02   2.53782962e+00
C     8.634440306162788e-01   4.485572551286390e+00   4.519406865851935e+00  8.68099800e-01  -6.81118330e-01  -3.85529754e+00
C     2.706506037906663e+00   6.231690672811703e+00   4.383982813749565e+00 -1.04155290e+00  -3.92172900e-02   2.64274326e+00
C     9.088907354580820e-01   6.196771115364762e+00   6.240155666804504e+00  7.77217900e-02   2.72257984e+00  -1.74389694e+00
C     2.618949321800885e+00   4.452887242153142e+00   6.280457295353950e+00  2.01746209e+00  -1.07084580e-01  -1.36140188e+00
C     3.537611650413550e+00   3.434102354432420e+00   3.591248466545438e+00  4.77019800e-01   5.11218278e+00  -1.31403432e+00
C     5.345299943135802e+00   5.333156980195187e+00   3.639991915629945e+00  5.22946200e-02  -5.38276740e-01  -2.79628270e+00
C     3.567413285742543e+00   5.305198914272690e+00   5.364349307325557e+00 -1.38262968e+00   1.92407311e+00  -5.04355430e-01
C     5.276121200703319e+00   3.636783244743503e+00   5.406703492906528e+00  1.46829567e+00  -3.55967725e+00  -9.91420630e-01
C     4.427647650293213e+00   4.467673543129230e+00   4.493281706702007e+00 -8.80391700e-02  -1.41278144e+00  -3.25886340e-01
C     6.316801736115070e+00   6.255690626850930e+00   4.455872495316638e+00 -5.51094898e+00  -1.91404091e+00   5.57893900e-01
C     4.499606781149282e+00   6.240473697632522e+00   6.176453892916505e+00 -1.64266046e+00  -3.31472050e-01   1.69622818e+00
C     6.176418421887631e+00   4.442614789540754e+00   6.273732158881622e+00  1.17804455e+00   1.48084002e+00  -5.62469600e-01
