64
Lattice="7.10842262195238 0 0 0 7.10842262195238 0 0 0 7.10842262195238 " PBC="1 1 1" Properties=species:S:1:pos:R:3:force:R:3 Energy="-512.25410433"
C     1.683942668142280e-02   6.098671186829000e-02   7.106658664926846e+00 -1.19347333e+00  -1.70807277e+00   2.50204970e-01
C     1.782397449135233e+00   1.725463177918378e+00   1.483193704930860e-02 -1.59673860e-01   2.54050151e+00  -9.10462760e-01
C     7.100427563826607e+00   1.819163063936587e+00   1.843509553578540e+00  4.08152000e-02  -1.09177856e+00  -2.29408798e+00
C     1.768449657691400e+00   4.162550117819600e-02   1.779818371240244e+00 -3.24897560e-01  -1.23234262e+00   4.86773700e-01
C     8.617212333100955e-01   9.220155137309713e-01   8.940115984825766e-01  9.37384360e-01  -4.13584160e-01   1.11408887e+00
C     2.709157195207018e+00   2.671175471463834e+00   8.292783213881894e-01 -2.55108350e-01  -9.83023120e-01   1.73700393e+00
C     9.480535236195790e-01   2.646508178709041e+00   2.654596284134530e+00 -1.05079831e+00   1.66244413e+00   4.71492590e-01
C     2.667237476416580e+00   8.744285339225124e-01   2.719669841419736e+00  2.07270570e-01   1.57904755e+00  -1.66442506e+00
C     3.533438793082931e+00   7.093775075433454e+00   7.093788581436431e+00  8.58285670e-01  -4.35326360e-01   4.43038280e-01
C     5.366635944713958e+00   1.699913445579539e+00   3.831390033221660e-02 -1.19777265e+00   2.27943881e+00  -8.12590580e-01
C     3.565678119781000e+00   1.769705076210318e+00   1.811299869002795e+00 -1.35420330e-01  -1.84314520e-01  -1.44257110e+00
C     5.352293351477810e+00   1.525794481692520e-02   1.811967989644849e+00 -1.39788370e+00  -2.43642021e+00   2.84850520e-01
C     4.445343215394988e+00   8.176603865422876e-01   9.398802592911030e-01 -2.90726980e-01   1.89215770e+00  -1.18738626e+00
C     6.204236096463381e+00   2.678355120478487e+00   8.984793131834727e-01  5.35164820e-01  -4.85823820e-01   2.47326090e-01
C     4.424995782150595e+00   2.698987601469942e+00   2.640330959452261e+00 -3.12209940e-01  -1.21300121e+00   1.45304136e+00
C     6.179740329946409e+00   8.848710910881972e-01   2.704364554508162e+00  7.48503090e-01   1.86347336e+00  -7.05483540e-01
C     7.103493995176422e+00   3.571233067721626e+00   7.086064285080636e+00  6.27800880e-01  -1.16577890e+00   1.24111397e+00
C     1.715930072342697e+00   5.316815285265617e+00   7.043529900986246e+00  1.55277219e+00   6.64693340e-01   2.09606023e+00
C     9.302081840532000e-03   5.346358742685051e+00   1.748679072942620e+00  7.18856900e-02   1.16003710e-01   1.05972089e+00
C     1.859672329510764e+00   3.532138591501507e+00   1.773164674415246e+00 -2.30145283e+00   5.04001770e-01  -1.54168907e+00
C     9.170891636026328e-01   4.444088578802558e+00   8.749038030588856e-01 -1.00596266e+00  -4.86712470e-01   5.78574700e-02
C     2.591273247003724e+00   6.217275644749058e+00   8.485088792705278e-01  1.38299234e+00   6.14652750e-01   6.46594060e-01
C     8.972177814211014e-01   6.263072865910252e+00   2.700511647279670e+00 -1.37523974e+00  -1.17011104e+00  -1.34899477e+00
C     2.660078512911753e+00   4.458679255988144e+00   2.638337899918066e+00 -3.55552140e-01  -6.35081430e-01   1.00432657e+00
C     3.595491981596900e+00   3.574879901778364e+00   7.053163875078906e+00  1.04945390e-01  -8.78886110e-01   1.55722537e+00
C     5.384202065439823e+00   5.354720806718314e+00   7.087570844170718e+00 -1.40871445e+00  -9.72987850e-01   9.74106790e-01
C     3.501610830801881e+00   5.353686246890200e+00   1.766559101611385e+00  1.35654694e+00  -2.60415640e-01  -3.95037940e-01
C     5.287297489251841e+00   3.555312760084969e+00   1.762415459897734e+00  1.13424452e+00   7.60022540e-01  -5.65444230e-01
C     4.458143849596405e+00   4.468600126017747e+00   8.549305571812096e-01 -6.47105200e-01  -1.76304370e-01   5.58587200e-01
C     6.224314191574702e+00   6.228298391368986e+00   9.085255757880927e-01  5.57015580e-01   1.00172609e+00  -9.51298440e-01
C     4.405898578276608e+00   6.181664011275833e+00   2.727974753735134e+00  1.11649913e+00   9.36151120e-01  -1.68132412e+00
C     6.195051801185663e+00   4.446306975333808e+00   2.621731060824769e+00  1.24156903e+00  -2.92502520e-01   7.98998270e-01
C     7.086747475578644e+00   7.973098255919420e-02   3.569532235441338e+00  8.09631400e-01  -2.76549566e+00  -9.76763790e-01
C     1.796678909936849e+00   1.820124264843264e+00   3.585226139817548e+00  3.58643470e-01  -1.78958062e+00  -2.08898960e-01
C     7.089454078575435e+00   1.805955117119044e+00   5.303641885382007e+00  7.64539240e-01   4.93843600e-02   2.14048920e-01
C     1.722113547011382e+00   1.910281952785700e-02   5.355919357856273e+00  9.05372810e-01  -4.43643620e-01  -2.12187079e+00
C     8.778615466268413e-01   9.173717944860040e-01   4.399829407043653e+00 -4.95684400e-02   7.81138320e-01   2.53252730e+00
C     2.717528002600104e+00   2.667365072602609e+00   4.503298185015848e+00 -9.35569370e-01  -2.54108770e-01  -2.39040599e+00
C     8.752575892526829e-01   2.659198348022944e+00   6.223289867875160e+00  9.09572330e-01  -3.37474100e-01  -2.60246140e-01
C     2.662139671134647e+00   8.763923778397398e-01   6.183841960882376e+00 -6.76573860e-01   6.75511600e-02   2.32546719e+00
C     3.525810673685183e+00   7.094320717953765e+00   3.586475018587655e+00  6.27040140e-01  -3.15448500e-01   1.14187270e-01
C     5.279763698622260e+00   1.779170154181527e+00   3.566980453889210e+00  5.00603060e-01  -3.54350410e-01   2.28499820e-01
C     3.562586098109753e+00   1.767892712779123e+00   5.372420139284078e+00  8.13176530e-01  -9.60457040e-01  -8.52341210e-01
C     5.412155866308747e+00   7.054289991390366e+00   5.335681252151775e+00 -2.79005631e+00   1.77598905e+00   1.07410300e-01
C     4.422684336367250e+00   8.089416929461790e-01   4.510411014857873e+00  8.18290710e-01   2.45618471e+00  -1.68850047e+00
C     6.207756684934389e+00   2.666030395171478e+00   4.415352496024304e+00 -7.54788500e-02   4.13548440e-01  -5.18045980e-01
C     4.493281280196650e+00   2.616503384661569e+00   6.218679344963829e+00 -5.88662660e-01   1.13433318e+00   4.08651760e-01
C     6.249105952809572e+00   9.262049336862946e-01   6.194012407630167e+00 -2.66209660e-01  -1.89988989e+00   8.83130830e-01
C     7.104431098530418e+00   3.563396173951528e+00   3.502801278338052e+00  2.11963920e-01  -1.28020608e+00   5.47120790e-01
C     1.712097921708255e+00   5.269568656732203e+00   3.560543848291027e+00  2.26353348e+00   2.71985538e+00  -5.04389720e-01
C     6.850813384251200e-03   5.332830206007345e+00   5.323884042887396e+00 -2.95885280e-01  -7.82130130e-01  -1.11438024e+00
C     1.816627773924938e+00   3.502641694250233e+00   5.333108856174049e+00 -1.02473481e+00   1.64351750e+00   7.78008610e-01
C     8.909864670681833e-01   4.364641648811259e+00   4.419938850298728e+00 -1.60954990e-01   1.99044860e+00   9.95334630e-01
C     2.637366036377459e+00   6.261026990795990e+00   4.438454514118172e+00 -1.04672329e+00  -2.64199079e+00   1.34116619e+00
C     8.108830742479272e-01   6.225140474620051e+00   6.206020808130585e+00  2.49462618e+00   3.74327550e-01   1.57811540e-01
C     2.695759240252842e+00   4.459169523896246e+00   6.239968004447336e+00 -1.57459381e+00  -3.70155300e-01  -1.99714635e+00
C     3.534822234293236e+00   3.580484608677330e+00   3.532652672625385e+00  1.01033923e+00  -1.98726780e-01   1.26561860e+00
C     5.375643098099986e+00   5.285734276033476e+00   3.584805179029992e+00 -2.37194589e+00   1.63127001e+00  -1.20268354e+00
C     3.534837304149190e+00   5.357333862873427e+00   5.346704496361287e+00  8.84818230e-01  -2.14603330e-01  -5.89997440e-01
C     5.347702092391779e+00   3.553821199766614e+00   5.294615823591809e+00 -4.17804720e-01  -7.10380200e-01   1.56221306e+00
C     4.422768002501487e+00   4.444665640550849e+00   4.472927662624577e+00  8.08190140e-01  -3.80539100e-02  -1.07623074e+00
C     6.240840705492393e+00   6.234550177979051e+00   4.401081697856617e+00  5.13089590e-01  -1.26605414e+00   1.49997395e+00
C     4.481448599903398e+00   6.204680941550941e+00   6.218991617969524e+00 -4.80536650e-01   4.22364420e-01   1.27078270e-01
C     6.251243455491405e+00   4.429797237293501e+00   6.207907099157028e+00 -1.00790885e+00   9.99827910e-01  -5.55854020e-01
