64
Lattice="7.10842262195238 0 0 0 7.10842262195238 0 0 0 7.10842262195238 " PBC="1 1 1" Properties=species:S:1:pos:R:3:force:R:3 Energy="-508.90679149"
C     2.381563264069080e-02   6.111821768676000e-03   7.069792394861193e+00 -1.57978642e+00   1.25526174e+00   1.42431862e+00
C     1.834333859492191e+00   1.783508282338060e+00   5.661901267365720e-02 -8.64685600e-01  -1.31375670e+00  -9.34783210e-01
C     2.171623110410000e-04   1.919352015711915e+00   1.725741188327047e+00  1.18913440e-01  -2.77694722e+00   1.20276380e+00
C     1.742002202659880e+00   7.084987003632574e+00   1.801413261570221e+00  3.92618270e-01   1.84535968e+00   9.83229650e-01
C     8.330898575970334e-01   9.235864040457652e-01   9.643522836765246e-01  2.66551676e+00  -8.51476500e-01  -3.16935943e+00
C     2.773365159869788e+00   2.724922894651690e+00   8.941317308248545e-01 -2.08355366e+00  -1.59119884e+00  -4.18899670e-01
C     9.494366094087524e-01   2.702071732792081e+00   2.615084188085486e+00 -3.71568550e-01   2.67420130e-01   7.78427340e-01
C     2.642298926254608e+00   9.362237577796011e-01   2.690549974904228e+00  1.12687014e+00  -1.53499440e+00  -5.80242590e-01
C     3.521014763111921e+00   7.074321881754657e+00   1.041925575633644e-01  6.27552740e-01  -3.66789280e-01  -3.59420888e+00
C     5.299881743068705e+00   1.796277994901081e+00   7.088261072007120e+00  8.44155270e-01  -1.40433640e+00  -2.41965890e-01
C     3.558722101741973e+00   1.838965636587157e+00   1.823271803295173e+00  3.37277670e-01  -1.95315445e+00  -1.87335511e+00
C     5.356490022024206e+00   5.947155158683700e-02   1.839244713259218e+00 -5.53912610e-01  -4.21615670e-01  -1.57413557e+00
C     4.400866028314327e+00   8.105191940940094e-01   9.158483884343118e-01  1.55788357e+00   4.60077368e+00   1.06805507e+00
C     6.235520619835133e+00   2.739902047133459e+00   7.785283778507351e-01 -6.84660120e-01  -1.74682658e+00   2.41719669e+00
C     4.471357838573176e+00   2.727819292532435e+00   2.584709045219511e+00  7.18888970e-01  -1.85930965e+00   3.44302225e+00
C     6.253053686395815e+00   1.039471534892541e+00   2.667598371032998e+00 -1.33552193e+00  -3.91090182e+00   1.12226180e-01
C     6.920298215361700e-02   3.524688609174616e+00   7.037780608771190e+00 -2.09188940e+00  -1.41101780e-01   5.13120100e-02
C     1.701313307246095e+00   5.363484212292703e+00   2.875463576129300e-02  1.86600949e+00  -1.59459149e+00  -7.42177580e-01
C     7.092371090881778e+00   5.300057889781228e+00   1.765160590545126e+00 -2.18236800e-02   1.90699598e+00  -5.34644280e-01
C     1.899405355334838e+00   3.602539342866594e+00   1.712365838156802e+00 -2.80470565e+00  -3.02332140e-01   1.97339435e+00
C     8.395317234279559e-01   4.380309323108001e+00   8.553247192154886e-01  2.91782028e+00   2.92305233e+00   8.45857500e-01
C     2.663170747835679e+00   6.199794469673501e+00   9.573939198580327e-01 -1.86359176e+00   5.21029720e-01  -1.24502947e+00
C     8.592058468817824e-01   6.235030991685067e+00   2.684407373665607e+00  2.37138500e-01  -2.38079274e+00  -5.22431710e-01
C     2.749663617412148e+00   4.502747566599703e+00   2.648252230198858e+00 -1.88388325e+00  -2.66523930e+00   7.92502190e-01
C     3.622791452163652e+00   3.599242954045021e+00   2.559266721146460e-02 -2.15638044e+00   3.50848420e-01  -7.21957890e-01
C     5.403189373100106e+00   5.378619963324790e+00   7.044344526218498e+00 -1.71771794e+00  -1.87320755e+00   3.62563062e+00
C     3.586630835211486e+00   5.354652210440031e+00   1.803021044598413e+00  3.51356770e-01   1.33141575e+00  -5.27164160e-01
C     5.368565028444573e+00   3.608089172742933e+00   1.745621740373758e+00 -6.84711310e-01  -6.85961260e-01  -1.66726754e+00
C     4.464823349995515e+00   4.489511754765489e+00   8.778299141461823e-01  1.29146043e+00   6.19568380e-01   1.06933160e-01
C     6.201322922705253e+00   6.294864646320167e+00   8.779657561024505e-01  1.68042847e+00  -2.01210648e+00   2.36005800e-01
C     4.427463115641998e+00   6.287632039556995e+00   2.719282005881589e+00  1.19178311e+00  -1.40808747e+00  -4.87456580e-01
C     6.210056543988864e+00   4.465033759305067e+00   2.600567865000505e+00  3.21324200e-02  -6.19652960e-01   3.22500701e+00
C     7.103569344456195e+00   2.251763467027880e-02   3.552327151500343e+00 -6.62360120e-01   2.85899360e-01  -2.45378630e-01
C     1.813435096989391e+00   1.795472041944425e+00   3.537048521173593e+00 -2.05318558e+00  -9.52703600e-01   3.10779450e-01
C     1.124573783751860e-02   1.706709737362295e+00   5.274074827999473e+00 -1.11900959e+00   2.36538958e+00   1.93185073e+00
C     1.637264500165788e+00   7.051275309357224e+00   5.301764764220743e+00  5.47821106e+00   9.46233560e-01   3.13383150e-01
C     8.689021618408196e-01   8.732818742696802e-01   4.445990579442991e+00  4.06267930e-01  -1.91003600e-02  -1.95787504e+00
C     2.696428213905611e+00   2.590940572825108e+00   4.408201138531679e+00  6.24012970e-01   3.53121270e+00   1.35193216e+00
C     9.375892857649031e-01   2.557543852756051e+00   6.235605778738121e+00 -1.46737070e-01   2.28573414e+00  -1.36957998e+00
C     2.652098100088957e+00   8.260025469922148e-01   6.201053229151050e+00 -7.90799110e-01   7.38189120e-01   2.40359158e+00
C     3.525448428468468e+00   9.429891279239599e-03   3.596186119065742e+00 -4.56916310e-01   6.68655330e-01   3.91867600e-02
C     5.291346020270835e+00   1.717295387075320e+00   3.593198591207009e+00  1.46104346e+00   3.54747612e+00  -9.93150100e-01
C     3.524486161298398e+00   1.784665249203691e+00   5.390700656483254e+00  6.12767020e-01  -1.66885086e+00  -1.21123072e+00
C     5.353926511574755e+00   7.010791065430669e+00   5.424402541135388e+00 -1.71346745e+00   3.74158310e+00  -3.42107814e+00
C     4.432919896266241e+00   9.019153825095284e-01   4.521967106426980e+00 -3.73418760e-01  -2.15951153e+00  -9.81721090e-01
C     6.192985667066933e+00   2.658271694050201e+00   4.441536655081978e+00  9.71092600e-02  -1.46801216e+00  -6.92069000e-01
C     4.406223433190342e+00   2.681063500580933e+00   6.253969890987307e+00  6.48836630e-01  -1.32768100e-01  -1.39437510e+00
C     6.205198576886129e+00   8.651767797141300e-01   6.126633375636615e+00  9.78471520e-01   5.04343540e-01   3.96380379e+00
C     7.090567612978858e+00   3.478122612107068e+00   3.535336386501340e+00  6.38539100e-01   2.30131170e+00  -3.80769260e-01
C     1.753077054017614e+00   5.236093246424741e+00   3.530025470709259e+00  2.77050570e-01   2.38331931e+00   5.72826380e-01
C     7.064801358087013e+00   5.294910609877861e+00   5.251929887927162e+00  1.86793654e+00  -1.12260743e+00   2.75710301e+00
C     1.825188660538883e+00   3.518555035632723e+00   5.328910763943130e+00 -1.56731013e+00  -1.02242328e+00   5.36761990e-01
C     8.664336199175722e-01   4.323632163537313e+00   4.463619751877497e+00  4.03994740e-01   2.21288146e+00  -1.94573660e+00
C     2.598093778507614e+00   6.188286999715113e+00   4.406850182812748e+00  5.97251330e-01  -4.22007200e-01   1.40901519e+00
C     8.720220485287375e-01   6.187491567223936e+00   6.188796033858932e+00 -1.76549682e+00   2.25506200e-01   1.01598055e+00
C     2.604964637643654e+00   4.480206545219005e+00   6.262204145581862e+00  2.07704922e+00  -1.60876190e+00  -8.88501590e-01
C     3.661230602902434e+00   3.565270380659517e+00   3.547545031266964e+00 -3.52266502e+00  -7.20550010e-01  -1.02985654e+00
C     5.292244809226908e+00   5.323248620989395e+00   3.569562659490152e+00  9.78059360e-01   1.05278000e+00  -9.41106900e-02
C     3.513742278097852e+00   5.277656051315430e+00   5.335948599926514e+00  7.48430900e-02   2.56770393e+00   7.25948000e-01
C     5.275403676524056e+00   3.524204809931099e+00   5.291209965061888e+00  2.28935897e+00   3.39159800e-01   2.60056535e+00
C     4.424428174604389e+00   4.420925072853026e+00   4.468810108821941e+00  5.44130160e-01   6.71319580e-01  -6.95619240e-01
C     6.195415539171128e+00   6.213333029227100e+00   4.481599014126036e+00 -4.70212000e-02  -7.46444990e-01  -2.54214166e+00
C     4.479619389510592e+00   6.223593255352582e+00   6.282418295902129e+00 -2.56590145e+00  -1.56615749e+00  -1.21993900e+00
C     6.245049957946826e+00   4.407829439112879e+00   6.217092816119271e+00 -5.50734810e-01   1.00842425e+00  -2.29038047e+00
