64
Lattice="7.10842262195238 0 0 0 7.10842262195238 0 0 0 7.10842262195238 " PBC="1 1 1" Properties=species:S:1:pos:R:3:force:R:3 Energy="-500.04496944"
C     6.983083073815945e+00   7.033256097773561e+00   7.058560376279331e+00  4.97916888e+00   2.17804606e+00   2.55874112e+00
C     1.688169975990168e+00   1.897335595920573e+00   6.951075126274156e+00  1.75475561e+00  -3.77840230e+00   5.34664981e+00
C     7.099895071888144e+00   1.730661354127706e+00   1.786898857759348e+00  1.84738690e+00   3.84349810e-01  -3.15649320e-01
C     1.901502197839286e+00   1.142880104525146e-01   1.671008964269416e+00 -3.84945835e+00  -4.30564383e+00  -6.42863000e-01
C     8.457014077567588e-01   9.046174361158427e-01   7.645356611759437e-01  8.56051060e-01   5.52823380e-01   2.11460757e+00
C     2.702089290595952e+00   2.670212777788408e+00   9.156157297619592e-01 -3.77204719e+00  -7.76356210e-01  -8.25403250e-01
C     9.512122222950022e-01   2.647671969660388e+00   2.696260170794874e+00 -3.60727869e+00  -6.30870770e-01  -1.89127040e-01
C     2.619150561245257e+00   8.860640976565117e-01   2.680484661726986e+00  2.77195103e+00   1.96655851e+00  -6.09823980e-01
C     3.628200037682532e+00   7.104715080014087e+00   7.036307672520100e+00 -2.90640690e-01   1.54810697e+00   3.28821219e+00
C     5.465599191176920e+00   1.872537934694929e+00   7.073127951091402e+00 -2.90973770e+00  -1.88290820e+00   2.14633580e+00
C     3.525157907235988e+00   1.827704402388327e+00   1.770517284578879e+00  1.82580226e+00  -2.42704475e+00   1.53489529e+00
C     5.386425224614229e+00   6.993431160045009e+00   1.845858602917545e+00 -3.69700731e+00   1.73832372e+00  -1.69967215e+00
C     4.504216806471031e+00   9.163206720331847e-01   9.660457231972872e-01 -4.05444630e-01  -5.42664460e-01  -2.70030122e+00
C     6.316658785736182e+00   2.696085445766874e+00   9.701973974284982e-01 -3.41309999e+00  -3.16693550e-01  -1.22300931e+00
C     4.399069801002479e+00   2.682081639952795e+00   2.725941887034267e+00  8.95940400e-02  -1.41953240e-01  -3.55166871e+00
C     6.209199339305117e+00   7.602698256774556e-01   2.705652813939585e+00  2.09496774e+00   1.93631601e+00  -3.44449400e+00
C     7.080649017644493e+00   3.576578530447640e+00   4.040157297148440e-02  6.78130370e-01  -7.61472850e-01  -7.43518580e-01
C     1.852650700730955e+00   5.361711087354370e+00   7.039793998394079e+00 -3.43247995e+00  -4.55928520e-01   1.83292771e+00
C     4.925219889142020e-02   5.302669382083364e+00   1.754208785982944e+00 -7.78795900e-02   1.46717847e+00   1.03755759e+00
C     1.803677436343143e+00   3.536532307522929e+00   1.882111984784902e+00 -9.12210800e-01   3.99066520e-01  -3.74204567e+00
C     8.474325219174074e-01   4.507032594839266e+00   8.526164812814948e-01  3.67502007e+00  -2.26849532e+00   4.58108690e-01
C     2.737647539815300e+00   6.210612778058879e+00   7.720626988040356e-01  4.32873540e-01   3.73919500e-02   2.28060816e+00
C     9.972847526642702e-01   6.248484036914547e+00   2.565860280716093e+00 -3.39193570e-01  -1.16793435e+00   9.43576470e-01
C     2.698289270031752e+00   4.358853686777151e+00   2.705686863283934e+00  1.90673220e-01   3.00156296e+00  -1.37644300e-02
C     3.520155781322520e+00   3.436380248460999e+00   1.861347571469620e-02  2.22396608e+00   3.69225845e+00  -5.39822720e-01
C     5.419402547748706e+00   5.293018987534452e+00   7.061359175517504e+00 -3.64012847e+00   9.19169020e-01   2.84396343e+00
C     3.584955664336857e+00   5.194789117033197e+00   1.701402589034203e+00 -1.78855783e+00   3.57772915e+00   2.06845030e+00
C     5.298756266515281e+00   3.643494661960176e+00   1.824669177013813e+00  1.53606174e+00  -4.07552271e+00  -3.92024560e-01
C     4.433021120204349e+00   4.323982537688252e+00   8.561628733266128e-01  7.59672360e-01   3.74050703e+00  -2.20708920e-01
C     6.231543457379242e+00   6.138975232242138e+00   9.200957420339880e-01 -2.65977120e-01   6.43979180e-01  -7.42439770e-01
C     4.305264781413721e+00   6.186483095306836e+00   2.704402086979595e+00  3.35403907e+00   1.44401960e-01  -4.58608340e-01
C     6.247633300895386e+00   4.452269591311690e+00   2.668662146478081e+00 -1.85187310e+00   1.81808846e+00   7.70264210e-01
C     3.925860969841460e-02   6.987249675734658e+00   3.434743463068517e+00 -2.62781330e-01   1.65040471e+00   4.98548958e+00
C     1.744167641442611e+00   1.702087059048282e+00   3.554748920002750e+00 -7.56526980e-01   2.22959265e+00   2.51713300e-01
C     7.026015884998185e+00   1.622090150398874e+00   5.210506905709408e+00  1.92936398e+00   5.29390590e+00   1.46347816e+00
C     1.774916189748814e+00   1.181777393101786e-01   5.392045783295636e+00 -1.02087381e+00  -3.31915715e+00  -9.03438610e-01
C     9.236795954663134e-01   8.467107326845725e-01   4.430570065000747e+00 -2.74434661e+00  -9.56967220e-01  -1.69107101e+00
C     2.501520383729497e+00   2.604736883782909e+00   4.468095214759049e+00  3.92657747e+00   1.38394469e+00   8.35112630e-01
C     7.605093795197496e-01   2.687526336258585e+00   6.162316022251813e+00  2.57827890e-01   6.44608000e-03   1.94847030e-01
C     2.644186425712897e+00   9.505538401919377e-01   6.217439564974674e+00  2.39937652e+00   2.09836740e-01  -1.83436960e-01
C     3.533276507794517e+00   1.255365916590812e-01   3.614194952352382e+00  1.32325066e+00  -2.96013469e+00  -2.52143770e-01
C     5.352564466716537e+00   1.760510615888253e+00   3.380864107556834e+00  9.69536380e-01   2.56620110e+00   3.25630026e+00
C     3.543681816825673e+00   1.797186664564595e+00   5.324457408255926e+00  1.60299271e+00   2.19637158e+00  -4.52265820e-01
C     5.356801797440319e+00   1.158254911809944e-01   5.332115596281357e+00 -1.30822919e+00  -2.94444035e+00  -1.83029263e+00
C     4.633389996058278e+00   1.115138916576786e+00   4.387624387573564e+00 -8.16845702e+00  -6.95723241e+00   3.11604410e+00
C     6.177234255551729e+00   2.660020223846268e+00   4.286326592953743e+00  1.24502599e+00  -3.57587570e-01   3.38886134e+00
C     4.514044058574728e+00   2.783387467090178e+00   6.224186950809805e+00 -1.70514867e+00  -4.84166486e+00  -3.20468230e-01
C     6.225803903703176e+00   8.381159388947306e-01   6.206598722889590e+00 -2.47504500e-01   2.83041072e+00  -2.05201200e-02
C     7.054838121858594e+00   3.584288183452839e+00   3.562893181966937e+00  3.92914045e+00  -1.76185730e-01  -4.02500520e-01
C     1.946030636647037e+00   5.434577324020977e+00   3.569372438100841e+00 -4.18573226e+00  -1.63040870e+00   8.77985580e-01
C     7.083643085252037e+00   5.283158041507536e+00   5.434609880596577e+00  1.11998724e+00   3.81696142e+00  -3.87896506e+00
C     1.654737145134200e+00   3.588906383460601e+00   5.420099315333919e+00  1.44728818e+00  -2.06108098e+00  -4.22872850e+00
C     9.441627995827482e-01   4.551160331863927e+00   4.534362631623284e+00 -2.57982984e+00  -1.54422958e+00  -2.71150149e+00
C     2.657583456572132e+00   6.291185753277412e+00   4.659105496812616e+00  2.58963486e+00  -9.95524930e-01  -5.50306310e+00
C     8.776728890905066e-01   6.326896264909279e+00   6.195563963035434e+00 -7.07696080e-01  -3.89186242e+00   1.37023825e+00
C     2.618786681091339e+00   4.295671467498447e+00   6.250130347593339e+00  1.56421683e+00   4.17663251e+00   9.35474630e-01
C     3.463110689797020e+00   3.456479171250596e+00   3.629694370285709e+00  1.67694011e+00   1.21184697e+00   7.68885600e-02
C     5.195746266138979e+00   5.356259709131318e+00   3.625469408217285e+00  9.06524090e-01  -1.96487542e+00  -1.02889361e+00
C     3.524966903920189e+00   5.228481334230567e+00   5.400823050294134e+00  1.08119877e+00   2.37528824e+00   1.65901590e-01
C     5.333370375042239e+00   3.627103279156492e+00   5.280430113242884e+00  4.46036970e-01  -3.61817289e+00   1.60722240e+00
C     4.386854616488044e+00   4.357838746195466e+00   4.510059716611992e+00 -1.59763902e+00   3.16762097e+00  -2.68648810e+00
C     6.062015041735993e+00   6.155107655209775e+00   4.517015947903698e+00  4.94755689e+00   1.36074001e+00  -1.74264762e+00
C     4.589639858443190e+00   6.284573498556288e+00   6.250819864587480e+00 -4.39818412e+00  -1.92511235e+00  -1.49273199e+00
C     6.209212916392322e+00   4.423861135731991e+00   6.232885740822577e+00  1.50908895e+00  -5.56410670e-01  -3.46735760e-01
