64
Lattice="7.10842262195238 0 0 0 7.10842262195238 0 0 0 7.10842262195238 " PBC="1 1 1" Properties=species:S:1:pos:R:3:force:R:3 Energy="-513.21884731"
C     1.802319230033140e-02   2.070910978729840e-02   7.052226131966876e+00 -1.13478080e-01  -8.51522720e-01   1.43360765e+00
C     1.788036702968131e+00   1.748882160576873e+00   7.101716747352970e+00  6.72818500e-02   1.66944551e+00   1.71603860e-01
C     7.100030203002149e+00   1.790008295066014e+00   1.754531934875249e+00  1.99624610e-01  -4.32279780e-01   5.55510900e-02
C     1.794685850402653e+00   6.317966024656000e-03   1.788976578606948e+00 -5.96346540e-01  -1.51006470e-01  -1.25191968e+00
C     8.893316262822473e-01   8.939678816834635e-01   8.612891833832520e-01  8.70151300e-02  -1.16863740e-01   4.98480300e-01
C     2.682706683553772e+00   2.676069478269252e+00   9.083544049714030e-01 -7.66193840e-01   2.40283280e-01  -9.30200140e-01
C     8.899706734757853e-01   2.643600691689009e+00   2.675834047312077e+00 -7.45183200e-01   7.69044250e-01   9.03802900e-02
C     2.663803042027728e+00   9.293361938504047e-01   2.644731712812077e+00  2.01121680e-01  -1.10859544e+00   1.04481918e+00
C     3.545300404656247e+00   6.971158979207800e-03   7.030372637221983e+00 -1.03359240e-01  -4.59923550e-01   3.39084404e+00
C     5.295106162584137e+00   1.779643219706888e+00   7.096303967864745e+00  6.68585200e-01  -1.06574222e+00   4.12390010e-01
C     3.552947148121259e+00   1.797382714860455e+00   1.772439899644911e+00  3.66175800e-01  -5.94802660e-01   2.99079240e-01
C     5.380416332805090e+00   7.073908242642399e+00   1.792454018952651e+00 -1.00951925e+00   1.22287375e+00  -9.68623040e-01
C     4.442460536769899e+00   8.502857716728491e-01   9.129485785107089e-01 -1.57314930e-01   1.24212572e+00  -1.25190965e+00
C     6.176644398642720e+00   2.677392000297703e+00   8.476415806266616e-01  1.25054016e+00  -8.58213240e-01   7.92121620e-01
C     4.442269888875232e+00   2.669182483013865e+00   2.682440686379332e+00 -1.54480460e-01  -2.67785390e-01  -1.46095398e+00
C     6.244372596355366e+00   8.849951330629161e-01   2.661367767522342e+00 -7.23315590e-01   2.71336290e-01  -4.40922240e-01
C     7.091277815482822e+00   3.542374577905854e+00   7.095514079943211e+00  9.74772780e-01   4.17407250e-01   3.41961600e-01
C     1.760067832243253e+00   5.313688716660436e+00   6.830618355587779e-02 -2.53730540e-01   5.48995600e-02  -1.84178590e+00
C     7.104549809188171e+00   5.318303931130696e+00   1.755082126786037e+00 -3.56143020e-01   3.21541570e-01   7.89287060e-01
C     1.752892803703304e+00   3.573210417641831e+00   1.803609124401765e+00  1.10007998e+00  -2.41400752e+00   8.19838400e-02
C     8.770358322553022e-01   4.390484959004305e+00   9.353980434080619e-01 -5.46909160e-01   1.72563063e+00  -1.30310080e+00
C     2.665214561507381e+00   6.186293300422882e+00   8.780057765218012e-01  6.13755500e-01   1.48688617e+00   8.79019090e-01
C     8.791844240764234e-01   6.226610994007451e+00   2.641798777639065e+00  9.55295830e-01  -6.97108810e-01   5.91246680e-01
C     2.671153932943295e+00   4.378552121036337e+00   2.687207239167173e+00  1.66636750e-01   3.10669133e+00  -9.03628380e-01
C     3.550089277891114e+00   3.608759781332903e+00   7.430931754269399e-03 -4.99867220e-01  -1.61461388e+00   3.16499480e-01
C     5.343146233250395e+00   5.294565851380790e+00   2.547879028109220e-02 -3.48321910e-01   2.70298974e+00  -1.09368256e+00
C     3.607675320377996e+00   5.332080125252483e+00   1.776107703548378e+00 -1.34732983e+00  -1.66315270e-01   5.41448580e-01
C     5.325606129351319e+00   3.560341187162130e+00   1.744088951204207e+00 -6.12878850e-01  -8.62490430e-01   1.28477180e+00
C     4.468099479812620e+00   4.447385394129489e+00   8.869171794551380e-01 -7.43523260e-01   1.91538790e-01   3.95525890e-01
C     6.233875517588186e+00   6.246011585358859e+00   8.329658156223144e-01  2.98259120e-01  -1.60667916e+00   1.68214893e+00
C     4.483908398466822e+00   6.235272322633016e+00   2.687493068840723e+00 -7.20855500e-01  -6.72870900e-01  -2.22629650e-01
C     6.165937621408251e+00   4.396886946584329e+00   2.673427277581398e+00  1.92887177e+00   1.89944900e+00  -8.36646590e-01
C     1.955718990172740e-02   1.719961045557820e-02   3.537069846441453e+00 -2.16904580e-01  -8.02959860e-01   4.15909500e-01
C     1.791668893674273e+00   1.764919401765629e+00   3.597716775708508e+00 -9.87360170e-01   9.16077450e-01  -2.23459364e+00
C     7.084055373763997e+00   1.775769484800118e+00   5.327792324728099e+00  1.61097202e+00   2.61273490e-01  -7.01229870e-01
C     1.782401572020352e+00   7.101342204565123e+00   5.304980401361353e+00 -4.39146800e-01  -1.55854500e-01   8.19389150e-01
C     8.842544354259121e-01   8.894919212123281e-01   4.440349121999080e+00  3.27633480e-01  -1.62681570e-01   2.71166770e-01
C     2.673636904964462e+00   2.693870887783839e+00   4.387221624347916e+00 -6.34819980e-01  -1.18889461e+00   3.30573261e+00
C     9.369751180505352e-01   2.687338176311833e+00   6.210422272332663e+00 -2.29172411e+00  -1.63032962e+00   7.76930680e-01
C     2.645131988089810e+00   8.910204453283067e-01   6.196600726474561e+00  8.06529530e-01   1.43721040e-01  -5.24977830e-01
C     3.561567674400985e+00   5.636090584832500e-02   3.545477688716389e+00  2.61651930e-01  -1.63265108e+00   2.46986200e-01
C     5.314018476385778e+00   1.773451143846832e+00   3.531558970721072e+00  6.80459370e-01  -2.61294800e-02   8.10739830e-01
C     3.547556831248513e+00   1.798957088302332e+00   5.304194991746068e+00 -3.68675330e-01   1.83514950e-01   8.84460730e-01
C     5.360018856265452e+00   2.208665100682820e-02   5.313346375027057e+00 -1.21871462e+00  -1.38119960e+00   2.24121240e-01
C     4.438088999027052e+00   9.141186248739610e-01   4.461427514341488e+00  4.64913980e-01  -3.42562470e-01  -1.15650337e+00
C     6.198290967205144e+00   2.641034906544320e+00   4.427411081988419e+00 -1.89214280e-01   5.70261550e-01   1.10831259e+00
C     4.407153143784813e+00   2.680304463213569e+00   6.235876893976847e+00 -1.76950100e-02  -5.17214180e-01  -5.32231500e-02
C     6.246236566934782e+00   8.554605611717568e-01   6.178820002469798e+00 -1.16141362e+00   2.25455708e+00   1.01216406e+00
C     7.058899021532948e+00   3.544084793304000e+00   3.547541263802975e+00  1.32392902e+00  -3.49847860e-01   1.05070838e+00
C     1.808721217613164e+00   5.323296602842079e+00   3.539672453215314e+00 -1.43035690e+00  -2.96077200e-02   9.59209760e-01
C     1.201465591232400e-03   5.371754862011072e+00   5.355414375513347e+00 -1.48923680e-01  -1.78629395e+00  -2.89702740e-01
C     1.788253296605363e+00   3.561823293278401e+00   5.373992806704528e+00 -3.05945200e-01   4.37177250e-01  -1.86259465e+00
C     8.565977666225044e-01   4.434008551190493e+00   4.503554372567073e+00  8.16005580e-01   5.17942580e-01  -2.10704501e+00
C     2.670816851542655e+00   6.235427997088395e+00   4.433640334898778e+00  5.25197700e-01  -5.06307650e-01  -4.30545260e-01
C     8.984197446019172e-01   6.202838580576289e+00   6.224450744373232e+00  2.50369860e-01   8.67562770e-01   3.33827680e-01
C     2.630230459583051e+00   4.477825436893982e+00   6.246108970748753e+00  1.30624241e+00  -8.88178390e-01   5.85793100e-02
C     3.535325439530505e+00   3.534399567484250e+00   3.557039680276272e+00  1.71740629e+00   8.24301070e-01  -2.38558660e-01
C     5.353000141938916e+00   5.313465370021715e+00   3.570108657431594e+00 -8.27948420e-01   1.58638120e-01   3.98863520e-01
C     3.554378429015796e+00   5.316787064827815e+00   5.355454324848473e+00 -1.42594500e-01   1.38715729e+00  -7.86350670e-01
C     5.299963703181514e+00   3.527654740681264e+00   5.395886179700318e+00  1.29106274e+00   1.07564285e+00  -2.52409770e+00
C     4.458621109091112e+00   4.428756564221933e+00   4.467833909143537e+00 -1.15167254e+00   6.03533700e-02   1.98866630e-01
C     6.245902684324321e+00   6.210775774189555e+00   4.450477984474545e+00 -4.37123620e-01   8.51270210e-01  -7.67490180e-01
C     4.430606317956109e+00   6.237503727577661e+00   6.241398858836515e+00  1.19003062e+00  -1.22439221e+00  -1.62140535e+00
C     6.210575601008577e+00   4.470074341784909e+00   6.232643983369271e+00  3.25620340e-01  -1.25614116e+00  -1.45940370e-01
