64
Lattice="7.10842262195238 0 0 0 7.10842262195238 0 0 0 7.10842262195238 " PBC="1 1 1" Properties=species:S:1:pos:R:3:force:R:3 Energy="-510.22053256"
C     3.399524925366180e-02   6.310857602036000e-04   5.215677145817840e-02 -2.09583984e+00   6.82044230e-01  -3.08900789e+00
C     1.818346519430228e+00   1.820580696659694e+00   7.082061390134861e+00 -1.46839179e+00  -1.91864633e+00  -1.74929340e-01
C     1.802994530182040e-02   1.804821679132285e+00   1.738300847001646e+00 -1.12072479e+00  -6.29926640e-01   1.75366699e+00
C     1.686325837909861e+00   2.063404484443120e-02   1.783049220405261e+00  3.61309679e+00   1.23688152e+00  -9.12831470e-01
C     8.786480935897444e-01   9.630715591730791e-01   8.096864423840764e-01  7.26865470e-01  -1.90035294e+00   3.34272344e+00
C     2.646983590013867e+00   2.629093467384982e+00   9.023563890488731e-01  1.39270116e+00   2.09406910e+00  -6.38275690e-01
C     8.794326501943137e-01   2.681248888242862e+00   2.702540817600775e+00  9.08720900e-02  -7.85069800e-02  -1.39785128e+00
C     2.686101595112858e+00   9.326256875020357e-01   2.690115508113693e+00 -1.94086768e+00  -1.77560361e+00   2.70792900e-02
C     3.563792042007236e+00   7.035230817577396e+00   7.086639569723272e+00 -1.36035540e-01   1.88337465e+00   5.96837530e-01
C     5.302513778712212e+00   1.794017658676373e+00   7.092950142988403e+00  2.49930810e-01  -1.34926177e+00   1.02665574e+00
C     3.583515568998271e+00   1.764770267059061e+00   1.766141623950912e+00 -2.29576024e+00  -1.21815250e-01   4.61913670e-01
C     5.331764440203929e+00   1.534281938300800e-02   1.795470549175675e+00  1.15020121e+00  -7.60075410e-01   4.19685450e-01
C     4.447049521160693e+00   8.741235825921144e-01   9.613578606478494e-01 -4.13642900e-02  -4.87134680e-01  -3.74049026e+00
C     6.181856436276156e+00   2.630679569724182e+00   8.963076900730629e-01  5.96329530e-01   2.22879028e+00  -9.37050660e-01
C     4.381096580913167e+00   2.703428233080655e+00   2.565608073881536e+00  3.42591218e+00  -1.02021484e+00   3.21068090e+00
C     6.229852292553718e+00   8.736885471277704e-01   2.681439820474436e+00  6.21881780e-01   8.44146110e-01   1.92927150e-01
C     7.102830566093298e+00   3.540618086676453e+00   7.091073590500949e+00  6.41850830e-01  -3.88801280e-01   7.09076980e-01
C     1.708606833191120e+00   5.307356320537861e+00   2.823792452104520e-02  2.82204791e+00   1.31280996e+00  -2.07875389e+00
C     7.096955952387452e+00   5.273229281128825e+00   1.743574727911877e+00  4.03497570e-01   1.38022764e+00   1.48268313e+00
C     1.789610934241556e+00   3.594946054739684e+00   1.750530319445547e+00 -2.09192620e-01  -2.51899762e+00   1.78727814e+00
C     9.202107563119797e-01   4.429404923449103e+00   8.745693517746146e-01 -2.10160300e+00  -5.12506520e-01   7.61848410e-01
C     2.635804671348976e+00   6.226545170013989e+00   8.395160848981920e-01  1.22799690e-01  -1.34325290e+00   2.58322074e+00
C     8.812140919871120e-01   6.258232385527164e+00   2.714184271683882e+00 -2.51750050e-01  -9.92410150e-01  -3.18229048e+00
C     2.685041231710632e+00   4.391938133840512e+00   2.661428757788421e+00  2.53824890e-01   2.45856189e+00  -5.47642780e-01
C     3.557341788237621e+00   3.567168756004415e+00   3.783600107947400e-03 -3.88729250e-01   2.64214270e-01  -1.95719880e-01
C     5.371487798573239e+00   5.359313558573096e+00   6.494965747894000e-03  3.65104000e-03  -1.68585204e+00  -2.60467430e+00
C     3.611915423386600e+00   5.281214456594775e+00   1.769646076302572e+00 -1.70074901e+00   2.72552732e+00   4.77060460e-01
C     5.294736027018313e+00   3.587938145215531e+00   1.747642807093077e+00  1.49236656e+00  -1.41631058e+00  -1.57410360e-01
C     4.499497098188256e+00   4.496072686675297e+00   8.512184678048195e-01 -1.63441049e+00  -1.70554458e+00   6.60835290e-01
C     6.231465620151553e+00   6.188382465830900e+00   8.340081236310849e-01  4.73201650e-01   1.97817547e+00   3.53029942e+00
C     4.505126968903296e+00   6.259503442575846e+00   2.713561858199275e+00 -2.88266398e+00  -1.36384627e+00  -1.02201228e+00
C     6.220195713677127e+00   4.395584683560345e+00   2.639710394157536e+00 -1.08934219e+00   1.16809037e+00   1.11723611e+00
C     3.913933036685100e-02   7.077422717869954e+00   3.598422073400864e+00 -2.18590768e+00   1.77962285e+00  -9.31921530e-01
C     1.772421773167230e+00   1.807436156971921e+00   3.584848113902617e+00 -1.90018700e-01  -5.91618480e-01  -3.98857910e-01
C     7.092867756370237e+00   1.774177411385917e+00   5.310973014882691e+00  7.24393410e-01   1.45218900e-02   2.28344748e+00
C     1.721580486399108e+00   7.102584259249515e+00   5.279640865079386e+00  1.87313643e+00  -5.98688640e-01   3.78250618e+00
C     8.341227824879456e-01   8.899816915308462e-01   4.492745589468005e+00  2.33727016e+00  -1.22687700e-02  -2.57742353e+00
C     2.668682974156357e+00   2.680116018929913e+00   4.462647675084211e+00  9.72176040e-01  -1.47749198e+00  -1.42348548e+00
C     8.821824013164083e-01   2.662673371504957e+00   6.206175345238344e+00  1.27165225e+00   3.79579590e-01  -5.55002160e-01
C     2.674251712436866e+00   8.680523499165986e-01   6.231726214924802e+00  2.68137450e-01   3.80083200e-02  -1.59647498e+00
C     3.508961224127866e+00   3.606813637388000e-04   3.622237634957328e+00  2.43278004e+00   1.32001560e+00  -2.98147095e+00
C     5.335210816742784e+00   1.815435549283112e+00   3.623292240537232e+00  3.68638430e-01  -8.62633900e-01  -3.99741608e+00
C     3.578988925473855e+00   1.770445347341965e+00   5.317110284804346e+00 -2.36709902e+00   3.56153740e-01   9.10338740e-01
C     5.293188594498165e+00   3.669396190134479e-02   5.319912567169602e+00  2.89274851e+00  -9.81153120e-01   5.67433500e-02
C     4.430377995421555e+00   9.508875095497207e-01   4.423664730015000e+00  4.86744800e-02  -2.15696584e+00   1.44616876e+00
C     6.249257362211378e+00   2.674522898759818e+00   4.490169283857839e+00 -2.76560857e+00  -8.40783530e-01  -7.44090100e-01
C     4.372857848012360e+00   2.674467524147608e+00   6.200662408075403e+00  2.33947948e+00  -9.84224420e-01   1.65286917e+00
C     6.237468185464560e+00   9.019120415508970e-01   6.214697917454366e+00 -1.85508025e+00  -3.75284440e-01   5.57793440e-01
C     7.059050857440111e+00   3.512857492734340e+00   3.595699121032046e+00  1.69990830e+00   2.16261285e+00  -1.65046567e+00
C     1.768502686524145e+00   5.405028037694994e+00   3.500522175877628e+00  1.28454870e+00  -4.04469379e+00   1.83314887e+00
C     1.397288417568160e-02   5.321487651453743e+00   5.347659370771833e+00 -1.03201514e+00  -1.96935930e-01  -7.94251700e-02
C     1.841329044939854e+00   3.547515389144638e+00   5.306675973408900e+00 -2.92563200e+00   1.47965275e+00   9.47034890e-01
C     8.490894952301293e-01   4.452180096270904e+00   4.431011071540092e+00  2.30958964e+00   4.23129500e-02  -5.65130000e-02
C     2.693346783784067e+00   6.184123525502353e+00   4.446780111943395e+00 -2.62760071e+00   2.19514885e+00  -8.08850880e-01
C     8.297057508403300e-01   6.205428107852530e+00   6.258460210472135e+00  2.27376531e+00   2.34802660e-01  -1.25521431e+00
C     2.659246898549439e+00   4.447877083722114e+00   6.238701354620678e+00 -2.00492460e-01   3.90532240e-01  -7.24317340e-01
C     3.600189867022232e+00   3.485204875731826e+00   3.517647361148375e+00 -2.81817599e+00   2.84614784e+00   1.83115994e+00
C     5.327841443928403e+00   5.355324596135657e+00   3.558465558769617e+00  1.71598725e+00  -1.53390402e+00   1.00598050e+00
C     3.556907108194409e+00   5.351495288870264e+00   5.280739756132212e+00  3.69459860e-01  -2.36645194e+00   3.15980524e+00
C     5.308077256759981e+00   3.488970846951676e+00   5.373677619245557e+00  1.06760949e+00   3.09762105e+00  -4.59190920e-01
C     4.431761649884537e+00   4.414932956921271e+00   4.510155538148910e+00  1.09542424e+00  -1.09915550e-01  -3.75691502e+00
C     6.278740042617411e+00   6.211802159331657e+00   4.456146525008638e+00 -2.60416158e+00   1.77870990e-01  -9.31313000e-02
C     4.519148972279281e+00   6.163603926262104e+00   6.173542567348257e+00 -2.77652975e+00   2.53686992e+00   7.41623570e-01
C     6.259707383220814e+00   4.424662326045491e+00   6.219349455964216e+00 -1.72466710e+00  -2.02407620e-01   4.52619950e-01
