64
Lattice="7.10842262195238 0 0 0 7.10842262195238 0 0 0 7.10842262195238 " PBC="1 1 1" Properties=species:S:1:pos:R:3:force:R:3 Energy="-508.12097613"
C     2.361474861744960e-02   1.541106024016000e-03   7.107763953560031e+00 -2.31650522e+00  -2.87540630e-01  -1.05477323e+00
C     1.712214784176127e+00   1.755961438664131e+00   8.928676400303400e-03  1.75098104e+00   2.30276597e+00  -2.96843700e-02
C     7.103858941593733e+00   1.786541446270014e+00   1.752030267702593e+00 -5.80701400e-01  -1.27912857e+00   6.33865600e-01
C     1.749581345025776e+00   7.041722726703563e+00   1.781457644580642e+00  1.69034551e+00   3.70106511e+00  -9.08854870e-01
C     8.306837276243896e-01   9.559580184887928e-01   8.508597767994142e-01  1.66614394e+00  -4.21812184e+00   1.20725002e+00
C     2.618304232448120e+00   2.637570972201594e+00   9.482096245803141e-01  1.21118935e+00   6.53742860e-01  -2.90044906e+00
C     8.369407744671922e-01   2.639631490666453e+00   2.628751481172733e+00  1.97110705e+00   2.02094539e+00   1.46872290e+00
C     2.668733159620055e+00   8.905746761458065e-01   2.655850707474281e+00  1.00201873e+00  -1.29981859e+00   3.71051590e-01
C     3.535111191672738e+00   3.713525277759440e-02   2.854685656811040e-02 -4.91075610e-01  -7.16970300e-02  -7.75378450e-01
C     5.360364965362820e+00   1.844017805795870e+00   7.005766476901722e+00  9.44333800e-01  -3.01559565e+00   3.84947369e+00
C     3.616156592658597e+00   1.756292335737092e+00   1.720395654516807e+00 -3.61690575e+00   1.90160494e+00   3.19950952e+00
C     5.219992455937764e+00   7.102523340067662e+00   1.750448572585417e+00  4.66129857e+00   2.03055717e+00  -5.11412150e-01
C     4.443977616325460e+00   9.319627560084947e-01   8.309148935279920e-01  5.31045270e-01  -3.05663680e-01   4.43414220e-01
C     6.253128751338682e+00   2.649701353234172e+00   8.711809088801130e-01 -1.41901564e+00   2.11758010e-01   5.81544900e-02
C     4.416903056250404e+00   2.714048500811840e+00   2.687033438234113e+00  2.07749395e+00  -2.10582310e+00  -9.03487430e-01
C     6.277138941506482e+00   8.777238564806921e-01   2.688151877449144e+00 -3.19277189e+00   4.72651050e-01  -8.94683120e-01
C     7.090799631893175e+00   3.531320767479076e+00   1.078603614668320e-02  8.89323690e-01   1.91089343e+00  -3.18224440e-01
C     1.880668335235006e+00   5.340903739166462e+00   2.941465280156000e-02 -3.40695581e+00  -1.17633177e+00  -2.76113096e+00
C     7.100480663743578e+00   5.342369993500291e+00   1.848699981607211e+00 -7.39282940e-01  -1.45148650e-01  -2.37554832e+00
C     1.697889108985815e+00   3.635656062168650e+00   1.762251468587891e+00  2.52732171e+00  -4.01460220e+00   1.72734678e+00
C     8.595326921538500e-01   4.473375137828506e+00   8.848662573608156e-01  6.23166790e-01   7.52529990e-01  -4.99227000e-03
C     2.720760842123454e+00   6.226164371814236e+00   9.108373059083428e-01 -1.86928265e+00  -7.68717680e-01  -1.87386610e-01
C     8.925849380627426e-01   6.227619537008777e+00   2.618847173767835e+00 -8.20424420e-01  -8.62858220e-01   3.82141568e+00
C     2.646766783123957e+00   4.398447885107456e+00   2.725760764425909e+00 -4.28146470e-01   2.51860276e+00  -1.54307831e+00
C     3.622654543943991e+00   3.443536937270589e+00   7.052954105527390e+00 -4.23637199e+00   2.08768511e+00   1.55543346e+00
C     5.226639755182404e+00   5.314759174022782e+00   2.607938090825600e-03  3.39872047e+00   1.16978685e+00  -9.14400940e-01
C     3.538092108698435e+00   5.275421447580606e+00   1.774706135860393e+00  6.86702120e-01  -7.54747500e-02   1.22589760e-01
C     5.387567050539679e+00   3.508867464033508e+00   1.736474835399020e+00 -1.71886004e+00   1.62071178e+00   2.21897873e+00
C     4.436231923617576e+00   4.333575354013942e+00   8.121317397653564e-01  3.36413830e-01   2.52686796e+00   2.66989030e+00
C     6.158923172135286e+00   6.271194878511638e+00   9.011109223216230e-01  5.73563990e-01  -2.58446633e+00  -1.00256010e-01
C     4.440031659844872e+00   6.226293674021694e+00   2.598235378286205e+00 -1.28059925e+00  -8.49722830e-01   2.28260888e+00
C     6.281431007084438e+00   4.426955076677347e+00   2.792681018823566e+00 -1.79485205e+00   1.31711039e+00  -5.14617155e+00
C     7.097136150900869e+00   8.176960708238401e-03   3.600349877615408e+00  7.98351470e-01  -7.79014710e-01  -9.74486230e-01
C     1.804259687239947e+00   1.760735668548402e+00   3.540418126748152e+00 -6.22941430e-01   1.38377605e+00  -9.34850340e-01
C     1.872379843375860e-02   1.785522169550532e+00   5.354458719176314e+00 -2.55548780e-01  -4.24377540e-01  -1.02844177e+00
C     1.841153324732688e+00   2.053964499203760e-02   5.311514321265205e+00 -2.11770207e+00  -1.06509706e+00   6.04935800e-02
C     9.445604447441109e-01   9.048880537649860e-01   4.406442230438586e+00 -1.33153712e+00  -8.38996160e-01   1.58850112e+00
C     2.607685457485685e+00   2.664403419402213e+00   4.508474538367732e+00  3.21686380e+00  -1.45316820e-01  -2.25321916e+00
C     8.611554028695435e-01   2.687913532038696e+00   6.230887207802964e+00  2.91956160e-01  -1.18880282e+00   1.63451110e-01
C     2.618218647039775e+00   9.076039687954096e-01   6.271079722065195e+00  1.99135044e+00  -5.98224390e-01  -1.25919979e+00
C     3.567962127053033e+00   6.787050833349799e-03   3.607331699228546e+00 -3.22838200e-02  -8.06626860e-01  -1.99523404e+00
C     5.374272309881945e+00   1.781309505053242e+00   3.545545929573541e+00 -5.02474260e-01   7.01173970e-01   4.95740370e-01
C     3.629731405167559e+00   1.799615186068492e+00   5.354643751417113e+00 -3.42170320e+00  -9.67512900e-01  -5.84419950e-01
C     5.325616365479891e+00   4.625855778923340e-02   5.400167938065475e+00 -5.49801170e-01  -2.20078153e+00  -1.88241410e+00
C     4.505783502816479e+00   9.167808002293771e-01   4.450217602953974e+00 -1.60467643e+00  -7.17122450e-01  -6.37852000e-02
C     6.247087942711979e+00   2.669041807330215e+00   4.472313423825983e+00 -8.99260270e-01   9.55069800e-02  -9.92645530e-01
C     4.484409968766889e+00   2.645275364974055e+00   6.202159299710722e+00 -5.40170010e-01   2.03759659e+00  -2.20969023e+00
C     6.210836906624087e+00   8.954498456312812e-01   6.219151059888891e+00  1.81269341e+00   1.25887470e-01  -8.03127000e-03
C     1.205659560578200e-02   3.544743886249327e+00   3.594749222517336e+00  2.42865380e-01  -1.19725287e+00   2.90328060e-01
C     1.773220546617039e+00   5.343399719601024e+00   3.576930610620008e+00 -1.34606510e-01  -1.27057141e+00  -1.84434380e-01
C     3.685112912547300e-02   5.304066258212420e+00   5.304204801369284e+00 -2.73595804e+00  -7.07665420e-01   1.67683455e+00
C     1.708099505068731e+00   3.533058065967404e+00   5.296877083911457e+00  2.41048358e+00  -4.21340420e-01   3.71925967e+00
C     8.830418806953926e-01   4.390297438815590e+00   4.518195803890166e+00 -3.83664870e-01   2.08816710e+00  -4.71465557e+00
C     2.669892685517829e+00   6.149525482010516e+00   4.478669988585465e+00  7.00909450e-01   3.05448502e+00  -1.57899884e+00
C     8.849884511456534e-01   6.189042269618488e+00   6.082762892426571e+00  2.13009527e+00   2.46340886e+00   5.45351782e+00
C     2.659564076366743e+00   4.380571481734227e+00   6.173673646661371e+00  1.75488306e+00   4.36217510e-01   1.63530093e+00
C     3.560282471591290e+00   3.610229945299172e+00   3.626478519892420e+00 -4.00217940e-01  -1.85682991e+00  -1.88948248e+00
C     5.330626168489788e+00   5.380584020494696e+00   3.490383930284306e+00  9.40395930e-01  -7.53336850e-01   2.00521249e+00
C     3.565216498816057e+00   5.297053443876659e+00   5.309627816986082e+00 -1.23634830e-01   1.52468389e+00   6.96853490e-01
C     5.318793417112310e+00   3.624822826095770e+00   5.276237352328930e+00  2.49598050e+00  -1.91688719e+00   1.58530409e+00
C     4.540739810808365e+00   4.544601532480906e+00   4.397960602736855e+00 -4.46331991e+00  -2.72875961e+00   1.12087941e+00
C     6.131639340098298e+00   6.143167922071866e+00   4.539047792972126e+00  3.23473934e+00   3.74109794e+00  -3.12405630e+00
C     4.363572328796533e+00   6.292028883284369e+00   6.212713814532672e+00  1.24669787e+00  -2.33124283e+00   1.00965600e+00
C     6.244585777949739e+00   4.425815383278682e+00   6.228775579779467e+00 -1.77703576e+00   1.13603505e+00  -7.02082500e-02
