64
Lattice="7.10842262195238 0 0 0 7.10842262195238 0 0 0 7.10842262195238 " PBC="1 1 1" Properties=species:S:1:pos:R:3:force:R:3 Energy="-514.44843532"
C     7.071789719448961e+00   7.106019830985987e+00   1.946712618713200e-03  1.17823255e+00   2.63731520e-01   4.16045500e-01
C     1.760063993695038e+00   1.796743383330012e+00   1.050966067521760e-02  2.96230330e-01  -9.67425030e-01  -9.84397160e-01
C     1.158210839589700e-02   1.771155620930155e+00   1.789778693015388e+00 -6.32210900e-01   3.08501290e-01  -1.28538750e-01
C     1.774240107673426e+00   3.430375479536980e-02   1.748212404997617e+00  5.25750770e-01  -1.53915750e+00   8.88573860e-01
C     8.723352456293748e-01   9.016195299600841e-01   8.907013482368950e-01  2.71779320e-01  -9.98960200e-02  -3.10031270e-01
C     2.669617091972852e+00   2.654206813659180e+00   8.686594802925728e-01 -4.81258160e-01   2.39230610e-01   9.74768440e-01
C     8.895220609242370e-01   2.694546259016966e+00   2.657612458936422e+00  4.43994710e-01  -1.39049201e+00   3.76202750e-01
C     2.672316231125892e+00   8.673184052810836e-01   2.671988319590431e+00 -5.49877790e-01   1.10485186e+00  -3.76309650e-01
C     3.582519750073435e+00   1.320005646843520e-02   7.107563922547503e+00 -8.45183420e-01  -3.63000190e-01  -2.13602610e-01
C     5.343329204048634e+00   1.790162618921095e+00   4.720632377715800e-02  6.17833700e-02   5.52242400e-02  -2.01308581e+00
C     3.554486903544977e+00   1.773332575357530e+00   1.765633300649356e+00  1.57081000e-02  -1.15408290e-01   5.31054980e-01
C     5.307903882332280e+00   7.099682316799126e+00   1.786818461499516e+00  5.26152900e-01   6.73027800e-02  -2.80345000e-03
C     4.455638486043987e+00   9.043129112908019e-01   8.813021653433738e-01 -1.26665630e-01  -6.09043190e-01   6.82962920e-01
C     6.215987740738766e+00   2.678327326546043e+00   9.038569059797289e-01  4.05783740e-01  -2.83771670e-01   6.71446500e-01
C     4.430869187424597e+00   2.667248210134737e+00   2.668225476076534e+00  7.15571800e-02   3.67042810e-01  -1.28767920e-01
C     6.232171060012362e+00   8.565201426474940e-01   2.672132620569617e+00 -4.04383600e-01   8.78226440e-01  -3.68391690e-01
C     1.614422294918680e-02   3.540181771696037e+00   1.204522212959000e-03 -1.39027667e+00   6.06196690e-01   1.21850280e-01
C     1.783688409767251e+00   5.347368351949770e+00   7.082045325099740e+00 -8.60867400e-02  -6.05134170e-01   7.70180260e-01
C     2.558605637842800e-02   5.331761383582202e+00   1.778259565243904e+00 -5.91211680e-01  -2.34891770e-01   2.69553720e-01
C     1.777023197297608e+00   3.550298052263464e+00   1.771221018418259e+00  2.23448800e-02   8.90867550e-01  -2.82637800e-02
C     8.760191856521897e-01   4.455541029569867e+00   8.843730749994400e-01  1.20461346e+00  -5.32369460e-01  -4.85992180e-01
C     2.678582590002327e+00   6.217930401556585e+00   8.745107072879995e-01 -4.08814290e-01   5.51142640e-01  -2.11023270e-01
C     9.223648216185182e-01   6.215831284356899e+00   2.652470936855376e+00 -5.78819000e-01   5.92794050e-01   4.56986500e-01
C     2.650434658111651e+00   4.457090025942991e+00   2.674934547513743e+00  6.61452690e-01  -9.24200870e-01  -1.69839020e-01
C     3.552873860284047e+00   3.509263687510347e+00   7.097859006397097e+00  4.97984620e-01   1.57170224e+00   7.41751800e-02
C     5.333724090151811e+00   5.346397128167198e+00   7.103147957163282e+00 -5.75907700e-02  -1.33331193e+00   1.99280980e-01
C     3.544868923403212e+00   5.318760576199805e+00   1.756868473390443e+00 -2.30587830e-01   3.02866290e-01   6.38978230e-01
C     5.326670473470211e+00   3.572743749696828e+00   1.817373731794681e+00  4.43161060e-01  -1.99372940e-01  -1.34789397e+00
C     4.450606789092419e+00   4.434395746970605e+00   8.825680332435434e-01 -4.18337910e-01   1.06195420e-01   2.26759940e-01
C     6.214186395362631e+00   6.193146104165468e+00   9.141806103192073e-01 -2.46778410e-01   1.08505464e+00  -7.52482480e-01
C     4.387915975069437e+00   6.225248167222744e+00   2.663079831110369e+00  1.63004317e+00  -4.88109450e-01   7.98033100e-02
C     6.250039359783804e+00   4.449550406406861e+00   2.680941733301452e+00 -1.06156942e+00  -3.91384700e-02   2.24678000e-02
C     3.401735644801000e-03   7.072046404589769e+00   3.561616224927480e+00  8.82600000e-04   1.10896367e+00  -4.94175450e-01
C     1.778061382421259e+00   1.783418005370786e+00   3.546386074042999e+00 -1.35647040e-01  -6.48507140e-01   2.92115840e-01
C     7.094835581004132e+00   1.782351670893560e+00   5.308784047221088e+00 -4.80999200e-01  -5.05781470e-01   8.39354670e-01
C     1.759648150971768e+00   1.644391404684600e-03   5.348597042799637e+00  6.02030300e-01   7.38478580e-01  -1.09896210e-01
C     8.540279296769220e-01   8.952225893601198e-01   4.453904244177385e+00  1.40250127e+00  -5.65895140e-01  -7.60952870e-01
C     2.669351805640674e+00   2.632794609790538e+00   4.456769293914377e+00 -7.60856830e-01   1.02028860e+00  -8.79195700e-02
C     8.508970960181692e-01   2.651416757780830e+00   6.210122225813872e+00  1.08334137e+00   7.14937660e-01   4.31889700e-02
C     2.682068347202496e+00   8.980757680313353e-01   6.227096996861980e+00 -7.09487840e-01  -2.13631170e-01   1.72990730e-01
C     3.542405783881156e+00   7.098289776807868e+00   3.578507827430934e+00  9.88988100e-02   6.36997050e-01  -5.31997620e-01
C     5.349556040095301e+00   1.807315455955833e+00   3.515420576678434e+00 -7.62825730e-01  -1.78815213e+00   1.10432306e+00
C     3.573863184091025e+00   1.769427350138555e+00   5.342366154952075e+00 -2.53791040e-01   1.96768400e-01  -1.65796410e-01
C     5.329738753009907e+00   7.101129022970749e+00   5.326326994489213e+00  2.20974360e-01   6.52867270e-01  -1.73989500e-02
C     4.450170829533135e+00   8.996223475407686e-01   4.444077063157915e+00  1.82675760e-01  -3.31312660e-01  -3.68916870e-01
C     6.215327155024689e+00   2.654552496251191e+00   4.410346033973037e+00  5.83400680e-01   8.59683200e-01   7.70155490e-01
C     4.467251658246733e+00   2.671829233092196e+00   6.216172275389980e+00 -2.43583650e-01  -5.28262460e-01   4.24631800e-02
C     6.225090146987902e+00   9.007734144156253e-01   6.223209258362650e+00 -8.36624500e-01  -4.51521740e-01   9.59307700e-02
C     2.316549630786560e-02   3.542813665171092e+00   3.573556384570747e+00 -4.19790860e-01   1.18918988e+00  -1.12830916e+00
C     1.804116807945285e+00   5.352851149400802e+00   3.577177557221827e+00 -4.56407100e-01  -2.73885280e-01  -1.12810347e+00
C     7.107069034164700e+00   5.324076183550815e+00   5.311125135126758e+00 -5.46830600e-02   4.38244120e-01   7.81483270e-01
C     1.730990403010786e+00   3.549755182027974e+00   5.322220387657412e+00  1.82986944e+00  -1.72241530e-01   3.33028250e-01
C     9.054710865882786e-01   4.473801572101480e+00   4.424530678058569e+00 -5.64138940e-01  -1.17349426e+00   8.76025810e-01
C     2.672749418400355e+00   6.227738034413852e+00   4.472495612697733e+00 -2.80041680e-01  -2.72877980e-01  -1.69758280e-01
C     8.797969568535888e-01   6.244190407483615e+00   6.229386406535204e+00 -2.22680780e-01  -9.63637740e-01  -5.08083110e-01
C     2.674415490494030e+00   4.410579616740330e+00   6.214255133809367e+00 -6.75044410e-01   6.56561260e-01  -1.18185700e-01
C     3.530164013866123e+00   3.538348651670792e+00   3.584834750068091e+00  6.37805230e-01   5.11516160e-01  -9.46540320e-01
C     5.311741008862556e+00   5.340747282784597e+00   3.549363507941612e+00  4.37692060e-01  -2.42282140e-01  -2.82988410e-01
C     3.575120450799825e+00   5.313434164046414e+00   5.333253014984783e+00 -8.85052170e-01   3.25668110e-01   3.71922510e-01
C     5.354951475032333e+00   3.563645395248586e+00   5.302341541632130e+00 -8.32317060e-01  -5.61468880e-01   8.39739320e-01
C     4.441805779962372e+00   4.449188658779730e+00   4.441217771243245e+00  1.80232960e-01  -4.63056240e-01  -1.77939590e-01
C     6.214487863565946e+00   6.213735223778940e+00   4.425525999393821e+00 -2.17995660e-01  -1.88378140e-01   6.94592140e-01
C     4.437089270469776e+00   6.218252199848592e+00   6.212489330546332e+00  7.33483720e-01   1.39457570e-01   2.48555760e-01
C     6.217169515999341e+00   4.420671941923528e+00   6.218861036245996e+00  6.55109380e-01   9.39835070e-01  -4.10518310e-01
