64
Lattice="7.10842262195238 0 0 0 7.10842262195238 0 0 0 7.10842262195238 " PBC="1 1 1" Properties=species:S:1:pos:R:3:force:R:3 Energy="-514.16670673"
C     4.931610361077400e-03   7.124985244704600e-03   7.572176111728801e-03 -4.59836760e-01  -1.41893960e-01   3.21946630e-01
C     1.808396575952109e+00   1.755670775263200e+00   2.180274060738540e-02 -1.17180333e+00   1.59887904e+00  -9.90856510e-01
C     7.081901734962815e+00   1.798352090453144e+00   1.802529568258466e+00  1.29675098e+00  -6.66211530e-01  -5.21599720e-01
C     1.777853958649207e+00   1.137390269735720e-02   1.771537911898659e+00 -7.58133640e-01  -1.98538620e-01   2.52820060e-01
C     8.759503761212282e-01   9.068487699762607e-01   8.832662225132798e-01  3.42072640e-01  -3.10574330e-01   6.47887860e-01
C     2.683647767624434e+00   2.680288184925770e+00   8.729998831443447e-01  1.19563860e-01  -1.08763228e+00   7.64437990e-01
C     9.385047084299066e-01   2.652430063425311e+00   2.648587605578070e+00 -1.77643444e+00   1.27174270e+00   3.57033970e-01
C     2.637724016540603e+00   8.529543446086234e-01   2.696433616306801e+00  1.59708781e+00   1.75439378e+00  -1.28473068e+00
C     3.545968098792943e+00   7.085024393935555e+00   7.655771161740000e-05  3.79051330e-01   8.46606700e-01  -1.32035800e-01
C     5.344355873527640e+00   1.747429483330250e+00   2.093537087929300e-02 -6.91881050e-01   1.57899286e+00  -2.76691350e-01
C     3.566129788954276e+00   1.764356983367935e+00   1.784158063249754e+00 -7.00824800e-01   4.72494400e-01  -4.96161320e-01
C     5.333829863480395e+00   2.286815098967100e-02   1.784334494299183e+00 -5.11965620e-01  -1.78964571e+00   4.27366690e-01
C     4.450023685184902e+00   8.819218065431591e-01   9.018377585345180e-01 -3.48438690e-01  -2.29933310e-01  -3.97434800e-01
C     6.205264116542686e+00   2.675652569282589e+00   9.231344505355855e-01  1.42207960e-01  -9.15991500e-02  -7.66274050e-01
C     4.427899643875092e+00   2.689551383694570e+00   2.635077977304534e+00 -1.03066260e-01  -1.00654380e+00   1.25986894e+00
C     6.203899228315420e+00   8.805366593114260e-01   2.691353226660288e+00  4.17248030e-01   7.16184920e-01  -7.24010740e-01
C     7.088655305125625e+00   3.550663496270358e+00   7.098158910747435e+00  1.39181855e+00  -3.34755870e-01   1.02700545e+00
C     1.779148260239857e+00   5.337439022897248e+00   7.097470531100913e+00 -5.02206750e-01  -1.29330710e-01  -4.96783800e-02
C     7.101792523138100e+00   5.319915126201746e+00   1.770163924890439e+00  8.17240020e-01   7.46190950e-01  -9.77039900e-02
C     1.810898314208992e+00   3.561108185962829e+00   1.771867955960905e+00 -9.23446110e-01  -1.53770230e-01  -8.64951920e-01
C     8.967749977761015e-01   4.454911365494187e+00   8.489426352188002e-01 -3.79007310e-01  -5.61161030e-01   1.55468296e+00
C     2.637341014729837e+00   6.230180772762988e+00   8.817674826880790e-01  9.32655630e-01  -4.47490270e-01  -9.04391400e-02
C     9.025104996512748e-01   6.240784904374825e+00   2.655269736093548e+00 -8.90441290e-01  -1.05657765e+00   2.60362040e-01
C     2.680443859381147e+00   4.443447043661103e+00   2.652836096525365e+00 -4.17458580e-01  -1.03125690e-01   1.13702680e-01
C     3.551933629224099e+00   3.559987045547202e+00   7.089509595356096e+00  8.66547590e-01  -6.13117830e-01   8.30253400e-01
C     5.350449710987087e+00   5.346992956151207e+00   7.096693011834738e+00 -3.39453540e-01  -6.81714030e-01   5.95123220e-01
C     3.546982968290401e+00   5.334374724074219e+00   1.751174911208728e+00 -2.69532830e-01   7.27843300e-02   5.44849290e-01
C     5.309574930321790e+00   3.582344740708531e+00   1.795901177417994e+00  5.64882790e-01  -3.54653750e-01  -1.27794590e+00
C     4.452288357547407e+00   4.464642227387158e+00   8.728174810199156e-01 -4.33796620e-01  -2.67097530e-01  -5.51917700e-02
C     6.220144888455393e+00   6.200274003863446e+00   9.155543129905224e-01 -4.47560000e-02   1.41168221e+00  -1.02459913e+00
C     4.385716558026583e+00   6.194129412266491e+00   2.678387677054086e+00  1.73991375e+00   1.37276848e+00  -7.90942890e-01
C     6.219535483384181e+00   4.463985906726653e+00   2.645025219582057e+00  1.58942000e-01  -8.12655450e-01   8.50498680e-01
C     3.142278219171000e-03   1.598207982922460e-02   3.578936536399146e+00 -8.06360100e-02  -7.14391690e-01  -1.13778250e+00
C     1.798889629371669e+00   1.804778531006981e+00   3.530310518456321e+00 -4.52194850e-01  -1.73464467e+00   1.57260070e+00
C     7.092781602288083e+00   1.763276574213921e+00   5.340397406223240e+00  6.16154380e-01   1.19104197e+00  -6.63228900e-01
C     1.746642083356633e+00   7.614968815901201e-03   5.357050521147793e+00  8.79232570e-01  -1.85485180e-01  -1.29600183e+00
C     8.931001565342401e-01   8.815438517124538e-01   4.425131695191090e+00 -4.15867530e-01   1.11483096e+00   1.09720163e+00
C     2.687089168267454e+00   2.645749923268166e+00   4.477804893552611e+00 -3.69593770e-01   3.77606960e-01  -1.60458965e+00
C     8.959515580998006e-01   2.689754542413050e+00   6.221629553603807e+00 -2.94897930e-01  -1.64540133e+00  -1.76925930e-01
C     2.668457068485494e+00   8.866229618428961e-01   6.208592635434501e+00 -1.58182570e-01  -5.45133270e-01   1.17244938e+00
C     3.542660478663631e+00   1.874206707989200e-03   3.572631863124789e+00 -4.33532330e-01  -8.49820300e-01   1.19765500e-01
C     5.295651023177959e+00   1.770707363799738e+00   3.517345892945061e+00  8.72165950e-01   8.41764050e-01   1.53769710e+00
C     3.560269676430574e+00   1.748873985890860e+00   5.349866180574211e+00  5.66651410e-01   6.54650290e-01  -6.83958470e-01
C     5.359425587313588e+00   7.082128422560167e+00   5.331374116717865e+00 -1.38142742e+00   1.46684201e+00  -8.11129700e-02
C     4.450776964729942e+00   8.762973382293103e-01   4.437147346282581e+00 -3.17131030e-01   1.54429900e-01   2.01404160e-01
C     6.198036556759575e+00   2.681014950054438e+00   4.434364896416435e+00  6.06884440e-01  -6.50060340e-01  -6.42992700e-02
C     4.458519387563420e+00   2.661901396808425e+00   6.216227294581060e+00 -3.14156040e-01  -2.06489570e-01   4.68442230e-01
C     6.218130645821790e+00   9.057614656523055e-01   6.231851820752498e+00  3.49426690e-01  -1.36318678e+00  -1.12883390e-01
C     1.310857106931580e-02   3.562886713302353e+00   3.554232919604764e+00 -3.28783880e-01  -4.51985540e-01  -5.92196260e-01
C     1.781010027208261e+00   5.312770095205253e+00   3.533310486054640e+00  1.66466330e-01   1.28392316e+00   4.19831280e-01
C     7.107587451426376e+00   5.330628940774610e+00   5.357726176717824e+00  2.93086590e-01  -3.15216060e-01  -1.64777879e+00
C     1.794661255260388e+00   3.542388936919547e+00   5.317755800662469e+00 -5.62829550e-01   2.38934060e-01   5.92204010e-01
C     9.063143587636893e-01   4.433377963019873e+00   4.407223730421428e+00 -3.30381870e-01   4.11858620e-01   1.41268290e+00
C     2.650039785235110e+00   6.229993892332309e+00   4.463961382668614e+00  2.41107320e-01  -9.61378240e-01  -1.26551800e-02
C     8.657028029880101e-01   6.231557887477161e+00   6.220360060408101e+00  6.50647390e-01  -2.68053930e-01   2.64142090e-01
C     2.663598248372046e+00   4.409968861068820e+00   6.239557848462161e+00  2.28009000e-01   1.57621594e+00  -1.31110875e+00
C     3.541531874404253e+00   3.548543551392395e+00   3.551780016211281e+00  7.68307590e-01   5.54313200e-02   4.18316530e-01
C     5.322200270821398e+00   5.333120442902920e+00   3.520873874175593e+00 -1.05702410e-01   1.06531580e-01   1.26295017e+00
C     3.568160736381036e+00   5.316931365807001e+00   5.347548692631639e+00 -8.50601410e-01   2.97243810e-01  -6.19198790e-01
C     5.329905232267667e+00   3.575438126206713e+00   5.335974190247946e+00  3.20971790e-01  -1.09009312e+00  -3.06428590e-01
C     4.444370783180573e+00   4.435026619478130e+00   4.442554510116937e+00  5.48329000e-03   4.37616470e-01  -1.91612450e-01
C     6.206689639614900e+00   6.232716702532673e+00   4.432279640640857e+00  7.98097710e-01  -1.12976939e+00   4.63384010e-01
C     4.440636089020250e+00   6.219462977473457e+00   6.208978196277410e+00  6.31448410e-01  -4.20227170e-01   4.75830010e-01
C     6.252433050016863e+00   4.416417266648553e+00   6.237564788927966e+00 -1.60468959e+00   1.51150520e+00  -9.65538300e-01
