64
Lattice="7.10842262195238 0 0 0 7.10842262195238 0 0 0 7.10842262195238 " PBC="1 1 1" Properties=species:S:1:pos:R:3:force:R:3 Energy="-512.98554485"
C     2.221922308869120e-02   7.078034539804857e+00   7.100726188660873e+00 -1.78743310e-01   1.30489931e+00  -4.08693200e-02
C     1.824797839463235e+00   1.797612814500664e+00   1.473547575435520e-02 -1.37610564e+00  -1.18431540e+00  -1.36841252e+00
C     7.100671809227831e+00   1.777936842856957e+00   1.769600866734709e+00  5.35603680e-01  -4.22303240e-01  -5.94979900e-02
C     1.767536794058539e+00   7.105954504582109e+00   1.763436940228228e+00  1.11743723e+00  -5.56288290e-01   1.20836180e+00
C     9.152355713202417e-01   8.386664151424233e-01   8.674482761623510e-01 -6.74542710e-01   2.30310037e+00   5.54911990e-01
C     2.670526117057497e+00   2.707742476937186e+00   9.046169385262594e-01 -2.58330800e-02  -1.55036853e+00  -1.58380190e-01
C     8.833369513183488e-01   2.636103580520147e+00   2.686086240919999e+00 -4.07819780e-01   7.38976520e-01  -5.19059560e-01
C     2.636709715716955e+00   8.974770966782789e-01   2.697642403573333e+00  1.05228899e+00   1.48781910e-01  -2.16962027e+00
C     3.531268947078176e+00   7.099776219061936e+00   7.104000257035419e+00  9.83295690e-01   1.75965670e-01  -5.12910200e-01
C     5.309932981569159e+00   1.733253227183410e+00   7.103007139311179e+00  2.53716180e-01   2.25944663e+00   4.00320600e-02
C     3.559538930585237e+00   1.807722270982376e+00   1.783530887121992e+00 -4.12136500e-01  -1.26966956e+00  -2.23530380e-01
C     5.365017641220288e+00   7.092851975672021e+00   1.735704637808144e+00 -6.26174880e-01   2.54013390e-01   1.89371416e+00
C     4.450133723567059e+00   8.922058458844181e-01   8.876985372695284e-01 -6.33592660e-01  -9.30237260e-01  -2.19267440e-01
C     6.214351097514736e+00   2.664858571702571e+00   8.841383548845275e-01  1.36215400e-02  -4.40208560e-01  -6.46008120e-01
C     4.445713350960811e+00   2.653792463704660e+00   2.648520644236990e+00  5.46880050e-01   4.80270670e-01   4.76470410e-01
C     6.231049635259831e+00   9.017173418553353e-01   2.666085911952140e+00  2.74942440e-01  -9.45722740e-01  -6.02939170e-01
C     2.566773215433180e-02   3.563610492893521e+00   7.071393922477479e+00 -1.45236285e+00  -1.14966118e+00   1.80236112e+00
C     1.742199674640264e+00   5.321549779067441e+00   4.174947206868880e-02  1.46230573e+00  -3.48718000e-03   2.55699110e-01
C     7.054870251928837e+00   5.321178932659356e+00   1.733547586964105e+00  2.21188679e+00   1.02808650e-01   2.17282476e+00
C     1.780788457675196e+00   3.501573795920031e+00   1.786497302965544e+00 -9.33729070e-01   2.37408159e+00   8.90274960e-01
C     8.244152362211687e-01   4.423090653804209e+00   9.308907347931724e-01  2.48451869e+00  -3.79103560e-01  -1.69961107e+00
C     2.696674805086298e+00   6.214930078537136e+00   9.367966966427732e-01 -1.17894864e+00  -7.52353400e-02  -1.48943249e+00
C     9.025171104843114e-01   6.198545519819167e+00   2.646737638591215e+00 -1.16655497e+00   8.14738610e-01  -1.95219870e-01
C     2.696904264968472e+00   4.450989008976697e+00   2.663129376816030e+00 -8.22004200e-01  -1.36650660e+00   3.91113470e-01
C     3.521451220260789e+00   3.610247858524175e+00   4.484270217178180e-02  6.28776370e-01  -1.25182368e+00  -1.22306155e+00
C     5.322873580611964e+00   5.379680611063920e+00   1.355768121044740e-02  3.06867550e-01  -2.34479482e+00  -8.97723280e-01
C     3.590508835171827e+00   5.317167010016854e+00   1.796098507229926e+00 -1.18160381e+00   7.80717060e-01  -9.52295900e-02
C     5.312456471599258e+00   3.541318550641427e+00   1.766430225909284e+00  1.00662589e+00   9.68550130e-01  -3.01379690e-01
C     4.431283466294890e+00   4.460838510443195e+00   8.825426561747900e-01  7.44267890e-01   5.29713700e-02   6.67767590e-01
C     6.256972133280864e+00   6.190339912167770e+00   8.757381897060212e-01 -1.76652607e+00   2.01653059e+00  -7.07368400e-01
C     4.451137575009455e+00   6.198851039823374e+00   2.669470800635332e+00  2.43933530e-01   1.19979144e+00   1.03290010e-01
C     6.224244386864574e+00   4.495081132804033e+00   2.631125196738231e+00 -1.60889161e+00  -2.89778095e+00   2.00193204e+00
C     2.528920864981680e-02   5.550398550148400e-03   3.568164788181929e+00 -8.61228470e-01  -6.62873730e-01  -9.90555120e-01
C     1.758295133810277e+00   1.763697677169930e+00   3.525572115022056e+00  4.29336900e-01  -2.39471100e-02   2.13619258e+00
C     4.299920384951100e-02   1.780063043146825e+00   5.335464729598770e+00 -1.82542570e+00  -1.16359665e+00   6.13182600e-02
C     1.772434852664850e+00   7.067411428704624e+00   5.330667326256758e+00  1.03943930e+00   1.30530249e+00  -6.19464900e-02
C     9.153746120666888e-01   8.428457411376262e-01   4.454586012990870e+00 -8.98178570e-01   1.42397051e+00  -4.10468330e-01
C     2.644399891644175e+00   2.677083636924447e+00   4.435070833866827e+00  6.38200470e-01  -1.58251620e-01  -9.66557460e-01
C     8.949421620877609e-01   2.642156402381077e+00   6.216830373156141e+00  9.26918390e-01   1.74108218e+00  -3.50180290e-01
C     2.657102642866116e+00   8.771410369100782e-01   6.157814116038114e+00  5.72610320e-01   4.55716270e-01   2.38233317e+00
C     3.561189719570280e+00   5.007123134569660e-02   3.551593633370185e+00 -1.80123160e-01  -1.49240447e+00  -5.15495190e-01
C     5.331077126820801e+00   1.766302771891707e+00   3.523983027145355e+00  4.30241870e-01   5.25015530e-01   7.06735130e-01
C     3.531177959268640e+00   1.804822389974547e+00   5.312016389154855e+00  2.37738820e-01  -6.00377140e-01   1.35171670e-01
C     5.318752330429566e+00   7.096259682391823e+00   5.312771090384420e+00  6.40179430e-01   1.43942991e+00  -3.84625630e-01
C     4.458145911038965e+00   9.213879110978516e-01   4.392571707548632e+00 -7.30891040e-01  -6.49059930e-01   1.74222296e+00
C     6.175484943829172e+00   2.632884033747097e+00   4.484388288077898e+00  1.99090679e+00   1.44291965e+00  -1.26687230e+00
C     4.364313808360025e+00   2.686076146959878e+00   6.258790894292416e+00  2.15015150e+00  -4.83540110e-01  -8.11150530e-01
C     6.218563193338218e+00   9.014759398231599e-01   6.209553409835820e+00  2.17079300e-01  -1.35949928e+00   1.56798940e-01
C     7.105421088548705e+00   3.555545774178453e+00   3.591404780758852e+00 -5.18244720e-01   4.99322780e-01  -1.45577481e+00
C     1.751626935803134e+00   5.321017571465882e+00   3.529468596881209e+00  2.17200891e+00   1.04242011e+00  -1.64334420e-01
C     7.105684597775229e+00   5.383730777020117e+00   5.372366897198654e+00  2.83830710e-01  -1.60198001e+00  -1.19284311e+00
C     1.782912525438278e+00   3.586672277315361e+00   5.275817031299409e+00 -1.81296810e-01  -3.51300060e-01   2.18963509e+00
C     8.906297664211116e-01   4.500531444763692e+00   4.416664995176860e+00 -7.24096610e-01  -1.72004485e+00   1.62360762e+00
C     2.697396096729550e+00   6.255505594610131e+00   4.429751245799149e+00 -1.14121593e+00  -1.57085097e+00   2.10132110e-01
C     9.285999745196510e-01   6.223007165907562e+00   6.254868466690700e+00 -1.45063593e+00  -5.50652400e-01  -8.80854110e-01
C     2.662831960413609e+00   4.457962726988048e+00   6.263131510396867e+00 -1.05356697e+00   3.96760400e-01  -1.56811972e+00
C     3.602125135080527e+00   3.523863534561113e+00   3.552867462703689e+00 -2.02884464e+00   7.85483320e-01   9.48857600e-02
C     5.303192704156649e+00   5.309720937322404e+00   3.579750450789136e+00  1.40043958e+00   8.35158350e-01  -7.60235960e-01
C     3.553765043227916e+00   5.342483372841079e+00   5.333678738415495e+00 -2.01114740e-01  -8.91665840e-01  -1.78580210e-01
C     5.325585870346852e+00   3.562231245652562e+00   5.351906226781925e+00 -6.31574050e-01  -9.23301320e-01   9.98110290e-01
C     4.433162719982940e+00   4.398385828577983e+00   4.465219431303901e+00  5.61871410e-01   1.31073287e+00  -4.24384560e-01
C     6.224997595325390e+00   6.235570378793472e+00   4.438724847430411e+00 -3.71028070e-01  -4.70625850e-01   5.80038790e-01
C     4.448948678432078e+00   6.202716813296808e+00   6.175579770186923e+00 -2.41137410e-01   1.25310194e+00   1.71853216e+00
C     6.220095058412828e+00   4.437495161401377e+00   6.260956546327826e+00 -4.35888900e-02   1.03800422e+00  -1.68673882e+00
