64
Lattice="7.10842262195238 0 0 0 7.10842262195238 0 0 0 7.10842262195238 " PBC="1 1 1" Properties=species:S:1:pos:R:3:force:R:3 Energy="-512.83574932"
C     3.939821911867140e-02   5.949458287612579e-02   7.104376079339339e+00 -1.49203661e+00  -1.69363073e+00  -6.15920190e-01
C     1.792981534995282e+00   1.783483687195795e+00   7.066687720197682e+00  3.21653610e-01   8.01051900e-01   8.92958630e-01
C     9.077455685739999e-05   1.763859393784535e+00   1.736180546702552e+00  2.38522310e-01   2.24850700e-01   9.05460620e-01
C     1.761471319205346e+00   2.012764081698240e-02   1.739820983178933e+00  8.17394350e-01   1.27107970e-01   1.40912182e+00
C     9.162572649034141e-01   9.462071819282601e-01   8.419445353178625e-01 -4.79732800e-01  -1.36625556e+00   4.23426560e-01
C     2.636591786985689e+00   2.643589389297043e+00   9.477798493487090e-01  1.04023986e+00   8.61507370e-01  -2.20808358e+00
C     8.419281859458366e-01   2.654783448902114e+00   2.673160000890886e+00  7.80789710e-01   5.76365400e-01  -2.66443340e-01
C     2.672501903124726e+00   8.654556431335125e-01   2.669817975996093e+00  5.46052100e-02   6.46815480e-01  -7.32056140e-01
C     3.567804959828905e+00   7.086762758687276e+00   7.097840169077154e+00 -3.63620000e-04   5.54381160e-01   2.21403260e-01
C     5.291611804192597e+00   1.769319728620088e+00   7.069662666148378e+00  5.63456990e-01  -2.40086240e-01   1.50893159e+00
C     3.581038994557463e+00   1.714875964352377e+00   1.734135666767457e+00 -1.43388512e+00   1.97437467e+00   1.75194595e+00
C     5.320550690268200e+00   1.153057233190200e-03   1.769591128195720e+00  1.56080575e+00  -3.46884570e-01   1.46580700e-01
C     4.467490998836348e+00   8.519523413561082e-01   8.671249140173672e-01 -9.72099750e-01   6.99317260e-01  -1.64858350e-01
C     6.174160004937030e+00   2.631810804099929e+00   9.067089473033253e-01  1.23349158e+00   1.90833890e-01  -1.78660674e+00
C     4.412560378703394e+00   2.696818324138996e+00   2.619392531951242e+00  1.08097758e+00  -2.25036247e+00   1.16227525e+00
C     6.293482697878613e+00   8.452112109328835e-01   2.622696100279660e+00 -2.80186845e+00   9.99435310e-01   1.08365321e+00
C     7.080981905075788e+00   3.503580006036073e+00   7.107979125512738e+00  1.44555597e+00   1.19388944e+00   2.24138280e-01
C     1.771349894120360e+00   5.358512368259595e+00   4.889386330714600e-02  4.18182700e-02  -9.68326350e-01  -7.37316420e-01
C     7.107914225614217e+00   5.240632898362552e+00   1.814147645272820e+00  1.12450660e-01   2.77743781e+00  -4.86678410e-01
C     1.740505097771882e+00   3.566267905605782e+00   1.808221779839883e+00  1.75201807e+00  -1.60567918e+00   2.78006090e-01
C     9.160440833090404e-01   4.396659263807811e+00   9.033315224638848e-01 -2.06316173e+00   1.14925366e+00  -8.60171200e-02
C     2.673649415788273e+00   6.241896448419915e+00   9.235082824811714e-01 -8.72855800e-02  -7.01503250e-01  -7.45389310e-01
C     9.278462684692527e-01   6.232443881272517e+00   2.676518517326157e+00 -1.48548775e+00  -1.59569060e+00  -1.12755546e+00
C     2.684485637398653e+00   4.444073224609699e+00   2.707199251280566e+00 -9.15945440e-01  -5.32864640e-01  -7.57793820e-01
C     3.544287738769802e+00   3.595742055904672e+00   2.983376539923520e-02 -8.00505510e-01  -9.53101870e-01   1.23143380e-01
C     5.329343240375331e+00   5.353282061980026e+00   7.072954292326795e+00  1.17060625e+00   8.07321830e-01   1.04113115e+00
C     3.552069968769951e+00   5.351875447311980e+00   1.845326253147533e+00  9.19862480e-01  -4.60329130e-01  -1.77960010e+00
C     5.348246313227566e+00   3.529296715222257e+00   1.758421166143330e+00 -1.46032437e+00   1.29900415e+00   1.22594147e+00
C     4.482251282985647e+00   4.487494810931291e+00   8.933442597670110e-01 -1.25350444e+00  -7.03396330e-01   4.16435300e-02
C     6.231272413224742e+00   6.277940558325340e+00   8.952078749252963e-01  2.60489770e-01  -2.70678305e+00  -4.86759510e-01
C     4.470208264467069e+00   6.227334204924809e+00   2.685895308688425e+00 -5.00842290e-01   3.73122900e-02  -3.06103790e-01
C     6.196673943227547e+00   4.364921507409809e+00   2.751168257228123e+00  6.96518920e-01   1.91012927e+00  -3.22442141e+00
C     2.505861142002400e-03   7.071305067194730e+00   3.557575726426046e+00  1.06046697e+00   6.47035390e-01  -8.79583050e-01
C     1.759890903604241e+00   1.790236973021700e+00   3.522351644154065e+00  5.42759630e-01  -4.76162800e-01   9.46913310e-01
C     7.082571064036715e+00   1.808403471122050e+00   5.322406557245830e+00  1.13502812e+00  -1.08225065e+00  -1.46076610e-01
C     1.780483577429024e+00   1.764928927051940e-02   5.314488769626316e+00  4.37896980e-01  -1.19071185e+00  -1.08575790e-01
C     8.807576601706818e-01   8.963836791108705e-01   4.388622623362092e+00 -2.50529340e-01  -2.31686520e-01   1.97573378e+00
C     2.639269956292000e+00   2.683254885106226e+00   4.496638374947397e+00  7.26665620e-01  -5.17297890e-01  -2.35920893e+00
C     9.080176079076673e-01   2.675500022533164e+00   6.186137768135956e+00 -1.15056232e+00  -2.83965620e-01   6.28502250e-01
C     2.691764164571950e+00   8.812238305261013e-01   6.219678291594617e+00 -7.93478590e-01   2.38663300e-02  -4.76650350e-01
C     3.564933441427330e+00   7.093297389433390e+00   3.565501830900025e+00  2.07644000e-03   4.26453240e-01  -2.66887700e-01
C     5.347325274908693e+00   1.773630133928403e+00   3.513375412406434e+00 -1.87643980e-01   5.89415830e-01   5.73335680e-01
C     3.546644394121010e+00   1.787575295255867e+00   5.331824648543520e+00 -2.56694040e-01  -4.54441130e-01   3.14138600e-02
C     5.360852389901874e+00   3.799572733574540e-02   5.289807188942057e+00 -1.10920605e+00  -9.75628760e-01   4.73497840e-01
C     4.444093910119523e+00   9.130743975910830e-01   4.414324049439642e+00  2.85688820e-01  -2.65189830e-01  -4.69024000e-02
C     6.201910220582118e+00   2.675587953720973e+00   4.496530398007799e+00 -4.17581380e-01  -3.83599770e-01  -1.78005964e+00
C     4.385978361231677e+00   2.641136556987786e+00   6.242194078075014e+00  1.00286938e+00   2.13888639e+00  -3.26886320e-01
C     6.192961071924668e+00   9.223129301333922e-01   6.192022973391507e+00  1.67260000e+00  -5.38648860e-01   3.23354640e-01
C     7.080279664005158e+00   3.525711582273860e+00   3.594650344358691e+00  1.74369910e-01  -1.07221420e-01  -1.51682900e-02
C     1.782194574753658e+00   5.316696503523636e+00   3.526853408199311e+00  2.81529580e-01   8.15261710e-01   1.47663146e+00
C     7.101926161483356e+00   5.317932942554159e+00   5.327339020617622e+00  6.88906830e-01  -1.41044140e-01   4.91648980e-01
C     1.760090437027185e+00   3.586837121635919e+00   5.297915837708917e+00 -1.31854210e-01   1.81946720e-01   1.94294057e+00
C     8.613266447704594e-01   4.439913020271344e+00   4.425794342347726e+00  7.70789810e-01   1.98972440e-01  -9.76083600e-02
C     2.696696485775290e+00   6.192721802419279e+00   4.426216582651355e+00 -1.16598287e+00   8.34746270e-01   8.19937280e-01
C     9.164788344364795e-01   6.179251341554379e+00   6.221414452735326e+00 -1.28435997e+00   2.68551397e+00   3.74857600e-02
C     2.617535243289088e+00   4.512296666126280e+00   6.241227403682921e+00  1.74463694e+00  -2.15452177e+00   6.63435100e-02
C     3.550853575491216e+00   3.540886500714584e+00   3.596476284877091e+00  1.97914090e-01   5.88424840e-01  -1.05082226e+00
C     5.350708528654682e+00   5.339055407116811e+00   3.550046769523847e+00 -7.46314640e-01  -1.01280638e+00   1.04733064e+00
C     3.545996603567649e+00   5.330235134161462e+00   5.362802230226539e+00  4.10398690e-01   8.86677820e-01  -1.35603256e+00
C     5.311533300753600e+00   3.564533095065371e+00   5.366666084425867e+00  1.23125590e-01  -5.10265720e-01  -4.32644330e-01
C     4.459066167431351e+00   4.456816849261704e+00   4.462396392344594e+00 -8.99668900e-01  -5.73315070e-01   3.83829120e-01
C     6.233921366914084e+00   6.191146433798234e+00   4.437058562084057e+00 -6.45564300e-02   1.32048523e+00   1.68395860e-01
C     4.454765927167381e+00   6.259130108219843e+00   6.178781901324554e+00 -7.47953500e-02  -1.26738589e+00   7.94088990e-01
C     6.237561874474691e+00   4.432510664376006e+00   6.228378218955009e+00 -1.04843524e+00   1.31505910e-01   2.32163520e-01
