64
Lattice="7.10842262195238 0 0 0 7.10842262195238 0 0 0 7.10842262195238 " PBC="1 1 1" Properties=species:S:1:pos:R:3:force:R:3 Energy="-506.69056409"
C     7.097741930676545e+00   7.052669128864554e+00   7.101700255812492e+00 -4.46435230e-01   1.92809171e+00  -3.97115900e-01
C     1.770837021428327e+00   1.820147225048326e+00   7.107260463985856e+00  5.77466450e-01  -1.91952697e+00  -1.35757973e+00
C     5.415331411945780e-02   1.742093332637869e+00   1.774564393913350e+00 -2.43410113e+00   4.04169730e-01  -8.08557730e-01
C     1.741082017351721e+00   7.061641735316649e+00   1.730865365856900e+00  1.76579099e+00   1.73984800e+00   5.15000200e-01
C     9.117489611093578e-01   8.731375732904942e-01   7.951800000065375e-01 -6.40702610e-01  -3.26649450e-01   3.32382680e+00
C     2.614729762133653e+00   2.631482750396017e+00   9.205942557123287e-01 -3.18767430e-01   2.33392520e+00   1.22606620e-01
C     7.409737281385608e-01   2.665614481363982e+00   2.711928555933877e+00  4.42833005e+00   6.40260900e-02  -2.85173260e-01
C     2.650357958231581e+00   8.257202715299746e-01   2.688042407740797e+00 -2.37168706e+00   2.74066284e+00  -1.74418565e+00
C     3.599155591531022e+00   5.702042529900860e-02   1.655231749180100e-02 -1.05127161e+00  -1.07306246e+00  -1.11850960e-01
C     5.361459164856717e+00   1.902277584578675e+00   7.067230092843588e+00 -6.26377850e-01  -2.19310138e+00   2.48828526e+00
C     3.571418384299329e+00   1.863600941440160e+00   1.780564826699570e+00 -1.04619197e+00  -3.43551190e+00   7.90834020e-01
C     5.336238836822088e+00   8.652080567736579e-02   1.638850531420762e+00 -7.68347990e-01  -1.83433762e+00   4.56181987e+00
C     4.447644282881308e+00   1.027871157850511e+00   8.791916035832695e-01  8.86750140e-01  -1.68025521e+00  -1.16747432e+00
C     6.328741184916074e+00   2.729506050135935e+00   8.620262557247198e-01 -3.40917241e+00  -2.64288837e+00   1.94322210e+00
C     4.502571562055632e+00   2.638219829018347e+00   2.661184512387198e+00 -1.76002980e-01  -4.75503620e-01   2.26280867e+00
C     6.255448229639589e+00   8.121355072293449e-01   2.691775395879690e+00 -6.40977950e-01   2.82544653e+00  -1.86897529e+00
C     7.092889365975003e+00   3.544740616374921e+00   7.031224866009896e+00  1.48428148e+00   1.53826416e+00   1.45310895e+00
C     1.816763758049659e+00   5.324997932711951e+00   7.032052997245125e+00  5.66194850e-01  -1.09613741e+00   2.53715875e+00
C     9.534314007527401e-03   5.355276543198745e+00   1.783236882762428e+00 -2.25843129e+00  -4.82831620e-01  -6.40158170e-01
C     1.660682416560890e+00   3.543869052677483e+00   1.805023842671597e+00  1.93498977e+00   1.14559345e+00  -5.41392660e-01
C     8.190871891305740e-01   4.489638497940803e+00   8.299840455859029e-01  2.80994904e+00  -1.50694780e+00   6.06788850e-01
C     2.734150053717807e+00   6.223501130195427e+00   8.821851736012303e-01 -2.60891397e+00   1.57803310e-01  -2.48324860e-01
C     8.347154116817750e-01   6.246426646155641e+00   2.681588741928325e+00  1.66920674e+00  -2.23180760e-01  -9.41468410e-01
C     2.583276058303546e+00   4.497669664901106e+00   2.684698961161479e+00  1.94364924e+00  -1.97677656e+00  -4.41835810e-01
C     3.491298997528178e+00   3.486366605240612e+00   1.429930294239200e-02  2.61937699e+00   2.17421159e+00  -2.23445360e-01
C     5.325188225185488e+00   5.290682875524615e+00   7.040986862793940e+00 -1.13091826e+00  -7.22288270e-01   1.51504245e+00
C     3.529448408960968e+00   5.387108486196463e+00   1.851687225129040e+00  3.71952300e-01  -2.55667354e+00  -3.15001207e+00
C     5.407147698236052e+00   3.506072858764681e+00   1.918912501941320e+00  4.22037000e-02   2.71815466e+00  -4.90892610e+00
C     4.420660994952693e+00   4.400833116317596e+00   9.098943736477997e-01  6.36444650e-01   7.41180950e-01   9.73531560e-01
C     6.154415650267719e+00   6.204593010363132e+00   8.306883480990925e-01  1.78226869e+00   2.17714830e-01   9.65058430e-01
C     4.392267040555139e+00   6.303930515277036e+00   2.634278706265141e+00  2.51345693e+00  -2.10505992e+00  -2.50260360e-01
C     6.282977089004288e+00   4.470676567349275e+00   2.732127138808607e+00 -2.21724475e+00   6.35419170e-01  -5.69696370e-01
C     7.086574314403620e+00   7.088763424233675e+00   3.584671896105867e+00 -7.09764470e-01  -9.41489600e-02   1.42266987e+00
C     1.586985702879587e+00   1.741060620999635e+00   3.609701789498506e+00  5.79006841e+00  -9.63289600e-02  -1.22181724e+00
C     4.848541334340080e-02   1.762616699342106e+00   5.421184842552218e+00 -2.98886665e+00  -1.30674065e+00  -1.81403301e+00
C     1.861434294225584e+00   7.053710583862610e+00   5.402032477318701e+00 -1.98372663e+00   2.78208521e+00  -9.51275740e-01
C     8.748903681401338e-01   8.834610643772940e-01   4.565626042979854e+00 -3.50550190e-01  -2.50421568e+00  -2.36723841e+00
C     2.615898600065059e+00   2.536144159711219e+00   4.454827201770367e+00  5.72211210e-01   3.93804503e+00  -1.99884820e+00
C     8.705400845809200e-01   2.658872213593138e+00   6.141369988738590e+00  2.54366201e+00   2.03319355e+00   3.87049019e+00
C     2.723508602887215e+00   9.203797235176570e-01   6.232889579370792e+00 -9.17978780e-01  -1.04512626e+00   4.93483070e-01
C     3.545545929573541e+00   7.105614579812421e+00   3.504668660960327e+00 -3.00531400e-02   1.38928363e+00   2.44741220e+00
C     5.426597835293123e+00   1.719111233633599e+00   3.646287774460253e+00 -8.28083380e-01   1.07674310e+00  -3.20031993e+00
C     3.565246212022609e+00   1.780573427890941e+00   5.307463231214066e+00 -2.67504680e-01  -1.12025226e+00   6.15909930e-01
C     5.212316212518878e+00   8.634458788061600e-03   5.397459842299932e+00  2.78902517e+00   2.78155280e-01  -2.22476959e+00
C     4.436340966820568e+00   8.846943757018640e-01   4.395330912872812e+00 -5.30572100e-02   1.72336490e-01   2.49590729e+00
C     6.343075248045078e+00   2.702635430705847e+00   4.537593765125205e+00 -2.36352526e+00  -2.82544662e+00  -2.60939565e+00
C     4.463671430109944e+00   2.702294439672766e+00   6.194839401517777e+00 -9.16197110e-01  -1.04766120e+00  -6.01236210e-01
C     6.149369949723590e+00   9.122761928150832e-01   6.279485147476439e+00  1.88965749e+00  -9.32421850e-01  -1.58381127e+00
C     3.163148547983320e-02   3.632068725609241e+00   3.639045073736961e+00 -9.59458800e-01  -1.12466300e+00  -1.87801601e+00
C     1.754996470293466e+00   5.413208694782996e+00   3.551898797953261e+00  1.25911937e+00  -7.38468490e-01   6.88002900e-02
C     3.710561065526900e-02   5.336327123431029e+00   5.348248374670125e+00 -1.95625651e+00  -2.80954700e-02  -8.15794730e-01
C     1.759335024955357e+00   3.543205481425906e+00   5.228043313228723e+00  2.01287542e+00   8.49670800e-02   2.36276690e+00
C     9.460076485053168e-01   4.543675020676615e+00   4.395643328046960e+00 -1.38963893e+00  -2.30825422e+00   2.18781497e+00
C     2.707360683558266e+00   6.239000477044527e+00   4.480157354934474e+00 -8.27316740e-01  -1.13828541e+00  -2.24538871e+00
C     9.096988920257498e-01   6.194958609765115e+00   6.240227248620287e+00  1.21272490e-01   4.57498960e-01  -1.08901517e+00
C     2.755243942421526e+00   4.368359424925745e+00   6.159264163168368e+00 -4.03111683e+00   1.29514992e+00   2.07216260e-01
C     3.625470047975321e+00   3.450365216955134e+00   3.567787046603902e+00 -3.12279523e+00   2.15265201e+00  -1.03980359e+00
C     5.320519768629803e+00   5.391120266670512e+00   3.585981338636697e+00 -7.91784300e-02  -1.34559826e+00  -2.47354861e+00
C     3.582080947145103e+00   5.280736557342032e+00   5.254664711361754e+00  2.53541900e-01  -6.47716170e-01   1.47038663e+00
C     5.375625327043436e+00   3.487852905326228e+00   5.264123747173735e+00 -1.31797894e+00   3.27508536e+00   2.28492534e+00
C     4.505694078859920e+00   4.386639302366885e+00   4.357805692030285e+00 -1.47645045e+00   6.30050370e-01   1.79589260e+00
C     6.094663600324296e+00   6.245706776196914e+00   4.494621146776293e+00  4.12294700e+00  -1.84585100e-02   2.48726040e-01
C     4.394468874461684e+00   6.166690972037518e+00   6.180853793265606e+00  9.77251780e-01   1.21219036e+00   1.70326699e+00
C     6.211913121808755e+00   4.371145073582070e+00   6.172189976692123e+00  3.41967500e-01   2.42416149e+00   3.66764100e-02
