64
Lattice="7.10842262195238 0 0 0 7.10842262195238 0 0 0 7.10842262195238 " PBC="1 1 1" Properties=species:S:1:pos:R:3:force:R:3 Energy="-499.74432305"
C     6.563505158796040e-02   7.103242285931449e+00   6.966299661504769e+00  1.27886962e+00   3.30013290e-01   4.43231583e+00
C     1.834534530262754e+00   1.857424148688737e+00   8.369307515912980e-02 -1.80171603e+00  -3.53662581e+00  -4.65822250e+00
C     9.247631323262799e-03   1.711496051565019e+00   1.695217621596767e+00 -8.00075800e-02   2.03614195e+00   3.97780720e-01
C     1.772517665788373e+00   7.425237907750780e-02   1.669296332007580e+00  2.40995137e+00  -5.36087623e+00   6.36116590e+00
C     9.588806464490058e-01   8.949154344187096e-01   8.650779726397120e-01 -1.94621843e+00   1.63284222e+00  -2.30267004e+00
C     2.629029562665628e+00   2.695312689143854e+00   9.039205263621779e-01  1.29205307e+00   5.40017340e-01   3.50728270e+00
C     7.315117778733050e-01   2.690465242506597e+00   2.705487187692539e+00  4.15777807e+00  -3.67461571e+00  -1.21437080e+00
C     2.739449098444112e+00   8.230452299296162e-01   2.656192196096946e+00 -2.61491739e+00   4.47885665e+00  -2.47152663e+00
C     3.476481490576788e+00   7.090325713357099e+00   8.772291102663400e-03  1.36973073e+00  -2.42499750e-01  -1.33475400e-02
C     5.216419122970915e+00   1.667769442828803e+00   7.097002654724065e+00  2.87416484e+00   4.01293007e+00  -3.90263787e+00
C     3.571794917445510e+00   1.817512985793807e+00   1.764334947257813e+00  1.68740130e-01  -2.71874934e+00   9.32820200e-02
C     5.377942459564878e+00   8.260513107713879e-02   1.752916048245271e+00 -6.17274160e-01  -3.57389938e+00  -1.71964100e-02
C     4.396199562116976e+00   8.647108936956152e-01   8.486640561363223e-01  2.26444650e-01  -3.89692380e-01   1.98125213e+00
C     6.125142668328975e+00   2.622020729046534e+00   6.819652902854169e-01  3.12182755e+00  -3.73128670e-01   5.64403759e+00
C     4.516909463732850e+00   2.605984625205398e+00   2.646539811189700e+00 -2.88689836e+00   2.79300074e+00  -3.26608810e-01
C     6.319428013936255e+00   8.604025498298593e-01   2.586790960036457e+00 -3.26337513e+00   1.51894968e+00   2.23484254e+00
C     6.365457396180220e-02   3.566959768379387e+00   7.051701885798650e+00 -3.51424055e+00  -8.45855130e-01   1.97598434e+00
C     1.748802404075077e+00   5.314019258312266e+00   7.457787374927759e-02  3.33142265e+00  -1.85013229e+00   2.36046375e+00
C     7.084093261656562e+00   5.322376915123504e+00   1.684494281737592e+00 -6.23903820e-01  -1.88888750e-01   4.24674233e+00
C     1.715644953511408e+00   3.446136416338496e+00   1.927761919429411e+00  6.56751220e-01   4.73461428e+00  -3.99008503e+00
C     8.839187757097957e-01   4.388580541500181e+00   1.021571033966631e+00 -3.52912270e-01  -1.76156790e-01  -4.48459237e+00
C     2.659596064268533e+00   6.085696467357619e+00   1.002905240261452e+00  2.23034440e-01   4.61333607e+00  -2.98164145e+00
C     8.702946307478514e-01   6.221981065102367e+00   2.654517096306543e+00 -3.48816770e-01  -4.07185750e-01  -4.03321990e-01
C     2.643220035657708e+00   4.430532034939730e+00   2.684381072501913e+00  1.24486955e+00  -3.61383200e+00   9.59341910e-01
C     3.453828440455598e+00   3.615432102225166e+00   5.226958212515780e-02  4.33822074e+00  -3.68773110e-01  -5.96733100e-01
C     5.287160581032179e+00   5.474432543629889e+00   7.104721406510218e+00  6.60482940e-01  -5.36987917e+00   3.36267640e-01
C     3.641079575375032e+00   5.255405622251437e+00   1.842208214649496e+00 -1.59895145e+00   2.09410582e+00   2.45254300e-01
C     5.345407635738495e+00   3.457723713882906e+00   1.762075961633403e+00 -2.40431390e-01   2.62382349e+00  -2.46609789e+00
C     4.565103005243474e+00   4.461746256011770e+00   9.178087492244553e-01 -4.62128486e+00  -6.65093130e-01   1.03579610e-01
C     6.273959557321235e+00   6.233450931505093e+00   8.046335623331018e-01 -1.16446812e+00   1.93022431e+00   4.56723440e-01
C     4.516718247164373e+00   6.254803566792180e+00   2.747760834845226e+00  1.52183400e+00  -1.50194958e+00  -3.43541199e+00
C     6.096813045156132e+00   4.370705844148381e+00   2.649244992501968e+00  3.71157916e+00   1.28040323e+00   1.86270729e+00
C     7.075779961402471e+00   7.095903479334335e+00   3.596432070488394e+00  3.69274917e+00   2.96204666e+00  -4.02813678e+00
C     1.816976797475580e+00   1.857889750370347e+00   3.504085841389712e+00 -2.03362962e+00  -3.50393834e+00   1.63398584e+00
C     9.866170717542098e-02   1.816663529290717e+00   5.306235962048723e+00 -2.97564350e+00  -1.85143569e+00   2.07917998e+00
C     1.791685314130525e+00   7.031536357089103e+00   5.239652220377897e+00  2.01898999e+00   2.98906778e+00   1.29629257e+00
C     8.570355743716701e-01   9.354529204306884e-01   4.430580940887356e+00  3.34446061e+00  -2.14392052e+00  -8.78448340e-01
C     2.718212117193053e+00   2.722358531191525e+00   4.390756429664163e+00 -4.32470812e+00  -7.43768760e-01   1.61800108e+00
C     9.764744900230892e-01   2.671826887312731e+00   6.226403499151172e+00 -1.19662563e+00   1.54939390e+00  -3.65089400e-02
C     2.734279853514848e+00   9.153531446303763e-01   6.162803944380450e+00 -4.63824452e+00  -5.56555220e-01   2.09710841e+00
C     3.618833553533062e+00   7.087936714682970e+00   3.476590889200910e+00 -1.61453715e+00   1.82841818e+00   2.85058623e+00
C     5.412476811590040e+00   1.903047782169552e+00   3.497857228237390e+00 -1.92192342e+00  -7.85703855e+00   1.80913006e+00
C     3.452821816728380e+00   1.851896710343651e+00   5.279893569503527e+00  2.87338983e+00  -1.81883162e+00   1.64516428e+00
C     5.274089897855427e+00   7.056495948182031e+00   5.367247482311956e+00  1.38738772e+00   3.32893083e+00  -1.20071013e+00
C     4.304954427682131e+00   8.751798231092203e-01   4.565171743690209e+00  4.65196638e+00  -5.96587300e-02  -4.82957606e+00
C     6.163830827112135e+00   2.547846400449394e+00   4.519549887315049e+00  1.95766965e+00   5.78913863e+00  -3.31504370e-01
C     4.299521673526344e+00   2.708449551735197e+00   6.179029843105540e+00  2.75376088e+00  -5.21507030e-01   1.74680831e+00
C     6.313795797441751e+00   8.879375224380128e-01   6.173197169093151e+00 -3.47976023e+00  -9.67218040e-01   2.61677420e-01
C     6.985534271188000e+00   3.419265370403051e+00   3.628194706365567e+00  1.54967488e+00   5.30738689e+00  -1.36950830e+00
C     1.727195500510873e+00   5.211766233860768e+00   3.555973487967498e+00  1.75817991e+00   4.82412236e+00  -2.17634267e+00
C     7.080950414763580e+00   5.342529506503883e+00   5.351230926633026e+00  2.04733771e+00   1.23119790e-01   2.18675120e-01
C     1.791704577955825e+00   3.629856726658349e+00   5.411704979061961e+00  5.75018220e-01  -5.42529570e-01  -2.97809868e+00
C     8.152133831395788e-01   4.470962894612409e+00   4.431904742431878e+00  4.52004330e-01  -2.94198249e+00   2.47176505e+00
C     2.760470125815977e+00   6.215053196416914e+00   4.263402783014958e+00 -4.94146756e+00  -1.76207397e+00   5.34412849e+00
C     1.079888248804206e+00   6.189956768188551e+00   6.309261050315548e+00 -6.45283027e+00   1.44116034e+00  -5.19693208e+00
C     2.696569884768427e+00   4.530678194010886e+00   6.308690528316066e+00 -2.94020372e+00  -1.32334107e+00  -2.52566189e+00
C     3.574870021070923e+00   3.497648240612362e+00   3.573270839234101e+00  1.63049703e+00   4.18334664e+00  -1.30607286e+00
C     5.378574967009605e+00   5.364186097942201e+00   3.656331406948504e+00 -1.32200316e+00  -7.12154340e-01  -3.10020481e+00
C     3.543151955003578e+00   5.390832020133271e+00   5.325393303178076e+00 -1.41692019e+00  -1.46223031e+00   5.40982600e-02
C     5.351795761894410e+00   3.609719418386603e+00   5.375258319183565e+00 -3.81269090e+00  -2.55905807e+00  -3.08488500e-02
C     4.405637912419133e+00   4.521788756103445e+00   4.516670478564366e+00  3.00913159e+00  -2.76044450e+00  -1.62131552e+00
C     6.331856166792384e+00   6.287456035012924e+00   4.441135811130436e+00 -6.01164050e+00  -3.63416822e+00   3.18063083e+00
C     4.302211642814204e+00   6.215560666707756e+00   6.234251695313236e+00  4.85297700e+00   1.76263664e+00   5.72321050e-01
C     6.144049935150556e+00   4.461865464259107e+00   6.256555792968010e+00  3.59223348e+00   1.86641479e+00  -1.16909349e+00
