64
Lattice="7.10842262195238 0 0 0 7.10842262195238 0 0 0 7.10842262195238 " PBC="1 1 1" Properties=species:S:1:pos:R:3:force:R:3 Energy="-511.74619463"
C     4.075834470278220e-02   1.425572831173140e-02   7.094050313557300e+00 -7.37264840e-01  -1.28653950e-01  -2.63650400e-02
C     1.785995235075893e+00   1.801854836783375e+00   7.061610600425573e+00  1.79371930e-01   6.44326020e-01   1.77964203e+00
C     1.292780388208920e-02   1.753195764675368e+00   1.732397159847284e+00 -1.04132825e+00   3.75826950e-01   4.56649700e-01
C     1.770280218684502e+00   2.782343239807300e-02   1.823880497524124e+00 -1.72040150e-01  -6.07548110e-01  -2.25080946e+00
C     9.220912184318744e-01   9.387296189216034e-01   8.464421764779890e-01 -3.72614420e-01  -1.55051118e+00   8.52086330e-01
C     2.638187698948105e+00   2.656898062463112e+00   9.485604252366111e-01  9.48237210e-01   6.02796280e-01  -1.59805846e+00
C     7.789782699183549e-01   2.684099436797709e+00   2.668855566657571e+00  2.50726538e+00  -5.53189300e-01  -8.61558800e-02
C     2.677955413874564e+00   8.794104008315131e-01   2.660077944237943e+00 -2.71487250e-01   2.52771170e-01   7.79733510e-01
C     3.539777657870090e+00   7.061318799677022e+00   3.482558409990400e-03 -2.82166240e-01   1.58140005e+00   4.72923420e-01
C     5.310912664374647e+00   1.791252055771836e+00   7.067541441754345e+00 -6.07863040e-01  -2.45993424e+00  -2.85246180e-01
C     3.563431218475044e+00   1.716381883684424e+00   1.765852097897599e+00 -1.67280470e-01   2.26163336e+00   4.00382960e-01
C     5.320537966191710e+00   9.636604209029200e-03   1.773475099231061e+00  1.45194919e+00   2.50333340e-01  -1.07041924e+00
C     4.421945415835901e+00   8.579900933610838e-01   8.441380523699422e-01  6.81304890e-01   5.80881710e-01   1.25996796e+00
C     6.192552550876697e+00   2.588168288003308e+00   8.113414253384648e-01  1.62605951e+00   2.14585640e+00   2.74319363e+00
C     4.491210881024348e+00   2.666510071529876e+00   2.668885208779896e+00 -6.43218700e-01  -9.04402420e-01  -5.23308270e-01
C     6.257642102112798e+00   8.610379717278612e-01   2.651917546154409e+00 -1.45855753e+00   5.98714250e-01  -2.97667250e-01
C     7.074229756597502e+00   3.502871083048181e+00   7.009473377129601e-03  1.85303245e+00   2.03264006e+00  -1.17013495e+00
C     1.803485224595499e+00   5.328639222199046e+00   6.070500507985940e-02 -1.01798695e+00  -9.74582500e-02  -2.13199285e+00
C     7.104556420021208e+00   5.328151726575767e+00   1.788797162020018e+00 -8.66112700e-02  -2.98305110e-01  -5.52463410e-01
C     1.719605766595272e+00   3.580130822483532e+00   1.827764042054109e+00  1.38663827e+00  -1.40564887e+00  -5.03888610e-01
C     9.246284277176310e-01   4.435273708248401e+00   8.860366591451986e-01 -2.54346245e+00  -3.16646100e-02   1.16267051e+00
C     2.649433436785624e+00   6.203005557423634e+00   9.292635457712283e-01  1.16224929e+00   6.50374670e-01   4.45589740e-01
C     8.501424658728299e-01   6.232768878354704e+00   2.665834202707166e+00  1.69655369e+00  -1.14518717e+00  -4.75336240e-01
C     2.645560839226474e+00   4.417647165930266e+00   2.730078704662203e+00  1.61127560e+00   6.54257810e-01  -2.55349734e+00
C     3.565248060212491e+00   3.572390105671483e+00   6.737931633045600e-03 -8.13869050e-01  -7.89089090e-01   6.26506510e-01
C     5.341562761027562e+00   5.334533241898645e+00   7.060210952011696e+00  4.27883200e-02   1.00785188e+00   1.46305779e+00
C     3.590397090768241e+00   5.354972800300192e+00   1.825237495402282e+00 -1.32463290e-01  -1.50789302e+00  -7.32639170e-01
C     5.420071592485701e+00   3.537443251881682e+00   1.756360434425792e+00 -3.87049682e+00  -6.39928890e-01   8.41514600e-02
C     4.503520465391175e+00   4.447221687156549e+00   8.865063126277021e-01 -1.18410349e+00   2.50495890e-01   1.82506080e-01
C     6.241817473844607e+00   6.265801718269844e+00   8.556280356086839e-01 -5.90743950e-01  -1.92431271e+00   9.71011010e-01
C     4.512021285833981e+00   6.255997995045019e+00   2.685466102130630e+00 -1.66190454e+00  -1.06466393e+00  -1.43953010e-01
C     6.165848339620143e+00   4.365744449496527e+00   2.725490217860992e+00  2.17940997e+00   3.56636421e+00  -1.63600984e+00
C     7.091613119777807e+00   7.074332260051682e+00   3.521279836191421e+00  1.05682307e+00   1.42658535e+00   1.78190605e+00
C     1.766421980139045e+00   1.803917629943473e+00   3.556434540258631e+00 -5.54889410e-01   4.61149600e-02  -1.08298262e+00
C     7.104536658606325e+00   1.735955280789725e+00   5.356015179393190e+00  1.35675716e+00   1.88068774e+00  -1.62674423e+00
C     1.822981424231146e+00   7.098710666511199e+00   5.287295143472376e+00 -1.50144473e+00   1.82784250e-01   1.20359798e+00
C     8.925872838422071e-01   9.043978569411111e-01   4.405945067360543e+00  2.49122330e-01  -1.13132091e+00   1.15039315e+00
C     2.632934858968830e+00   2.711650829862115e+00   4.413123223606445e+00  5.44177700e-01  -1.22733941e+00   1.99489528e+00
C     9.028018028102425e-01   2.731658053999914e+00   6.177587330903264e+00 -1.15738163e+00  -3.33743765e+00   1.75191461e+00
C     2.691528591446323e+00   9.032575948686369e-01   6.260079153723839e+00 -1.14507841e+00  -1.17494294e+00  -2.28097393e+00
C     3.572360676801837e+00   7.087528335803451e+00   3.537407496515903e+00 -3.62716580e-01   1.26225191e+00   6.72432960e-01
C     5.383523708669196e+00   1.760822746725497e+00   3.573128812950153e+00 -1.56824197e+00   9.23849880e-01  -3.81127230e-01
C     3.507193217253819e+00   1.767413818347213e+00   5.334747774093317e+00  9.60491790e-01   1.44547284e+00  -4.87541940e-01
C     5.340871111506637e+00   3.170775885454580e-02   5.323063091159013e+00 -1.42195581e+00  -6.79277880e-01   4.10532890e-01
C     4.396239440367874e+00   9.438678000440182e-01   4.443076410505697e+00  1.87752591e+00  -2.28490360e+00  -4.21015720e-01
C     6.244227726702371e+00   2.655618190970381e+00   4.495319549298708e+00 -2.43028609e+00  -1.06346698e+00   2.57115910e-01
C     4.418324172100594e+00   2.657176783714042e+00   6.183522863790963e+00 -8.46957500e-01   2.35370250e-01   1.97178702e+00
C     6.231617669311396e+00   8.594429838603856e-01   6.188417012764833e+00 -2.01545150e-01   1.25361596e+00   1.39516973e+00
C     7.005786025063927e+00   3.523775461204850e+00   3.597236601760526e+00  3.16949574e+00   6.31929760e-01  -3.67602430e-01
C     1.808939161850694e+00   5.322387293420530e+00   3.520113486207932e+00 -2.92815204e+00   1.38497320e-01   1.34251038e+00
C     1.987891710950860e-02   5.327246397870883e+00   5.306964362114594e+00 -5.72065210e-01   1.10518680e-01   1.75976780e+00
C     1.744510622834026e+00   3.596601606367882e+00   5.345897477141239e+00  4.92519050e-01  -1.26658770e-01  -1.76615617e+00
C     8.466031111661058e-01   4.441857813615950e+00   4.426933182735676e+00  1.07152872e+00   3.91198580e-01  -1.58093180e-01
C     2.656160634700513e+00   6.179230371707650e+00   4.392600994249826e+00  1.21764170e+00   1.42317642e+00   1.17297757e+00
C     9.043515100256285e-01   6.212385476491854e+00   6.229996877869809e+00  7.86189740e-01   9.06060500e-02  -5.26607990e-01
C     2.635446193596250e+00   4.452335059884020e+00   6.219503068977034e+00  1.68154933e+00   2.68301120e-01   5.30415810e-01
C     3.572790594201894e+00   3.555517980246008e+00   3.580545314606505e+00  3.11338120e-01   3.60605180e-01  -9.76415550e-01
C     5.379367769384414e+00   5.380553809698561e+00   3.603158628645248e+00 -1.42130572e+00  -1.72474123e+00  -1.25081645e+00
C     3.548102544853050e+00   5.322320474247902e+00   5.297297120604073e+00 -4.28067190e-01   8.61415680e-01   1.06862799e+00
C     5.290508150496616e+00   3.538855340035145e+00   5.411040625883896e+00  1.73437068e+00   1.09362059e+00  -3.77860695e+00
C     4.469897555314350e+00   4.503707487990307e+00   4.437151042662343e+00 -8.74660330e-01  -2.24612639e+00   1.31279160e+00
C     6.244361365047626e+00   6.237689257408042e+00   4.491263554435962e+00 -3.59678730e-01  -2.64420200e-02  -1.69895567e+00
C     4.402011266282635e+00   6.246764225145864e+00   6.219894458726491e+00  1.43418678e+00  -1.53761412e+00  -1.22469195e+00
C     6.212153741914443e+00   4.429680588078306e+00   6.213850238056931e+00  1.76579750e-01   1.60002760e-01   5.64808160e-01
