64
Lattice="7.10842262195238 0 0 0 7.10842262195238 0 0 0 7.10842262195238 " PBC="1 1 1" Properties=species:S:1:pos:R:3:force:R:3 Energy="-506.84262288"
C     7.036460361437977e+00   7.099413405171411e+00   7.022947960879619e+00  1.38407591e+00  -2.61564800e-01   1.85012909e+00
C     1.714134982378468e+00   1.846855274853095e+00   7.071829384447180e+00  2.96597625e+00  -1.49277031e+00   1.32245260e-01
C     8.220933410565720e-02   1.753917127402846e+00   1.747896009106801e+00 -2.15166923e+00  -7.04318680e-01   1.28727402e+00
C     1.730621831297939e+00   5.001507480699860e-02   1.631753766613859e+00  2.67731064e+00  -1.77666028e+00   4.96810732e+00
C     8.830602915099784e-01   8.694977054879232e-01   7.951677024354049e-01 -1.36081766e+00   1.91837372e+00  -4.70584270e-01
C     2.598272199915376e+00   2.698599055089532e+00   9.436158064621392e-01  1.69543575e+00  -3.97633850e-01  -1.25948395e+00
C     8.835248269281953e-01   2.576040608171327e+00   2.711145136676928e+00  1.89402870e-01   2.77841033e+00  -3.96954350e-01
C     2.623016761224049e+00   8.959565339956348e-01   2.722014910042074e+00  1.07652270e+00  -1.10801990e-01  -2.13274825e+00
C     3.626094025312904e+00   1.033504938197992e-01   7.094192055504343e+00 -2.00209214e+00  -4.10982085e+00   9.01721290e-01
C     5.319532479812112e+00   1.824344393184305e+00   1.491517667818880e-02  1.40833055e+00  -1.38285039e+00   2.10635800e-01
C     3.577469571223057e+00   1.785946755633625e+00   1.841106195890718e+00 -1.82329477e+00   9.24992700e-02  -1.37864932e+00
C     5.378547030908709e+00   7.064861637510830e+00   1.786021678408040e+00 -1.13724588e+00   9.14977620e-01  -1.70009550e-01
C     4.469786735005703e+00   8.829758434492527e-01   9.068400266164381e-01  6.53059440e-01   1.61264121e+00   1.14701414e+00
C     6.280166418700341e+00   2.762465460045411e+00   9.527152271737751e-01  2.36904730e-01  -5.45315525e+00  -2.71780470e+00
C     4.477383648428150e+00   2.700368981237686e+00   2.669574796858263e+00 -1.60228070e-01  -2.59825627e+00  -3.10929320e-01
C     6.343546394296332e+00   7.783228022685648e-01   2.693535085899271e+00 -4.43085339e+00   3.81825754e+00  -2.42643336e+00
C     3.628323724236120e-02   3.535187251794773e+00   7.075318056100624e+00 -1.09508928e+00   9.13126300e-01  -4.30071610e-01
C     1.769257032332579e+00   5.348706370339531e+00   7.100394580745650e+00  1.88920554e+00  -2.27041684e+00  -6.79844660e-01
C     1.838124354770080e-02   5.365779166535570e+00   1.687006113954595e+00 -5.78558050e-01  -1.04747328e+00   1.34389413e+00
C     1.656223800640947e+00   3.610239754922387e+00   1.800603896570708e+00  4.72405910e+00  -2.94035033e+00   8.88767700e-01
C     9.341881898781380e-01   4.399904400902293e+00   8.104309785692951e-01 -2.40035279e+00   2.90077318e+00   1.47959303e+00
C     2.679540307781919e+00   6.220487727678357e+00   8.822455951935002e-01  2.09581610e-01   3.94167000e-01  -8.03755040e-01
C     8.904241908389411e-01   6.298625286223051e+00   2.594685289861324e+00 -1.91836030e-01  -2.51803474e+00   1.29368617e+00
C     2.624662645397483e+00   4.429807971011656e+00   2.704645266117426e+00 -2.67247920e-01   7.79488620e-01  -7.12698350e-01
C     3.623705239891453e+00   3.523940589862313e+00   4.889883920298000e-03 -3.35318961e+00   6.55210300e-02   2.97864130e-01
C     5.231337640607736e+00   5.238287687571762e+00   1.179187794741320e-02  4.00411708e+00   1.46873665e+00  -2.65349620e-01
C     3.555076973706663e+00   5.255296579048445e+00   1.795601699573014e+00  3.31886470e-01   2.14199550e+00   1.42990610e-01
C     5.405806765393016e+00   3.511565608007382e+00   1.808419109651814e+00 -6.58006320e-01   2.99128482e+00   7.96433310e-01
C     4.539354094902822e+00   4.329258195704138e+00   9.081603450338769e-01 -4.23295016e+00   2.01261647e+00   4.54646560e-01
C     6.129831454973353e+00   6.192925814148473e+00   8.358465749732956e-01  2.61149479e+00  -3.40106050e-01   3.36625600e-02
C     4.463245777763458e+00   6.241007326918606e+00   2.672558130747650e+00 -1.38857554e+00  -7.61439710e-01   1.07319855e+00
C     6.304882901739663e+00   4.468770657076401e+00   2.651593828588294e+00 -1.80113468e+00  -1.30441510e-01   9.41404920e-01
C     7.060803510121299e+00   7.054017099045985e+00   3.615009293247729e+00  2.59803967e+00   2.63705870e-01  -4.70501310e-01
C     1.729718279698711e+00   1.657763200643534e+00   3.626855266291280e+00  4.60233800e-02   2.91538684e+00  -1.09675814e+00
C     7.094487268295752e+00   1.777065918917554e+00   5.300686700846194e+00 -1.30910447e+00  -8.80599370e-01   8.32457640e-01
C     1.777959092219757e+00   7.105915621510378e+00   5.466557193293418e+00  1.61490100e+00   1.46000450e+00  -3.55722640e+00
C     8.148777945076886e-01   8.472693836182784e-01   4.533357500664816e+00  2.39775390e+00  -1.30141941e+00  -1.55342402e+00
C     2.586999236819223e+00   2.633789646788885e+00   4.439322239267396e+00  2.72148111e+00   1.00530774e+00  -1.06647449e+00
C     8.460235614698971e-01   2.637441527825684e+00   6.123701719979675e+00  1.32433766e+00   2.24464091e+00   1.92554786e+00
C     2.752096475053842e+00   9.814062425526190e-01   6.231841229202794e+00 -2.58787252e+00  -1.09516005e+00   5.48715750e-01
C     3.532220764866994e+00   1.143805621150270e-01   3.619274915493539e+00  6.55272620e-01  -3.47521932e+00  -1.85748531e+00
C     5.387707086465293e+00   1.759056801294010e+00   3.508846636355232e+00  3.62257730e-01   3.00817560e-01   6.78347070e-01
C     3.595620715130548e+00   1.894218836938607e+00   5.341158291780485e+00 -2.37076390e+00  -4.07576411e+00  -1.74704568e+00
C     5.302549036488408e+00   7.085368015085007e+00   5.384558197413085e+00 -6.69462270e-01   6.88653900e-01  -2.18361585e+00
C     4.474034941616094e+00   9.601556131301290e-01   4.399041438396225e+00 -7.42688000e-01  -8.12317580e-01   2.27907209e+00
C     6.268998233753606e+00   2.644850707806736e+00   4.427219865419941e+00 -1.31000418e+00   5.08085530e-01  -1.06551594e+00
C     4.437809780186538e+00   2.635256256543843e+00   6.211189057880683e+00  1.78899896e+00   2.81167180e+00   6.19301820e-01
C     6.166700781660734e+00   8.921424387546475e-01   6.171723308747121e+00  9.61008320e-01   6.03308620e-01   2.05239774e+00
C     2.769057597930520e-02   3.559116192692026e+00   3.593196600848675e+00  5.95341200e-02   7.29481470e-01  -1.41512323e+00
C     1.761702556193174e+00   5.382934918023582e+00   3.602874576077353e+00  1.45895442e+00   1.94891175e+00  -2.06439252e+00
C     7.013419262525962e+00   5.409797576020336e+00   5.347945555866514e+00  3.77624354e+00  -3.60615718e+00   1.29168952e+00
C     1.783423905361561e+00   3.614620817951546e+00   5.198824426386118e+00 -1.80169562e+00  -8.15063430e-01   4.59943283e+00
C     8.745768867025918e-01   4.600348412783315e+00   4.484212425702280e+00 -8.45920000e-01  -4.19876251e+00  -2.08656995e+00
C     2.712323073389288e+00   6.303335469219516e+00   4.530682956654041e+00 -1.21634939e+00  -1.66729841e+00  -1.49241862e+00
C     9.403002959837188e-01   6.168357044131193e+00   6.200020019923233e+00 -3.99713115e+00   2.41471013e+00   2.09582053e+00
C     2.644155148653369e+00   4.418682152263738e+00   6.174523529669817e+00  1.91748107e+00   5.13762410e-01   1.28875849e+00
C     3.505108316899373e+00   3.499194820121796e+00   3.520420214643984e+00  1.00949931e+00   1.02664851e+00   5.28755950e-01
C     5.303967806559133e+00   5.375768917180360e+00   3.618037339115397e+00  8.66214260e-01  -2.23189137e+00  -2.74572172e+00
C     3.567614596271141e+00   5.300354097751804e+00   5.354968748499299e+00 -5.64343080e-01   1.75678150e-01  -1.31609321e+00
C     5.349584260533102e+00   3.497619096079620e+00   5.235974749019666e+00  5.43221000e-02   8.60265220e-01   3.31237575e+00
C     4.468826173857063e+00   4.364286014427581e+00   4.386043332214425e+00 -1.89638702e+00   2.01591975e+00   1.38054939e+00
C     6.168368488691611e+00   6.206570004862206e+00   4.506043813252823e+00 -5.32419090e-01   1.43684176e+00  -1.36598763e+00
C     4.426233429612964e+00   6.126073445186837e+00   6.244248909801778e+00 -2.62827480e-01   3.02430728e+00  -1.63984020e-01
C     6.207594328561748e+00   4.408067997776007e+00   6.230124260803160e+00 -5.02224460e-01   6.89154300e-01  -1.29951667e+00
