64
Lattice="7.10842262195238 0 0 0 7.10842262195238 0 0 0 7.10842262195238 " PBC="1 1 1" Properties=species:S:1:pos:R:3:force:R:3 Energy="-502.69668179"
C     6.986121782317543e+00   1.640417796440020e-02   7.073095821021160e+00  7.44035196e+00  -3.03807308e+00   4.90145282e+00
C     1.823015473575496e+00   1.713033532293499e+00   6.085200725964100e-02 -1.28581534e+00   2.07296024e+00  -1.44461602e+00
C     7.097721102998269e+00   1.881702539641990e+00   1.753902128631117e+00  2.43057801e+00  -3.95027660e+00   3.59104197e+00
C     1.843704182189875e+00   7.021368042868098e+00   1.699681142328317e+00 -2.95429157e+00   3.88659674e+00   1.76388569e+00
C     9.148598201005483e-01   9.103043163802952e-01   9.599570038021261e-01 -1.81497351e+00  -8.28825600e-01  -3.31212805e+00
C     2.692536992279196e+00   2.681742923614952e+00   9.331182301053755e-01 -1.06539058e+00  -1.07761372e+00  -2.51189326e+00
C     1.001363210142495e+00   2.602323218882288e+00   2.764121864684323e+00 -5.74808290e+00   3.96919918e+00  -4.59859423e+00
C     2.558149277110596e+00   8.977197782265258e-01   2.607446116896070e+00  4.89570969e+00  -7.67559870e-01   2.50815445e+00
C     3.538668459604465e+00   1.553808775237940e-02   7.050044201643667e+00  1.80620052e+00  -1.87070147e+00   7.13198460e-01
C     5.345250823935498e+00   1.772986181923258e+00   1.257107480132712e-01 -1.13128820e+00  -1.50595760e-01  -3.40430446e+00
C     3.531173125541259e+00   1.786720223098907e+00   1.793232177976863e+00 -8.65133720e-01  -8.23819790e-01  -1.58883801e+00
C     5.304414855257705e+00   7.060780621000462e+00   1.878150531943002e+00  2.18174078e+00   1.22497531e+00  -3.87054685e+00
C     4.427962340162599e+00   8.549781125285374e-01   9.425532394489016e-01 -5.60222160e-01   6.57152220e-01  -7.64738460e-01
C     6.183342167687964e+00   2.707031279254055e+00   9.837212425472744e-01  2.13913803e+00   4.27809860e-01  -4.30573204e+00
C     4.375827746982996e+00   2.665517309226767e+00   2.562736910901092e+00  2.01766418e+00  -4.00674770e-01   4.43144486e+00
C     6.251532839376266e+00   9.041591561095315e-01   2.675643754838540e+00  8.29898020e-01  -1.65037049e+00  -5.21800250e-01
C     7.101169256642778e+00   3.585339092652980e+00   7.100855846289462e+00  1.42755272e+00  -1.21850631e+00   5.18104250e-01
C     1.791947543840977e+00   5.335958338465503e+00   6.763500629209740e-02 -2.15803725e+00  -3.97413030e-01  -4.52288373e+00
C     7.103962937816664e+00   5.371226848378859e+00   1.800834067295144e+00  1.21891530e+00   5.13644620e-01  -7.23128290e-01
C     1.814955090998226e+00   3.565223465070225e+00   1.819528650111934e+00 -1.00754845e+00  -1.43813624e+00  -8.99879720e-01
C     9.170714636303089e-01   4.509228955260393e+00   9.170137432386347e-01 -2.01793263e+00  -3.26209026e+00   5.22484320e-01
C     2.652516786181275e+00   6.165466901662354e+00   8.306879926779616e-01  2.75687997e+00   2.14356466e+00   5.04010840e-01
C     9.782962365721428e-01   6.235460340411315e+00   2.586866167147777e+00 -3.01310165e+00  -4.04423720e-01   2.93815710e+00
C     2.664441022957873e+00   4.414738186141483e+00   2.657377454484605e+00 -1.26875100e+00   3.24744964e+00  -4.32878650e-01
C     3.517380795300125e+00   3.563077219028568e+00   7.096776251463618e+00 -2.95877090e-01  -2.97279170e-01   5.38291010e-01
C     5.277006554740640e+00   5.222613118105079e+00   4.207382939283940e-02  2.29573707e+00   3.56642946e+00  -7.23493820e-01
C     3.468548419848642e+00   5.301244783106090e+00   1.738913948452621e+00  3.32056750e+00   2.80950080e-01   8.91576160e-01
C     5.359897515491329e+00   3.607082335763036e+00   1.762233981868246e+00 -2.20518546e+00  -1.45842072e+00   2.31983060e+00
C     4.387370048212222e+00   4.361136485617338e+00   9.362645601254399e-01  7.76256770e-01   3.15295153e+00  -2.65714245e+00
C     6.249325176563173e+00   6.228314598572560e+00   9.283208978475900e-01 -2.92030451e+00  -9.85257480e-01  -6.01520360e-01
C     4.430775214077561e+00   6.206311258278839e+00   2.655048237644710e+00 -3.22600355e+00   3.34218850e-01   3.24720110e-01
C     6.229834948002525e+00   4.526455862058833e+00   2.685695988518161e+00 -3.89326600e-01  -2.12244826e+00  -1.55854211e+00
C     6.863530352318380e-02   3.596684135154500e-02   3.571549037107084e+00 -1.56392842e+00  -2.30408157e+00  -1.30561575e+00
C     1.716871298581811e+00   1.706486390723574e+00   3.606747884478765e+00  2.05720576e+00   3.98240660e-01  -1.01436424e+00
C     6.432958977379741e-02   1.710358135272010e+00   5.326358626969872e+00 -2.63536637e+00   1.35276054e+00   1.66873957e+00
C     1.812616491040472e+00   4.854462650382540e-02   5.284363843236566e+00  4.06958850e-01  -4.18899894e+00   2.85731815e+00
C     9.374628980107196e-01   8.242665991041845e-01   4.515638193431490e+00 -3.16521426e+00   2.28435212e+00  -3.24832584e+00
C     2.560317914683505e+00   2.659744203795934e+00   4.410816256129351e+00  5.83079133e+00  -7.54744080e-01  -1.08678478e+00
C     9.253364266105830e-01   2.581571885064627e+00   6.252077699970089e+00 -1.01539985e+00   2.07241398e+00  -3.52308340e-01
C     2.627741445402658e+00   8.619328510514930e-01   6.175443288472620e+00  3.54408910e+00   2.18299991e+00   1.67390114e+00
C     3.558061587112122e+00   6.141435457310920e-02   3.548517605649832e+00  6.06625100e-02  -1.39444914e+00   4.13148680e-01
C     5.357826334392540e+00   1.603890740301793e+00   3.534661370689345e+00 -1.17486417e+00   7.52928751e+00   1.14300982e+00
C     3.629343356376733e+00   1.850607740069967e+00   5.226136621029361e+00 -2.29146735e+00  -8.55859760e-01   3.62250249e+00
C     5.351164391797302e+00   7.056935604121078e+00   5.332050980719742e+00  5.86982740e-01   1.64087164e+00   1.69014938e+00
C     4.567676609653045e+00   8.947580539419027e-01   4.562960455581580e+00 -4.30046640e+00  -7.31955400e-02  -5.20595212e+00
C     6.103871993154697e+00   2.715944032787689e+00   4.301404979015286e+00  4.55804284e+00  -1.90534426e+00   3.20224576e+00
C     4.397152232916508e+00   2.778972923390479e+00   6.173655449099464e+00  1.40227498e+00  -2.75555308e+00   1.42126549e+00
C     6.228524297039850e+00   7.888211605518165e-01   6.271267953096172e+00 -2.29362251e+00   5.88817585e+00  -3.21167945e+00
C     5.508011026065340e-02   3.574969894408734e+00   3.461207054219384e+00 -1.94671843e+00   3.91589390e-01   4.45009513e+00
C     1.795395057727450e+00   5.394369313397436e+00   3.489653184438970e+00  6.04765440e-01  -2.05529286e+00   3.24331508e+00
C     7.059183003016616e+00   5.419212966117430e+00   5.448216254501971e+00  2.69099685e+00  -2.21332156e+00  -5.18717540e+00
C     1.827430514864778e+00   3.514686845295597e+00   5.303349871380776e+00 -3.48223580e+00   1.71284784e+00   2.65649165e+00
C     9.262876046413651e-01   4.458141503816941e+00   4.503908727434680e+00 -1.94806045e+00   5.03161980e-01  -2.64251695e+00
C     2.700161202044503e+00   6.281733683719597e+00   4.435365975574009e+00  2.22862810e-01  -1.14629694e+00  -1.04047152e+00
C     9.467877978878617e-01   6.217902110034558e+00   6.207173154521513e+00 -2.54187817e+00   1.76710559e+00   1.67016580e+00
C     2.586404332930155e+00   4.464891946273798e+00   6.227312666404271e+00  4.04337252e+00  -1.01954859e+00  -2.37811770e-01
C     3.477420442120664e+00   3.579158816774473e+00   3.485083534957703e+00  2.38394341e+00  -2.58756032e+00   1.63634391e+00
C     5.150516865776670e+00   5.285490243884932e+00   3.519044450530110e+00  8.08647526e+00   3.23589993e+00  -6.76415600e-01
C     3.598448658901463e+00   5.341276362680203e+00   5.320753138144418e+00 -1.89029987e+00   2.36201650e-01  -7.85665100e-01
C     5.328216199968930e+00   3.617508756809373e+00   5.334785519817429e+00  4.95272990e-01  -1.00625512e+00  -3.07917892e+00
C     4.447258579869947e+00   4.447881633112591e+00   4.333023313913273e+00 -4.36806891e+00  -2.45894009e+00   5.29386505e+00
C     6.134506948867432e+00   6.217736910292869e+00   4.443782845545672e+00  3.34742762e+00  -4.51797260e-01  -9.02787020e-01
C     4.548903478766304e+00   6.190660999617515e+00   6.174523316417138e+00 -4.63301050e+00  -1.07939397e+00   2.71790799e+00
C     6.268869997809541e+00   4.484075730735297e+00   6.198596700462031e+00 -2.67482113e+00  -2.26977192e+00   2.58259780e+00
