64
Lattice="7.10842262195238 0 0 0 7.10842262195238 0 0 0 7.10842262195238 " PBC="1 1 1" Properties=species:S:1:pos:R:3:force:R:3 Energy="-514.63369586"
C     7.093673424989988e+00   1.741741252465500e-02   1.951546346094800e-03  4.86388600e-01  -4.58423140e-01  -4.32123410e-01
C     1.773884331121295e+00   1.787370501600185e+00   4.405800339876000e-03 -6.71027350e-01  -5.66158270e-01  -4.17302620e-01
C     7.084829409903089e+00   1.789289562454906e+00   1.786306512902423e+00  1.12043977e+00  -1.93725230e-01  -5.55206390e-01
C     1.775626889842361e+00   1.174510452657360e-02   1.765714123414545e+00  1.31600540e-01  -6.45841660e-01   3.79386640e-01
C     8.877882455629927e-01   9.005445942914876e-01   8.735716846598975e-01 -5.27126070e-01  -1.81733300e-01   8.75205770e-01
C     2.650431032816114e+00   2.638247196445434e+00   8.663108574589248e-01  9.37209430e-01   1.22264148e+00   8.84000200e-01
C     8.877455950272728e-01   2.670410107600339e+00   2.665095068923139e+00 -1.45576000e-03   1.34250000e-03  -3.95838930e-01
C     2.667298751019565e+00   8.701498321790819e-01   2.669570034215107e+00  3.59924180e-01   8.38247780e-01  -3.87909180e-01
C     3.543773657645923e+00   5.094677575980200e-03   1.507355233416240e-02  6.89218510e-01   6.52786000e-03  -5.55927860e-01
C     5.347700670707255e+00   1.754378677283562e+00   7.096793596014811e+00 -6.19214090e-01   1.66278120e+00   7.64906210e-01
C     3.557502509673060e+00   1.756360505510018e+00   1.755928882088532e+00 -2.52519070e-01   8.78589910e-01   1.15853383e+00
C     5.319512434060323e+00   2.204513781872740e-02   1.775711337903087e+00  4.47795200e-01  -1.04922548e+00   4.06386580e-01
C     4.454218720794094e+00   9.020675738378227e-01   9.057177488531926e-01 -5.31323870e-01  -7.91581540e-01  -1.24419220e+00
C     6.216150381448311e+00   2.664351385748634e+00   9.057952306597506e-01  2.39775030e-01   8.45262800e-02  -9.81929290e-01
C     4.442727102618150e+00   2.659262181658072e+00   2.678383980674324e+00 -3.97283130e-01   2.19674900e-01  -3.09682660e-01
C     6.199502668924950e+00   9.084312470199252e-01   2.653385719762344e+00  7.19483900e-01  -7.44639800e-01   6.97758760e-01
C     7.102099891332188e+00   3.564332211042130e+00   7.090649146586309e+00  2.39485160e-01  -5.12139760e-01   1.40407547e+00
C     1.790744940902125e+00   5.345058114598269e+00   7.079151912756495e+00 -3.73873510e-01  -4.25735560e-01   6.66483380e-01
C     8.266029243666999e-03   5.306166157338595e+00   1.783309673010057e+00  1.42410700e-02   1.67083292e+00   2.40846650e-01
C     1.784677191353693e+00   3.569519084859491e+00   1.779590688463726e+00 -3.11183870e-01  -7.33470630e-01  -4.62469510e-01
C     9.026965270712403e-01   4.461655694707590e+00   9.021624712797995e-01 -2.78551170e-01  -4.82378440e-01  -1.24573954e+00
C     2.666364704287297e+00   6.229420384795327e+00   8.624144466839979e-01  5.15434000e-03  -1.67668680e-01   8.92099310e-01
C     9.172024718591956e-01   6.228437076694302e+00   2.689443264586520e+00 -1.49606523e+00  -4.58637700e-01  -9.40186320e-01
C     2.641688028414646e+00   4.457459379582326e+00   2.668373828856614e+00  1.01306325e+00  -3.48593660e-01  -1.32581600e-02
C     3.560016403332623e+00   3.530918644011463e+00   7.084253343333964e+00  1.41202410e-01   3.38529780e-01   8.29727050e-01
C     5.344273273656795e+00   5.329303433208659e+00   2.291684368461800e-03 -5.78765430e-01  -1.64758520e-01  -8.85571600e-02
C     3.552876845821547e+00   5.337026734385288e+00   1.776363891099603e+00 -3.05144740e-01  -1.77219850e-01  -2.04117310e-01
C     5.345757583384077e+00   3.535689390768649e+00   1.787502433924012e+00 -8.70441470e-01   7.23920500e-01  -1.48725250e-01
C     4.435909840988665e+00   4.437955005260665e+00   8.867264604762434e-01  3.30042920e-01  -3.02487750e-01   1.35761910e-01
C     6.216267315000410e+00   6.223515133787988e+00   8.994871453425364e-01  2.65402890e-01  -1.52360800e-02  -2.54800980e-01
C     4.449672671275926e+00   6.204625495854505e+00   2.670131741770540e+00 -2.48035190e-01   7.13273990e-01  -2.52875020e-01
C     6.231939965192987e+00   4.441188839963182e+00   2.672871256764061e+00 -2.56811710e-01  -3.94338530e-01  -1.06325600e-01
C     4.455346045537400e-03   1.069199171542060e-02   3.551084812479045e+00 -4.05805680e-01  -3.74552680e-01  -7.25588300e-02
C     1.776789685614541e+00   1.796750349584179e+00   3.538793852179482e+00  2.06963290e-01  -5.91541000e-01   7.52580970e-01
C     7.101023889400198e+00   1.794135445239186e+00   5.327987948518602e+00  4.48324400e-02  -4.43323980e-01  -1.76814540e-01
C     1.777108142947917e+00   1.493643086182260e-02   5.323326955806667e+00 -2.55146770e-01  -1.72541510e-01   4.24074200e-02
C     8.844055604908134e-01   8.924329599871269e-01   4.427993546137902e+00  1.13021440e-01   6.12940700e-01   4.28614040e-01
C     2.651465450475777e+00   2.689258801019531e+00   4.476058709536009e+00  9.52591800e-01  -1.33967050e+00  -1.23147690e+00
C     8.633176428620951e-01   2.667010077976967e+00   6.235612744992287e+00  9.20502820e-01   1.12273500e-02  -4.41832920e-01
C     2.661571779251536e+00   8.896592534808030e-01   6.233537085587248e+00  8.06659600e-02   1.22175520e-01  -2.61280120e-01
C     3.564915741455005e+00   7.093416739849180e+00   3.561552462376579e+00 -4.43884340e-01   7.50522500e-02  -3.01623100e-02
C     5.336692212016791e+00   1.777947363322434e+00   3.561634920078971e+00 -6.99521530e-01  -3.31876700e-01   1.02751180e-01
C     3.569275052710947e+00   1.754434691653808e+00   5.351794198041434e+00 -4.79930060e-01   9.61192960e-01  -5.45858390e-01
C     5.332768789235908e+00   9.948237456689998e-04   5.358834450888508e+00  1.65939040e-01  -4.19881850e-01  -1.07888743e+00
C     4.448906383317490e+00   8.636555061892238e-01   4.470796273186196e+00 -1.03814080e-01   6.79250780e-01  -8.84427200e-01
C     6.221688198090422e+00   2.664740216465948e+00   4.422679431555642e+00 -1.51288620e-01   3.22568790e-01   5.04462600e-01
C     4.469912198664947e+00   2.669013800145092e+00   6.209004852862235e+00 -5.30318920e-01  -5.02122920e-01   8.56811500e-02
C     6.205184928714699e+00   9.147838310627406e-01   6.209780026348946e+00  8.33725800e-01  -1.19164332e+00   3.73949860e-01
C     2.424469703003400e-03   3.539245734605435e+00   3.550259808949768e+00  1.12583150e-01   1.49081480e-01   6.03780300e-02
C     1.747021104450731e+00   5.305808674765035e+00   3.575730424544847e+00  1.31193374e+00   9.69418160e-01  -3.48998170e-01
C     7.104555282673589e+00   5.311546166998542e+00   5.314619209181394e+00  2.44240740e-01   1.23357180e-01   3.74827170e-01
C     1.777136292301492e+00   3.543082647883033e+00   5.354656617662055e+00 -2.45700780e-01   3.43943400e-02  -4.59933250e-01
C     8.934006295583876e-01   4.395515731860931e+00   4.444785915061580e+00 -4.90412320e-01   1.28417359e+00   3.13093770e-01
C     2.658858565421708e+00   6.227152513642642e+00   4.447001326055330e+00  1.22041010e-01  -7.08625220e-01   2.29635900e-01
C     8.753858962809740e-01   6.231627407850385e+00   6.194937000160349e+00  2.66814330e-01  -3.74461170e-01   4.37025940e-01
C     2.686233314184006e+00   4.413564159061564e+00   6.205308046594477e+00 -6.04288180e-01   1.25012105e+00   5.23713020e-01
C     3.552926320442983e+00   3.576801379496776e+00   3.553727155335352e+00 -3.38633060e-01  -5.34761940e-01   4.56938410e-01
C     5.330877237976727e+00   5.328103247133498e+00   3.557056100732523e+00  2.46496060e-01   1.19416810e-01  -2.92863740e-01
C     3.565425202104181e+00   5.339741298815414e+00   5.340719062346795e+00 -4.99381920e-01  -2.08654780e-01  -5.05880080e-01
C     5.334621528507586e+00   3.581463509556329e+00   5.306080074340666e+00 -4.64621100e-02  -1.34500641e+00   5.05232750e-01
C     4.439939250350812e+00   4.462400373061262e+00   4.446869464815729e+00  1.29225820e-01  -1.87984950e-01  -4.80552320e-01
C     6.219395447458568e+00   6.199629341016038e+00   4.439757985574002e+00  1.26285480e-01   8.45395300e-01   1.29346690e-01
C     4.443197609111367e+00   6.222995365926014e+00   6.213185245120830e+00  1.35392630e-01  -3.86818400e-02   1.09530857e+00
C     6.224247585654753e+00   4.412279596009903e+00   6.209919067095393e+00 -1.64289510e-01   1.65783088e+00   8.92158000e-02
