64
Lattice="7.10842262195238 0 0 0 7.10842262195238 0 0 0 7.10842262195238 " PBC="1 1 1" Properties=species:S:1:pos:R:3:force:R:3 Energy="-510.9524596"
C     1.925415784543680e-02   3.530234600502740e-02   4.064134006645700e-02 -1.05131422e+00  -4.22360400e-02   1.15005850e-01
C     1.797618714491439e+00   1.790662767536638e+00   7.099668526459244e+00  1.24999928e+00  -1.84902097e+00   1.95732728e+00
C     7.097625921219387e+00   1.867370324702867e+00   1.792503067068730e+00 -1.57638130e-01  -2.99093703e+00   1.51270491e+00
C     1.755142761630986e+00   7.089375814842389e+00   1.791018046499185e+00  6.28067980e-01   1.90106287e+00  -1.29177090e-01
C     8.795512897678416e-01   9.429905496084841e-01   9.804230055358206e-01  4.40855960e-01  -1.01862774e+00  -2.93416817e+00
C     2.746604294484952e+00   2.623125022500551e+00   8.888910462482595e-01 -2.64498335e+00   1.86121601e+00  -1.41796048e+00
C     8.999594289414092e-01   2.658863328064863e+00   2.706128865002446e+00  2.13561290e-01   1.97293656e+00  -1.52825477e+00
C     2.666997140647799e+00   9.154638227705698e-01   2.670682289102459e+00 -2.31332000e-01  -1.51789610e+00   7.02430480e-01
C     3.529798143353872e+00   7.024880456653093e+00   3.114079106637460e-02  1.35417723e+00   2.74910597e+00  -2.23787391e+00
C     5.288258974495421e+00   1.771417566303702e+00   2.431834028837720e-02  1.54889471e+00  -2.30361429e+00   4.74616100e-01
C     3.544579823855257e+00   1.750240580139555e+00   1.764191357120889e+00 -1.29472880e-01  -3.02567930e-01   4.62817720e-01
C     5.262362137880046e+00   7.085546223240089e+00   1.870358847740768e+00  2.93598346e+00   1.33774199e+00  -2.41074331e+00
C     4.377654469427884e+00   7.814994141689904e-01   9.284423097059397e-01  1.41782999e+00   2.87500155e+00   5.64124700e-02
C     6.227850560743926e+00   2.658573659843098e+00   8.933878343976716e-01 -1.33817794e+00   8.21408060e-01  -4.83850470e-01
C     4.391389292530021e+00   2.675115527953648e+00   2.605088821786826e+00  1.86915843e+00  -7.15641940e-01   1.75275103e+00
C     6.192900010574363e+00   9.556702695411352e-01   2.718144018504353e+00  6.30545350e-01  -2.29722533e+00  -1.38617287e+00
C     1.407702256706460e-02   3.531866978673197e+00   6.539485798763060e-02  1.13212300e-02   5.41533320e-01  -3.23968152e+00
C     1.737737362340559e+00   5.359604648479386e+00   1.042457285645620e-02  4.42600770e-01  -1.27776462e+00  -1.17986081e+00
C     4.880785139344400e-03   5.348126180885287e+00   1.824256817417627e+00 -9.70725350e-01  -5.56491670e-01  -2.56697349e+00
C     1.822547810451326e+00   3.532986555235847e+00   1.744567987804569e+00  2.39367450e-01   5.31058740e-01   1.08675533e+00
C     8.884130759112907e-01   4.425844954316781e+00   8.862595081943356e-01  2.18157250e-01   6.16946300e-01   1.06723835e+00
C     2.624682406812367e+00   6.233153799439577e+00   8.630104168364587e-01 -7.05535830e-01  -3.87443290e-01   5.55451790e-01
C     8.903419463892278e-01   6.199016026312385e+00   2.642054112179576e+00  6.67097980e-01   3.86749020e-01   1.22192593e+00
C     2.751513939820134e+00   4.478713918637257e+00   2.585720431589885e+00 -3.59180007e+00  -1.15544123e+00   2.14021424e+00
C     3.603222675533055e+00   3.571870693230639e+00   7.103839322347302e+00 -2.00873806e+00  -4.96969650e-01  -9.51671970e-01
C     5.390437502677861e+00   5.357228231713293e+00   7.080670840501936e+00 -9.63241150e-01   9.35086200e-02   6.78696620e-01
C     3.507963841350054e+00   5.407886050093592e+00   1.702550528203106e+00  2.32612296e+00  -2.63178587e+00   1.91059855e+00
C     5.309333741542292e+00   3.556029075832386e+00   1.694542463616319e+00 -2.97915200e-01   7.33416100e-01   2.29818382e+00
C     4.409550814734538e+00   4.478745906539047e+00   8.387107006153460e-01  2.14581875e+00   4.23737160e-01  -4.02251000e-02
C     6.232182931078138e+00   6.288025988338596e+00   9.288565174920070e-01 -1.50282500e-01  -2.23941224e+00   3.60591400e-02
C     4.422265863527611e+00   6.192403274001677e+00   2.695963820655846e+00 -1.13337652e+00   1.27772492e+00  -9.35317350e-01
C     6.178669090657575e+00   4.459992039477606e+00   2.613464249654614e+00  6.27732550e-01  -1.86996970e-01   1.14288194e+00
C     7.623186152449919e-02   7.107065479953389e+00   3.515235544437635e+00 -3.10877167e+00   5.19751340e-01   1.29581019e+00
C     1.791419103703406e+00   1.808816399392046e+00   3.581464789072401e+00  3.84661900e-02  -1.57430553e+00  -5.13103900e-01
C     3.842258811407639e-02   1.755617817514680e+00   5.334730571710576e+00 -1.67073939e+00   6.55687830e-01   4.69744350e-01
C     1.758440927558214e+00   7.096311929298079e+00   5.292215522525713e+00  1.26027477e+00  -3.36464200e-01   1.87282012e+00
C     9.217077190315254e-01   8.637993806630526e-01   4.437468931321909e+00 -7.08951480e-01   1.09933950e+00  -2.21542600e-02
C     2.692644116208080e+00   2.644473534902519e+00   4.457842097056187e+00 -3.48722880e-01   1.77231723e+00  -4.26819640e-01
C     9.312099029688103e-01   2.622059896455170e+00   6.272463589780856e+00 -1.12661173e+00   1.53634726e+00  -1.87211212e+00
C     2.706354415252179e+00   8.590636073451562e-01   6.230990777520537e+00 -1.58891189e+00   1.62792150e-01  -7.00834670e-01
C     3.570935722403431e+00   7.092807405862193e+00   3.570664607164705e+00 -1.87988531e+00   2.99572300e-01   1.58149180e-01
C     5.256901518707590e+00   1.731836305302566e+00   3.578422170938363e+00  2.77750869e+00   4.00275524e+00  -1.36298759e+00
C     3.556538038891978e+00   1.789303423879015e+00   5.336443132888187e+00  1.25566697e+00  -1.49541936e+00   6.26310640e-01
C     5.366344286133859e+00   8.180017329965001e-03   5.298167760206571e+00 -5.97365940e-01  -3.25804420e-01   1.69173285e+00
C     4.465097806192873e+00   8.921150002433343e-01   4.446069696186752e+00 -1.76493752e+00  -1.11683557e+00   8.78738330e-01
C     6.196416618328702e+00   2.728413414495015e+00   4.410013999552458e+00  3.15499200e-01  -2.58674560e+00   1.33269215e+00
C     4.483582619458148e+00   2.634163763071375e+00   6.241473355105573e+00 -1.68204755e+00   1.73572347e+00  -5.86005170e-01
C     6.174506256202851e+00   8.484188866401585e-01   6.283605118142765e+00  2.21758349e+00   1.94462338e+00  -2.18775258e+00
C     7.101207215619569e+00   3.582332443137398e+00   3.503223305389002e+00 -8.26793700e-01  -7.41639640e-01   1.67239826e+00
C     1.780809143185020e+00   5.317731063351752e+00   3.515996714331785e+00 -1.25895010e-01  -1.23042701e+00   4.92865050e-01
C     2.564462978081680e-02   5.303054587505142e+00   5.316159817615826e+00 -5.26642720e-01   9.76992650e-01   1.09720000e-04
C     1.812411768469016e+00   3.532553225792932e+00   5.334245564035214e+00 -1.47573547e+00   3.58244200e-02   4.01716650e-01
C     8.771263224752548e-01   4.378235014303259e+00   4.465187159065207e+00  8.46597450e-01   1.60712950e+00  -2.13392467e+00
C     2.591973568800247e+00   6.147146364043828e+00   4.450834827290069e+00  2.37868785e+00   3.29505536e+00  -1.20374716e+00
C     8.960358639920739e-01   6.235447189829467e+00   6.211457827339944e+00 -1.09672841e+00   1.67069730e-01   5.85312150e-01
C     2.622104892770355e+00   4.484995276285420e+00   6.182807258885807e+00  1.89427664e+00  -1.32357808e+00   1.64022238e+00
C     3.581108657099140e+00   3.590963632051055e+00   3.559425977749805e+00 -1.11500097e+00  -1.81694167e+00  -2.31644939e+00
C     5.266290678725216e+00   5.335843750692868e+00   3.545025450869305e+00  2.41765494e+00  -1.32009570e+00   9.27043400e-02
C     3.514306402516975e+00   5.367083562086339e+00   5.310636288903181e+00  1.34301294e+00  -1.95841523e+00   5.58343970e-01
C     5.319055007064726e+00   3.553841103349950e+00   5.371747469251548e+00  1.25685481e+00   5.23112090e-01  -1.98823258e+00
C     4.426337425835894e+00   4.418211148180936e+00   4.403483207354559e+00  3.22226230e-01   1.49148196e+00   2.74674365e+00
C     6.225346263454901e+00   6.210374432648431e+00   4.420416180877660e+00  7.31756190e-01   8.55618000e-02  -3.18887690e-01
C     4.505017854616078e+00   6.227225232806044e+00   6.208580551116047e+00 -2.34851087e+00  -6.25289220e-01  -6.00965110e-01
C     6.255781401407787e+00   4.471292512169298e+00   6.189286657188164e+00 -6.33457770e-01  -1.60092759e+00   1.97878894e+00
