64
Lattice="7.10842262195238 0 0 0 7.10842262195238 0 0 0 7.10842262195238 " PBC="1 1 1" Properties=species:S:1:pos:R:3:force:R:3 Energy="-512.03161868"
C     7.101256192651420e+00   7.067417470863851e+00   1.558422141518320e-02 -2.87384290e-01   2.49621722e+00  -1.64196460e-01
C     1.773676694096564e+00   1.736214311709998e+00   5.840756288907540e-02  1.70704900e-01   1.06044838e+00  -2.59628405e+00
C     4.186597911543060e-02   1.766328220044687e+00   1.814211976497531e+00 -1.73678956e+00   1.26293684e+00  -6.05584700e-01
C     1.762387808133742e+00   7.102437612490864e+00   1.767801369548456e+00  1.01275010e+00   4.30790150e-01   1.06861348e+00
C     8.707893769622034e-01   8.902945332103525e-01   9.542180898840954e-01  8.36379340e-01  -9.23099500e-01  -2.32148432e+00
C     2.653294731952808e+00   2.658030434186478e+00   8.539705647063786e-01  1.42391113e+00   6.38470710e-01   1.31884033e+00
C     9.002790236224043e-01   2.672855689318523e+00   2.676559106419317e+00  1.62133782e+00  -5.04758500e-02  -8.81222690e-01
C     2.666894992614749e+00   8.782996387129119e-01   2.687015667177564e+00 -9.23496000e-02   3.98314210e-01  -1.40643735e+00
C     3.590393181135800e+00   7.099052226218090e+00   7.101538539197887e+00 -1.41094624e+00   2.61339630e-01  -3.55882760e-01
C     5.304555673109808e+00   1.778461586614765e+00   7.238734223469839e-02  1.44335149e+00  -9.56566000e-02  -2.08219086e+00
C     3.575626286153465e+00   1.793553620847739e+00   1.761453619233022e+00 -1.89716490e+00  -4.63265800e-01   1.38128420e+00
C     5.299008828770969e+00   7.102247106764649e+00   1.805124284683218e+00  2.32529137e+00   4.86647250e-01  -3.83687850e-01
C     4.425675205184615e+00   9.014334314558924e-01   9.421506183917048e-01  8.47946720e-01  -1.20972759e+00  -1.41854537e+00
C     6.207077901658405e+00   2.727031608221913e+00   9.073697462700806e-01  5.40135800e-01  -2.25816849e+00   6.94603100e-02
C     4.424659767013348e+00   2.671238238835569e+00   2.680182269428731e+00  4.98595220e-01  -5.39164900e-02  -1.17569552e+00
C     6.259674897729441e+00   8.881302317752410e-01   2.664300702695354e+00 -2.96739362e+00   5.90162970e-01   2.20473800e-01
C     2.293425932003700e-02   3.573979620053541e+00   7.104570281445318e+00 -8.46456910e-01  -5.42544040e-01   2.10498800e-02
C     1.734886316196129e+00   5.351919803869129e+00   7.096223216183782e+00  1.68155628e+00  -1.73876114e+00   4.34310450e-01
C     5.679594131266899e-02   5.346870335861012e+00   1.712482203035092e+00 -2.27025467e+00  -2.92370830e-01   2.75667279e+00
C     1.812103760516891e+00   3.555167250673938e+00   1.739682440022069e+00 -7.90429940e-01  -2.49968330e-01   1.08029414e+00
C     9.252904351162315e-01   4.432260234647105e+00   9.063435032964311e-01 -9.15638930e-01   3.45899510e-01  -1.80129694e+00
C     2.635515074211437e+00   6.188827239834234e+00   8.653711950727869e-01  5.25351940e-01   2.66928167e+00  -3.40999640e-01
C     9.073039222766193e-01   6.251437870850062e+00   2.659792967575107e+00 -7.62489920e-01  -1.29567047e+00   6.44091410e-01
C     2.670401150987838e+00   4.464918105269040e+00   2.610944029498919e+00 -5.87000200e-02  -8.78594990e-01   1.70639720e+00
C     3.582156580761780e+00   3.591209228052576e+00   3.002171209330800e-03 -1.46948197e+00  -1.07638386e+00  -5.77460400e-01
C     5.314027788419409e+00   5.333352248564558e+00   3.884397540699000e-02  1.62424108e+00  -5.85955320e-01  -1.73785245e+00
C     3.528098235168525e+00   5.385573848837031e+00   1.732850392873535e+00  1.04324168e+00  -1.91695929e+00   1.78802154e+00
C     5.289883391232544e+00   3.557189028235518e+00   1.798445566210597e+00  1.08925592e+00   1.11591101e+00  -6.69066620e-01
C     4.457652231088006e+00   4.482324428654407e+00   9.032784936311395e-01 -1.35740996e+00  -1.12125302e+00   3.86385000e-03
C     6.245285033482869e+00   6.214287406048062e+00   8.680740306055896e-01 -1.52124552e+00   2.01571300e-02   9.76185230e-01
C     4.441736970431410e+00   6.233757375604241e+00   2.687252946324620e+00 -3.82325520e-01  -6.48146640e-01  -8.62562200e-01
C     6.175296001955933e+00   4.454891817331982e+00   2.625572452408617e+00  2.00616451e+00  -3.85523400e-02   9.63929640e-01
C     7.067868713531769e+00   2.110298748467260e-02   3.560293347477898e+00  2.19804587e+00  -3.07267600e-02  -1.08580657e+00
C     1.808261231585424e+00   1.777435770146473e+00   3.592132541066687e+00 -1.67992368e+00  -6.94026840e-01  -1.45828994e+00
C     1.081319032109160e-02   1.796219350414466e+00   5.309328836730685e+00 -1.26134568e+00  -6.92945570e-01   1.40063124e+00
C     1.721019916191295e+00   7.104671931888783e+00   5.366768303543142e+00  1.83425145e+00   5.56792540e-01  -1.14696886e+00
C     8.278434862823424e-01   9.196754210044673e-01   4.451910829222058e+00  2.54233140e+00  -1.51461677e+00   1.65686340e-01
C     2.702042730427791e+00   2.630277446256569e+00   4.406276177686182e+00 -1.00316442e+00   1.36815252e+00   1.37104357e+00
C     8.926113813948889e-01   2.645545911538972e+00   6.228277421522257e+00  4.22800760e-01   5.10148710e-01  -9.57059900e-02
C     2.692161951901765e+00   9.005699002760147e-01   6.190040007817432e+00 -1.67297409e+00  -1.16233072e+00   1.77950333e+00
C     3.546831629972821e+00   7.087641288638882e+00   3.523549555533987e+00 -4.59343470e-01   9.47124670e-01   1.80381635e+00
C     5.310098181310847e+00   1.832325587933589e+00   3.544915981160957e+00  6.29765220e-01  -3.42850044e+00   4.06184220e-01
C     3.570958966945398e+00   1.760553906182009e+00   5.291262709557729e+00 -1.24373879e+00   4.72945460e-01   2.47000183e+00
C     5.336422020873005e+00   7.060032957109290e+00   5.313491884438087e+00 -1.06225960e-01   1.29345863e+00   6.94270270e-01
C     4.358642282288431e+00   8.430373131272352e-01   4.488338509612058e+00  4.06587635e+00   4.22563490e-01  -2.70398777e+00
C     6.239329170506476e+00   2.614068749914219e+00   4.400771486293481e+00 -6.44471850e-01   3.37596482e+00   7.96348050e-01
C     4.435243995041849e+00   2.626185909280723e+00   6.243367607565350e+00  6.79001350e-01   1.60498649e+00  -9.73783030e-01
C     6.224290378358925e+00   8.757187126280424e-01   6.223638962510028e+00 -5.74472210e-01   1.40309760e-01   3.60308520e-01
C     3.080285665501980e-02   3.567102363337144e+00   3.471516754966301e+00 -1.34779320e+00   2.55765320e-01   3.02324603e+00
C     1.786368000758086e+00   5.328591809020170e+00   3.580288131876113e+00  2.19980430e-01   4.89498050e-01  -1.27455737e+00
C     7.104500405650962e+00   5.394268160543553e+00   5.293253636565138e+00  4.22308810e-01  -3.09520008e+00   2.08322268e+00
C     1.810588600235438e+00   3.542183787842733e+00   5.310383797731720e+00 -4.50443940e-01   1.08867080e-01   1.42320499e+00
C     9.144490954415647e-01   4.461022831841732e+00   4.488045358263209e+00 -6.70453760e-01  -5.79653700e-01  -2.54311086e+00
C     2.681445436128306e+00   6.234970214671666e+00   4.429127979303828e+00 -1.17626928e+00  -9.74627910e-01   9.43443760e-01
C     8.565807774924425e-01   6.197951682193492e+00   6.264182561765461e+00  3.81778710e-01   1.44058176e+00  -1.83878837e+00
C     2.657177068050947e+00   4.480460813496122e+00   6.227308045929568e+00  5.22408290e-01  -1.38388014e+00  -5.62889650e-01
C     3.536586686955972e+00   3.507140970347562e+00   3.523604716893519e+00  4.24734490e-01   2.56337094e+00   3.90822450e-01
C     5.308873329009195e+00   5.313064597154399e+00   3.573997533278544e+00  9.03522720e-01   4.62415610e-01  -1.21942437e+00
C     3.570553715771833e+00   5.321864184599923e+00   5.347185452235757e+00 -1.00167524e+00   4.03847330e-01  -7.03036550e-01
C     5.342028860298757e+00   3.551332043417769e+00   5.314345605994750e+00 -3.73738100e-02  -1.18286667e+00   6.53413470e-01
C     4.424054769164160e+00   4.428782723217174e+00   4.457131752383770e+00  4.09793010e-01  -5.70703000e-01  -5.55653070e-01
C     6.273387826889908e+00   6.220772562172740e+00   4.400450185591056e+00 -3.15954647e+00   9.55567000e-03   9.19491760e-01
C     4.463974319997782e+00   6.171388786378623e+00   6.213142452416658e+00  5.87847100e-02   1.40387423e+00   7.74205100e-01
C     6.198806612181999e+00   4.427839151198596e+00   6.217767334341683e+00  8.47669060e-01   1.14903241e+00  -3.35940490e-01
