64
Lattice="7.10842262195238 0 0 0 7.10842262195238 0 0 0 7.10842262195238 " PBC="1 1 1" Properties=species:S:1:pos:R:3:force:R:3 Energy="-513.6022331"
C     7.107883375060046e+00   1.919032421030920e-02   3.388869399858799e-02 -3.87426420e-01  -9.23123680e-01  -4.89310380e-01
C     1.795559120121520e+00   1.801522802362795e+00   7.104162684492286e+00  2.54693030e-01  -1.39455188e+00   6.46708560e-01
C     2.151221937490600e-03   1.796929624002656e+00   1.754627258822584e+00 -6.79130650e-01   1.09632200e-02   2.48916890e+00
C     1.719423435555069e+00   2.438608355594580e-02   1.782002576258692e+00  1.75174166e+00   2.69024100e-02  -1.32762500e-01
C     8.544068086025679e-01   9.240345900919562e-01   9.210368971888760e-01  1.36706496e+00  -6.81077520e-01  -1.61810840e+00
C     2.688155573828907e+00   2.668854855815309e+00   9.149340320327012e-01 -4.71733500e-01   1.73771070e-01  -1.73926836e+00
C     8.970608985338779e-01   2.683769819240819e+00   2.680530084547528e+00 -1.47839890e-01  -2.84753920e-01  -5.31757150e-01
C     2.648586610398903e+00   9.292790421325398e-01   2.670307959567289e+00 -1.53783750e-01  -1.81109845e+00   8.39256540e-01
C     3.539144652835779e+00   7.060501828665306e+00   1.055316422165200e-02  1.01483054e+00   1.40253501e+00  -8.09081830e-01
C     5.333736885312526e+00   1.804663658897442e+00   3.814912709588500e-02 -4.09622280e-01  -2.48448780e+00  -1.06299948e+00
C     3.555840347211825e+00   1.789461301945405e+00   1.800208241767679e+00 -6.36510810e-01  -5.93413120e-01  -8.42882450e-01
C     5.307071486043478e+00   7.102245898332804e+00   1.832134797870468e+00  7.44922190e-01   6.25976900e-01  -1.65764942e+00
C     4.427615591307196e+00   8.613082339558736e-01   9.150876450455193e-01  1.08091980e-01   8.60107620e-01   1.00479480e-01
C     6.216686072176954e+00   2.657269690797686e+00   9.063081033517836e-01  4.72304890e-01   1.45856153e+00  -9.39804810e-01
C     4.416488848464337e+00   2.697195354874761e+00   2.622297886444488e+00  1.88415632e+00  -1.27097363e+00   1.28098213e+00
C     6.219661444633008e+00   9.083523435288431e-01   2.694596728817567e+00 -1.88675410e-01  -7.02078200e-01  -4.00610290e-01
C     3.736321989101780e-02   3.558919502638131e+00   1.377107605749980e-02 -8.71768550e-01  -2.10984520e-01  -1.36960612e+00
C     1.767723674489219e+00   5.328751108771085e+00   1.226743142069120e-02  2.07854520e-01   1.46927300e-02  -1.57926667e+00
C     7.082599995316778e+00   5.331223560326773e+00   1.742912578344824e+00  4.64886910e-01   5.73376140e-01   8.74387700e-01
C     1.782776754566236e+00   3.562003065286460e+00   1.746247921322354e+00  3.36196870e-01  -1.49399680e-01   1.28000614e+00
C     8.998780375024102e-01   4.463789216672757e+00   8.602018790592968e-01 -3.67828190e-01  -9.83275610e-01   1.39605738e+00
C     2.650739254020918e+00   6.204524200832171e+00   8.449253101751072e-01 -3.14718450e-01   2.58029180e-01   2.23107855e+00
C     8.602011682170347e-01   6.244172565342839e+00   2.672258510734217e+00  5.22063860e-01  -6.83860840e-01  -9.47976180e-01
C     2.706970928746011e+00   4.409074905840130e+00   2.621624932075052e+00 -1.47014353e+00   1.39808249e+00   9.42513120e-01
C     3.590174739308687e+00   3.555320295012946e+00   7.101781007493456e+00 -1.33312143e+00   2.15294750e-01  -9.16925600e-02
C     5.347423868730432e+00   5.330692205735928e+00   7.103978931767560e+00 -1.17844890e-01   4.19167510e-01  -5.04693800e-01
C     3.566606835196303e+00   5.311011187112160e+00   1.739123789088364e+00 -3.29481320e-01   9.25277400e-01   8.46564710e-01
C     5.328459023685628e+00   3.584482669895722e+00   1.728719119815243e+00 -1.45101000e-03  -9.16825300e-01   1.69755130e+00
C     4.465263645692598e+00   4.460418189413675e+00   8.734941317691134e-01 -1.88921800e-01  -4.65043250e-01  -9.68934470e-01
C     6.192678583209750e+00   6.231990150656683e+00   8.692511143072353e-01  6.97689470e-01  -2.68431000e-02   1.56015633e+00
C     4.424177815959712e+00   6.231636933136695e+00   2.670335540247055e+00 -3.78322230e-01  -5.69219270e-01   5.20819400e-01
C     6.189495715897418e+00   4.458651177718795e+00   2.632239441983915e+00  9.78744110e-01  -2.00114160e-01   6.12722160e-01
C     3.461943984392400e-03   7.092008703496610e+00   3.579516015011128e+00 -7.00206750e-01   1.15555975e+00  -4.47828700e-01
C     1.771353021826312e+00   1.762500903137626e+00   3.608547452749244e+00 -1.07125820e-01   5.71687250e-01  -2.22850470e+00
C     2.844549046154920e-02   1.766512825780128e+00   5.342829695191126e+00 -1.10918985e+00  -1.60755340e-01   3.38214700e-02
C     1.754582191423173e+00   7.087166303839414e+00   5.327361127811971e+00  1.00810986e+00   6.81780900e-02   1.16013041e+00
C     8.879120032008070e-01   8.796705690994052e-01   4.461314206084926e+00 -6.12135300e-02  -5.07888410e-01   1.95783600e-02
C     2.680154262243609e+00   2.623928061003932e+00   4.429819699908980e+00  7.33778300e-02   1.60531944e+00   4.35926730e-01
C     9.250351005757211e-01   2.637588032415882e+00   6.209849831059074e+00 -3.26150690e-01   1.60675406e+00   9.54388800e-02
C     2.687201552429077e+00   8.688641317798026e-01   6.222291418833955e+00 -8.97775390e-01   1.59459150e-01  -4.33675100e-02
C     3.532231498585150e+00   7.105628512320757e+00   3.591449208400227e+00  2.38009770e-01   3.66242310e-01  -1.20668659e+00
C     5.313598226440483e+00   1.783489231765438e+00   3.568911599062386e+00  7.39577330e-01   5.79135610e-01  -9.10971380e-01
C     3.556998949014659e+00   1.780520043637064e+00   5.321205233823050e+00  2.16585370e-01  -1.02969237e+00   9.64867540e-01
C     5.320317534006264e+00   6.176650582970400e-03   5.315032848293651e+00  6.03705170e-01  -6.13072130e-01   1.60531196e+00
C     4.440847280256291e+00   8.999211145434874e-01   4.454120340225034e+00 -1.79282580e-01  -3.80352920e-01  -3.49663800e-01
C     6.223647421532946e+00   2.682169926561736e+00   4.431158926730588e+00  1.33807890e-01  -9.44721390e-01   9.64778530e-01
C     4.440408335159505e+00   2.642014873686713e+00   6.215122432453232e+00  6.14818530e-01   8.11037640e-01   7.23684100e-01
C     6.225531153527246e+00   8.392633804740510e-01   6.261951867663078e+00 -3.66551270e-01   2.60162300e+00  -1.37417754e+00
C     2.729278864949000e-03   3.558550220083021e+00   3.539504694441482e+00 -5.70146020e-01   7.92392030e-01   3.99548330e-01
C     1.793041245745290e+00   5.376960004474568e+00   3.496548780885727e+00 -3.06115510e-01  -2.31197932e+00   1.62882791e+00
C     1.070400494964840e-02   5.345073255538450e+00   5.327875422188526e+00 -5.66295680e-01  -2.48783270e-01   7.21650250e-01
C     1.829027493090587e+00   3.558073529262124e+00   5.294499245460841e+00 -1.81469958e+00  -2.65983350e-01   9.69507580e-01
C     8.778021912979644e-01   4.457611926331751e+00   4.465858905002797e+00  1.15858121e+00  -2.99281840e-01  -2.22962429e+00
C     2.662326125059970e+00   6.183447159090060e+00   4.462759348403571e+00 -2.76676020e-01   1.67031021e+00  -1.23010973e+00
C     8.787618994358906e-01   6.206728878107763e+00   6.251399911873272e+00  1.63238840e-01   1.04990699e+00  -6.77553490e-01
C     2.651301885671291e+00   4.458412334718763e+00   6.194291057796871e+00  1.20169234e+00  -1.06754713e+00   8.63116900e-01
C     3.579199974541443e+00   3.514544747927423e+00   3.546901861188307e+00 -1.25716527e+00   8.55505800e-01  -8.86297090e-01
C     5.308223192676370e+00   5.341330031270984e+00   3.549160420307359e+00  4.95271430e-01  -7.52836530e-01  -7.42661300e-02
C     3.548553645352515e+00   5.315425659727633e+00   5.314893949715657e+00  4.55023040e-01  -4.37177530e-01   3.46372600e-01
C     5.343400003937928e+00   3.524150430498056e+00   5.364386271123180e+00  7.55198900e-02   1.37798019e+00  -1.57636306e+00
C     4.432551395637620e+00   4.402070621611513e+00   4.406512817075203e+00  5.96304820e-01   8.39394610e-01   1.67255599e+00
C     6.216848855054952e+00   6.218090767570892e+00   4.457011193536135e+00 -2.28861390e-01   8.96723000e-02  -6.81703060e-01
C     4.464949026907437e+00   6.183639086500801e+00   6.222069991469342e+00 -1.15412091e+00   9.16207250e-01  -8.01473010e-01
C     6.239526713571085e+00   4.480788085273547e+00   6.212987062298184e+00 -1.91857870e-01  -2.13062449e+00   5.24747450e-01
