64
Lattice="7.10842262195238 0 0 0 7.10842262195238 0 0 0 7.10842262195238 " PBC="1 1 1" Properties=species:S:1:pos:R:3:force:R:3 Energy="-511.98463394"
C     7.100390102439400e-03   7.103439544659153e+00   7.107818261908847e+00  2.89293350e-01   2.33586340e-01  -5.48340630e-01
C     1.792727551055069e+00   1.763092466068063e+00   5.049539092343200e-03  3.65482320e-01   4.04233620e-01   9.96794860e-01
C     7.101296284154997e+00   1.819235712015764e+00   1.772875930288421e+00  6.78492200e-02  -1.55602359e+00   3.58536930e-01
C     1.719369909132741e+00   7.090882871522055e+00   1.880529436657011e+00  1.61160196e+00   1.58303534e+00  -4.06707484e+00
C     8.615340685425110e-01   9.138393349492212e-01   9.025152622944301e-01  7.49096760e-01  -8.77588780e-01   2.41385190e-01
C     2.727833082872318e+00   2.688161544903908e+00   8.988998474656720e-01 -2.52189975e+00  -9.64927100e-01  -8.22353010e-01
C     9.404199307364134e-01   2.655158844700676e+00   2.659408828416722e+00 -2.33858762e+00   5.54890350e-01  -2.37465380e-01
C     2.669726917102331e+00   9.121947302918579e-01   2.653462632895092e+00 -9.97547460e-01  -1.52069008e+00   2.18481450e+00
C     3.530276895617329e+00   7.050211036322558e+00   7.088467998189588e+00 -1.34999970e-01   1.87897402e+00   1.41150370e+00
C     5.327648734591174e+00   1.815551700908723e+00   7.069525757928718e+00 -2.06165880e-01  -2.40102444e+00   1.55834450e+00
C     3.554538155272068e+00   1.761579935902979e+00   1.774831883856540e+00  2.03875230e-01   8.35837650e-01   7.79944250e-01
C     5.382401573074404e+00   1.175015150663380e-02   1.800153364745052e+00 -2.40606896e+00   4.84967730e-01  -1.47593343e+00
C     4.398898559101563e+00   8.660472060639489e-01   9.099242290228038e-01  2.02514371e+00   7.45964130e-01  -1.52616042e+00
C     6.227907072703755e+00   2.641870572707527e+00   8.637313530585792e-01 -5.17483630e-01   1.53700094e+00   2.04699400e-01
C     4.448581670572207e+00   2.663909170777444e+00   2.717237694620303e+00  1.73297840e-01  -1.39012310e-01  -2.39981110e+00
C     6.191022889413099e+00   9.129826989392849e-01   2.686862480670102e+00  1.27123574e+00   9.01412170e-01  -3.78680680e-01
C     1.063846529309200e-03   3.531058324515945e+00   7.087179383337035e+00  1.85766770e-01   1.15647666e+00   3.49618210e-01
C     1.776340006799600e+00   5.329142853941672e+00   3.290076542286040e-02 -1.64038430e-01   7.23102080e-01  -2.09717012e+00
C     7.089015844320912e+00   5.334879208827561e+00   1.782169837442940e+00 -1.04820470e-01  -4.78009740e-01  -1.02352146e+00
C     1.743085028677585e+00   3.581048519843774e+00   1.727310372620412e+00  2.33788731e+00  -1.23776444e+00   1.82338340e+00
C     8.589728327882987e-01   4.444561359991014e+00   8.628292942281012e-01  3.40122170e-01   2.92146250e-01   6.62443640e-01
C     2.648579217639378e+00   6.244390083075011e+00   9.201484865298283e-01 -4.17035350e-01  -1.97148692e+00  -1.15668400e-01
C     8.045558672738652e-01   6.219992839295553e+00   2.650507590527732e+00  1.91487212e+00   2.86842110e-01   2.22568007e+00
C     2.692965416910504e+00   4.417643327382051e+00   2.655334564907843e+00 -1.47580412e+00   1.73256974e+00  -5.41790150e-01
C     3.553207529641830e+00   3.542312094871025e+00   7.085333539235299e+00 -7.20442200e-02   1.62247571e+00   8.18790440e-01
C     5.337963126897021e+00   5.338676883612296e+00   1.097504910414900e-02 -8.27069100e-02   8.45038060e-01  -6.90813880e-01
C     3.554916678776582e+00   5.317946946146720e+00   1.765562216423156e+00  2.05472150e-01   1.29399808e+00   3.99735030e-01
C     5.330608468517465e+00   3.560196886182945e+00   1.753126244302144e+00  3.30153770e-01  -8.40267120e-01   1.02430934e+00
C     4.451521358746708e+00   4.461835466715651e+00   8.897976544692143e-01 -2.92017080e-01  -5.90743250e-01  -6.30092300e-01
C     6.236962421195147e+00   6.265714426840071e+00   8.585121359182966e-01 -6.06845970e-01  -1.93371847e+00   1.66941748e+00
C     4.462349761092207e+00   6.252004198880198e+00   2.637151646351240e+00 -4.03333040e-01  -1.68525200e+00   1.08640134e+00
C     6.235340847827072e+00   4.406921764628532e+00   2.678273586871035e+00 -2.05476140e-01   8.27602430e-01  -1.24038368e+00
C     7.083930052273207e+00   7.285678246452321e-02   3.555750354581456e+00  4.19079040e-01  -2.06887237e+00   1.30542963e+00
C     1.795625726041469e+00   1.789198432476918e+00   3.564610647956155e+00  3.65735550e-01   2.78407500e-01  -8.14338230e-01
C     1.092863110444040e-02   1.780095528638198e+00   5.359985304510686e+00  4.98588690e-01   5.62083910e-01  -3.38845690e-01
C     1.741868848651529e+00   2.821496431598260e-02   5.320819388643237e+00  9.03565010e-01  -2.68218827e+00   4.04671160e-01
C     9.274442160858654e-01   9.436924352579827e-01   4.491233983397863e+00 -1.81713709e+00  -9.57904260e-01  -2.53929568e+00
C     2.677358661795615e+00   2.665198780809165e+00   4.399614448343623e+00  9.41350110e-01   4.05282580e-01   1.87825318e+00
C     9.765157188742852e-01   2.686736092915919e+00   6.244755171660774e+00 -3.24961884e+00  -9.91832510e-01  -5.61394450e-01
C     2.601946970073012e+00   8.332539910753292e-01   6.236965833238004e+00  2.72302454e+00   1.10642949e+00  -7.22931120e-01
C     3.537007292322397e+00   7.105452792113590e+00   3.595442364807012e+00  1.09528095e+00  -5.55697610e-01  -2.12343693e+00
C     5.308395856261810e+00   1.770812994959871e+00   3.601306315878928e+00  9.59037200e-01   9.29508890e-01  -1.93616799e+00
C     3.560382984687136e+00   1.723855537058639e+00   5.328194092774582e+00 -4.98245500e-01   1.61867694e+00   6.43207000e-03
C     5.351786307692326e+00   2.207357150920740e-02   5.343896811594840e+00 -7.54845070e-01  -1.65572531e+00  -6.88939270e-01
C     4.493744109593438e+00   8.740245622650178e-01   4.408150526562624e+00 -2.75673047e+00  -3.54144020e-01   3.04232006e+00
C     6.195308983916055e+00   2.672072909819609e+00   4.442129639696939e+00  7.12342640e-01  -1.05088720e+00   1.59446995e+00
C     4.414019453530375e+00   2.695313826491473e+00   6.245464094648667e+00  1.07501173e+00  -1.51037990e+00  -2.06543231e+00
C     6.241385921507347e+00   8.383191686974364e-01   6.206500982078566e+00 -4.11046170e-01   3.00166017e+00   7.32362300e-01
C     7.091038474893207e+00   3.486578720571593e+00   3.559462159620941e+00  1.23022701e+00   1.95169673e+00  -1.17436280e-01
C     1.742302462431349e+00   5.335207831205283e+00   3.536944596034889e+00  1.75981700e-02  -1.45732474e+00   4.96150250e-01
C     1.704123479960460e-02   5.279035440724840e+00   5.363073345465267e+00 -9.59522960e-01   2.05117668e+00  -1.90134393e+00
C     1.786938096252210e+00   3.556746884348554e+00   5.333831711670277e+00  5.62204480e-01  -5.36481910e-01  -8.09410510e-01
C     8.819380848309589e-01   4.401020281085181e+00   4.469759296494391e+00 -4.63749310e-01   3.67120470e-01  -1.36737868e+00
C     2.636877190153882e+00   6.139945745182446e+00   4.447664684054227e+00  3.78508410e-01   3.45069924e+00  -9.61822830e-01
C     8.858655594127351e-01   6.205783457899303e+00   6.170496181750230e+00 -2.58073000e-02   3.59643130e-01   2.56949010e+00
C     2.650053362322314e+00   4.455559084963321e+00   6.169631797559638e+00  1.13063196e+00  -9.29439850e-01   2.20383825e+00
C     3.596115532429126e+00   3.584510179491261e+00   3.531135521985599e+00 -7.87388890e-01  -1.11087854e+00   1.13731946e+00
C     5.368739398051442e+00   5.333598697576793e+00   3.509249541749333e+00 -7.24198000e-01   6.39920430e-01   1.85340829e+00
C     3.545096250758600e+00   5.277215968871025e+00   5.275927496186924e+00  9.65488350e-01   2.16237991e+00   1.74160429e+00
C     5.318948025304294e+00   3.578401414344313e+00   5.347459268675079e+00  4.14772860e-01  -1.79425540e-01  -7.23258750e-01
C     4.518609798423554e+00   4.480564241045243e+00   4.442832947030961e+00 -2.62872162e+00  -1.32167020e+00  -1.26833541e+00
C     6.190822218642537e+00   6.226018222645169e+00   4.470208904225105e+00  2.12325390e+00  -6.22054500e-02  -1.36120330e+00
C     4.459853140899611e+00   6.235710414719086e+00   6.216395053354892e+00 -1.30178265e+00  -1.15513010e+00  -2.70926750e-01
C     6.202903409390584e+00   4.474222177467905e+00   6.200646982798317e+00  7.54267720e-01  -2.01751756e+00   1.61559786e+00
