64
Lattice="7.10842262195238 0 0 0 7.10842262195238 0 0 0 7.10842262195238 " PBC="1 1 1" Properties=species:S:1:pos:R:3:force:R:3 Energy="-511.14420442"
C     4.553740831443440e-02   7.044078742296737e+00   2.988885567454020e-02 -2.10626695e+00   1.20619425e+00  -3.70924010e-01
C     1.796476248807952e+00   1.810985463470313e+00   1.741826553536940e-02 -4.37176500e-01  -5.45091060e-01   3.81637140e-01
C     7.103744495989551e+00   1.750752244399743e+00   1.780262789822447e+00  5.02633500e-01   2.16789250e-01   9.93662400e-02
C     1.764317247285489e+00   2.588667157102780e-02   1.791941999271333e+00 -1.78079000e-01  -7.03542220e-01  -6.33170510e-01
C     8.946222119856345e-01   8.764670162772498e-01   8.655946838799597e-01 -7.39058000e-02   5.12282410e-01   1.21128456e+00
C     2.658442580529986e+00   2.690614732634296e+00   9.220126703619235e-01 -5.11906810e-01  -8.54985960e-01  -2.40877450e-01
C     8.900821335424668e-01   2.655558409136146e+00   2.636843638399116e+00 -4.85180320e-01   1.46844659e+00   5.17381280e-01
C     2.668668615142665e+00   8.613432784793902e-01   2.644270944857849e+00 -8.18453140e-01   1.75956860e+00   1.43845796e+00
C     3.541246329067608e+00   7.085577287046939e+00   1.032504783135358e-01  7.45555340e-01   1.55005136e+00  -2.28659365e+00
C     5.355257350457672e+00   1.828777916372399e+00   4.145916408888800e-03 -2.11529520e-01  -1.46802492e+00   5.82611300e-01
C     3.535218386685848e+00   1.808163561858625e+00   1.803845550538107e+00  5.38513920e-01  -5.18582110e-01  -6.56266360e-01
C     5.301088255639997e+00   1.125407601725186e-01   1.738901153291905e+00 -5.71103740e-01  -4.86358615e+00   1.32158304e+00
C     4.401770361840043e+00   9.301484733031921e-01   9.155341961545077e-01  1.25726907e+00   9.61334810e-01  -8.09389190e-01
C     6.297108846425527e+00   2.686516655909640e+00   9.142588740522536e-01 -2.19058611e+00   6.00014000e-03  -4.89749160e-01
C     4.466617800201708e+00   2.689031758001048e+00   2.646793724045687e+00 -6.63432160e-01  -9.45773790e-01   1.28550980e+00
C     6.164608986136346e+00   8.371115187785245e-01   2.690039945581243e+00  1.84120086e+00   2.97018657e+00  -6.58844140e-01
C     2.279706676347100e-02   3.605481945494369e+00   7.104142851993176e+00  1.72234700e-01  -1.44349442e+00  -4.58452180e-01
C     1.910794612225054e+00   5.368594101893089e+00   7.065412469179654e+00 -3.20565252e+00  -1.70175262e+00   1.17948079e+00
C     7.070680876604467e+00   5.357087129524286e+00   1.727019709219480e+00  7.16852710e-01   2.22181780e-01   3.92300350e-01
C     1.765275320486213e+00   3.615527710509405e+00   1.772757432883346e+00 -3.22408510e-01  -1.91440535e+00  -1.25647145e+00
C     9.136199690271680e-01   4.498787180021196e+00   7.961104214432694e-01  4.74135430e-01   1.36976670e-01   2.77871512e+00
C     2.694806995958667e+00   6.219898084022027e+00   9.437989194288303e-01 -1.12465198e+00  -8.41422000e-01  -7.29842950e-01
C     8.231809297174321e-01   6.279940157608346e+00   2.664529025229908e+00  1.30030235e+00  -1.77888526e+00  -1.03725919e+00
C     2.671990025611860e+00   4.422989927455684e+00   2.640003616590610e+00 -1.03127568e+00   7.60965780e-01   5.18170310e-01
C     3.541868955804894e+00   3.476887665845295e+00   1.644235019386960e-02  1.69338732e+00   2.36128965e+00   3.01774100e-02
C     5.310604301001391e+00   5.337226978650494e+00   7.062365443823591e+00 -9.81671140e-01  -8.44475200e-01   2.37285050e+00
C     3.540569607234184e+00   5.273406423020515e+00   1.771119936648603e+00  1.11558523e+00   1.50527132e+00   5.65498310e-01
C     5.360345417200615e+00   3.575758076308839e+00   1.820924531061823e+00  2.48093560e-01  -9.01875920e-01  -1.79824150e+00
C     4.455275885406140e+00   4.393537031340428e+00   9.346200976365292e-01 -4.90563340e-01   1.02025669e+00  -2.29781480e+00
C     6.127085471315247e+00   6.196230022234928e+00   8.702958391796968e-01  2.76819982e+00   1.87127115e+00   3.63258850e-01
C     4.393126306681445e+00   6.216092092382826e+00   2.658813853443428e+00  1.11942840e+00   1.69818080e-01  -1.26839343e+00
C     6.240319587030121e+00   4.468279891578716e+00   2.629484786050213e+00 -2.74527990e-01   2.34782160e-01   1.45797855e+00
C     7.063377469952000e+00   7.086609145674458e+00   3.592852055604284e+00 -6.56895170e-01   9.07605850e-01  -2.96264770e-01
C     1.745437347890995e+00   1.806288502139922e+00   3.520721114173489e+00  1.25986637e+00  -2.17310494e+00   1.57068858e+00
C     3.913883277726760e-02   1.690720051520866e+00   5.388599051335651e+00 -4.53205480e-01   3.10624004e+00  -1.06320002e+00
C     1.791083230734611e+00   7.081064078441275e+00   5.363105830956640e+00  1.96903460e-01   5.72024400e-01  -6.77356050e-01
C     8.756256633759465e-01   8.610106753850003e-01   4.447448872343485e+00  6.67694370e-01   9.58587100e-02   3.19405910e-01
C     2.686968538335593e+00   2.614722724795259e+00   4.461043375183103e+00 -1.35923823e+00   1.45814544e+00  -1.39235050e+00
C     9.529013967621928e-01   2.702074078571545e+00   6.225302120150430e+00 -1.69341175e+00  -7.69963480e-01  -7.97484840e-01
C     2.681761903103348e+00   8.898395941626724e-01   6.300807216546261e+00 -8.86349440e-01  -8.64712280e-01  -1.52072706e+00
C     3.544640743037111e+00   7.081334696090418e+00   3.535076573654579e+00 -2.08798790e-01   4.47248270e-01   7.56454310e-01
C     5.326898369499408e+00   1.793789051804914e+00   3.552617317311691e+00  6.68468270e-01  -5.51913450e-01   5.36256870e-01
C     3.517356129073633e+00   1.735280407146182e+00   5.367613921498018e+00  1.86016976e+00   2.92167050e-01  -8.63185450e-01
C     5.256552566241174e+00   7.099150464618698e+00   5.367589113103074e+00  9.29533910e-01   8.37242040e-01  -2.20529840e-01
C     4.424605600832984e+00   8.617791669544487e-01   4.407223232831845e+00 -3.56796010e-01   1.33886302e+00   2.06591061e+00
C     6.314221520872462e+00   2.678854629335994e+00   4.462694803926182e+00 -2.85995888e+00  -9.52410440e-01   7.96256300e-02
C     4.442648625632424e+00   2.666330441690268e+00   6.229157941832197e+00  4.77224630e-01  -1.04437084e+00  -9.54843630e-01
C     6.217456056515153e+00   8.453468396364732e-01   6.280349460582806e+00  3.06907620e-01   7.75622020e-01  -1.37723913e+00
C     1.353813304824240e-02   3.603592740014652e+00   3.556964615333404e+00  5.62368020e-01  -1.34636848e+00  -1.02180542e+00
C     1.772797524386923e+00   5.362331368312191e+00   3.455543063075769e+00  2.10641980e-01   2.57419250e-01   2.41094175e+00
C     7.101011307492161e+00   5.329170861126795e+00   5.351985485694137e+00 -1.03560310e-01   4.42255590e-01  -9.52091220e-01
C     1.821120865694587e+00   3.593115920251938e+00   5.274571777824837e+00 -7.44707400e-01  -1.27546495e+00   1.14346519e+00
C     9.277996372168653e-01   4.503905599728728e+00   4.346298932914159e+00 -1.03131597e+00  -1.09834035e+00   2.82751414e+00
C     2.696730464035413e+00   6.189917885116820e+00   4.453947676639594e+00 -1.72667650e+00   3.72913440e-01  -1.14180600e+00
C     9.299396278466163e-01   6.195890026381013e+00   6.259374993379102e+00 -2.57091020e-01   2.59847030e-01  -1.94985709e+00
C     2.743550445043174e+00   4.395519214988015e+00   6.210818353641049e+00 -1.69952832e+00   1.02449255e+00  -5.07875300e-01
C     3.536942818929234e+00   3.522702160473457e+00   3.524774407835639e+00  1.07214785e+00   8.34861000e-03   9.42908220e-01
C     5.318522515126262e+00   5.373096292443693e+00   3.486744560071318e+00 -2.50002380e-01  -1.33388435e+00   2.01369642e+00
C     3.540304320902006e+00   5.249867165851289e+00   5.276639404712317e+00  1.85476070e+00   1.85595165e+00   1.68478089e+00
C     5.322915520305422e+00   3.551781935485388e+00   5.293101231984165e+00  1.00979578e+00  -4.89651210e-01   1.52495596e+00
C     4.451014670382355e+00   4.392933597344217e+00   4.404552882790416e+00 -2.05944080e-01   1.45915957e+00  -7.20312040e-01
C     6.098681636210252e+00   6.259479771528521e+00   4.466726559067793e+00  3.57114289e+00  -2.05944791e+00  -5.09484200e-02
C     4.401368451625108e+00   6.224782494456908e+00   6.265600407741245e+00 -2.08307680e-01  -9.75766970e-01  -1.60987064e+00
C     6.185463107745092e+00   4.444808662013965e+00   6.248409967150847e+00  1.21247788e+00  -1.68083090e-01  -2.26738257e+00
