64
Lattice="7.10842262195238 0 0 0 7.10842262195238 0 0 0 7.10842262195238 " PBC="1 1 1" Properties=species:S:1:pos:R:3:force:R:3 Energy="-513.86411814"
C     7.090721225991675e+00   5.520187754013400e-03   7.094843187016336e+00  8.98140740e-01  -4.71919720e-01   1.04327499e+00
C     1.737894600648913e+00   1.756788574720195e+00   1.891970656116580e-02  1.04909591e+00   8.08607460e-01  -5.35418000e-01
C     1.643815622452380e-02   1.737544510834878e+00   1.780889326192173e+00 -5.62588520e-01   1.69048099e+00   1.71534270e-01
C     1.807193546507900e+00   5.917975083828600e-03   1.771903213737101e+00 -1.12939040e+00  -1.39401754e+00   3.54347650e-01
C     8.965499451159524e-01   8.685547021431539e-01   9.366978895683551e-01 -3.92438870e-01   1.01421480e-01  -1.94425441e+00
C     2.649508075223134e+00   2.665064787042778e+00   8.516944477834546e-01  3.04234120e-01  -3.84606400e-01   1.62664092e+00
C     8.751002087758762e-01   2.691461487936790e+00   2.657696125070659e+00  8.31987360e-01  -1.63281060e+00   1.33214910e-01
C     2.676951917853299e+00   8.665892943729502e-01   2.651538453976084e+00 -5.65189600e-02   1.23116270e+00   2.73586000e-03
C     3.589708213532137e+00   4.514495230158420e-02   7.098339820103114e+00 -1.63768405e+00  -9.27139140e-01   1.18515260e-01
C     5.352849514463599e+00   1.790493373825603e+00   3.015947332368360e-02  2.42311800e-01   1.53718500e-01  -1.55837882e+00
C     3.559088043338451e+00   1.778330791638557e+00   1.761657559877990e+00  8.42003200e-02   5.64774280e-01   4.53339940e-01
C     5.293270412442522e+00   3.682802675195800e-03   1.760900157447829e+00  1.15938661e+00  -1.59374540e-01  -1.04398800e-02
C     4.449584953340795e+00   9.248126069477151e-01   8.640482465389788e-01 -2.80249700e-02  -7.92257580e-01   1.23662846e+00
C     6.241811573853833e+00   2.687378623236541e+00   8.884924769919562e-01 -4.82099470e-01  -1.02278508e+00   9.69149940e-01
C     4.480373806403253e+00   2.677049018906288e+00   2.712273812020531e+00 -1.95724204e+00  -4.21838700e-01  -1.45318389e+00
C     6.224317248196429e+00   8.579536982372693e-01   2.649665313531488e+00 -1.02357785e+00   1.22113426e+00  -2.32840700e-02
C     7.098423201900446e+00   3.564101542728110e+00   7.105274441790054e+00  1.77527810e-01   6.51854300e-02   1.50364760e-01
C     1.798720875418670e+00   5.322463993300599e+00   7.070999831527426e+00 -9.56271240e-01   1.81900330e-01   1.54783299e+00
C     8.579084175851799e-03   5.342850593953629e+00   1.793238220136090e+00 -1.38386950e-01  -3.98294050e-01  -8.04514620e-01
C     1.778097635376621e+00   3.535539616304046e+00   1.786410224788449e+00 -3.00800730e-01   1.17922921e+00  -1.07311155e+00
C     9.016813732368780e-01   4.449985015365848e+00   8.849713198471392e-01 -4.37341320e-01  -2.03246110e-01  -1.29382450e-01
C     2.648663878952783e+00   6.196923235608830e+00   8.670926417786723e-01  1.36708729e+00   1.52685946e+00   1.48512740e-01
C     9.041145152154778e-01   6.210474092733563e+00   2.685811713638414e+00 -2.24948790e-01   3.41074160e-01  -1.75599780e-01
C     2.634422438570517e+00   4.462749325527677e+00   2.663415064321128e+00  1.04345456e+00  -1.00086004e+00   4.09455930e-01
C     3.542864490392825e+00   3.537066292230143e+00   7.098964437198733e+00  1.00987006e+00   2.11108560e-01   7.18337800e-02
C     5.304280932575544e+00   5.322943385322092e+00   7.088270455124978e+00  4.56733400e-01  -1.48118410e-01   1.62642459e+00
C     3.526634468782615e+00   5.344584906904457e+00   1.778603115309129e+00  6.38488860e-01  -8.96856260e-01  -2.11956140e-01
C     5.333536001289285e+00   3.555498858589160e+00   1.828395838656574e+00  4.86397670e-01  -2.40557040e-01  -1.43174568e+00
C     4.447473680738429e+00   4.413015744256431e+00   9.300079397879947e-01 -1.01006332e+00   9.06453890e-01  -1.20752514e+00
C     6.202033907135705e+00   6.217530126278853e+00   8.847963815664610e-01  8.78697700e-02   9.32262000e-03  -2.72930280e-01
C     4.426215658556413e+00   6.225732179718940e+00   2.658451750395165e+00  5.34872430e-01  -6.83083600e-01  -5.17095470e-01
C     6.218199384268526e+00   4.431793779954781e+00   2.674572160128575e+00  3.71797130e-01   1.13797999e+00  -1.37012010e-01
C     7.071333358716757e+00   7.106024877966047e+00   3.523062770752970e+00  2.06696727e+00  -7.17255500e-02   1.12661870e+00
C     1.768944688242656e+00   1.787493903816868e+00   3.563223723618766e+00  1.49347910e-01  -8.11016670e-01  -4.21828310e-01
C     7.097095846144613e+00   1.781711486352403e+00   5.306697440845213e+00  2.55592320e-01   1.93478280e-01   9.63866200e-01
C     1.791495163825440e+00   1.251132140078340e-02   5.374726751340043e+00 -4.42139830e-01  -9.35478000e-03  -1.87926768e+00
C     8.685434708354144e-01   8.993321817294203e-01   4.458515406846753e+00  5.48204960e-01  -5.42227810e-01  -7.89789590e-01
C     2.677368542503057e+00   2.635752637695398e+00   4.437805088627609e+00 -1.02396422e+00   1.69036420e+00   9.19799100e-02
C     8.664787584012091e-01   2.651029917421849e+00   6.224933903858714e+00  1.86658600e-02   4.39718900e-01   7.67250000e-03
C     2.672769108731012e+00   9.309923852366384e-01   6.220421832600669e+00 -4.40116760e-01  -1.18766748e+00   5.46888450e-01
C     3.559970696175176e+00   7.085994693623186e+00   3.501253703649452e+00 -4.39740220e-01   8.48037840e-01   2.70972472e+00
C     5.347809713910245e+00   1.781316897812766e+00   3.552601678781927e+00 -3.18894820e-01  -6.92349450e-01   9.82798960e-01
C     3.545814627948578e+00   1.781177999234772e+00   5.319139455125452e+00  1.03726295e+00  -8.37032400e-02   7.92820150e-01
C     5.336742397480489e+00   7.086770293615253e+00   5.329407500515815e+00 -4.08956080e-01   7.35132120e-01   3.48195980e-01
C     4.419161828622135e+00   8.615017963038162e-01   4.490838044257929e+00  9.71239100e-01   4.75739200e-01  -2.56116154e+00
C     6.247687395991525e+00   2.677627360170651e+00   4.428739930513001e+00 -4.47007990e-01  -5.20912800e-02  -3.93605810e-01
C     4.509586508918179e+00   2.651860181183865e+00   6.210095142723691e+00 -2.25013218e+00   7.83760320e-01  -9.57048000e-03
C     6.225143673410230e+00   9.042226343235279e-01   6.210996561796132e+00 -1.79535280e-01  -6.04305680e-01   2.38087450e-01
C     1.219421466770520e-02   3.570816158734963e+00   3.516170159843713e+00  2.68858500e-02  -3.80550230e-01   1.57460488e+00
C     1.805727078921394e+00   5.314715315055216e+00   3.607201330757695e+00 -1.51354054e+00   8.38052070e-01  -1.56429753e+00
C     7.097611917626825e+00   5.324688574159529e+00   5.304784848655077e+00  5.77287770e-01   7.06682520e-01   9.06975980e-01
C     1.747359323198991e+00   3.556038174613339e+00   5.346153877945143e+00  1.19053892e+00  -1.08015790e+00  -2.59040330e-01
C     9.054942600460198e-01   4.438613956037539e+00   4.457893846372860e+00 -8.82320460e-01  -4.52138300e-02  -5.36267870e-01
C     2.668333808437263e+00   6.222515760651842e+00   4.431856049736931e+00  4.71817980e-01  -5.27985900e-02   1.04009625e+00
C     9.071407128932641e-01   6.223589274635914e+00   6.237101888446952e+00 -9.46167830e-01  -1.57903900e-01  -9.38353480e-01
C     2.660153506770393e+00   4.437501772234413e+00   6.207531347937334e+00  3.66376620e-01  -3.62384520e-01   2.00754480e-01
C     3.519007273479807e+00   3.569570763091939e+00   3.552133589152400e+00  1.51931299e+00  -5.02472730e-01   5.11780270e-01
C     5.340414892942886e+00   5.326092558711205e+00   3.557602098673966e+00 -8.71334220e-01   3.39643170e-01  -3.20886400e-01
C     3.554848509003657e+00   5.320142808978265e+00   5.353017486490110e+00 -7.86320400e-02   9.24289070e-01  -7.31086250e-01
C     5.366110987703471e+00   3.570517747153375e+00   5.310812080194574e+00 -1.17885252e+00  -1.04970166e+00   2.90389790e-01
C     4.434259762845884e+00   4.448485564698386e+00   4.461630601975742e+00  2.25792110e-01  -1.72597000e-02  -5.93538420e-01
C     6.226037059965112e+00   6.235598883568179e+00   4.406031434695375e+00 -5.51815860e-01  -9.68856680e-01   1.15959862e+00
C     4.426373394454352e+00   6.233352408767580e+00   6.242822889139980e+00  7.20484630e-01  -6.67381160e-01  -9.03301750e-01
C     6.185631435192734e+00   4.438000854586565e+00   6.212171868392123e+00  1.43149875e+00   8.19777470e-01  -1.90286660e-01
