64
Lattice="7.10842262195238 0 0 0 7.10842262195238 0 0 0 7.10842262195238 " PBC="1 1 1" Properties=species:S:1:pos:R:3:force:R:3 Energy="-506.10335407"
C     8.464133873663780e-02   7.084506189926557e+00   7.449769074212399e-03 -2.04822346e+00   9.18963470e-01   4.11467990e-01
C     1.851937725942169e+00   1.775258815719098e+00   8.207832587677059e-02 -2.70136519e+00  -1.48386370e-01  -1.70997821e+00
C     5.175571425395800e-03   1.776549847435342e+00   1.696068357615928e+00 -4.95865010e-01  -4.04479800e-02   3.70712314e+00
C     1.774512004838641e+00   7.083360596537118e+00   1.850468557155067e+00 -9.71200550e-01  -4.19652850e-01  -4.46172550e-01
C     9.557272080063214e-01   8.698687651486872e-01   1.010867242269661e+00 -1.28952649e+00  -3.32637780e-01  -4.37394937e+00
C     2.612851859045901e+00   2.713251362299234e+00   8.917941260462675e-01  3.15885004e+00  -5.91753430e-01   1.06460634e+00
C     7.945499805097269e-01   2.705830453420858e+00   2.647311288296649e+00  2.43166159e+00  -6.21680310e-01  -2.84603230e-01
C     2.596545635145205e+00   8.636309110469585e-01   2.660060955107881e+00  3.44297645e+00   1.80772776e+00   7.06612470e-01
C     3.438047600070746e+00   7.102792180611150e+00   1.324647446814380e-01  3.36394810e+00   1.42369620e+00  -4.57367473e+00
C     5.327871583640312e+00   1.786072503629773e+00   3.448757860432300e-02 -1.07097917e+00  -1.23300551e+00  -3.08270814e+00
C     3.619029248407791e+00   1.782248954186701e+00   1.793733463940025e+00 -3.67010535e+00   1.99243715e+00   4.47492070e-01
C     5.215743822822016e+00   1.175879534853972e-01   1.742749724382599e+00  4.43286696e+00  -2.57779886e+00   8.50070940e-01
C     4.372077840798267e+00   9.733758575188050e-01   8.655737140332308e-01  1.43243944e+00  -2.77380002e+00   1.15081714e+00
C     6.284888543846806e+00   2.587050062040956e+00   7.594462438327024e-01 -7.56604650e-01   3.93078173e+00   3.09700571e+00
C     4.548890328184457e+00   2.673898992506461e+00   2.643805698597370e+00 -7.98898460e-01  -1.20613910e+00   1.18164851e+00
C     6.179794709379451e+00   9.544412232701371e-01   2.675420550368272e+00  9.37307000e-02  -2.12147963e+00   4.22617170e-01
C     4.137009555345940e-02   3.557046930867344e+00   7.044131984382160e+00 -2.61683810e-01   8.30029460e-01   5.54971640e-01
C     1.865986172650301e+00   5.269238399417278e+00   9.194460322065200e-02 -2.02765742e+00   1.16102606e+00  -3.27365566e+00
C     7.009078219916153e+00   5.359622490620161e+00   1.702501622255481e+00  2.07410068e+00   6.51894470e-01   1.46714095e+00
C     1.727099039215919e+00   3.560523091696977e+00   1.790782544457785e+00  2.15001430e-01   1.02717511e+00  -1.10933966e+00
C     8.460465216749598e-01   4.495315852918946e+00   8.836964242502422e-01  1.08949037e+00  -2.20877781e+00   1.31372560e-01
C     2.717767769695077e+00   6.196155739218549e+00   9.748194359844745e-01 -2.88822582e+00  -3.13924860e-01   1.97587570e-01
C     8.295951437843627e-01   6.229837507034668e+00   2.708776254838813e+00 -1.09244898e+00   5.15940100e-01  -1.97503839e+00
C     2.663207427296398e+00   4.452782535087949e+00   2.601632209119398e+00 -4.77464000e-03  -7.37577550e-01   1.61836942e+00
C     3.565697028185170e+00   3.553666307237724e+00   7.080198130397706e+00 -6.28853790e-01  -4.49028670e-01   9.55553630e-01
C     5.189773271864071e+00   5.408377313180860e+00   7.062385205238474e+00  4.00811377e+00  -3.40360971e+00   1.73309775e+00
C     3.608037707763164e+00   5.334345010867668e+00   1.808532346824151e+00 -7.08629160e-01  -8.23708060e-01  -2.37717180e-01
C     5.419407594728766e+00   3.527903748725642e+00   1.706853327499219e+00 -1.32805505e+00   2.68318720e-01   1.00496800e+00
C     4.436325683711934e+00   4.431125090638917e+00   9.363335829090801e-01  7.91657420e-01   2.47823700e-02  -3.22999289e+00
C     6.174307646874848e+00   6.248636939085104e+00   8.062383598237930e-01 -7.50614240e-01   1.29069607e+00   1.16057120e+00
C     4.491126575132075e+00   6.242434129506892e+00   2.650086416487497e+00 -8.52590620e-01  -1.06091260e-01  -3.49679680e-01
C     6.209645534992975e+00   4.476727896441455e+00   2.588672275167066e+00  1.02808490e-01  -1.07509905e+00   2.31451625e+00
C     7.001311130856185e+00   2.537706875340000e-03   3.613556118411522e+00  2.96949572e+00   9.70432180e-01  -1.24314341e+00
C     1.725096454395413e+00   1.857841342012305e+00   3.498709599193754e+00  9.55643800e-01  -3.38514401e+00   1.97589093e+00
C     1.224246664044976e-01   1.793616174966796e+00   5.456662624427508e+00 -2.80727327e+00  -1.44088795e+00  -2.64029995e+00
C     1.879437085352996e+00   7.007839079685036e+00   5.368020381103429e+00 -2.07182073e+00   2.18886310e+00  -1.88392197e+00
C     9.090154882750631e-01   8.615189276023304e-01   4.527856718904555e+00 -1.31126290e-01   3.84291230e-01  -1.26097394e+00
C     2.675522342980190e+00   2.698815577642538e+00   4.369353111323796e+00  3.55428530e-01  -2.99350440e-01  -2.18319480e-01
C     9.691734291500872e-01   2.686625983449535e+00   6.234997226677621e+00  9.72230710e-01   2.89744800e-02   2.90140570e-01
C     2.677726451581974e+00   8.798606483202640e-01   6.280338869033101e+00 -1.24248893e+00  -2.86131450e-01  -7.11480570e-01
C     3.559889446904630e+00   7.038054283042060e+00   3.445176494947892e+00 -1.61280845e+00   3.08624029e+00   3.78730343e+00
C     5.390781763585347e+00   1.722177593899188e+00   3.731843327430049e+00 -5.57635620e-01   2.42908629e+00  -3.74553874e+00
C     3.483842546536703e+00   1.821263531736571e+00   5.335073339849313e+00  1.49847899e+00  -2.17903715e+00   3.09995590e-01
C     5.203908796749299e+00   7.063287121900500e+00   5.439978303527654e+00  2.16442730e+00   2.07901489e+00  -1.69360929e+00
C     4.385891780644166e+00   9.075416990132584e-01   4.538388486774121e+00  7.07715300e-01  -2.10801014e+00  -2.23703695e+00
C     6.327179322298008e+00   2.632055476006510e+00   4.559021607523611e+00 -2.42883450e+00   8.94931620e-01  -1.75573006e+00
C     4.427262160534529e+00   2.618338210708243e+00   6.213734584020904e+00  3.65215350e-01   2.21436829e+00   1.10395867e+00
C     6.203963772792809e+00   9.279039888609271e-01   6.267907588471020e+00  1.43328556e+00  -2.77260718e+00   8.27682100e-02
C     7.104152448363713e+00   3.574661104530120e+00   3.557310297925415e+00 -1.46193029e+00  -2.36620960e-01  -4.15307430e-01
C     1.709250927364718e+00   5.340514126522661e+00   3.482771733753226e+00  1.00019155e+00  -2.00955234e+00   3.73858060e-01
C     1.769009161635820e-02   5.351170647209207e+00   5.288883307254136e+00 -4.58311200e-01  -7.78268450e-01   1.65420628e+00
C     1.858873556060955e+00   3.601217460596179e+00   5.234979285515962e+00 -3.10432552e+00  -1.17001773e+00   1.48538424e+00
C     8.382853326057652e-01   4.476091976953870e+00   4.389638914544073e+00  2.70209111e+00  -5.61252010e-01   4.10412790e-01
C     2.680098176789137e+00   6.109619437179871e+00   4.254169937210745e+00  6.40274930e-01   2.89182450e+00   5.26391954e+00
C     9.688182923559920e-01   6.162260007881567e+00   6.257438801225867e+00 -2.90733320e-01   7.55058160e-01  -7.74299910e-01
C     2.700192550188258e+00   4.386920440481505e+00   6.140995161613837e+00  6.87355490e-01   2.33218718e+00   1.72351890e+00
C     3.668321112297431e+00   3.543985986229582e+00   3.473882082593106e+00 -3.23556467e+00   5.34365720e-01   9.98686220e-01
C     5.353425652116950e+00   5.365630173997454e+00   3.581700859787611e+00 -5.37471250e-01  -1.87614600e+00  -2.33104391e+00
C     3.591203896735611e+00   5.315584106467832e+00   5.221258963595968e+00 -3.00294985e+00  -1.54304556e+00   1.32264845e+00
C     5.327247037628918e+00   3.515931316843681e+00   5.390208042795687e+00  1.45973466e+00   4.73894870e-01  -2.47383102e+00
C     4.464402957881768e+00   4.401344567325106e+00   4.408265398672164e+00  1.67340835e+00   7.63316390e-01   4.61925570e-01
C     6.172137090027831e+00   6.208140255418964e+00   4.464207049754361e+00 -1.03707160e-01   1.25161467e+00   1.50198811e+00
C     4.257934699998748e+00   6.181481466982952e+00   6.250978382411906e+00  3.18174370e+00   2.07132462e+00  -7.22511040e-01
C     6.249884182918009e+00   4.439075150497125e+00   6.152429699156142e+00 -2.01897668e+00   6.56213660e-01   1.83997388e+00
