64
Lattice="7.10842262195238 0 0 0 7.10842262195238 0 0 0 7.10842262195238 " PBC="1 1 1" Properties=species:S:1:pos:R:3:force:R:3 Energy="-512.96624286"
C     7.100814119848683e+00   6.910168713128200e-03   5.885631760907600e-03  8.25846960e-01  -4.73297460e-01  -2.96508140e-01
C     1.749028665167072e+00   1.752552097007127e+00   2.514007394324920e-02  1.16128357e+00   1.31211899e+00  -8.05088550e-01
C     2.014740223186600e-02   1.751086695684014e+00   1.774848019975888e+00 -1.11207287e+00   6.71062950e-01   8.75858900e-02
C     1.789612640262985e+00   7.092459306406492e+00   1.731636700795396e+00 -3.21977750e-01   6.21690530e-01   1.99965350e+00
C     8.900462360082357e-01   9.002127731235861e-01   8.668383024173287e-01 -1.05073540e-01  -1.27445640e+00   9.99681350e-01
C     2.644561039584971e+00   2.653514950885576e+00   9.328147715437278e-01  5.82351540e-01  -2.89014330e-01  -1.23016346e+00
C     8.556298837985652e-01   2.694659496189302e+00   2.650325757077113e+00  1.69893401e+00  -1.61145596e+00   1.00831740e-01
C     2.724252072809040e+00   8.581060317340160e-01   2.657559003598319e+00 -2.39866102e+00   3.05212200e-01   2.77542680e-01
C     3.588809779997195e+00   3.201889451262320e-02   2.988650989507560e-02 -2.69878529e+00  -1.48616078e+00  -6.82563280e-01
C     5.313456200156535e+00   1.772498046541942e+00   7.967262240948399e-03  1.59185540e+00   6.11794310e-01  -1.00467931e+00
C     3.558696013830958e+00   1.750746202240516e+00   1.770959997139653e+00  2.02715800e-02   8.05074260e-01   4.54271900e-01
C     5.297978249659521e+00   8.079788571022999e-03   1.767097991130207e+00  9.21818570e-01   3.66853470e-01   3.61963560e-01
C     4.434006418663707e+00   8.922354169225171e-01   8.576880564839600e-01  1.00605392e+00   6.54038330e-01   1.42609409e+00
C     6.206541784424405e+00   2.666125576950360e+00   8.993524407338873e-01  7.10775070e-01  -6.39276170e-01   3.73132820e-01
C     4.423512823023611e+00   2.665616684974994e+00   2.657915419908486e+00  6.14176390e-01   3.55397560e-01   4.05914330e-01
C     6.243302636582603e+00   8.454633466832150e-01   2.668580399617951e+00 -1.39095634e+00   1.87259573e+00  -7.12705290e-01
C     1.911227372994160e-02   3.552217397455090e+00   4.310682536797780e-02 -1.15461293e+00   1.51962550e-01  -1.33901747e+00
C     1.811537930076339e+00   5.339928819004130e+00   7.066794773042339e+00 -6.11107550e-01   7.78581170e-01   1.77854916e+00
C     7.107575793613280e+00   5.377384590557660e+00   1.811628420296292e+00  4.57306500e-01  -2.66691858e+00  -1.41772502e+00
C     1.776488857169263e+00   3.559830873502241e+00   1.766745982042064e+00 -3.08519080e-01   7.26122490e-01   1.20729861e+00
C     9.381452354980133e-01   4.462528182499969e+00   8.752769241622094e-01 -1.73246131e+00   3.86016500e-02   7.09353700e-02
C     2.675977850701680e+00   6.216728011870413e+00   9.417086877574193e-01  1.04213730e-01   1.58584940e-01  -3.07547997e+00
C     9.035347522665905e-01   6.193496833737537e+00   2.631806894467488e+00 -8.50524200e-02   1.83205569e+00   1.87355643e+00
C     2.636454665513349e+00   4.466913155161569e+00   2.703721242261052e+00  1.33910477e+00  -1.36081134e+00  -1.55140065e+00
C     3.552419347741724e+00   3.521397764922687e+00   3.123796320359000e-02  1.63436630e-01   5.92835830e-01  -1.62800497e+00
C     5.304631519979162e+00   5.347231017224751e+00   7.086006920110092e+00  3.91964070e-01  -7.79901910e-01   1.26668240e+00
C     3.530649305878391e+00   5.339882543172873e+00   1.791909158358829e+00  8.91120880e-01  -9.59879370e-01  -2.97752180e-01
C     5.343652850530522e+00   3.545753993103629e+00   1.796160990264755e+00 -5.57818400e-02   6.15009100e-02  -6.24445050e-01
C     4.468926758037136e+00   4.397602480405259e+00   8.506283265589070e-01 -1.04864686e+00   1.65993826e+00   2.12992748e+00
C     6.214896242445464e+00   6.246108330990717e+00   9.398210461306783e-01 -4.79296350e-01  -8.29425170e-01  -2.17348100e+00
C     4.420290859386870e+00   6.243720114243076e+00   2.640152324791821e+00  8.31342730e-01  -1.42169422e+00   3.29833370e-01
C     6.252649785822546e+00   4.415013282096877e+00   2.702467174342432e+00 -1.09650607e+00   1.05183858e+00  -1.26961978e+00
C     7.083655027402038e+00   7.089792652744825e+00   3.546247957391492e+00  1.49144856e+00   4.51479310e-01   2.86015670e-01
C     1.781896163172070e+00   1.775664422313795e+00   3.514432790271159e+00  3.82670930e-01   2.71121730e-01   9.31156220e-01
C     7.102944656276350e+00   1.786029710925600e+00   5.313102556131190e+00  2.90129180e-01  -5.24894540e-01   1.04684076e+00
C     1.791007739286386e+00   1.633543951766480e-02   5.276936181356702e+00 -6.27417130e-01  -6.62552500e-02   1.67659059e+00
C     8.745898951159864e-01   9.170167998603612e-01   4.403694967264409e+00  5.82164820e-01  -1.02085294e+00   8.62369400e-02
C     2.670263105420557e+00   2.644892363163289e+00   4.492518830786428e+00 -5.79370930e-01   1.36602841e+00  -1.35928730e+00
C     8.958247438402599e-01   2.639893649292679e+00   6.235656177454496e+00 -1.05007653e+00   1.31769240e+00   6.56029000e-03
C     2.654316141199075e+00   9.068171374956018e-01   6.263640331288007e+00  6.86206440e-01  -8.27397280e-01  -1.37045237e+00
C     3.563217397122636e+00   7.062628313292079e+00   3.581293476087259e+00  1.03874460e-01   1.40627336e+00  -1.19695523e+00
C     5.342267347877657e+00   1.797909306808144e+00   3.528973353077273e+00 -4.21872110e-01  -1.33320860e+00   9.91860660e-01
C     3.562634008878212e+00   1.781142741458577e+00   5.361446725117132e+00 -3.34248540e-01  -6.79525250e-01  -8.67398990e-01
C     5.317116895637383e+00   7.093092809030386e+00   5.358850871344760e+00  3.30276730e-01   7.62217070e-01  -7.22828740e-01
C     4.442396347713641e+00   8.654402889406534e-01   4.432520758336127e+00  2.01133040e-01   7.13383080e-01   9.82816290e-01
C     6.217061823396647e+00   2.671456254157325e+00   4.464016188607014e+00  4.49137430e-01  -3.49211900e-01  -1.42073944e+00
C     4.467748039398288e+00   2.650003461195522e+00   6.188567355903246e+00 -8.02386540e-01   8.82871770e-01   7.96819630e-01
C     6.249448649864082e+00   8.867860290577990e-01   6.227338754315286e+00 -1.60849997e+00  -1.33705440e-01  -1.31738920e-01
C     1.779295049166960e-02   3.525171839744324e+00   3.592073470074715e+00 -6.45273320e-01   7.20644560e-01  -1.64241200e+00
C     1.795250543495586e+00   5.333473020664871e+00   3.554348360388113e+00 -1.38391072e+00  -2.33048900e-01  -8.04958600e-02
C     7.096246034220393e+00   5.301597289783816e+00   5.332371997085261e+00  3.65239270e-01   1.21700229e+00  -7.29553860e-01
C     1.730878871859878e+00   3.571508092592794e+00   5.362918310767925e+00  2.15669177e+00  -9.66616450e-01  -7.02927830e-01
C     8.933387862815936e-01   4.418734541338447e+00   4.400093342775532e+00 -3.11799100e-01   7.84424930e-01   2.46623433e+00
C     2.673386190898654e+00   6.194056835271541e+00   4.439196633439701e+00 -4.45743440e-01   1.25114480e+00   1.76805740e-01
C     9.143609510010767e-01   6.213077339265459e+00   6.182200199594060e+00 -9.11384430e-01   3.11752340e-01   6.50036190e-01
C     2.667535390408585e+00   4.475649335477322e+00   6.228734635265176e+00  3.01543190e-01  -2.02283359e+00  -4.24940650e-01
C     3.536022207115717e+00   3.586989312964213e+00   3.576225881601461e+00  9.55048400e-02  -1.02748194e+00  -2.77047880e-01
C     5.318185931315205e+00   5.330621974520443e+00   3.492255933381283e+00  8.31788470e-01   1.11313173e+00   1.70628057e+00
C     3.547806479050928e+00   5.353014216615705e+00   5.341111020770063e+00 -5.87624200e-02  -7.30178120e-01  -3.28664930e-01
C     5.357415183228199e+00   3.573471438920438e+00   5.264511938133014e+00 -1.68940697e+00   3.06692120e-01   2.39394477e+00
C     4.444864605299983e+00   4.513324401868680e+00   4.393933894575303e+00 -1.17909190e-01  -2.14351763e+00   1.34558109e+00
C     6.215595853399725e+00   6.249836982991813e+00   4.452979154057618e+00 -4.14483300e-01  -1.96201327e+00  -3.53679710e-01
C     4.376661920377453e+00   6.221853611084789e+00   6.246079115373749e+00  2.48531757e+00   6.66172230e-01  -6.13938260e-01
C     6.178876230092722e+00   4.454219502720582e+00   6.220737233312319e+00  1.93279618e+00  -3.64716610e-01  -3.45754330e-01
