64
Lattice="7.10842262195238 0 0 0 7.10842262195238 0 0 0 7.10842262195238 " PBC="1 1 1" Properties=species:S:1:pos:R:3:force:R:3 Energy="-513.39868969"
C     1.198188608404580e-02   7.065529971405563e+00   7.084237278298843e+00 -2.45707600e-01   1.49329028e+00   7.80365270e-01
C     1.785503190062137e+00   1.787050978003416e+00   4.148546525258200e-03 -3.62649040e-01   2.21175300e-02  -3.21541780e-01
C     2.062906894859720e-02   1.727593074588009e+00   1.733260406690257e+00 -1.05962217e+00   1.74065074e+00   8.63747900e-01
C     1.809854584515697e+00   7.078433890987649e+00   1.769601435408518e+00 -6.74066180e-01   8.11182050e-01   4.54067630e-01
C     9.209018371590959e-01   8.773418498490931e-01   8.934650318673248e-01 -3.34586130e-01  -8.97695290e-01  -1.31684050e+00
C     2.620100317591515e+00   2.673211892376012e+00   9.106293134624815e-01  1.16650698e+00   1.46626070e-01   1.26028820e-01
C     8.113504530351922e-01   2.658432913075222e+00   2.686065484325948e+00  2.09426908e+00   2.41565420e-01  -8.94548280e-01
C     2.651879729346070e+00   9.250889113349546e-01   2.650276851129487e+00  7.53231980e-01  -1.37489960e+00   1.15513860e-01
C     3.535612761972806e+00   7.100031198181316e+00   3.235085784897720e-02  1.08834866e+00   8.11889980e-01  -1.66732847e+00
C     5.321145949578399e+00   1.804984533094509e+00   7.088129281851745e+00 -4.56009010e-01  -1.06651413e+00  -3.55588480e-01
C     3.550943568121586e+00   1.783200132217483e+00   1.777959163303984e+00  5.52722800e-02   7.89800890e-01  -2.70103500e-02
C     5.307330659132203e+00   6.856429038121000e-03   1.733685916868290e+00  2.06999633e+00   5.28566080e-01   8.26407000e-02
C     4.430858311537988e+00   9.558335500087166e-01   8.658993508734529e-01 -1.02420390e-01  -2.62022229e+00   4.74341800e-01
C     6.210025266929336e+00   2.649806557888947e+00   8.364082825287280e-01  1.03082116e+00   2.63660830e-01   1.30339553e+00
C     4.497633909535327e+00   2.641146508779454e+00   2.676424472894895e+00 -1.33368395e+00   4.92687620e-01  -4.93183890e-01
C     6.242115885426195e+00   8.937574723739116e-01   2.616480566624959e+00 -6.81550910e-01  -1.17523070e+00   1.55521890e+00
C     7.091992354124584e+00   3.553669577112129e+00   7.091265304659011e+00  4.05414380e-01   3.80893070e-01   7.98554930e-01
C     1.790010143255895e+00   5.322314787509805e+00   3.624776621348740e-02  8.34853200e-02  -3.06926500e-02  -3.62884240e-01
C     7.072159215256748e+00   5.312511917295695e+00   1.762737044937063e+00  9.14355000e-01   9.00837900e-01   5.30137720e-01
C     1.740837203276688e+00   3.542495136753490e+00   1.816589601695469e+00  3.11893700e-01   4.55385490e-01  -7.53285780e-01
C     8.715573709420681e-01   4.453069146687987e+00   9.083089110666350e-01 -9.77875000e-03  -9.77792090e-01  -2.29217390e-01
C     2.726483619922137e+00   6.177532382796411e+00   9.259272076145312e-01 -2.05703038e+00   1.38779897e+00  -7.69899780e-01
C     8.984394349325746e-01   6.203810728453800e+00   2.645634055979460e+00 -7.16358650e-01   8.38146900e-02   6.55940180e-01
C     2.691761392287128e+00   4.435522787377006e+00   2.680535415864493e+00 -1.04017292e+00  -2.98062260e-01  -1.94130000e-03
C     3.508595495784067e+00   3.572972569820966e+00   3.077044224787260e-02  9.72301910e-01  -1.05592305e+00   7.35758100e-02
C     5.298008744792561e+00   5.324537378010401e+00   7.103960094447617e+00  1.09454429e+00   1.14675770e-01   2.30042980e-01
C     3.569666442460404e+00   5.327651435791770e+00   1.810336037979750e+00  1.00635459e+00  -5.61478960e-01  -2.12440630e-01
C     5.362682666558071e+00   3.527545342057142e+00   1.765707157160378e+00 -1.08845254e+00   4.51784620e-01   3.77798650e-01
C     4.450061430909013e+00   4.441772228207605e+00   9.275583062689163e-01 -6.51417450e-01  -4.91258080e-01  -1.15952642e+00
C     6.235645799157471e+00   6.197996820677129e+00   8.566859821472186e-01 -1.25925919e+00   6.85681030e-01   2.15659890e-01
C     4.503809493854905e+00   6.235380299572613e+00   2.629931194990749e+00 -1.85809523e+00  -3.80048600e-01   1.61519785e+00
C     6.180266211051836e+00   4.455059149600457e+00   2.658395522772241e+00  1.83681358e+00  -9.53252240e-01   5.12962380e-01
C     7.093654374417366e+00   7.094791935289245e+00   3.571597161128222e+00  1.26113154e+00   3.03707490e-01  -1.48400194e+00
C     1.743076214233536e+00   1.798258330358786e+00   3.541750742736723e+00  2.77219710e-01  -1.12186378e+00   3.29443050e-01
C     4.329576724121740e-02   1.742046345964350e+00   5.346598367611571e+00 -1.45829430e+00   1.01002947e+00  -5.07586300e-02
C     1.805308748250207e+00   7.107104220856669e+00   5.355491075393418e+00  2.80239180e-01  -6.31212210e-01  -1.68328973e+00
C     9.150782619276610e-01   8.414615890850597e-01   4.449726268782480e+00 -6.40532610e-01   1.53756569e+00   5.86829100e-02
C     2.639194820264907e+00   2.681661887597084e+00   4.406318046295414e+00  3.75223000e-02   1.63514030e-01   4.72687010e-01
C     8.757153716694109e-01   2.708537482923007e+00   6.236465471369783e+00  1.05633109e+00  -1.86554945e+00  -1.06895062e+00
C     2.682021218360525e+00   8.924009720853370e-01   6.193863912681635e+00 -8.05073210e-01   3.30258050e-01   1.10029201e+00
C     3.591669071911864e+00   1.201494024922880e-02   3.507591502173218e+00 -9.82635110e-01   3.91287500e-01   1.00695516e+00
C     5.380351930496153e+00   1.769515281326364e+00   3.561301748310771e+00 -1.03122114e+00   1.79476450e-01  -1.35854000e-02
C     3.520442250754106e+00   1.816173332466841e+00   5.274525644162034e+00  6.61748820e-01  -9.25835780e-01   1.97683494e+00
C     5.284429098556218e+00   3.564895269197860e-02   5.318851492925115e+00  8.15575670e-01  -1.08818821e+00   7.76161750e-01
C     4.419107662441771e+00   9.220340667140096e-01   4.458400179316083e+00  8.69677770e-01  -7.51397130e-01  -2.04577473e+00
C     6.219649857904137e+00   2.638694600565137e+00   4.498957284574493e+00  6.92934790e-01   1.24134648e+00  -1.27185216e+00
C     4.405271188896167e+00   2.665809962986032e+00   6.228891233815494e+00 -2.55337400e-02   1.14467303e+00  -1.74664900e-01
C     6.192799995068099e+00   8.745841372936641e-01   6.201680902868397e+00  1.14010477e+00   2.47906670e-01   7.20562650e-01
C     5.119485970924001e-04   3.584487148201973e+00   3.548442398538513e+00 -1.42776546e+00  -7.84264750e-01   1.28212401e+00
C     1.779277917868446e+00   5.337395306098135e+00   3.556369924697015e+00  2.47792220e-01  -2.82322750e-01  -5.73994630e-01
C     1.505393308773120e-02   5.369474551118802e+00   5.350547309629659e+00 -4.56682830e-01  -1.00440840e+00   1.30773610e-01
C     1.780292574113225e+00   3.594603215516722e+00   5.311839389431617e+00 -6.42385420e-01  -9.38174630e-01   9.04951340e-01
C     8.810720657031643e-01   4.480444464124096e+00   4.458116268916640e+00  3.06931360e-01  -3.38889010e-01  -8.05980900e-01
C     2.690989275422144e+00   6.212356971717148e+00   4.373843075387492e+00  1.22216140e-01   2.92258590e-01   2.45959309e+00
C     9.335969112846063e-01   6.218465381442966e+00   6.241517498410043e+00 -5.93502110e-01  -1.59896510e-01  -3.20554850e-01
C     2.654611780495841e+00   4.429151508182700e+00   6.246629307284537e+00  2.57618430e-01   9.20873270e-01  -8.92279650e-01
C     3.569037560311213e+00   3.522634701542793e+00   3.538147554394871e+00  3.25201560e-01   9.44161470e-01   4.84383380e-01
C     5.348299342060311e+00   5.311622866878611e+00   3.583238340516091e+00 -4.32554960e-01   1.19865790e+00  -8.41887030e-01
C     3.573833257631795e+00   5.303776376737977e+00   5.335322845483275e+00 -1.32482596e+00   9.35705940e-01  -5.69862460e-01
C     5.311457453884244e+00   3.580218327165984e+00   5.393906270747969e+00  3.75768840e-01  -1.85992451e+00  -2.00275064e+00
C     4.445095415782455e+00   4.425011562848812e+00   4.456304687411933e+00  1.99922560e-01   8.93607500e-02   3.86628800e-02
C     6.230674950303531e+00   6.249212294811967e+00   4.466485796793654e+00 -9.91574540e-01  -8.51750080e-01  -4.09344370e-01
C     4.410662145526949e+00   6.219813493792849e+00   6.212668107375226e+00  7.80782360e-01   1.09862470e-01   4.01123670e-01
C     6.205724244738878e+00   4.426398629354652e+00   6.234521602120118e+00  1.46889870e-01   1.62623204e+00  -1.08899510e-01
