64
Lattice="7.10842262195238 0 0 0 7.10842262195238 0 0 0 7.10842262195238 " PBC="1 1 1" Properties=species:S:1:pos:R:3:force:R:3 Energy="-505.68802321"
C     7.094989833774986e+00   7.036073094573640e+00   6.807402247310859e-02 -5.83483200e-01   3.20153521e+00  -1.61118094e+00
C     1.751724392277254e+00   1.729950227528801e+00   9.461424241981919e-02 -6.08601290e-01   3.90766610e-01  -4.60021933e+00
C     1.456075072635560e-02   1.764088924750935e+00   1.852456072119619e+00 -2.11830600e-01   1.94798165e+00  -3.35768050e-01
C     1.715154188013724e+00   7.099317583634494e+00   1.807661138547844e+00  9.03272230e-01   7.05799840e-01   6.03440540e-01
C     8.371749969925212e-01   9.050062668331568e-01   9.396879764592320e-01  4.73313460e-01  -2.32917724e+00   5.19614500e-02
C     2.657048974275335e+00   2.601282048221137e+00   8.433537801022776e-01  2.11423359e+00   2.80269925e+00   1.46285081e+00
C     1.020372838249804e+00   2.697730690182273e+00   2.561603046408976e+00 -2.19050611e+00  -1.70213612e+00   3.85879666e+00
C     2.626663453112335e+00   8.575517169381083e-01   2.765434861426463e+00  1.97139045e+00  -1.68950280e-01  -4.47284468e+00
C     3.552099895229182e+00   7.070716703054472e+00   2.723421524710120e-02 -3.90771950e-01   1.44017478e+00  -1.36711234e+00
C     5.352719999003463e+00   1.701020440234151e+00   3.729860432940200e-03  3.97367690e-01   3.88678425e+00   3.10212740e-01
C     3.615652036821030e+00   1.785358462577594e+00   1.787312567955832e+00 -4.14991394e+00   2.11027400e-01   3.54785450e-01
C     5.281752422018656e+00   7.104091742434539e+00   1.802045555762270e+00  2.01387395e+00   1.00827276e+00   5.27312470e-01
C     4.472016860434276e+00   9.440814792279754e-01   9.660163654118666e-01 -3.97146780e-01  -2.96984870e+00  -3.02803199e+00
C     6.264089939018722e+00   2.783733647271772e+00   1.098598612319213e+00 -1.93231703e+00  -3.29457663e+00  -6.08540738e+00
C     4.353789291081531e+00   2.763021623031200e+00   2.603516936292865e+00  2.15090991e+00  -3.39455633e+00   3.25079792e+00
C     6.221245130108517e+00   9.135603293613861e-01   2.774898304460469e+00 -1.57231908e+00   3.01186130e-01  -2.42508651e+00
C     8.151583639485000e-03   3.617908605581748e+00   2.964951508492480e-02 -4.30713760e-01  -2.79636236e+00  -2.18037640e-01
C     1.757711603397401e+00   5.412089402557251e+00   7.010022929282352e+00 -7.14806260e-01  -3.28489205e+00   1.62638131e+00
C     4.089482641708620e-02   5.282103862432990e+00   1.769238052844184e+00 -1.79877155e+00   3.08049966e+00   5.81600540e-01
C     1.835424575859004e+00   3.603788434889381e+00   1.716388423433234e+00 -1.12594095e+00  -1.74113447e+00  -1.64662520e+00
C     8.879243007719395e-01   4.534535366292951e+00   8.107244853392750e-01  2.18179809e+00  -1.88837507e+00   1.01043470e+00
C     2.571641774085618e+00   6.204615544062837e+00   8.457240125406904e-01  2.79451517e+00   1.56891155e+00   9.85402890e-01
C     8.463939102883992e-01   6.292900518066035e+00   2.751844481471964e+00  4.35897350e-01  -2.60673407e+00  -2.20948467e+00
C     2.645143503734454e+00   4.429451839038395e+00   2.595194608342048e+00  1.05392264e+00   1.89241054e+00   2.45470996e+00
C     3.602249887897508e+00   3.561755407842380e+00   7.085836033630307e+00 -2.42747788e+00  -1.01312444e+00  -1.20164959e+00
C     5.373845378019388e+00   5.357860810242247e+00   7.362520294974520e-02 -1.22295749e+00  -1.81656743e+00  -4.35586596e+00
C     3.529699549532133e+00   5.341883848477308e+00   1.699161445550569e+00 -1.57675809e+00   1.53392440e-01   1.74140107e+00
C     5.190314364993906e+00   3.592642641473899e+00   1.794193449967766e+00  5.78108583e+00   1.08546772e+00  -5.69107500e-01
C     4.429198352687766e+00   4.512881120634097e+00   8.543738966058374e-01  4.13378100e-02  -2.20250369e+00   4.09537620e-01
C     6.187221589332828e+00   6.200734345312317e+00   8.937993409831434e-01  1.29748011e+00   9.87866300e-01   2.85649484e+00
C     4.371811274950018e+00   6.240469361494724e+00   2.625316051604714e+00  1.23074501e+00  -9.84228020e-01   3.99422250e-01
C     6.309542046261717e+00   4.387558492495877e+00   2.629159860052253e+00 -3.74002297e+00   2.25565061e+00   6.14500690e-01
C     7.075168850309830e+00   6.020570947503060e-02   3.629430647806506e+00  6.33703860e-01  -1.22303474e+00  -2.51671753e+00
C     1.844071474386650e+00   1.736571083441295e+00   3.587298600432409e+00 -1.50789458e+00   2.58440907e+00  -4.82449680e-01
C     3.459612421773040e-02   1.806311178008079e+00   5.279194669391528e+00 -2.78744652e+00  -6.98591870e-01   2.65675542e+00
C     1.684649814024518e+00   5.997518332946400e-03   5.423545620788547e+00  1.27362493e+00   2.41768070e-01  -4.52218916e+00
C     8.469751660060366e-01   9.652491533584900e-01   4.400554679403571e+00  1.68603851e+00  -2.26184729e+00   2.52200016e+00
C     2.736931863825918e+00   2.570386995324736e+00   4.524090036842444e+00 -1.59847320e-01   1.82513599e+00  -3.95169664e+00
C     8.107018805553434e-01   2.596021957650789e+00   6.221215416901965e+00  3.92323738e+00   3.08050237e+00   1.78891755e+00
C     2.605748341237509e+00   8.390071218385999e-01   6.174595822327863e+00  2.80971417e+00   8.24249520e-01   3.79320283e+00
C     3.493292483567731e+00   7.071961387855234e+00   3.529262665877908e+00  1.00072959e+00  -2.53385330e-01   2.36094572e+00
C     5.279863927381201e+00   1.817900465910823e+00   3.603131332302387e+00  1.62947315e+00  -6.85197760e-01  -1.61701441e+00
C     3.665863659513470e+00   1.689798231275505e+00   5.283623358852241e+00 -4.91715072e+00   1.64175612e+00   3.10756431e+00
C     5.374900339020423e+00   7.065668656730879e+00   5.342212257602353e+00  2.30554150e-01   7.82869340e-01  -1.83883026e+00
C     4.443456640031640e+00   8.473481449409079e-01   4.432140528810184e+00  1.12244832e+00  -1.04119410e+00  -6.69266410e-01
C     6.222924637120945e+00   2.665896188152413e+00   4.480056841838628e+00 -2.19564380e-01   1.44917441e+00  -3.16355193e+00
C     4.435719975020485e+00   2.647028373076373e+00   6.155471179942563e+00  2.19235614e+00   2.10206400e-01   1.71296606e+00
C     6.260680384109039e+00   8.747192684076703e-01   6.233561183139930e+00 -8.23822160e-01  -1.03433121e+00  -1.21507840e-01
C     8.807108156656160e-02   3.527761793525920e+00   3.447084111242195e+00 -7.53605910e-01  -1.49519620e-01   3.44178128e+00
C     1.707794127232976e+00   5.335107460277889e+00   3.599809068822478e+00  3.03149211e+00   5.29444350e-01  -1.93721755e+00
C     7.853953984385599e-03   5.359729401296366e+00   5.301117186920061e+00 -1.88799220e-01  -3.08345408e+00   4.35675620e-01
C     1.877013397576481e+00   3.501832044913816e+00   5.292113658829569e+00 -3.02737625e+00   3.48644320e-01   2.22606858e+00
C     9.677068904793551e-01   4.411576075423202e+00   4.436263200677105e+00 -2.43453584e+00  -8.01462880e-01  -2.63247130e-01
C     2.620820969476731e+00   6.177454758821400e+00   4.477685756389501e+00  7.32337790e-01   1.19497260e+00   7.25893000e-02
C     8.034689183710410e-01   6.227940908795427e+00   6.215969401008406e+00  1.59233892e+00   5.67703870e-01  -2.02176900e-02
C     2.639666748442648e+00   4.442074407253181e+00   6.187599401995081e+00  2.27509188e+00   1.79453500e-02   8.55649550e-01
C     3.569808681997030e+00   3.554361653138413e+00   3.531588257422266e+00 -2.27508310e+00   5.97673490e-01   6.63083350e-01
C     5.341008730568560e+00   5.390651466198723e+00   3.522396782637701e+00 -3.14004070e-01  -2.87691050e+00  -1.17876871e+00
C     3.588246650757239e+00   5.328467127287416e+00   5.360149935578566e+00 -9.46244140e-01  -7.34170200e-01  -2.02884521e+00
C     5.311879338766740e+00   3.637811122654356e+00   5.227311216783090e+00  2.75621222e+00  -3.82333383e+00   4.72823603e+00
C     4.452997778124883e+00   4.431313534922572e+00   4.411875695436635e+00 -7.79699090e-01   2.69168843e+00  -1.38415680e+00
C     6.253267436663998e+00   6.170228478554360e+00   4.347883684653062e+00 -1.01296533e+00   2.38318988e+00   4.37647807e+00
C     4.538822811396203e+00   6.180101295647052e+00   6.158608126844768e+00 -2.63351650e+00   7.75344010e-01   3.80593765e+00
C     6.250482001260351e+00   4.420121536760061e+00   6.255348569554456e+00 -1.85703405e+00   2.18735979e+00  -1.81702483e+00
