64
Lattice="7.10842262195238 0 0 0 7.10842262195238 0 0 0 7.10842262195238 " PBC="1 1 1" Properties=species:S:1:pos:R:3:force:R:3 Energy="-511.15237273"
C     7.096828711622553e+00   3.155037837773900e-02   7.086251023342863e+00 -3.11435460e-01  -1.91972796e+00   1.54325030e-01
C     1.750625145803297e+00   1.775685747581655e+00   7.032798457525285e+00  1.23330948e+00   1.32571843e+00   1.74862467e+00
C     7.100532199807573e+00   1.745218408474299e+00   1.762091742331619e+00  8.17558940e-01   5.72288250e-01   1.98902410e-01
C     1.787843424957093e+00   1.235422526088140e-02   1.763431537827037e+00  6.13102030e-01   3.03368780e-01  -1.46774839e+00
C     8.983505085655983e-01   9.189008161915660e-01   7.893819440123084e-01 -8.47542020e-01  -1.02873802e+00   2.66195581e+00
C     2.649295675555248e+00   2.636233522485641e+00   9.447785311500926e-01  2.25601140e-01   1.23556437e+00  -2.45857154e+00
C     8.945701783320561e-01   2.616712514455049e+00   2.669231317877264e+00 -1.14992754e+00   2.00823507e+00   7.51584920e-01
C     2.675039823252745e+00   8.991381928761206e-01   2.657707214209946e+00 -4.97058900e-01  -4.06675080e-01   1.16262723e+00
C     3.566984932195461e+00   1.581424997116640e-02   7.050723695761912e+00  9.23602550e-01  -7.69446720e-01   2.10596997e+00
C     5.362009641104409e+00   1.780489832840930e+00   7.070600906849992e+00 -1.24735791e+00   4.52902100e-02   2.01542608e+00
C     3.568999885671327e+00   1.745641999378225e+00   1.794179162038299e+00 -2.91808500e-01   9.92069150e-01  -9.46651030e-01
C     5.341553733330835e+00   7.042688334832264e+00   1.764729038207866e+00  2.48556700e-02   1.15088644e+00   4.24932370e-01
C     4.504712690033002e+00   8.620290990937678e-01   9.080624620543996e-01 -1.97269960e+00   6.41708600e-01  -1.73419175e+00
C     6.190480801104098e+00   2.688908071447460e+00   9.814115027853578e-01  1.80285585e+00  -1.91958126e+00  -4.10771920e+00
C     4.407902655865865e+00   2.700114286455212e+00   2.622127995143870e+00  1.21157828e+00  -1.84937650e+00   1.75752928e+00
C     6.250615923942513e+00   8.282634518907320e-01   2.642015371276297e+00 -9.17156800e-02   4.24014390e-01   3.41076240e-01
C     7.072022378121313e+00   3.511985573615771e+00   6.198189103509000e-03  1.66267632e+00   1.50849027e+00   3.11341390e-01
C     1.769182038473938e+00   5.356965504413258e+00   3.952489120975980e-02 -4.03364560e-01  -5.08478280e-01  -2.21639468e+00
C     1.817652097624480e-02   5.251089530205024e+00   1.786657597895625e+00 -6.58005470e-01   3.22611073e+00   5.01666600e-02
C     1.752660073946725e+00   3.603337760895272e+00   1.820523758194508e+00  8.84677620e-01  -3.58781770e+00  -1.18441819e+00
C     9.161072061019060e-01   4.466674454329989e+00   8.688820450048050e-01 -1.31638012e+00  -1.95328542e+00   1.66811412e+00
C     2.686791894033486e+00   6.199958887488702e+00   8.325849463383348e-01  1.80222430e-01   1.10630524e+00   2.48578078e+00
C     9.399708205952818e-01   6.251603283844430e+00   2.652147574710392e+00 -1.14177251e+00  -2.26482025e+00  -5.38087310e-01
C     2.667373105120170e+00   4.358106236138657e+00   2.710711593981334e+00 -3.32326460e-01   4.19166051e+00  -5.76349480e-01
C     3.555998083109763e+00   3.568551628540909e+00   1.152026511910300e-02 -7.60254430e-01  -1.03523599e+00   6.64831130e-01
C     5.364627104481547e+00   5.245893557606710e+00   1.522425089370640e-02 -5.08444280e-01   4.51616531e+00  -7.73037060e-01
C     3.588667398292117e+00   5.296389090698594e+00   1.801204558282098e+00 -1.11184618e+00   3.73440950e-01  -8.94992960e-01
C     5.349519787139938e+00   3.560625524066931e+00   1.780141520132550e+00 -2.09198054e+00   2.46349770e-01   1.37842959e+00
C     4.485382756402436e+00   4.443426997909315e+00   8.893101588459347e-01 -1.22411191e+00  -6.78440400e-01   3.05811370e-01
C     6.202715747033416e+00   6.187001299315834e+00   8.737014133727126e-01  1.47525976e+00  -4.96353570e-01   8.47878280e-01
C     4.416005831147308e+00   6.228184798775519e+00   2.661580522611358e+00  8.45542760e-01  -6.03234150e-01   1.20235225e+00
C     6.188101327716279e+00   4.400424666353851e+00   2.730772202373009e+00  1.43725184e+00   1.66175428e+00  -2.11851510e+00
C     6.202631867646501e-02   7.045926079167222e+00   3.566078252890280e+00 -2.90588329e+00   2.07519360e-01  -2.11974587e+00
C     1.733026468501832e+00   1.741746654866691e+00   3.612250869850038e+00  1.65632087e+00   9.49360320e-01  -2.84166125e+00
C     7.052434764170772e+00   1.750860790013151e+00   5.264597239204454e+00  1.82431526e+00   4.96377700e-01   1.06942487e+00
C     1.785077893136782e+00   3.082574577585620e-02   5.345643208864121e+00 -5.14436230e-01  -9.30646980e-01  -7.67012700e-02
C     8.678284346040686e-01   8.161083335474368e-01   4.371814118319066e+00  6.92368670e-01   2.38621219e+00   3.80568465e+00
C     2.629141520321893e+00   2.652265787778563e+00   4.493079756415372e+00 -1.44468520e-01   1.57196050e-01  -9.81562710e-01
C     8.447045936527562e-01   2.687274413760932e+00   6.159660315560981e+00 -2.87951760e-01  -1.99364143e+00   1.44424487e+00
C     2.692425176791383e+00   9.071865622191631e-01   6.217843820969073e+00 -5.21629230e-01   5.55798780e-01  -1.16726874e+00
C     3.546139909367668e+00   5.290898473982680e-02   3.586618324387675e+00  1.25347844e+00  -6.49398030e-01  -7.67986260e-01
C     5.370513304916264e+00   1.782461780359944e+00   3.494302377169354e+00 -8.46092400e-01   1.00655925e+00   2.81899100e-01
C     3.585143397778252e+00   1.830875398634883e+00   5.306367112446062e+00 -1.04694983e+00  -1.30708260e+00   1.09217422e+00
C     5.361919648474040e+00   1.011826381733778e-01   5.262487601539290e+00 -1.12514708e+00  -3.74853992e+00   1.57257611e+00
C     4.499413360969792e+00   9.907616375628009e-01   4.421979180843346e+00 -1.69510007e+00  -1.80426699e+00  -8.66837970e-01
C     6.200964516036753e+00   2.676445158404719e+00   4.438336087797323e+00 -3.09517300e-02  -9.01064700e-02  -5.85283630e-01
C     4.434220382184570e+00   2.683736622907184e+00   6.190756465733301e+00 -2.93542870e-01  -2.66997110e-01   2.19274651e+00
C     6.223036594777210e+00   8.661217734172327e-01   6.193508846971766e+00  2.53315690e-01   2.18397333e+00  -1.21141400e-02
C     7.100411285538808e+00   3.588934035224593e+00   3.574775905555434e+00 -1.11282700e-02  -1.83428828e+00   4.69296770e-01
C     1.792910806190213e+00   5.396165611793510e+00   3.546922191276999e+00  9.82203210e-01  -1.75161846e+00   1.33624113e+00
C     4.771031094091599e-03   5.366544174977934e+00   5.364973711168497e+00 -1.37132499e+00  -1.42113052e+00  -7.28425400e-01
C     1.722670420839433e+00   3.555585297008220e+00   5.349264097178297e+00  1.13081131e+00   1.40950701e+00  -7.46679990e-01
C     8.681360160508359e-01   4.490257712635232e+00   4.453447741276729e+00  7.58780990e-01  -1.56117040e-01  -4.02516970e-01
C     2.698527331105296e+00   6.293474452108373e+00   4.501788142798682e+00 -5.15300540e-01  -2.40580630e+00  -1.22805406e+00
C     8.386645669525422e-01   6.222815380665276e+00   6.225989433533559e+00  2.44727989e+00   1.31880647e+00   4.94406260e-01
C     2.619374476557787e+00   4.458034308803832e+00   6.241820743719012e+00  1.13146428e+00  -7.12963520e-01   4.39756950e-01
C     3.504930606333874e+00   3.511762298061277e+00   3.593016473419484e+00  1.30341012e+00   7.85609510e-01  -6.78270130e-01
C     5.332706945959115e+00   5.332007548257533e+00   3.578374757759487e+00 -1.25867604e+00  -3.02487860e-01  -3.64616700e-01
C     3.569858867460728e+00   5.293872566922662e+00   5.395350560055901e+00 -6.30144970e-01   2.55108437e+00  -2.18803246e+00
C     5.266276532964203e+00   3.544344748319214e+00   5.352711397812093e+00  3.20833052e+00   1.10608417e+00  -1.29028886e+00
C     4.436776073369138e+00   4.444607209316914e+00   4.458641936769389e+00 -1.10277306e+00  -5.63746550e-01   3.72912630e-01
C     6.192749098762140e+00   6.198720955689429e+00   4.444044577666540e+00  1.76892044e+00   1.43196870e+00  -2.23434900e-02
C     4.475657012573753e+00   6.254502738346902e+00   6.187841514869518e+00 -3.28484740e-01  -1.29126750e+00   4.90161950e-01
C     6.245861100051995e+00   4.454398990391737e+00   6.255029543547270e+00 -1.18151845e+00  -1.81085032e+00  -1.20418961e+00
