64
Lattice="7.10842262195238 0 0 0 7.10842262195238 0 0 0 7.10842262195238 " PBC="1 1 1" Properties=species:S:1:pos:R:3:force:R:3 Energy="-506.604987"
C     7.106158871732434e+00   6.976730347604677e+00   7.045918615323471e+00 -7.55616100e-02   4.39162152e+00   1.13923494e+00
C     1.771151853466167e+00   1.774407511026127e+00   6.624040485827960e-02  1.76155120e-01  -8.22267720e-01  -3.14959131e+00
C     7.844286529622400e-02   1.727027244147457e+00   1.770073150333582e+00 -3.38252842e+00   4.07796990e-01  -6.66936970e-01
C     1.739926472170614e+00   7.039332235260684e+00   1.711299006089993e+00  2.79324472e+00   1.31818181e+00   8.47985420e-01
C     8.537875228239136e-01   8.004875037557606e-01   8.327796460338966e-01  1.35185099e+00   9.26533060e-01   1.34798318e+00
C     2.635959492793640e+00   2.711117840334067e+00   9.182051859539727e-01 -2.07647544e+00  -1.36930213e+00   4.53449860e-01
C     8.486487019434632e-01   2.584676062138555e+00   2.724220155991477e+00  3.81843790e-01   1.80617222e+00  -7.52787720e-01
C     2.633769174531739e+00   8.838815275752671e-01   2.597993834085577e+00 -2.76139490e-01   9.45827520e-01   3.41092100e-01
C     3.596374279012494e+00   6.046324762655320e-02   7.052936547723518e+00 -1.68264623e+00  -7.78579300e-01   1.56440192e+00
C     5.307031394539901e+00   1.873331234659321e+00   7.074865889337766e+00  4.63870500e-02  -1.27878750e+00   1.12176635e+00
C     3.553560462824913e+00   1.904696936217392e+00   1.749627478688580e+00 -1.05747938e+00  -3.93551293e+00   1.42399683e+00
C     5.392152693971841e+00   4.998678328497100e-02   1.656714210717501e+00 -2.26473879e+00  -1.04675356e+00   3.01176765e+00
C     4.406166281472477e+00   9.741147069659277e-01   9.119408174358716e-01  2.24269610e+00   1.94916430e-01  -2.59189234e+00
C     6.271729218639983e+00   2.734825922540517e+00   8.224468429134646e-01 -2.57954837e+00  -3.37434215e+00   4.11525186e+00
C     4.404577406848455e+00   2.682756797933243e+00   2.710421925759569e+00  3.04279891e+00  -2.66748926e+00  -1.16767415e+00
C     6.286750026478306e+00   8.229034879825734e-01   2.677925842836465e+00 -1.44912711e+00   1.76069218e+00  -2.37297716e+00
C     7.094537382675223e+00   3.563037696198802e+00   7.107615742948403e+00  9.49097540e-01   2.08145860e+00  -3.74938780e-01
C     1.842096541330136e+00   5.315338297213632e+00   3.087756617675600e-03 -4.07890940e-01  -4.07258860e-01   4.30228940e-01
C     8.909341490777000e-03   5.413450807657433e+00   1.790773872182188e+00 -2.03001706e+00  -2.32661151e+00   2.43712440e-01
C     1.693789894913540e+00   3.516234704321103e+00   1.896809999152050e+00  1.43165180e+00   1.95242328e+00  -2.78881117e+00
C     8.353077565386996e-01   4.499825791650204e+00   1.006936000223897e+00  2.26724935e+00  -2.52337668e+00  -3.79112265e+00
C     2.770823045772423e+00   6.170978772561902e+00   8.515139649331328e-01 -3.43284146e+00   2.01776957e+00  -2.18224500e-02
C     8.830892938742680e-01   6.234972631535356e+00   2.668198179733674e+00  1.42264604e+00  -6.30945860e-01   5.24673540e-01
C     2.627585628778828e+00   4.446230630874869e+00   2.651574351510315e+00  5.26747640e-01  -6.84726120e-01   1.66593127e+00
C     3.470123077627424e+00   3.545770129222976e+00   5.965914285977880e-02  2.43023674e+00   1.09799045e+00  -1.88718079e+00
C     5.240597071912547e+00   5.292332029572455e+00   6.640013111455099e-02  9.09298350e-01  -1.41811368e+00  -1.90266639e+00
C     3.572758250878973e+00   5.299736020404994e+00   1.768501904597657e+00 -1.69775268e+00   7.92327940e-01   8.62601120e-01
C     5.331287393961900e+00   3.527319436386278e+00   1.922631273234974e+00  1.06751368e+00   1.99262621e+00  -4.58255610e+00
C     4.352634883248044e+00   4.362241347745164e+00   9.543618221894717e-01  3.44998629e+00   1.49445818e+00   1.18229740e-01
C     6.176434771259657e+00   6.171082413363702e+00   7.979803630976866e-01  1.38530589e+00   1.12017980e+00   2.82836803e+00
C     4.392214367143525e+00   6.264753439186073e+00   2.613371840160554e+00  3.77219869e+00  -6.97819800e-01  -2.74384560e-01
C     6.264785142750958e+00   4.514286029280713e+00   2.688758368067083e+00 -1.81474262e+00  -1.38344110e+00   1.28589884e+00
C     3.253795153233559e-02   7.086583768605704e+00   3.542033444704321e+00 -8.16843660e-01  -1.42109030e-01   2.05311746e+00
C     1.683820118936311e+00   1.697139170399405e+00   3.567250573948771e+00  3.10095667e+00   3.35368970e-01  -1.04596753e+00
C     7.692919778352120e-02   1.702377580280762e+00   5.360562508427430e+00 -2.93195903e+00   1.65373325e+00   3.26288420e-01
C     1.847944000861574e+00   7.049275567905766e+00   5.329929756325707e+00 -1.37952400e-01   2.46956731e+00  -7.30556660e-01
C     9.381054994155675e-01   8.293055466468240e-01   4.515913573723789e+00 -1.80956077e+00  -7.43650960e-01  -2.19811487e+00
C     2.593444870114134e+00   2.602048833769156e+00   4.311544077619324e+00  1.56220292e+00   2.51843132e+00   3.48007474e+00
C     9.348813321678142e-01   2.644634967180219e+00   6.226369449806823e+00 -1.55573371e+00   2.48872520e-01   1.29041721e+00
C     2.654317420715147e+00   9.153063001253106e-01   6.125789037197812e+00  2.05747019e+00   2.73592590e-01   2.98629283e+00
C     3.607321463099973e+00   8.808110444245580e-02   3.440246021934434e+00 -1.65058091e+00  -1.35616876e+00   2.74630700e+00
C     5.374066876468227e+00   1.662137937176561e+00   3.572570233100674e+00  9.31855190e-01   3.89551171e+00  -1.78302427e+00
C     3.556347959671120e+00   1.860578937731719e+00   5.218094720350902e+00 -9.91641390e-01  -2.25097606e+00   2.33790881e+00
C     5.327666079142368e+00   7.087260348270676e+00   5.433049226410356e+00 -7.49072620e-01   7.86017700e-01  -3.74647112e+00
C     4.499477976531408e+00   9.271145985289760e-01   4.419312953687037e+00 -2.05691584e+00  -1.96877036e+00   1.44633337e+00
C     6.237919214879799e+00   2.637093357285756e+00   4.386587908471343e+00 -4.70937400e-01  -7.25841770e-01   2.64506349e+00
C     4.373444221794284e+00   2.768429355539364e+00   6.219355142702312e+00  1.40820137e+00  -2.71572574e+00  -1.77388863e+00
C     6.143340727825758e+00   8.728966688479023e-01   6.267708836974564e+00  3.39491288e+00   4.08710420e-01  -1.39042172e+00
C     7.108385016444339e+00   3.537643780483792e+00   3.606560577542728e+00  3.29161780e-01   1.66633641e+00  -6.18646230e-01
C     1.835835158349535e+00   5.359866878189837e+00   3.598077528156472e+00 -1.49875829e+00  -3.87466680e-01  -3.38600430e-01
C     2.143971346418200e-02   5.413061479350535e+00   5.413836581753020e+00 -1.42193569e+00  -2.78110259e+00  -1.79941311e+00
C     1.770458782260717e+00   3.530296088358403e+00   5.348338651637400e+00  1.47796350e+00   4.62771380e-01  -4.44706300e-02
C     8.998387990095478e-01   4.506086677041222e+00   4.622219180995174e+00  6.75650100e-02  -1.95385183e+00  -5.01345752e+00
C     2.760926273295502e+00   6.281015306529620e+00   4.417494263759710e+00 -1.24390266e+00  -1.38318767e+00  -5.85474900e-01
C     1.002989688322177e+00   6.212344531977563e+00   6.203931855975245e+00 -2.56898090e+00  -6.00958300e-01   1.41530023e+00
C     2.736715412357139e+00   4.422614105151764e+00   6.227608945459072e+00 -3.07082323e+00   4.50472200e-01  -7.50205330e-01
C     3.541876277480192e+00   3.489872692529475e+00   3.511080600332019e+00 -2.37412838e+00   3.42535498e+00   8.19826080e-01
C     5.321397587739147e+00   5.409349247805693e+00   3.588190280965862e+00 -8.18325920e-01  -1.96503381e+00  -2.53132902e+00
C     3.595710565592465e+00   5.345129696414053e+00   5.290005585017382e+00 -7.71022780e-01  -5.02647580e-01   1.08000431e+00
C     5.300646396089938e+00   3.547635734739595e+00   5.237038595548976e+00  2.14341720e-01   1.52825531e+00   2.38638844e+00
C     4.382516346163059e+00   4.459217861170061e+00   4.355626747244576e+00  2.30281085e+00  -7.48206320e-01   1.90219011e+00
C     6.171855312155174e+00   6.234661851298410e+00   4.450696994975468e+00  2.58750283e+00   9.02494390e-01   1.94648079e+00
C     4.426129575558486e+00   6.198130316853932e+00   6.254120163041493e+00  8.63019650e-01   5.78234230e-01  -8.59578370e-01
C     6.159654913159789e+00   4.462426674224956e+00   6.236595484419502e+00  1.24051697e+00  -3.28275750e-01  -6.62200060e-01
