64
Lattice="7.10842262195238 0 0 0 7.10842262195238 0 0 0 7.10842262195238 " PBC="1 1 1" Properties=species:S:1:pos:R:3:force:R:3 Energy="-507.43500502"
C     7.093038145260438e+00   4.341326946712599e-03   7.093907078841507e+00  1.85425848e+00  -1.85852169e+00   1.38823897e+00
C     1.777709515501569e+00   1.766615897908118e+00   9.439025602306299e-02 -1.54540470e-01   8.01827480e-01  -3.52753557e+00
C     7.083018397072192e+00   1.733466550946237e+00   1.799879761558409e+00  1.15018240e+00   2.14549698e+00  -5.16306280e-01
C     1.681087641281183e+00   6.283362223341840e-02   1.834170223603479e+00  3.05074871e+00  -2.31427091e+00  -1.11417071e+00
C     8.695213054510216e-01   9.122750554674640e-01   8.770093889231557e-01 -9.17260250e-01  -1.08236604e+00   1.97675608e+00
C     2.649777982030015e+00   2.683470483564291e+00   9.133322911637366e-01  3.36458490e-01  -4.21342060e-01   2.87901860e-01
C     9.111206476339760e-01   2.694818085097954e+00   2.663840574499161e+00 -1.99841549e+00  -1.87373496e+00   3.53204140e-01
C     2.662600368004650e+00   8.954152276131219e-01   2.717893162270093e+00 -1.07294236e+00   4.72876940e-01  -1.02243741e+00
C     3.467078895640409e+00   1.636501055576400e-03   3.466280122190600e-03  1.85380901e+00  -1.23089667e+00   1.24978774e+00
C     5.359190582861770e+00   1.735289434842909e+00   7.069900158548113e+00  9.21894700e-02   3.01701383e+00   1.95987139e+00
C     3.529383295809769e+00   1.778339534998379e+00   1.843302058722262e+00  2.18371666e+00   7.33622770e-01  -1.03144451e+00
C     5.334434434824227e+00   9.253239868709981e-02   1.816012468862951e+00 -1.62564149e+00  -3.34419712e+00  -7.70634850e-01
C     4.474297313494999e+00   9.542247007171321e-01   9.756104612536282e-01 -2.09996634e+00  -1.02165157e+00  -3.68248183e+00
C     6.262219997364305e+00   2.696664568957726e+00   9.013198388624247e-01  3.17126500e-01  -1.47533594e+00  -1.46797659e+00
C     4.549385358735713e+00   2.628164894138131e+00   2.717826982855502e+00 -3.73007645e+00   2.71245171e+00  -2.57195227e+00
C     6.193089521121412e+00   8.577148552372373e-01   2.723237487648488e+00  2.17335219e+00   2.58001228e+00   4.10726860e-01
C     9.756772093420300e-02   3.614092946487784e+00   7.001385058451432e+00 -2.84860046e+00  -1.41780241e+00   4.45567583e+00
C     1.795767112567381e+00   5.331108759301460e+00   7.026981990716470e+00  8.42328960e-01  -3.66963010e-01   2.66112508e+00
C     7.029557656568601e+00   5.338462849007207e+00   1.698200173559666e+00  1.21032284e+00   2.18090293e+00   2.54397462e+00
C     1.704184328058087e+00   3.641674763601004e+00   1.798845201730294e+00  1.79404490e+00  -2.76771251e+00  -1.84065414e+00
C     8.843679569351536e-01   4.528443021602253e+00   8.910357995211660e-01  5.05645100e-02  -1.50001652e+00  -2.48154542e+00
C     2.649056334965632e+00   6.170997254460714e+00   9.003874270673594e-01  1.36974720e-01   8.40929170e-01  -3.59311830e-01
C     8.115297985378948e-01   6.312144653035577e+00   2.681233036460420e+00 -2.70409300e-02  -3.02583258e+00   1.45649920e-01
C     2.638130405061788e+00   4.359139303198022e+00   2.664168983624205e+00  1.07052218e+00   3.17191644e+00  -1.12440766e+00
C     3.534850170394132e+00   3.465091167423179e+00   7.025908761069302e+00  1.84514987e+00   2.15008850e+00   2.45092873e+00
C     5.322325094722605e+00   5.304619009155352e+00   1.259321042936580e-02 -9.80612730e-01   1.76815810e+00  -2.54860092e+00
C     3.648204347367058e+00   5.204275591356491e+00   1.738588240528173e+00 -3.68676762e+00   4.27596745e+00   9.55316230e-01
C     5.400041692479744e+00   3.555989339749940e+00   1.776044865092417e+00 -1.35652859e+00  -3.40187620e-01  -7.11998650e-01
C     4.535640299505003e+00   4.422108127629673e+00   8.137884998253998e-01 -3.35956388e+00  -2.56643136e+00   2.70530414e+00
C     6.112297393233504e+00   6.229775166168292e+00   8.612449689945555e-01  3.05436730e+00   1.09415773e+00   7.11369370e-01
C     4.424060455902256e+00   6.290311417295151e+00   2.651811914994276e+00  9.16012410e-01  -2.13908755e+00   3.67388570e-01
C     6.205455404195391e+00   4.484967482352975e+00   2.653886650304375e+00  1.33785539e+00  -1.94968073e+00  -6.49159300e-02
C     7.064649451095623e+00   9.111291777411200e-03   3.680923990181560e+00 -2.98720210e-01  -3.69993470e-01  -2.92995958e+00
C     1.778497484148996e+00   1.776763953124656e+00   3.541891062999242e+00 -6.19908410e-01  -2.49314050e-01   8.41263720e-01
C     3.939402514932560e-02   1.747308853398389e+00   5.338716619694742e+00  4.80229300e-02  -4.25033460e-01   2.30119626e+00
C     1.761172552202627e+00   7.095069377024103e+00   5.337113457141252e+00  1.39601949e+00  -7.09123120e-01  -4.63332570e-01
C     8.642232559038832e-01   8.290181531202974e-01   4.518603471927422e+00  1.36591985e+00   2.54053882e+00  -2.74334103e+00
C     2.661762142809299e+00   2.645385261187760e+00   4.378400924887210e+00  1.98634720e-01   5.67309000e-03   1.67125785e+00
C     9.457443525314720e-01   2.668233011004511e+00   6.226452476183025e+00 -8.18952380e-01   1.38156130e-01  -9.68462280e-01
C     2.594149030458872e+00   8.422520456804038e-01   6.226708379397345e+00  2.22272970e+00   2.42260378e+00   9.84083580e-01
C     3.539743182020383e+00   6.948788773222660e-02   3.610428483542949e+00  1.19412309e+00  -3.07917393e+00  -2.04353986e+00
C     5.420073085254451e+00   1.871348553422150e+00   3.577992395706758e+00 -2.71810114e+00  -6.04509812e+00   6.56312780e-01
C     3.572863455533749e+00   1.762083212224475e+00   5.309012156502964e+00 -1.73925952e+00   6.44019670e-01   4.27497160e-01
C     5.276155676553025e+00   4.551039630847840e-02   5.441969301619290e+00  1.44749214e+00  -2.90589670e+00  -2.79309755e+00
C     4.453471483408280e+00   8.644892530783236e-01   4.505214757922653e+00  2.22627400e-02   2.39607700e+00  -1.05267463e+00
C     6.244684158518800e+00   2.562132766062618e+00   4.511693089961615e+00  1.54728340e+00   4.87203278e+00  -1.47836062e+00
C     4.444009319890346e+00   2.693782814427577e+00   6.151935948120958e+00  9.53614680e-01  -2.73008957e+00   5.94221840e-01
C     6.311718645267960e+00   8.350625870425358e-01   6.239785460154454e+00 -4.22470147e+00   2.61821933e+00  -2.79292240e-01
C     5.303807369460600e-03   3.478359251496087e+00   3.591300784535921e+00  2.56326470e-01   3.06459314e+00  -6.69085430e-01
C     1.688414718980974e+00   5.319277571776958e+00   3.522299468332034e+00  3.63217645e+00   1.77875511e+00  -5.07107090e-01
C     7.092680307265748e+00   5.382856014532500e+00   5.344226215899051e+00  1.31300050e-01  -1.52594029e+00  -1.11335830e-01
C     1.760408396770977e+00   3.569768235072322e+00   5.280786529553051e+00  2.03214483e+00  -1.25669268e+00   3.54585440e-01
C     8.847896285649720e-01   4.490544395319496e+00   4.428933563945171e+00 -1.66647912e+00  -2.02579256e+00   8.59933970e-01
C     2.731303628048081e+00   6.201915267562178e+00   4.397140930524542e+00 -3.65186809e+00  -2.62603520e-01   9.29292270e-01
C     9.319199633043223e-01   6.217863084794375e+00   6.182767664971815e+00 -1.85730787e+00  -4.18375880e-01   1.33071869e+00
C     2.730759478296520e+00   4.352213140533999e+00   6.161351906891862e+00 -2.60656363e+00   2.40646845e+00  -4.34120870e-01
C     3.524733392237122e+00   3.491514667070469e+00   3.470190963063446e+00  2.30889711e+00   1.09154392e+00   2.87438276e+00
C     5.363460399076925e+00   5.357720987569311e+00   3.510974045076945e+00 -1.34904149e+00   1.31962676e+00   1.52443622e+00
C     3.579402422417660e+00   5.261200977045069e+00   5.242831533478919e+00 -2.52983770e-01   1.76476254e+00   1.69822452e+00
C     5.389814662687897e+00   3.585600185015812e+00   5.263823984991850e+00 -1.53010517e+00  -1.13255420e+00   2.28925404e+00
C     4.506787354258876e+00   4.474756162175120e+00   4.393494451888935e+00 -1.14013204e+00  -1.89205601e+00  -1.25735105e+00
C     6.186828422477716e+00   6.236357707682863e+00   4.520496089449997e+00 -3.40709990e-01  -8.81953000e-03  -1.20005458e+00
C     4.330788354757319e+00   6.201174925346304e+00   6.193156482462492e+00  2.67514606e+00   3.00771920e-01   1.82235811e+00
C     6.208250791390705e+00   4.455090213407305e+00   6.236126826116166e+00  1.98789961e+00   4.21041730e-01  -2.02508228e+00
