64
Lattice="7.10842262195238 0 0 0 7.10842262195238 0 0 0 7.10842262195238 " PBC="1 1 1" Properties=species:S:1:pos:R:3:force:R:3 Energy="-508.86184109"
C     3.303994833776000e-03   7.023402971011525e+00   7.080902290742443e+00 -2.12755120e-01   2.19289266e+00   3.43987350e-01
C     1.709773751848419e+00   1.771586178088248e+00   9.878930336145000e-03  2.25730560e+00   1.00174610e-01  -6.09518020e-01
C     3.698682891328880e-02   1.707708470740404e+00   1.707887958411560e+00 -1.50372541e+00   7.76707470e-01   1.42342018e+00
C     1.808991977430760e+00   7.067652759652574e+00   1.711597773092711e+00  1.86491610e-01   2.04316140e-01   1.29051376e+00
C     9.037165857172101e-01   8.256621246329430e-01   8.458464906624330e-01 -4.75950570e-01  -1.93040050e-01   2.37229050e-01
C     2.577177102779812e+00   2.652864388047393e+00   9.297545245215917e-01  1.48422670e+00   3.00314760e-01  -5.71513460e-01
C     8.212421074478270e-01   2.637257561848278e+00   2.665649170466368e+00  1.74375606e+00  -3.92362240e-01   6.53564670e-01
C     2.710989391137323e+00   8.220932699723458e-01   2.584879149772808e+00 -1.76958902e+00   2.79651196e+00   5.06986500e-02
C     3.592834639968865e+00   4.797566835732060e-02   2.829934129248200e-03 -3.03490912e+00  -3.11984420e-01  -6.77728120e-01
C     5.287992337562946e+00   1.881363041377659e+00   7.042237874090834e+00  1.56556097e+00  -2.56240660e+00   2.28361247e+00
C     3.548726451106408e+00   1.770505626765782e+00   1.742002913502142e+00 -8.70941560e-01   8.04596060e-01   7.93065620e-01
C     5.288849257909786e+00   2.263677183339000e-02   1.648676575092615e+00  2.28334037e+00  -9.75475590e-01   2.96459006e+00
C     4.374848846103996e+00   8.967483411912766e-01   8.621810060851572e-01  3.35985636e+00   2.64488936e+00  -6.42662440e-01
C     6.265140634966184e+00   2.706777437482295e+00   8.602827018244862e-01 -3.12052074e+00  -2.93414895e+00   2.96728695e+00
C     4.442285598489222e+00   2.695516274367691e+00   2.664068825949490e+00  6.07591400e-01  -2.68872886e+00   1.03458051e+00
C     6.274624763510015e+00   7.804584567605176e-01   2.594502532315764e+00 -1.68343682e+00   2.76336875e+00   1.50669950e-01
C     7.195785133999801e-03   3.557943374043952e+00   1.125030144484064e-01  2.26159460e-01   2.09114048e+00  -3.85663556e+00
C     1.832078854584448e+00   5.325699320771866e+00   3.054147995528240e-02 -5.66332280e-01  -4.00159550e-01   2.19807590e-01
C     4.636418894936660e-02   5.327471948120616e+00   1.828240164201196e+00 -1.64314437e+00  -4.31929770e-01  -8.66379690e-01
C     1.701116830444878e+00   3.571601710518699e+00   1.870397730812499e+00  1.88374564e+00  -6.62952210e-01  -1.48153609e+00
C     9.142192801382601e-01   4.451008699307354e+00   9.876848990001863e-01 -7.95066120e-01   2.32475490e-01  -2.62245594e+00
C     2.735499516667988e+00   6.205944605840099e+00   8.741948800709930e-01 -1.51492834e+00   4.33125370e-01   2.14561130e-01
C     9.474572691302133e-01   6.196989415023422e+00   2.665574034439274e+00 -4.94329960e-01  -2.26391530e-01  -7.38334600e-02
C     2.600255023320999e+00   4.480908999542312e+00   2.701906461966166e+00  2.07094493e+00  -1.68213680e+00   4.34907800e-02
C     3.544664058663304e+00   3.511243169957338e+00   4.077881695992780e-02 -1.10073841e+00   1.47823444e+00  -4.66366670e-01
C     5.233136426951726e+00   5.301450571940939e+00   6.738777535337380e-02  1.76231068e+00  -1.31257132e+00  -1.36121315e+00
C     3.562251788993934e+00   5.325553100518572e+00   1.820500513652540e+00 -3.37690140e-01  -7.50813170e-01  -8.44103970e-01
C     5.365147725354235e+00   3.512905474587025e+00   1.888704549175369e+00  3.49426800e-01   1.63254457e+00  -3.35399047e+00
C     4.415333729788586e+00   4.332217289872392e+00   9.899696881987069e-01  6.79560910e-01   2.70327107e+00  -1.21464735e+00
C     6.163372902526954e+00   6.172402731781141e+00   8.657725366139122e-01  1.80867550e+00   5.30065230e-01   1.98966550e-01
C     4.483649296462323e+00   6.270849906761890e+00   2.616912332214897e+00  6.78159250e-01  -1.84569776e+00  -1.03172669e+00
C     6.268451311717223e+00   4.436486973821182e+00   2.713389763287645e+00 -1.33421906e+00   4.21835880e-01   7.33373820e-01
C     1.398361789383780e-02   6.990442423754431e+00   3.494708765690540e+00  4.58442790e-01   3.62615776e+00   1.83025874e+00
C     1.782537556145073e+00   1.743441373903525e+00   3.479278868130437e+00 -3.73110590e-01  -5.67052540e-01   1.82008944e+00
C     7.105936164851750e+00   1.783788851778872e+00   5.337855505378554e+00  6.33235980e-01  -4.69292660e-01   7.69723700e-01
C     1.917395919975343e+00   7.076020368255480e+00   5.340879783782233e+00 -3.17672765e+00   2.07245160e+00  -1.45382864e+00
C     9.153505145140070e-01   8.446232732979834e-01   4.432528222179879e+00 -7.11474700e-02   1.19444470e-01  -1.39970950e-01
C     2.623149901979721e+00   2.651580109332638e+00   4.401136788131923e+00  3.06332660e-01   1.84487086e+00   8.38094140e-01
C     8.627480449575545e-01   2.686437823502784e+00   6.287037277836380e+00  5.46619300e-02  -2.86091750e-01  -9.90099260e-01
C     2.705446669683605e+00   9.913271125822219e-01   6.191318955215222e+00 -9.80511340e-01  -2.88608132e+00   8.62497250e-01
C     3.638772252476805e+00   3.067902793297940e-02   3.381448490980425e+00 -2.16431267e+00  -2.30703700e-02   5.53144421e+00
C     5.400796464793535e+00   1.751186355769146e+00   3.535883521790401e+00 -1.15144917e+00   1.94747990e-01   1.57247340e-01
C     3.541077077525026e+00   1.867280118819819e+00   5.295987038315207e+00 -5.00588100e-01  -2.31536814e+00  -6.31612210e-01
C     5.292677001322204e+00   3.810185608546200e-03   5.401475461322197e+00  7.10751380e-01   8.14586660e-01  -2.31091412e+00
C     4.404146991858815e+00   9.376531194000308e-01   4.384129034002858e+00  2.28890413e+00  -1.04515160e+00   1.07891371e+00
C     6.274262589377526e+00   2.680908465883591e+00   4.472375551439681e+00 -3.47220009e+00  -1.63814696e+00  -4.61513130e-01
C     4.411531079108017e+00   2.699791279731359e+00   6.182575524308396e+00 -3.89000710e-01   5.24729830e-01  -2.02626400e-02
C     6.185583950929632e+00   9.475358172001644e-01   6.251854850920952e+00  7.48773810e-01  -2.19198466e+00  -1.70045793e+00
C     7.090497097426467e+00   3.522685882185657e+00   3.636980645639660e+00  1.74832433e+00   1.74715544e+00  -1.78283272e+00
C     1.825096251044823e+00   5.362013906157982e+00   3.606911236030573e+00 -1.94467796e+00  -9.66485180e-01  -6.81303040e-01
C     7.079372131689262e+00   5.323424696617693e+00   5.326918841756553e+00  3.19473470e-01   3.16846090e-01   1.85496654e+00
C     1.732237291422560e+00   3.588938229193938e+00   5.403004198690855e+00  1.36570627e+00  -9.04861620e-01  -8.58218660e-01
C     8.663186767238068e-01   4.461003496932205e+00   4.555552839453504e+00  8.65646720e-01  -8.45760750e-01  -3.11874971e+00
C     2.756570516250870e+00   6.235744037558079e+00   4.358512198154485e+00 -1.21714550e+00   1.49992478e+00   1.73005167e+00
C     9.762602421653224e-01   6.177227218213334e+00   6.230901211395525e+00 -2.08511848e+00   9.56833840e-01  -7.10641250e-01
C     2.688767609016489e+00   4.495205885621014e+00   6.232609152098433e+00 -5.61277460e-01  -2.12845194e+00   7.51193000e-03
C     3.542946024000276e+00   3.563871514172128e+00   3.544157867888534e+00 -1.39125901e+00   7.82043380e-01  -3.67396210e-01
C     5.349116668493158e+00   5.414750511649273e+00   3.561648852587306e+00 -1.01609530e+00  -2.64435105e+00  -1.42821243e+00
C     3.530288269093521e+00   5.394158335414074e+00   5.291166745852359e+00  1.36508118e+00  -1.36730357e+00   1.50124403e+00
C     5.248948544396107e+00   3.550558362699808e+00   5.279477229190674e+00  2.34427034e+00   1.87276420e+00   1.04296043e+00
C     4.368806047118960e+00   4.526638264183261e+00   4.372554602703391e+00  2.59670612e+00  -1.93059808e+00   2.02749641e+00
C     6.220157399279205e+00   6.205111427624808e+00   4.422696491769931e+00  2.97356400e-02   1.07724247e+00   2.13224948e+00
C     4.385376633256895e+00   6.234480017847790e+00   6.301693494678521e+00  1.91404289e+00  -4.36763700e-01  -3.04199780e+00
C     6.157267620507088e+00   4.436319783721160e+00   6.229782061338232e+00  2.56372480e-01   4.54503940e-01   6.08624410e-01
