64
Lattice="7.10842262195238 0 0 0 7.10842262195238 0 0 0 7.10842262195238 " PBC="1 1 1" Properties=species:S:1:pos:R:3:force:R:3 Energy="-511.32058641"
C     7.073309926710474e+00   7.100931479906139e+00   7.032386808771361e+00  8.04376660e-01   4.79140280e-01   3.57130465e+00
C     1.725508245317789e+00   1.752325267241323e+00   7.085907757614542e+00  1.40262691e+00   1.20931722e+00   1.06457845e+00
C     3.879905017603160e-02   1.761155349819887e+00   1.769124389166490e+00 -2.06916019e+00   1.62702640e-01   1.09548421e+00
C     1.789154431340900e+00   7.094542358571057e+00   1.735510506786391e+00  2.81898610e-01   1.51709215e+00   6.99531550e-01
C     8.699591842844135e-01   9.189330173460346e-01   8.907577180282715e-01  3.56930580e-01  -2.55971385e+00  -1.70974006e+00
C     2.620127969355507e+00   2.665476933386285e+00   9.224152914191202e-01  9.50280360e-01  -1.12178258e+00  -1.98179894e+00
C     9.192573746701852e-01   2.625559657247901e+00   2.666803151794499e+00 -2.36619955e+00   1.79984385e+00   8.02630500e-02
C     2.625839089341094e+00   9.137034219087268e-01   2.657522466306053e+00  1.68118741e+00  -1.18946774e+00   1.37247804e+00
C     3.564522503515667e+00   6.130111740077260e-02   7.085400784913285e+00  6.56787410e-01  -1.69384869e+00  -7.10124100e-02
C     5.386224056254083e+00   1.806780333900999e+00   2.297172070724440e-02 -1.79276193e+00  -4.41935020e-01  -1.29065587e+00
C     3.535744765380859e+00   1.799144821743726e+00   1.813463317427193e+00 -4.79609210e-01  -7.89242700e-01  -2.20570809e+00
C     5.314830613670113e+00   7.090666135716371e+00   1.809683342614782e+00  7.52470300e-02   1.05335202e+00  -2.49329890e+00
C     4.464790722335689e+00   9.552121317032762e-01   8.412920532055728e-01 -1.29057305e+00  -1.58685916e+00   2.34918124e+00
C     6.189698092689410e+00   2.646909662418619e+00   9.416927648907506e-01  2.36935708e+00   1.51041321e+00  -9.54050580e-01
C     4.400479116871121e+00   2.654697508072639e+00   2.642188674619772e+00  1.53119443e+00   9.69282700e-02   1.82311163e+00
C     6.221875647194912e+00   8.565325113028528e-01   2.677856251379015e+00  8.93665280e-01   5.69358120e-01  -2.41727690e-01
C     7.088738473670279e+00   3.560787169597309e+00   7.105924222701749e+00  5.63769310e-01  -1.73397990e-01   1.47419745e+00
C     1.821327081034794e+00   5.319510301533537e+00   7.099628506039894e+00 -8.76048630e-01   1.44106121e+00  -7.82137260e-01
C     5.360624991462260e-02   5.365101804944110e+00   1.763908512984839e+00 -1.87312714e+00   3.51975240e-01  -8.18709000e-03
C     1.758472417870420e+00   3.551287260355263e+00   1.807695614397551e+00 -7.30234660e-01  -9.50313570e-01  -2.55472369e+00
C     8.973128210315308e-01   4.500469885823803e+00   8.494680898188706e-01 -1.57066900e-02  -2.23770073e+00   1.84362159e+00
C     2.710193034551205e+00   6.241219797670717e+00   8.305825036862808e-01 -1.14803795e+00  -1.03605481e+00   1.44787955e+00
C     9.191029086466526e-01   6.270178018655847e+00   2.640821369528815e+00 -1.79855570e-01  -2.11049487e+00   7.74242890e-01
C     2.621690400647383e+00   4.358251176875879e+00   2.621138929220523e+00  9.76722880e-01   4.32324431e+00   2.43497144e+00
C     3.563022342005943e+00   3.470276121966433e+00   7.094905456798486e+00 -4.94681470e-01   1.46489081e+00   9.41698850e-01
C     5.321683559581150e+00   5.262950430936079e+00   5.206976436530960e-02 -2.95070820e-01   1.85345517e+00  -5.06431800e-02
C     3.511122255688572e+00   5.259374183515956e+00   1.745309183031157e+00  8.08947350e-01   1.54055632e+00   2.11684340e-01
C     5.325101573513750e+00   3.560102699583230e+00   1.787397655774593e+00  6.18197100e-01  -1.36282677e+00   1.61487079e+00
C     4.433694216742238e+00   4.331269950389824e+00   9.391606025850541e-01 -5.05180080e-01   3.03512723e+00  -2.60727864e+00
C     6.183706758684142e+00   6.229695622919174e+00   8.860466820210927e-01  1.27196943e+00  -8.17862390e-01   2.37734980e-01
C     4.395401570593654e+00   6.212307639264165e+00   2.602826708456463e+00  3.79465620e-01  -6.26448320e-01   2.49184337e+00
C     6.255966860153944e+00   4.488290954264730e+00   2.698763259652055e+00 -5.33700560e-01  -8.16952950e-01  -2.37382327e+00
C     2.933269268875140e-02   7.069444579742396e+00   3.561618002033135e+00 -1.04247901e+00   1.83386936e+00  -1.76998900e-02
C     1.716451688394552e+00   1.763193050248136e+00   3.584468879555839e+00  1.75223234e+00   2.20180420e-01  -7.72253270e-01
C     7.472444942370199e-03   1.768696177787861e+00   5.352155092657852e+00 -1.70669789e+00   7.66418720e-01  -1.39725999e+00
C     1.777169559719354e+00   5.262507434038400e-02   5.337133858314172e+00  6.57724660e-01  -2.80082364e+00  -1.42605590e-01
C     8.882614532568062e-01   8.825081803250829e-01   4.469444748793456e+00 -8.21257490e-01   6.84720000e-03  -6.72518450e-01
C     2.571294030051047e+00   2.684293141314104e+00   4.457825250094578e+00  3.52473030e+00  -7.16840390e-01  -1.05089231e+00
C     8.213621687058787e-01   2.655671290887352e+00   6.233554359054215e+00  1.82204721e+00   1.84103820e-01  -4.80814100e-02
C     2.653111974407247e+00   8.671638681733247e-01   6.192911952724364e+00  1.06768843e+00   2.84238857e+00   6.19657090e-01
C     3.595946067633866e+00   2.283985946764340e-02   3.609101341039795e+00 -1.71300602e+00  -1.16623598e+00  -2.13359242e+00
C     5.362973827548586e+00   1.765153482122506e+00   3.533882287570193e+00 -8.64966780e-01   5.42746730e-01   2.52869310e-01
C     3.637228871757551e+00   1.840132839581361e+00   5.249766439502765e+00 -2.71694650e+00  -1.99389386e+00   2.22053989e+00
C     5.373924210426244e+00   1.424030303464600e-03   5.364234293047565e+00 -1.65223932e+00   4.01686140e-01  -9.46847730e-01
C     4.503286882623883e+00   8.815990841562111e-01   4.444294225468955e+00 -7.58982910e-01   8.77068360e-01  -3.83438010e-01
C     6.199645121714255e+00   2.707110395997816e+00   4.404702301833889e+00  1.81894228e+00  -1.31203348e+00   6.43077430e-01
C     4.511843504184255e+00   2.678431393853199e+00   6.173224038930655e+00 -1.63991506e+00  -1.77220920e-01   1.02023767e+00
C     6.204112765330924e+00   9.169070458151084e-01   6.231283715616708e+00  1.39026607e+00  -8.44439140e-01  -6.36249610e-01
C     1.513944741184980e-02   3.582568513852609e+00   3.520560392738051e+00 -2.51340700e-01  -7.34298840e-01   1.77939083e+00
C     1.752063250783549e+00   5.361576311661494e+00   3.572032978519054e+00  1.60192256e+00  -8.59946900e-01   1.30483720e-01
C     7.071889379534094e+00   5.368283890329953e+00   5.394569770915320e+00  1.17333872e+00  -1.32849533e+00  -2.16010358e+00
C     1.734274778598131e+00   3.530400653255143e+00   5.355887583207161e+00  2.42236840e-01   1.20545562e+00   3.71066600e-01
C     8.725005164552898e-01   4.454830827065902e+00   4.494030010351214e+00 -3.14997030e-01   4.92504840e-01  -1.32817724e+00
C     2.709513469348733e+00   6.237888719746759e+00   4.508245860412047e+00 -7.07875760e-01  -1.00251464e+00  -1.85035477e+00
C     8.952604772526844e-01   6.225156042065589e+00   6.202862749213198e+00 -5.31289700e-02   5.93591590e-01   4.78923660e-01
C     2.668997592941519e+00   4.417296365273969e+00   6.245291999737037e+00  8.22523980e-01  -1.15311119e+00  -8.02910250e-01
C     3.509903303377695e+00   3.542903018043425e+00   3.516260863316344e+00  5.21611440e-01  -2.39859710e-01   1.22869406e+00
C     5.304522547860398e+00   5.336023593785154e+00   3.519256779113769e+00  1.07629877e+00   7.37743090e-01   6.46055780e-01
C     3.603827531213791e+00   5.245003867431591e+00   5.360641056497381e+00 -1.02167937e+00   3.09360700e+00  -6.66494220e-01
C     5.358187229008957e+00   3.586081211974508e+00   5.314454862450419e+00  5.62166360e-01  -4.07214340e-01  -1.27075700e-01
C     4.493760032460106e+00   4.425325399707485e+00   4.399104916610222e+00 -2.55336668e+00   3.08990320e-01   9.24490330e-01
C     6.202768775866160e+00   6.241754990809778e+00   4.434156975054798e+00  6.79000140e-01  -1.13886598e+00   7.98542850e-01
C     4.469430603032442e+00   6.219580195362461e+00   6.249243571871494e+00 -1.57908040e-01  -1.22238030e+00  -3.60970600e-01
C     6.245381850198954e+00   4.452712161704011e+00   6.279543934131507e+00 -1.69360425e+00   1.02220620e-01  -1.81516573e+00
