64
Lattice="7.10842262195238 0 0 0 7.10842262195238 0 0 0 7.10842262195238 " PBC="1 1 1" Properties=species:S:1:pos:R:3:force:R:3 Energy="-506.29060712"
C     3.010324570075940e-02   4.891191870060080e-02   9.806182739051920e-02 -2.26792728e+00  -1.31787533e+00  -5.32657770e+00
C     1.831053535705740e+00   1.740469342406103e+00   1.110463564851160e-02 -1.41871751e+00  -4.33616940e-01   1.34802740e-01
C     2.982495095518640e-02   1.895367771286678e+00   1.796494872875217e+00 -1.24676719e+00  -4.50457188e+00   4.05864600e-02
C     1.686882569569460e+00   7.005425343700188e+00   1.843098615666878e+00  3.28569243e+00   5.70953436e+00  -2.29421238e+00
C     8.780358451494837e-01   8.843650424818794e-01   9.130370072881017e-01  1.09554149e+00   7.91953180e-01   1.95163171e+00
C     2.705997074847071e+00   2.637772282730192e+00   8.745406337472298e-01 -3.56818470e-01   1.51598811e+00  -1.06198747e+00
C     9.214388784880370e-01   2.630446555630699e+00   2.690715103561690e+00 -9.11184210e-01   3.36662484e+00  -5.34616680e-01
C     2.643765820346471e+00   9.774150054199414e-01   2.650601990380125e+00 -1.16401420e+00  -3.81448655e+00   2.50786724e+00
C     3.486613196421300e+00   7.025505073748712e+00   7.091064989309579e+00  2.99697124e+00   2.15842819e+00  -4.53138670e-01
C     5.330215443830804e+00   1.737692437109600e+00   7.337384912590199e-03 -1.61130572e+00   2.33548240e-01   1.37961492e+00
C     3.569758709786011e+00   1.792464183996998e+00   1.770290170476170e+00 -7.19053760e-01  -1.43448047e+00   1.71281930e-01
C     5.372800510978474e+00   1.475573475882220e-02   1.766793039799809e+00 -8.84934490e-01   6.83266600e-02   1.75860962e+00
C     4.409112793732694e+00   7.982568096533784e-01   9.506903929904681e-01  4.93598310e-01   2.13419042e+00  -3.09454473e+00
C     6.243442743592444e+00   2.607142658334422e+00   8.914652904158664e-01 -9.45508760e-01   3.53922612e+00  -1.97234221e+00
C     4.440723309365798e+00   2.640523739873716e+00   2.623174994711570e+00  2.35323617e+00   1.28613575e+00   1.65648810e+00
C     6.158167404642328e+00   1.035509300124153e+00   2.659840451838209e+00  3.29642067e+00  -3.50106151e+00   1.32817070e+00
C     1.968869572019740e-02   3.509700500080346e+00   7.056621838346631e+00 -3.56655610e-01   1.06092709e+00   1.18641399e+00
C     1.695500963322400e+00   5.272651224201366e+00   7.735719590947140e-02  2.65350050e+00   2.22526222e+00  -3.91916480e+00
C     7.070776911394064e+00   5.323450215854898e+00   1.766631962943239e+00  5.19844700e-01   6.21486800e-01   4.72416970e-01
C     1.810123638311864e+00   3.540013230995717e+00   1.694470881800536e+00  7.33001000e-02  -6.51444920e-01   3.49625670e+00
C     8.547393406127316e-01   4.375950438357417e+00   8.831197890073077e-01  3.75009520e-01   1.07594717e+00   6.17600090e-01
C     2.668444202240552e+00   6.296315972966492e+00   8.782550689030846e-01 -3.19759014e+00  -5.39799200e+00   2.80899686e+00
C     8.212729580019977e-01   6.225408319984372e+00   2.734922526003923e+00  7.76757140e-01   3.92022050e-01  -2.33204854e+00
C     2.708832624630189e+00   4.444626970731797e+00   2.614078133032077e+00 -9.38735880e-01   1.07723393e+00   2.95362200e-02
C     3.570868121304315e+00   3.608557546709365e+00   7.077227591669034e+00 -1.42096736e+00  -1.12860830e-01   9.34862260e-01
C     5.339728503654698e+00   5.347449103630733e+00   4.293856900456239e-02  9.30701650e-01   1.38341460e-01  -3.83911185e+00
C     3.569894480658053e+00   5.402515281383051e+00   1.779211169780044e+00 -4.51916880e-01  -4.65384460e-01  -7.97293600e-02
C     5.370761175613023e+00   3.554111152325284e+00   1.735079309870262e+00 -1.15288617e+00   2.93663170e-01   9.28832280e-01
C     4.408233766191504e+00   4.569085570100555e+00   8.891722554471069e-01  1.95936880e+00  -4.40399103e+00  -5.24411110e-01
C     6.231408894939046e+00   6.265414806826637e+00   8.375921192318627e-01 -9.41097300e-02  -8.40909830e-01   3.01608876e+00
C     4.529978298719720e+00   6.203187533042705e+00   2.668743040327497e+00 -3.40980951e+00   1.44590965e+00   2.57608380e-01
C     6.236899724907638e+00   4.477146227112642e+00   2.647271623298430e+00 -1.39612044e+00  -2.23650403e+00   5.15907050e-01
C     5.495109239010040e-02   9.746315603746279e-02   3.607974584970298e+00 -4.28761502e+00  -2.03299896e+00  -1.77646878e+00
C     1.716820686612756e+00   1.802835585852257e+00   3.606877115601996e+00  2.76426362e+00  -2.16609940e-01  -1.16279598e+00
C     1.262455857312000e-02   1.860683502628459e+00   5.382432352544349e+00 -7.74871560e-01  -2.50479233e+00  -2.87037010e-01
C     1.734422633788627e+00   7.056348874918023e+00   5.296339473908707e+00  6.51273080e-01   3.08811740e-01   3.15611898e+00
C     8.311446377470704e-01   9.116143275849350e-01   4.542717516149700e+00  2.62165989e+00   5.63323870e-01  -2.17255736e+00
C     2.670252513870853e+00   2.755703004354326e+00   4.376501127857789e+00  2.13540740e+00  -4.42476521e+00   5.85001160e-01
C     9.375581508738275e-01   2.647751655077958e+00   6.242586249750960e+00  8.70248710e-01   3.32002420e-01  -1.00920798e+00
C     2.620503294069843e+00   7.855188717394694e-01   6.251945909814714e+00  1.33086014e+00   2.18222910e+00  -2.47623339e+00
C     3.507977560605710e+00   1.852099513641000e-02   3.610285462079834e+00  8.91456060e-01  -6.65927660e-01  -4.65511987e+00
C     5.320609050417911e+00   1.766271565916406e+00   3.692851425748337e+00  5.52449900e-01   1.03598959e+00  -6.22544748e+00
C     3.586781391602578e+00   1.731797137893929e+00   5.335732503878865e+00 -2.94191139e+00   1.38109640e-01  -2.35915740e-01
C     5.290171069095975e+00   7.106107904342250e+00   5.313074122440710e+00  3.02182399e+00  -1.17790137e+00   2.71877380e-01
C     4.432344256202473e+00   8.048730450911695e-01   4.374131321924733e+00  2.61813570e-01   3.19681739e+00   5.19102915e+00
C     6.239261924828491e+00   2.735850814913869e+00   4.457451489233217e+00 -1.32847815e+00  -3.03227943e+00   1.28871116e+00
C     4.346777400840711e+00   2.655988184367752e+00   6.258979196407621e+00  4.27503541e+00  -1.36317385e+00  -9.16548290e-01
C     6.207112519676564e+00   9.235814992341573e-01   6.233119536842548e+00 -1.57506180e-01  -5.42628400e-01  -1.32257180e-01
C     2.208366546932780e-02   3.564220253385865e+00   3.581638518921234e+00 -1.42263943e+00   7.13290700e-02  -2.52520241e+00
C     1.687232943720399e+00   5.357946040229461e+00   3.517291158090887e+00  3.90015775e+00  -3.05296332e+00   1.11219824e+00
C     5.336655390387620e-02   5.346142646637404e+00   5.298110537404479e+00 -3.18620958e+00  -1.74072690e+00   3.69805780e-01
C     1.863689867807136e+00   3.520075740483819e+00   5.275673085741354e+00 -2.85193435e+00   2.85014989e+00   1.80071079e+00
C     8.657417571439675e-01   4.405318388822364e+00   4.397074680025724e+00  2.63612447e+00   1.90486106e+00   2.01252017e+00
C     2.681897389638485e+00   6.171555407804837e+00   4.414871184728703e+00 -2.88052290e+00   2.45432820e+00  -8.86720050e-01
C     8.090552855396466e-01   6.178670796679004e+00   6.237375278380917e+00  3.27283599e+00   1.38551329e+00   8.12767830e-01
C     2.672748849726545e+00   4.472501157267377e+00   6.164226410830937e+00 -6.35436400e-01  -5.59086220e-01   1.30738396e+00
C     3.693923944553243e+00   3.559073186735175e+00   3.495341770724850e+00 -5.38505993e+00   7.92506640e-01   9.64968260e-01
C     5.297027640302549e+00   5.311322962528274e+00   3.556000784310358e+00  3.62280826e+00   1.63733320e-01   5.82271530e-01
C     3.571964737661903e+00   5.369264497230382e+00   5.232021826284911e+00 -2.40621700e-01  -3.23086960e+00   3.56555071e+00
C     5.279570349526995e+00   3.454046882282711e+00   5.357181031787096e+00  1.89159497e+00   4.66149693e+00   3.38284050e-01
C     4.467309734059539e+00   4.417843855984160e+00   4.501471817992091e+00 -1.63580800e-02  -2.63034940e-01  -3.57025898e+00
C     6.266473890712792e+00   6.210901237848798e+00   4.414675489853974e+00 -1.56408979e+00   1.41268955e+00   6.89372230e-01
C     4.492761441250448e+00   6.137084818330575e+00   6.143705389906164e+00 -2.08019981e+00   2.90129589e+00   2.15225663e+00
C     6.265006925536702e+00   4.445038477317269e+00   6.170438105937424e+00 -1.81667199e+00  -1.58079023e+00   2.06307735e+00
