64
Lattice="7.10842262195238 0 0 0 7.10842262195238 0 0 0 7.10842262195238 " PBC="1 1 1" Properties=species:S:1:pos:R:3:force:R:3 Energy="-507.14703135"
C     6.226850263512840e-02   2.468492164289060e-02   6.992776971911292e+00 -1.57866076e+00  -1.19418667e+00   3.69678537e+00
C     1.817930463454279e+00   1.671866595458519e+00   6.997765805074460e-02 -6.57588910e-01   3.21823343e+00  -1.49298994e+00
C     1.683914234451800e-03   1.772446368309495e+00   1.771083186103657e+00  6.67166860e-01   6.28838930e-01  -1.64683446e+00
C     1.747847245327627e+00   7.084741478715279e+00   1.866438410497385e+00 -1.10957859e+00  -1.61442567e+00  -1.00088213e+00
C     8.999571542461708e-01   7.796672182386853e-01   9.126171127639383e-01 -2.09442280e-01   3.16791368e+00  -4.70232540e-01
C     2.730868379331058e+00   2.699128206069365e+00   8.876393241091037e-01 -1.64644034e+00  -1.91160223e+00   4.26377520e-01
C     9.381772944840295e-01   2.648992430246279e+00   2.604213064120041e+00 -7.97310220e-01  -3.35187250e-01   1.71685208e+00
C     2.663718167461645e+00   8.546560298996252e-01   2.704137724742358e+00  9.53856370e-01   1.50197145e+00  -1.80062595e+00
C     3.561241326718501e+00   8.911786788158280e-02   7.024308512969087e+00 -3.27314580e-01  -3.17015148e+00   2.29224142e+00
C     5.305431786197722e+00   1.712184502295766e+00   7.066961820973909e+00  1.47646282e+00   3.91171256e+00  -2.83588500e-02
C     3.552320327414628e+00   1.791383206169175e+00   1.818730232083255e+00  1.54273812e+00  -1.52391730e-01  -1.86911284e+00
C     5.421898812520172e+00   2.742614265784120e-02   1.742203157767348e+00 -3.01340606e+00  -2.70036960e-01  -2.03737500e-01
C     4.486694544712731e+00   8.900050071570398e-01   8.269677286155583e-01 -2.03361896e+00  -1.53882940e-01   2.39765058e+00
C     6.178751477275741e+00   2.726226295023293e+00   8.219033329199394e-01  1.95686937e+00  -3.42274584e+00   7.35078230e-01
C     4.476931908170648e+00   2.674846829578612e+00   2.705682242809231e+00 -2.47240848e+00  -1.01370347e+00  -7.85016760e-01
C     6.226723449253299e+00   9.543425583641716e-01   2.670677242122399e+00 -4.68149380e-01  -1.33726123e+00  -4.33818610e-01
C     7.084637980081933e+00   3.607318975152056e+00   7.020812306387667e+00  1.02862364e+00  -1.67095872e+00   3.33324405e+00
C     1.756499759509144e+00   5.282778664992306e+00   5.414627678106400e-03 -1.61195842e+00   3.15564540e+00   1.69657579e+00
C     7.044105612134240e+00   5.291980589158123e+00   1.767762202139819e+00  1.61744252e+00   1.22434970e+00  -7.38854610e-01
C     1.819282698689282e+00   3.529469023386566e+00   1.765331832446042e+00 -1.77610298e+00   8.38100450e-01  -1.21705942e+00
C     8.644128375351586e-01   4.427368004947342e+00   8.529687747065420e-01 -1.77538100e-01  -1.75375690e-01   9.17379260e-01
C     2.533049081418245e+00   6.156359661685836e+00   1.002030477773835e+00  4.56507447e+00   1.20169753e+00  -2.64121836e+00
C     7.835366880918824e-01   6.207542152739718e+00   2.726084410907798e+00  1.80660167e+00  -2.45957930e-01  -6.40732190e-01
C     2.616993226064313e+00   4.439955315385934e+00   2.669378035720141e+00  1.83490648e+00  -5.95448600e-01   3.74589190e-01
C     3.503669927582216e+00   3.629931436180085e+00   7.087525776771307e+00  3.18573534e+00  -2.43911838e+00   1.92376185e+00
C     5.328541268135343e+00   5.328055976123075e+00   7.100617003289430e+00 -1.21378384e+00   1.37976600e+00   3.41663591e+00
C     3.570600204855767e+00   5.325163843295902e+00   1.867529837706460e+00 -3.69824090e-01   2.83185400e-02  -2.58440586e+00
C     5.353751431125625e+00   3.494999286923019e+00   1.811340315927503e+00 -5.62232520e-01   2.09533670e-01  -1.19618795e+00
C     4.546878289161866e+00   4.417044940365900e+00   1.009590569567109e+00 -4.98796052e+00   1.87270222e+00  -3.79236781e+00
C     6.204946227883120e+00   6.256846385284716e+00   8.396846255985122e-01  1.85889622e+00  -1.32056567e+00  -1.69154850e-01
C     4.494108771673844e+00   6.227559613006090e+00   2.638648609070786e+00  6.12066600e-02   6.33770600e-02   6.49115250e-01
C     6.209270707868223e+00   4.341198426431630e+00   2.631155691871270e+00  1.96531907e+00   2.77507705e+00   1.32299453e+00
C     7.089521324253420e+00   1.314689968408284e-01   3.613493564292467e+00 -1.77042770e-01  -3.38056656e+00  -2.61094550e+00
C     1.841271182379728e+00   1.789463007966834e+00   3.542027686881998e+00 -1.61219081e+00   2.65548450e-01   4.71292030e-01
C     2.061179548163060e-02   1.892092494480287e+00   5.375897650714009e+00  3.03226970e-01  -2.72473307e+00  -1.68830084e+00
C     1.762365203349811e+00   7.080627621292408e+00   5.303423798976025e+00 -7.01031320e-01   1.40575867e+00  -1.53934703e+00
C     8.506861891190338e-01   9.778076036012439e-01   4.395458153637709e+00  1.98377172e+00  -2.25671600e-01   2.88090138e+00
C     2.775222875037298e+00   2.667960687333939e+00   4.442540364355922e+00 -4.20486893e+00   1.71178608e+00  -1.06314532e+00
C     1.004414998141714e+00   2.632966775786393e+00   6.258790041281703e+00 -3.20082585e+00   1.76012267e+00  -2.57770540e-01
C     2.617092033138731e+00   9.148254153350674e-01   6.125339855972454e+00  6.18762180e-01  -1.87729382e+00   3.66917868e+00
C     3.579078704851546e+00   7.100473626405185e+00   3.502004068741219e+00 -5.68600350e-01  -1.05832623e+00   2.54587208e+00
C     5.270168891938236e+00   1.722079142245901e+00   3.529677868843142e+00  9.07704360e-01   1.91801044e+00   3.96041790e+00
C     3.462629805006777e+00   1.786889190304584e+00   5.330910789731493e+00  5.08609593e+00  -6.89746410e-01  -3.34127310e-01
C     5.405964501290953e+00   7.055892087680462e+00   5.319287523568626e+00 -3.29357876e+00   2.14029323e+00   9.22330790e-01
C     4.396341304064018e+00   8.055103151790526e-01   4.526357339321319e+00  9.47187000e-01   1.64270020e+00  -3.50143154e+00
C     6.160866259458464e+00   2.682430450250759e+00   4.549763384650645e+00  1.99127850e+00   1.62216940e-01  -3.54087305e+00
C     4.439892121508842e+00   2.641998950820044e+00   6.203809520021955e+00 -1.99274413e+00   1.31922751e+00   8.55683930e-01
C     6.256508450873361e+00   9.476757109573259e-01   6.165591512310882e+00  3.46383990e-01  -2.09077650e+00   1.10073415e+00
C     7.098392991104310e+00   3.504919517194586e+00   3.528625253621572e+00  2.51725310e-01  -4.05786750e-01   1.14547964e+00
C     1.730084861053224e+00   5.223097059517048e+00   3.548758439008198e+00 -1.15280849e+00   3.83523544e+00   9.84297390e-01
C     7.044042631509826e+00   5.331383570919949e+00   5.342623977440503e+00  2.44532450e+00   7.99298600e-02  -1.25009408e+00
C     1.844670714413517e+00   3.564415308502558e+00   5.353167687460070e+00 -1.41628589e+00  -1.06470238e+00  -3.04358940e-01
C     8.625197935072263e-01   4.349612026528888e+00   4.448611383778760e+00 -4.05119200e-02   1.57447380e+00   3.42217480e-01
C     2.601879368973896e+00   6.250987978782443e+00   4.359642295182613e+00  2.02126531e+00  -2.50539516e+00   1.88445251e+00
C     9.128589413014707e-01   6.190283115871035e+00   6.200670298424511e+00 -1.07962402e+00   3.29046230e-01  -6.53803410e-01
C     2.610417650803909e+00   4.536658012371508e+00   6.246325848722889e+00  3.37387958e+00  -2.98680229e+00  -1.36098070e+00
C     3.526314021090905e+00   3.610284253647988e+00   3.552418139309879e+00  2.95415954e+00  -1.76740318e+00   7.00045330e-01
C     5.437257696938301e+00   5.318189414442289e+00   3.492614126797104e+00 -3.12058825e+00   6.65131710e-01   1.99292832e+00
C     3.552180717994371e+00   5.363013066041448e+00   5.385169166337274e+00 -3.49372540e-01   4.07004290e-01  -2.95395882e+00
C     5.321349037212652e+00   3.595417911833199e+00   5.404321460486567e+00 -1.37772870e+00  -1.45706917e+00  -2.61416035e+00
C     4.480222539169899e+00   4.444917491964277e+00   4.443631365059639e+00 -1.37902521e+00   1.57024610e+00   4.99779150e-01
C     6.251397779346486e+00   6.284673442978325e+00   4.417878545086547e+00  1.40913740e-01  -2.39974730e+00   1.50161450e-01
C     4.444472220371360e+00   6.204622936822362e+00   6.244304782003572e+00 -9.95827900e-02   1.00052069e+00  -5.19884230e-01
C     6.140520318982821e+00   4.501598703335858e+00   6.251040296772926e+00  2.91516163e+00  -1.31712754e+00  -2.09166645e+00
