64
Lattice="7.10842262195238 0 0 0 7.10842262195238 0 0 0 7.10842262195238 " PBC="1 1 1" Properties=species:S:1:pos:R:3:force:R:3 Energy="-512.98671873"
C     1.691612656149260e-02   7.102304898240549e+00   1.168446968162500e-02 -5.48073440e-01   1.28050164e+00  -2.37697110e-01
C     1.775164273698252e+00   1.767934368135676e+00   1.193646326350400e-02 -2.65092980e-01  -7.38346600e-02  -1.18459942e+00
C     1.235052888111900e-02   1.781114449936549e+00   1.829851430356471e+00 -8.57860640e-01  -2.96403480e-01  -2.88978015e+00
C     1.796046473576347e+00   7.099873675536057e+00   1.770556736324420e+00 -3.18443230e-01   2.46985000e-01   1.04384605e+00
C     8.991864590657105e-01   8.937282567569433e-01   8.957309837459022e-01  8.83552200e-02  -2.44944210e-01   7.01443140e-01
C     2.710241371825020e+00   2.629450025863601e+00   8.406831457239435e-01 -1.52309331e+00   1.48580078e+00   1.37563001e+00
C     8.786209394153359e-01   2.661335424199421e+00   2.636794945704169e+00  2.00461418e+00   3.57767290e-01   1.56513091e+00
C     2.720205318895701e+00   8.530208083601204e-01   2.703601607508357e+00 -2.18411494e+00   2.09250083e+00  -2.61384809e+00
C     3.535798931561223e+00   7.094873184559792e+00   7.080757492173674e+00  4.02299920e-01   5.05352570e-01   1.13913816e+00
C     5.305341580314674e+00   1.711301138616779e+00   9.145056784856199e-03  1.55587715e+00   2.19752564e+00  -5.79378000e-01
C     3.566771324095730e+00   1.801537232460714e+00   1.742670110049255e+00 -1.70016140e-01  -2.17661429e+00   1.42495991e+00
C     5.343041881606332e+00   7.098950717943076e+00   1.782335748026891e+00 -6.55571300e-01  -3.85507570e-01   8.89116670e-01
C     4.426896147853826e+00   8.540309152144224e-01   9.215298662975731e-01  5.58625360e-01   3.99257300e-01  -1.45267592e+00
C     6.227206253317649e+00   2.684656808215343e+00   8.513638350473983e-01 -1.82533341e+00  -2.32237280e+00   2.38491305e+00
C     4.407981701525399e+00   2.675397163657852e+00   2.637973095669207e+00  5.64281620e-01   5.95324100e-02   9.85180410e-01
C     6.216325319728988e+00   8.672427005801806e-01   2.676857020411322e+00 -7.40720110e-01   1.68871180e+00  -6.89810360e-01
C     7.063796937970807e+00   3.561337432592323e+00   1.861966004237560e-02  1.82965236e+00  -6.56683430e-01  -2.78198460e-01
C     1.740090605648910e+00   5.345227223972399e+00   5.773176515059200e-03  7.87328560e-01  -6.29346010e-01   5.69109000e-01
C     3.426771509268640e-02   5.343563710910868e+00   1.795234336292012e+00 -1.18036634e+00  -1.29139346e+00  -2.78018590e-01
C     1.852008881252595e+00   3.519004927700343e+00   1.776792031394006e+00 -2.48195189e+00   9.75454450e-01  -5.18855100e-01
C     8.934662402991702e-01   4.425258082945273e+00   9.212029499412793e-01  3.27038260e-01   3.07422340e-01  -1.20244245e+00
C     2.630794370749495e+00   6.211204056652410e+00   8.943565702323251e-01  1.06642340e+00   7.38212650e-01  -7.97903590e-01
C     8.957654595956092e-01   6.204732761951841e+00   2.683678547094379e+00  4.96063590e-01   2.95069770e-01  -6.26637690e-01
C     2.668140032836642e+00   4.480131409191911e+00   2.660694102310644e+00  6.17951010e-01  -1.92166623e+00   3.99975970e-01
C     3.542503737944860e+00   3.578804746243772e+00   7.108117455416923e+00  9.84834520e-01  -4.08951310e-01  -3.67330420e-01
C     5.363917257398713e+00   5.369313189925329e+00   7.081356092442504e+00 -8.36532690e-01  -1.19914313e+00   1.85999709e+00
C     3.547428382051770e+00   5.373324899315151e+00   1.779983144476576e+00 -1.66106540e-01  -1.44354108e+00  -3.14756880e-01
C     5.273003446542187e+00   3.520853544086900e+00   1.765047566625468e+00  2.22983349e+00   1.67962221e+00  -1.01161421e+00
C     4.425042057981852e+00   4.469195954001756e+00   8.678899224597315e-01  3.86720360e-01  -5.46843700e-02   8.77111140e-01
C     6.248640066791057e+00   6.237144752235350e+00   9.189053655820427e-01 -4.01594860e-01  -6.01932690e-01  -1.11856285e+00
C     4.421274380740573e+00   6.183048518749531e+00   2.705088760604687e+00  1.59429261e+00   7.99350030e-01  -1.27073394e+00
C     6.225881101172829e+00   4.393643515511276e+00   2.625654128184521e+00 -1.30740653e+00   1.79316984e+00   1.10040985e+00
C     1.571018266400960e-02   2.400549860887100e-02   3.492406418688148e+00  7.56856600e-02  -7.39537400e-01   2.43898585e+00
C     1.808418896399136e+00   1.793195925021501e+00   3.564058181350128e+00 -6.53195300e-02  -1.00906860e-01  -6.37473540e-01
C     7.107633442920728e+00   1.785954930319638e+00   5.298159301183652e+00 -1.19811770e-01   4.37104900e-02   2.20275690e-01
C     1.770765439612543e+00   7.106180978926782e+00   5.321890201426713e+00 -6.27943710e-01   1.15132931e+00  -4.95438520e-01
C     9.142919282174365e-01   9.493486071367168e-01   4.393444408593690e+00 -1.03144401e+00  -2.31374389e+00   1.31042388e+00
C     2.679789102573619e+00   2.662366500900452e+00   4.472005842379215e+00 -3.22779940e-01   1.27194306e+00  -8.30026380e-01
C     8.499478372614944e-01   2.636517148548179e+00   6.220961788382884e+00  1.20029396e+00   1.60208125e+00   4.77764960e-01
C     2.656328606727024e+00   8.974576196003001e-01   6.178589760661136e+00 -3.96885300e-02  -6.91195080e-01   1.60482239e+00
C     3.552509553624772e+00   7.089417399114715e+00   3.534447549336935e+00  3.05072880e-01  -1.27559260e-01   1.53992152e+00
C     5.262631547097345e+00   1.802025652178934e+00   3.566916264832952e+00  2.15188791e+00  -1.28586976e+00  -8.62620040e-01
C     3.542616264274935e+00   1.786214458829494e+00   5.348782146124662e+00  5.68598860e-01  -4.65156920e-01  -7.65508950e-01
C     5.345556486108158e+00   7.096039108037924e+00   5.348019838882893e+00  5.18127410e-01   8.49360610e-01  -2.25356722e+00
C     4.421401266084340e+00   8.700572805165696e-01   4.417531227557333e+00  4.47775640e-01   6.51952500e-01   1.67597766e+00
C     6.221839678576455e+00   2.675074654523583e+00   4.421508958687033e+00 -1.42441802e+00   2.49156800e-01   1.05128710e-01
C     4.451046445031467e+00   2.658498737068684e+00   6.243609720439788e+00 -5.55060990e-01  -6.32235100e-02  -9.68005070e-01
C     6.239614147169312e+00   8.944459231046586e-01   6.186104785055000e+00 -7.88647560e-01  -8.34991490e-01   1.07991769e+00
C     7.076292336504921e+00   3.560589555448474e+00   3.515707330446924e+00  1.67669306e+00  -9.91634160e-01   9.08968710e-01
C     1.776605719637135e+00   5.275798691569049e+00   3.579823596457896e+00 -2.70276320e-01   2.25783061e+00  -7.16480880e-01
C     2.721608876942020e-02   5.324877231695863e+00   5.320710843029829e+00 -9.99428310e-01   9.72278400e-02   5.01616740e-01
C     1.771417424135250e+00   3.561081529378004e+00   5.361361068624562e+00  1.71402950e-01  -5.62500170e-01  -3.04481040e-01
C     8.957597728575132e-01   4.419149388882550e+00   4.452871034949569e+00 -4.28437680e-01   9.17141300e-02  -1.63493980e-01
C     2.633890088800506e+00   6.239421153495178e+00   4.432586795582267e+00  8.25722510e-01  -1.15566871e+00   6.20484970e-01
C     8.646072528938156e-01   6.243978363236861e+00   6.231434982850061e+00  9.99079130e-01  -1.04474167e+00  -7.52610490e-01
C     2.674882656028617e+00   4.483113818986358e+00   6.259175744293064e+00 -1.29764718e+00  -5.67263990e-01  -1.25087316e+00
C     3.570659702353097e+00   3.583682048256032e+00   3.553025482938531e+00 -9.52901370e-01  -3.17099370e-01   5.98942170e-01
C     5.341608254932331e+00   5.296240098160479e+00   3.584681918981761e+00 -2.81715530e-01   5.91916700e-01  -1.13057586e+00
C     3.537321342433749e+00   5.383801363656734e+00   5.348768995542814e+00  6.96736600e-01  -1.07027789e+00  -3.44450000e-03
C     5.313392579774087e+00   3.569568985986284e+00   5.316525048370042e+00  8.25305850e-01  -1.04626166e+00   1.96944909e+00
C     4.428004919614094e+00   4.456289901892883e+00   4.500387428121410e+00  3.30413590e-01   5.15268400e-02  -1.79158239e+00
C     6.252580549786227e+00   6.215007631427920e+00   4.400230108826741e+00 -4.56637560e-01  -5.10486400e-02   1.46974359e+00
C     4.486485841424607e+00   6.246267062067822e+00   6.216700502274873e+00 -1.56463874e+00  -4.31858300e-01   9.67197800e-02
C     6.206160630803520e+00   4.416584101327445e+00   6.266808341997062e+00  4.28288140e-01   1.76622476e+00  -2.58326697e+00
