64
Lattice="7.10842262195238 0 0 0 7.10842262195238 0 0 0 7.10842262195238 " PBC="1 1 1" Properties=species:S:1:pos:R:3:force:R:3 Energy="-503.51593065"
C     7.105766700056489e+00   7.037400165992568e+00   2.739792222003980e-02 -5.01915990e-01   2.19768460e+00  -8.61444300e-02
C     1.750614554253594e+00   1.800308044021263e+00   7.084844124337912e+00 -5.84744170e-01  -5.22055650e-01   9.77510500e-01
C     7.073125818564616e+00   1.701514831027372e+00   1.845143993191556e+00  1.89685350e+00   2.57472670e+00  -2.42715445e+00
C     1.830961765969715e+00   1.095155576738990e-01   1.736894516670505e+00 -1.20899724e+00  -6.35853860e+00  -2.96438700e-01
C     9.516673035111346e-01   8.031253683058164e-01   7.843217422860351e-01 -2.87096165e+00   3.65848961e+00   3.81165962e+00
C     2.611007436628690e+00   2.698854389630043e+00   9.325351261978571e-01  1.37296527e+00  -3.22005631e+00  -5.49020650e-01
C     9.537662074581419e-01   2.652180842128254e+00   2.655971266321916e+00 -2.82582961e+00  -9.60623770e-01   1.25606328e+00
C     2.680344057127563e+00   8.277372864483996e-01   2.720379404165665e+00  2.67075600e-02   3.77229688e+00  -3.46752937e+00
C     3.561461190230138e+00   2.492824294917320e-02   7.799894430360500e-02  3.79572990e-01  -5.86892490e-01  -2.77561651e+00
C     5.368644927114823e+00   1.722866257882614e+00   7.072312828269566e+00 -7.45581820e-01   4.73039114e+00   1.66588134e+00
C     3.500782983903556e+00   1.774938936701198e+00   1.887327292292744e+00  2.61317681e+00   6.96324740e-01  -4.67925918e+00
C     5.316408470239074e+00   5.051884871807800e-03   1.759729897831898e+00 -8.72797250e-01  -1.89550178e+00   8.03899150e-01
C     4.490956612747230e+00   9.559435883908741e-01   9.092907263989094e-01 -2.65574899e+00  -2.17358742e+00  -1.16720210e-01
C     6.252011165134365e+00   2.725535000923498e+00   1.042657743163504e+00 -8.52416250e-01  -1.45343602e+00  -3.83685054e+00
C     4.442765914605655e+00   2.657865732034372e+00   2.644851347564772e+00 -1.54778222e+00   9.11237760e-01   1.56651470e+00
C     6.157481370775272e+00   7.911658737530236e-01   2.690554453210478e+00  3.50721226e+00   2.00319386e+00  -2.18867949e+00
C     7.066147124657431e+00   3.646849482015685e+00   3.308053743092020e-02  2.10466591e+00  -3.54655825e+00   2.10224519e+00
C     1.818904388437445e+00   5.300143759526478e+00   6.999739458614903e+00 -1.43002676e+00   3.41028201e+00   3.07725158e+00
C     3.012023483082120e-02   5.324757881280073e+00   1.783035074644247e+00  9.63516830e-01   1.93997565e+00  -1.02113990e+00
C     1.850548882330673e+00   3.522111877059092e+00   1.863902693980379e+00 -4.44069972e+00   1.80004950e+00  -4.15200796e+00
C     9.646924216988915e-01   4.613274510643976e+00   8.726759523255514e-01 -2.48093186e+00  -6.23072165e+00  -2.84141240e-01
C     2.599044458948813e+00   6.198573669172742e+00   8.152583794547634e-01  4.36563997e+00   8.99766640e-01   2.17332495e+00
C     9.717807274828770e-01   6.224981459206042e+00   2.610365688234556e+00 -2.52066961e+00   6.55232240e-01   7.62740160e-01
C     2.625871077242883e+00   4.413829942983326e+00   2.650072128558031e+00  3.26442437e+00   3.60170280e-01   2.36927919e+00
C     3.465411472946436e+00   3.495262653981090e+00   1.869458281679040e-02  6.25296656e+00   4.20331180e-01   8.61034460e-01
C     5.373965439277440e+00   5.363743456465654e+00   7.043603117739232e+00 -2.63457020e+00  -1.83294130e+00   4.62415122e+00
C     3.569708950827671e+00   5.194055527818811e+00   1.795751616206070e+00 -1.16835253e+00   4.84106824e+00  -1.34153543e+00
C     5.261788630343066e+00   3.637727385435892e+00   1.827363340271019e+00  3.90751839e+00  -3.99648017e+00  -1.01109085e+00
C     4.478641625979212e+00   4.391224874714821e+00   9.082195581943016e-01 -3.32735918e+00   1.79607443e+00  -2.24686872e+00
C     6.168482578874663e+00   6.133051854757118e+00   9.657510790796883e-01  2.11583037e+00   3.41849368e+00  -3.13208477e+00
C     4.394059429318772e+00   6.216178459717661e+00   2.691379741076660e+00  1.40881130e-01  -4.55676100e-01  -2.10446789e+00
C     6.246222989847578e+00   4.504863672929451e+00   2.595551664410250e+00 -1.36419109e+00  -1.85981286e+00   4.43153330e+00
C     4.222680264762180e-02   7.092232405556461e+00   3.480786706736591e+00 -1.45533103e+00  -2.37646582e+00   1.91979509e+00
C     1.802248216891166e+00   1.729847937327299e+00   3.496483241229170e+00 -6.71659240e-01   8.75129630e-01   3.41858855e+00
C     7.054876436256516e+00   1.675269184114035e+00   5.300633245508092e+00  2.35056036e+00   2.87382623e+00   1.86373040e-01
C     1.815669913976893e+00   4.324025046055520e-02   5.344659687510418e+00 -2.38596971e+00   4.31613470e-01  -8.37018020e-01
C     9.596383332160715e-01   7.636033204651046e-01   4.307902645963776e+00 -2.42926674e+00   4.79042094e+00   3.68054575e+00
C     2.662422941776054e+00   2.618282125253772e+00   4.508909787084755e+00 -1.95812416e+00   1.82941336e+00  -3.00504206e+00
C     8.000321382027233e-01   2.626791333635269e+00   6.250648907023469e+00  1.32927359e+00   1.96031601e+00  -1.07429027e+00
C     2.673967375532065e+00   9.386820635742759e-01   6.203058586256378e+00 -9.22759700e-02  -7.00144440e-01   2.28112111e+00
C     3.538535389933019e+00   2.981123169952980e-02   3.522077045788254e+00  1.50445980e+00  -2.33334730e+00   3.80278763e+00
C     5.313768188825327e+00   1.716095556421290e+00   3.426532524100156e+00  2.80920400e-01   2.48522434e+00   5.79360412e+00
C     3.474594630876536e+00   1.797203298273526e+00   5.363623181954924e+00  6.23602995e+00  -2.52269100e-02  -1.85791877e+00
C     5.328561811476714e+00   6.663079942857000e-03   5.327798509055778e+00 -6.36861110e-01   2.60564080e-01   5.12816350e-01
C     4.495780814842520e+00   9.017798248901649e-01   4.438237778312488e+00 -3.35827454e+00   8.58609100e-02  -8.85826090e-01
C     6.246280425902348e+00   2.658811863085095e+00   4.469808557863146e+00 -5.84754990e-01   4.25050650e-01  -3.36121641e+00
C     4.554800270750725e+00   2.711823138026423e+00   6.118347087388481e+00 -4.56158811e+00  -2.44377434e+00   3.61080203e+00
C     6.207398775855472e+00   8.851111425200745e-01   6.235317318948201e+00  8.29131790e-01  -2.48345793e+00  -3.45853040e-01
C     7.097799437815540e+00   3.596286987582721e+00   3.554005307912472e+00  1.89719928e+00  -1.62247007e+00  -1.20410020e-01
C     1.833247763600081e+00   5.351786876366135e+00   3.535714128079367e+00 -1.61490479e+00   7.54932870e-01   8.34563760e-01
C     7.087903447265108e+00   5.347139745078310e+00   5.361612777869535e+00  6.73449610e-01   1.20643889e+00  -1.39562739e+00
C     1.765389837174621e+00   3.577772247858217e+00   5.395638024666654e+00 -7.36877630e-01  -2.48015987e+00  -2.45329251e+00
C     9.289022246494536e-01   4.475811976186868e+00   4.421198889292349e+00 -1.51178328e+00   1.07312480e-01   1.57117734e+00
C     2.636772340920237e+00   6.320314718573874e+00   4.502958544583064e+00  2.70898450e+00  -4.53698950e+00  -1.80813131e+00
C     8.552461711455376e-01   6.352019847312051e+00   6.192286624786483e+00  1.41065195e+00  -6.15665869e+00  -9.94381540e-01
C     2.710169292419654e+00   4.344492895979096e+00   6.273611955455117e+00 -2.58129487e+00   3.98509547e+00  -2.75995232e+00
C     3.501110184596754e+00   3.530854810376335e+00   3.524078208924236e+00  1.26349702e+00  -6.18404030e-01   3.01348565e+00
C     5.307153517240513e+00   5.370575859035319e+00   3.519775196375445e+00 -5.43615900e-02  -1.73825190e-01   1.34077623e+00
C     3.526876155151695e+00   5.350919506638043e+00   5.364174440129105e+00  1.00809439e+00  -1.03587832e+00  -4.57333230e-01
C     5.357592040782984e+00   3.638754410336029e+00   5.249080618888387e+00 -1.05612030e+00  -2.56615983e+00   2.45787873e+00
C     4.347693605432203e+00   4.432708420693295e+00   4.420236622122280e+00  2.82484254e+00   1.63632949e+00  -7.72658430e-01
C     6.157437938313064e+00   6.247569822681389e+00   4.465953660276321e+00  2.71304553e+00  -2.01237447e+00  -1.37439019e+00
C     4.472737583403718e+00   6.201862594150564e+00   6.238746564188540e+00 -1.62347525e+00   1.78155585e+00  -6.03528220e-01
C     6.196378303930781e+00   4.448997797632383e+00   6.308971666430687e+00  1.41589614e+00   1.09816858e+00  -5.08935224e+00
