64
Lattice="7.10842262195238 0 0 0 7.10842262195238 0 0 0 7.10842262195238 " PBC="1 1 1" Properties=species:S:1:pos:R:3:force:R:3 Energy="-505.55974332"
C     1.722747547224860e-02   5.605439066495060e-02   7.048501816103578e+00  1.62151390e-01  -9.31949960e-01   1.70947584e+00
C     1.763880790136621e+00   1.784134321118204e+00   8.851166160054920e-02  9.82449040e-01  -1.27851763e+00  -1.65650732e+00
C     7.079060640610054e+00   1.883448439321688e+00   1.750515605010723e+00  6.25629120e-01  -3.34264008e+00   9.79012870e-01
C     1.755328220377142e+00   7.073919473950139e+00   1.833591455833758e+00 -2.56546700e-02   1.35801277e+00  -2.03765059e+00
C     8.458762749532108e-01   9.102324502276069e-01   9.185226481081820e-01  9.65521600e-01  -4.90431270e-01   7.01940100e-01
C     2.760737900096072e+00   2.611451997379345e+00   8.687046187762097e-01 -3.56230175e+00   3.50020607e+00  -1.18040743e+00
C     8.920913291960098e-01   2.696470935525557e+00   2.635935608493637e+00 -3.12762100e-01  -1.70857988e+00   1.11861387e+00
C     2.686718392943595e+00   9.132389575747359e-01   2.634642586419059e+00 -1.72634261e+00  -1.12635378e+00   2.07718197e+00
C     3.496263875307117e+00   8.537002313941399e-03   7.043338684417767e+00  4.27552690e-01   5.57675490e-01   4.02822454e+00
C     5.332201821447737e+00   1.748132506327368e+00   7.093091600598541e+00  1.27185762e+00   2.78249500e-01   1.28075578e+00
C     3.589462262109485e+00   1.837366383666109e+00   1.725815044838068e+00  2.12844420e-01  -3.52556730e+00   3.58464536e+00
C     5.375737640120833e+00   7.073278009892910e+00   1.826925461437627e+00 -2.39179445e+00   3.01179596e+00  -7.19405660e-01
C     4.449733732626231e+00   8.458595701600538e-01   9.622955326756538e-01 -1.63638240e-01   1.80860302e+00  -2.92168157e+00
C     6.304061807842827e+00   2.666519952237318e+00   7.688613495928923e-01 -4.49329815e+00  -3.90269040e-01   3.17714816e+00
C     4.425380703235469e+00   2.633012482943840e+00   2.690842984084624e+00  1.12289806e+00   1.51845010e+00   1.52145150e-01
C     6.154343997367709e+00   9.452205328686042e-01   2.726399171861412e+00  2.16176507e+00  -1.44931393e+00  -1.88523383e+00
C     7.091759766536458e+00   3.528153823033414e+00   7.036826303034456e+00  2.24720863e+00   2.21264579e+00   1.03328017e+00
C     1.863673731687789e+00   5.334800589673383e+00   1.749787986871340e-02 -3.97853644e+00  -8.30738940e-01  -2.07725830e+00
C     2.352177044958000e-03   5.387335458130719e+00   1.798499590222509e+00 -1.28295507e+00  -1.85779705e+00  -1.14486631e+00
C     1.762141216953055e+00   3.571425919227306e+00   1.762478795943278e+00  7.44978440e-01  -1.05796977e+00   2.85098260e-01
C     7.832972764180408e-01   4.418658481216413e+00   9.264406489803738e-01  4.55227796e+00   1.80746914e+00  -2.14214989e+00
C     2.666618403890605e+00   6.232328511573395e+00   8.361469058289905e-01  3.89491430e-01  -2.19461780e-01   2.82216253e+00
C     7.747758415496372e-01   6.225080763870043e+00   2.729210908428753e+00  5.00728169e+00  -2.44763790e-01  -1.71743178e+00
C     2.608152765188724e+00   4.428725216078178e+00   2.661551591331295e+00  2.25449526e+00   2.36126366e+00  -4.95262260e-01
C     3.589366227319888e+00   3.504245425477531e+00   7.016181737724547e+00 -4.47906960e-01   2.10408522e+00   1.97540194e+00
C     5.369330889897652e+00   5.302563893091683e+00   4.901797636609120e-02 -1.71240545e+00   1.93135803e+00  -2.46253831e+00
C     3.609167520454386e+00   5.374572711821867e+00   1.741951875027731e+00 -2.57200494e+00  -1.36326905e+00   5.56595070e-01
C     5.387556174653070e+00   3.542225301030835e+00   1.759334100860417e+00 -9.73554750e-01  -9.52839300e-01  -1.09710420e-01
C     4.424452769746654e+00   4.420621969712509e+00   8.550034185130646e-01  2.07563716e+00   3.30398890e-01   1.47491296e+00
C     6.194225304887635e+00   6.344518826510748e+00   8.159864951837300e-01  1.74341050e+00  -4.75506845e+00   3.04819764e+00
C     4.447962669130458e+00   6.230744186339850e+00   2.705088831688914e+00 -7.74193300e-02  -1.40704744e+00  -1.46532633e+00
C     6.323113162390915e+00   4.351356717776741e+00   2.675034065430423e+00 -5.66454573e+00   5.54308971e+00  -2.86908706e+00
C     1.571828626579640e-02   6.068879787628580e-02   3.514277257984233e+00 -3.22005126e+00   4.99778720e-01   3.33794851e+00
C     1.741472198669333e+00   1.741012710231176e+00   3.620078593754956e+00  2.40101880e+00   4.17174606e+00  -4.04183279e+00
C     7.095015210843739e+00   1.849457170784693e+00   5.388365752905262e+00  1.28276722e+00  -1.63004665e+00  -1.96737013e+00
C     1.737130871722620e+00   7.062767709459657e+00   5.205163433341729e+00 -4.23736470e-01   2.41507963e+00   5.48348860e+00
C     8.716034335206457e-01   9.941521418998625e-01   4.500450835251181e+00 -5.11166150e-01  -4.18807440e+00  -2.04289804e+00
C     2.679809716999217e+00   2.749737402838944e+00   4.362158392453188e+00 -3.06559910e-01  -3.36509322e+00   4.05586183e+00
C     9.921278763903649e-01   2.634777575364613e+00   6.258480682729280e+00 -3.83857850e+00   1.76853711e+00   2.10962280e-01
C     2.560606872063008e+00   8.984013337873313e-01   6.270118378990066e+00  3.72807460e+00  -1.03260433e+00  -3.09943340e+00
C     3.495313621371276e+00   7.091455952553679e+00   3.572187515626813e+00  2.60869452e+00   3.11362000e-01  -5.54856150e-01
C     5.271513236824131e+00   1.670445124187198e+00   3.700329344176124e+00  2.89260422e+00   5.20043893e+00  -5.65736037e+00
C     3.614844804348302e+00   1.711439468520964e+00   5.360805474312581e+00 -2.50930669e+00   3.45115144e+00   1.30340280e-01
C     5.334409555345057e+00   7.086374780980677e+00   5.440323843951211e+00  5.71180920e-01  -5.97942560e-01  -3.13629919e+00
C     4.521865598151967e+00   8.741770379302167e-01   4.544533291623754e+00 -5.13261843e+00  -3.17666390e+00   7.65226710e-01
C     6.221666233064526e+00   2.705455484127654e+00   4.366620349331763e+00 -1.17002937e+00  -3.12492542e+00   4.19479100e+00
C     4.515025447401645e+00   2.682914818168086e+00   6.219954524897631e+00 -1.32621616e+00  -2.43879433e+00  -1.24410468e+00
C     6.236767366078454e+00   8.872727427545903e-01   6.219526384603228e+00 -4.80639360e-01   1.30944219e+00  -1.83131260e-01
C     7.053236736410761e+00   3.522369699547519e+00   3.524724222371942e+00  4.50092287e+00  -5.04261980e-01   1.08028341e+00
C     1.727424462803463e+00   5.280026212669616e+00   3.571067299306128e+00 -8.70075810e-01   6.99276500e-02  -2.97490020e-01
C     1.602693397595680e-02   5.283584902285867e+00   5.293885930757187e+00 -1.20881604e+00   2.03326483e+00   8.65601260e-01
C     1.761807050005688e+00   3.536053555259472e+00   5.388971532680939e+00  1.43256675e+00  -1.40612160e-01  -3.17033075e+00
C     8.390403892564616e-01   4.351116666344864e+00   4.487847246524790e+00  1.08537679e+00   1.54528351e+00  -1.47043169e+00
C     2.610506648255111e+00   6.159286625783847e+00   4.430517320504907e+00  1.02674906e+00   1.51949385e+00  -1.89603039e+00
C     8.941785042456941e-01   6.243218046353426e+00   6.181672683551430e+00  2.04929590e-01  -1.45895408e+00  -1.02718600e-01
C     2.676264249049040e+00   4.448783620858842e+00   6.125420820906095e+00  2.49599700e-01  -7.41314800e-01   3.40761682e+00
C     3.570921434473965e+00   3.646387789966516e+00   3.589296493693986e+00 -1.45204440e-01  -3.00506670e+00  -2.54807402e+00
C     5.327383590427449e+00   5.322590949728593e+00   3.534354500084840e+00  1.04377701e+00  -9.99676230e-01   8.88613090e-01
C     3.524651503208540e+00   5.321627331958225e+00   5.259310563133508e+00  2.33262746e+00   3.79590250e-01   2.50385951e+00
C     5.369460405357788e+00   3.533862881576440e+00   5.296619332507255e+00  1.84848230e-01   1.28192217e+00   8.14252480e-01
C     4.547868776769736e+00   4.427239413582146e+00   4.466178784020697e+00 -4.37847612e+00   1.69156385e+00  -1.66467439e+00
C     6.153763665745013e+00   6.182305830754193e+00   4.428844566493968e+00  2.90048862e+00   1.60705578e+00   1.06261892e+00
C     4.416836947920038e+00   6.269731254294180e+00   6.291802977613507e+00  3.06139660e-01  -2.85797209e+00  -2.61068875e+00
C     6.249209593611371e+00   4.464996226833633e+00   6.161311175630249e+00 -7.52693600e-01  -1.39737275e+00   1.75815219e+00
