64
Lattice="7.10842262195238 0 0 0 7.10842262195238 0 0 0 7.10842262195238 " PBC="1 1 1" Properties=species:S:1:pos:R:3:force:R:3 Energy="-510.35619414"
C     3.504601628535020e-02   7.081863633817573e+00   2.149565675020140e-02 -1.07487711e+00   1.23375261e+00  -5.66787750e-01
C     1.758140383449840e+00   1.778114126917099e+00   1.065659177077300e-02  1.63704050e-01  -1.44615853e+00  -6.49803440e-01
C     7.076853119965413e+00   1.740402807570380e+00   1.844567357948622e+00  5.00919870e-01   1.31737751e+00  -2.65137665e+00
C     1.763800536045241e+00   1.188272358849680e-02   1.802411568442974e+00  1.18533188e+00  -1.49540999e+00   4.63587010e-01
C     8.695033211417930e-01   8.668549361262595e-01   9.226131188206349e-01  7.22056920e-01   3.19141370e-01  -1.33234970e-01
C     2.671929248598459e+00   2.644032172942043e+00   8.364573306448060e-01 -9.02999210e-01   1.28864827e+00   1.14885322e+00
C     8.734045656441013e-01   2.636860627529177e+00   2.644778130811786e+00  1.12412910e-01   1.48569746e+00   6.01379430e-01
C     2.691382157940351e+00   9.006044472099480e-01   2.705485268418431e+00 -3.92901980e-01   4.02953970e-01  -2.39724053e+00
C     3.565441053886624e+00   7.068557235346742e+00   7.049721479256719e+00 -5.06028460e-01   1.68389201e+00   6.43262980e-01
C     5.331895732769720e+00   1.764355064093827e+00   7.031336752581933e+00 -6.70920600e-02   1.24914459e+00   1.65696454e+00
C     3.538897137560150e+00   1.836907037396405e+00   1.719875744486380e+00  6.77665550e-01  -2.91573256e+00   2.07247984e+00
C     5.375779650898516e+00   5.772266636963840e-02   1.692798483210728e+00 -2.08676682e+00  -1.54862646e+00   3.02003645e+00
C     4.408480783877549e+00   8.953816758583554e-01   8.174505459065452e-01  1.63193232e+00   4.88891420e-01   4.65947930e-01
C     6.210297093010325e+00   2.676254297257372e+00   8.883021845184188e-01 -2.53408377e+00  -2.43829552e+00   2.20859215e+00
C     4.405494393366435e+00   2.697559163944453e+00   2.704321690719763e+00  2.82492990e-01  -1.35060919e+00  -9.01524860e-01
C     6.195042560236257e+00   9.076230193680312e-01   2.708150429311348e+00  3.97944690e-01  -2.31948170e-01  -1.67273574e+00
C     7.047449343050461e+00   3.520949152371139e+00   7.464170738440519e-02  2.06104448e+00   1.36192825e+00  -1.39382378e+00
C     1.742701600361462e+00   5.403632938671593e+00   7.022947960879619e+00  7.41673420e-01  -2.35275753e+00   3.04547576e+00
C     7.089429767770074e+00   5.276159870522372e+00   1.829007447338799e+00  5.37237760e-01   1.46860818e+00  -2.82911670e-01
C     1.796171937235590e+00   3.502776469943109e+00   1.760959797113611e+00 -1.15534623e+00   1.99533359e+00  -5.84903410e-01
C     8.221199265571707e-01   4.438902273659006e+00   9.116335203260090e-01  2.53994244e+00  -3.71376740e-01  -7.69583180e-01
C     2.668343831313157e+00   6.200824693363817e+00   8.751071750300438e-01 -1.12600435e+00   1.90310269e+00  -1.00732397e+00
C     8.737038302364034e-01   6.167445815435536e+00   2.754987044028039e+00  9.03926710e-01   1.62772610e-01  -3.21642506e+00
C     2.679945416787033e+00   4.453299957170459e+00   2.607322785763613e+00 -2.89200110e-01  -1.65630616e+00   2.23002949e+00
C     3.546471943788248e+00   3.572448252568515e+00   1.003751924479720e-02  1.08961790e-01   4.48015070e-01  -9.41764490e-01
C     5.424499002430341e+00   5.405562448907566e+00   7.072925361046732e+00 -2.76976436e+00  -2.01182552e+00   2.71749740e+00
C     3.554173777528566e+00   5.348390400954073e+00   1.721563141847916e+00 -7.02940970e-01  -3.71904090e-01   1.41364052e+00
C     5.220258595280656e+00   3.531632756147868e+00   1.830407095752677e+00  3.68458829e+00   2.35813396e+00  -2.34601425e+00
C     4.395630177465113e+00   4.492903325365944e+00   8.596750738589286e-01  2.08484132e+00  -1.41622009e+00   7.38761420e-01
C     6.267924080011498e+00   6.203485233782031e+00   9.395863260157660e-01 -4.70227620e-01   1.24504282e+00  -1.75324693e+00
C     4.437019607928099e+00   6.187732258413849e+00   2.638739312543417e+00  1.58403994e+00   1.28470160e+00  -5.49720890e-01
C     6.208977414350922e+00   4.430441829056683e+00   2.687438902660359e+00 -9.48049480e-01  -8.81543920e-01   6.16744250e-01
C     4.995920260520540e-02   1.034517177579080e-02   3.530075229667600e+00 -1.76287044e+00   2.29603600e-01   1.24340026e+00
C     1.779422361016084e+00   1.872080081193974e+00   3.520366403884751e+00  1.41189403e+00  -3.00771807e+00   1.68399940e+00
C     7.104445884049468e+00   1.739177386594918e+00   5.337170111269534e+00  9.82008300e-01   2.06991627e+00  -1.09413855e+00
C     1.702230293764075e+00   7.107647944102872e+00   5.271779802672380e+00  2.34241183e+00   1.63105137e+00   9.21390100e-02
C     9.316211252173773e-01   9.441495779166750e-01   4.368165791493577e+00 -1.77924140e+00  -9.46649640e-01   1.54015362e+00
C     2.676157693793966e+00   2.676826525278282e+00   4.495262539749295e+00 -2.14853650e-01   3.09942650e-01  -1.83204192e+00
C     8.474389905819916e-01   2.637510479525098e+00   6.270501522969283e+00  7.74335350e-01   4.56430390e-01  -3.62442600e-01
C     2.640153533223666e+00   8.742730727198129e-01   6.130307079530858e+00  2.09350130e-01  -2.77801630e-01   2.29334726e+00
C     3.628155823293836e+00   7.069413444851321e+00   3.532357104412846e+00 -3.12247039e+00   9.81424730e-01   3.26144310e-01
C     5.296128282672666e+00   1.836059357998970e+00   3.579897310800465e+00  1.04082247e+00  -2.53972424e+00  -8.67173950e-01
C     3.545988428881636e+00   1.763022874610613e+00   5.284763549840489e+00  5.20655500e-01  -3.25497220e-01   9.50963670e-01
C     5.396726537422453e+00   1.989533756576080e-02   5.321456871983798e+00 -7.42619530e-01  -5.42772760e-01  -1.74130800e+00
C     4.480843744222661e+00   8.565632907727975e-01   4.372599314681670e+00 -6.06130500e-01   1.17902630e+00   2.68105032e+00
C     6.191403474360174e+00   2.656602067745215e+00   4.489001370021374e+00  2.00323450e-01   7.06330150e-01  -6.44242970e-01
C     4.449094543264241e+00   2.720753093942798e+00   6.222931176869755e+00 -4.97124820e-01  -1.96810347e+00  -8.56953520e-01
C     6.252295644207618e+00   8.973807775517779e-01   6.164223212040758e+00 -8.18007320e-01  -1.14208098e+00   2.55980289e+00
C     7.069830638174889e+00   3.510336206315253e+00   3.579594207659948e+00  1.16408046e+00   4.15760760e-01  -5.69776100e-02
C     1.748282636213103e+00   5.214682322072171e+00   3.572838007380770e+00  1.53793158e+00   2.93612600e+00   6.09223600e-02
C     3.720384905587740e-02   5.301826749665989e+00   5.360090509165462e+00 -1.11769807e+00  -1.13679820e-01  -9.63632780e-01
C     1.788642411659581e+00   3.515509574129636e+00   5.405845364127842e+00 -2.41826490e-01   5.91667680e-01  -9.66965550e-01
C     9.129301676961231e-01   4.348685585808824e+00   4.489476212652389e+00 -1.05936745e+00   1.08346955e+00  -4.08963240e-01
C     2.618686594500850e+00   6.228194110809151e+00   4.480055775575234e+00  1.85074197e+00  -1.78435218e+00  -1.89113803e+00
C     8.432840464763753e-01   6.269989361119513e+00   6.159250017407354e+00  1.57195872e+00  -1.34889022e+00   1.50188500e+00
C     2.689898772308009e+00   4.467343925572341e+00   6.227079225805430e+00 -1.71408039e+00  -2.43959270e-01   3.80345350e-01
C     3.625596435729504e+00   3.552927599959054e+00   3.623345909128012e+00 -3.91560002e+00   8.47382490e-01  -1.88089041e+00
C     5.385993103603158e+00   5.361910336440408e+00   3.564221106396579e+00 -2.01255450e+00  -1.09457429e+00  -5.46396520e-01
C     3.549078815615681e+00   5.352504827050756e+00   5.354778100604631e+00  7.87568830e-01  -1.06067440e-01  -6.86811080e-01
C     5.316586251888801e+00   3.597609367442720e+00   5.350284866666529e+00  7.47637800e-01  -5.08668220e-01   1.16654372e+00
C     4.416158164644054e+00   4.438662435479807e+00   4.474713582723625e+00  2.33957424e+00   2.19729649e+00  -2.19256620e-01
C     6.278543921237325e+00   6.231479055070305e+00   4.417226631648067e+00 -5.78649350e-01  -4.71832560e-01   1.44596904e+00
C     4.538892260685201e+00   6.249051075786945e+00   6.194643137969239e+00 -2.00953200e+00  -4.69056940e-01  -3.79062600e-02
C     6.240064963331872e+00   4.445547440376861e+00   6.327820217681427e+00 -1.66286230e-01   6.03827300e-02  -4.08843279e+00
