64
Lattice="7.10842262195238 0 0 0 7.10842262195238 0 0 0 7.10842262195238 " PBC="1 1 1" Properties=species:S:1:pos:R:3:force:R:3 Energy="-506.43712487"
C     1.117778131727140e-01   7.432353438793400e-02   7.096067328475725e+00 -3.72441049e+00  -2.72529765e+00  -1.75817575e+00
C     1.831989857133246e+00   1.779607464341109e+00   7.045336577679345e+00 -8.81718000e-01   1.27114966e+00   2.50952246e+00
C     7.079004484071356e+00   1.745369675707653e+00   1.683864333325007e+00  2.08746357e+00   3.55077600e-02   2.65829285e+00
C     1.732769356855667e+00   7.665438616503200e-03   1.820800062581747e+00  1.56045391e+00   7.86059990e-01  -2.48756733e+00
C     9.417423816806382e-01   9.379674538482872e-01   8.194891704297350e-01 -8.57934530e-01  -7.61477690e-01   1.63133189e+00
C     2.633137520097726e+00   2.640658017977008e+00   9.994385336339040e-01  1.44757749e+00   9.08823650e-01  -4.15969447e+00
C     8.663259273148791e-01   2.630191576511320e+00   2.664435691640908e+00 -1.73875090e+00   1.72258120e+00  -3.04657310e-01
C     2.680271124711481e+00   8.483053651309171e-01   2.626587179737622e+00 -4.89166100e-02   9.46248660e-01   1.68039413e+00
C     3.534948906384324e+00   7.062146504406895e+00   7.079111252579108e+00  1.00986325e+00   1.17743715e+00   1.12185262e+00
C     5.252035092581937e+00   1.744723946596852e+00   7.004428316343507e+00  1.20031632e+00  -4.18016360e-01   3.99519015e+00
C     3.602978287963379e+00   1.660242405200712e+00   1.720631654147791e+00 -2.18359120e+00   4.10733755e+00   2.11930458e+00
C     5.363787244348993e+00   2.537607357423320e-02   1.736725833801733e+00  3.80784550e-01  -1.78408038e+00   8.86809320e-01
C     4.479815795227584e+00   8.178914102774376e-01   8.813792206445745e-01 -1.86962694e+00   1.50630980e+00  -2.55335283e+00
C     6.161016815849555e+00   2.558381082772234e+00   9.053282783778428e-01  1.06435620e-01   3.18330649e+00  -3.50188400e+00
C     4.418502664592583e+00   2.709358434651391e+00   2.589391434283532e+00  1.05804075e+00  -3.03124775e+00   2.35063153e+00
C     6.270792470707121e+00   8.441873137386988e-01   2.608572162123304e+00 -8.09338240e-01   1.02468583e+00   1.11805574e+00
C     7.028426137855948e+00   3.469237368168972e+00   7.078671099050478e+00  3.90434735e+00   1.88473459e+00   1.31412994e+00
C     1.782598475326926e+00   5.317720400717821e+00   1.830199885233304e-01 -9.99256730e-01   1.16345004e+00  -6.24486706e+00
C     7.075928243098325e+00   5.152966072790390e+00   1.841173228316024e+00  1.32335246e+00   4.86379890e+00  -1.36383109e+00
C     1.717673128653347e+00   3.616583737773833e+00   1.840562543728740e+00  2.14658410e+00  -5.43029081e+00  -3.22794120e-01
C     9.107037386473130e-01   4.370872678827273e+00   8.929804506973194e-01 -3.13905916e+00   9.98766920e-01   1.89395390e+00
C     2.646099657661070e+00   6.282499900593808e+00   9.090635412119742e-01  7.83644450e-01  -3.04704129e+00   2.21754806e+00
C     9.093018155381964e-01   6.240296129235475e+00   2.732286154222617e+00 -1.24574742e+00  -1.95515128e+00  -3.95527918e+00
C     2.654760417612826e+00   4.378581265569079e+00   2.723431689754467e+00  7.82581950e-01   3.41271546e+00  -1.32437880e+00
C     3.522848167474072e+00   3.635948076169880e+00   2.106417549716740e-02 -3.64688420e-01  -1.80220280e+00   1.23877381e+00
C     5.334730003036767e+00   5.375894878429186e+00   7.065216489968020e+00  1.09575746e+00   1.26387025e+00   1.34900745e+00
C     3.604227379986165e+00   5.319119338289437e+00   1.904752879503412e+00 -3.38587290e-01   9.64071880e-01  -3.26479795e+00
C     5.357862516263676e+00   3.543447665384570e+00   1.747715241919574e+00 -1.44162660e+00  -8.34282280e-01   1.31250239e+00
C     4.506137573347181e+00   4.514987204087950e+00   9.404419668465355e-01 -1.55304279e+00  -9.47995170e-01  -1.85562590e+00
C     6.231150077271452e+00   6.318688027141514e+00   8.243246749169900e-01  7.55018090e-01  -3.67295172e+00   1.52749929e+00
C     4.516257550294370e+00   6.256402251039418e+00   2.706202223923885e+00 -1.50627205e+00  -1.00698986e+00  -1.49660855e+00
C     6.207405599941187e+00   4.300569881525889e+00   2.774389341400877e+00 -1.14822477e+00   4.51975237e+00  -4.39950879e+00
C     3.989737255504780e-02   7.093863433126621e+00   3.542962799877660e+00 -1.42254053e+00  -4.59866700e-02   4.66385810e-01
C     1.756332427240669e+00   1.806767965245641e+00   3.502212274439759e+00  1.22327655e+00  -7.29888950e-01   1.45165454e+00
C     7.058937122678191e+00   1.830379870494042e+00   5.351994442306639e+00  3.42152868e+00  -9.85531430e-01  -1.31968222e+00
C     1.829624387337989e+00   2.627884324697320e-02   5.273408271210396e+00 -1.74929372e+00  -2.12582680e+00   6.71294920e-01
C     8.699060843674422e-01   9.133322200795104e-01   4.373564425220787e+00  6.85822960e-01   3.46301600e-02   2.22246005e+00
C     2.636880460028287e+00   2.720083978121578e+00   4.502501970598182e+00  1.43214703e+00  -1.43566334e+00  -2.65810928e+00
C     9.695576393926981e-01   2.698595785215127e+00   6.182962862256960e+00 -3.60199218e+00  -1.39386788e+00   8.96155960e-01
C     2.675984888040074e+00   8.624190671587010e-01   6.220967404036754e+00  4.94207260e-01   5.04243130e-01  -1.38533831e+00
C     3.549111087854376e+00   7.075327297050030e+00   3.547795389911641e+00  1.48747620e+00   1.39379824e+00  -1.48400040e-01
C     5.351510785231574e+00   1.724873747514728e+00   3.515149390355481e+00 -2.43807360e-01   3.18204368e+00   1.26708170e-01
C     3.513442089410609e+00   1.781243894312459e+00   5.346224820002890e+00  4.82929500e-01   2.02528360e-01  -1.16361111e+00
C     5.383944385119849e+00   7.355753076640280e-02   5.261123353070060e+00 -1.78053676e+00  -2.67567709e+00   1.11659011e+00
C     4.461297359123316e+00   9.235527812067725e-01   4.399948473122537e+00 -1.30662394e+00  -7.54071770e-01   4.81228820e-01
C     6.212826554115425e+00   2.720686416938622e+00   4.555312219347817e+00 -2.45732186e+00  -2.64654106e+00  -2.01604857e+00
C     4.329944371739646e+00   2.650470697814334e+00   6.242827012025099e+00  1.75638139e+00   1.77995063e+00   3.39171420e-01
C     6.211773085883141e+00   9.193333637079930e-01   6.162695540935495e+00  1.22884604e+00   1.21756710e-01   1.09660171e+00
C     7.006634628556303e+00   3.515808696553485e+00   3.634310935356267e+00  3.41390230e+00  -1.19602010e+00  -4.43785060e-01
C     1.786952455265903e+00   5.354439739687919e+00   3.450989052124266e+00 -1.75418630e-01  -1.98514406e+00   5.06219981e+00
C     1.385303617030840e-02   5.301896483291891e+00   5.349333688635747e+00 -4.75347060e-01   7.60013770e-01  -6.45071560e-01
C     1.769444623605521e+00   3.617042799706633e+00   5.306078581571916e+00 -1.13011474e+00  -1.78424500e-02   9.31107900e-01
C     8.005018627694529e-01   4.405865097606068e+00   4.415751562870191e+00  2.91013316e+00   1.83477973e+00   4.26009470e-01
C     2.700175703226648e+00   6.161062238670097e+00   4.378754639996782e+00 -1.01754585e+00   2.20983036e+00   1.18142575e+00
C     9.127604896481839e-01   6.166946804167611e+00   6.223861740474939e+00  3.36826310e-01   2.67020654e+00   6.00930520e-01
C     2.571717336618069e+00   4.550561162921287e+00   6.225414219975147e+00  3.38404901e+00  -2.39293336e+00   1.40010415e+00
C     3.588196607461994e+00   3.589001209818351e+00   3.597198784952188e+00 -8.27325650e-01  -1.70972761e+00  -2.79221180e-01
C     5.387307379861371e+00   5.388103096689453e+00   3.533483931566568e+00 -1.07366681e+00  -3.23365045e+00   2.26679044e+00
C     3.536422482393450e+00   5.346737124021113e+00   5.325822083230514e+00  6.72165420e-01   7.45855860e-01   1.31895510e-01
C     5.262976661015546e+00   3.551008823441237e+00   5.435339702346973e+00  1.73523808e+00   1.10515041e+00  -2.44400642e+00
C     4.497125230812640e+00   4.481591194861155e+00   4.505971662763231e+00 -2.22893218e+00  -7.22873260e-01  -1.35254992e+00
C     6.218489692248327e+00   6.180375965097089e+00   4.438697124582193e+00  2.20643225e+00   2.74012974e+00   2.66949730e-01
C     4.457428884449286e+00   6.270167569274595e+00   6.180242540004512e+00 -7.42030100e-01  -1.25776175e+00  -2.09794320e-01
C     6.249982847823976e+00   4.479515393287661e+00   6.236584892869799e+00 -2.41801860e+00  -2.29983711e+00   9.68258350e-01
