64
Lattice="7.10842262195238 0 0 0 7.10842262195238 0 0 0 7.10842262195238 " PBC="1 1 1" Properties=species:S:1:pos:R:3:force:R:3 Energy="-512.6059598"
C     4.401563719994480e-02   1.926346987906900e-02   2.899255466638440e-02 -1.24899882e+00  -3.78157540e-01  -1.38561162e+00
C     1.775393164906616e+00   1.757187570481855e+00   3.154454947119060e-02 -1.60373240e-01  -6.62445520e-01  -1.52143670e-01
C     7.082134393635168e+00   1.835682042926301e+00   1.775801259449230e+00 -1.43391940e-01  -1.13905636e+00  -3.90698700e-01
C     1.756778765096979e+00   1.119512586846420e-02   1.834573413334485e+00  4.48162400e-01  -7.94333060e-01  -1.44098536e+00
C     8.683413072961016e-01   8.896055138057957e-01   9.295714826391265e-01  6.97113220e-01   4.72853530e-01   3.70952600e-02
C     2.671288637551945e+00   2.637664021453690e+00   8.923655721406895e-01  4.61391910e-01   1.51608258e+00  -6.41673120e-01
C     8.812977581213494e-01   2.689809064014545e+00   2.636382941529113e+00  2.97241180e-01  -5.34327070e-01   1.23278503e+00
C     2.696102221644257e+00   9.080633861493402e-01   2.647032069456135e+00 -1.39332102e+00  -1.18150833e+00   1.35841489e+00
C     3.513396879842746e+00   7.092055903422807e+00   7.083432391605580e+00  5.89055490e-01  -8.18525400e-02   1.18880195e+00
C     5.299788480563930e+00   1.748579057436356e+00   7.045389393259412e+00  7.30652190e-01   6.21858460e-01   2.46893249e+00
C     3.556449325777681e+00   1.748922536417355e+00   1.771565705831103e+00  4.82923710e-01   1.08501794e+00  -1.40691730e-01
C     5.334948089442748e+00   7.106397430395561e+00   1.793068115582793e+00  1.91042700e-02   1.25004093e+00  -8.48183770e-01
C     4.408317787746872e+00   8.277280454989936e-01   8.826709632030810e-01  9.04287960e-01   1.93119186e+00  -5.24844010e-01
C     6.174289022807583e+00   2.705872393114316e+00   8.733339790074848e-01  1.57331045e+00  -1.85651804e+00  -9.97063220e-01
C     4.447505881892898e+00   2.680413506416560e+00   2.665983835003317e+00 -1.81446670e-01  -6.33723700e-01  -2.18082480e-01
C     6.211861514660534e+00   9.215229000434053e-01   2.674756197190207e+00 -5.43222740e-01   2.59943520e-01  -4.69197510e-01
C     7.424249837006600e-03   3.581633258688496e+00   4.555503720253200e-03 -1.55231910e-01  -9.27422920e-01   3.57599250e-01
C     1.737335452125624e+00   5.300696012879826e+00   1.747712327466300e-02  1.07846786e+00   2.38652887e+00  -5.94590260e-01
C     7.084166762746452e+00   5.320328765314003e+00   1.805108859406133e+00  5.97503040e-01   4.35913100e-01  -2.61538880e-01
C     1.800511273823969e+00   3.580575951907997e+00   1.774038512807922e+00 -8.63772730e-01  -1.30711761e+00  -1.84195360e-01
C     8.817185056562272e-01   4.472909962652253e+00   9.221954989917097e-01 -1.18457230e-01  -1.35599233e+00  -9.81872650e-01
C     2.614700048927101e+00   6.260055411592289e+00   8.999730771128396e-01  1.17023789e+00  -2.16947833e+00  -2.83046150e-01
C     8.876526879436294e-01   6.165558600314152e+00   2.692314640819643e+00 -2.03416790e-01   1.88604646e+00  -3.00785780e-01
C     2.673008022815270e+00   4.422406254874356e+00   2.647402062853506e+00  1.07380045e+00   5.27667140e-01   8.08217310e-01
C     3.600699754176764e+00   3.573733668630889e+00   7.054942757839560e+00 -1.56080000e+00  -6.22582570e-01   1.01252252e+00
C     5.348302398682038e+00   5.347916198081093e+00   1.873232854090260e-02  4.68121140e-01   3.29969340e-01  -1.22311910e+00
C     3.579017785669692e+00   5.300916587233725e+00   1.770806526295287e+00 -4.22572350e-01   1.76180595e+00  -5.23472880e-01
C     5.329964232175414e+00   3.550227039121490e+00   1.715109973625027e+00 -3.87082080e-01   6.94919300e-02   2.54103175e+00
C     4.502119750713904e+00   4.422401705483879e+00   8.203888834807483e-01 -2.10770663e+00   1.00338840e+00   2.16942094e+00
C     6.225290675590012e+00   6.272892440917520e+00   8.888281367080725e-01  2.09789930e-01  -1.93137279e+00   8.44942190e-01
C     4.480264265610678e+00   6.264011533117224e+00   2.673338280130195e+00 -1.79692996e+00  -2.21378755e+00   1.02776580e-01
C     6.204048576274666e+00   4.402008209660909e+00   2.685445558789258e+00 -5.04888400e-01   1.66000279e+00  -1.04492282e+00
C     7.106209981291072e+00   5.498741642968860e-02   3.503828445406643e+00  3.16306160e-01  -2.12629712e+00   1.92067306e+00
C     1.806640866649195e+00   1.751649896008197e+00   3.525156912056822e+00 -6.81962060e-01   2.72445258e+00   5.68700700e-01
C     2.772419881829780e-02   1.828230852167564e+00   5.349658970054838e+00 -9.15778510e-01  -2.25764372e+00  -8.78728820e-01
C     1.796459472930569e+00   7.079166911528223e+00   5.239679943226116e+00 -2.16207655e+00   1.23866847e+00   2.77132193e+00
C     8.813976314591603e-01   9.300042434082322e-01   4.402279040562731e+00  7.73028970e-01  -1.17494635e+00   3.42324570e-01
C     2.696165628774028e+00   2.688473107067343e+00   4.480012982871061e+00 -6.04406630e-01  -1.20492425e+00  -1.67650642e+00
C     8.997736147741223e-01   2.592004277185965e+00   6.263693146868074e+00  2.73800560e-01   3.76302000e+00  -4.30004370e-01
C     2.633857603309132e+00   8.736149038694272e-01   6.216950078993062e+00  6.33840520e-01  -4.83863280e-01  -6.11249580e-01
C     3.523372982316106e+00   8.612351593713399e-03   3.561244738761359e+00  1.95413572e+00  -4.25152810e-01  -7.05605830e-01
C     5.293325502717827e+00   1.778462652878158e+00   3.621759451367681e+00  1.45485364e+00   5.78968650e-01  -2.58679349e+00
C     3.522846745789548e+00   1.748638981439043e+00   5.357081869291547e+00  1.23738070e+00   1.04886819e+00  -8.41835220e-01
C     5.399319405657326e+00   7.099912771860467e+00   5.346675707249677e+00 -1.53393813e+00  -1.56209970e-01  -4.84414020e-01
C     4.464568015455005e+00   8.938849263914882e-01   4.452421071797723e+00 -1.77357960e+00  -1.25978581e+00   1.29432135e+00
C     6.192463695593947e+00   2.677794763523352e+00   4.456648308561384e+00  5.67744860e-01  -7.00105600e-01   8.05718100e-01
C     4.431303654215131e+00   2.651006317458751e+00   6.197895667823246e+00  1.19850840e-01  -9.68996600e-02   1.60765800e-02
C     6.257356343523475e+00   9.003056091230032e-01   6.223073060985250e+00 -2.38508230e-01  -2.63422440e-01  -1.90511160e-01
C     7.047592862103159e+00   3.520227292054078e+00   3.577113723586699e+00  1.88954367e+00   5.34381820e-01  -1.00837913e+00
C     1.777310732992587e+00   5.251447794705072e+00   3.557269069074219e+00 -6.95307530e-01   1.18047115e+00  -5.40688000e-02
C     1.958868021393400e-02   5.307971270178717e+00   5.309894809339689e+00 -4.57206350e-01   8.30591560e-01   1.42269080e-01
C     1.788964991878077e+00   3.525462574229481e+00   5.353070941828212e+00 -3.67650660e-01   3.89822820e-01   1.18829940e-01
C     8.580833558658582e-01   4.370486691479006e+00   4.461764880079033e+00  1.01478875e+00   7.10403010e-01  -4.21010260e-01
C     2.638418082925219e+00   6.183007432066788e+00   4.415884419288958e+00  9.54529470e-01   1.06836031e+00  -4.94824380e-01
C     8.907550168276760e-01   6.206520388072319e+00   6.177732129472033e+00  3.03138520e-01   3.02175070e-01   9.94781750e-01
C     2.661710251324173e+00   4.503678627794470e+00   6.203751870714507e+00 -3.26483670e-01  -2.36845230e+00   1.11789652e+00
C     3.599261222691155e+00   3.594419889297352e+00   3.561800830662921e+00 -1.40300348e+00  -1.66357180e+00  -1.53019290e-01
C     5.326037184098995e+00   5.357293558117171e+00   3.561617077938195e+00  5.01536380e-01  -9.92349490e-01   7.88909200e-02
C     3.508143400105435e+00   5.393161734562750e+00   5.339644339930877e+00  2.19275433e+00  -2.13743990e+00  -3.96818130e-01
C     5.334364203608741e+00   3.546599468890052e+00   5.342304667096412e+00 -1.52872360e-01   9.48610640e-01   4.93109700e-02
C     4.455486365799919e+00   4.438767711218810e+00   4.460425368920521e+00 -4.98953890e-01   1.72427221e+00  -1.25720650e-01
C     6.252465748760915e+00   6.207112590760791e+00   4.418366040709826e+00 -3.42984610e-01   9.72942980e-01   4.55232820e-01
C     4.451245978454410e+00   6.205420786177230e+00   6.239343813857073e+00 -3.81750360e-01   1.18341101e+00  -8.52436640e-01
C     6.249177179204223e+00   4.482962907174135e+00   6.225935622774324e+00 -6.48294230e-01  -1.28052565e+00  -2.76447560e-01
