64
Lattice="9.86 0 0 4.93 8.53901048131456 0 0 0 30 " PBC="1 1 1" Properties=species:S:1:pos:R:3:force:R:3 Energy="-512.6008362"
C     4.963351351399999e+00   7.742644943053820e+00  -3.700590000000048e-02  1.26264536e+00   6.74294380e-01  -1.04467529e+00
C     6.227560273300000e+00   8.471403633035543e+00  -1.299801000000009e-01 -3.54211260e-01  -1.25937862e+00  -1.68510650e-01
C     9.753990604399998e+00   7.944201795786257e-01   3.960512099999999e+00  6.38101400e-01  -8.23485370e-01  -2.84363830e-01
C     1.142573250400000e+00   1.507254212745881e+00   3.838406100000000e+00  1.72960790e-01  -1.66275349e+00  -4.62564900e-01
C     7.450488037400000e+00   7.769269748510671e+00  -1.617480000000029e-01  1.43599937e+00  -2.07676092e+00   2.79092840e-01
C     8.732759246799999e+00   8.441760543544328e+00  -1.948392000000005e-01 -1.37645048e+00   2.01092170e+00  -1.01043190e+00
C     2.380916138500000e+00   7.854315901968536e-01   3.687512100000000e+00  1.32422550e-01  -1.26410003e+00  -2.07046980e-01
C     3.596449740700000e+00   1.497419748985961e+00   3.434494800000000e+00 -6.92681400e-02  -1.65604230e-01   5.87729000e-01
C     9.971405329900000e+00   7.758096026347067e+00  -2.958387000000009e-01 -7.37393520e-01  -6.84037480e-01   7.51706170e-01
C     1.120699880630000e+01   8.467467832325102e+00  -2.357939999999985e-01 -1.60213076e+00  -9.92227820e-01  -2.98576470e-01
C     4.898815235700000e+00   8.631965294184233e-01   3.480716700000000e+00 -4.19719832e+00  -2.50299076e+00   2.44814160e-01
C     6.048487538200000e+00   1.558250378793909e+00   3.655227900000000e+00  4.08640579e+00  -3.38045774e+00   4.30327850e-01
C     1.240900162910000e+01   7.749877228760066e+00  -2.270859000000023e-01  7.51013480e-01   1.78818770e-01  -9.45375450e-01
C     1.363532074020000e+01   8.476522513647989e+00  -2.321613000000013e-01  2.38364940e-01   2.69779140e-01   8.29322090e-01
C     7.302029073999999e+00   7.451468442850432e-01   3.829304100000000e+00 -4.41018400e-02   2.67571697e+00  -1.50009090e-01
C     8.529952308499999e+00   1.526800263904916e+00   3.966187500000000e+00  3.09297390e-01  -1.22910613e+00  -2.41051400e-01
C     1.300815503000000e+00   1.318394868597206e+00  -3.243915000000008e-01  9.50868700e-02   9.90837530e-01   9.74664960e-01
C     2.489884914500000e+00   2.080586346311273e+00  -3.796335000000006e-01  2.33469214e+00  -2.45788345e+00   4.25772530e-01
C     1.101196144940000e+01   2.883275959809045e+00   3.652337400000000e+00  2.65389850e-01   2.99097988e+00  -5.63377690e-01
C     2.354841220600000e+00   3.632535533101675e+00   3.378251400000000e+00  1.52839980e-01  -1.18747713e+00   7.32887990e-01
C     3.756489224800000e+00   1.378007920900811e+00  -2.983004999999999e-01  8.76058840e-01  -7.05476820e-01   2.71174950e-01
C     5.028441648399999e+00   2.114593040937978e+00  -2.559231000000004e-01 -9.47768350e-01  -4.27721277e+00   6.70218990e-01
C     3.552719950500000e+00   2.902918672566713e+00   3.345862200000000e+00  2.89090305e+00   6.04245990e-01   5.38399000e-03
C     4.860068886700000e+00   3.588540587136305e+00   3.384461100000000e+00 -4.39770810e-01   2.11784751e+00   1.11061397e+00
C     6.271668983300000e+00   1.321791430795836e+00  -2.051571000000010e-01 -2.48442899e+00   7.07068810e-01  -4.32883940e-01
C     7.463541001199999e+00   1.973311355381766e+00  -2.640680999999994e-01  2.69496908e+00   4.27231772e+00   6.72440780e-01
C     6.114472482299999e+00   2.912511738500364e+00   3.665064300000000e+00 -9.80613240e-01   3.05414605e+00  -1.02171544e+00
C     7.351309304699999e+00   3.651962550454618e+00   3.760108200000000e+00 -2.61704900e-02  -2.02347870e-01   1.13666983e+00
C     8.736841483999999e+00   1.396517933918307e+00  -2.854923000000014e-01 -1.37470719e+00  -4.43385149e+00   7.30864150e-01
C     9.957598569100000e+00   2.034356485132972e+00  -2.308350000000026e-01 -1.08888383e+00   1.87161905e+00  -1.87146448e+00
C     8.604765650099999e+00   2.961148405172558e+00   3.933284100000000e+00 -1.12388562e+00   1.43636140e-01  -1.37180362e+00
C     9.838071162800000e+00   3.680878628593566e+00   3.693631800000000e+00 -1.89148580e+00  -3.76662060e-01   1.18094149e+00
C     2.539068763700000e+00   3.469213209864802e+00  -3.743879999999997e-01  7.20786600e-01   4.52386510e-01  -2.90189940e-01
C     3.766034197800000e+00   4.156018887457237e+00  -2.634605999999984e-01  8.81571350e-01   1.91237368e+00   4.29874260e-01
C     1.227263851930000e+01   5.028633091534052e+00   3.402650400000000e+00 -1.69921363e+00   1.92750246e+00  -1.28905190e-01
C     3.622018495500000e+00   5.769243159551070e+00   3.385713600000000e+00  4.45919190e-01   1.77830460e-01   5.07238900e-01
C     5.014009172000000e+00   3.467929540419344e+00  -1.040709000000000e-01  3.30272700e-01   1.38228685e+00  -1.21057955e+00
C     6.287530814600000e+00   4.126566815630460e+00  -1.179930000000020e-01 -1.19448456e+00   2.43834523e+00   1.14451646e+00
C     4.854725703400000e+00   5.081954173965468e+00   3.472825200000000e+00  7.61101500e-01  -1.94200199e+00  -7.89209190e-01
C     6.088046992099999e+00   5.804724968238196e+00   3.600722100000000e+00  7.14745200e-02  -1.23176735e+00   1.30302922e+00
C     7.531262242000000e+00   3.434857269709465e+00  -1.490700000000018e-01 -2.62991551e+00   2.60293100e-02  -1.14325763e+00
C     8.696254913899999e+00   4.206100610872961e+00  -3.334557000000018e-01  6.60626550e-01  -1.27508019e+00   8.23649740e-01
C     7.339160848000000e+00   5.069574316571565e+00   3.813513300000000e+00 -2.13901731e+00   3.77098080e-01  -1.81664724e+00
C     8.522998937899999e+00   5.811593919048518e+00   3.716395800000000e+00  2.00216326e+00  -2.34096112e+00   4.00103510e-01
C     9.870154370300000e+00   3.445255478941276e+00  -4.469153999999982e-01  4.39725710e+00   1.08400909e+00   1.02492786e+00
C     1.121284184230000e+01   4.166134797002578e+00  -4.548833999999999e-01 -4.54263019e+00   9.66745830e-01   2.67998820e-01
C     9.779137992099999e+00   5.142457247331404e+00   3.637582200000000e+00  1.00902632e+00  -2.44326543e+00  -2.06801040e-01
C     1.103386681980000e+01   5.799621970185243e+00   3.519612000000000e+00 -4.64010020e-01  -5.05046000e-01  -3.84675520e-01
C     3.776091890800000e+00   5.629632472955691e+00  -2.512490999999990e-01 -1.44191877e+00  -2.19810293e+00  -1.30195000e-02
C     4.952015457300000e+00   6.321597591460351e+00  -4.309769999999702e-02  2.45334380e+00   1.53709470e-01  -3.86798900e-02
C     1.349972769640000e+01   7.199690766221554e+00   3.562168500000000e+00 -5.05234100e-02  -1.32548015e+00   9.61699690e-01
C     4.860923354300001e+00   7.862151041814670e+00   3.832501200000000e+00 -1.90037905e+00   3.37769552e+00  -5.09316680e-01
C     6.213710522900000e+00   5.601434696378321e+00  -2.106210000000175e-02  1.01696542e+00  -1.37648565e+00  -8.23461420e-01
C     7.468633789799998e+00   6.273264315830511e+00  -1.449384000000009e-01 -9.94778720e-01   2.88227012e+00   7.76888650e-01
C     6.073056193199999e+00   7.235831957297944e+00   3.765324600000000e+00  6.96393010e-01  -3.35693682e+00  -5.21237600e-01
C     7.307024643000000e+00   7.845452579870506e+00   3.739374300000000e+00  6.58120200e-01   4.03046866e+00   1.79708200e-01
C     8.723321797099999e+00   5.624812457710045e+00  -2.098067999999991e-01 -2.06952220e+00  -1.06076540e+00  -8.13297070e-01
C     9.910799952500000e+00   6.315388023039295e+00  -3.205977000000004e-01  1.66361804e+00   1.15745299e+00   1.82581590e-01
C     8.534074330799999e+00   7.165658198393094e+00   3.684482400000000e+00  7.49397280e-01   3.77273724e+00  -6.47898520e-01
C     9.765156314900000e+00   7.961098362773556e+00   3.553765500000000e+00  9.73304560e-01  -1.43412315e+00  -2.05559800e-02
C     1.111644269290000e+01   5.586610974185040e+00  -3.723381000000003e-01  3.23814008e+00   6.30316050e-01  -7.42449850e-01
C     1.242339151030000e+01   6.343775451039426e+00  -3.861360000000005e-01 -2.19118967e+00  -1.12810875e+00   1.23229863e+00
C     1.100874501880000e+01   7.211830506640760e+00   3.511118700000000e+00  1.95814760e-01   5.46103470e-01   8.41895660e-01
C     1.227354312500000e+01   7.874627475417102e+00   3.688606200000000e+00 -1.21353680e+00   1.47516153e+00  -9.34702300e-01
