64
Lattice="9.86 0 0 4.93 8.53901048131456 0 0 0 30 " PBC="1 1 1" Properties=species:S:1:pos:R:3:force:R:3 Energy="-512.41279744"
C     4.998979130299999e+00   7.942245764655602e+00   7.098270000000000e-02 -7.69936200e-01  -2.78579890e+00   2.83582680e-01
C     1.269654205500000e+00   4.850917924572720e-02   1.157250000000000e-01  2.36649833e+00   2.01481764e+00  -9.12579580e-01
C     9.782510752999999e+00   5.962580958526191e-01   3.116445000000000e+00  5.07850230e-01  -4.62786740e-01  -8.56108100e-02
C     1.160605711400000e+00   1.285844672988075e+00   3.172240500000000e+00 -2.48115612e+00   4.19847203e+00  -7.34022600e-02
C     7.447950122700000e+00   7.826568131243461e+00   4.534830000000000e-02  5.35998300e-02   4.82719711e+00   9.45686960e-01
C     3.755409998500000e+00   9.893374393222321e-02   1.854051000000000e-01  6.13500800e-02  -3.82426123e+00  -9.18688550e-01
C     2.370323294000000e+00   6.420159205315856e-01   3.272510100000000e+00 -8.13102330e-01  -6.39086170e-01   2.88013210e-01
C     3.539730485100000e+00   1.366163032513479e+00   3.338600100000000e+00  3.92809956e+00   6.88396660e-01  -3.68638400e-02
C     9.937879456499999e+00   7.952148796669678e+00   2.176737000000000e-01  4.80115350e-01  -1.93522177e+00  -8.06243770e-01
C     6.288312761899999e+00   7.750919585769360e-02   5.262300000000000e-02 -2.21974270e+00  -1.02003714e+00   1.44613094e+00
C     4.806630250300000e+00   6.691541766885977e-01   3.316606800000000e+00  8.81801270e-01  -2.02914790e-01   8.10059570e-01
C     6.082854420299999e+00   1.375830046277887e+00   3.335220600000000e+00 -1.32364313e+00   7.93107970e-01  -7.79170750e-01
C     1.239213250020000e+01   7.873293340419707e+00   1.557540000000000e-01  1.22844811e+00   1.95652280e-01  -6.15372560e-01
C     8.685303855600001e+00   1.117016993524432e-01   2.007639000000000e-01  1.23829790e+00  -3.88685977e+00  -1.30139285e+00
C     7.311199169800000e+00   7.113000853246287e-01   3.153070200000000e+00 -1.17582854e+00  -2.00349166e+00   9.72777750e-01
C     8.566847836899999e+00   1.320081408557111e+00   3.083913000000000e+00 -6.84838500e-02   1.56522038e+00   9.93250200e-02
C     1.301432098100000e+00   1.525433680667697e+00   1.142928000000000e-01  3.66558398e+00  -1.79279541e+00   1.19876411e+00
C     2.642936715200000e+00   2.219797748776608e+00   2.119230000000000e-01 -4.92630183e+00  -5.89799150e-01  -1.00083346e+00
C     1.096992876240000e+01   2.845988491965819e+00   3.177734100000000e+00  1.09102718e+00  -3.55943040e+00   4.57008330e-01
C     2.351411419600000e+00   3.476025717815852e+00   3.431103300000000e+00  9.94430600e-02   8.69157080e-01  -4.70007320e-01
C     3.800678737499999e+00   1.462267375323155e+00   1.480098000000000e-01  1.17965854e+00   2.15911324e+00   6.99952800e-01
C     5.054970027700000e+00   2.156622819031480e+00   2.085063000000000e-01  4.26195970e-01   1.35429872e+00  -1.03818747e+00
C     3.627559766200000e+00   2.797738300907950e+00   3.390368400000000e+00 -2.88871745e+00  -7.02235300e-01   3.56073000e-03
C     4.791947477800000e+00   3.535954713507216e+00   3.328301400000000e+00  3.11910701e+00  -9.47960670e-01   1.06957239e+00
C     6.308953538000000e+00   1.476256409242014e+00   8.301990000000001e-02 -2.51144840e-01   2.15827780e-01   5.47333410e-01
C     7.570834711100000e+00   2.119131098057573e+00   1.379229000000000e-01 -2.46023626e+00   4.60915253e+00  -8.30919040e-01
C     6.087265537800000e+00   2.785601463752307e+00   3.338644800000000e+00 -1.85547154e+00   1.33621178e+00  -7.07286870e-01
C     7.301794800400000e+00   3.500424915581193e+00   3.172061100000000e+00  1.00452033e+00  -1.41820140e+00   1.23143479e+00
C     8.780609432399999e+00   1.473483109418320e+00   1.496742000000000e-01 -6.82238410e-01   1.16258191e+00   3.99527200e-01
C     9.985770906199999e+00   2.225389434399331e+00   2.159994000000000e-01 -2.86395610e-01  -6.26506160e-01  -7.36348620e-01
C     8.532836457100000e+00   2.731908934365010e+00   3.056848200000000e+00  4.06164320e-01   2.72648556e+00   6.13469800e-02
C     9.753769789699998e+00   3.565799323645759e+00   3.018714300000000e+00 -1.84541740e-01  -4.49394075e+00   1.41842946e+00
C     2.526304550000000e+00   3.624898754468992e+00   1.936677000000000e-01  2.27420182e+00  -3.14171510e-01   5.07095070e-01
C     3.783277316500000e+00   4.307546787858715e+00   1.166229000000000e-01  6.40165340e-01   7.89834980e-01   1.89695860e-01
C     1.220359322840000e+01   4.893583431996460e+00   3.525299400000000e+00  2.86090034e+00   1.20621613e+00  -1.07361467e+00
C     3.620654808200000e+00   5.689916862263233e+00   3.414059700000000e+00 -2.11217674e+00  -1.56711388e+00  -6.67854900e-02
C     5.048625265600000e+00   3.617834089538469e+00   1.601568000000000e-01 -2.07251314e+00  -2.52393579e+00  -5.48515720e-01
C     6.239848594100000e+00   4.288232570834212e+00   8.133300000000001e-03  2.03685308e+00   5.39273650e-01   7.89923090e-01
C     4.858107781999999e+00   4.961251845226477e+00   3.367690200000000e+00 -1.63879539e+00  -5.22769900e-01  -9.23066300e-02
C     6.090075292699999e+00   5.608566819491635e+00   3.304008000000000e+00  8.57075290e-01   1.13016701e+00   2.32758800e-01
C     7.518564977699999e+00   3.628768719408633e+00   6.270930000000001e-02 -7.91839270e-01  -3.14968175e+00   8.99954600e-02
C     8.729027039600000e+00   4.299682273816530e+00   1.083333000000000e-01  6.88823660e-01   2.22244291e+00   1.70720770e-01
C     7.337453490400000e+00   4.909808918150136e+00   3.360024000000000e+00 -1.63374430e-01   6.71308650e-01  -2.22895905e+00
C     8.551615468000000e+00   5.656244469896820e+00   3.172866900000000e+00 -2.41349760e-01  -1.30407360e-01   1.17036113e+00
C     9.991513074400000e+00   3.625865028894909e+00   2.598330000000000e-01 -2.54621854e+00  -2.10911420e-01  -5.67882570e-01
C     1.116774782250000e+01   4.322751520699613e+00   3.070992000000000e-01  1.22782022e+00   1.09404568e+00  -1.07026669e+00
C     9.779189510599998e+00   4.907026737755542e+00   3.193725300000000e+00 -4.98210400e-01   3.39406683e+00   1.48975130e-01
C     1.102510349830000e+01   5.614757772869845e+00   3.380574000000000e+00 -1.46901754e+00  -7.68185370e-01  -4.92084100e-02
C     3.807246828600000e+00   5.720589500248023e+00   4.287810000000000e-02 -4.34543930e-01   1.42182259e+00   2.64987730e-01
C     5.077062836700000e+00   6.472814928050671e+00  -1.655249999999953e-02 -3.46041097e+00  -4.20195470e-01   8.02414210e-01
C     1.339829408030000e+01   7.100193959938279e+00   3.215202600000000e+00  1.20722975e+00  -1.37034113e+00   6.51202490e-01
C     4.821777872500000e+00   7.694128078698662e+00   3.145075500000000e+00 -9.51618700e-02   2.52647339e+00   7.31386600e-02
C     6.239447045600000e+00   5.692080647518866e+00   4.598220000000000e-02  7.19614220e-01   2.46433194e+00  -1.16973846e+00
C     7.448118975199999e+00   6.480010496011853e+00   1.689000000000000e-02  1.62545215e+00  -3.97481936e+00   2.40995900e-01
C     6.069622793300000e+00   7.042000603517079e+00   3.199690200000000e+00 -9.57080500e-02  -1.11473647e+00   7.12941900e-01
C     7.280724325500000e+00   7.768958501578675e+00   3.286895400000000e+00  7.09713710e-01  -2.25360910e-01  -7.51307190e-01
C     8.714857134999999e+00   5.752135166664286e+00   8.168010000000001e-02  3.75640080e-01   2.98597870e-01   7.73142070e-01
C     9.959252682699999e+00   6.475781209511213e+00   2.644812000000000e-01 -1.60071865e+00   1.01416830e+00  -1.14044789e+00
C     8.530862238599999e+00   7.104880254279808e+00   3.232193400000000e+00 -3.62195750e-01  -2.00125367e+00   9.18610310e-01
C     9.756138457500001e+00   7.779926177419396e+00   3.365496000000000e+00  5.05915040e-01  -3.07389220e-01  -9.42856440e-01
C     1.117699734060000e+01   5.754749128552424e+00   2.344758000000000e-01 -6.46136740e-01  -6.99964520e-01   2.65112460e-01
C     1.237877609490000e+01   6.426686339536663e+00   1.340841000000000e-01  2.80263454e+00   1.24957475e+00  -5.97215000e-02
C     1.099399677590000e+01   7.003327766613578e+00   3.362345400000000e+00 -2.61213210e-01   4.06760575e+00  -1.16219870e-01
C     1.217709861960000e+01   7.842607723138989e+00   3.238374300000000e+00  6.00915500e-01  -2.62360038e+00   2.70468410e-01
