64
Lattice="9.86 0 0 4.93 8.53901048131456 0 0 0 30 " PBC="1 1 1" Properties=species:S:1:pos:R:3:force:R:3 Energy="-513.56961402"
C     4.928626008999999e+00   8.483964090501098e+00  -9.645539999999997e-02  9.99404640e-01  -1.34234563e+00  -7.88082070e-01
C     1.228140598200000e+00   6.386281535137505e-01  -9.187650000000147e-02  1.54166158e+00   8.97553060e-01   4.32658700e-02
C     1.186945518200000e+00   7.593098178473807e-01   3.651998700000000e+00  2.59976557e+00   8.43801510e-01  -3.38552370e-01
C     2.484435193900000e+00   1.484676983646657e+00   3.628789500000000e+00 -2.75658643e+00  -3.20077020e-01   9.30733700e-02
C     7.440939218999999e+00   8.489082031822392e+00  -5.801309999999660e-02 -2.30591404e+00  -1.95023353e+00  -1.32279242e+00
C     3.708956334000000e+00   6.130975368598081e-01  -3.168317999999992e-01  9.41298980e-01   1.60070122e+00   1.93920363e+00
C     3.694967754800000e+00   7.653720029475520e-01   3.683731800000000e+00 -7.31192890e-01   2.20433756e+00  -2.41863090e-01
C     4.886914511500000e+00   1.554368117679177e+00   3.662735400000000e+00  4.54841610e-01  -3.86456059e+00   2.84872990e-01
C     9.878323380299999e+00   8.483445174834230e+00  -2.785262999999993e-01  8.94873690e-01  -1.41934257e+00  -4.70970360e-01
C     6.190627523400000e+00   6.371951367749968e-01  -1.894646999999985e-01  2.13637000e-03   9.58843200e-01  -1.30730723e+00
C     6.082982156600000e+00   7.861120639420048e-01   3.736051200000000e+00  2.42847219e+00   2.54393970e-01  -8.45007540e-01
C     7.357324890699998e+00   1.464635242929258e+00   3.626472900000000e+00  5.02638880e-01   7.73803530e-01   9.47336780e-01
C     1.237772196230000e+01   8.437737217976466e+00  -3.482765999999984e-01 -1.76598803e+00   2.16207777e+00   1.41600120e+00
C     8.635923989599998e+00   6.369241085823616e-01  -1.811037000000013e-01  7.40995300e-01  -7.25368540e-01   6.03022130e-01
C     8.633106790399999e+00   8.221045054558336e-01   3.659514000000000e+00 -2.16113022e+00  -1.32027237e+00  -7.91495400e-02
C     9.849231992600000e+00   1.524938332669752e+00   3.662179800000000e+00  1.12466500e-01  -1.34135955e+00  -7.03172660e-01
C     1.244570907800000e+00   2.069553859381008e+00  -2.618843999999996e-01 -1.96226080e-01  -1.27514838e+00   2.74450780e-01
C     2.498919139500000e+00   2.712431109899711e+00  -3.799524000000005e-01 -1.02079771e+00   2.96014507e+00  -1.49190240e-01
C     2.443712260000000e+00   2.907677036156692e+00   3.607682100000000e+00  1.51540630e-01   7.94068440e-01   2.42348680e-01
C     3.680975330200000e+00   3.643407059684392e+00   3.651697800000000e+00 -5.24054970e-01  -1.02576940e-01  -5.22821020e-01
C     3.747163094500000e+00   2.052985019615930e+00  -2.731143000000031e-01 -1.66821973e+00  -2.93724640e-01  -9.96924850e-01
C     4.918447038000000e+00   2.819378373606995e+00  -2.809617000000024e-01  2.35137170e+00  -1.84694334e+00   2.79656860e-01
C     4.900043988899999e+00   2.914466830339865e+00   3.612052200000000e+00  6.78802610e-01   2.26134919e+00   4.94525100e-01
C     6.167790087199999e+00   3.603419727507600e+00   3.665234400000000e+00 -7.66556170e-01   2.28812300e-01  -4.56205240e-01
C     6.176195786499999e+00   2.116748543353444e+00  -1.856600999999998e-01  3.33825170e-01  -2.26369498e+00   1.10349970e-01
C     7.439111865199999e+00   2.781046926342484e+00  -1.626474000000009e-01 -1.01280435e+00  -1.17081604e+00   8.08196990e-01
C     7.408092847500000e+00   2.886156424214263e+00   3.680003400000000e+00 -1.59025043e+00   8.96441800e-01  -2.95938360e-01
C     8.594632971799999e+00   3.647040750204051e+00   3.688624500000000e+00  1.04740989e+00   5.13467560e-01  -1.06489170e+00
C     8.681918966900000e+00   2.026095675614410e+00  -3.349319999999878e-02 -2.88785951e+00   1.59425363e+00  -1.82085547e+00
C     9.832942730299999e+00   2.764636058271287e+00  -2.561340000000030e-01  3.31750776e+00  -6.10466980e-01   7.33057170e-01
C     9.843443728899999e+00   2.919757259672854e+00   3.563800500000000e+00 -7.00113690e-01   1.72502970e+00   1.26626958e+00
C     1.104978613490000e+01   3.644981226266380e+00   3.622431900000000e+00  1.36574788e+00  -1.23308992e+00  -1.34767500e-01
C     2.472304830300000e+00   4.203213400649463e+00  -5.616623999999995e-01  1.68410129e+00  -1.44904597e+00   3.82570290e-01
C     3.745498972999999e+00   4.877795826300196e+00  -5.474250000000005e-01 -1.07715421e+00   1.35049328e+00   1.04913567e+00
C     3.671245038500000e+00   5.077372055551796e+00   3.663881100000000e+00  1.09660321e+00  -1.63656105e+00  -2.45560000e-03
C     4.924400703200000e+00   5.771432134887619e+00   3.707973300000000e+00 -1.51161754e+00   6.63234590e-01  -6.03772020e-01
C     4.974131979599999e+00   4.208714487370994e+00  -3.274623000000005e-01 -1.24550253e+00   2.59397970e-01   2.92838190e-01
C     6.177631155999999e+00   4.899777459418441e+00  -8.342880000000008e-02 -3.63029090e-01   6.18018220e-01  -2.05472247e+00
C     6.133860890499999e+00   5.023978647701614e+00   3.632374200000000e+00  2.87675640e-01   9.19277950e-01   1.23146340e+00
C     7.344023504199999e+00   5.785589472703040e+00   3.758796600000000e+00  7.04816620e-01  -1.76875840e+00  -1.25483486e+00
C     7.379469070300000e+00   4.179265233417675e+00  -1.663797000000002e-01  2.44007229e+00   6.37379990e-01   3.84255420e-01
C     8.651052927099999e+00   4.868529377517405e+00  -2.677952999999995e-01 -6.03111120e-01   9.78330990e-01   6.91250460e-01
C     8.581658690799998e+00   5.123367008551791e+00   3.651368100000000e+00  1.82496962e+00  -2.52094116e+00   1.34799009e+00
C     9.885535773099999e+00   5.786657275963564e+00   3.743139600000000e+00 -2.67059959e+00   1.76221700e-01  -7.34523140e-01
C     9.886405671599999e+00   4.151226794775861e+00  -3.238671000000011e-01 -1.54728600e-01   2.83284339e+00  -1.02911001e+00
C     1.114108840380000e+01   4.961096776796159e+00  -5.542911000000004e-01 -2.07539122e+00  -4.02895958e+00   6.11648840e-01
C     1.108500743530000e+01   5.052694315264596e+00   3.719644200000000e+00 -9.24168390e-01  -5.09991020e-01  -6.37341340e-01
C     1.229636167930000e+01   5.718767531581905e+00   3.654219600000000e+00  1.24952427e+00   3.24915158e+00   9.15050080e-01
C     3.716633034200000e+00   6.306296965531764e+00  -3.991712999999990e-01  1.46255692e+00   1.00841020e+00  -3.99729560e-01
C     4.991578658000000e+00   7.060475008860873e+00  -2.441994000000030e-01 -2.95333092e+00  -6.69655190e-01   1.44415640e-01
C     4.870142454300000e+00   7.236045347169839e+00   3.704922900000000e+00  2.27303790e+00  -2.71544297e+00  -5.07750400e-01
C     6.155514387200000e+00   7.863559210032927e+00   3.629043000000000e+00 -1.94292522e+00   1.92305193e+00   8.92245370e-01
C     6.179398659599999e+00   6.331483972403991e+00  -2.080215000000010e-01  3.23124490e-01  -5.92332190e-01   1.38781405e+00
C     7.396751974099999e+00   7.009167766661060e+00  -9.298170000000283e-02  1.16645435e+00   2.10369045e+00  -2.07082370e-01
C     7.364492666999999e+00   7.157007497656016e+00   3.718359000000000e+00  5.46479600e-01   2.63880650e+00  -1.04894220e-01
C     8.599020030899998e+00   7.930158624540953e+00   3.726683100000000e+00  7.30484780e-01  -2.87635788e+00  -2.23588230e-01
C     8.618564325700000e+00   6.314338749431513e+00  -2.068790999999983e-01  1.78837913e+00  -3.56382680e-01  -8.98196010e-01
C     9.882241448499999e+00   7.043069516848965e+00  -4.034109000000008e-01 -1.83960494e+00   1.56400660e-01   8.29935050e-01
C     9.860403323300000e+00   7.210543080030691e+00   3.709960200000000e+00 -8.12065260e-01  -6.72906480e-01   6.61334540e-01
C     1.107996162960000e+01   7.892013242314802e+00   3.750416400000000e+00  3.01651850e-01   8.91243930e-01  -1.19712070e-01
C     1.107364787720000e+01   6.331634429768648e+00  -5.805792000000025e-01  2.28907321e+00   2.03902740e+00   1.08058093e+00
C     1.237063962290000e+01   7.056783167679845e+00  -4.328898000000017e-01 -1.19223163e+00  -2.06377141e+00  -9.25435990e-01
C     1.234590946110000e+01   7.185592603748759e+00   3.739766100000000e+00 -2.91361206e+00  -7.16235120e-01  -5.71771540e-01
C     1.351250877070000e+01   7.924663088176234e+00   3.681293100000000e+00  1.67001412e+00   6.25809180e-01   3.40412370e-01
