72
Lattice="7.395 0 0 3.6975 6.40425786098592 0 0 0 13.6 " PBC="1 1 1" Properties=species:S:1:pos:R:3:force:R:3 Energy="-581.73590114"
C     3.695788390274999e+00   6.345773600839273e+00   1.340661874400000e+01 -9.60053010e-01   1.08632420e+00  -2.92564410e-01
C     1.177429940325000e+00   6.922300199572758e-01   1.336739076800000e+01  1.75559314e+00  -1.13157203e+00   1.42686700e-01
C     1.265245602300000e+00   7.642790096061121e-01   3.481216072000000e+00 -2.19623960e-01   7.85361400e-02   1.17834960e-01
C     2.512581143175000e+00   1.476601748173352e+00   3.463358184000000e+00 -1.14974428e+00   6.23521720e-01   6.23440800e-02
C     6.087271601699999e+00   6.368532476038934e+00   1.339634598400000e+01  2.83605771e+00  -3.22443210e-01   3.01409330e-01
C     3.674848005750000e+00   6.964214145989100e-01   1.340490990400000e+01  4.66991550e-01  -1.11649071e+00  -4.74323140e-01
C     3.720048020550000e+00   7.478345405286756e-01   3.522747344000000e+00  9.86811490e-01   2.07217467e+00   1.60163200e-02
C     4.935968270324999e+00   1.501491896346242e+00   3.589739719999999e+00  1.42044131e+00  -4.07777410e-01  -8.33672370e-01
C     8.667933222449999e+00   6.372002431032639e+00   1.339724671200000e+01 -2.57642432e+00  -3.58734100e-01   4.88176500e-02
C     6.183398615100000e+00   6.985526235295608e-01   1.341499063200000e+01 -1.02476276e+00  -6.51451930e-01   1.56297210e-01
C     6.208720906875000e+00   7.875085977584826e-01   3.576489512000000e+00 -1.34704898e+00   2.61444330e-01  -2.68376250e-01
C     7.432912279275000e+00   1.488541590357221e+00   3.497285016000000e+00  1.74840040e-01   4.47612610e-01   1.69813710e-01
C     1.231497077775000e+00   2.097767112914874e+00   1.333796254400000e+01 -1.23016170e+00  -7.84273500e-02   6.46912910e-01
C     2.430771478350000e+00   2.807202812038825e+00   1.330918521600000e+01  1.75725090e+00  -4.59621260e-01  -1.25962790e-01
C     2.498910709200000e+00   2.925995006828494e+00   3.475361407999999e+00  4.05705490e-01  -1.42574429e+00   3.72650510e-01
C     3.772190905050000e+00   3.614917675899130e+00   3.586393032000000e+00 -3.07901051e+00   6.15805900e-01  -8.76866640e-01
C     3.694150212899999e+00   2.118063807137678e+00   1.331120848800000e+01 -4.79214890e-01  -8.86759680e-01   1.26145027e+00
C     4.924936557225000e+00   2.822670311579719e+00   1.348221080800000e+01 -4.10289920e-01  -8.92242170e-01  -7.49300460e-01
C     4.976635630800000e+00   2.945894060680772e+00   3.517799800000000e+00 -5.07071250e-01  -2.46367007e+00   8.50758360e-01
C     6.181277581200000e+00   3.633233212952944e+00   3.543756080000000e+00  1.57137380e+00   5.91996420e-01  -2.07816100e-01
C     6.152755953600000e+00   2.133258036995686e+00   1.349070278400000e+01  4.34350420e-01  -1.54456986e+00   4.57708600e-02
C     7.400473335299999e+00   2.804613314415713e+00   1.349257264800000e+01 -9.56551200e-02  -1.01316068e+00  -2.71300370e-01
C     7.419511984649999e+00   2.926703830088438e+00   3.500198680000000e+00 -1.07871147e+00  -1.57616138e+00  -1.29191660e-01
C     8.618659930724998e+00   3.599577493004493e+00   3.475013928000000e+00  2.61409794e+00   1.39247477e+00   4.43657900e-01
C     2.456916759675000e+00   4.205639312179305e+00   1.330885324000000e+01 -4.42931100e-02   1.29093225e+00   3.05491200e-01
C     3.695869883174999e+00   4.943353332096980e+00   1.335428948000000e+01 -2.13397310e-01  -1.00090854e+00   3.98098110e-01
C     3.725223189450000e+00   5.026629626200182e+00   3.590539264000000e+00 -3.42649680e-01   7.53594770e-01  -1.83066730e-01
C     4.927886459700000e+00   5.730132356800051e+00   3.560842983999999e+00  1.98607591e+00   1.29253667e+00  -2.35102630e-01
C     4.929277570124999e+00   4.216382070483983e+00   1.345989851200000e+01 -3.89056750e-01   1.20848513e+00  -9.82167200e-02
C     6.150562707524999e+00   4.917915619877061e+00   1.348356768000000e+01  4.59119870e-01   7.89013510e-01   2.15916630e-01
C     6.202465957050000e+00   5.053704010558804e+00   3.556434000000000e+00 -1.06130054e+00  -2.65929540e-01  -3.27824620e-01
C     7.431601367624999e+00   5.763291106338566e+00   3.509640752000000e+00 -2.76958000e-02  -1.49251240e+00   5.36464000e-01
C     7.415121905925000e+00   4.171827520466806e+00   1.353202747200000e+01 -1.24683161e+00   3.43655560e+00  -9.56468010e-01
C     8.616291718950000e+00   4.904387970041960e+00   1.334843753600000e+01  9.24151820e-01   1.56692187e+00   9.75242070e-01
C     8.650246785824999e+00   5.022940709630244e+00   3.561288928000000e+00  5.08702820e-01   1.40428028e+00  -6.96458230e-01
C     9.900688411575000e+00   5.781466133974932e+00   3.557362608000000e+00 -8.60849520e-01  -1.95232580e+00   3.54726850e-01
C     7.383113424900000e+00   3.321722041277640e-02   6.987577591999999e+00  1.88753126e+00  -2.57344900e-02  -4.79200380e-01
C     1.259951817600000e+00   7.535499564132541e-01   6.860767248000000e+00 -8.22234680e-01  -4.40317110e-01   1.03342510e-01
C     1.203685296225000e+00   6.606282095471058e-01   1.019082408000000e+01 -1.84843070e-01  -2.33687620e-01   4.41527820e-01
C     2.438770206150000e+00   1.365025166671967e+00   1.020243236000000e+01 -2.94594370e-01   2.20063370e-01   1.12839480e-01
C     2.493182727075000e+00   3.421660485182940e-02   6.768631464000000e+00 -7.44703870e-01  -4.81254110e-01   3.72773130e-01
C     3.708478986750000e+00   7.570742195136121e-01   6.727953592000000e+00 -4.48870000e-04  -1.56953130e-01   2.15602240e-01
C     3.674092976250000e+00   6.409838530299204e-01   1.034249984800000e+01 -1.25374800e+00   1.42339119e+00  -1.26970273e+00
C     4.884619423950000e+00   1.340841151970721e+00   1.022133160000000e+01  9.79768860e-01   1.20265470e+00   7.21100680e-01
C     4.929631420874999e+00   2.612380036446180e-02   6.826473623999999e+00  7.03194180e-01   8.23169590e-01   5.50338980e-01
C     6.168199560675000e+00   7.340193395156622e-01   6.966815967999999e+00 -5.99958720e-01   1.52835390e-01  -9.16509110e-01
C     6.111680463074999e+00   6.577606390477123e-01   1.028779561600000e+01  5.44403530e-01  -8.48666150e-01  -5.50701220e-01
C     7.343700256425000e+00   1.361549127633295e+00   1.021466433600000e+01  2.27726010e-01  -6.37116220e-01  -2.41064570e-01
C     8.643944914724999e+00   2.174402383744992e+00   6.833652384000000e+00  2.47478500e-01   2.89780460e-01  -3.97826710e-01
C     2.488254846975000e+00   2.912724808159366e+00   6.713310608000000e+00 -8.31145220e-01  -1.02934161e+00   1.19023977e+00
C     2.413604244675000e+00   2.814564826661788e+00   1.013519409600000e+01  7.33019890e-01  -1.93887320e+00   2.89221900e-01
C     3.643591300424999e+00   3.504771933688826e+00   1.011930331200000e+01  1.30105424e+00  -4.41544970e-01   4.55611210e-01
C     3.693987042224999e+00   2.183057994413096e+00   6.709379664000000e+00  1.61912259e+00   5.72252670e-01   1.98254220e-01
C     4.972822731825000e+00   2.916652155249433e+00   6.770785568000000e+00 -1.63710774e+00  -2.60287961e+00   1.57384210e-01
C     4.925365541174999e+00   2.770546056857179e+00   1.017749825600000e+01 -2.60589633e+00   3.50527690e-01  -2.24273690e-01
C     6.124281690975000e+00   3.480355828682733e+00   1.022216092800000e+01  2.49365590e-01   8.75705320e-01  -2.70407980e-01
C     6.177205635375000e+00   2.145449246300560e+00   6.855701111999999e+00  1.12201910e-01   1.51032200e+00   2.28270690e-01
C     7.401955810950000e+00   2.881892981671704e+00   6.866709360000000e+00  5.16552070e-01  -2.06552070e-01  -1.32403400e-01
C     7.329259189499999e+00   2.752673758489856e+00   1.018164068000000e+01  1.60866131e+00   1.52445418e+00   5.53608020e-01
C     8.590640830349999e+00   3.483684313620311e+00   1.021194909600000e+01 -1.12165442e+00   9.54412090e-01  -3.01325120e-01
C     9.879672117375000e+00   4.318833289003233e+00   6.895886120000000e+00  4.02332750e-01  -3.11848790e-01  -7.06164030e-01
C     3.712350269249999e+00   5.010643189644893e+00   6.931076935999999e+00  4.51374700e-02   6.27611870e-01  -2.09323830e-01
C     3.623812707374999e+00   4.911993986889390e+00   1.017386964000000e+01  2.13042026e+00   4.71527960e-01   3.23601580e-01
C     4.884483282000000e+00   5.640415492694783e+00   1.023180822400000e+01  2.69466150e-01  -7.10871730e-01  -4.09067440e-01
C     4.944370099575000e+00   4.302629235765862e+00   6.826569503999999e+00  4.55040320e-01   6.42825500e-01   1.74007920e-01
C     6.187505132549999e+00   4.985559760969789e+00   6.818625063999999e+00 -5.18034900e-02   2.06816776e+00  -1.23874890e-01
C     6.131365324499999e+00   4.923060224258577e+00   1.025431758400000e+01 -1.78175330e-01   4.22467370e-01   1.86614080e-01
C     7.372687362300000e+00   5.666659757149591e+00   1.034081045600000e+01 -2.66848250e-01  -2.71206006e+00  -3.14952380e-01
C     7.420885642875000e+00   4.318200035986036e+00   6.827480432000000e+00  3.75850800e-02  -1.19001811e+00   1.02709590e-01
C     8.664875168100000e+00   5.026104989396291e+00   6.865060632000000e+00 -1.30291096e+00  -1.35024560e-01  -5.93245000e-02
C     8.623654661625000e+00   4.927155811202625e+00   1.030104473600000e+01 -2.18993001e+00  -7.55927110e-01  -2.68411340e-01
C     9.821747637000000e+00   5.624667422617043e+00   1.027451113600000e+01  4.27363500e-02   8.62816170e-01  -1.67573970e-01
