72
Lattice="7.395 0 0 3.6975 6.40425786098592 0 0 0 13.6 " PBC="1 1 1" Properties=species:S:1:pos:R:3:force:R:3 Energy="-582.73513193"
C     3.660496344375000e+00   6.221656009468701e+00   1.263604560000000e-01  1.22828053e+00   1.20922606e+00  -2.46737200e-02
C     1.244989920825000e+00   5.401440098308254e-01   1.170296320000000e-01 -1.89942247e+00  -7.06173600e-02   7.74357600e-02
C     1.311498258375000e+00   9.088532735608327e-01   3.375711080000000e+00  8.85428980e-01   1.11588600e-01   5.10898800e-02
C     2.555127573150000e+00   1.630313094902092e+00   3.354848816000000e+00  3.73174760e-01  -1.72110272e+00   6.01567300e-02
C     6.156403981050000e+00   6.224546827424126e+00   1.262713760000000e-01 -8.54287000e-02   1.04406354e+00  -2.67741370e-01
C     3.693234157275000e+00   5.398186735315375e-01   9.607080799999999e-02 -6.06382610e-01  -1.37575380e-01   4.62813920e-01
C     3.823155766050000e+00   9.244956093413040e-01   3.349334968000000e+00 -9.12155480e-01  -1.01627640e-01   1.66758120e-01
C     5.063051234400000e+00   1.638370804056386e+00   3.342352320000000e+00 -1.43422249e+00  -9.29180600e-02   3.90921290e-01
C     8.612073463050001e+00   6.256457194977990e+00   1.384700320000000e-01  2.03660180e-01  -1.79774625e+00  -1.60595290e-01
C     6.127478253674999e+00   5.418577892341614e-01   1.276467440000000e-01  1.25237110e+00   8.88760660e-01  -6.58653100e-02
C     6.256895708325000e+00   8.972409451239235e-01   3.370536416000000e+00  3.62117730e-01   1.46588594e+00   1.80916370e-01
C     7.481979361424999e+00   1.603258755870572e+00   3.391786008000000e+00  5.49465070e-01   2.14034313e+00  -2.69200490e-01
C     1.215284131875000e+00   1.969700912318139e+00   1.151764960000000e-01 -1.19225080e-01  -2.72783610e-01  -3.02102120e-01
C     2.431201312725000e+00   2.677924477556929e+00   1.066741840000000e-01  1.47009618e+00  -8.60854740e-01   2.84543810e-01
C     2.552316068100000e+00   3.007190365425246e+00   3.345793392000000e+00  9.55628120e-01   1.93768068e+00   6.87314600e-02
C     3.782353520775000e+00   3.736989939436954e+00   3.324638184000000e+00  3.55481940e-01   1.03059021e+00   5.93758570e-01
C     3.679588755375000e+00   1.940527596488481e+00   1.336083040000000e-01  5.45149450e-01   1.50254824e+00  -6.91627890e-01
C     4.943460070875000e+00   2.677432374382966e+00   8.824999200000000e-02 -1.87801299e+00   5.75161020e-01   3.60089300e-01
C     5.037746616674999e+00   3.067246741805446e+00   3.386366272000000e+00 -6.69513410e-01  -8.78740500e-01  -6.02854380e-01
C     6.240010002300000e+00   3.784156594107490e+00   3.381643808000000e+00  1.66905190e+00  -1.77002520e-01  -4.67989000e-02
C     6.163949210474999e+00   1.988859121621172e+00   1.010573840000000e-01 -7.31023770e-01  -1.18438277e+00  -1.80932720e-01
C     7.376386932900000e+00   2.692750910886036e+00   7.855400799999999e-02  8.31055930e-01  -7.61396430e-01   1.03590370e-01
C     7.512541195575000e+00   3.095679085000703e+00   3.367522656000000e+00 -1.34607163e+00  -2.29899478e+00   3.66437000e-01
C     8.756143481624999e+00   3.764354820932105e+00   3.381673728000000e+00 -1.26617608e+00  -6.69478190e-01  -3.04713620e-01
C     2.476251763650000e+00   4.081140219168012e+00   1.368610160000000e-01 -1.22951285e+00   8.25466370e-01  -1.02575410e-01
C     3.683088734925000e+00   4.817367874878960e+00   1.299663600000000e-01 -4.99368690e-01  -1.03558960e-01  -5.40843800e-02
C     3.791824408200000e+00   5.190325274975240e+00   3.360060880000000e+00 -2.34964170e-01  -6.49793960e-01   7.08632700e-02
C     5.040098004824999e+00   5.893389249869122e+00   3.365423224000000e+00 -1.88677513e+00   3.16763860e-01   4.96684900e-02
C     4.895016904875000e+00   4.130463059374852e+00   1.089973360000000e-01  1.31867267e+00  -1.46959161e+00  -9.59557600e-02
C     6.121341549899999e+00   4.834399294189265e+00   1.146867600000000e-01  1.54188339e+00  -1.60040357e+00  -3.06682160e-01
C     6.235249951725000e+00   5.194651287117092e+00   3.364897176000000e+00  1.31503542e+00  -3.35363400e-02   2.41600140e-01
C     7.476052010100000e+00   5.897855643343264e+00   3.390936416000000e+00  1.03181635e+00  -2.71461370e-01  -4.48519800e-01
C     7.391816933175000e+00   4.087239442226140e+00   7.272736000000000e-02 -6.29834640e-01   1.65857320e+00   5.39118860e-01
C     8.638206357749999e+00   4.796148199013372e+00   1.526129440000000e-01 -7.06803070e-01   7.21314900e-01  -5.67576900e-01
C     8.722173365924998e+00   5.158710592006772e+00   3.365999456000000e+00  1.29216170e-01   2.14467886e+00   4.58914570e-01
C     9.948232974149999e+00   5.920357899930474e+00   3.396132024000000e+00  9.21868400e-02  -2.43620713e+00  -4.45419600e-01
C     7.415140208550000e+00   1.329636646674336e-01   6.706460968000000e+00 -1.66814820e-01   1.86712920e-01  -2.35124200e-02
C     1.255897176075000e+00   8.238526330288254e-01   6.722762744000000e+00 -3.14195230e-01   1.30930746e+00   6.81409400e-02
C     1.124180024325000e+00   5.362826265967171e-01   1.018809564800000e+01 -2.74217700e-02   9.14848630e-01  -1.88709700e-01
C     2.329050110475000e+00   1.246183979309670e+00   1.015311794400000e+01  2.03826263e+00   9.06328330e-01  -7.03493600e-02
C     2.476178220375000e+00   1.540379638795998e-01   6.774876584000000e+00  6.72004490e-01  -2.19381175e+00  -1.95715110e-01
C     3.694873259025000e+00   8.627511986743651e-01   6.783107712000001e+00  9.05485510e-01  -1.09802398e+00  -6.63820000e-04
C     3.614100742950000e+00   5.411416010776776e-01   1.010118784000000e+01 -1.52642203e+00   4.17180270e-01   7.57286150e-01
C     4.836119427374999e+00   1.273313696456202e+00   1.017383822400000e+01 -4.15888610e-01  -6.28221450e-01  -4.82916160e-01
C     4.934477549249999e+00   1.213277685615996e-01   6.771850991999999e+00  8.43053300e-02   6.11283130e-01  -3.93516360e-01
C     6.179654563575000e+00   8.451510172235130e-01   6.705683727999999e+00 -4.79089350e-01  -8.25191630e-01   5.19570650e-01
C     6.048121029674999e+00   5.529445842710791e-01   1.016879792800000e+01  2.70374570e-01  -1.05068224e+00   2.39298500e-01
C     7.281526165350000e+00   1.247155313099296e+00   1.019297437600000e+01 -1.58767700e-02   3.11967540e-01   6.67685700e-02
C     8.659992952125000e+00   2.257293589823072e+00   6.714382968000000e+00 -1.30471440e-01   2.20697470e-01   3.07421470e-01
C     2.504357570400000e+00   3.000172835832573e+00   6.759019528000000e+00 -1.01520416e+00  -7.15454340e-01  -3.45724700e-01
C     2.349749861700000e+00   2.706327809464079e+00   1.016746390400000e+01  9.90010650e-01  -2.23592609e+00  -3.02405300e-02
C     3.589930000574999e+00   3.378640075136126e+00   1.018644256800000e+01  1.48524610e-01   1.24290810e+00  -1.74606950e-01
C     3.711003306975000e+00   2.261219399891252e+00   6.775030536000000e+00  4.07437470e-01   1.37866067e+00   1.50785000e-02
C     4.941647889150000e+00   2.994840522653179e+00   6.776573320000000e+00  5.98304580e-01  -1.79471320e+00  -3.65667300e-02
C     4.823722116600000e+00   2.686749865100902e+00   1.017309797600000e+01 -1.99479160e-01  -1.43620800e-01   2.52136510e-01
C     6.035438087024999e+00   3.401336508821651e+00   1.018829638400000e+01  1.33148118e+00  -6.56233840e-01   3.39297800e-02
C     6.187055553525000e+00   2.254473538916999e+00   6.757151160000000e+00 -8.57284450e-01   5.21385920e-01  -2.37769010e-01
C     7.409030311650000e+00   2.944231259170001e+00   6.734151927999999e+00  9.17370080e-01   1.28102398e+00   9.67600400e-02
C     7.287666936375000e+00   2.665231494648723e+00   1.020201266400000e+01  1.41980670e-01   8.64420800e-01  -3.74873320e-01
C     8.554079284800000e+00   3.394928472449514e+00   1.015372912800000e+01 -2.79332252e+00  -2.26638500e-01   3.38959230e-01
C     9.885358761450000e+00   4.423626736749621e+00   6.722570984000000e+00  7.17609700e-02  -4.67289420e-01   2.37452840e-01
C     3.722319875475000e+00   5.133011457981008e+00   6.721896560000000e+00  3.32634290e-01  -9.97495510e-01   1.40536420e-01
C     3.591462947099999e+00   4.815751119982203e+00   1.018981496000000e+01  6.36788510e-01  -1.40954340e-01  -5.32706300e-02
C     4.859113033650000e+00   5.552921674577878e+00   1.018059851200000e+01 -2.09239595e+00  -1.89212777e+00   1.00770590e-01
C     4.968454579275000e+00   4.382392089964489e+00   6.764938520000000e+00 -5.73676860e-01   1.58242310e+00  -1.47231880e-01
C     6.214371426374999e+00   5.085788637969039e+00   6.764772056000000e+00 -1.33769905e+00   1.74773618e+00   1.54706790e-01
C     6.050607709349999e+00   4.815697196131021e+00   1.017446504800000e+01  8.56948150e-01   4.81149880e-01  -1.15272670e-01
C     7.298657533275000e+00   5.521262033719232e+00   1.013693775200000e+01 -5.91431090e-01   2.06805090e-01  -5.50941900e-02
C     7.425749667149999e+00   4.401689207620505e+00   6.766056576000000e+00 -3.78111910e-01  -1.82420467e+00  -1.54524370e-01
C     8.631480531299999e+00   5.099473448292023e+00   6.745703359999999e+00  1.13775068e+00   1.07185893e+00   7.39360100e-02
C     8.507446858500000e+00   4.803323529519715e+00   1.014242929600000e+01  9.89366300e-01   1.76602610e-01   1.46952780e-01
C     9.742766596650000e+00   5.499662713447703e+00   1.017303133600000e+01  2.95563300e-01   1.44149549e+00  -1.40992540e-01
