72
Lattice="7.395 0 0 3.6975 6.40425786098592 0 0 0 13.6 " PBC="1 1 1" Properties=species:S:1:pos:R:3:force:R:3 Energy="-581.62727444"
C     3.720040107900000e+00   6.346091059901394e+00   1.340569965600000e+01 -1.82213644e+00  -9.47621900e-02   3.46704580e-01
C     1.193201071950000e+00   6.703951510816560e-01   1.344652236800000e+01  1.49676729e+00   3.18819020e-01  -3.23658270e-01
C     1.273481044050000e+00   7.900512802566385e-01   3.607898848000000e+00  2.61292510e-01   3.93777000e-01  -4.96999720e-01
C     2.517583232100000e+00   1.504760437430250e+00   3.599414760000000e+00 -7.27125310e-01   7.63215360e-01  -2.45029420e-01
C     6.093637809300000e+00   6.369595326673379e+00   1.341038635200000e+01  3.19177852e+00  -1.41050163e+00   1.11823820e-01
C     3.688480022700000e+00   6.828556594295436e-01   1.345648382400000e+01 -7.85040000e-03  -1.34914132e+00  -3.90502480e-01
C     3.726380617874999e+00   7.874995037123215e-01   3.531532672000000e+00  2.07821880e-01   2.44030950e-01  -6.35317900e-02
C     4.934385592425000e+00   1.507204622442519e+00   3.484587104000000e+00  2.01963831e+00   2.22314080e-01   3.76421560e-01
C     8.655780538275000e+00   6.322144066783546e+00   1.343677076000000e+01 -1.54249723e+00   1.30189483e+00   8.23032800e-02
C     6.196853743649999e+00   6.748354792263085e-01   1.339712336000000e+01 -1.86430237e+00  -1.45916823e+00  -1.28962030e-01
C     6.211307086275000e+00   8.227779985599174e-01   3.515583952000000e+00 -2.61878760e-01  -1.55500287e+00  -8.11416600e-02
C     7.460858390999999e+00   1.538512029118865e+00   3.583351528000000e+00 -1.51919183e+00  -2.29077133e+00  -1.92810620e-01
C     1.214694639450000e+00   2.100925500763690e+00   1.344148220800000e+01  4.24206740e-01  -1.23320808e+00   1.10956130e-01
C     2.443000109175000e+00   2.783897909814022e+00   1.353908750400000e+01  3.20239250e-01   8.84092760e-01  -6.38324190e-01
C     2.524476925050000e+00   2.960061175663192e+00   3.573968616000000e+00 -1.11775889e+00  -1.12171013e+00  -1.36259980e-01
C     3.774791504700000e+00   3.656365392343264e+00   3.500362696000000e+00 -1.59391059e+00  -1.02630993e+00   1.98809390e-01
C     3.694030155075000e+00   2.119904839144693e+00   1.345055612800000e+01 -7.41903120e-01  -2.09187403e+00   4.73158050e-01
C     4.912355332800000e+00   2.792234780568434e+00   1.335074668000000e+01  5.47907850e-01  -9.74539600e-02  -1.59456850e-01
C     4.968827435174999e+00   2.935750420698896e+00   3.508579000000000e+00  6.42143660e-01  -2.19322070e-01  -8.58140500e-02
C     6.215891764425000e+00   3.657565358138492e+00   3.541818080000000e+00 -1.27981429e+00  -1.41182405e+00  -1.18398410e-01
C     6.135064229549999e+00   2.080303534284175e+00   1.327442225600000e+01  1.28679226e+00  -1.26171570e-01   7.01524430e-01
C     7.406582751524999e+00   2.781361055190518e+00   1.327981846400000e+01 -1.89387786e+00  -1.53868000e-01   4.49060280e-01
C     7.406320007174999e+00   2.914217512581375e+00   3.590575440000000e+00  1.66360362e+00   1.79288753e+00  -1.65065730e-01
C     8.629705916175000e+00   3.637883920968297e+00   3.579163544000000e+00  1.75991658e+00   5.74663690e-01   1.20567400e-02
C     9.819946658699997e+00   4.209125982286025e+00   1.352187996800000e+01  1.79708823e+00  -2.56245870e-01  -2.53079920e-01
C     3.689772298949999e+00   4.931725185143156e+00   1.345104844800000e+01 -1.76185670e-01  -7.87304180e-01  -2.05588070e-01
C     3.752725194450000e+00   5.046259188881711e+00   3.492963072000000e+00 -6.77240350e-01   1.06940320e+00  -6.19301000e-03
C     4.943755575075000e+00   5.769269096795404e+00   3.511364552000000e+00  2.12578683e+00   3.18161330e-01   3.15031880e-01
C     4.925567942324999e+00   4.196212372694543e+00   1.332331643200000e+01 -1.04796147e+00   7.00531410e-01   6.26277660e-01
C     6.144608105624999e+00   4.878211270507575e+00   1.329794522400000e+01 -7.42314000e-02   2.65023216e+00   3.36190240e-01
C     6.214124877074999e+00   5.048476791250893e+00   3.530815679999999e+00 -5.88427630e-01   1.57484936e+00  -7.74237300e-02
C     7.448909660924999e+00   5.778696804791110e+00   3.530749720000000e+00 -1.33433564e+00   9.53728700e-02   1.27567770e-01
C     7.372063187324999e+00   4.173259512524302e+00   1.328880180800000e+01  6.48817790e-01   1.45438834e+00   6.93520640e-01
C     8.607046231125000e+00   4.881381121977961e+00   1.345509336000000e+01 -5.22846240e-01   1.69372700e+00  -3.85672210e-01
C     8.651281679099998e+00   5.084266794173767e+00   3.552530800000000e+00  1.28471738e+00  -1.43197386e+00  -3.14552180e-01
C     9.919457032500000e+00   5.751152668118458e+00   3.505747207999999e+00 -8.91301880e-01   1.91304556e+00   1.32002000e-01
C     7.404253474424999e+00   5.606908543656421e-02   6.643493920000000e+00  8.99487620e-01  -4.34126400e-01   1.08098303e+00
C     1.250102084325000e+00   7.836784673027311e-01   6.811441544000000e+00  5.95250640e-01  -1.43166465e+00   1.16877970e-01
C     1.177852416675000e+00   6.503033931103711e-01   1.023434394400000e+01  2.75387650e-01  -1.35767655e+00  -3.29462780e-01
C     2.446721827800000e+00   1.335786143156665e+00   1.018772980800000e+01 -2.32501922e+00   5.58795170e-01   4.66766340e-01
C     2.514772762350000e+00   2.887257188055240e-02   6.942700040000000e+00 -1.89041720e+00   1.53698470e+00  -3.31636800e-01
C     3.729716835150000e+00   7.385388883300429e-01   7.018811896000000e+00  3.26823410e-01   1.32853362e+00  -6.23454130e-01
C     3.630187123425000e+00   6.265804849750447e-01   1.008301116800000e+01  1.61960936e+00   7.66125300e-02   1.51282100e-01
C     4.885734774825000e+00   1.324648050014289e+00   1.013878082400000e+01 -1.04402308e+00   9.56700840e-01   4.86214010e-01
C     4.969598474850000e+00   4.055009566247640e-02   6.857233424000000e+00 -5.70770010e-01   7.60825230e-01   9.29966900e-02
C     6.181089193575000e+00   7.523154076255819e-01   6.728317528000000e+00  2.71191660e-01   1.12632318e+00   3.38992590e-01
C     6.094375608449999e+00   6.358911871796484e-01   1.015830484800000e+01  1.37424712e+00  -6.68874300e-02  -1.52459000e-02
C     7.337863863599999e+00   1.354432396086370e+00   1.024774171200000e+01 -4.69922400e-02  -8.07768720e-01  -2.04403320e-01
C     1.266034759725000e+00   2.191513664150811e+00   6.868669936000001e+00 -1.19372878e+00   3.45431850e-01  -1.30406430e-01
C     2.480592184950000e+00   2.897500798502310e+00   6.956624536000000e+00  6.68009410e-01   3.83022100e-01  -3.19479380e-01
C     2.416028325675000e+00   2.759607200176827e+00   1.029192566400000e+01 -2.86366000e-03   4.24875480e-01  -5.14074170e-01
C     3.640649014799999e+00   3.497599357013362e+00   1.031085006400000e+01  2.82522570e-01  -1.92298732e+00  -2.66445060e-01
C     3.719283044775000e+00   2.207017988174400e+00   7.037768120000000e+00  2.70810070e-01  -1.51792111e+00  -5.88163550e-01
C     4.964733341324999e+00   2.902506302403108e+00   6.955950248000000e+00 -7.97986000e-01   4.44997490e-01  -4.46576810e-01
C     4.894615689150000e+00   2.746655293123342e+00   1.029372100000000e+01 -7.27156790e-01   6.53119350e-01  -7.20262230e-01
C     6.130117455224999e+00   3.446931750741079e+00   1.023495744000000e+01 -1.26088955e+00   1.85960073e+00  -8.11115600e-02
C     6.183578609400000e+00   2.193974500233516e+00   6.817209168000000e+00  6.40527900e-02  -2.91352930e-01   2.54340110e-01
C     7.404024266400000e+00   2.929380041362975e+00   6.815242336000001e+00  9.05563300e-01  -1.58609942e+00   1.63548740e-01
C     7.333402349175000e+00   2.756416855081290e+00   1.024724844000000e+01  9.97621030e-01   3.82252660e-01  -3.10184760e-01
C     8.564759143800000e+00   3.475193036208894e+00   1.022740536000000e+01  1.06809760e+00   1.98617050e-01  -1.77834210e-01
C     2.495947236900000e+00   4.322359025082899e+00   6.803850975999999e+00 -7.92929510e-01  -7.15749770e-01   3.31765790e-01
C     3.703198143300000e+00   5.006699447654706e+00   6.731227520000000e+00  7.68239810e-01   1.94318716e+00   2.68706390e-01
C     3.615291670725000e+00   4.888856556007624e+00   1.026376822400000e+01  1.08954922e+00   9.33520400e-01  -2.60179750e-01
C     4.849645473974999e+00   5.591864877900702e+00   1.022784504800000e+01  1.25401456e+00   1.38002950e+00  -1.88085380e-01
C     4.935334296975000e+00   4.344520511109379e+00   6.867126607999999e+00  3.17144560e-01  -1.51210900e+00   7.34229700e-02
C     6.158225776275000e+00   5.033240933716796e+00   6.908967551999999e+00  1.49259693e+00  -2.34869220e-01  -3.59155510e-01
C     6.116524520850000e+00   4.912611677559987e+00   1.015983716000000e+01 -4.90177880e-01  -1.09600226e+00   7.85120900e-02
C     7.342595517375000e+00   5.629698799719595e+00   1.002836854400000e+01  3.97685130e-01  -1.27603403e+00   7.65131530e-01
C     7.416509023049999e+00   4.321728461854004e+00   6.870715240000000e+00 -7.71385400e-02   1.18029136e+00   1.03308890e-01
C     8.675021182049999e+00   5.048339548004954e+00   6.828963783999999e+00 -1.26152323e+00  -1.27475943e+00   7.20349000e-03
C     8.617338407249999e+00   4.907321632482470e+00   1.009369927200000e+01 -2.56676068e+00  -4.33093240e-01   2.43023120e-01
C     9.809793471599999e+00   5.624589931096938e+00   1.013795503200000e+01  1.87397670e-01  -3.30287340e-01   2.74532120e-01
