72
Lattice="7.395 0 0 3.6975 6.40425786098592 0 0 0 13.6 " PBC="1 1 1" Properties=species:S:1:pos:R:3:force:R:3 Energy="-579.62434464"
C     3.667929983250000e+00   6.335054858501570e+00   1.351659691200000e+01 -9.23108350e-01  -8.48118410e-01  -2.68540190e-01
C     1.211444315100000e+00   5.605299794081988e-01   1.349650780800000e+01 -5.52461620e-01   3.36436887e+00   2.56529660e-01
C     1.245572055225000e+00   8.310291163015843e-01   3.553489872000000e+00  1.96379361e+00  -5.56440600e-01   2.87984040e-01
C     2.529787422450000e+00   1.477408108280504e+00   3.603770976000000e+00  1.05238240e-01   1.23626133e+00   8.70745200e-02
C     6.130804746525000e+00   6.322526272892630e+00   1.345240287200000e+01  1.08794390e+00  -1.45503502e+00  -2.55801440e-01
C     3.678258875550000e+00   6.362395788072325e-01   1.349796056000000e+01 -4.71668340e-01  -1.50203220e+00   1.82146220e-01
C     3.805726786350000e+00   8.452456081121053e-01   3.565848464000000e+00 -2.53497586e+00  -2.05536699e+00  -3.09334330e-01
C     4.982982759300000e+00   1.553516180603587e+00   3.480597136000000e+00  1.44008339e+00   2.30564610e-01   9.00497700e-02
C     8.588329892850000e+00   6.296496487033553e+00   1.343548324800000e+01  1.05099395e+00   2.12689296e+00   2.51175950e-01
C     6.104460317849999e+00   6.331733482290216e-01   1.340585469600000e+01  1.10425478e+00  -1.37549840e-01   4.53371470e-01
C     6.221304275850000e+00   8.324876860291993e-01   3.443375704000000e+00  5.52672610e-01  -4.58224770e-01   2.90489890e-01
C     7.472530178325000e+00   1.593455630279113e+00   3.562262416000000e+00 -2.24040455e+00  -3.97719083e+00  -6.03319210e-01
C     1.205449373475000e+00   2.029625553114159e+00   1.353671974400000e+01  7.37679670e-01  -1.81142980e-01  -1.99515350e-01
C     2.460797581725000e+00   2.705124001114135e+00   1.786360000000000e-02 -1.21182509e+00   2.46551007e+00   1.40345270e-01
C     2.551237026675000e+00   2.897025538526520e+00   3.632180832000000e+00 -2.10782928e+00   2.09530411e+00  -6.96624160e-01
C     3.717890973000000e+00   3.684083148446501e+00   3.448733424000000e+00  1.61133059e+00  -1.90804522e+00   8.09638980e-01
C     3.702495211575000e+00   2.032585601097051e+00   3.510418400000000e-02 -6.97914340e-01   1.91538870e-01  -1.65162274e+00
C     4.885822849275000e+00   2.736475405041979e+00   1.333517957600000e+01  7.68058420e-01   1.90523099e+00   1.24523266e+00
C     4.949017931025000e+00   2.966814017278512e+00   3.465825360000000e+00  2.27313134e+00   1.51086352e+00  -3.23632040e-01
C     6.271273326150000e+00   3.705055043575486e+00   3.467827824000000e+00 -3.38442487e+00  -1.43615063e+00   3.87214440e-01
C     6.107924616525000e+00   2.046967386802939e+00   1.330693509600000e+01  2.00213002e+00   8.36804540e-01   4.51044900e-01
C     7.414574121299999e+00   2.805478017311970e+00   1.338666264800000e+01 -1.81781233e+00  -1.15368929e+00  -4.13032380e-01
C     7.454361439800000e+00   2.944255723435026e+00   3.601718056000000e+00  1.14076120e+00   3.59169990e+00  -1.07266630e-01
C     8.696516450399999e+00   3.666249980094702e+00   3.655217056000000e+00 -4.73897000e-03  -3.15829830e-01  -1.23075742e+00
C     9.816006306900000e+00   4.193877828576836e+00   7.076352000000000e-03  3.15523555e+00  -1.88874686e+00  -7.73890500e-02
C     3.690739454025000e+00   4.926603379919621e+00   1.358374188000000e+01 -5.76248150e-01  -1.42638187e+00  -8.31934610e-01
C     3.734368105275000e+00   5.088639173142525e+00   3.437602776000000e+00 -3.41814350e-01  -3.53452490e-01  -2.94183800e-02
C     4.929041078025000e+00   5.813902291099103e+00   3.505648608000000e+00  1.80775766e+00  -2.99253430e-01  -2.92478510e-01
C     4.929429648299999e+00   4.203387895328622e+00   1.336531812800000e+01 -1.51523985e+00  -1.47520238e+00   4.82948280e-01
C     6.154087201499999e+00   4.867927377278567e+00   1.328476600800000e+01  7.41610700e-02   2.60400360e+00   6.99872260e-01
C     6.211888887899999e+00   5.105904604035035e+00   3.501909015999999e+00  2.98847310e-01   9.18916200e-01   2.22366460e-01
C     7.480801744650000e+00   5.813146396543887e+00   3.545721416000000e+00 -2.08142663e+00   1.15316069e+00  -5.48206920e-01
C     7.408207396050000e+00   4.249732179247355e+00   1.330635709600000e+01  3.09030800e-01  -3.20210902e+00   9.41219780e-01
C     8.653929126074999e+00   4.908496493586886e+00   1.349269300800000e+01 -2.43840883e+00  -1.88474250e-01  -6.54594040e-01
C     8.660519513099999e+00   5.125707337849098e+00   3.443836200000000e+00  1.40973838e+00  -3.57153069e+00   1.21956506e+00
C     9.904964940074999e+00   5.751520720817672e+00   3.405909472000000e+00  6.63798100e-02   4.16849261e+00   1.83996760e-01
C     7.418951480625000e+00   9.162142635025380e-02   6.687664408000000e+00 -2.24373830e-01  -6.59494990e-01   3.79737130e-01
C     1.255900947525000e+00   7.993044722256595e-01   6.835738351999999e+00  8.61446610e-01  -1.47828062e+00   3.99577930e-01
C     1.182141553650000e+00   6.266497150025113e-01   1.015278188800000e+01 -1.71417677e+00  -1.18765581e+00  -2.47425100e-01
C     2.416307449950000e+00   1.302167888116696e+00   1.021933335200000e+01 -1.70725115e+00   1.36180029e+00  -3.21363850e-01
C     2.501498515500000e+00   4.513439152382160e-02   7.000520439999999e+00 -1.25465884e+00   2.36177210e+00  -8.00082380e-01
C     3.680556132300000e+00   7.937175897963313e-01   7.070544255999999e+00  1.79056566e+00   1.18394946e+00  -7.00992500e-01
C     3.583733286375000e+00   6.206183770776991e-01   1.003794906400000e+01  4.17764650e+00  -7.38825080e-01   7.52988960e-01
C     4.900342377149999e+00   1.328699319493946e+00   1.011969240800000e+01 -3.05008471e+00  -2.77552690e-01  -6.89593620e-01
C     4.925267816249999e+00   9.384786659528281e-02   6.834736575999999e+00 -8.98497280e-01   4.53605900e-02   1.90485970e-01
C     6.147895626825000e+00   7.623474213929574e-01   6.686468424000000e+00  1.57955099e+00   1.79162700e+00   1.28233731e+00
C     6.086294722200000e+00   5.789283875587212e-01   1.003132355200000e+01  8.13003800e-01   7.81685630e-01   7.16281550e-01
C     7.301779887150000e+00   1.345314782256245e+00   1.012473270400000e+01  1.39655958e+00  -2.36687401e+00   2.52207590e-01
C     1.311980227500000e+00   2.195604127688572e+00   6.887422568000000e+00 -2.09704553e+00   3.69495390e-01   4.84571510e-01
C     2.479232281425000e+00   2.944798868544133e+00   7.050907623999999e+00  1.47891132e+00   1.43016211e+00  -1.10038934e+00
C     2.396123241150000e+00   2.717993805581855e+00   1.028937022400000e+01 -3.44470340e-01   2.23521030e+00  -5.76314110e-01
C     3.630221177400000e+00   3.506347957505594e+00   1.029844278400000e+01 -5.17861910e-01  -3.80961531e+00  -6.36711010e-01
C     3.723749661750000e+00   2.270699046418203e+00   7.118166424000000e+00 -9.50062360e-01  -2.75722332e+00  -7.38377320e-01
C     4.960481142374999e+00   2.898540401680724e+00   6.984371663999999e+00  1.03219945e+00   2.46953253e+00  -4.05414240e-01
C     4.850829709275000e+00   2.768840090648432e+00   1.017758012800000e+01  1.16805942e+00  -9.25136540e-01   5.17674120e-01
C     6.108019827150000e+00   3.434584917970206e+00   1.014944390400000e+01 -1.37233863e+00   2.14111535e+00  -1.88469980e-01
C     6.193509835575000e+00   2.210739886672317e+00   6.878545576000000e+00 -6.33977290e-01  -2.27101478e+00  -5.06881010e-01
C     7.430041466324999e+00   2.867594003019946e+00   6.895712992000000e+00  6.21933950e-01   9.87695320e-01  -2.45229400e-01
C     7.309463107275000e+00   2.739861720428033e+00   1.018619749600000e+01 -1.39914560e-01  -2.42237640e-01  -7.06337940e-01
C     8.521079319149999e+00   3.437418802073256e+00   1.013979960000000e+01  2.50002296e+00   2.62265700e-02   6.43902580e-01
C     9.921579841200000e+00   4.392768973017626e+00   6.830960808000000e+00 -2.27146132e+00  -1.41988559e+00   6.98953460e-01
C     3.746957723025000e+00   5.049566411683194e+00   6.777387279999999e+00  1.17779635e+00   1.19046663e+00  -7.03310500e-02
C     3.663940121925000e+00   4.867197355925104e+00   1.022099472800000e+01 -1.55399755e+00   1.52879947e+00  -7.14241080e-01
C     4.875353636849999e+00   5.563981955987255e+00   1.011051091200000e+01  3.22118290e-01   2.43123786e+00   4.15057090e-01
C     5.011707601499999e+00   4.353855805664165e+00   6.857758519999999e+00 -2.13759811e+00  -8.62780120e-01   4.21768600e-01
C     6.212167013849999e+00   5.074176373574709e+00   6.897010432000000e+00  5.66656090e-01  -2.85801283e+00   1.86583880e-01
C     6.110321225100000e+00   4.900459214015165e+00   1.007033624000000e+01 -3.32721050e-01  -2.04541940e+00   1.44074470e-01
C     7.311141994125000e+00   5.605011154180238e+00   9.962528224000000e+00  1.33059342e+00  -1.18095180e-01   5.42394700e-01
C     7.418892579450000e+00   4.273622238512828e+00   6.929727000000001e+00  1.12095460e+00   3.18818783e+00  -4.83896030e-01
C     8.643820124099999e+00   5.098064255392509e+00   6.821545120000001e+00  1.18871710e-01  -2.73532099e+00   3.77347420e-01
C     8.571776111399998e+00   4.856495905083623e+00   1.000695085600000e+01 -9.45651120e-01   3.47938130e-01   4.85647350e-01
C     9.803965250249998e+00   5.546702243599717e+00   1.007214558400000e+01  4.52200400e-02   9.19774770e-01   7.17860500e-02
