72
Lattice="7.395 0 0 3.6975 6.40425786098592 0 0 0 13.6 " PBC="1 1 1" Properties=species:S:1:pos:R:3:force:R:3 Energy="-582.59139012"
C     3.686958279600000e+00   6.273899447430015e+00   1.350522377600000e+01  2.58987880e-01   1.35240629e+00   4.06977260e-01
C     1.215100292175000e+00   6.386379093332238e-01   1.354843002400000e+01 -9.85414200e-02  -1.08295292e+00  -2.58687940e-01
C     1.330453344225000e+00   8.318108200159759e-01   3.527626752000000e+00 -1.29457066e+00   9.36957510e-01  -2.08071070e-01
C     2.515429179525000e+00   1.612114947894852e+00   3.582756528000000e+00  4.32958640e-01  -1.60973117e+00  -2.20362050e-01
C     6.133937009700000e+00   6.303389902108901e+00   1.348537090400000e+01  3.08399860e-01   3.83417800e-02   2.56466460e-01
C     3.668906751825000e+00   6.087982945158115e-01   1.349015579200000e+01  3.36529410e-01   5.16958110e-01   1.79408140e-01
C     3.725462491650000e+00   8.459908075566949e-01   3.536515440000000e+00  1.01649362e+00  -9.81787200e-02  -3.00510250e-01
C     4.988359331024999e+00   1.541992166882568e+00   3.455560216000000e+00 -8.77227500e-01  -1.49540000e-02   5.89939710e-01
C     8.618872573950000e+00   6.318912542309968e+00   1.346120329600000e+01 -6.00392880e-01  -1.08465950e+00   4.43817140e-01
C     6.167167884225000e+00   6.189194555525983e-01   1.349538893600000e+01 -6.98122980e-01  -1.34920461e+00  -1.65598710e-01
C     6.209344786050000e+00   8.495713000410636e-01   3.431796664000000e+00  7.32268450e-01  -2.37202620e-01   7.37099400e-02
C     7.456458735749999e+00   1.520777358252953e+00   3.485075344000000e+00  4.50092620e-01   1.60674826e+00   1.06105260e-01
C     1.207224284400000e+00   2.074696990783217e+00   1.357569748000000e+01  5.35258260e-01  -2.11614291e+00  -2.00444760e-01
C     2.430061817175000e+00   2.778131900292349e+00   3.277192000000000e-03  7.15813160e-01  -1.14695684e+00  -1.58583390e-01
C     2.511092344800000e+00   3.031852393933163e+00   3.568968712000000e+00  1.32518130e+00  -1.55325182e+00  -4.02221190e-01
C     3.779207650800000e+00   3.673884623974765e+00   3.467465928000000e+00 -6.28483590e-01   1.64316435e+00   4.67577350e-01
C     3.657030344849999e+00   2.043323300038020e+00   1.357142381600000e+01  9.91834890e-01  -1.34027230e-01  -4.74648840e-01
C     4.927796943224999e+00   2.747150790553970e+00   1.349235205600000e+01 -1.01479111e+00  -6.83702980e-01   2.19529630e-01
C     5.006117055450000e+00   2.953182618466080e+00   3.507224032000000e+00 -1.09156435e+00   4.87101940e-01  -6.54617680e-01
C     6.201007145400000e+00   3.696138523442165e+00   3.482366360000000e+00  1.30655235e+00  -1.78813099e+00   1.77873350e-01
C     6.163724476424999e+00   2.024870391653109e+00   1.346726032800000e+01 -1.47561738e+00  -4.86313170e-01   1.59373590e-01
C     7.367055071475000e+00   2.698941330576091e+00   1.348252184000000e+01  3.01240580e-01   1.93670732e+00  -7.96060300e-02
C     7.441884263025000e+00   2.978809704590920e+00   3.518434512000000e+00  4.76889380e-01  -7.13199740e-01  -6.41008000e-02
C     8.688083784000000e+00   3.698535893329478e+00   3.544593024000000e+00 -9.42782840e-01   2.94850210e-01  -2.92035650e-01
C     2.456385798675000e+00   4.172697602939666e+00   1.356819776000000e+01 -1.31102037e+00   3.29317180e-01  -4.66932000e-03
C     3.679206581774999e+00   4.848163261139399e+00   1.355016511200000e+01  1.88340490e-01   1.46653473e+00  -3.46539870e-01
C     3.785250512025000e+00   5.129636157918473e+00   3.422658960000000e+00 -2.37193950e-01  -4.82988310e-01   1.68462440e-01
C     5.038839190950000e+00   5.821247782736787e+00   3.451544544000000e+00 -1.42463161e+00   1.46809260e-01   2.21664110e-01
C     4.901872291725000e+00   4.163470860555607e+00   1.348666916000000e+01  7.02361820e-01  -3.88060930e-01   2.11001520e-01
C     6.132136733925000e+00   4.873167661272511e+00   1.345233351200000e+01  2.06062660e-01  -2.80422170e-01  -2.34652040e-01
C     6.225042781125000e+00   5.081908554301980e+00   3.489359480000000e+00  4.41762950e-01   1.04427414e+00   8.49259000e-03
C     7.444060907324999e+00   5.794705528163753e+00   3.518330744000000e+00  6.94635880e-01   1.24316992e+00  -2.44531890e-01
C     7.348488851699999e+00   4.104794217488765e+00   1.341236501600000e+01  8.85326430e-01   2.62217817e+00   9.04397310e-01
C     8.597079434999999e+00   4.863037982572770e+00   1.350967464800000e+01 -1.59446720e-01   4.73912230e-01  -5.63469620e-01
C     8.705261888324999e+00   5.106479001922499e+00   3.477869112000000e+00 -6.83994150e-01   1.06755689e+00   2.01370340e-01
C     9.927723496275000e+00   5.855643450638381e+00   3.430489296000000e+00  2.85375010e-01  -1.96289430e+00   4.14002200e-02
C     7.436296120350000e+00   8.565630845171401e-02   6.848240696000000e+00 -5.02979000e-03  -2.37244340e-01   1.88500100e-01
C     1.257147448725000e+00   8.041255975426673e-01   6.919501840000001e+00  6.65986130e-01   2.37933440e-01  -2.37411620e-01
C     1.143940943325000e+00   5.880066152030071e-01   1.010586352000000e+01  1.16095616e+00   1.66633200e-02  -2.23503650e-01
C     2.376593526825000e+00   1.306358514247387e+00   1.015638996800000e+01  6.03007030e-01  -4.13139870e-01  -9.15050800e-02
C     2.508916883700000e+00   1.020364787802360e-01   6.900769199999999e+00 -6.09829830e-01  -5.71534760e-01   6.32174900e-02
C     3.758450477400000e+00   7.897566843950784e-01   6.905587271999999e+00 -1.83895850e-01  -3.32153430e-01   7.10575000e-02
C     3.627458997000000e+00   5.702840483844505e-01   1.011304758400000e+01 -5.41373390e-01   9.26373340e-01   2.57613160e-01
C     4.866514837050000e+00   1.300371878042437e+00   1.011204730400000e+01 -1.06802747e+00  -3.85819550e-01  -2.00543150e-01
C     4.999669613775000e+00   7.212020499623940e-02   6.882984480000000e+00 -1.64985530e-01   8.86204540e-01  -2.36437470e-01
C     6.236199839475000e+00   8.091987944490451e-01   6.859092951999999e+00 -1.33055167e+00   2.18876240e-01   1.97653100e-01
C     6.081335561250000e+00   6.289146448372789e-01   1.003369172000000e+01  8.75879160e-01  -1.43163386e+00   2.41335100e-01
C     7.340058071025000e+00   1.288636908067509e+00   1.004134498400000e+01 -1.25380717e+00   1.68407835e+00   3.96957040e-01
C     8.639749768200000e+00   2.231168892862510e+00   6.957272440000000e+00  4.15879650e-01   4.00092040e-01  -1.05201390e-01
C     2.510257893000000e+00   2.912241991159301e+00   6.994722759999999e+00 -8.44769990e-01   2.02338240e-01  -8.42021900e-01
C     2.381383638075000e+00   2.741965006794413e+00   1.018278335200000e+01  6.58642740e-01  -1.24223015e+00  -3.02053230e-01
C     3.625408252575000e+00   3.408081601284961e+00   1.015774221600000e+01 -1.36909890e-01   1.40573259e+00  -1.73261320e-01
C     3.742916059725000e+00   2.204961709060711e+00   6.943903368000001e+00 -9.12664800e-02   2.26202160e-01   9.06378900e-02
C     4.961505312900000e+00   2.931894993424597e+00   6.932921504000000e+00 -1.68335010e-01   1.49958250e-01  -2.01979220e-01
C     4.857648453900000e+00   2.694566517989346e+00   1.011833104800000e+01 -3.24318030e-01   1.38719433e+00  -1.13068430e-01
C     6.067824304650000e+00   3.429018337038294e+00   1.003039848000000e+01  1.09093471e+00   1.33208060e-01   6.46836640e-01
C     6.202001624999999e+00   2.245042180494313e+00   6.904082976000001e+00  1.55373130e-01  -5.40404000e-03  -1.35436120e-01
C     7.414112451449999e+00   3.001807330523602e+00   6.915285568000000e+00  7.03776010e-01  -2.08085135e+00  -2.42116300e-02
C     7.332380360175000e+00   2.725956539592086e+00   1.006252480800000e+01 -3.70953200e-02   3.88891920e-01  -1.04988090e-01
C     8.580036733124999e+00   3.462468864564911e+00   1.010469813600000e+01 -1.47455050e+00  -6.21534150e-01   1.79098800e-01
C     9.879924619650000e+00   4.339048521066059e+00   6.886689256000000e+00  4.77666530e-01  -3.67195010e-01   3.77488580e-01
C     3.695094147675000e+00   5.063001519992216e+00   6.865607488000000e+00  9.08128990e-01   1.75213000e-01   5.35773000e-02
C     3.600551291175000e+00   4.850703830232461e+00   1.008490864000000e+01  5.24838730e-01   4.88368320e-01  -1.45724300e-02
C     4.847165523749999e+00   5.583250446610637e+00   1.006111802400000e+01 -4.80076700e-01  -1.02795824e+00   3.51390050e-01
C     4.928150609099999e+00   4.359088468591257e+00   6.913189264000000e+00  7.12881720e-01  -2.15650310e-01  -1.85639840e-01
C     6.167210294549999e+00   5.067056888196904e+00   6.895973976000000e+00  6.41283640e-01   1.15631957e+00  -7.20870000e-02
C     6.073866019650000e+00   4.868334559993305e+00   1.006393336000000e+01  2.27535590e-01  -6.94025160e-01  -7.77103600e-02
C     7.325792117699999e+00   5.556846203794486e+00   1.007887649600000e+01 -6.31172340e-01   4.23326420e-01   3.78140500e-02
C     7.434810649725000e+00   4.404430165942006e+00   6.892892216000000e+00 -1.27073541e+00  -7.70612890e-01   8.86398900e-02
C     8.673279252824999e+00   5.059699228469286e+00   6.881781151999999e+00 -1.27536990e-01   8.45288070e-01  -7.79361200e-02
C     8.567246378099998e+00   4.875278440620589e+00   1.008427406400000e+01 -7.60648400e-01  -1.01619330e-01  -6.38227100e-02
C     9.758517539924998e+00   5.608360965296490e+00   1.005118145600000e+01  1.58287883e+00  -8.69899010e-01   2.75909300e-01
