72
Lattice="7.395 0 0 3.6975 6.40425786098592 0 0 0 13.6 " PBC="1 1 1" Properties=species:S:1:pos:R:3:force:R:3 Energy="-581.84213599"
C     3.709145830875000e+00   6.347646077752380e+00   1.340037525600000e+01 -1.63860179e+00   8.46067480e-01  -2.31839570e-01
C     1.181244614100000e+00   6.830335697128945e-01   1.336901338400000e+01  1.92795543e+00  -2.28232540e-01   1.85437910e-01
C     1.271729205525000e+00   7.719342111539058e-01   3.495688104000000e+00 -4.09223300e-01   4.50659100e-02   8.94579900e-02
C     2.517251566350000e+00   1.477366736774729e+00   3.480352200000000e+00 -1.65322721e+00   1.40653401e+00  -6.17712500e-02
C     6.088606325250000e+00   6.375959109623704e+00   1.340126673600000e+01  3.05509878e+00  -8.99516810e-01   1.27480940e-01
C     3.675735442725000e+00   6.972236759810323e-01   1.339236635200000e+01  5.41220970e-01  -1.00092844e+00  -8.96675600e-02
C     3.706482299775000e+00   7.478331956345250e-01   3.518666120000000e+00  1.60663266e+00   2.25747774e+00   1.22300860e-01
C     4.925505898275000e+00   1.493922703981508e+00   3.576718944000000e+00  1.76557667e+00  -1.05726220e-01  -6.52317510e-01
C     8.667249517725001e+00   6.359062179728459e+00   1.340645867200000e+01 -2.59155420e+00   2.99509690e-01  -1.31526560e-01
C     6.186123635624999e+00   6.922599918840606e-01   1.341098556800000e+01 -1.05606658e+00  -1.06069151e+00   1.81119140e-01
C     6.213683617425000e+00   7.898008097317338e-01   3.569250912000000e+00 -1.68165296e+00  -1.36680520e-01  -1.39957310e-01
C     7.433491233824999e+00   1.494892564791826e+00   3.508980608000000e+00  2.93741370e-01  -1.24855340e-01   7.05898300e-02
C     1.236215864250000e+00   2.098840658659945e+00   1.334900057600000e+01 -1.24331032e+00  -2.94845720e-01   4.65061110e-01
C     2.437912903800000e+00   2.806463760681781e+00   1.332298744800000e+01  1.34436313e+00  -3.10709900e-02  -2.17889800e-02
C     2.499221964750000e+00   2.949251428821298e+00   3.482978360000000e+00  4.81824720e-01  -2.11814387e+00   3.59476030e-01
C     3.780901808325000e+00   3.628491948731450e+00   3.577374464000000e+00 -3.52174866e+00   3.05571930e-01  -7.36467470e-01
C     3.697952019375000e+00   2.128342833130714e+00   1.333058196000000e+01 -9.14676940e-01  -1.55989408e+00   8.17807510e-01
C     4.917284802825000e+00   2.818735407465378e+00   1.345996637600000e+01  3.21660070e-01  -1.09005025e+00  -4.04940630e-01
C     4.967039952750000e+00   2.942933500357251e+00   3.527581463999999e+00  6.32936000e-02  -2.59550262e+00   6.21931750e-01
C     6.182840995125000e+00   3.620950294675514e+00   3.549760888000000e+00  1.38106026e+00   6.50995280e-01  -2.60193120e-01
C     6.141309085199999e+00   2.109002935032193e+00   1.347371992000000e+01  1.15309794e+00  -3.69388360e-01  -3.16842000e-02
C     7.403865902474999e+00   2.806822335079363e+00   1.346490508000000e+01 -7.79826270e-01  -1.39094007e+00  -1.05196700e-01
C     7.417272039150000e+00   2.911458622337866e+00   3.505128136000000e+00 -7.69509730e-01  -6.55550020e-01  -5.34252300e-02
C     8.614173421200000e+00   3.605660193077342e+00   3.484579896000000e+00  2.48549727e+00   1.45830160e+00   3.63938680e-01
C     2.444863131525000e+00   4.212424623381976e+00   1.332594368000000e+01  4.31442440e-01   1.07713658e+00   2.03242930e-01
C     3.693910023300000e+00   4.949896626395121e+00   1.335125409600000e+01  1.22646500e-02  -1.58230252e+00   5.22998840e-01
C     3.733364049150000e+00   5.030417488554058e+00   3.578883792000000e+00 -3.72944740e-01   9.35073940e-01  -3.72120700e-02
C     4.925620224975000e+00   5.743307516282536e+00   3.557825960000000e+00  2.78502045e+00   6.65723550e-01  -2.32147470e-01
C     4.936717051050000e+00   4.202819837656440e+00   1.345161760800000e+01 -8.68763010e-01   2.00033853e+00  -2.31986190e-01
C     6.155372082750000e+00   4.910625076771814e+00   1.346876516800000e+01 -5.28368700e-02   1.20352050e+00   1.82272600e-01
C     6.215697201974999e+00   5.038671872467233e+00   3.551583015999999e+00 -1.57015814e+00   5.60065320e-01  -2.00052980e-01
C     7.438646732025000e+00   5.775210967237912e+00   3.518470552000000e+00 -5.89228190e-01  -2.25594690e+00   3.45566770e-01
C     7.400234661674999e+00   4.178172346813866e+00   1.350103130400000e+01 -7.07284730e-01   2.85317892e+00  -7.03654450e-01
C     8.605935945824999e+00   4.911112632922697e+00   1.336063456000000e+01  1.06008794e+00   1.15063470e+00   7.83480970e-01
C     8.648019966450001e+00   5.038214544413450e+00   3.560299392000000e+00  8.36561770e-01   7.76211710e-01  -5.25572310e-01
C     9.909887902500000e+00   5.771189029259254e+00   3.566798832000000e+00 -1.16046446e+00  -1.09899557e+00   9.47650600e-02
C     7.382910062400000e+00   4.007438738863561e-02   6.955997031999999e+00  2.26356194e+00  -6.44553330e-01  -4.15577510e-01
C     1.254275193750000e+00   7.697472211372944e-01   6.855407896000000e+00 -2.74824650e-01  -1.38470829e+00   1.08242660e-01
C     1.190642993550000e+00   6.617506838222280e-01   1.020196180000000e+01  9.62708740e-01  -6.82717820e-01   3.09419840e-01
C     2.452354525350000e+00   1.362073956564922e+00   1.020180254400000e+01 -1.51048584e+00   1.53836300e-01   1.58488000e-02
C     2.507104184325000e+00   3.586595742109380e-02   6.783734128000000e+00 -1.72114881e+00  -2.43596990e-01   3.11897110e-01
C     3.721772090850000e+00   7.427090848781605e-01   6.747315232000000e+00 -1.33788570e-01   4.32327110e-01   2.55420690e-01
C     3.662988237525000e+00   6.340794866736330e-01   1.030493406400000e+01 -6.78962110e-01   1.56078340e+00  -8.05289750e-01
C     4.877642167499999e+00   1.334186359543237e+00   1.022712329600000e+01  1.26406315e+00   1.34627716e+00   4.06677250e-01
C     4.941180451200000e+00   2.964390069721080e-02   6.840863647999999e+00  9.24559860e-01   5.55137180e-01   3.30126210e-01
C     6.184439905050000e+00   7.416765904259712e-01   6.944660752000000e+00 -1.22750304e+00   1.42967180e-01  -7.22382120e-01
C     6.110797389150000e+00   6.537488197964725e-01   1.027385602400000e+01  8.08469870e-01  -3.61572930e-01  -3.86569800e-01
C     7.360387924349999e+00   1.363071483769195e+00   1.022197039200000e+01 -1.02046486e+00  -3.25629940e-01  -2.40960000e-01
C     8.643212772749999e+00   2.172601442392181e+00   6.840337736000000e+00 -1.79103920e-01   9.05967860e-01  -4.09391230e-01
C     2.484375910650000e+00   2.892919704769895e+00   6.743012328000000e+00 -5.66163750e-01  -4.06440100e-01   8.90122980e-01
C     2.417166416175000e+00   2.803101845518174e+00   1.014610687200000e+01  4.35634640e-01  -1.45953690e+00   3.03534290e-01
C     3.637328881649999e+00   3.506651775498471e+00   1.014336919200000e+01  1.63774059e+00  -8.02206490e-01   2.42898430e-01
C     3.695154675750000e+00   2.173645464508518e+00   6.732760240000000e+00  1.76969384e+00   4.90781020e-01   2.17952680e-01
C     4.975393640549999e+00   2.908767809355408e+00   6.788340991999999e+00 -2.04131326e+00  -1.71658826e+00   1.12352670e-01
C     4.926542566349999e+00   2.766670392128042e+00   1.018735308800000e+01 -2.72618063e+00   3.40840480e-01  -1.22540960e-01
C     6.132028027424999e+00   3.474009721484102e+00   1.022309456800000e+01 -4.33235610e-01   1.12746262e+00  -2.42701570e-01
C     6.174912593775000e+00   2.154423789010093e+00   6.853057816000001e+00  6.00716590e-01   1.56879056e+00   1.79048270e-01
C     7.401003297974999e+00   2.908999835617676e+00   6.854012400000000e+00  5.18504170e-01  -1.44402775e+00   3.38726100e-02
C     7.328225553375000e+00   2.765327483297379e+00   1.018786730400000e+01  2.12054844e+00   6.13075600e-01   4.73858880e-01
C     8.586917632724999e+00   3.482971327592757e+00   1.021309748000000e+01 -6.52298060e-01   1.06854848e+00  -2.69146330e-01
C     9.873359856299999e+00   4.310557514868806e+00   6.882145904000000e+00  7.83377880e-01  -5.05240470e-01  -5.50693380e-01
C     3.714220353825000e+00   4.995088079856475e+00   6.904418079999999e+00 -8.13350850e-01   1.79391022e+00   3.67037000e-02
C     3.623297386800000e+00   4.909483453765691e+00   1.018083556000000e+01  1.82762905e+00   5.09589080e-01   3.12045070e-01
C     4.873196737200000e+00   5.627477610966011e+00   1.023394968000000e+01  6.85154560e-01  -1.38361630e-01  -3.94315100e-01
C     4.932649468275000e+00   4.317973453342949e+00   6.839500247999999e+00  9.73707330e-01  -7.68635470e-01  -4.79369600e-02
C     6.165299648400000e+00   4.998472025667120e+00   6.827672327999999e+00  1.07110851e+00   1.71002885e+00  -1.00711540e-01
C     6.131369872424999e+00   4.915280267767670e+00   1.024843408800000e+01 -5.69125250e-01   5.25058830e-01   1.60191980e-01
C     7.355996255700000e+00   5.666905680651415e+00   1.031868992000000e+01  4.90216820e-01  -3.13225313e+00  -3.18245000e-01
C     7.417030592400000e+00   4.318888685833722e+00   6.828587880000000e+00 -2.24236460e-01  -1.51619400e-01   9.28155000e-02
C     8.672072130000000e+00   5.028239016200400e+00   6.863251424000000e+00 -1.67959171e+00  -2.07438550e-01  -5.55897000e-02
C     8.628076612799999e+00   4.930813218823893e+00   1.028738680000000e+01 -2.70456360e+00  -8.22459440e-01  -2.47055290e-01
C     9.821665700400001e+00   5.631176838391105e+00   1.026129547200000e+01  8.53452200e-02   5.64978160e-01  -1.46270060e-01
