72
Lattice="7.395 0 0 3.6975 6.40425786098592 0 0 0 13.6 " PBC="1 1 1" Properties=species:S:1:pos:R:3:force:R:3 Energy="-581.77557107"
C     3.655362661424999e+00   6.224101795545434e+00   1.842027520000000e-01  1.50560930e+00   6.06484530e-01  -4.66856870e-01
C     1.251806114175000e+00   5.104370912362722e-01   1.984815280000000e-01 -2.00086306e+00   9.30345880e-01  -4.68166280e-01
C     1.322920982100000e+00   9.315306866005141e-01   3.409726312000000e+00  6.29458640e-01  -6.51042850e-01  -1.24329930e-01
C     2.567270274075000e+00   1.633209292434119e+00   3.524479440000000e+00  3.43663000e-03  -8.52499050e-01  -3.83131590e-01
C     6.166339496325000e+00   6.218788951309936e+00   6.936557600000000e-02 -4.60982540e-01   8.05534270e-01   4.86508180e-01
C     3.688982106225000e+00   5.170168257616362e-01   1.474559600000000e-01 -1.38430690e-01   6.73188900e-01  -6.99420670e-01
C     3.816257525175000e+00   9.205856177900382e-01   3.456681264000000e+00 -1.25049690e-01   6.47943790e-01  -4.23340010e-01
C     5.049108479550000e+00   1.636878227719535e+00   3.348082136000000e+00 -5.40735160e-01   1.91553920e-01  -2.34973310e-01
C     8.614647736499998e+00   6.248761838733414e+00   4.280300800000000e-02 -4.87941090e-01  -1.22596306e+00   3.21539640e-01
C     6.114641864775000e+00   5.214047670769938e-01   7.484637600000001e-02  2.04826937e+00   1.54900254e+00   8.26118000e-03
C     6.269618214225000e+00   9.077266365181015e-01   3.240150360000000e+00 -4.69363660e-01   1.69396224e+00   2.52332570e-01
C     7.492290912450000e+00   1.607227282338678e+00   3.339554936000000e+00  3.65030910e-01   2.21930483e+00   4.71814920e-01
C     1.241105438250000e+00   1.948417578129422e+00   2.326717920000000e-01 -1.06517373e+00   4.19108030e-01  -1.90042660e-01
C     2.458273705200000e+00   2.669003026145056e+00   3.538125680000000e-01  4.14911600e-02  -3.42294290e-01  -1.21553935e+00
C     2.558260908600000e+00   3.029991957024833e+00   3.503310904000000e+00  1.18807972e+00   1.12542561e+00  -5.13141680e-01
C     3.793086180075000e+00   3.754523900861535e+00   3.351360552000000e+00 -3.16085880e-01   7.13297880e-01  -3.25353560e-01
C     3.682744941375000e+00   1.918533709890198e+00   2.232652160000000e-01  4.42403030e-01   1.87582366e+00   1.74373950e-01
C     4.923264473774999e+00   2.656843325788853e+00   8.584442400000000e-02 -8.32861310e-01   9.60546820e-01  -1.79429930e-01
C     5.037126139200000e+00   3.071946890691479e+00   3.275087264000000e+00 -2.88950060e-01  -9.07937830e-01   9.65682030e-01
C     6.258971004149999e+00   3.775199727149651e+00   3.322136736000000e+00  1.14943709e+00   6.01900320e-01   3.79872290e-01
C     6.135539321325000e+00   1.956970528544031e+00   1.359084216800000e+01  1.01059569e+00   8.87713500e-02   7.07333160e-01
C     7.384545799424999e+00   2.693263699812886e+00   6.251838400000000e-02  4.87392320e-01  -1.12256539e+00   7.79514600e-02
C     7.516784483550000e+00   3.075352803106584e+00   3.457149784000000e+00 -1.36879993e+00  -1.30697784e+00  -9.32983980e-01
C     8.750303354325000e+00   3.770658660028861e+00   3.467871479999999e+00 -6.76515600e-01  -4.08692290e-01  -4.12054800e-02
C     2.447280778875000e+00   4.094737163073157e+00   2.773541840000000e-01  3.94138980e-01   3.25287330e-01  -5.87551870e-01
C     3.690342009750000e+00   4.819193408581953e+00   2.361143600000000e-01 -2.04441950e-01  -8.00420340e-01  -6.98955250e-01
C     3.775846623300000e+00   5.195050208339191e+00   3.212232008000000e+00  7.96351700e-01  -1.11894620e-01   6.77180220e-01
C     5.024763991650000e+00   5.917085580334328e+00   3.305271240000000e+00 -2.65856360e-01  -5.79461650e-01   1.04031920e-01
C     4.929708920475000e+00   4.119239469390045e+00   5.918420800000000e-02 -3.03208400e-01  -8.85037820e-01   3.46174420e-01
C     6.157651073849999e+00   4.842106178097989e+00   1.353276948800000e+01  7.95127000e-02  -2.19428212e+00   7.36202810e-01
C     6.260615023575000e+00   5.210352862282769e+00   3.372311896000000e+00  6.25771500e-02  -3.84900160e-01  -2.92502170e-01
C     7.508630608650000e+00   5.915362578799675e+00   3.386433864000000e+00 -1.84552140e-01  -1.07046228e+00   3.37349370e-01
C     7.405154629125000e+00   4.116904348889132e+00   1.359355836000000e+01 -6.16968290e-01  -3.25039200e-01  -4.32226200e-02
C     8.630355049275000e+00   4.830927225790466e+00   6.928656000000000e-02  9.21586100e-02  -1.11504755e+00   5.64866840e-01
C     8.739649192949999e+00   5.172051621767831e+00   3.353442576000000e+00 -1.48161650e-01   1.72323200e+00  -4.58786360e-01
C     9.948667245525000e+00   5.936919887139641e+00   3.171961184000000e+00  8.32837900e-02  -2.91565568e+00   1.23035625e+00
C     7.408593378075000e+00   1.506533136005898e-01   6.595490272000000e+00  2.20691050e-01  -5.19185230e-01   4.79883280e-01
C     1.257461107650000e+00   8.447455636583964e-01   6.708906656000000e+00 -6.80645270e-01   1.84715300e-01   4.48486200e-02
C     1.141189374750000e+00   5.294087445078433e-01   1.018610583200000e+01 -7.10716660e-01   7.68928330e-01   2.21028230e-01
C     2.331075970725000e+00   1.235922565025749e+00   1.035620878400000e+01  1.50489017e+00   9.97116360e-01  -3.17372740e-01
C     2.479683894074999e+00   1.617477937469394e-01   6.717546328000000e+00 -5.84588200e-02  -2.21644218e+00  -4.70428000e-03
C     3.682649361000000e+00   8.704010206455565e-01   6.763830800000000e+00  1.26345076e+00  -9.51277450e-01  -5.28965170e-01
C     3.589007881050000e+00   5.193280583807317e-01   1.030668656000000e+01 -4.57848870e-01   1.21856456e+00  -8.85726700e-01
C     4.821258324450000e+00   1.256832530981227e+00   1.018727380000000e+01  2.21539840e-01  -2.08503420e-01   6.57444490e-01
C     4.913569443899999e+00   1.468482237930708e-01   6.581063255999999e+00  6.32476610e-01  -6.96154400e-02   1.01435138e+00
C     6.173318379674999e+00   8.508273671351454e-01   6.607850224000000e+00 -5.73557370e-01  -5.89500450e-01   4.81684500e-02
C     6.046875083099999e+00   5.442387001787736e-01   1.009686385600000e+01  2.99411880e-01  -1.02562161e+00   1.41753840e-01
C     7.292499494925000e+00   1.253664280575307e+00   1.011692589600000e+01 -6.79117910e-01  -6.54458980e-01   1.65759790e-01
C     8.651880045524999e+00   2.249742073210032e+00   6.796963799999999e+00 -2.28997300e-01   1.07467489e+00  -2.54593130e-01
C     2.490584493825000e+00   2.987387695653761e+00   6.821843232000000e+00 -6.82213470e-01   3.11959920e-01   4.98464000e-03
C     2.336524458825000e+00   2.702230685498144e+00   1.039459655200000e+01  1.23612539e+00  -2.29589512e+00  -4.92262840e-01
C     3.580681480800000e+00   3.384182640101063e+00   1.033947262400000e+01  7.59943480e-01   3.09944480e-01  -2.31421500e-01
C     3.701044645350000e+00   2.263145352357490e+00   6.850209432000001e+00  8.62888070e-01   1.77545843e+00  -5.79687870e-01
C     4.950589664324999e+00   3.006516189200324e+00   6.771109247999999e+00 -1.71200130e-01  -2.27789984e+00  -2.04226920e-01
C     4.842715027874999e+00   2.690572374489800e+00   1.026024079200000e+01 -1.77372937e+00  -9.44889660e-01  -2.69257600e-01
C     6.034885310775000e+00   3.398644799243094e+00   1.014688887200000e+01  1.12193018e+00  -8.04030560e-01   4.79603300e-02
C     6.187126841325000e+00   2.259020818167914e+00   6.705110896000000e+00 -1.00846400e+00   5.68479070e-01   2.49649470e-01
C     7.400522105324999e+00   2.949557872559899e+00   6.765155711999999e+00  1.11656491e+00   1.16792083e+00  -3.59611450e-01
C     7.263347369624999e+00   2.657079770989044e+00   1.013867365600000e+01  1.26470039e+00   8.71590850e-01   4.49121810e-01
C     8.538820589700000e+00   3.370753039453800e+00   1.025470300800000e+01 -2.61962454e+00   7.86297050e-01  -5.45704860e-01
C     9.882536681550000e+00   4.428477577823100e+00   6.717698919999999e+00 -1.12748500e-01  -4.50538850e-01  -2.10894550e-01
C     3.730220804400000e+00   5.132184348078388e+00   6.649016880000000e+00 -3.66185360e-01  -4.60479910e-01   7.69747900e-02
C     3.593769336675000e+00   4.794748292287754e+00   1.021659118400000e+01  6.22591740e-01   4.17540950e-01  -1.62459030e-01
C     4.863480816450000e+00   5.532223497429830e+00   1.015665244800000e+01 -2.41682716e+00  -1.12040680e+00   1.52001560e-01
C     4.971192097350000e+00   4.386824028531345e+00   6.685379336000000e+00 -8.49832110e-01   1.53780369e+00   2.66104380e-01
C     6.202959203550000e+00   5.091027513026255e+00   6.679969120000000e+00 -9.24856720e-01   1.94089621e+00  -4.37306600e-02
C     6.044864826300000e+00   4.805978350573000e+00   1.013250904800000e+01  9.57018620e-01   6.18729960e-01   2.35193410e-01
C     7.273261661249999e+00   5.528232107761163e+00   1.013841280800000e+01  6.80201370e-01  -8.70172710e-01   4.67111870e-01
C     7.406403311849999e+00   4.403704243313576e+00   6.703257216000000e+00  5.24766980e-01  -1.34839408e+00   1.52259840e-01
C     8.622478671749999e+00   5.121595932388135e+00   6.635045735999999e+00  9.47624420e-01   3.71063110e-01   2.33164250e-01
C     8.509745039624999e+00   4.794163967800608e+00   1.015059460000000e+01  3.61757600e-01   9.73726100e-02   1.91672130e-01
C     9.752766596324999e+00   5.478108222981194e+00   1.013353108800000e+01 -3.20940810e-01   1.86976916e+00   2.23851490e-01
