72
Lattice="7.395 0 0 3.6975 6.40425786098592 0 0 0 13.6 " PBC="1 1 1" Properties=species:S:1:pos:R:3:force:R:3 Energy="-582.54776505"
C     1.960262902500000e-02   1.176481381655580e-02   1.355938876800000e+01 -1.47214640e-01  -8.25961700e-01   9.61812200e-02
C     1.277797505550000e+00   6.914923134943824e-01   1.358834221600000e+01 -1.30007792e+00   1.10235514e+00  -3.70770400e-01
C     1.228394283675000e+00   7.506449210053794e-01   3.426430375999999e+00  9.95300480e-01  -1.36336299e+00  -4.64711280e-01
C     2.466363317550000e+00   1.449039167238062e+00   3.419664919999999e+00 -1.61129980e-01   1.63578010e-01  -2.98923770e-01
C     6.195194971199999e+00   6.396955340932557e+00   1.357786640800000e+01 -6.77750170e-01   4.75669210e-01   1.07884700e-01
C     3.717523552424999e+00   7.247254805092302e-01   1.355873080000000e+01 -9.91415970e-01  -7.39033360e-01  -2.65669420e-01
C     3.683871680549999e+00   7.192548994026396e-01   3.401916920000000e+00 -2.90613560e-01   3.68294600e-02   1.06333140e-01
C     4.906160985000000e+00   1.398972472480783e+00   3.421606320000000e+00  9.36843930e-01   6.73657950e-01  -1.52109280e-01
C     8.602470168149999e+00   6.389964965393210e+00   1.358258452000000e+01  8.58795980e-01   3.90641840e-01  -1.10631490e-01
C     6.139008057000000e+00   6.426437085820753e-01   1.359882142400000e+01  1.32258109e+00   2.56433268e+00  -2.38847200e-01
C     6.165324125850000e+00   6.863259986787205e-01   3.423070768000000e+00 -1.59903060e-01   9.91860690e-01  -1.62087140e-01
C     7.402245805875000e+00   1.426138886024853e+00   3.391509520000000e+00 -6.71631980e-01  -6.34877850e-01   2.49275400e-01
C     1.255636243500000e+00   2.119091306268737e+00   1.356038075200000e+01 -9.68593110e-01   1.09745893e+00   4.22979370e-01
C     2.478365957175000e+00   2.847737601525016e+00   1.357689849600000e+01 -6.60519700e-01   6.30637950e-01  -7.86440900e-01
C     2.474812400850000e+00   2.867407703158799e+00   3.383920176000000e+00 -8.99143490e-01   8.54991860e-01   3.03767800e-01
C     3.690559940400000e+00   3.600145358548940e+00   3.448781296000000e+00  6.70460120e-01  -1.41881834e+00  -6.00023200e-01
C     3.706668727725000e+00   2.123452157573347e+00   1.348713944800000e+01 -4.77727630e-01   7.23334480e-01   1.47717564e+00
C     4.925303903850000e+00   2.807570800695461e+00   4.379064000000000e-02  2.24657540e-01   1.45735180e+00  -9.70832520e-01
C     4.890270424124999e+00   2.829928385097614e+00   3.419452760000000e+00  1.66172033e+00   2.90742860e-01   4.65362840e-01
C     6.175559656275000e+00   3.501037867100974e+00   3.446443320000000e+00 -1.06072721e+00   1.84628211e+00  -4.87858220e-01
C     6.135271252575000e+00   2.090330872943313e+00   1.405070400000000e-02  1.38622573e+00   6.13070470e-01   2.04463560e-01
C     7.377440868299999e+00   2.868381662694148e+00   1.359330091200000e+01  5.39575550e-01  -1.61695508e+00   1.11860870e-01
C     7.418410351499999e+00   2.828409487260958e+00   3.387743680000000e+00 -8.49532700e-01   7.66308360e-01   3.52317200e-02
C     8.613402788249999e+00   3.589358282779870e+00   3.356858080000000e+00  8.90681310e-01  -6.51855290e-01   8.19060390e-01
C     9.824034688650000e+00   4.300969444256285e+00   1.355267934400000e+01  1.62278401e+00  -9.90699370e-01  -4.51966400e-02
C     3.703476269249999e+00   5.006068884425809e+00   1.352654816800000e+01 -3.96915670e-01  -1.33712153e+00   6.35375230e-01
C     3.728661235875000e+00   5.007550381396563e+00   3.419698512000000e+00 -3.70567320e-01  -2.74611280e-01   3.28048600e-02
C     4.953394661775000e+00   5.717396657491920e+00   3.391839592000000e+00  2.60717510e-01  -4.49361270e-01   4.46468000e-01
C     4.933920594825000e+00   4.259274075160705e+00   1.949043200000000e-02 -5.33678090e-01  -4.27403600e-02  -2.23071920e-01
C     6.153987590849999e+00   4.990007646138715e+00   1.975087200000000e-02 -6.35040000e-03  -4.56226330e-01   7.25568000e-03
C     6.184167214425000e+00   4.959635389195087e+00   3.418371288000000e+00 -5.12384860e-01   2.07448060e-01  -1.78171700e-01
C     7.399767556499999e+00   5.719347202308340e+00   3.391212360000000e+00 -5.87804680e-01  -1.15766477e+00   6.34427880e-01
C     7.382872495799999e+00   4.306735709948272e+00   1.267941600000000e-02 -4.51012970e-01  -2.24344170e+00  -2.51188700e-01
C     8.595012421574999e+00   4.997710879620459e+00   1.355745416800000e+01  6.52619630e-01  -8.00265080e-01   3.78463140e-01
C     8.618882853000001e+00   5.015370300456516e+00   3.470640712000000e+00  5.69900420e-01  -1.15175823e+00  -1.12561917e+00
C     9.878626131599999e+00   5.672829234916445e+00   3.428532664000000e+00 -4.06060770e-01   1.28836802e+00   2.64280990e-01
C     9.766169775000000e-03   2.288049205642200e-03   6.845244751999999e+00  2.62426600e-02   1.26741440e-01   3.02562350e-01
C     1.241455369650000e+00   7.364861956007557e-01   6.830211991999999e+00 -5.27138350e-01  -8.26838460e-01  -1.90798060e-01
C     1.247482035825000e+00   6.903316698424147e-01   1.019879708000000e+01 -1.57092659e+00   5.07885140e-01   9.43095500e-02
C     2.455070745825000e+00   1.390787510722810e+00   1.017379606400000e+01  2.68098720e-01   1.05967018e+00   4.83016330e-01
C     2.467065435825000e+00   3.105559125729060e-02   6.754789792000000e+00  1.48133320e-01  -8.94358250e-01   4.51043000e-01
C     3.728800557675000e+00   6.785259328181334e-01   6.732643144000000e+00 -1.21705450e-01   7.36634480e-01   2.23459890e-01
C     3.667773394125000e+00   6.910325518226130e-01   1.026501493600000e+01  1.32753117e+00   5.04582050e-01  -8.97463710e-01
C     4.925007364350000e+00   1.411909201443140e+00   1.019087385600000e+01 -1.82115560e-01   2.15542300e-01   8.89909750e-01
C     4.986545855175000e+00   4.010410314510601e-03   6.808447504000000e+00 -1.12761989e+00  -1.43002020e-01   2.25384480e-01
C     6.196066508925000e+00   7.472322200769426e-01   6.887954735999999e+00 -2.05172550e-01  -5.87346510e-01  -9.94615580e-01
C     6.179344343325000e+00   7.212090306034614e-01   1.023857096000000e+01 -7.00716780e-01  -1.50236810e-01  -5.66288900e-01
C     7.395443773949999e+00   1.464911736088601e+00   1.020221938400000e+01  7.82424530e-01  -2.10468680e+00  -1.87380560e-01
C     8.614975741725001e+00   2.141394326393923e+00   6.844983903999999e+00  1.43698820e-01  -4.74085200e-02  -7.13294170e-01
C     2.461306061925000e+00   2.796192035542706e+00   6.750993760000000e+00  3.59031020e-01   1.18617699e+00   7.08183720e-01
C     2.467965518250000e+00   2.824989997819189e+00   1.017570713600000e+01 -1.68817200e-02   5.54729700e-01   1.36110900e-02
C     3.689467033350000e+00   3.571239868782986e+00   1.016356328800000e+01  1.52049910e-01  -1.37010413e+00   2.21429080e-01
C     3.696110997150000e+00   2.092897635451023e+00   6.732509320000000e+00  5.07722900e-01   8.58627760e-01   1.97672930e-01
C     4.916930212575000e+00   2.852120547519243e+00   6.785511512000000e+00  4.30664880e-01  -4.94569140e-01  -1.63439240e-01
C     4.927948836524999e+00   2.854927533739281e+00   1.020859914400000e+01 -1.30300040e-01  -1.01970030e+00  -5.76555480e-01
C     6.165129489450000e+00   3.541786686884846e+00   1.018111762400000e+01 -3.06954570e-01   4.02151260e-01   7.33866500e-02
C     6.180333202725000e+00   2.173995713370882e+00   6.786199400000000e+00 -8.35591800e-01  -9.44961830e-01   6.03767320e-01
C     7.397116301100000e+00   2.864104130784296e+00   6.797401040000000e+00 -2.68288490e-01   1.19388166e+00   1.35600830e-01
C     7.406157243225000e+00   2.865630713730385e+00   1.015587276000000e+01 -2.89403300e-02  -3.16170710e-01   6.15254060e-01
C     8.646714416175000e+00   3.556705341527138e+00   1.021825133600000e+01 -4.08557920e-01   4.52903540e-01  -4.07887470e-01
C     2.465001639225000e+00   4.225943243213492e+00   6.830489975999999e+00 -6.31262000e-01   8.81736390e-01  -4.31652810e-01
C     3.674636323875000e+00   4.969562757389030e+00   6.823485839999999e+00  5.91563560e-01   6.71548700e-02   1.72645570e-01
C     3.689590899600000e+00   4.972340348065490e+00   1.015446488800000e+01  9.11685500e-02   1.84115920e-01   4.88585120e-01
C     4.929304894650000e+00   5.666513227729755e+00   1.022104368800000e+01 -5.79785560e-01   7.09983330e-01  -4.69407600e-01
C     4.920434961900000e+00   4.262188845040527e+00   6.825046575999999e+00 -6.60505830e-01   7.29278510e-01  -2.23413870e-01
C     6.131529493500000e+00   5.013091793595086e+00   6.813895528000001e+00  3.16792400e-01  -5.40456990e-01  -4.46508340e-01
C     6.138801995325000e+00   4.956069370333482e+00   1.020971910400000e+01  6.63433760e-01   3.82522630e-01   1.76648030e-01
C     7.355291918924999e+00   5.692314381583230e+00   1.025397105600000e+01  1.09551145e+00  -8.58247610e-01   9.11981600e-02
C     7.356464876849999e+00   4.308115827517102e+00   6.775259967999999e+00  1.41858205e+00  -5.65045170e-01   4.03613300e-01
C     8.625972328574999e+00   4.989159786440630e+00   6.825135384000000e+00  4.26702600e-01  -6.82808290e-01  -2.11117730e-01
C     8.617136338875000e+00   4.991185709372062e+00   1.026106903200000e+01  3.17009010e-01  -3.48779410e-01  -4.83712760e-01
C     9.868394409600000e+00   5.678847187942329e+00   1.019955432800000e+01 -7.65053950e-01   1.15432598e+00   3.69498010e-01
