72
Lattice="7.395 0 0 3.6975 6.40425786098592 0 0 0 13.6 " PBC="1 1 1" Properties=species:S:1:pos:R:3:force:R:3 Energy="-579.85402459"
C     3.657645423975000e+00   6.306277517935396e+00   2.850342400000000e-02  4.26974570e-01  -2.91033203e+00  -4.72882450e-01
C     1.221127402050000e+00   5.100213908585797e-01   1.353517165600000e+01 -2.53468490e-01   2.53324846e+00   5.35609530e-01
C     1.283920380675000e+00   8.884667276002518e-01   3.315630496000000e+00  1.21553886e+00  -5.16419600e-02   5.68496300e-01
C     2.548205927100000e+00   1.539131448939084e+00   3.204468720000000e+00  6.11944940e-01   1.86373543e+00   7.42701100e-01
C     6.172941974174999e+00   6.256358249194053e+00   6.691812000000000e-02 -1.40779233e+00  -4.18031380e-01  -5.62935100e-02
C     3.682885594275000e+00   5.581995340155235e-01   8.331169600000000e-02 -9.43771420e-01   5.58176350e-01  -7.08804890e-01
C     3.814282801350000e+00   9.125318152330382e-01   3.338736352000000e+00 -1.35252177e+00  -2.01013474e+00   2.93762760e-01
C     5.032814040750000e+00   1.611079699611782e+00   3.493541752000000e+00 -5.51690250e-01  -1.39294340e-01  -6.64474800e-01
C     8.561990159999999e+00   6.238996370178172e+00   9.616492000000000e-02  2.89232286e+00   1.95704899e+00  -2.65051840e-01
C     6.114818346450000e+00   5.479306267499064e-01   6.522954400000000e-02  6.23749400e-02   1.36862636e+00   3.47486520e-01
C     6.247362813824999e+00   8.904771522276630e-01   3.569859920000000e+00  6.62820450e-01  -7.04469390e-01  -5.68854730e-01
C     7.481737249125000e+00   1.632961319569781e+00   3.419374560000000e+00 -1.13616626e+00  -3.30985436e+00   1.98064310e-01
C     1.209565911150000e+00   1.946609784220702e+00   1.348863640000000e+01  3.23534520e-01   1.57454981e+00   4.88046240e-01
C     2.483730364125000e+00   2.660925912089445e+00   1.336467920000000e+01 -2.77696903e+00   1.94816989e+00   1.11138123e+00
C     2.577083291175000e+00   2.979736656873577e+00   3.269913144000000e+00 -2.05765683e+00   1.27468425e+00   5.27982380e-01
C     3.726775067175000e+00   3.756420329699037e+00   3.464078304000000e+00  2.92678164e+00  -2.04374128e+00  -4.69392360e-01
C     3.677049682124999e+00   1.977740305294954e+00   1.350840264000000e+01  7.38918400e-01  -3.64570240e-01   5.47404820e-01
C     4.879431979350000e+00   2.691574704887469e+00   8.354221600000000e-02  1.43961340e+00   6.94940440e-01  -2.53710200e-02
C     4.981118442825000e+00   3.012638915884799e+00   3.430647464000000e+00  1.80605300e+00   2.10433966e+00   4.98227170e-01
C     6.285719347724999e+00   3.733339000116126e+00   3.418643832000000e+00 -2.93482966e+00  -1.79136680e-01   3.00617450e-01
C     6.127034590649999e+00   1.967433228652492e+00   1.795574000000000e-01  6.18326570e-01   1.48512779e+00  -6.44718860e-01
C     7.390920363375000e+00   2.726721336065727e+00   1.470494560000000e-01 -3.44674190e-01  -5.20091550e-01  -3.13044330e-01
C     7.475179843799999e+00   2.985102848577049e+00   3.357531688000000e+00  1.64534117e+00   3.86978314e+00  -8.79334500e-02
C     8.750778335174999e+00   3.739346322073963e+00   3.320477536000000e+00 -1.67098949e+00  -9.76472030e-01   1.16318100e-01
C     2.438085983775000e+00   4.142042341841204e+00   1.346142184800000e+01  1.30262492e+00  -1.33757841e+00   2.21820620e-01
C     3.677915710575000e+00   4.855403274650128e+00   1.355820298400000e+01 -8.70201000e-02  -2.30597600e-01   3.05349000e-01
C     3.755858492925000e+00   5.155129843352089e+00   3.596892096000000e+00  6.75858340e-01  -4.28534300e-02  -6.32754850e-01
C     4.987736487150000e+00   5.907112357654108e+00   3.517940968000000e+00  5.36451480e-01  -2.12986122e+00  -5.43087970e-01
C     4.912657862249999e+00   4.127128042094257e+00   9.157777600000000e-02 -1.96592600e-02  -2.05094700e-02  -9.81147600e-02
C     6.175799660999999e+00   4.844800449379691e+00   2.150079760000000e-01 -2.27535707e+00   8.65317720e-01  -4.38216130e-01
C     6.246340935750000e+00   5.165640191139028e+00   3.439561584000000e+00  7.73662300e-02   4.52989700e-01  -1.62342450e-01
C     7.494592347374999e+00   5.877086955316177e+00   3.379144400000000e+00 -1.19512909e+00   8.72542100e-01   1.96144910e-01
C     7.390677511574999e+00   4.235051634912298e+00   2.582652240000000e-01  1.48757641e+00  -5.38781702e+00  -1.49299672e+00
C     8.632521969150000e+00   4.874920570691372e+00   3.254153600000000e-02 -1.15475990e+00  -1.77357531e+00   5.20240890e-01
C     8.705634929100000e+00   5.190587465292029e+00   3.420068704000000e+00  1.97706260e-01  -3.32673697e+00  -2.63802200e-02
C     9.927985907850001e+00   5.807759647172683e+00   3.562506400000000e+00  5.26039580e-01   4.38534532e+00  -8.03395600e-02
C     7.445052650775001e+00   1.231185911869914e-01   7.006063256000000e+00 -1.70271431e+00  -9.47664000e-02  -8.08722240e-01
C     1.251720332175000e+00   8.293190513678070e-01   6.823138768000000e+00  1.02160562e+00  -6.39347300e-01   9.44233600e-02
C     1.141712312175000e+00   5.756018238985015e-01   1.008305115200000e+01 -4.91431550e-01  -7.19169690e-01   6.54131890e-01
C     2.381655700125000e+00   1.280711895136073e+00   9.965608487999999e+00 -1.45522075e+00  -2.48995730e-01   3.04351610e-01
C     2.495512115100000e+00   9.847186885536001e-02   6.822112104000000e+00 -6.65338560e-01   1.88805660e+00  -1.11718050e-01
C     3.695357335724999e+00   8.323295649026359e-01   6.794585976000000e+00  8.76574770e-01   1.01753614e+00  -1.64010930e-01
C     3.566019081525000e+00   5.818787651122447e-01   1.007352190400000e+01  3.18204479e+00  -1.01048341e+00   1.71207420e-01
C     4.849643921024999e+00   1.296023963338705e+00   1.008971392800000e+01 -1.25678338e+00  -9.42814400e-01   3.73039450e-01
C     4.931999151975000e+00   1.511724427427214e-01   6.909202287999999e+00 -6.08975800e-01  -1.51611950e+00  -1.11740200e-02
C     6.151113635024999e+00   8.227359866283559e-01   6.962896584000000e+00  2.21128090e+00   6.73561110e-01  -3.79119290e-01
C     6.082114809375000e+00   5.224200981181183e-01   1.024196076000000e+01 -7.76039520e-01   1.86914441e+00  -4.38300940e-01
C     7.296040886475000e+00   1.285231251822718e+00   1.020159133600000e+01  6.70146230e-01  -8.24060360e-01  -4.56727320e-01
C     1.291189961475000e+00   2.235644892723442e+00   6.709160976000000e+00 -1.41915765e+00  -7.85577100e-02   4.78275640e-01
C     2.478803852100000e+00   2.966275739405379e+00   6.650808136000000e+00  1.44802485e+00   1.38676132e+00   1.02327914e+00
C     2.369341767975000e+00   2.667368211241134e+00   9.891821007999999e+00 -4.18476140e-01   3.04460521e+00   9.11820010e-01
C     3.610413522000000e+00   3.449981010035961e+00   9.929965336000000e+00 -1.04276288e+00  -2.00548223e+00   5.72496170e-01
C     3.728823297300000e+00   2.276848414815375e+00   6.692158119999999e+00 -1.30625161e+00  -1.72535032e+00   1.70774390e-01
C     4.948545316575000e+00   2.928133964911155e+00   6.745900015999999e+00  1.50455223e+00   2.90089693e+00   5.20029790e-01
C     4.812481679625000e+00   2.742775401584018e+00   1.003200491200000e+01  2.05947260e+00  -1.69179602e+00   5.00893650e-01
C     6.080161604999999e+00   3.418925098565777e+00   1.019997293600000e+01 -1.31486978e+00   2.97303400e-01  -5.57929310e-01
C     6.184527646725000e+00   2.255162252807264e+00   6.851273088000000e+00 -2.01375300e-02  -1.86319216e+00  -4.99943700e-02
C     7.441756255574999e+00   2.910658538403416e+00   6.817004624000000e+00 -4.83585430e-01   1.27865014e+00  -7.44228500e-02
C     7.298812162725000e+00   2.723067963126911e+00   1.017786232800000e+01 -1.19618031e+00  -1.94764359e+00  -7.45462000e-03
C     8.489950288499999e+00   3.396720255713585e+00   1.006664234400000e+01  2.85501102e+00   2.88499150e-01  -2.69461370e-01
C     9.912846826875001e+00   4.400287891958159e+00   6.868913647999999e+00 -1.47203747e+00  -8.83901800e-02  -5.61965820e-01
C     3.764782778925000e+00   5.095301650679441e+00   6.944877399999999e+00 -3.16596630e-01   1.63571780e-01  -3.97146340e-01
C     3.658691742524999e+00   4.833260040758550e+00   1.011143476000000e+01 -2.78244801e+00   1.69726000e-01   1.16787760e-01
C     4.854343073775000e+00   5.519382640207636e+00   1.016284371200000e+01  3.12051150e-01   2.49210069e+00  -3.36847790e-01
C     5.010855438675000e+00   4.402951422802132e+00   6.826326335999999e+00 -2.38774326e+00  -1.41183605e+00   1.42188900e-02
C     6.193705655175000e+00   5.126958281536893e+00   6.853194768000000e+00  1.43391120e+00  -2.98379324e+00   6.57586000e-02
C     6.078492775350000e+00   4.835188042587302e+00   1.018473046400000e+01 -3.54967790e-01  -7.81864000e-01   4.51083200e-02
C     7.273995060374999e+00   5.538584910804746e+00   1.019157452800000e+01  1.54625121e+00   1.29743250e+00  -4.05808630e-01
C     7.421171274750000e+00   4.324365863325909e+00   6.863180839999999e+00  4.57414420e-01   2.66132694e+00  -2.59475550e-01
C     8.626376058599998e+00   5.120283187611993e+00   6.905480104000000e+00  1.32704504e+00  -1.60543324e+00  -1.31530560e-01
C     8.509564157924999e+00   4.815536000960686e+00   1.014746850400000e+01  9.61229410e-01   6.06554280e-01   2.89186570e-01
C     9.784998702149998e+00   5.513664214321865e+00   1.021875276800000e+01 -5.24880820e-01   9.74186400e-02  -6.68113610e-01
