72
Lattice="7.395 0 0 3.6975 6.40425786098592 0 0 0 13.6 " PBC="1 1 1" Properties=species:S:1:pos:R:3:force:R:3 Energy="-579.77987092"
C     3.638825777549999e+00   6.282996183379516e+00   1.356622712000000e+01  7.41195680e-01  -1.90956300e-01   3.83837370e-01
C     1.199461641975000e+00   5.558495556363751e-01   1.352249672800000e+01 -1.81083580e-01  -4.22137600e-01   3.69624280e-01
C     1.277897190150000e+00   8.786383051902457e-01   3.349705704000000e+00  9.36999600e-01  -1.31003318e+00   6.68849930e-01
C     2.575183367775000e+00   1.510597085916118e+00   3.269163512000000e+00 -1.94121266e+00   2.24175731e+00   1.09975349e+00
C     6.137859095849999e+00   6.251833961228856e+00   1.154640000000000e-02 -4.57779300e-02   1.50403497e+00  -6.18863800e-02
C     3.679993853475000e+00   5.557369687831962e-01   1.845928000000000e-03 -3.15513930e-01   4.09751930e-01   8.51967300e-02
C     3.804739036200000e+00   8.532975534343260e-01   3.420490440000000e+00  6.10487970e-01   2.80733748e+00  -3.48934000e-01
C     5.013902881200000e+00   1.607948017518243e+00   3.472629032000000e+00  9.59967430e-01   5.34947800e-02   4.69714600e-01
C     8.609314388550001e+00   6.282377916325712e+00   1.359480996800000e+01 -7.63812200e-01  -6.82966520e-01   5.87734610e-01
C     6.101591982225000e+00   5.769596546499787e-01   2.386963200000000e-02  1.76848267e+00   2.10389431e+00  -5.63815500e-02
C     6.272429608350000e+00   8.718985923035387e-01   3.547678320000000e+00 -2.32131330e+00   1.23118555e+00  -5.10839310e-01
C     7.465088478899999e+00   1.585977826674041e+00   3.432236624000000e+00  1.07145989e+00   1.59404773e+00  -1.13347190e-01
C     1.231999420125000e+00   1.943017828114764e+00   1.348182443200000e+01 -1.56456956e+00   3.13115793e+00   7.67174680e-01
C     2.460277898100000e+00   2.677230448132641e+00   1.336400314400000e+01 -1.96265500e-01   9.82306200e-02   1.48225937e+00
C     2.544233887725000e+00   2.947459197259177e+00   3.368501312000000e+00  8.65310600e-01   5.02014940e-01  -2.17857060e-01
C     3.777826708500000e+00   3.709507539810072e+00   3.441192768000000e+00 -1.58340299e+00  -1.89731350e-01   7.52329890e-01
C     3.696286184699999e+00   1.961360070923854e+00   1.357456800000000e+01 -1.26967885e+00   1.24228097e+00  -1.37343636e+00
C     4.884204971175000e+00   2.720180283257838e+00   1.099369600000000e-02  8.26600010e-01   1.16913120e-01   7.42809140e-01
C     5.025533478374999e+00   3.067887679932075e+00   3.510831976000000e+00 -7.80937730e-01  -3.14345543e+00  -1.07716549e+00
C     6.239568705675000e+00   3.710151487937895e+00   3.417259896000000e+00  1.87565131e+00   3.71178069e+00   6.10885000e-01
C     6.111920800575000e+00   2.039839960145387e+00   1.224359040000000e-01  1.41785723e+00  -9.29471010e-01  -4.65236380e-01
C     7.376209083150000e+00   2.758363941598466e+00   1.507115280000000e-01  9.33901660e-01  -2.10400260e+00  -1.69748742e+00
C     7.505642474025000e+00   3.042286659136725e+00   3.384392368000000e+00 -3.15432877e+00  -2.51623231e+00   2.71931230e-01
C     8.702151218550000e+00   3.693859248069791e+00   3.402244952000000e+00  2.03610735e+00   5.32349980e-01  -5.48502310e-01
C     2.445811983975000e+00   4.112064266968858e+00   1.341960103200000e+01  1.11999760e-01   8.34011480e-01   1.30858037e+00
C     3.675685785300000e+00   4.868369655326378e+00   1.356807005600000e+01 -2.48313610e-01  -1.48044250e+00  -6.82910210e-01
C     3.714434254200000e+00   5.112735897809140e+00   3.582368248000000e+00  1.43041183e+00   9.91023220e-01  -7.57107900e-01
C     4.932610718475000e+00   5.856353810920213e+00   3.519034544000000e+00  2.16869902e+00   1.58164190e-01  -5.72540890e-01
C     4.914260358749999e+00   4.136679608436975e+00   3.887818400000000e-02  4.42260400e-02   1.37910081e+00   1.98779440e-01
C     6.166562085824999e+00   4.891072044971713e+00   1.628038320000000e-01 -6.11164620e-01  -2.95942863e+00  -9.79944260e-01
C     6.240300108150000e+00   5.219540090395832e+00   3.452064336000000e+00 -1.16454583e+00  -2.57310672e+00   7.76279600e-02
C     7.491343391099999e+00   5.909482829658408e+00   3.448356840000000e+00 -6.84890900e-02  -4.62816144e+00  -5.53004750e-01
C     7.436324591100000e+00   4.182413438496493e+00   1.156437920000000e-01 -2.99798395e+00  -1.23563353e+00   6.25229970e-01
C     8.611877088825000e+00   4.871697884093641e+00   3.749560800000000e-02  2.40160684e+00  -8.05016910e-01  -1.41361016e+00
C     8.707038463124999e+00   5.101364561595503e+00   3.389735944000000e+00  1.41183500e-02   2.80442154e+00   1.33627294e+00
C     9.928137579300000e+00   5.876179151764522e+00   3.549258776000000e+00 -9.47669190e-01  -2.30782929e+00  -6.00120940e-01
C     7.417329313425000e+00   1.238675051011398e-01   7.056235967999999e+00  5.06047040e-01  -3.31966030e-01  -1.20590807e+00
C     1.286815634100000e+00   7.972832244024648e-01   6.876246631999999e+00 -2.02167826e+00   1.23898102e+00  -6.03019300e-02
C     1.144120272075000e+00   5.715869946460674e-01   1.008253625600000e+01  7.08145370e-01   8.59527130e-01  -1.76266420e-01
C     2.380649388525000e+00   1.295073315301966e+00   1.002316586400000e+01 -6.77378800e-02   6.90635500e-02  -5.39489400e-02
C     2.475806732550000e+00   1.156185007645668e-01   6.843333407999999e+00  1.63243530e+00  -2.02257620e+00  -2.19871260e-01
C     3.683403946800000e+00   8.741932378947768e-01   6.797903560000000e+00 -1.58004940e-01  -1.55118111e+00   7.36542700e-02
C     3.630162350175000e+00   5.910412087473894e-01   1.008658130400000e+01 -2.76106590e+00  -4.04437660e-01   4.62491460e-01
C     4.785841931625000e+00   1.289508143306783e+00   1.013176268000000e+01  4.90648494e+00   1.12833266e+00  -6.79129290e-01
C     4.872400998225000e+00   1.435927473950970e-01   6.911849255999999e+00  2.16804057e+00  -1.56259849e+00  -1.75068690e-01
C     6.138237498000000e+00   8.203840229292708e-01   6.949718184000000e+00  5.18599610e-01  -2.42526915e+00   4.22358620e-01
C     6.083987149425000e+00   5.338538758458906e-01   1.017921158400000e+01 -1.19144458e+00   8.28649480e-01  -8.88494500e-02
C     7.302166091025000e+00   1.273176004912211e+00   1.010136940000000e+01 -9.87264910e-01  -4.30165750e-01   6.63059930e-01
C     8.674956956474999e+00   2.232547281281718e+00   6.743743872000000e+00  7.22970490e-01  -2.87611830e-01   1.13680138e+00
C     2.492548790700000e+00   3.027022558825466e+00   6.761462359999999e+00 -2.70953000e-02  -2.32726295e+00  -5.20597930e-01
C     2.370664215825000e+00   2.725875974028207e+00   9.941640936000001e+00 -1.27177310e-01  -1.35686150e+00   4.33464810e-01
C     3.600685066725000e+00   3.426692502711278e+00   9.950257624000001e+00  1.00081235e+00   6.94429780e-01   5.57241720e-01
C     3.701354347950000e+00   2.257983264352016e+00   6.715755888000000e+00  1.40624592e+00   2.82226069e+00   6.36610980e-01
C     4.988258722049999e+00   2.995346074768648e+00   6.778112296000000e+00 -1.19428468e+00  -3.54648438e+00   3.39171620e-01
C     4.855289116125000e+00   2.743153893223544e+00   9.986848016000000e+00 -1.29225973e+00  -1.27096745e+00   1.01208206e+00
C     6.086631638399999e+00   3.456705480788961e+00   1.013014781600000e+01 -1.04052488e+00  -2.17625351e+00   4.28911200e-02
C     6.187420274925000e+00   2.177364224920084e+00   6.914117192000000e+00 -1.13017320e-01   3.54633299e+00  -8.26527900e-01
C     7.451911513274998e+00   2.854260338155426e+00   6.887160088000000e+00 -1.09758532e+00   2.81849313e+00  -3.77580300e-01
C     7.260745180050000e+00   2.690211238389074e+00   1.016850702400000e+01  1.99495106e+00  -5.24332700e-02  -1.15623016e+00
C     8.508305233124998e+00   3.370661266438666e+00   1.001675713600000e+01 -3.73591660e-01   2.05034234e+00   1.20982134e+00
C     9.898418812125000e+00   4.415553209078412e+00   6.872904023999999e+00  1.00540903e+00   8.03026260e-01   6.07283860e-01
C     3.805399224825000e+00   5.113212182466189e+00   7.006412912000000e+00 -2.87024310e+00  -3.76950280e-01  -1.11236502e+00
C     3.622029477075000e+00   4.858851583252267e+00   1.010033416800000e+01  1.28723053e+00  -1.51632319e+00  -5.79472410e-01
C     4.862300352600000e+00   5.574951425020178e+00   1.008312513600000e+01 -1.93136510e-01  -1.35748180e+00   7.06259200e-01
C     5.004020720849999e+00   4.375381284842568e+00   6.829749863999999e+00  9.43010000e-03   9.39568820e-01   4.97861220e-01
C     6.246788739974999e+00   5.043069804424852e+00   6.836482000000000e+00 -9.99755830e-01   2.30164768e+00   4.90463540e-01
C     6.093474120974999e+00   4.826254679255809e+00   1.017846752800000e+01 -1.62289050e-01   3.17773812e+00  -6.67934510e-01
C     7.320561745125000e+00   5.586495804281192e+00   1.018972220800000e+01 -3.19461250e-01  -1.79146633e+00  -2.13754030e-01
C     7.450627593375000e+00   4.340655413405711e+00   6.888638407999999e+00 -1.69340180e-01  -1.69443350e+00  -3.10153500e-01
C     8.636875664474999e+00   5.080910258586763e+00   6.920974856000000e+00  6.21264660e-01   1.60281949e+00  -2.15751750e-01
C     8.506677075974999e+00   4.820233908356466e+00   1.015052891200000e+01  1.90706572e+00  -2.56001470e-01  -2.10686120e-01
C     9.814105791899999e+00   5.503243590187544e+00   1.018326479200000e+01 -3.21495139e+00   1.83817223e+00  -2.98079680e-01
