72
Lattice="7.395 0 0 3.6975 6.40425786098592 0 0 0 13.6 " PBC="1 1 1" Properties=species:S:1:pos:R:3:force:R:3 Energy="-582.3650665"
C     3.683983566900000e+00   6.313071474886176e+00   1.353551056800000e+01 -3.50244000e-02  -1.20956443e+00  -2.95446580e-01
C     1.221854441475000e+00   5.959840149637374e-01   1.354618276000000e+01  8.77996900e-02  -4.35568640e-01  -3.27865200e-02
C     1.288141668525000e+00   8.761923269857759e-01   3.488886744000000e+00  7.50837540e-01  -1.24739226e+00  -1.78454330e-01
C     2.542859785800000e+00   1.546521065913424e+00   3.531814464000000e+00 -1.10098336e+00   1.77401666e+00  -5.43911410e-01
C     6.156931651275000e+00   6.278690408692502e+00   1.352678984000000e+01 -4.11955410e-01   1.25427049e+00  -8.71313600e-02
C     3.685829506800000e+00   6.056434930513968e-01   1.350918804000000e+01 -2.34667030e-01  -2.97700520e-01   2.12099000e-03
C     3.751562071875000e+00   8.365447193409306e-01   3.492437976000000e+00  8.39433070e-01   2.02155305e+00   1.99774450e-01
C     4.983860434874999e+00   1.555637078679084e+00   3.499297272000000e+00  6.75797230e-01   1.20605880e-01  -5.26032680e-01
C     8.597942505450000e+00   6.272622182242417e+00   1.351948881600000e+01 -1.01045930e-01   8.76570380e-01  -3.35503610e-01
C     6.133319194425000e+00   5.530069617426354e-01   1.352745311200000e+01  3.62522640e-01   2.19065490e+00   2.12101560e-01
C     6.251465116125000e+00   8.332319248351099e-01   3.445395576000000e+00 -1.70329630e+00   9.14010740e-01   2.51037640e-01
C     7.453410590700000e+00   1.562861273672899e+00   3.454668056000000e+00  8.73826000e-01   3.68934920e-01   8.73479300e-02
C     1.227743153925000e+00   1.984778584683095e+00   1.356056503200000e+01 -1.02753894e+00   2.71094985e+00  -1.47533720e-01
C     2.453752919850000e+00   2.732737431856833e+00   1.356410361600000e+01 -3.44375710e-01   1.83885200e-02  -4.65890800e-01
C     2.534720146275000e+00   2.997710334642824e+00   3.488794808000000e+00  5.91167400e-02  -2.49423950e-01   3.05849990e-01
C     3.767190184200000e+00   3.728932550495553e+00   3.519589968000000e+00 -5.96657020e-01  -1.33820139e+00  -7.28992630e-01
C     3.688850660100000e+00   2.031075028795613e+00   1.349715408000000e+01 -1.01280696e+00  -6.94428230e-01   8.72726790e-01
C     4.893521044274999e+00   2.721379672669859e+00   1.358548132000000e+01  1.11212143e+00   2.99358830e-01  -5.44474300e-01
C     4.979278308000000e+00   3.000886270158177e+00   3.470183344000000e+00  3.81638380e-01  -1.80078922e+00   6.81203970e-01
C     6.225566679900000e+00   3.631952617551258e+00   3.499651688000000e+00  8.82831370e-01   3.62775159e+00  -4.22566120e-01
C     6.127743771150000e+00   2.001465967261161e+00   1.356471928800000e+01  5.92897650e-01   3.85332000e-01  -1.15470580e-01
C     7.357574348700000e+00   2.760432516887245e+00   1.353732535200000e+01  8.51430020e-01  -1.81403971e+00   4.85671470e-01
C     7.486990102499999e+00   2.985259624809462e+00   3.470526200000000e+00 -1.86165443e+00  -8.24706380e-01  -7.21813000e-03
C     8.679618912375000e+00   3.714323477678214e+00   3.460124920000000e+00  1.25188919e+00  -4.49701930e-01   4.44814840e-01
C     2.435838791175000e+00   4.159953257883424e+00   1.353650241600000e+01 -7.73549600e-02   4.18125460e-01  -3.96543320e-01
C     3.678188031450000e+00   4.891388095097104e+00   1.350122469600000e+01 -1.01117980e-01  -1.36834959e+00   6.22268910e-01
C     3.770299153124999e+00   5.120967866819806e+00   3.445121128000000e+00  4.03340690e-01   6.85798500e-01   3.17563990e-01
C     4.997631588750000e+00   5.846692923895825e+00   3.455387224000000e+00  6.36397500e-01  -3.15050220e-01   1.43510250e-01
C     4.902753812700000e+00   4.133486317382823e+00   1.356716851200000e+01  2.69979980e-01   1.65258166e+00  -3.44579200e-01
C     6.145893615449999e+00   4.886866689047944e+00   1.352500388800000e+01 -5.86796470e-01  -1.45084376e+00   4.97962990e-01
C     6.249557649825000e+00   5.128109126674334e+00   3.482551455999999e+00 -1.19484425e+00  -9.39204640e-01  -5.16211500e-02
C     7.457301396000000e+00   5.876528824243678e+00   3.475760568000000e+00  4.06669250e-01  -3.43291192e+00   3.20368000e-01
C     7.383675666749999e+00   4.194060093755532e+00   1.355514121600000e+01 -1.75358261e+00  -1.86638231e+00  -6.04789430e-01
C     8.568925227975001e+00   4.880015990372523e+00   1.347681596000000e+01  2.54959437e+00  -6.29155180e-01   8.40458590e-01
C     8.687043418424999e+00   5.121472778509488e+00   3.511588000000000e+00  4.17919520e-01   1.09761396e+00  -7.37566110e-01
C     9.947189317799999e+00   5.820286759802315e+00   3.452804720000000e+00 -1.15326787e+00   4.68259800e-02   2.17538560e-01
C     7.432910652374999e+00   9.456789730648262e-02   6.951810544000001e+00  2.12508980e-01   2.62211130e-01  -1.29558740e-01
C     1.281179719725000e+00   8.074778422769059e-01   6.930571968000001e+00 -1.24878207e+00   6.66597530e-01  -2.69906200e-02
C     1.143739651425000e+00   5.762820841683906e-01   1.005959754400000e+01  6.81461530e-01   5.84664760e-01   4.38038000e-01
C     2.391290941425000e+00   1.290378738120272e+00   1.011106116800000e+01 -4.64438480e-01   6.23158200e-02   3.45581600e-02
C     2.486677197675000e+00   1.177756469395506e-01   6.857887856000000e+00  1.21808988e+00  -1.30062937e+00   1.63873390e-01
C     3.756472610700000e+00   7.974113095596649e-01   6.835217607999999e+00 -1.26082675e+00  -1.18297570e-01   1.86666740e-01
C     3.624274599075000e+00   5.905078621528087e-01   1.016769020800000e+01 -1.46140892e+00  -4.98509000e-01  -5.68829240e-01
C     4.810910205149999e+00   1.290239957852446e+00   1.009040331200000e+01  3.10045057e+00   8.86354470e-01   3.53399100e-01
C     4.978561732499999e+00   1.157690008242768e-01   6.881913072000000e+00  3.49308900e-01  -1.27391212e+00   2.11467640e-01
C     6.202023883950000e+00   8.424632142422497e-01   6.956874368000000e+00  7.27751300e-02  -2.13193732e+00  -5.77427310e-01
C     6.105304494075000e+00   5.724379924305042e-01   1.007364471200000e+01 -1.29143887e+00   9.67718040e-01   5.02349000e-03
C     7.322543568150000e+00   1.318533072481825e+00   1.004963649600000e+01 -4.18150290e-01  -8.42929890e-01  -1.62169480e-01
C     8.654225628600001e+00   2.243979586030182e+00   6.962738552000000e+00  4.93661440e-01  -8.02097950e-01  -7.91849120e-01
C     2.493197443125000e+00   2.936970687991540e+00   6.878555911999999e+00  2.49963860e-01  -8.67556480e-01   5.67316280e-01
C     2.394098970825000e+00   2.710322977644883e+00   1.008981184800000e+01 -4.67554570e-01   2.84590900e-02   1.38656420e-01
C     3.607810777800000e+00   3.435869868267236e+00   1.006558780000000e+01  7.91954400e-01   2.06753690e-01   1.21075790e-01
C     3.723383165550000e+00   2.191064789717404e+00   6.858137008000000e+00  8.98476200e-01   2.53814202e+00  -3.40551900e-02
C     4.965192570825000e+00   2.964573679793927e+00   6.882633056000000e+00 -5.07319040e-01  -2.03097031e+00  -2.51337100e-02
C     4.850513462099999e+00   2.741278022053772e+00   1.007592488800000e+01 -4.00522150e-01  -1.12074193e+00  -1.88513530e-01
C     6.102757212375000e+00   3.444699226451083e+00   1.004541124800000e+01 -1.17095550e+00  -1.57534627e+00  -6.06067100e-02
C     6.197750535299999e+00   2.224182103707564e+00   6.904201976000000e+00  3.83415100e-02   1.83396292e+00   1.46785410e-01
C     7.440065758574999e+00   2.934112083453151e+00   6.921195448000001e+00 -1.02425530e+00   1.34392202e+00  -8.61696000e-03
C     7.316284625024999e+00   2.742729419012583e+00   1.000935071200000e+01  6.22162760e-01  -1.01597195e+00   8.86624540e-01
C     8.548915910925000e+00   3.417682608498358e+00   1.010372043200000e+01 -6.70241300e-02   1.30391792e+00  -4.74999020e-01
C     9.882426200250000e+00   4.334544790768592e+00   6.941145831999999e+00  9.50500000e-01   1.55902506e+00  -6.02924490e-01
C     3.752030730000000e+00   5.074196611029546e+00   6.920760248000000e+00 -1.92175315e+00   3.55492100e-02   1.73154590e-01
C     3.612378595350000e+00   4.872391529262458e+00   1.003021406400000e+01  6.35045270e-01  -1.50945591e+00   5.09802150e-01
C     4.836682556625000e+00   5.560680753188161e+00   1.007387904000000e+01  7.61924600e-01  -2.39050200e-01  -3.01798760e-01
C     4.961874286425000e+00   4.367546251734066e+00   6.911800160000000e+00  2.83068700e-01   2.18877780e-01  -2.78835010e-01
C     6.182653975575000e+00   5.086896062238191e+00   6.886040400000000e+00  1.84628920e-01   6.04855400e-01  -1.78915200e-01
C     6.079123162125000e+00   4.811076460042453e+00   1.006418332800000e+01 -1.27812530e-01   3.39983479e+00   5.20397420e-01
C     7.297851330375000e+00   5.574761538774629e+00   1.014259100000000e+01  3.48356510e-01  -9.61729810e-01  -2.08469190e-01
C     7.411546423424999e+00   4.393923468582048e+00   6.883352904000001e+00  6.21496720e-01  -1.49298157e+00   1.19292390e-01
C     8.658435639075000e+00   5.068836311243305e+00   6.905213408000001e+00  2.41162120e-01   8.62741970e-01  -2.46683800e-02
C     8.523366296850000e+00   4.865765171739873e+00   1.012120527200000e+01  1.41214006e+00  -6.25026790e-01  -6.87976400e-02
C     9.811037125724999e+00   5.556326754439461e+00   1.007563425600000e+01 -2.44285930e+00   9.97408150e-01   1.91918960e-01
