72
Lattice="7.395 0 0 3.6975 6.40425786098592 0 0 0 13.6 " PBC="1 1 1" Properties=species:S:1:pos:R:3:force:R:3 Energy="-580.56817457"
C     3.673857445500000e+00   6.275013275957027e+00   4.452531200000000e-02 -2.44633940e-01  -1.17378417e+00  -6.65262790e-01
C     1.224129661125000e+00   5.213131861895959e-01   1.354635466400000e+01 -3.56932950e-01   2.20192983e+00   5.54089400e-01
C     1.308338966475000e+00   8.829913433002663e-01   3.312990464000000e+00  1.78310300e-02   5.44703670e-01   5.51816090e-01
C     2.535027815250000e+00   1.580665879034643e+00   3.195464704000000e+00  1.47875185e+00   5.36570260e-01   5.75568860e-01
C     6.169201583174999e+00   6.263429958808223e+00   8.334991200000000e-02 -1.56399141e+00  -1.15794408e+00  -5.96516000e-02
C     3.667409671050000e+00   5.673587114791596e-01   1.019740240000000e-01  4.64570760e-01   1.83511670e-01  -8.63061800e-01
C     3.806514501750000e+00   9.271318580467943e-01   3.314584792000000e+00 -1.33293776e+00  -2.62198528e+00   5.21246430e-01
C     5.038688813625000e+00   1.611323893963984e+00   3.494808048000000e+00 -1.42912183e+00  -2.36539840e-01  -1.00637519e+00
C     8.580799268549999e+00   6.249112151638356e+00   1.275659600000000e-01  1.63846660e+00   8.79482170e-01  -5.39558210e-01
C     6.122506558199999e+00   5.679042261636744e-01   8.243911999999999e-02  5.06396810e-01  -7.47381260e-01   2.98991570e-01
C     6.236220286649999e+00   8.926399341495637e-01   3.568889968000000e+00  1.31041206e+00  -8.26425080e-01  -4.94850680e-01
C     7.475109258524999e+00   1.617053143045540e+00   3.417212568000000e+00 -3.96641950e-01  -1.82754753e+00   8.07071600e-02
C     1.201227494025000e+00   1.982333695202461e+00   1.349864314400000e+01  7.99959320e-01  -4.06541620e-01   3.04358300e-01
C     2.454586484250000e+00   2.679042853107021e+00   1.338186756000000e+01 -8.61020150e-01   1.27319709e+00   9.14855750e-01
C     2.567835769725000e+00   3.006703321614993e+00   3.243590480000000e+00 -1.47510576e+00   7.64130370e-01   7.25848550e-01
C     3.737408189775000e+00   3.740156076437781e+00   3.468270232000000e+00  2.73041065e+00  -2.90469060e-01  -7.21790950e-01
C     3.673892275950000e+00   1.980523147462860e+00   1.348824472000000e+01  6.08959880e-01   1.15171410e-01   1.15935315e+00
C     4.900630079625000e+00   2.692142314261600e+00   1.096689040000000e-01  3.56147700e-01   2.51105900e-01  -5.16864470e-01
C     4.986447057974999e+00   3.006269369102399e+00   3.406372008000000e+00  1.54270662e+00   2.39192296e+00   1.00475967e+00
C     6.271065489674999e+00   3.756651523407784e+00   3.424939680000000e+00 -2.08103489e+00  -2.28100521e+00   8.73414000e-03
C     6.144949347900000e+00   1.956346433615574e+00   1.890232720000000e-01 -2.02480200e-02   2.18074101e+00  -5.70097110e-01
C     7.396168077224999e+00   2.702647858855145e+00   1.360603840000000e-01 -1.02579128e+00   4.79229220e-01   2.91697450e-01
C     7.475333622825000e+00   3.002694000024319e+00   3.348990072000000e+00  1.35601905e+00   2.36546276e+00  -3.65411500e-02
C     8.753928753075000e+00   3.741743435790961e+00   3.293194576000000e+00 -2.14005005e+00  -2.85540430e-01   5.14373200e-01
C     2.452697616375000e+00   4.139851317142141e+00   1.348168802400000e+01  2.63438190e-01  -1.44047954e+00  -4.62514000e-02
C     3.674453630400000e+00   4.842006912101159e+00   1.355577701600000e+01  6.29767970e-01   2.00695190e-01   5.93699470e-01
C     3.786330440850000e+00   5.175780308779080e+00   3.592872072000000e+00 -6.65134900e-01  -1.04333124e+00  -6.62968670e-01
C     5.019832561949999e+00   5.898395266110548e+00   3.509648232000000e+00 -2.59098590e-01  -1.47945504e+00  -4.85086790e-01
C     4.912834306950000e+00   4.132021535525084e+00   1.081270720000000e-01 -3.25362860e-01  -8.21483580e-01  -2.31385740e-01
C     6.150146516925000e+00   4.823991926868715e+00   2.242130000000000e-01 -5.46674970e-01   1.61498762e+00  -2.06129340e-01
C     6.243560933400000e+00   5.144184134115827e+00   3.434195296000000e+00  3.84846870e-01   1.59768166e+00  -2.36574380e-01
C     7.482457596074999e+00   5.847293451155357e+00   3.357631648000000e+00 -5.87583990e-01   2.62749425e+00   4.29905250e-01
C     7.372886805449999e+00   4.179369878991107e+00   2.912101360000000e-01  2.05584556e+00  -3.17277331e+00  -2.20176402e+00
C     8.644085900399999e+00   4.850719392579061e+00   3.030841600000000e-02 -2.34589315e+00  -3.88898270e-01   1.23809759e+00
C     8.708366753025000e+00   5.194477475558772e+00   3.434452471999999e+00  7.27117600e-02  -3.36491632e+00  -4.60656740e-01
C     9.924422035499999e+00   5.830693038399029e+00   3.563523136000000e+00  1.43606774e+00   3.33723617e+00   1.22109000e-03
C     7.435449466800000e+00   1.200556267802892e-01   6.977019640000000e+00 -9.51656310e-01  -2.60129300e-02  -5.83509720e-01
C     1.243529667150000e+00   8.395064964734449e-01   6.806886904000000e+00  1.26296031e+00  -1.26820957e+00   1.82022570e-01
C     1.140711990525000e+00   5.710600523093466e-01   1.008955440000000e+01 -7.12835190e-01  -6.94500800e-01   7.87630600e-01
C     2.361994391775000e+00   1.274110258048828e+00   9.950070760000001e+00 -1.02445710e-01  -1.57288650e-01   5.23326090e-01
C     2.501369213925000e+00   1.019568738550362e-01   6.813550224000000e+00 -9.09498440e-01   2.13317141e+00  -6.75684100e-02
C     3.706221663000000e+00   8.245747131025404e-01   6.791850744000000e+00  9.91877350e-01   1.05104369e+00  -1.65303840e-01
C     3.570962121375000e+00   5.640418822908870e-01   1.007326160000000e+01  2.50663507e+00  -1.86091620e-01  -1.86267030e-01
C     4.878271999650000e+00   1.293625120472085e+00   1.007805016000000e+01 -2.90783739e+00  -1.19789975e+00   6.35030310e-01
C     4.951785583725000e+00   1.272814868811486e-01   6.907800127999999e+00 -5.73705930e-01   2.28166600e-02   3.48059900e-02
C     6.183994430249999e+00   8.168306844982284e-01   6.965350024000000e+00  5.84549240e-01   1.35646775e+00  -7.88610080e-01
C     6.067785813675000e+00   5.439239309049546e-01   1.025686717600000e+01  1.02664930e-01   8.02999230e-01  -4.64796740e-01
C     7.295474762250000e+00   1.277508677482237e+00   1.023115270400000e+01  8.16093940e-01  -3.61104580e-01  -7.64931120e-01
C     8.678463110850000e+00   2.230853931460955e+00   6.706900792000000e+00 -1.35533227e+00   1.02394315e+00   1.71975370e-01
C     2.492697984825000e+00   2.952805215550391e+00   6.624555920000001e+00  3.18014310e-01   1.72644484e+00   1.43917448e+00
C     2.362700947050000e+00   2.679291466397146e+00   9.887158384000001e+00 -1.48130330e-01   2.13404374e+00   9.73194200e-01
C     3.604466093250000e+00   3.438438616094882e+00   9.931600463999999e+00 -5.86921890e-01  -1.90286105e+00   6.53498240e-01
C     3.729530185350000e+00   2.279972796054954e+00   6.688430088000000e+00 -1.06052918e+00  -2.58437599e+00   7.53350000e-02
C     4.948357631475000e+00   2.923744230403597e+00   6.742463568000000e+00  1.05681024e+00   3.41404688e+00   4.72077630e-01
C     4.819074617925000e+00   2.717452581750106e+00   1.005555684800000e+01  1.21887673e+00  -7.36790640e-01   8.43394800e-02
C     6.053440179224999e+00   3.394450778855737e+00   1.021617366400000e+01  4.63133730e-01   1.42623067e+00  -6.58396170e-01
C     6.181234764149999e+00   2.277575938508271e+00   6.827247464000000e+00  6.38452320e-01  -2.70480371e+00   2.63423380e-01
C     7.426166560275000e+00   2.958265741972141e+00   6.792857144000000e+00  1.77062860e-01  -8.89149740e-01   4.19506000e-03
C     7.306625202075000e+00   2.706746840055859e+00   1.017684613600000e+01 -1.19060608e+00  -6.79983700e-01   2.97445650e-01
C     8.518102424924999e+00   3.419720315264253e+00   1.008360997600000e+01  1.26454819e+00  -1.35517416e+00  -5.35846450e-01
C     9.904952183699999e+00   4.400062782294379e+00   6.864124407999999e+00 -1.41839400e+00  -7.51108430e-01  -9.00143050e-01
C     3.735659161350000e+00   5.090894304462767e+00   6.917352360000000e+00  6.04048050e-01   3.07161420e-01  -1.20956810e-01
C     3.647055488175000e+00   4.816406211518702e+00   1.011380823200000e+01 -2.53988248e+00   1.21230448e+00   3.51514730e-01
C     4.857211594275000e+00   5.526057029664171e+00   1.018693638400000e+01 -6.84103860e-01   1.88158519e+00  -6.11541780e-01
C     4.981341513000000e+00   4.394813724467166e+00   6.826974104000000e+00 -9.54457450e-01  -7.15130540e-01  -9.88762400e-02
C     6.196658108925000e+00   5.134252859324589e+00   6.860946360000001e+00  1.49487840e-01  -3.47054479e+00  -1.33930680e-01
C     6.069471762750000e+00   4.853542773699220e+00   1.018491229600000e+01 -1.78280550e-01  -2.48791490e+00   2.71810080e-01
C     7.273883432850000e+00   5.529940251417583e+00   1.018710434400000e+01  1.69028696e+00   1.52943827e+00  -3.77048210e-01
C     7.414379004224999e+00   4.338828534808568e+00   6.850852168000000e+00  7.27662300e-01   3.44937602e+00  -1.29741910e-01
C     8.642522116725001e+00   5.123013514865447e+00   6.898520032000000e+00  5.55929420e-01  -2.09942445e+00  -1.37962980e-01
C     8.531986685325000e+00   4.817317665497337e+00   1.014880212000000e+01 -5.11008260e-01   1.00103132e+00   3.92538100e-01
C     9.750616463100000e+00   5.528124900484587e+00   1.022218064800000e+01  1.50860594e+00  -2.61220530e-01  -6.47243220e-01
