72
Lattice="7.395 0 0 3.6975 6.40425786098592 0 0 0 13.6 " PBC="1 1 1" Properties=species:S:1:pos:R:3:force:R:3 Energy="-579.56370379"
C     3.704761631175000e+00   6.389605622484686e+00   1.344588915200000e+01  2.44007690e-01  -7.12939320e-01   4.70915180e-01
C     1.196959321875000e+00   7.295491675293823e-01   1.344052871200000e+01  1.48756346e+00  -1.93046649e+00   6.23222250e-01
C     1.231391440200000e+00   7.427925964006549e-01   3.396078032000000e+00  1.69189542e+00  -5.25224670e-01   5.61793470e-01
C     2.476725746175000e+00   1.483482226647821e+00   3.395405104000000e+00  6.41563910e-01  -2.23072569e+00   2.84443610e-01
C     6.086368154550000e+00   6.376160971831451e+00   1.350315970400000e+01  3.41604933e+00   6.79992060e-01  -3.91744970e-01
C     3.709658415300000e+00   7.325681987271648e-01   1.337979505600000e+01 -9.78545960e-01  -2.38658894e+00   1.72599426e+00
C     3.722610425025000e+00   7.388289371685223e-01   3.465189287999999e+00 -1.89147392e+00  -6.59257230e-01   2.24178100e-02
C     4.900165488750000e+00   1.453029788395786e+00   3.482249808000000e+00  2.83783847e+00   3.25117700e-01   4.77696680e-01
C     8.664561324299999e+00   6.395063010820084e+00   1.345659480000000e+01 -1.34661179e+00  -7.14890010e-01   2.53474700e-01
C     6.213738340425000e+00   6.903302609056855e-01   1.350813159200000e+01 -3.07738498e+00   1.15631660e+00   3.67332800e-01
C     6.172704705600000e+00   7.628730188355277e-01   3.492479320000000e+00  7.03826680e-01  -1.19819281e+00   2.74587050e-01
C     7.458106156875000e+00   1.472677218956744e+00   3.428566936000000e+00 -3.74911298e+00  -1.46019345e+00  -1.24306100e-02
C     1.251934713225000e+00   2.122148122587893e+00   1.347169624000000e+01 -1.47343989e+00   5.66920550e-01  -5.41079030e-01
C     2.454546588225000e+00   2.828173106103345e+00   1.328935383200000e+01  1.53336600e-01   4.51760910e-01   1.78404418e+00
C     2.522525828250000e+00   2.870640188271055e+00   3.428947056000000e+00 -2.77254102e+00   1.68280581e+00  -1.69104050e-01
C     3.742352375849999e+00   3.608637020215828e+00   3.477282272000000e+00 -4.95586630e-01  -2.17593461e+00   6.90815270e-01
C     3.684271528200000e+00   2.138882896674124e+00   1.346624726400000e+01  6.80132380e-01  -5.50387760e-01  -1.49250018e+00
C     4.934443569224999e+00   2.821880282330109e+00   1.353555327200000e+01 -1.22924523e+00   1.12034532e+00   9.67700510e-01
C     4.956701373000000e+00   2.871472357537384e+00   3.580838112000000e+00 -3.63121500e-01   8.02286400e-01  -1.64478235e+00
C     6.197639869125000e+00   3.589748109955808e+00   3.472143920000000e+00 -2.55019381e+00   6.70400700e-02   3.19061430e-01
C     6.135091406174999e+00   2.159197266648622e+00   8.103233600000000e-02  1.83744618e+00  -3.10638330e+00  -1.41524525e+00
C     7.394345727375000e+00   2.813557308815253e+00   1.901239200000000e-02  2.79877240e-01   1.65546650e-01  -2.62274180e-01
C     7.358601920925000e+00   2.861654566195425e+00   3.388494400000000e+00  3.40498691e+00   1.26418363e+00   4.37771910e-01
C     8.585530034925000e+00   3.594431671813983e+00   3.426725088000000e+00  2.74692329e+00  -5.09631320e-01  -5.15826090e-01
C     9.822984154949999e+00   4.253026529490539e+00   1.335288392000000e+01  2.74330906e+00  -9.13456200e-01   5.00520420e-01
C     3.715330121475000e+00   4.953498060802692e+00   1.344060568800000e+01 -1.51415072e+00   6.52886420e-01  -7.64489000e-03
C     3.714468345150000e+00   4.986412039605796e+00   3.530015320000000e+00 -2.54693730e-01   1.63184863e+00  -2.89028100e-02
C     4.926261408449999e+00   5.690239081823697e+00   3.495657776000000e+00  7.59994380e-01   1.97102159e+00  -4.08660270e-01
C     4.928408139975000e+00   4.256697770308785e+00   1.668448000000000e-03 -6.38963790e-01  -1.02205569e+00  -5.98516550e-01
C     6.137218393049999e+00   4.942189486316082e+00   6.142208799999999e-02  1.26194849e+00   1.17974040e+00  -9.88675140e-01
C     6.171042975150000e+00   5.018873941846565e+00   3.463117872000000e+00  6.49687590e-01  -9.14982770e-01   4.13381360e-01
C     7.425999322350000e+00   5.693765906627199e+00   3.518438320000000e+00 -1.34513627e+00   2.29249984e+00  -1.17803918e+00
C     7.400899102424999e+00   4.202252740622938e+00   1.358303427200000e+01 -9.85115490e-01   1.84760899e+00   4.80434000e-01
C     8.624843112074998e+00   4.899309073346088e+00   1.349370457600000e+01 -8.38582390e-01   3.45977501e+00  -5.71901620e-01
C     8.639194181850000e+00   5.026242937110596e+00   3.435850416000000e+00  4.24443630e-01  -1.53496863e+00   1.18230295e+00
C     9.884905300049999e+00   5.714719613663861e+00   3.572076720000000e+00 -3.92470140e-01   1.22758895e+00  -1.29971518e+00
C     3.699654274425000e+00   6.398141985871436e+00   7.079927167999999e+00  6.98606100e-02   1.99157823e+00  -1.52341210e+00
C     1.268240947050000e+00   7.216288297061844e-01   6.874210984000000e+00 -1.81926433e+00   6.20847500e-01  -2.87350900e-02
C     1.276523679825000e+00   6.883650503387658e-01   1.020881497600000e+01 -4.91168489e+00  -9.19547580e-01  -4.73526510e-01
C     2.446502713950000e+00   1.379214440386583e+00   1.022339077600000e+01  1.13468036e+00   1.41169899e+00  -5.97522390e-01
C     2.469628801650000e+00   7.956009539478000e-03   6.719686560000000e+00  7.42851510e-01   2.72090670e-01  -1.21940300e-02
C     3.715152086850000e+00   7.178220107490432e-01   6.597916511999999e+00 -7.69279700e-02   4.50057440e-01   1.26251411e+00
C     3.666490546500000e+00   6.685714746134425e-01   1.029411281600000e+01  1.42094360e+00   5.86217150e-01   1.14610496e+00
C     4.922150897700000e+00   1.382830924800125e+00   1.035258411200000e+01 -1.47840951e+00   9.83119430e-01  -2.18680138e+00
C     4.954049895750000e+00   6.094419864733200e-03   6.866354264000000e+00 -1.82727915e+00   8.75684450e-01  -1.19311138e+00
C     6.139646948025001e+00   7.032965775393558e-01   6.943324144000000e+00  2.68475666e+00   1.96634291e+00   6.05991130e-01
C     6.133913308724999e+00   7.061943761358487e-01   1.024836812800000e+01  1.41542320e-01  -1.35303332e+00   6.41360660e-01
C     7.316750066324999e+00   1.429210880435138e+00   1.015136708000000e+01  4.00763949e+00  -2.89010625e+00   4.54943530e-01
C     8.619717785475000e+00   2.184011204152978e+00   6.786274336000000e+00  1.19107671e+00  -2.42195179e+00   6.46716600e-01
C     2.469896500650000e+00   2.861702662171953e+00   6.746789728000000e+00  5.88255410e-01   2.16891520e-01  -9.19311220e-01
C     2.438019687600000e+00   2.822832915686784e+00   1.010336193600000e+01  5.88965470e-01  -1.28738080e-01   4.86530680e-01
C     3.690396030225000e+00   3.539583814308742e+00   1.008163484800000e+01 -1.17784775e+00  -1.23910995e+00   2.06127010e-01
C     3.711265607625000e+00   2.162948752817853e+00   6.569470344000000e+00 -4.05232400e-01  -8.05402860e-01   1.37631571e+00
C     4.935705599925000e+00   2.893584786948656e+00   6.703325080000000e+00  7.01775410e-01  -2.02991168e+00   6.14874540e-01
C     4.922058977850000e+00   2.801652626007035e+00   1.009183920000000e+01  1.36695650e-01   3.54857950e-01   1.24761417e+00
C     6.158741022899999e+00   3.513471925863900e+00   1.014957772800000e+01 -7.76303980e-01   1.00818487e+00   5.59056760e-01
C     6.196350439950000e+00   2.168627088049422e+00   6.892567583999999e+00 -2.61081524e+00  -1.65879438e+00  -1.03784388e+00
C     7.391859343500000e+00   2.840918155627953e+00   6.857625512000000e+00  7.32437250e-01   2.87053975e+00  -1.21470380e-01
C     7.377930897974999e+00   2.782074489516122e+00   1.018237929600000e+01 -3.69415260e-01   3.06625699e+00  -2.96395430e-01
C     8.604885449099999e+00   3.531000507711878e+00   1.016300460000000e+01  6.30108780e-01   4.88016000e-02   6.66757790e-01
C     2.503546745625000e+00   4.281505047384965e+00   6.840415935999999e+00 -2.77579809e+00   2.44659190e-01   5.62001000e-01
C     3.658136156175000e+00   5.013930815417324e+00   6.971783095999999e+00  3.50621359e+00  -1.58873010e+00  -7.72695230e-01
C     3.625822298625000e+00   4.936600810694553e+00   1.015038883200000e+01  3.05225649e+00   8.22273870e-01  -1.40754180e-01
C     4.902681230774999e+00   5.652059266037785e+00   1.017286555200000e+01  4.61904600e-02   8.33164690e-01   6.50820770e-01
C     4.938707674125000e+00   4.263328738897028e+00   6.822007112000000e+00 -8.07280520e-01   2.36361820e+00   1.07266900e-02
C     6.180053117100000e+00   4.977139826990932e+00   6.747880311999999e+00 -1.39856808e+00   1.09045798e+00   7.69918450e-01
C     6.129800579475000e+00   4.971127445669385e+00   1.029053193600000e+01  1.23106269e+00  -1.48547605e+00  -5.63207770e-01
C     7.403656217249999e+00   5.678989618637135e+00   1.044151600800000e+01 -1.66985514e+00  -8.36074150e-01  -1.46964659e+00
C     7.391730337725001e+00   4.327019595655357e+00   6.800037127999999e+00  1.41498441e+00  -2.44048858e+00  -5.40332000e-03
C     8.642326408050000e+00   5.022222215940930e+00   6.862789432000000e+00  7.29918600e-02  -1.96552260e+00  -1.31395560e-01
C     8.637336927600000e+00   4.965470628744226e+00   1.034513090400000e+01 -1.05146490e+00  -8.97131100e-01  -4.47951960e-01
C     9.853380045300000e+00   5.667542007712385e+00   1.028687761600000e+01 -1.00611129e+00   5.43659180e-01  -3.64911710e-01
