72
Lattice="7.395 0 0 3.6975 6.40425786098592 0 0 0 13.6 " PBC="1 1 1" Properties=species:S:1:pos:R:3:force:R:3 Energy="-580.40320287"
C     3.696660186825000e+00   6.210383747124157e+00   5.893424000000000e-02 -4.60007600e-01   2.72023953e+00  -5.26284940e-01
C     1.220284926675000e+00   5.820015987779994e-01   1.358152412800000e+01 -2.97177170e-01  -9.59158510e-01   4.63910410e-01
C     1.346845914675000e+00   8.862830037551491e-01   3.321021672000000e+00 -1.19927529e+00   4.61096380e-01   3.71139880e-01
C     2.542198672800000e+00   1.659885267911271e+00   3.191082104000000e+00  2.91367870e-01  -1.79424428e+00   3.96657700e-01
C     6.130632516975000e+00   6.252464716585488e+00   1.130291920000000e-01  3.24495000e-01   6.82749900e-02  -1.71464340e-01
C     3.657905764950000e+00   5.852545134728293e-01   1.163519440000000e-01  1.26398661e+00  -5.77949850e-01  -7.91282380e-01
C     3.768306052725000e+00   9.018279307735699e-01   3.282763920000000e+00  5.67531810e-01   3.54955600e-02   7.59506960e-01
C     5.014712966475000e+00   1.605865801160221e+00   3.470527832000000e+00 -7.13153490e-01  -2.41685340e-01  -1.10552594e+00
C     8.636862612300000e+00   6.277322523256185e+00   1.731522080000000e-01 -1.84010980e+00  -1.29393653e+00  -7.37330480e-01
C     6.153480885450000e+00   5.770976664068616e-01   1.218596720000000e-01  6.86628350e-01  -1.52273366e+00   2.81058200e-02
C     6.240566586975000e+00   8.871396372865027e-01   3.555283848000000e+00 -1.91224110e-01   1.41572112e+00  -4.35198770e-01
C     7.466510426474999e+00   1.567873181831557e+00   3.412591560000000e+00  1.72610081e+00   2.34426447e+00  -2.68926330e-01
C     1.204323854475000e+00   2.026454548877359e+00   1.352438196000000e+01  2.27285830e-01  -2.20490171e+00   2.22129120e-01
C     2.401386965175000e+00   2.730985419034072e+00   1.343441401600000e+01  2.73768594e+00  -1.58539254e+00   3.05819720e-01
C     2.533751992875000e+00   3.069018671870151e+00   3.212807424000000e+00  1.83427953e+00  -7.84713820e-01   1.00716870e+00
C     3.803896967550000e+00   3.718667037486602e+00   3.456345480000000e+00 -1.46496831e+00   2.30489772e+00  -9.80182950e-01
C     3.678194502075000e+00   1.991602449518082e+00   1.348263444800000e+01 -6.99483100e-02   2.56506770e-01   1.78897645e+00
C     4.939390232625000e+00   2.694885001732724e+00   1.432396880000000e-01 -1.42101414e+00  -4.33835890e-01  -1.09222562e+00
C     5.025102497774999e+00   3.035414378112316e+00   3.386518592000000e+00 -8.05710120e-01  -1.38290255e+00   1.11582807e+00
C     6.215476904925000e+00   3.745759289724652e+00   3.434737120000000e+00  2.64576470e+00  -5.47127050e-01  -3.74468340e-01
C     6.171825181274999e+00   1.981171706656342e+00   1.940760800000000e-01 -1.36019167e+00  -3.39596680e-01  -3.97375550e-01
C     7.381548753824998e+00   2.670894395618849e+00   1.244478880000000e-01 -4.21940400e-02   2.02565370e-01   3.80909930e-01
C     7.492594662074999e+00   3.064443341969810e+00   3.333409640000000e+00 -1.73146018e+00  -2.70580777e+00   2.93263380e-01
C     8.712806600100000e+00   3.748026973390299e+00   3.256606768000000e+00 -2.05646330e-01   7.46533510e-01   9.47684490e-01
C     2.471512456050000e+00   4.111815717721312e+00   1.351960332800000e+01 -1.93331026e+00   1.22476647e+00   7.04194000e-02
C     3.685874468400000e+00   4.819571003625378e+00   1.356674922400000e+01  3.63311960e-01  -1.52024230e-01   6.50048390e-01
C     3.822658304400000e+00   5.187161315422086e+00   3.569110696000000e+00 -1.18769217e+00  -1.00987549e+00  -5.31982780e-01
C     5.067173540174999e+00   5.860955142107466e+00   3.482194184000000e+00 -1.66051993e+00   1.34098927e+00  -3.29011090e-01
C     4.905182293725000e+00   4.119521128650728e+00   1.333558880000000e-01  1.86967400e-01  -6.13030600e-01  -3.18844680e-01
C     6.107725764974999e+00   4.817172288843915e+00   2.394089600000000e-01  2.08086697e+00   4.61768500e-02   7.56015700e-02
C     6.248186542875000e+00   5.140427204327415e+00   3.417609688000000e+00  4.09148610e-01   3.25253820e-01  -2.60983560e-01
C     7.458209169224999e+00   5.850610472471365e+00   3.328930072000000e+00  1.49398139e+00   1.01370056e+00   8.03979230e-01
C     7.378053987750000e+00   4.033822488054559e+00   2.989205200000000e-01 -4.12912000e-02   4.40073439e+00  -1.99391091e+00
C     8.616156649275000e+00   4.803172965417427e+00   5.916203999999999e-02 -4.07641180e-01   8.77276430e-01   1.32193332e+00
C     8.715419808225001e+00   5.145347467556096e+00   3.448663248000000e+00 -1.82619700e-02   1.99287360e+00  -7.23729530e-01
C     9.947921127000001e+00   5.920131189202230e+00   3.564302688000000e+00  2.00626210e-01  -3.60780925e+00  -2.54842580e-01
C     7.410360635175000e+00   1.114137852665838e-01   6.908434568000000e+00  1.59128352e+00  -1.99794160e-01  -2.28583800e-01
C     1.253135772150000e+00   8.323383387359041e-01   6.779959992000000e+00 -7.67260600e-02   1.12800470e-01   1.20687980e-01
C     1.126979475525000e+00   5.520164792220078e-01   1.012040328000000e+01  5.50611200e-01   7.05769710e-01   4.21963320e-01
C     2.335186111725000e+00   1.260945793676969e+00   9.935417712000000e+00  1.69749190e+00   3.31726840e-01   9.18103790e-01
C     2.494580308125000e+00   1.422541294171998e-01   6.796836640000000e+00  9.67253600e-02  -1.34728839e+00   2.12087130e-01
C     3.745842076350000e+00   8.277746645848680e-01   6.782971576000000e+00 -2.56815720e-01  -6.27017540e-01  -3.46233800e-02
C     3.621277146749999e+00   5.356467478337976e-01   1.006498504800000e+01 -1.52667005e+00   1.27167537e+00  -6.03483090e-01
C     4.861802669099999e+00   1.262989840658146e+00   1.007284435200000e+01 -1.46532766e+00  -1.70105410e-01   9.04643180e-01
C     4.982028064799999e+00   9.353521072655761e-02   6.905943047999999e+00  2.73335930e-01   1.51446305e+00  -2.91820000e-02
C     6.238806650925000e+00   8.360082987025771e-01   6.948268423999999e+00 -2.64637817e+00   2.90704660e-01  -1.04840468e+00
C     6.051988060049999e+00   5.892500018665260e-01   1.027430414400000e+01  1.15417388e+00  -1.65567740e+00  -4.96409950e-01
C     7.307052928875000e+00   1.260416289637105e+00   1.026804025600000e+01 -6.15986900e-01   7.99888950e-01  -8.80302600e-01
C     8.638646249324999e+00   2.251040088193097e+00   6.703971896000000e+00  3.40824130e-01   9.48384360e-01  -2.49300080e-01
C     2.512725345675000e+00   2.960656579516436e+00   6.610921375999999e+00 -1.65773713e+00  -3.78726610e-01   1.45916556e+00
C     2.351238697050000e+00   2.728826735837202e+00   9.901090360000000e+00  8.30427520e-01  -2.56688501e+00   6.57550810e-01
C     3.589287153225000e+00   3.384801739708389e+00   9.952993127999999e+00  1.10822571e+00   1.19221861e+00   9.74879370e-01
C     3.719448470925000e+00   2.236167608249976e+00   6.683082568000001e+00  1.11788911e+00   7.89990900e-01   8.34614400e-02
C     4.960828115775000e+00   2.978338735467896e+00   6.746197720000000e+00 -8.47937800e-01  -1.40604898e+00   1.75269620e-01
C     4.843929656624999e+00   2.661709793251509e+00   1.009885095200000e+01 -1.51369985e+00   1.20541702e+00  -5.43561220e-01
C     6.027865015424999e+00   3.382910050021703e+00   1.023124423200000e+01  2.11495911e+00   7.79619240e-01  -5.84066570e-01
C     6.192905257350000e+00   2.266333776175669e+00   6.788887168000000e+00  3.56653180e-01   2.55114060e-01   4.49494410e-01
C     7.404353639699999e+00   3.017748040677771e+00   6.747737784000000e+00  7.87682260e-01  -1.71291802e+00   2.73443720e-01
C     7.300828298550000e+00   2.671764414049131e+00   1.018378893600000e+01  4.02189710e-01   1.39087288e+00   4.47454650e-01
C     8.578516432050000e+00   3.428752560337105e+00   1.010367691200000e+01 -3.06230384e+00  -6.43918810e-01  -2.91867700e-01
C     9.868592225850000e+00   4.378415878386951e+00   6.831691671999999e+00  1.26081498e+00  -7.44835440e-01  -8.48559030e-01
C     3.694225604925000e+00   5.090082052438383e+00   6.863082375999999e+00  4.48528100e-01   1.41123060e-01   1.47719630e-01
C     3.577413741225000e+00   4.813643927018527e+00   1.012762787200000e+01  7.68820950e-01   6.26232670e-01   3.43766220e-01
C     4.840488023624999e+00   5.563903631913628e+00   1.021701564000000e+01 -1.05238464e+00  -2.12032066e+00  -7.43376290e-01
C     4.917955677225000e+00   4.370943838613953e+00   6.825431320000000e+00  1.69042795e+00   1.17899291e+00  -1.26578250e-01
C     6.193739857050000e+00   5.089177835271130e+00   6.870376872000000e+00 -1.57939957e+00   1.63490453e+00  -4.93319600e-01
C     6.051453808274999e+00   4.834064415545765e+00   1.019255100800000e+01  3.99969630e-01  -4.14841270e-01   2.58763740e-01
C     7.305663962999999e+00   5.540443234307983e+00   1.017068792000000e+01 -4.96889280e-01  -5.80740900e-01  -4.26042200e-02
C     7.418499978900000e+00   4.432103028197645e+00   6.824330400000000e+00  2.15964560e-01  -1.33428741e+00  -9.04363200e-02
C     8.676013073400000e+00   5.088714935513009e+00   6.881640392000000e+00 -1.23450791e+00   8.63108550e-01  -1.21614900e-01
C     8.552246286150000e+00   4.840254579065506e+00   1.016050668800000e+01 -1.36827703e+00  -2.91266250e-01   1.86985820e-01
C     9.732255047850000e+00   5.553206920222963e+00   1.021445367200000e+01  2.07445004e+00   1.63424180e-01  -2.87163010e-01
