72
Lattice="7.395 0 0 3.6975 6.40425786098592 0 0 0 13.6 " PBC="1 1 1" Properties=species:S:1:pos:R:3:force:R:3 Energy="-581.87234542"
C     3.687321706875000e+00   6.360966421760550e+00   1.336776912000000e+01  1.05181071e+00  -7.92227350e-01   5.28078800e-01
C     1.278212993625000e+00   6.595725316814635e-01   1.339500624800000e+01 -1.75942691e+00   2.03495480e-01   1.91366720e-01
C     1.277789371050000e+00   8.069367465303146e-01   3.560418936000000e+00  7.62278200e-02  -5.12842990e-01  -1.46239200e-01
C     2.476282046175000e+00   1.550012731341274e+00   3.543769000000000e+00  1.31843443e+00  -1.83436077e+00  -1.07907240e-01
C     6.225371267024999e+00   6.347763275671218e+00   1.341824008000000e+01 -3.50483553e+00   1.00879661e+00  -2.37627240e-01
C     3.701344845375000e+00   6.542505933998034e-01   1.336487245600000e+01 -6.59357390e-01   1.32977566e+00   9.04214500e-01
C     3.721207963274999e+00   8.119107414824406e-01   3.514969639999999e+00 -6.84406840e-01  -1.38039798e+00   1.73433110e-01
C     4.977687976275000e+00   1.471633581095878e+00   3.495508448000000e+00 -1.51474226e+00   3.55419570e-01   5.93586240e-01
C     8.568389756024999e+00   6.361179811632446e+00   1.342788887200000e+01  2.85473285e+00  -7.54608190e-01  -9.53095200e-02
C     6.128590276800000e+00   6.083173987931040e-01   1.340827141600000e+01  1.11066650e+00   1.77875755e+00  -3.26746800e-02
C     6.177425451750000e+00   7.578280006637341e-01   3.537429496000000e+00  1.33699398e+00   6.80279290e-01   1.70038400e-01
C     7.419068321625000e+00   1.465795843886174e+00   3.557054296000000e+00  1.84836300e-01   1.01162340e+00  -2.32799730e-01
C     1.223237047650000e+00   2.084131999632883e+00   1.341224139200000e+01  3.44469980e-01   5.31523650e-01  -3.75564450e-01
C     2.469563836575000e+00   2.823875208653499e+00   1.339494518400000e+01 -9.61785550e-01  -6.44795050e-01   5.32811310e-01
C     2.490389154900000e+00   2.937001108216375e+00   3.534712488000000e+00 -6.74640700e-02   1.34095652e+00  -1.67679300e-01
C     3.696782574074999e+00   3.650855873348884e+00   3.506296920000000e+00  2.55063458e+00  -1.84735760e-01   6.31364140e-01
C     3.677805488100000e+00   2.066464701559659e+00   1.343458456000000e+01  7.93704010e-01   1.52309032e+00  -9.42954050e-01
C     4.931226966074999e+00   2.771640032184824e+00   1.336465594400000e+01 -5.23792560e-01   8.01145400e-01   8.00475020e-01
C     4.945302202350000e+00   2.873468692797503e+00   3.584161816000000e+00  3.01428180e-01   2.03884417e+00  -1.09599927e+00
C     6.195476092124999e+00   3.586984544604061e+00   3.555557208000000e+00 -4.63417590e-01   7.68771820e-01  -1.12682170e-01
C     6.163383419024999e+00   2.040496396576037e+00   1.339072959200000e+01 -1.00079900e+00   5.98869630e-01  -2.19493810e-01
C     7.356212115750000e+00   2.783808698502031e+00   1.335288963200000e+01  1.38989514e+00   7.75809640e-01   3.54427400e-01
C     7.441232985374999e+00   2.905648103224066e+00   3.529262968000000e+00 -3.05245600e-02   1.97305160e-01   2.81894820e-01
C     8.687005556024999e+00   3.669144512519686e+00   3.540154256000000e+00 -1.79453628e+00  -1.39940886e+00  -2.44880340e-01
C     9.848225767275000e+00   4.254029628399151e+00   1.340906307200000e+01 -5.72807660e-01  -9.62288270e-01   1.09912460e-01
C     3.686160248175000e+00   4.920202836529181e+00   1.338100627200000e+01  2.28420200e-02   1.26262597e+00   2.12112890e-01
C     3.759324751275000e+00   5.094781112600580e+00   3.532713016000000e+00 -5.64272900e-02  -1.24238869e+00   1.08160740e-01
C     5.036217034874999e+00   5.791225966783258e+00   3.531195664000000e+00 -2.96053167e+00  -3.81632070e-01   6.14772800e-02
C     4.907137716599999e+00   4.229902419465123e+00   1.339533876800000e+01  8.12250210e-01  -1.16873470e+00  -1.05906860e-01
C     6.140868343199999e+00   4.968622035951975e+00   1.341193376000000e+01  2.77543030e-01  -1.93107091e+00  -3.67042220e-01
C     6.197022386624999e+00   5.035506760147664e+00   3.527446687999999e+00  1.07275549e+00  -6.59524060e-01   2.66569770e-01
C     7.411395639375000e+00   5.756013179621305e+00   3.559327536000000e+00  9.45260180e-01   1.21602178e+00  -6.23456890e-01
C     7.359645983999998e+00   4.261079371408861e+00   1.334535400800000e+01  4.40440720e-01  -2.16200858e+00   9.05313010e-01
C     8.596209782999999e+00   4.964456194299202e+00   1.344593389600000e+01 -1.15386040e-01  -1.44037632e+00  -7.03171350e-01
C     8.676973572974999e+00   5.074082295026745e+00   3.536004080000000e+00 -1.06089585e+00  -4.41273800e-01   4.30284870e-01
C     9.895707768150000e+00   5.760885474958614e+00   3.588912023999999e+00  8.36706870e-01   4.09992380e-01  -8.12444590e-01
C     5.636668665000000e-02   3.728917564532160e-02   6.799424448000000e+00 -2.06359206e+00   6.14896180e-01   9.96735300e-02
C     1.249714142625000e+00   7.515758439279091e-01   6.838873968000001e+00 -3.59030900e-02   1.35683451e+00  -4.34703900e-02
C     1.194225464325000e+00   6.164237162645563e-01   1.025459135200000e+01 -9.61341600e-01   1.00074400e+00  -5.75846360e-01
C     2.391191848425000e+00   1.342504657949856e+00   1.019618180000000e+01  1.81410451e+00  -5.99178200e-02  -9.18643300e-02
C     2.464840650075000e+00   7.319483946514740e-02   6.861732167999999e+00  1.76716646e+00  -6.47238340e-01  -6.46000600e-02
C     3.753478671000000e+00   7.347003042539161e-01   6.853893400000000e+00 -5.87123660e-01  -2.77198770e-01   3.43058530e-01
C     3.646939682475000e+00   6.382340568325723e-01   1.013105534400000e+01  4.79637700e-02  -6.29354290e-01   1.21557533e+00
C     4.886139725024999e+00   1.362133964461070e+00   1.024746318400000e+01 -3.87047220e-01  -9.62318750e-01  -1.09948318e+00
C     5.006158356525000e+00   4.941839173411140e-02   6.899515823999999e+00 -1.14078730e+00  -4.73629760e-01  -8.27718560e-01
C     6.215466145200000e+00   7.930521874046773e-01   6.818738352000000e+00  2.22161800e-01  -7.51420300e-01   4.22750590e-01
C     6.144747871124999e+00   6.532169461811995e-01   1.020260317600000e+01 -1.15826768e+00  -1.42996400e-02   3.46744350e-01
C     7.363636769699999e+00   1.363014870129713e+00   1.023553979200000e+01  6.04954700e-01   2.56096200e-02   2.83082500e-02
C     8.618361690374998e+00   2.193772702068348e+00   6.845464256000000e+00  1.00175881e+00  -1.00787265e+00   1.72234020e-01
C     2.483279490975000e+00   2.840487469286868e+00   6.899617280000000e+00  1.83566880e-01   8.77135880e-01  -9.72675610e-01
C     2.431196395050000e+00   2.756109770916903e+00   1.021471030400000e+01 -5.25352400e-01   1.01985544e+00   1.80531200e-02
C     3.666013236225000e+00   3.466239179252250e+00   1.024605966400000e+01 -1.45973403e+00   1.25629162e+00  -4.11151130e-01
C     3.740129993475000e+00   2.131787043007822e+00   6.852546183999999e+00 -1.41691826e+00   8.10833310e-01   3.68479970e-01
C     4.918008958200000e+00   2.872303245952140e+00   6.870744343999999e+00  1.90584887e+00   1.12630503e+00  -6.09246900e-02
C     4.854452482799999e+00   2.776526929230054e+00   1.023069696800000e+01  2.41339681e+00  -4.89763620e-01   1.83877280e-01
C     6.108872766450000e+00   3.496323116507021e+00   1.021560708800000e+01  3.59090220e-01  -1.27998570e+00   2.44926560e-01
C     6.194286347550000e+00   2.223498128968116e+00   6.847254288000000e+00 -7.63740580e-01  -1.42148559e+00  -2.36313860e-01
C     7.415791338299999e+00   2.916739829539536e+00   6.812832688000000e+00 -5.57469880e-01   1.06493051e+00   3.34119320e-01
C     7.390540667100000e+00   2.803552385058626e+00   1.023721544800000e+01 -1.84416646e+00  -8.05246270e-01  -3.55221630e-01
C     8.601354854249999e+00   3.512911169045679e+00   1.020552731200000e+01  9.56394800e-02  -1.08824562e+00   2.91240730e-01
C     2.472921832125000e+00   4.262998663446924e+00   6.805061648000001e+00 -1.18324800e-01   1.21487322e+00   6.73930510e-01
C     3.691818717300000e+00   5.034232761131575e+00   6.803404080000000e+00  7.75842120e-01  -1.62877849e+00   3.22909440e-01
C     3.669759876000000e+00   4.914969853389196e+00   1.022835341600000e+01 -1.32252133e+00  -5.67406640e-01  -1.52046730e-01
C     4.891126986974999e+00   5.615342118704518e+00   1.022256512000000e+01 -6.68903570e-01  -8.04916300e-02   1.82480820e-01
C     4.933861804574999e+00   4.302363459064671e+00   6.878385775999999e+00 -4.82734520e-01   9.76397000e-01  -4.29168460e-01
C     6.160883243475000e+00   5.067944966634350e+00   6.862932504000000e+00 -5.49706590e-01  -1.39564730e+00   1.03208950e-01
C     6.091873695075000e+00   4.888873463248375e+00   1.022749716000000e+01  8.51674510e-01   3.62926910e-01  -3.15153440e-01
C     7.328099579549999e+00   5.577760460602731e+00   1.019752208000000e+01 -3.86760490e-01   2.44458610e+00  -2.85754960e-01
C     7.387686308025000e+00   4.358591306053585e+00   6.840857528000001e+00  5.35479560e-01  -9.18033570e-01   8.28595700e-02
C     8.632199214374999e+00   5.012219725802289e+00   6.852190000000000e+00  1.34910603e+00   4.97683680e-01  -7.17844200e-02
C     8.539992512325000e+00   4.914678907954616e+00   1.021021577600000e+01  2.71500216e+00   2.86954000e-01  -1.79188790e-01
C     9.815883956624999e+00   5.633564922104520e+00   1.019750725600000e+01 -1.46028600e-01  -3.16859240e-01   9.90796700e-02
