72
Lattice="7.395 0 0 3.6975 6.40425786098592 0 0 0 13.6 " PBC="1 1 1" Properties=species:S:1:pos:R:3:force:R:3 Energy="-576.04974527"
C     3.652955478000000e+00   6.217196788763361e+00   3.524741920000000e-01 -8.46918690e-01  -1.79994629e+00  -1.66158869e+00
C     1.114792478550000e+00   5.374604336597496e-01   3.007456400000000e-01  4.23320052e+00  -2.87988868e+00   7.12650300e-02
C     1.424157681675000e+00   1.025475577702376e+00   3.442799472000000e+00 -1.01802703e+00   8.81698560e-01  -2.14216540e-01
C     2.698736624400000e+00   1.681816264697369e+00   3.577169648000000e+00 -1.61792729e+00   2.19371133e+00  -1.06332918e+00
C     6.074655546824999e+00   6.170946071051963e+00   1.857041920000000e-01  2.08734822e+00  -6.70027600e-02  -7.15027200e-02
C     3.678276253800000e+00   4.839149460329184e-01   2.768634960000000e-01 -5.04966960e-01  -5.75646080e-01  -1.25025466e+00
C     3.911733926475000e+00   1.032912458099722e+00   3.427724416000000e+00  4.81275460e-01   2.52980500e-02   1.49969840e-01
C     5.097029077875000e+00   1.821144672953806e+00   3.348843056000000e+00  2.50456272e+00  -1.82269893e+00  -1.10315533e+00
C     8.624100284324999e+00   6.166348326249111e+00   1.703448960000000e-01  7.86278400e-02   8.79208330e-01  -4.33421810e-01
C     6.199155807149999e+00   5.742116516448312e-01   1.271775440000000e-01 -3.84022054e+00  -2.12668286e+00   9.26600600e-01
C     6.362718786899999e+00   1.127707066134449e+00   3.187221608000000e+00 -2.03302180e-01  -2.49184543e+00   9.91011840e-01
C     7.612136242125000e+00   1.865320218990828e+00   3.388505280000000e+00 -1.57364991e+00  -6.46204148e+00  -6.84008780e-01
C     1.184965741125000e+00   1.914626856425283e+00   3.789577440000000e-01  8.37977030e-01   1.76600360e-01  -1.20407163e+00
C     2.465180857050000e+00   2.565946349087722e+00   4.830919920000000e-01 -1.38243157e+00   2.18767123e+00  -9.10533320e-01
C     2.698967200500000e+00   3.168309837433541e+00   3.496916320000000e+00 -2.51592511e+00  -1.63428463e+00   3.53772850e-01
C     3.890675813550000e+00   3.881868917980654e+00   3.313153528000000e+00  5.07661820e-01  -1.48401530e+00  -3.50937320e-01
C     3.700427902350000e+00   1.949092458822709e+00   3.032261440000000e-01 -8.25228750e-01  -2.69461427e+00   8.68364700e-01
C     4.884228191475000e+00   2.677995820989489e+00   1.818534880000000e-01  1.24710336e+00  -2.41056788e+00  -1.00721825e+00
C     5.159148482925000e+00   3.212327390429157e+00   3.229307216000000e+00 -7.01452650e-01   1.29812580e+00   1.55783882e+00
C     6.404617082100000e+00   3.975559752173210e+00   3.336121888000000e+00 -3.28055633e+00  -1.72957868e+00  -4.54330000e-03
C     6.135684522150000e+00   2.002479248939770e+00   3.277477600000000e-02  2.05386790e-01  -2.86882950e+00   3.79185310e-01
C     7.400375092725000e+00   2.596662130422961e+00   4.111524800000000e-02 -3.70948540e-01   2.07015532e+00   1.57429818e+00
C     7.531650208350000e+00   3.188239247468075e+00   3.527055416000000e+00  2.88220035e+00   3.47502583e+00  -4.60851220e-01
C     8.790584991599999e+00   3.850506370644134e+00   3.532467400000000e+00  2.25219137e+00   1.67426298e+00  -6.07967500e-01
C     2.431218247275000e+00   4.015472175880565e+00   4.745987920000000e-01  7.58979100e-01  -6.97200440e-01  -1.82965675e+00
C     3.668425189425000e+00   4.710679599359534e+00   3.852924880000000e-01  1.92600630e-01   2.53454926e+00  -9.00691080e-01
C     3.831539921250000e+00   5.239372924221836e+00   3.131622768000000e+00  3.63299660e-01   2.68670941e+00   9.38516980e-01
C     5.015718353700000e+00   6.007800355899342e+00   3.266633640000000e+00  3.21782828e+00   1.06627855e+00   5.68188080e-01
C     4.903272091274999e+00   4.027539975136478e+00   1.123007760000000e-01 -4.31170520e-01   2.53376370e+00   6.78109790e-01
C     6.169842877575000e+00   4.693253485637316e+00   1.354801617600000e+01 -1.66795180e+00   3.36260147e+00   1.83602051e+00
C     6.342423209400000e+00   5.382625541481989e+00   3.385677432000000e+00 -6.31353910e-01  -1.08639965e+00  -5.92865860e-01
C     7.612465245675001e+00   6.018851223049666e+00   3.397197856000000e+00 -1.44483637e+00   1.58858763e+00   1.84335000e-01
C     7.403227972800000e+00   4.013184126674924e+00   6.765143200000000e-02 -1.99211670e-01   4.42091190e-01  -1.14844094e+00
C     8.626826007375001e+00   4.702234176434395e+00   1.203397360000000e-01  2.86029920e-01   2.25138322e+00   1.93507486e+00
C     8.810759402024999e+00   5.313862960796591e+00   3.352782160000000e+00 -1.82372010e-01  -2.73237748e+00   7.42850200e-02
C     1.001363394742500e+01   5.952426900951532e+00   3.125367856000000e+00  9.63499300e-01   4.16352913e+00   1.04670343e+00
C     7.333908130199999e+00   2.031933967859796e-01   6.445500224000000e+00  5.32695390e-01   4.87864280e-01   2.62165670e-01
C     1.196502162975000e+00   9.150136572815240e-01   6.532293928000000e+00  3.65885790e-01  -1.30260240e+00   9.28822900e-02
C     1.096213280550000e+00   4.341004509501660e-01   1.022009032800000e+01 -1.86556780e-01  -1.48222321e+00   9.23906600e-01
C     2.383930513050000e+00   1.156228428513959e+00   1.043270688000000e+01 -3.23473005e+00  -2.85625921e+00  -5.25528650e-01
C     2.434387374525000e+00   1.077055918804866e-01   6.536049432000000e+00 -1.49024240e-01   5.34302529e+00   4.55275460e-01
C     3.639719537250000e+00   9.292237448341849e-01   6.606865175999999e+00 -9.75766120e-01   5.81337210e-01  -5.11116330e-01
C     3.566587313325000e+00   4.490124451642830e-01   1.039138940000000e+01  1.54885678e+00  -2.33306231e+00  -1.34834843e+00
C     4.791942658725000e+00   1.084609804993315e+00   1.025197022400000e+01  2.47511270e-01   1.49222949e+00   8.87637770e-01
C     4.822879530300000e+00   1.937056168515468e-01   6.398733224000000e+00  3.59311070e-01  -2.10456960e-01   1.19404608e+00
C     6.043815512775000e+00   8.484337117173918e-01   6.439581776000000e+00  2.48433688e+00   2.19978357e+00   2.12343800e-01
C     6.017519558325001e+00   3.526247779868814e-01   1.015052020800000e+01 -4.11344070e-01   2.30553071e+00   4.29214930e-01
C     7.216826792700000e+00   1.073631562127124e+00   1.019713788000000e+01  2.25996282e+00   8.34859190e-01  -1.99067870e-01
C     8.625373481474998e+00   2.355730235260202e+00   6.613558687999999e+00  3.59164740e-01  -2.00927458e+00  -2.60991870e-01
C     2.403339762825000e+00   3.140742517347435e+00   6.601009560000000e+00  1.96252190e+00  -1.96499184e+00   1.09007860e+00
C     2.349453618000000e+00   2.495484654749486e+00   1.051846317600000e+01 -1.35129300e+00   4.73924507e+00  -1.21965465e+00
C     3.582429436950000e+00   3.282660551312143e+00   1.042657273600000e+01 -1.08256226e+00  -2.27654158e+00   2.19023970e-01
C     3.653886286650000e+00   2.445360065501153e+00   6.699345448000000e+00 -3.45674090e-01  -3.99525705e+00  -1.06609819e+00
C     4.929506001675000e+00   3.027961230900006e+00   6.609426192000000e+00 -1.40444003e+00   2.49322023e+00  -1.34244840e-01
C     4.781453960475000e+00   2.509031261187852e+00   1.036182966400000e+01  1.63067766e+00   1.72425377e+00  -8.73956620e-01
C     6.060157723274999e+00   3.236758353313485e+00   1.023650892800000e+01 -2.32644803e+00   1.45506680e+00  -3.61593650e-01
C     6.099060747674999e+00   2.274956661086109e+00   6.544123616000000e+00  1.70435862e+00  -3.68120400e-02   3.59899060e-01
C     7.401303719850000e+00   2.975085564602752e+00   6.617595167999999e+00 -2.50745076e+00   3.63987920e-01  -4.02746240e-01
C     7.238854796849999e+00   2.503143250553946e+00   1.019635275200000e+01 -6.14865470e-01  -3.46640670e-01   6.32897510e-01
C     8.406828159074999e+00   3.209338395200738e+00   1.033783260000000e+01  4.96454387e+00   9.97509360e-01  -4.14490410e-01
C     9.851972259149999e+00   4.525989448425245e+00   6.581766512000000e+00 -9.26818630e-01  -1.74890650e-01  -9.38265170e-01
C     3.680176362075000e+00   5.194414841916901e+00   6.479528784000000e+00  1.03181063e+00   4.50318990e-01   4.14142880e-01
C     3.561378164400000e+00   4.691407074053700e+00   1.030103304000000e+01 -3.99850670e-01  -1.04278223e+00   1.38303740e-01
C     4.743579062925000e+00   5.363913516824063e+00   1.023501768800000e+01  4.55356135e+00   2.67063352e+00  -3.41494980e-01
C     4.917490901475000e+00   4.504545623534557e+00   6.520246504000000e+00  2.75238960e-01  -2.14161036e+00   2.63097690e-01
C     6.167071860149999e+00   5.154867332822407e+00   6.502497280000000e+00  4.78553140e-01  -2.50240129e+00   2.41556080e-01
C     6.071279840250000e+00   4.708905427804578e+00   1.017809584000000e+01 -1.20691770e+00  -1.61305854e+00   7.65215430e-01
C     7.320277777125000e+00   5.431972974039011e+00   1.019781896800000e+01 -1.70785036e+00  -1.27457028e+00   1.96849070e-01
C     7.423833178950000e+00   4.367518008956903e+00   6.564756175999999e+00 -1.21381050e+00   3.24001111e+00  -4.28008700e-01
C     8.619245060100001e+00   5.179310848052141e+00   6.454073800000000e+00 -1.98010611e+00  -8.39648610e-01   7.88410070e-01
C     8.532813853050000e+00   4.653351436827694e+00   1.017549837600000e+01 -1.83760818e+00   1.12544040e-01   1.13624418e+00
C     9.746194918650000e+00   5.403720398361886e+00   1.023511411200000e+01 -8.01404340e-01  -3.08135892e+00  -2.85069260e-01
