72
Lattice="7.395 0 0 3.6975 6.40425786098592 0 0 0 13.6 " PBC="1 1 1" Properties=species:S:1:pos:R:3:force:R:3 Energy="-580.57180096"
C     1.103460191977500e+01   6.381641287409989e+00   1.341399769600000e+01  1.63201891e+00  -7.42626380e-01  -3.76300100e-02
C     1.231486798725000e+00   6.478303248951535e-01   1.336904915200000e+01 -1.19476448e+00   7.50274830e-01   1.66438490e-01
C     1.242275549100000e+00   7.489752669386989e-01   3.430147120000000e+00  1.41344530e-01   7.34355720e-01   2.90293910e-01
C     2.478850810350000e+00   1.443242545363819e+00   3.405993384000000e+00  1.52184745e+00  -6.63825400e-01   5.90307920e-01
C     6.196491832350000e+00   6.352728304662340e+00   1.340118867200000e+01 -2.95983806e+00   4.39257270e-01   4.11784550e-01
C     3.684925357125000e+00   6.391397469791334e-01   1.341514540000000e+01 -2.08881530e-01   1.92131576e+00  -5.55363120e-01
C     3.771999633375000e+00   7.981541394288463e-01   3.531439512000000e+00 -1.79978148e+00  -2.23701437e+00  -4.41925120e-01
C     5.012194932000000e+00   1.503285664930249e+00   3.588452208000000e+00 -2.46967059e+00  -7.97588000e-02  -5.29750890e-01
C     8.576312722050000e+00   6.380955967776391e+00   1.337283620800000e+01  3.03942388e+00  -5.69979350e-01   6.14291210e-01
C     6.115418931374999e+00   7.007610037674247e-01   1.343941704800000e+01  7.64909350e-01  -2.68673720e-01  -4.18760300e-02
C     6.174281652375000e+00   7.754775589426867e-01   3.581257672000000e+00  1.99710094e+00  -8.24567180e-01  -5.33851090e-01
C     7.410327283725000e+00   1.486479163155987e+00   3.465460200000000e+00 -6.72636400e-02  -1.62107980e-01   2.95499690e-01
C     8.586646421099999e+00   2.088131202496139e+00   1.333819687200000e+01  1.90071790e+00  -2.50877480e-01   5.85738040e-01
C     2.473287773700000e+00   2.783754774650850e+00   1.324702424000000e+01 -1.18748332e+00   4.07498940e-01   5.31182010e-01
C     2.491823378175000e+00   2.831429030799369e+00   3.464530640000000e+00 -3.28651160e-01   2.06327632e+00   1.79809000e-03
C     3.659335625175000e+00   3.588473150301039e+00   3.567141280000000e+00  3.51778302e+00   3.58193260e-01  -2.63043880e-01
C     3.684084656550000e+00   2.062754458811046e+00   1.332388287200000e+01  8.33669340e-01   1.20362918e+00   9.26483910e-01
C     4.914329095275000e+00   2.815309769936063e+00   1.351592480000000e+01 -3.73599600e-02   2.69036730e-01  -6.06028560e-01
C     4.969062559199999e+00   2.897951402085340e+00   3.535288992000000e+00 -2.62980140e-01   2.20654319e+00   2.75192230e-01
C     6.209183168325000e+00   3.665019017691431e+00   3.510058136000000e+00 -1.37456949e+00  -2.09011353e+00   1.95217450e-01
C     6.170293750725000e+00   2.110136936971464e+00   1.356468719200000e+01 -1.10543269e+00   4.10360240e-01  -9.14659400e-02
C     7.403841314100000e+00   2.813175038663590e+00   1.358387964800000e+01 -3.33617970e-01   1.17167023e+00  -7.34495970e-01
C     7.423544515124999e+00   2.916114838014979e+00   3.467815312000000e+00  1.08499903e+00   5.24468470e-01  -9.06467400e-02
C     8.721735766800000e+00   3.610394476657769e+00   3.463081288000000e+00 -3.24864556e+00  -8.99754930e-01   7.18350700e-02
C     2.488153017825000e+00   4.222590614223782e+00   1.326461652000000e+01 -1.05783424e+00  -6.81612810e-01   7.11459950e-01
C     3.678976227525000e+00   4.928233647800464e+00   1.338463040000000e+01  4.34852790e-01   1.69603342e+00  -8.70587300e-02
C     3.685182888000000e+00   5.037974512828859e+00   3.616852680000000e+00  5.65469360e-01  -7.01345840e-01  -6.99550420e-01
C     4.953605752050000e+00   5.762631275651250e+00   3.559392680000000e+00 -1.98976158e+00  -9.10816460e-01  -1.14609900e-01
C     4.911352903575000e+00   4.267750878949358e+00   1.349709791200000e+01  7.86253210e-01  -1.63242384e+00   1.97755430e-01
C     6.170617947525000e+00   4.970216375946222e+00   1.355570126400000e+01 -2.62771890e-01  -9.62033440e-01  -2.14926400e-01
C     6.160557641624999e+00   5.067167873985619e+00   3.549839496000000e+00  1.62474573e+00  -2.64710260e-01  -4.10096370e-01
C     7.419549921000000e+00   5.722626054247502e+00   3.511285536000000e+00  4.20311820e-01   2.29447897e+00   2.62710940e-01
C     7.410037362750000e+00   4.291924454710292e+00   1.359022921600000e+01  7.36393820e-01  -2.23493829e+00  -8.76166310e-01
C     8.666326030124999e+00   4.971530913914566e+00   1.336535974400000e+01 -1.77362553e+00  -9.92991370e-01   6.06931920e-01
C     8.664493142400000e+00   5.026025704683985e+00   3.519558280000000e+00 -9.26193470e-01  -7.68959060e-01  -1.97168800e-01
C     9.849242246999999e+00   5.738428176261581e+00   3.550088104000000e+00  1.64404049e+00   1.42944775e+00   4.59677760e-01
C     3.550724040000000e-02   4.189703917559160e-02   7.084994119999999e+00 -2.11348080e+00  -1.34144680e-01  -7.69187810e-01
C     1.232393499675000e+00   7.143902891747623e-01   6.884132999999999e+00  1.13781640e+00   1.45360843e+00  -4.51676500e-01
C     1.193016899475000e+00   6.546874918710127e-01   1.017567449600000e+01  2.22071150e-01   3.66357980e-01   3.76072530e-01
C     2.419183032675000e+00   1.387656597140213e+00   1.021610716000000e+01  7.41747630e-01  -7.78082830e-01   6.35344900e-02
C     2.452076621250000e+00   1.438818996374760e-02   6.729837192000000e+00  1.14550135e+00   1.00276211e+00   3.44929880e-01
C     3.665669035950000e+00   7.862638021582344e-01   6.661576752000000e+00  7.75662150e-01  -7.82977450e-01   3.29160360e-01
C     3.665585250600000e+00   7.002734476165428e-01   1.040003274400000e+01  5.16415760e-01  -1.55970345e+00  -1.35862989e+00
C     4.915226663399999e+00   1.402874074454252e+00   1.025458931200000e+01 -1.38032700e+00  -1.44349948e+00   5.78012460e-01
C     4.893333728925000e+00   5.234078268078661e-02   6.806764504000000e+00 -1.30515600e-02  -5.97679940e-01   5.88356300e-01
C     6.127732789575000e+00   7.285675228846014e-01   6.997378024000000e+00  1.33960602e+00   3.89083960e-01  -6.41229400e-01
C     6.128875428000000e+00   6.285841851317028e-01   1.030534056800000e+01 -2.24713850e-01   9.97142070e-01  -5.97389610e-01
C     7.351236020250000e+00   1.334793098932894e+00   1.017192728800000e+01  3.22612130e-01   1.22706888e+00   2.88668580e-01
C     1.275480319275000e+00   2.158155037724486e+00   6.788082728000000e+00 -5.81267130e-01  -4.68947750e-01   4.10712020e-01
C     2.473265699625000e+00   2.928324427539912e+00   6.673993688000000e+00  6.41176780e-01  -2.59658770e-01   9.68409000e-01
C     2.434430820150000e+00   2.781601791243475e+00   1.010786924800000e+01 -4.36185590e-01   1.46830007e+00   1.91324110e-01
C     3.681204045225000e+00   3.498404692439257e+00   1.005780492800000e+01 -1.97814609e+00   1.15590933e+00   7.95680500e-01
C     3.721179344625000e+00   2.217259036918326e+00   6.625499080000000e+00 -2.10521396e+00  -1.61615273e+00   4.12393150e-01
C     4.932951406124999e+00   2.846884554378065e+00   6.715121312000000e+00  2.03901039e+00   2.62560491e+00   6.09024380e-01
C     4.858171982925000e+00   2.809801211580363e+00   1.012412764000000e+01  3.21462481e+00  -4.22028030e-01   2.63773530e-01
C     6.117532866075000e+00   3.532925563582015e+00   1.020087012800000e+01  3.44490910e-01  -9.97974520e-01  -7.48116900e-02
C     6.164397939074999e+00   2.149961558303559e+00   6.881574432000000e+00  2.83684800e-02  -9.33482060e-01  -2.32815100e-02
C     7.428516358500000e+00   2.818533993555681e+00   6.901564392000000e+00 -4.77686450e-01   1.12137997e+00  -5.95436460e-01
C     7.367229926249999e+00   2.795114647242918e+00   1.018900848000000e+01 -1.76988684e+00  -8.35120650e-01  -2.20432700e-02
C     8.568944122200000e+00   3.503237153292677e+00   1.018661855200000e+01  1.30239641e+00  -1.02619552e+00  -6.71975600e-02
C     9.889368145574998e+00   4.341923968802621e+00   6.903819680000000e+00 -5.52650060e-01  -4.01701780e-01  -5.18192720e-01
C     3.748323172800000e+00   5.039380631684599e+00   7.009880775999999e+00  5.96257800e-02  -1.28561131e+00  -1.08070798e+00
C     3.714801341999999e+00   4.942382894903454e+00   1.016471276000000e+01 -2.21350728e+00  -6.60979550e-01   9.67842300e-02
C     4.926894827174999e+00   5.650865512372682e+00   1.020051081600000e+01 -5.81120250e-01   1.65659350e-01   1.17012340e-01
C     4.988124835575000e+00   4.306529684972916e+00   6.795543144000000e+00 -1.18288800e+00  -1.74807500e-01   5.63519530e-01
C     6.224645188949999e+00   5.017283508449612e+00   6.775481648000000e+00 -9.24095310e-01  -1.73539006e+00   2.34134240e-01
C     6.143570956874999e+00   4.946336691578483e+00   1.028734096800000e+01 -4.30403900e-02  -9.34789620e-01  -2.72756060e-01
C     7.372872459149999e+00   5.607132948851834e+00   1.041241486400000e+01 -5.82697200e-01   2.79244877e+00  -4.12255220e-01
C     7.437757668150000e+00   4.238370513463087e+00   6.828285551999999e+00 -7.34184990e-01   1.44165546e+00  -1.07741180e-01
C     8.609682659550000e+00   5.010123676247290e+00   6.869966424000000e+00  1.46056258e+00   3.18843160e-01  -3.12640500e-02
C     8.558558990925000e+00   4.890277660826759e+00   1.033766790400000e+01  2.20783220e+00   1.23296887e+00  -3.13184340e-01
C     9.825328037175000e+00   5.623081536243171e+00   1.031333859200000e+01  3.51045090e-01  -7.12011350e-01  -5.39013370e-01
