72
Lattice="7.395 0 0 3.6975 6.40425786098592 0 0 0 13.6 " PBC="1 1 1" Properties=species:S:1:pos:R:3:force:R:3 Energy="-579.02621577"
C     3.653100235125000e+00   6.210884432003652e+00   1.355321790400000e+01  1.91407475e+00  -1.14165299e+00   1.81063000e-02
C     1.184660623425000e+00   5.266545934151502e-01   1.358243451200000e+01  9.73120390e-01  -1.50675732e+00   2.02688310e-01
C     1.412595894975000e+00   1.033623714977654e+00   3.548053680000000e+00  8.81484000e-03  -1.57578620e-01  -1.59993870e-01
C     2.650894671900000e+00   1.710556524610534e+00   3.534969392000000e+00  5.09533600e-01   1.82848297e+00  -1.10023330e-01
C     6.086284480125000e+00   6.173852579439145e+00   5.436232800000000e-02  2.91051664e+00   1.47087482e+00  -8.37524870e-01
C     3.684325363800000e+00   5.354625613777441e-01   1.357344314400000e+01 -3.12086940e-01  -1.34531001e+00   6.07544860e-01
C     3.892213640775000e+00   1.023957640504399e+00   3.585807280000000e+00  3.70429000e-01   4.86514250e-01   2.76172310e-01
C     5.137470595050000e+00   1.784028220142969e+00   3.677994472000000e+00 -1.13674472e+00  -7.04901040e-01  -8.86538870e-01
C     8.655774178575001e+00   6.191955879387478e+00   3.435156000000000e-02 -2.30997687e+00  -5.08193170e-01  -8.12734210e-01
C     6.192696607425000e+00   4.953253482195018e-01   8.492370399999999e-02 -3.09203902e+00   1.72012387e+00  -4.04144370e-01
C     6.333268643100000e+00   1.049890722069790e+00   3.627712008000000e+00  1.14005252e+00  -5.84534730e-01  -6.47603000e-03
C     7.592611556399999e+00   1.740236032981446e+00   3.522927272000000e+00 -1.50820817e+00   1.61969721e+00   3.32485300e-01
C     1.262368984275000e+00   1.909669064245543e+00   1.359373094400000e+01 -3.74399336e+00   1.10803582e+00   3.37825430e-01
C     2.456860705575000e+00   2.633868563056731e+00   1.349192678400000e+01 -5.57753130e-01  -1.06443913e+00   7.86300500e-02
C     2.665677313875000e+00   3.185521600645184e+00   3.525018544000000e+00 -2.49888210e-01  -2.96101830e+00   1.72011490e-01
C     3.889934723624999e+00   3.840861750434709e+00   3.662756080000000e+00 -6.92261810e-01   2.46604256e+00  -5.51150420e-01
C     3.656708810250000e+00   1.981758528804054e+00   1.352210926400000e+01  3.15016393e+00  -2.48277871e+00   1.16761057e+00
C     4.907342262299999e+00   2.712054624927648e+00   1.602923200000000e-01 -8.77378590e-01  -4.30103614e+00  -8.62711810e-01
C     5.134629879749999e+00   3.220058162219699e+00   3.655856936000000e+00 -6.18833970e-01  -2.71815117e+00   3.66404540e-01
C     6.331810090274999e+00   3.906899639613571e+00   3.648430112000000e+00  1.38160884e+00   9.95135150e-01  -7.75567740e-01
C     6.158816710725000e+00   1.966072644070135e+00   1.829501920000000e-01 -2.38111905e+00  -2.14602966e+00  -2.40503000e-03
C     7.330500514199999e+00   2.617215251130480e+00   1.620123120000000e-01  4.68149766e+00   1.78194552e+00  -5.99859450e-01
C     7.561817962949999e+00   3.214096438577825e+00   3.497068368000000e+00  6.50482760e-01  -2.53947670e+00   3.94979730e-01
C     8.832504547425000e+00   3.865722567106601e+00   3.473900768000000e+00 -1.10751021e+00   8.61100400e-02   7.76643880e-01
C     2.482136297924999e+00   3.988342074478562e+00   1.343749999200000e+01 -2.22237124e+00   4.44442927e+00   1.53320490e-01
C     3.678890297625000e+00   4.768449591641136e+00   1.345930895200000e+01 -8.52288190e-01  -1.19768580e-01   1.27901927e+00
C     3.851874100650000e+00   5.275216786953314e+00   3.664880808000000e+00  8.29375620e-01   1.18139067e+00  -1.99346950e-01
C     5.099034343050000e+00   6.027900247278110e+00   3.621423096000000e+00 -8.40364650e-01  -7.81414770e-01  -2.50897700e-02
C     4.863334617300000e+00   4.054833064901018e+00   1.656110080000000e-01  2.06633889e+00   3.00493917e+00  -1.22792956e+00
C     6.138703752749999e+00   4.767548320432498e+00   1.447642480000000e-01 -6.98165300e-01   3.32272000e-01   5.97176530e-01
C     6.328392491024999e+00   5.340928251109051e+00   3.611572888000000e+00 -1.36341830e-01  -1.00785484e+00  -8.26053000e-03
C     7.565590078499999e+00   5.996932714566394e+00   3.575460672000000e+00  8.36141470e-01   4.91668790e-01   3.97091710e-01
C     7.386764558250000e+00   4.073393628860556e+00   1.715505360000000e-01 -1.86744222e+00  -1.45047699e+00  -1.03252981e+00
C     8.575865435474999e+00   4.715402739531284e+00   1.350545932800000e+01  3.20547873e+00   2.28114130e+00   1.08946739e+00
C     8.788440885300000e+00   5.244964225589088e+00   3.632303640000000e+00  8.39183010e-01   2.76871555e+00  -7.83383420e-01
C     1.002404082000000e+01   6.009512085940163e+00   3.650415712000000e+00 -3.78356690e-01  -6.07885230e-01   4.79096800e-02
C     7.372328039249999e+00   1.940664327393792e-01   7.099344568000000e+00  6.17310100e-02   9.73248030e-01  -1.06094610e+00
C     1.194646202850000e+00   8.877926794604868e-01   6.926453344000000e+00  2.04791584e+00   1.23789232e+00  -5.07910990e-01
C     1.043865776400000e+00   4.030006062710628e-01   9.848353368000000e+00  2.31408057e+00  -1.01110979e+00   8.44812200e-01
C     2.286972301650000e+00   1.123793552241360e+00   9.869223655999999e+00  9.49277120e-01  -9.14289500e-01   4.64669100e-02
C     2.464952277600000e+00   1.995105642610080e-01   6.782981776000000e+00 -7.81565690e-01  -1.06973282e+00   5.97535560e-01
C     3.691123180575000e+00   9.267255078855774e-01   6.739481496000000e+00 -2.84362590e-01   3.30723620e-01   4.27194540e-01
C     3.568398755550000e+00   4.155178563435900e-01   1.000773285600000e+01 -2.36841054e+00  -2.42243460e-01  -2.58327150e-01
C     4.773022033575000e+00   1.105853881081349e+00   9.974566535999999e+00  2.42404180e-01   7.93383230e-01  -6.55219020e-01
C     4.911311824350000e+00   1.914280065862164e-01   6.910271384000000e+00 -6.28412810e-01  -1.88801720e-01  -1.53544380e-01
C     6.130983668549999e+00   8.980795826906904e-01   7.016702263999999e+00  2.53630090e-01  -8.73248430e-01  -3.96864440e-01
C     5.987006235375000e+00   3.999952801851006e-01   9.967239943999999e+00 -1.65697900e-02  -6.42138170e-01   2.96225220e-01
C     7.218715142925000e+00   1.030809812159127e+00   9.886806279999998e+00 -2.21714770e-01   3.60728181e+00   7.93429300e-02
C     8.625853232099999e+00   2.344918503098371e+00   6.870235704000000e+00  8.46345680e-01  -9.53371140e-01  -4.06553440e-01
C     2.476216378575000e+00   3.110558353457155e+00   6.743859744000000e+00 -1.63913848e+00  -1.75934389e+00   8.03248270e-01
C     2.303125311075000e+00   2.535085575354532e+00   9.759373192000000e+00  1.02162137e+00  -1.29649148e+00   5.31656140e-01
C     3.533560281974999e+00   3.215126435369449e+00   9.719058576000000e+00  1.83867250e-01   1.81638969e+00   8.81308180e-01
C     3.660411264900000e+00   2.392487665375408e+00   6.710101008000000e+00  2.64969757e+00  -1.29475974e+00   2.13549760e-01
C     4.931730750450000e+00   3.086884822149929e+00   6.773443688000000e+00  1.07670110e-01  -1.68452920e+00   2.74482280e-01
C     4.764539413949999e+00   2.506959932068192e+00   9.770335063999999e+00  8.21388750e-01   1.18309712e+00   1.38974772e+00
C     6.007152470850000e+00   3.230698836654089e+00   9.927903440000000e+00  3.33214510e-01   4.79821140e-01  -6.23820800e-01
C     6.169762493924999e+00   2.271258970682902e+00   6.895672599999999e+00 -1.08888366e+00   3.76347398e+00  -3.22711630e-01
C     7.412280377175000e+00   3.019647735686783e+00   6.906666159999999e+00 -5.48052550e-01   9.64609600e-02  -2.86857000e-01
C     7.250295638324999e+00   2.475367407831919e+00   9.894063783999998e+00 -5.33509570e-01   1.19316492e+00   3.69875650e-01
C     8.503590292049999e+00   3.207009871085420e+00   9.863598288000000e+00 -2.53747855e+00   1.48511798e+00   5.85085520e-01
C     9.869773466174999e+00   4.493623289839484e+00   6.940012272000001e+00  2.30311080e-01  -3.64046800e-02  -4.64847240e-01
C     3.690135689250000e+00   5.221504660536965e+00   7.016789304000000e+00  1.03071983e+00  -1.69468175e+00  -9.64658740e-01
C     3.503651500275000e+00   4.669717325661188e+00   9.834163400000000e+00  2.22192542e+00  -3.25591990e-01   1.86538810e-01
C     4.786761869625000e+00   5.397400100322431e+00   9.897126503999999e+00 -1.70736340e+00  -9.48305620e-01  -9.95366400e-02
C     4.965612717750000e+00   4.520732577403443e+00   6.828703208000000e+00 -2.95537676e+00  -2.40119406e+00   5.17448190e-01
C     6.169386384225000e+00   5.122326850337697e+00   6.830047703999999e+00  3.17338552e+00   3.93966684e+00  -9.12429400e-02
C     6.006372631125000e+00   4.713077993928104e+00   9.957433527999999e+00  6.80453410e-01  -2.22530409e+00   2.36057990e-01
C     7.253535572699999e+00   5.403523915730741e+00   1.006204935200000e+01  1.76552000e-02  -1.09276720e+00  -3.87805970e-01
C     7.466803601250000e+00   4.453236951050489e+00   6.867075744000000e+00 -4.84767290e+00  -1.95782658e+00  -1.71250780e-01
C     8.616676258949999e+00   5.134233326338117e+00   6.947280655999999e+00  2.08295947e+00   3.47348779e+00  -1.95600900e-01
C     8.485381916324998e+00   4.647125281378781e+00   1.000444532800000e+01 -7.27249890e-01   3.56677410e-01  -3.18508680e-01
C     9.693628115774999e+00   5.406294077468083e+00   9.954903384000000e+00 -3.25613480e-01  -2.08701479e+00   9.40023700e-02
