72
Lattice="7.395 0 0 3.6975 6.40425786098592 0 0 0 13.6 " PBC="1 1 1" Properties=species:S:1:pos:R:3:force:R:3 Energy="-570.32650171"
C     1.099007717940000e+01   6.276109556817500e+00   1.352972689600000e+01  2.17838895e+00   1.94504244e+00  -1.78092202e+00
C     1.284659547900000e+00   4.558139591393388e-01   1.346397973600000e+01 -5.22712137e+00   5.31445246e+00   4.84986320e-01
C     1.257833261025000e+00   8.953347818144731e-01   3.711814272000000e+00  2.38176720e+00  -3.11618500e-01   3.24230550e-01
C     2.577965366775000e+00   1.492132457739324e+00   3.815456472000000e+00 -1.78912590e-01   2.13889334e+00  -3.76245350e-01
C     6.210154057875000e+00   6.261676344920997e+00   1.336694632000000e+01 -3.37945501e+00  -1.28716384e+00  -5.12911700e-01
C     3.682259718450000e+00   5.392465811769036e-01   1.345982221600000e+01 -1.80776685e+00   1.60797938e+00   1.14812280e-01
C     3.897261319875000e+00   9.420697254626659e-01   3.689828376000000e+00 -2.63034226e+00  -2.32722065e+00  -2.02290610e-01
C     5.113509537899999e+00   1.637437831771342e+00   3.601082800000000e+00 -2.83793277e+00   1.29649288e+00  -9.12423570e-01
C     8.525469582749999e+00   6.317836498904331e+00   1.334774121600000e+01  4.96543841e+00  -2.73683010e+00  -4.53353100e-01
C     5.998834094175000e+00   5.911568696443410e-01   1.325436837600000e+01  5.82835257e+00   1.71408245e+00   1.17938158e+00
C     6.260000794874999e+00   8.757015046633854e-01   3.486737400000000e+00  1.19096343e+00   1.07169147e+00   4.35785820e-01
C     7.465230610800000e+00   1.603531641297987e+00   3.721563976000000e+00  2.28408580e-01   2.33878585e+00  -4.51648860e-01
C     1.215852696450000e+00   1.981886229705782e+00   1.351863337600000e+01 -4.70771100e-02  -5.30925700e-02  -3.39480990e-01
C     2.445752454225000e+00   2.648588877833098e+00   1.224306000000000e-01  9.13546810e-01   1.76069968e+00  -7.17027100e-01
C     2.552389648350000e+00   2.892629976144309e+00   3.825087584000000e+00  1.72203683e+00   2.30507707e+00  -7.42637430e-01
C     3.708720766274999e+00   3.684362822387247e+00   3.552632392000000e+00  2.69929473e+00   1.30510204e+00  -3.30059450e-01
C     3.714399904425000e+00   1.883088576253084e+00   1.923176000000000e-02 -9.11856870e-01   5.99872416e+00  -1.39870342e+00
C     4.883696306100000e+00   2.701955110282428e+00   1.317520808000000e+01 -7.42877170e-01   1.04119997e+00   1.99617572e+00
C     4.984943284725000e+00   3.062908369445925e+00   3.436499000000000e+00  2.60455039e+00   4.44736840e-01   1.80029653e+00
C     6.295200144450000e+00   3.859772947512082e+00   3.555966568000000e+00 -9.30443820e-01  -4.95242285e+00   4.09375640e-01
C     6.100905763200000e+00   2.001858420182821e+00   1.307864998400000e+01  1.67758381e+00   1.83810387e+00   9.91643480e-01
C     7.428926596125000e+00   2.825325773058789e+00   1.321203348000000e+01 -1.06980418e+00  -3.47134553e+00   2.25557790e-01
C     7.561167165974999e+00   3.105508724219702e+00   3.845646296000000e+00 -2.86581870e+00  -1.97437270e+00  -1.49202732e+00
C     8.829969430499998e+00   3.706574773965664e+00   3.876608600000000e+00 -4.12900417e+00   1.84382180e+00  -1.46218013e+00
C     2.478151539150000e+00   4.158109279917793e+00   1.084294000000000e-01 -7.21432690e-01  -1.34301712e+00  -1.43645525e+00
C     3.685547276625000e+00   4.914239319695105e+00   1.358510133600000e+01 -6.35936400e-02  -2.94006378e+00  -3.71384540e-01
C     3.738374457450000e+00   5.196508970194543e+00   3.443310696000000e+00 -4.45642240e-01  -2.72169067e+00   5.93381310e-01
C     4.927267904924999e+00   5.923927697304217e+00   3.597041016000000e+00  1.94779339e+00  -2.86094646e+00  -8.60672680e-01
C     4.891933596599999e+00   4.211886345508843e+00   1.323371664000000e+01  7.80935550e-01  -1.68696552e+00  -2.69730200e-02
C     6.139859443350000e+00   4.924125508511009e+00   1.299553929600000e+01  1.10604922e+00  -2.48479938e+00   2.35821249e+00
C     6.229432601025000e+00   5.190246822816455e+00   3.592046143999999e+00  2.34830860e-01   4.35067378e+00   3.49600800e-01
C     7.521047590125000e+00   5.919565501105457e+00   3.626782040000000e+00 -8.85751480e-01  -1.23235950e+00  -6.22743100e-02
C     7.455013604849999e+00   4.254805888494362e+00   1.314750066400000e+01 -1.02827980e+00  -2.68260852e+00  -6.68318300e-02
C     8.704648510049999e+00   4.925701724455512e+00   1.337171978400000e+01 -2.36998354e+00  -2.62400944e+00   7.96696850e-01
C     8.709693305100000e+00   5.167908579273040e+00   3.548384976000000e+00  7.22893170e-01  -1.71885728e+00   9.40101300e-01
C     9.901035200100001e+00   5.867203328203417e+00   3.375178232000000e+00  1.26077017e+00   1.02263867e+00   1.01075222e+00
C     7.417877356875000e+00   1.734399192367842e-01   6.606430656000001e+00  5.45319480e-01  -2.96562651e+00   6.97972840e-01
C     1.274645793525000e+00   8.260852854039786e-01   6.845603792000000e+00  3.30742720e-01  -2.90450916e+00   6.34947910e-01
C     1.110687551025000e+00   5.550303229709238e-01   1.003152850400000e+01  1.22764092e+00  -1.45470112e+00   6.72887050e-01
C     2.321579866350000e+00   1.206813483902426e+00   1.021295563200000e+01  2.02217225e+00   2.32150841e+00  -1.00057617e+00
C     2.499512292450000e+00   1.324779657513312e-01   7.136968151999999e+00 -2.86882248e+00  -3.14721449e+00  -1.90309140e+00
C     3.605278544925000e+00   8.821668591433698e-01   7.279995680000001e+00  4.55878487e+00   4.73110450e-01  -1.71346632e+00
C     3.573238561200000e+00   5.092609492802832e-01   9.921014359999999e+00  7.10360750e-01   2.89650470e+00   1.44884471e+00
C     4.880115721049999e+00   1.314319711235731e+00   9.990573191999999e+00 -2.85583690e+00  -2.59861027e+00  -1.53614800e-01
C     4.793893422750000e+00   1.581070371961080e-01   6.820857776000000e+00  2.90457579e+00  -5.21488040e-01   6.46429790e-01
C     6.142986603975000e+00   8.099122287746491e-01   6.610399680000000e+00 -1.74306694e+00   1.64059660e-01   2.08404473e+00
C     6.028774082775000e+00   5.111229872530783e-01   9.889646231999999e+00  1.50371126e+00  -6.36717900e-01   1.01811336e+00
C     7.288676169000000e+00   1.236921052868701e+00   1.005359341600000e+01 -2.32434078e+00  -2.73256200e-02  -4.27944460e-01
C     1.352667998175000e+00   2.146146413811200e+00   6.960896023999999e+00 -2.35236995e+00   6.43668187e+00   6.05172740e-01
C     2.535765281625000e+00   3.019380550048863e+00   7.164087095999999e+00 -2.52584508e+00   9.61305830e-01  -9.61692790e-01
C     2.326377039825000e+00   2.686633499735585e+00   1.033411898400000e+01  9.35862930e-01  -1.05284921e+00  -7.90717260e-01
C     3.580238002650000e+00   3.431277887296460e+00   1.033899934400000e+01  4.49224860e-01  -3.18758406e+00  -9.51388420e-01
C     3.695788944900000e+00   2.322937168845494e+00   7.365816984000000e+00  1.90477134e+00  -8.99738370e-01  -2.15299509e+00
C     4.982443183125000e+00   2.932453893008040e+00   7.091246719999999e+00 -1.18182910e+00   1.71104410e+00  -1.79373330e-01
C     4.832582546775000e+00   2.742214132425168e+00   1.012933263200000e+01 -2.03073878e+00  -2.81636981e+00   8.62712250e-01
C     6.013338758100000e+00   3.387066989756049e+00   1.008595556800000e+01  2.89832438e+00   2.06706060e+00  -9.73009770e-01
C     6.146376028275000e+00   2.211427832051638e+00   6.901951992000000e+00  1.95909717e+00  -1.26868034e+00  -3.73537670e-01
C     7.425962643150000e+00   2.848091564856939e+00   6.962067119999999e+00  1.43776211e+00  -1.25911200e-02  -4.27735550e-01
C     7.232119061100000e+00   2.666960964483816e+00   1.009101558400000e+01  1.36539169e+00  -7.63745660e-01  -2.09914430e-01
C     8.507296000499998e+00   3.364926957993401e+00   1.009960153600000e+01 -1.07145587e+00  -1.10002557e+00   2.43510650e-01
C     9.912083404050000e+00   4.508935293999536e+00   6.895197008000000e+00  2.38129520e-01  -2.98744110e+00  -3.03664900e-02
C     3.822893317500000e+00   5.094355421580626e+00   6.741135120000000e+00 -2.16488505e+00   1.95036316e+00   2.76979640e-01
C     3.670158059775000e+00   4.773808034192598e+00   1.019612481600000e+01 -2.03349239e+00   2.72682497e+00  -1.18657903e+00
C     4.943974504050000e+00   5.525864965970950e+00   1.002408182400000e+01 -6.33503577e+00   1.06467136e+00   3.64572210e-01
C     5.075782170600000e+00   4.373656490115713e+00   6.880369335999999e+00 -3.91678960e+00  -9.62074860e-01   6.23688750e-01
C     6.247228187850000e+00   5.062612461327221e+00   6.966580824000000e+00  1.75626534e+00   5.34287530e-01   3.57209730e-01
C     6.074827221750000e+00   4.841218163703122e+00   9.900699496000000e+00  7.82621440e-01  -2.70751252e+00   9.29881930e-01
C     7.240292791574999e+00   5.540966782388037e+00   9.746753208000001e+00  4.33694874e+00  -1.43769237e+00   1.00997096e+00
C     7.454832723150000e+00   4.233439747251516e+00   7.022296488000000e+00 -4.05688530e-01   4.38772533e+00  -8.05126870e-01
C     8.592800983799998e+00   5.126322018518501e+00   6.829893072000000e+00  1.20237508e+00  -9.09765710e-01   7.79463040e-01
C     8.531236499549999e+00   4.727645439069353e+00   9.832787487999999e+00 -1.78975907e+00   1.73304566e+00   7.25946940e-01
C     9.735984753075000e+00   5.368287624942443e+00   9.946979072000000e+00  2.44520297e+00   4.99309261e+00   2.40755690e-01
