72
Lattice="7.395 0 0 3.6975 6.40425786098592 0 0 0 13.6 " PBC="1 1 1" Properties=species:S:1:pos:R:3:force:R:3 Energy="-581.85582416"
C     1.105579861500000e+01   6.358658135100071e+00   1.341281694400000e+01  9.77424120e-01   2.48671000e-01  -2.77478230e-01
C     1.196799368025000e+00   6.881396204620939e-01   1.336680270400000e+01  3.68214720e-01  -1.49243177e+00   9.79519300e-02
C     1.251638432550000e+00   7.526833322396388e-01   3.457558328000000e+00  3.82813440e-01   3.98013870e-01   1.60742440e-01
C     2.489736989850000e+00   1.480110961267739e+00   3.434887672000000e+00  7.33568100e-01  -1.67428036e+00   3.39709690e-01
C     6.127703357474999e+00   6.352948162834674e+00   1.339304648800000e+01  7.46701800e-01   8.50889370e-01   4.58483770e-01
C     3.679927409400000e+00   6.768594808803828e-01   1.341842028000000e+01 -5.99142600e-02  -6.53794460e-01  -8.01405080e-01
C     3.755407841625000e+00   7.759627455181602e-01   3.529600656000000e+00 -1.15722067e+00  -5.45995830e-01  -2.61667220e-01
C     4.974436912425000e+00   1.507685710292962e+00   3.598868991999999e+00 -3.65223900e-01  -5.16411870e-01  -8.35289790e-01
C     8.630704980674999e+00   6.387456609717184e+00   1.338244719200000e+01 -4.02538620e-01  -1.02774877e+00   3.66165710e-01
C     6.161931521700000e+00   7.004184400144933e-01   1.342452110400000e+01 -7.29266820e-01  -1.49711100e-02   7.40118900e-02
C     6.182614708125000e+00   7.867285591511347e-01   3.584332359999999e+00  9.25577490e-01  -2.94135390e-01  -4.89271790e-01
C     7.432060079475000e+00   1.484417248295381e+00   3.479815272000000e+00 -8.51024070e-01   3.21176340e-01   3.48784570e-01
C     8.601850097400000e+00   2.094874629852404e+00   1.332945832800000e+01  5.96430940e-01  -4.95911500e-02   7.37076800e-01
C     2.444419949175000e+00   2.800859202500760e+00   1.328273457600000e+01  4.63014320e-01  -3.84895440e-01  -4.11546100e-02
C     2.502576114900000e+00   2.868072208954353e+00   3.467822520000000e+00 -6.20596100e-01   1.58411927e+00   2.65044160e-01
C     3.714506503350000e+00   3.599987941890741e+00   3.587690880000000e+00  7.59176460e-01   2.66116190e-01  -8.44077810e-01
C     3.682265819325000e+00   2.088422147930719e+00   1.329867867200000e+01  6.70646680e-01   5.40068810e-01   1.56793291e+00
C     4.930223538525000e+00   2.817717642806266e+00   1.350836020800000e+01 -9.39619450e-01   2.30727490e-01  -1.04476424e+00
C     4.983744074550000e+00   2.917578146893410e+00   3.514966376000000e+00 -9.64624320e-01   6.65249470e-01   9.20713190e-01
C     6.199419845625000e+00   3.660777990051383e+00   3.529937256000000e+00 -5.61990110e-01  -1.15104238e+00  -5.24223500e-02
C     6.175664073675000e+00   2.147969449853627e+00   1.352161286400000e+01 -1.44354846e+00  -2.38629565e+00   5.03354200e-02
C     7.395258196424999e+00   2.790801187446472e+00   1.353674055200000e+01  7.53911490e-01   1.67124193e+00  -4.37113270e-01
C     7.410814355399999e+00   2.929641078913349e+00   3.489031312000000e+00  9.69363470e-01  -6.94816430e-01  -2.32721110e-01
C     8.664190760850000e+00   3.607715831765245e+00   3.465423072000000e+00  2.44903100e-02  -3.36372650e-01   4.09406800e-01
C     2.476694650200000e+00   4.212224490323850e+00   1.328409090400000e+01 -4.98202570e-01   6.23714800e-02   4.90882800e-01
C     3.694545031950000e+00   4.920991520884639e+00   1.336569049600000e+01 -6.29432080e-01   1.42097886e+00   1.22008540e-01
C     3.706346675475000e+00   5.031078087752317e+00   3.607475480000000e+00  1.58040880e-01   7.37052800e-02  -4.74036040e-01
C     4.956430420200000e+00   5.728984457621226e+00   3.562359928000000e+00 -1.62713351e+00   1.48471968e+00  -1.83422300e-01
C     4.912492140299999e+00   4.253864846844413e+00   1.347361220800000e+01  8.30083420e-01  -1.45380094e+00   1.82253250e-01
C     6.150740853075000e+00   4.942044429875553e+00   1.351314482400000e+01  8.26575690e-01  -1.27707660e-01   1.01364590e-01
C     6.167433697500000e+00   5.073259796189785e+00   3.559171000000000e+00  1.55463585e+00  -1.32224380e+00  -4.70076440e-01
C     7.420146771449999e+00   5.725746592932366e+00   3.503214480000000e+00  5.77561290e-01   1.83545741e+00   6.30261590e-01
C     7.421454281399999e+00   4.212242294160701e+00   1.357042435200000e+01 -8.55517780e-01   1.04781606e+00  -1.18448446e+00
C     8.646332686274999e+00   4.918553483959916e+00   1.334333740000000e+01 -7.04339500e-01   1.40703096e+00   1.06349414e+00
C     8.660842193924999e+00   5.017776572262254e+00   3.551357936000000e+00 -3.48217990e-01   6.75735880e-01  -6.89893030e-01
C     9.872806377524999e+00   5.769700487604855e+00   3.547191032000000e+00  4.30362440e-01  -7.22604500e-01   6.19446060e-01
C     1.441200457500000e-02   2.424555961928100e-02   7.035482096000000e+00 -4.64680240e-01   1.30099320e+00  -5.32833970e-01
C     1.255736519700000e+00   7.217368054937041e-01   6.871715928000000e+00 -8.63457350e-01   1.34406465e+00  -5.32433500e-02
C     1.218942179550000e+00   6.556846988623932e-01   1.017857864000000e+01 -1.96937039e+00   1.95458050e-01   5.03311510e-01
C     2.414395879425000e+00   1.374076880688712e+00   1.020574450400000e+01  1.54556354e+00   1.55696640e-01   2.29164370e-01
C     2.461346142825000e+00   2.429231070165900e-02   6.748037528000000e+00  1.35049933e+00   2.31964200e-02   3.43535710e-01
C     3.685671882375000e+00   7.783765103055942e-01   6.697166184000000e+00  3.59358070e-01  -7.78864060e-01   2.08252930e-01
C     3.674858691525000e+00   6.719228867941590e-01   1.038679640800000e+01 -4.21809470e-01  -5.17839430e-01  -1.71428693e+00
C     4.908573936524999e+00   1.369671007451347e+00   1.022388391200000e+01 -9.75838890e-01  -1.54069770e-01   1.01314262e+00
C     4.918081355249999e+00   3.289854454166281e-02   6.810403591999999e+00 -4.13747440e-01   4.54586800e-01   6.52136550e-01
C     6.134672109674999e+00   7.241442300658566e-01   6.990711984000001e+00  1.49225536e+00   6.67227130e-01  -9.40490270e-01
C     6.120570584175000e+00   6.508996295171371e-01   1.030306542400000e+01 -1.75289780e-01  -6.35177580e-01  -6.58882420e-01
C     7.323239289749999e+00   1.349440148999343e+00   1.019784480800000e+01  2.26841350e+00  -2.54895000e-02  -1.44511890e-01
C     8.650328722425000e+00   2.178954402146722e+00   6.815638095999999e+00  5.44478710e-01  -1.08164972e+00  -1.45041740e-01
C     2.482829542200000e+00   2.930501811169733e+00   6.680877871999999e+00 -1.26239050e-01  -1.01813407e+00   1.35480719e+00
C     2.418751423500000e+00   2.805599442040996e+00   1.012061108800000e+01  3.64047150e-01  -5.63271330e-01   2.55685080e-01
C     3.671344476600000e+00   3.495901972510148e+00   1.008479984000000e+01 -9.41960850e-01   4.54807170e-01   7.12525930e-01
C     3.714120484350000e+00   2.206610741417082e+00   6.671224592000000e+00 -6.08726120e-01  -6.84280370e-01   2.04718010e-01
C     4.946120274225000e+00   2.891135158317206e+00   6.742652336000000e+00  7.43521760e-01  -6.07408230e-01   3.60123290e-01
C     4.887137939100000e+00   2.783821122762280e+00   1.015635324800000e+01  6.74465160e-01   3.94240040e-01  -1.64187810e-01
C     6.115382695874999e+00   3.503880460994714e+00   1.021599047200000e+01  5.37817820e-01  -8.06497900e-02  -2.51971600e-01
C     6.180564444375000e+00   2.150376426127730e+00   6.864228991999999e+00 -8.77167820e-01  -2.78937560e-01   2.25750890e-01
C     7.411620558299999e+00   2.835385133007227e+00   6.886383120000000e+00  1.78085470e-01   1.82811843e+00  -4.04533480e-01
C     7.352708734500000e+00   2.756096962401183e+00   1.017971220000000e+01 -6.04217160e-01   1.46037828e+00   4.63873730e-01
C     8.580931380225000e+00   3.497541782735201e+00   1.020479699200000e+01 -5.65451200e-02  -4.73031410e-01  -3.17426140e-01
C     9.893957963249999e+00   4.329305083157855e+00   6.908280615999999e+00 -9.71844520e-01   8.45094000e-03  -7.79599050e-01
C     3.713416258500000e+00   5.042599411685035e+00   6.973612704000000e+00  1.38719049e+00  -1.84345603e+00  -7.57608140e-01
C     3.657156466575000e+00   4.923732863461613e+00   1.016681164800000e+01  6.49326280e-01   1.62107160e-01   2.77936370e-01
C     4.907395876050000e+00   5.651482562617492e+00   1.022145114400000e+01 -4.37148190e-01  -6.45804390e-01  -2.71469000e-01
C     4.970250602925000e+00   4.288833311569006e+00   6.807391736000000e+00 -5.94506230e-01   1.52513916e+00   5.16823710e-01
C     6.221612906174999e+00   4.994091321163145e+00   6.800678096000000e+00 -1.72856081e+00   5.94969040e-01  -4.94750900e-02
C     6.130388814750000e+00   4.941169159953827e+00   1.026765184000000e+01  6.14592110e-01  -7.16377720e-01   8.43219300e-02
C     7.393731905399999e+00   5.630031757085736e+00   1.037478488800000e+01 -1.94649799e+00   9.82185800e-01  -2.88355700e-01
C     7.428696796499999e+00   4.296399109677075e+00   6.827179463999999e+00  4.67633800e-02  -1.29417671e+00   6.83571600e-02
C     8.634874059825000e+00   5.019985144627854e+00   6.867374128000000e+00  5.62300830e-01  -1.01223250e-01  -1.70796400e-02
C     8.586356832900000e+00   4.909958393528589e+00   1.032056767200000e+01  8.31182340e-01   5.91917700e-02  -3.42375130e-01
C     9.822361311074999e+00   5.625289083927513e+00   1.029487183200000e+01  2.63740600e-02  -8.57802900e-02  -3.09600940e-01
