72
Lattice="7.395 0 0 3.6975 6.40425786098592 0 0 0 13.6 " PBC="1 1 1" Properties=species:S:1:pos:R:3:force:R:3 Energy="-567.50214016"
C     3.586298870700000e+00   6.176546274337640e+00   2.980452240000000e-01  1.87670453e+00  -9.66104690e-01  -4.48677530e-01
C     1.188544144650000e+00   3.771129308938992e-01   4.073705920000000e-01 -1.38997890e+00   2.57576029e+00  -9.64583080e-01
C     1.459561281150000e+00   1.153587312572495e+00   3.383121584000000e+00  1.87739078e+00  -2.40191011e+00  -5.70401100e-02
C     2.684072894025000e+00   1.840807281605893e+00   3.642379336000000e+00  1.80557106e+00  -1.17745002e+00  -1.19481921e+00
C     6.114248672624999e+00   6.099090041692448e+00   2.135500560000000e-01 -7.70324760e-01   2.05253868e+00   8.60640490e-01
C     3.610253531175000e+00   3.721333001948562e-01   4.115519120000000e-01  3.23083152e+00   2.90641542e+00  -2.75171422e+00
C     3.998276687100000e+00   1.138329808646831e+00   3.460460296000000e+00 -1.77667440e-01   1.05414128e+00  -9.28331260e-01
C     5.268331073024999e+00   1.833197998586955e+00   3.261633872000000e+00 -3.40477333e+00   2.13090548e+00  -4.38829630e-01
C     8.664087378749999e+00   6.141955468699051e+00   3.748744800000000e-02 -6.89336981e+00  -7.16394400e-02   1.76144336e+00
C     6.053797246799999e+00   4.709728374939588e-01   1.296470320000000e-01  5.21727836e+00  -3.56921370e-01  -1.10218520e-01
C     6.453292303200000e+00   1.120709517826298e+00   3.042637832000000e+00 -2.04184155e+00   1.37537512e+00   2.23301760e-01
C     7.636790284725000e+00   1.734169215468090e+00   3.238222424000000e+00  2.09474669e+00   7.06357143e+00   2.22032720e+00
C     1.186874612475000e+00   1.844565172032983e+00   5.217212959999999e-01 -1.27704790e-01   2.67808400e-01  -1.26050872e+00
C     2.388164779125000e+00   2.600449224265893e+00   6.562854080000000e-01  8.88923900e-01  -2.39386227e+00  -1.31502560e+00
C     2.688791347725000e+00   3.216954338647851e+00   3.656794248000000e+00  4.08757516e+00   2.18862100e+00  -1.79302216e+00
C     4.001826435000000e+00   3.943307525334778e+00   3.365254040000000e+00 -3.29584632e+00   2.13363683e+00  -1.59512896e+00
C     3.623058861074999e+00   1.851898175367841e+00   4.456287520000000e-01  7.97835330e-01  -6.26288300e-01   6.48814310e-01
C     4.900808484000000e+00   2.520841929490685e+00   2.142486880000000e-01 -5.71631260e-01   2.55310635e+00  -1.26818266e+00
C     5.211562874849999e+00   3.331966035980182e+00   3.082374448000000e+00 -2.85817100e-01  -4.51702440e+00   2.57053974e+00
C     6.429703658250000e+00   3.976113720478099e+00   3.145248744000000e+00  3.51717931e+00   1.50320255e+00   1.80982106e+00
C     6.122324567250000e+00   1.806594903564251e+00   9.696392000000000e-03  5.00093480e-01   5.23679758e+00   1.49340800e+00
C     7.420036438049999e+00   2.625169467477757e+00   1.828827360000000e-01 -2.44452635e+00  -2.45715609e+00   1.07993730e-01
C     7.700921573474999e+00   3.293790318919300e+00   3.563982272000000e+00 -3.28467547e+00  -2.33492869e+00  -3.93067939e+00
C     8.937930403574999e+00   3.994986235837998e+00   3.483255256000000e+00 -1.82698130e+00  -1.73212863e+00   6.64580740e-01
C     2.349597487725000e+00   3.977237091349322e+00   5.351476240000000e-01  2.98831630e+00   3.17258295e+00  -1.65417469e+00
C     3.600611967150000e+00   4.783056358925645e+00   4.574985599999999e-01  2.13171720e+00  -3.56002100e+00  -2.38923272e+00
C     3.924466674450000e+00   5.414082743749680e+00   2.988732056000000e+00  1.89987657e+00  -2.90655020e-01   2.24771077e+00
C     5.192908506675000e+00   6.158505672073756e+00   3.187817832000000e+00 -3.84524000e-03  -2.61610849e+00  -2.84297820e-01
C     4.946632488900000e+00   4.021371586093462e+00   6.584304000000001e-02 -3.10206338e+00  -2.51723430e-01   1.99913635e+00
C     6.160133686275000e+00   4.781306139295086e+00   1.348951944800000e+01 -1.24966408e+00  -4.60548399e+00   1.55367679e+00
C     6.450742100474999e+00   5.401685061171399e+00   3.270876296000000e+00 -1.36817742e+00   1.17547341e+00  -7.20046140e-01
C     7.672647160724999e+00   6.144418097973956e+00   3.258279840000000e+00  4.72253970e-01  -2.52107379e+00   1.09641704e+00
C     7.375939868174999e+00   4.038492536928650e+00   1.013102080000000e-01  1.35214226e+00   5.55500390e-01  -1.33595408e+00
C     8.661177076500000e+00   4.768323876059344e+00   1.065122080000000e-01 -2.57898870e+00  -3.52282456e+00   1.80868704e+00
C     8.901479561175000e+00   5.335483222991321e+00   3.215111536000000e+00  6.49304160e-01   5.67664120e+00  -1.52931011e+00
C     1.011690515940000e+01   6.196321085587433e+00   2.864870328000000e+00 -8.31085190e-01  -7.23733157e+00   3.01349081e+00
C     7.314941434200000e+00   3.182475543479232e-01   6.339952528000000e+00 -2.67055800e-01  -1.75746295e+00   4.31635250e-01
C     1.174093242375000e+00   9.642235904222923e-01   6.455707024000000e+00 -9.72979920e-01   1.48372018e+00  -7.88113500e-02
C     1.125035330025000e+00   2.651389011497226e-01   1.034594853600000e+01  6.03807470e-01   2.59039842e+00   7.84958190e-01
C     2.289846146550000e+00   9.501627220777692e-01   1.075206684000000e+01  1.34756050e+00   2.25257020e+00   2.48718350e-01
C     2.395770240825000e+00   3.457385356803379e-01   6.292414679999999e+00 -1.68327870e+00  -5.45400359e+00   1.98536620e-01
C     3.540714463800000e+00   1.040613642218951e+00   6.330704799999999e+00  3.87939676e+00  -3.64640389e+00  -7.06657590e-01
C     3.575604369599999e+00   2.269552428090948e-01   1.083639908000000e+01 -1.85516886e+00   2.04348920e+00  -2.81987627e+00
C     4.803404982675000e+00   1.026649990508743e+00   1.052796848800000e+01  2.14449950e-01  -1.87308498e+00   8.47739570e-01
C     4.779807057000000e+00   2.990712850377252e-01   6.132171184000000e+00  1.45682257e+00  -2.47968800e-01   2.21358794e+00
C     6.053341123199999e+00   1.004616589639463e+00   6.314962120000000e+00 -1.49503330e-01  -2.13426810e+00  -3.64972830e-01
C     5.966226729075000e+00   2.799943457669358e-01   1.025955372000000e+01  2.01242701e+00  -1.38860085e+00   4.02984310e-01
C     7.284292782750000e+00   1.004478898095473e+00   1.017198685600000e+01 -2.83556856e+00  -1.30085057e+00   4.68040650e-01
C     8.586480070575000e+00   2.348095975635610e+00   6.615890408000000e+00 -1.67331866e+00   3.39477217e+00  -3.91038210e-01
C     2.436602694675000e+00   3.115335929820715e+00   6.551405736000000e+00 -2.49629304e+00   8.31546460e-01   2.95673550e-01
C     2.263862261100000e+00   2.558119961727330e+00   1.090555181600000e+01  4.58082882e+00  -8.81355735e+00  -6.31790830e-01
C     3.522255397575000e+00   3.101081716931398e+00   1.073615307200000e+01  3.60596941e+00   3.20276347e+00  -6.24361570e-01
C     3.613699305375000e+00   2.354500617751082e+00   6.449675016000000e+00  8.81706330e-01   6.88090360e+00   1.75249660e-01
C     4.837302183675000e+00   3.173037908883843e+00   6.326217071999999e+00  7.54995820e-01  -5.49013729e+00   3.76592020e-01
C     4.859219114925000e+00   2.453194458183869e+00   1.057404624000000e+01 -5.12509854e+00  -1.83947525e+00  -4.04732300e-02
C     5.954050196024999e+00   3.180884277528758e+00   1.027211128000000e+01  3.78662601e+00  -3.14207905e+00   2.29698950e-01
C     6.095127975750000e+00   2.389678373622540e+00   6.404141128000000e+00 -3.12381543e+00   1.46071967e+00  -6.98809600e-02
C     7.238372605875000e+00   3.087878186586594e+00   6.576113672000000e+00  5.26280525e+00   1.17536140e+00  -8.66965560e-01
C     7.210618431374999e+00   2.395276911801174e+00   1.020424986400000e+01  2.18668997e+00   1.10838103e+00   1.88715507e+00
C     8.533792359450000e+00   3.092366354537460e+00   1.060648496000000e+01 -8.23737374e+00   2.96828318e+00  -2.35526714e+00
C     9.785468210700000e+00   4.604465302964327e+00   6.476221536000000e+00  7.25781320e-01  -1.17136988e+00  -6.35882190e-01
C     3.690375065400000e+00   5.293471995898086e+00   6.366860672000000e+00 -2.74463542e+00  -6.93493990e-01  -7.41326680e-01
C     3.595730342775000e+00   4.506694636302059e+00   1.045054300800000e+01 -9.99801970e-01   9.23568100e-01  -1.79188810e-01
C     4.918257097425000e+00   5.303175407194665e+00   1.030143124800000e+01 -7.00259525e+00  -2.44542044e+00   4.69403910e-01
C     4.911721026675000e+00   4.502314764351604e+00   6.190825536000000e+00 -2.31275586e+00   3.34155935e+00   1.50819297e+00
C     6.132197742674999e+00   5.189786100506007e+00   6.208383136000000e+00 -2.84521519e+00   5.14827718e+00  -1.23273670e-01
C     6.015774338325000e+00   4.545128124741804e+00   1.036824315200000e+01  7.19138960e-01   1.08212609e+00  -1.68756500e-01
C     7.171350167925000e+00   5.250205150008820e+00   1.049448896000000e+01  5.19269770e+00   3.06807920e-01   1.06600840e+00
C     7.278445001624999e+00   4.557310047872782e+00   6.344571768000000e+00  2.74504630e+00  -3.69864450e+00   1.09799504e+00
C     8.484586990800000e+00   5.276342399314787e+00   6.294102304000000e+00  2.82354441e+00   5.38274390e-01   5.57320710e-01
C     8.444907861150000e+00   4.506337983181836e+00   1.052452007200000e+01 -1.02989580e-01   5.36720240e-01  -4.27353330e-01
C     9.671425922399999e+00   5.152918773325924e+00   1.040293348800000e+01  1.92899349e+00   3.88116541e+00  -1.43953190e-01
