72
Lattice="7.395 0 0 3.6975 6.40425786098592 0 0 0 13.6 " PBC="1 1 1" Properties=species:S:1:pos:R:3:force:R:3 Energy="-579.60568033"
C     1.106164820790000e+01   6.390911642790075e+00   1.341502028000000e+01 -2.80195630e-01  -1.18328750e-01   3.53943680e-01
C     1.238071158825000e+00   6.206433536833530e-01   1.338026167200000e+01 -9.81348880e-01   2.62237140e+00   4.31179710e-01
C     1.232921280825000e+00   7.672761382420135e-01   3.402511920000000e+00 -1.39064680e-01  -7.37223810e-01   6.22153340e-01
C     2.510352401100000e+00   1.378765501910597e+00   3.387326976000000e+00 -1.64633251e+00   3.82507938e+00   5.86181030e-01
C     6.187986214275000e+00   6.367057511411197e+00   1.343030246400000e+01 -1.81786455e+00  -4.61936440e-01   2.30997450e-01
C     3.689952404175000e+00   6.534272620093218e-01   1.338950980800000e+01  4.15957210e-01   1.15830993e+00   3.80105150e-01
C     3.737358902100000e+00   7.552036638778633e-01   3.516978904000000e+00  1.31548172e+00   1.10920367e+00  -2.68122230e-01
C     4.980380015100000e+00   1.490541832214635e+00   3.551942328000000e+00 -5.70056280e-01  -2.46888480e-01   3.12616800e-02
C     8.599817766525000e+00   6.359652780388308e+00   1.338394156000000e+01  3.92033380e-01   1.70404365e+00   6.43268450e-01
C     6.084973420575000e+00   6.896569172342850e-01   1.345987457600000e+01  3.11347671e+00  -4.14082000e-02   2.06820000e-04
C     6.219603647700000e+00   7.385346615198553e-01   3.555953240000000e+00 -2.37490443e+00   1.63663569e+00  -1.59458200e-01
C     7.386589518599999e+00   1.487042161464460e+00   3.454870016000000e+00  2.56905251e+00   1.57737040e-01  -9.68034300e-02
C     1.232904383250000e+00   2.074321829357778e+00   1.337563712800000e+01 -6.95073190e-01   9.58719150e-01   3.14650370e-01
C     2.475260057175000e+00   2.774743279373465e+00   1.321887292000000e+01 -3.99372350e-01   8.87695510e-01   1.56828918e+00
C     2.474240656425000e+00   2.848402491576041e+00   3.459377464000000e+00  1.90844674e+00  -6.34573280e-01  -2.56717310e-01
C     3.699677642625000e+00   3.587708994253184e+00   3.526503392000000e+00 -5.40270970e-01   6.73870350e-01   4.37179680e-01
C     3.711583962375000e+00   2.071432932679711e+00   1.339470528000000e+01 -1.31156458e+00   6.70600820e-01  -8.90808440e-01
C     4.893024802800000e+00   2.819501805003484e+00   1.350553494400000e+01  1.48064309e+00  -3.85833170e-01   6.42263150e-01
C     4.938490519949999e+00   2.936364524985092e+00   3.574435504000000e+00  1.05874841e+00  -2.20719172e+00  -8.65758770e-01
C     6.182108927100000e+00   3.603817688091020e+00   3.488654455999999e+00  1.52424763e+00   1.68186291e+00   3.49362830e-01
C     6.123014705625000e+00   2.075290217188789e+00   2.301500800000000e-02  1.14504294e+00   2.89033721e+00  -6.64040620e-01
C     7.407853249500000e+00   2.879665324617682e+00   2.179386400000000e-02 -3.01719760e-01  -2.83082105e+00  -1.10372293e+00
C     7.468367495850000e+00   2.908710427204983e+00   3.433726775999999e+00 -3.31828026e+00  -6.73947260e-01   3.07576770e-01
C     8.686346735474999e+00   3.586566218480646e+00   3.461784392000000e+00 -1.05810521e+00   8.78248000e-01  -4.01492050e-01
C     2.466128452350000e+00   4.219715166487220e+00   1.326675104000000e+01 -2.31971860e-01   8.30049360e-01   1.07064225e+00
C     3.672943830225000e+00   4.989986576130356e+00   1.340885526400000e+01  9.57535080e-01  -2.53175798e+00  -2.64370600e-01
C     3.677989032000000e+00   5.022600963750771e+00   3.602448784000000e+00  8.29846650e-01  -3.20430740e-01  -5.82734530e-01
C     4.885707857025000e+00   5.775449589885777e+00   3.548925848000000e+00  2.40555723e+00  -2.02640614e+00  -3.70391510e-01
C     4.935866552100000e+00   4.234398080397686e+00   1.353840070400000e+01 -7.49459200e-01   1.53216822e+00  -2.41481790e-01
C     6.186641248650000e+00   4.975546703805678e+00   9.084528000000000e-03 -1.43916349e+00  -7.49334050e-01  -6.80460860e-01
C     6.202927405050000e+00   5.046777293342585e+00   3.520238960000000e+00 -1.82485261e+00   4.37098420e-01   6.66948000e-03
C     7.433940184275000e+00   5.788032803814262e+00   3.531599040000000e+00 -3.41250750e-01  -3.69448257e+00  -6.38073000e-01
C     7.417339999200000e+00   4.322912865302632e+00   1.358557883200000e+01  6.85698000e-03  -2.85323869e+00   5.49756600e-02
C     8.635537835025000e+00   5.001323649564442e+00   1.342050937600000e+01  7.15216810e-01  -3.34681154e+00  -5.04498060e-01
C     8.641122428100001e+00   5.018784794577154e+00   3.467198008000000e+00  6.53592250e-01   6.78851520e-01   9.27533320e-01
C     9.869604564374999e+00   5.734941634240019e+00   3.570688160000000e+00 -3.94644190e-01  -4.98799150e-01  -4.30329790e-01
C     7.393994723700000e+00   6.037985544470881e-02   7.123431120000000e+00  1.23937205e+00  -1.77399003e+00  -1.50787361e+00
C     1.236184805250000e+00   7.494192100935541e-01   6.886109351999999e+00  6.27625530e-01  -1.77888202e+00  -2.04536370e-01
C     1.174790516925000e+00   6.641046968838282e-01   1.018649329600000e+01  3.20067987e+00  -1.13566900e-02   7.78323300e-02
C     2.451656696175000e+00   1.381559103231708e+00   1.023227620000000e+01 -1.28116535e+00  -5.55569400e-02  -5.19768480e-01
C     2.477231859975000e+00   2.957287747754340e-02   6.717752368000000e+00 -1.10089776e+00  -8.16814470e-01   3.84698640e-01
C     3.666218817225000e+00   7.675487034565350e-01   6.623178648000000e+00  6.18634620e-01  -1.64763670e-01   5.82392780e-01
C     3.665594605275000e+00   6.844102930250586e-01   1.036654872800000e+01 -3.03238880e-01  -1.25510390e-01  -1.04236290e-01
C     4.882825286025000e+00   1.400815810020627e+00   1.031871508000000e+01  1.78784360e+00  -2.58914560e-01  -1.11862725e+00
C     4.866824206875000e+00   5.709748116372300e-02   6.825260912000000e+00  2.36650713e+00  -1.07901945e+00   2.08593220e-01
C     6.159949698675000e+00   7.426793050791115e-01   6.981279295999999e+00 -1.72219404e+00  -1.44789108e+00  -1.31723840e-01
C     6.132744602924999e+00   6.318221138631402e-01   1.028550020800000e+01 -4.21587800e-02   1.09633299e+00  -3.13350900e-02
C     7.391587096575000e+00   1.362772981310341e+00   1.014620180000000e+01 -3.33629606e+00   9.31278980e-01   7.56958290e-01
C     1.281653850150000e+00   2.120987222765611e+00   6.764569280000000e+00 -1.21352548e+00   2.64175564e+00   8.84432990e-01
C     2.478068086575000e+00   2.911057395582937e+00   6.701658807999999e+00 -3.97632260e-01  -2.33203370e-01  -8.32049000e-02
C     2.441341743450000e+00   2.794297335854825e+00   1.009774173600000e+01 -4.18407110e-01   1.99200700e-02   3.03754600e-01
C     3.639318506400000e+00   3.538507578775369e+00   1.005055028000000e+01  2.38247468e+00  -8.75416840e-01   6.08833190e-01
C     3.671676586050000e+00   2.181921815026153e+00   6.577472992000000e+00  2.25206096e+00   9.83317950e-01   1.09727670e+00
C     4.972131003525000e+00   2.869224014730473e+00   6.697883992000000e+00 -2.02699376e+00   1.15886180e-01   4.64211370e-01
C     4.916648610975000e+00   2.832470747382877e+00   1.008833012800000e+01 -1.83938287e+00  -1.07283482e+00   9.04129690e-01
C     6.134502949050001e+00   3.536440412423319e+00   1.017608453600000e+01 -5.03283700e-02  -7.00433210e-01   2.70323280e-01
C     6.147342554774999e+00   2.125292357026839e+00   6.904376328000000e+00  1.68157253e+00   1.76766490e+00  -6.79742580e-01
C     7.434382331324999e+00   2.830640666656803e+00   6.899917432000000e+00 -7.99381360e-01  -1.02006197e+00  -5.09050440e-01
C     7.334215503374999e+00   2.820532570306051e+00   1.020097607200000e+01  1.75675889e+00  -1.91247007e+00  -5.93686280e-01
C     8.592496494675000e+00   3.481352075035435e+00   1.015956325600000e+01 -6.43604690e-01   1.36518215e+00   7.55138390e-01
C     9.868426023224998e+00   4.342019136074420e+00   6.877435272000000e+00  1.59049893e+00  -9.89196040e-01   1.82268450e-01
C     3.787913821275000e+00   4.994873024877537e+00   7.020672240000000e+00 -3.81840381e+00   2.07901262e+00  -8.01608840e-01
C     3.715613017200000e+00   4.945297344570383e+00   1.016512062400000e+01 -1.94025074e+00  -4.02732790e-01  -1.90040490e-01
C     4.932502788450000e+00   5.652282710594521e+00   1.017523018400000e+01 -5.20850180e-01  -1.71925670e-01   6.13243560e-01
C     4.974357970800000e+00   4.321690036306843e+00   6.799479664000000e+00  2.88447630e-01  -1.97993850e+00   1.15076600e-01
C     6.196063403025000e+00   4.995964438502037e+00   6.748693320000000e+00  9.92228660e-01   2.23166660e-01   6.57686860e-01
C     6.156829970025000e+00   4.927210759735064e+00   1.030448948000000e+01 -1.08802033e+00   1.53380007e+00  -6.26792200e-01
C     7.330442278574999e+00   5.669056550653696e+00   1.044889672800000e+01  2.70536020e+00  -1.28465577e+00  -9.79966510e-01
C     7.424377746750000e+00   4.213262492437799e+00   6.825113079999999e+00 -3.61716410e-01   2.96282721e+00  -2.75038120e-01
C     8.622975024150000e+00   5.009244883983740e+00   6.871829760000000e+00 -2.54728030e-01   5.76301600e-01  -1.76661020e-01
C     8.594036170650000e+00   4.905893226809375e+00   1.034960516800000e+01 -3.42624010e-01   4.95223590e-01  -3.37970440e-01
C     9.842303074800000e+00   5.601614784109344e+00   1.031874935200000e+01 -4.55480100e-02   1.39597987e+00  -5.59193290e-01
