72
Lattice="7.395 0 0 3.6975 6.40425786098592 0 0 0 13.6 " PBC="1 1 1" Properties=species:S:1:pos:R:3:force:R:3 Energy="-580.69176135"
C     3.685600261800000e+00   6.359390910284413e+00   1.345011290400000e+01 -3.31928370e-01  -1.47048902e+00  -1.87755290e-01
C     1.160872313475000e+00   6.809956708192639e-01   1.346110143200000e+01  2.87104942e+00  -1.44117003e+00  -3.12151640e-01
C     1.273335029775000e+00   7.833605599425606e-01   3.609797680000000e+00  1.76823970e-01   6.02921610e-01  -4.32026540e-01
C     2.513921856675000e+00   1.496217989998532e+00   3.618337120000000e+00  2.46261340e-01  -4.89335900e-02  -4.36828530e-01
C     6.094327910700000e+00   6.344242022572054e+00   1.340897521600000e+01  2.30840912e+00  -3.01960630e-01   2.24754220e-01
C     3.682393937700000e+00   6.559689198262201e-01   1.350334208000000e+01 -8.57321200e-02  -7.46861120e-01  -1.10398538e+00
C     3.748118590124999e+00   7.938112840888231e-01   3.537850824000000e+00 -3.37177350e-01  -4.60283500e-02   1.09840300e-02
C     4.958201042024999e+00   1.539613369343049e+00   3.507740016000000e+00  1.33709668e+00  -8.74133100e-01  -3.39203420e-01
C     8.653731790500000e+00   6.323652973977940e+00   1.344493660800000e+01 -1.18585544e+00   1.09326675e+00  -9.17161300e-02
C     6.211723239900000e+00   6.903975696557940e-01   1.338218947200000e+01 -3.47344709e+00  -1.21865640e+00   1.45078720e-01
C     6.209150815199999e+00   8.476379826782868e-01   3.501637016000000e+00  4.81492030e-01  -2.09226066e+00  -6.91395200e-02
C     7.470940734000000e+00   1.550531796440827e+00   3.586786344000000e+00 -2.26747694e+00  -2.32035305e+00  -2.34624180e-01
C     1.206474098625000e+00   2.077996912730739e+00   1.345258660800000e+01  7.78775890e-01  -8.14554600e-02   3.05820530e-01
C     2.462340437550000e+00   2.771952111670342e+00   1.359645692800000e+01 -1.38445100e+00   5.13537380e-01  -1.04429816e+00
C     2.543312359800000e+00   2.928350492869402e+00   3.583777888000000e+00 -2.21010604e+00   4.69165500e-02   9.32212300e-02
C     3.759026178150000e+00   3.648188692077930e+00   3.517951848000000e+00 -1.82655050e-01  -1.31692493e+00  -4.98931300e-01
C     3.676027064550000e+00   2.113459529991810e+00   1.346042415200000e+01  8.75919320e-01  -2.43450484e+00   9.08676680e-01
C     4.904164778700000e+00   2.801113771750694e+00   1.334994319200000e+01  5.21911750e-01  -4.02342050e-01  -4.07255900e-01
C     5.002136289975000e+00   2.940764186092333e+00   3.445578359999999e+00 -7.80598690e-01   1.19711712e+00   1.02766355e+00
C     6.227711045025000e+00   3.683258472161869e+00   3.529907472000000e+00 -2.10528693e+00  -8.34753740e-01  -2.48969070e-01
C     6.151356819599999e+00   2.107213073045481e+00   1.323901261600000e+01 -1.08627270e-01  -1.43532076e+00   9.96436310e-01
C     7.398384284774999e+00   2.754624943732062e+00   1.326685127200000e+01 -6.62507910e-01   1.95810820e+00   6.69588570e-01
C     7.382937571799999e+00   2.929534127807087e+00   3.620092200000000e+00  3.63345599e+00   1.80889531e+00  -4.00472690e-01
C     8.647787504625001e+00   3.644042895752259e+00   3.595262272000000e+00  1.31146353e+00  -2.84002350e-01   1.52040530e-01
C     2.441824304175000e+00   4.183475584662574e+00   1.357340424800000e+01  1.09912682e+00   3.58663640e-01  -6.59429670e-01
C     3.690515644350000e+00   4.895184282986198e+00   1.347999740800000e+01 -5.65818540e-01   1.25943853e+00  -7.97974400e-02
C     3.714954677325000e+00   5.032650973482733e+00   3.473353776000000e+00  8.52440260e-01   1.69936509e+00   9.77398400e-02
C     4.945085602800000e+00   5.762327201488057e+00   3.515530096000000e+00  3.05917870e-01   9.41466990e-01   1.03083810e-01
C     4.916665286700000e+00   4.204598684319634e+00   1.331102856000000e+01 -3.53210540e-01  -1.57499000e-03   5.68905940e-01
C     6.159363238199999e+00   4.880179491075689e+00   1.324195103200000e+01 -6.26365910e-01   2.39755199e+00   1.08893371e+00
C     6.196851451199999e+00   5.105414165968116e+00   3.533727984000000e+00  4.40250150e-01  -1.10835000e+00  -2.19892840e-01
C     7.448359842674999e+00   5.766367583729353e+00   3.511147224000000e+00 -5.12801700e-01   1.64225811e+00   5.70093800e-01
C     7.384929304124999e+00   4.181951627462209e+00   1.330445908000000e+01  3.71582660e-01   2.98826100e-01  -1.06041830e-01
C     8.617388360474999e+00   4.878025803199950e+00   1.343065946400000e+01 -6.10842300e-02   1.61851405e+00   4.58809790e-01
C     8.676010448174999e+00   5.075965274922742e+00   3.557194104000000e+00 -3.67453150e-01  -1.32163769e+00  -7.02393010e-01
C     9.901963309574999e+00   5.757360123134420e+00   3.455042736000000e+00 -4.05353000e-02   2.24561395e+00   6.79750660e-01
C     2.823455370000000e-02   4.754866865188440e-02   6.607566664000000e+00 -8.19271150e-01   9.50478060e-01   1.14391410e+00
C     1.257398472000000e+00   7.556883381127081e-01   6.798352904000000e+00  3.12425920e-01   4.45777520e-01   4.00104490e-01
C     1.188265501050000e+00   6.447964358191357e-01   1.020044703200000e+01 -1.28240364e+00  -9.81118240e-01   3.04339450e-01
C     2.436649431075000e+00   1.359813829923549e+00   1.019987814400000e+01 -1.37943421e+00  -1.25302981e+00   1.43100840e-01
C     2.490596732550000e+00   1.379489951559720e-02   6.971163479999999e+00 -6.60948000e-02   2.59073365e+00  -2.69115210e-01
C     3.725484750600000e+00   7.766968655966521e-01   7.084070951999999e+00 -6.78264040e-01   2.60331580e-01  -1.10678719e+00
C     3.638835612900000e+00   6.482630605987536e-01   1.008465200800000e+01  1.05916014e+00  -1.44068941e+00  -5.27122590e-01
C     4.871394316874999e+00   1.329946676797339e+00   1.008451097600000e+01 -1.83369460e-01   5.50283410e-01   1.30371556e+00
C     4.930495452675000e+00   6.396143665291380e-02   6.823373640000001e+00 -6.34638080e-01  -3.49611090e-01   7.26024110e-01
C     6.130554129975000e+00   7.387125077606275e-01   6.705223640000000e+00  2.89652158e+00   1.80221394e+00   1.78628000e-02
C     6.098966054699999e+00   6.069540603798672e-01   1.013990744800000e+01 -3.05053000e-02   1.33964106e+00  -2.34955330e-01
C     7.305741536549999e+00   1.322697633283026e+00   1.024836404800000e+01  2.08320289e+00   1.64960920e-01  -4.75286750e-01
C     8.658660114300000e+00   2.220674619762799e+00   6.881847519999999e+00  1.19889970e-01  -2.09464011e+00  -3.69218830e-01
C     2.474749654275000e+00   2.938614917154517e+00   6.954294583999999e+00  1.39663501e+00  -5.48776800e-01   5.34107710e-01
C     2.418050821200000e+00   2.742319354381807e+00   1.030962728800000e+01 -6.16971080e-01   1.99866191e+00  -4.49439010e-01
C     3.657191999550000e+00   3.465856909100586e+00   1.032837529600000e+01 -1.30706438e+00   1.67391620e-01  -3.21148750e-01
C     3.740184716475000e+00   2.239554948317287e+00   7.116743183999999e+00 -1.81410690e+00  -2.07760186e+00  -1.21360515e+00
C     4.952280974775000e+00   2.899785517493865e+00   6.980704151999999e+00  1.13288742e+00   1.15216908e+00  -6.51772790e-01
C     4.862247515325000e+00   2.740701190548321e+00   1.030102039200000e+01  1.60259103e+00   8.73453790e-01  -9.23816300e-01
C     6.132857598525000e+00   3.478054522663321e+00   1.024702839200000e+01 -1.54026737e+00   1.03839450e-01  -5.01204360e-01
C     6.186223726949999e+00   2.180644806008869e+00   6.807716776000000e+00 -6.77754200e-01  -6.27326710e-01   5.27997360e-01
C     7.426682842199999e+00   2.884415106502130e+00   6.828194024000000e+00 -4.02643350e-01   6.87010240e-01   1.05414930e-01
C     7.339087255425000e+00   2.745464549459432e+00   1.023182984800000e+01 -9.88106890e-01   1.93445920e-01   6.61129600e-02
C     8.527102435724998e+00   3.467745973041550e+00   1.023778229600000e+01  2.99086385e+00  -8.77417800e-02  -5.50669820e-01
C     2.507545111200000e+00   4.342874808967094e+00   6.828426311999999e+00 -1.14194600e+00   1.83041740e-01  -3.53653550e-01
C     3.719859300150000e+00   5.048126030047902e+00   6.708518239999999e+00  1.15164917e+00  -5.04921460e-01   6.58948070e-01
C     3.623221292250000e+00   4.904770176151046e+00   1.026749068000000e+01  7.07762210e-01  -6.27400190e-01  -1.37447390e-01
C     4.841833248075000e+00   5.596663844485514e+00   1.022895249600000e+01  2.27237386e+00   1.38606211e+00  -6.35654410e-01
C     4.956120791549999e+00   4.340777286432788e+00   6.858252471999999e+00 -1.33993220e-01  -6.80412820e-01   1.13613220e-01
C     6.195597370124999e+00   5.026424113565454e+00   6.920249160000000e+00  2.15335320e-01  -7.73781330e-01  -4.64481060e-01
C     6.127250080949999e+00   4.912575045205028e+00   1.012030821600000e+01 -6.36155040e-01  -1.01860546e+00   5.10829350e-01
C     7.378354853325000e+00   5.598398117514003e+00   9.968956808000000e+00 -1.88196359e+00   1.18455646e+00   1.09326701e+00
C     7.440781742475000e+00   4.308067219199945e+00   6.890988352000000e+00 -4.06319650e-01   4.52768690e-01  -9.52393900e-02
C     8.659657403999999e+00   5.048234902431521e+00   6.816066087999999e+00 -5.02762580e-01  -8.26002560e-01   1.72642320e-01
C     8.582136395474999e+00   4.886332381814684e+00   1.004097588000000e+01  2.29635150e-01  -6.51131900e-02   7.17252620e-01
C     9.819319045049999e+00   5.633253226874474e+00   1.011999310400000e+01 -9.97189450e-01  -2.36032541e+00   1.80439600e-01
