72
Lattice="7.395 0 0 3.6975 6.40425786098592 0 0 0 13.6 " PBC="1 1 1" Properties=species:S:1:pos:R:3:force:R:3 Energy="-569.73848119"
C     1.098076898197500e+01   6.273785131427213e+00   1.352720559200000e+01  2.47848536e+00   2.15722780e+00  -1.87145489e+00
C     1.288240798500000e+00   4.670232035865396e-01   1.345933764800000e+01 -5.07811221e+00   4.70485458e+00   4.22698020e-01
C     1.263026251875000e+00   8.908045378894663e-01   3.717379528000000e+00  1.73567585e+00  -1.40883010e-01   2.58434550e-01
C     2.575460532375000e+00   1.493552537877200e+00   3.818499064000000e+00 -2.35012140e-01   1.90489659e+00  -4.51156680e-01
C     6.221639084474999e+00   6.252676697520654e+00   1.335738565600000e+01 -4.25232549e+00  -1.31372570e-01  -1.63788290e-01
C     3.684873703050000e+00   5.300911822254049e-01   1.346483803200000e+01 -2.15747032e+00   2.26393316e+00   6.13477200e-02
C     3.891239534399999e+00   9.356110954534345e-01   3.685945984000000e+00 -1.93593032e+00  -1.71418407e+00  -1.49819880e-01
C     5.127938329125000e+00   1.636161271052108e+00   3.608275840000000e+00 -3.89608254e+00   1.32716925e+00  -1.05344669e+00
C     8.526340713750001e+00   6.332933896383495e+00   1.335065120800000e+01  5.07679352e+00  -3.98682064e+00  -5.55188780e-01
C     5.991592133699999e+00   5.943418992058548e-01   1.324716568000000e+01  6.52603503e+00   2.05129654e+00   1.15117587e+00
C     6.259379356049999e+00   8.664936548400133e-01   3.490921168000000e+00  1.02875962e+00   1.86706919e+00   4.25156750e-01
C     7.451152971150000e+00   1.585235701273224e+00   3.721676040000000e+00  1.48294876e+00   3.14431968e+00  -2.48207370e-01
C     1.219124355375000e+00   1.985930326416637e+00   1.351134418400000e+01 -3.95604080e-01  -9.33874000e-02  -4.03006680e-01
C     2.440959680775000e+00   2.658609107766011e+00   1.250945680000000e-01  1.36619353e+00   1.21848215e+00  -8.89404490e-01
C     2.538505350975000e+00   2.888880475295014e+00   3.819443312000000e+00  2.88745679e+00   1.90641734e+00  -6.58313470e-01
C     3.711337376099999e+00   3.668279489410536e+00   3.564847096000000e+00  2.30341114e+00   1.95474986e+00  -6.24802100e-01
C     3.709281196350000e+00   1.873800929376777e+00   1.359933346400000e+01 -8.14564380e-01   6.63055140e+00  -1.04852752e+00
C     4.889419740299999e+00   2.711377566786689e+00   1.317312415200000e+01 -8.70097020e-01   5.89823850e-01   1.80702345e+00
C     4.994290860525000e+00   3.067573487041464e+00   3.424144080000000e+00  2.26398577e+00  -1.83857040e-01   2.17087552e+00
C     6.277646817825000e+00   3.858206017741475e+00   3.558176296000000e+00 -2.31103400e-02  -4.43418176e+00   4.42994360e-01
C     6.111439349099999e+00   2.008225405262076e+00   1.306475500000000e+01  1.14685845e+00   1.70565658e+00   1.07221129e+00
C     7.419249129374999e+00   2.820755694649893e+00   1.319017542400000e+01 -5.71537040e-01  -3.43745783e+00   5.39526710e-01
C     7.570606254899999e+00   3.119588805337805e+00   3.853838800000000e+00 -3.96503135e+00  -2.96247789e+00  -1.69759046e+00
C     8.835966553650000e+00   3.699212695300123e+00   3.869857016000000e+00 -4.44801758e+00   2.37758534e+00  -1.23955987e+00
C     2.491992797625000e+00   4.150364803015432e+00   1.123897200000000e-01 -1.79753835e+00  -9.01422590e-01  -1.64679916e+00
C     3.680316534300000e+00   4.908845717767992e+00   1.357672400800000e+01  3.65296900e-01  -2.62480110e+00  -3.26378890e-01
C     3.731361446175000e+00   5.194956257876385e+00   3.444355992000000e+00 -2.02037820e-01  -2.51086146e+00   6.87250990e-01
C     4.931288899200000e+00   5.922233194717039e+00   3.601189288000000e+00  1.53949255e+00  -3.02616992e+00  -9.27753760e-01
C     4.886548039950000e+00   4.212449151689579e+00   1.322382304800000e+01  1.05165121e+00  -1.33991467e+00  -2.20991400e-02
C     6.140363634449999e+00   4.944809083951136e+00   1.298413297600000e+01  1.02956000e+00  -4.08372476e+00   2.22575527e+00
C     6.224310750074999e+00   5.195018123007313e+00   3.595995312000000e+00  2.14280830e-01   3.92829252e+00   2.48074690e-01
C     7.511607687750001e+00   5.920666072818698e+00   3.619644080000000e+00 -2.47433840e-01  -1.93352447e+00   1.21709740e-01
C     7.455306668700000e+00   4.247649898846754e+00   1.315073515200000e+01 -1.18263244e+00  -2.04425862e+00  -3.96081200e-01
C     8.699836472624998e+00   4.929099759633449e+00   1.335861972000000e+01 -1.84143289e+00  -2.76363623e+00   1.17860960e+00
C     8.716542258299999e+00   5.147361798780802e+00   3.563010008000000e+00  3.69646640e-01  -2.39324220e-01   5.56996120e-01
C     9.895695529425000e+00   5.890276780549161e+00   3.377163424000000e+00  1.23958565e+00  -1.27762748e+00   1.08409418e+00
C     7.419827085600000e+00   1.701243709000836e-01   6.592462504000000e+00  5.72333720e-01  -2.82593565e+00   7.47420430e-01
C     1.279296582975000e+00   8.143128505205693e-01   6.839303999999999e+00 -8.51258800e-02  -2.03341823e+00   5.82413870e-01
C     1.106550640125000e+00   5.487134191881342e-01   1.003327991200000e+01  1.79259711e+00  -8.61530830e-01   8.22196490e-01
C     2.309766058050000e+00   1.212248393292737e+00   1.021535780000000e+01  2.75308374e+00   2.18057441e+00  -1.05634020e+00
C     2.490828639750000e+00   1.426534348947708e-01   7.139227792000001e+00 -1.91311758e+00  -3.84161843e+00  -1.77983936e+00
C     3.610611375225000e+00   8.903693045253006e-01   7.294072224000000e+00  3.87412782e+00  -2.81960290e-01  -1.88470571e+00
C     3.590359428225000e+00   5.081257945745982e-01   9.922495536000000e+00 -3.17018440e-01   3.21123105e+00   1.40570402e+00
C     4.872045409649999e+00   1.322405983380082e+00   9.980975400000000e+00 -2.08033915e+00  -2.88057797e+00   9.89784700e-02
C     4.781667860850000e+00   1.582239789446316e-01   6.816803751999999e+00  3.32687242e+00  -6.16095260e-01   6.95605280e-01
C     6.143468240324999e+00   8.171500648377067e-01   6.605579296000000e+00 -1.95005799e+00  -6.88511930e-01   1.94163487e+00
C     6.030399097050000e+00   5.175562564011840e-01   9.899543496000000e+00  1.30679170e+00  -7.96010130e-01   9.29339280e-01
C     7.295474022750000e+00   1.227385497170633e+00   1.007229396000000e+01 -3.04184944e+00   6.90593320e-01  -5.84896430e-01
C     1.344786813900000e+00   2.144201760912011e+00   6.959391183999999e+00 -1.92925562e+00   6.21146155e+00   5.30059340e-01
C     2.546390195775000e+00   3.024113680862875e+00   7.154815023999999e+00 -3.18092263e+00   6.58586110e-01  -7.66445270e-01
C     2.323341946950000e+00   2.702444523668090e+00   1.033889612000000e+01  1.47781330e+00  -2.16542303e+00  -6.46814660e-01
C     3.579171976425000e+00   3.415843689896438e+00   1.034572644800000e+01  7.33415060e-01  -1.63735509e+00  -9.84778700e-01
C     3.691926536400000e+00   2.314276050515629e+00   7.380717688000000e+00  2.42147830e+00  -3.39720100e-02  -2.32407630e+00
C     4.983578611425000e+00   2.941686143053858e+00   7.093984536000000e+00 -1.30161962e+00   6.54584710e-01  -9.48838800e-02
C     4.839252504000000e+00   2.743485441652956e+00   1.014516153600000e+01 -2.75478573e+00  -2.90729112e+00   7.19034780e-01
C     6.003549183150000e+00   3.401943312253886e+00   1.010317697600000e+01  3.88183933e+00   1.39160662e+00  -1.08579188e+00
C     6.142971222374999e+00   2.197396231165536e+00   6.891752808000001e+00  2.05222581e+00  -6.90984700e-02  -1.02295020e-01
C     7.429820096999999e+00   2.843812624010358e+00   6.955318527999999e+00  1.21807254e+00   5.93972400e-02  -3.82763440e-01
C     7.232382027300000e+00   2.666581832418504e+00   1.009786957600000e+01  1.48762932e+00  -6.45506730e-01  -4.07011700e-02
C     8.523933789150000e+00   3.367914800455405e+00   1.011652156800000e+01 -2.48531251e+00  -8.10562290e-01  -1.47602880e-01
C     9.905052053175000e+00   4.507803853763410e+00   6.898252520000001e+00  9.01457430e-01  -2.82928590e+00  -2.56858600e-01
C     3.830824639875000e+00   5.103091277599716e+00   6.728317256000000e+00 -2.73517144e+00   1.43220534e+00   4.74570160e-01
C     3.669854753850000e+00   4.779856919783946e+00   1.020744817600000e+01 -1.95412791e+00   1.95751843e+00  -1.11669726e+00
C     4.954686124575000e+00   5.542888315916351e+00   1.003851142400000e+01 -6.61925563e+00  -6.14675700e-02   2.85032400e-01
C     5.072918974500000e+00   4.363781252580750e+00   6.880336696000000e+00 -3.34085999e+00  -2.61758350e-01   5.55244280e-01
C     6.258599516324999e+00   5.048158627720408e+00   6.970805120000000e+00  1.00444424e+00   1.21908177e+00   2.91776280e-01
C     6.075957917249999e+00   4.838158977808557e+00   9.903762896000000e+00  7.89795010e-01  -1.93521061e+00   9.60374750e-01
C     7.246051610849999e+00   5.540264811684003e+00   9.739099264000000e+00  4.11442846e+00  -1.59089151e+00   1.09737057e+00
C     7.462413855299999e+00   4.239741665070913e+00   7.021655927999999e+00 -7.73946730e-01   3.39425706e+00  -7.65611250e-01
C     8.587026967800000e+00   5.114249095856301e+00   6.827600520000000e+00  1.49189653e+00  -1.03566330e-01   7.35916910e-01
C     8.525344644224999e+00   4.725670686158222e+00   9.826123760000000e+00 -1.31929264e+00   1.85860010e+00   8.58853300e-01
C     9.732719860574999e+00   5.369508916916344e+00   9.952161216000000e+00  2.48709462e+00   5.01682674e+00   2.16018810e-01
