72
Lattice="7.395 0 0 3.6975 6.40425786098592 0 0 0 13.6 " PBC="1 1 1" Properties=species:S:1:pos:R:3:force:R:3 Energy="-565.77704603"
C     3.623753584350000e+00   6.260023213839595e+00   7.451793599999999e-02  1.65698308e+00  -4.09911804e+00  -1.16509340e-01
C     1.230142868400000e+00   3.873314366501580e-01   1.352068629600000e+01 -1.42179020e+00   1.42047844e+00   9.32224000e-01
C     1.342192832775000e+00   1.069508693044592e+00   3.255276960000000e+00  4.72345368e+00  -1.84307808e+00   8.06451410e-01
C     2.696707140600000e+00   1.607456170514594e+00   2.984381280000000e+00 -7.23347290e-01   6.04933948e+00   2.25525322e+00
C     6.132060158700000e+00   6.130314064931457e+00   2.107193520000000e-01  1.21527169e+00   1.56704279e+00  -4.55536300e-02
C     3.690279595950000e+00   4.522430730417600e-01   2.539355280000000e-01 -2.31252968e+00   5.75906950e-01  -1.24519229e+00
C     3.947934633000000e+00   1.069993687492330e+00   3.361318200000000e+00 -3.28859580e-01   3.24344993e+00   1.24076210e-01
C     5.178921677625000e+00   1.798666496376150e+00   3.627235736000000e+00 -1.33234692e+00   1.10287382e+00  -5.43503970e-01
C     8.574664894200000e+00   6.117989967275987e+00   3.187587040000000e-01  1.54382723e+00   5.87474212e+00  -4.81226730e-01
C     6.089395963349999e+00   4.244875318171488e-01   2.162070880000000e-01  7.85936960e-01   4.47287046e+00   1.35293599e+00
C     6.408317466149999e+00   1.086580331094258e+00   3.830430480000000e+00 -9.69919570e-01  -2.79534410e-01  -1.45885117e+00
C     7.599211076250000e+00   1.793278402110796e+00   3.421429384000000e+00 -2.01675396e+00  -4.72517030e-01   7.20307150e-01
C     1.233872499675000e+00   1.744379779944602e+00   1.339334392000000e+01 -9.89416950e-01   6.40398274e+00   2.03725955e+00
C     2.455905160650000e+00   2.552163745747216e+00   1.315530216800000e+01 -1.12573972e+00   9.21825410e-01   2.96976557e+00
C     2.742895940850000e+00   3.169115108816857e+00   3.156313432000000e+00 -1.86983459e+00   8.97196330e-01   1.18367321e+00
C     3.854605406925000e+00   4.005034388335180e+00   3.618105783999999e+00  1.36102235e+00  -5.23580570e+00  -1.14281179e+00
C     3.655528457325000e+00   1.861211503318167e+00   1.354663441600000e+01  1.25434411e+00   4.66186680e-01   1.85324590e-01
C     4.849279865174999e+00   2.602232297739274e+00   2.757599920000000e-01  1.14964791e+00  -3.81166810e-01   3.18524570e-01
C     5.114084129400000e+00   3.267262025628401e+00   3.626975568000000e+00  1.48610449e+00  -1.76751752e+00  -8.05348910e-01
C     6.402504848250000e+00   3.851193035171883e+00   3.481163303999999e+00 -1.30224930e+00   4.50256948e+00   1.14017051e+00
C     6.135745419975000e+00   1.885757358588503e+00   5.441079839999999e-01 -3.61410390e-01   6.41283350e-01  -2.47934166e+00
C     7.394763914625000e+00   2.645197823296229e+00   4.824458560000000e-01  7.78849160e-01  -1.11076739e+00  -2.79147041e+00
C     7.599875147250000e+00   3.159232058087305e+00   3.248984104000000e+00  1.06675802e+00   2.67595570e+00   6.83949480e-01
C     8.889279548999999e+00   3.934632573807936e+00   3.233826904000000e+00 -1.21308904e+00  -8.92222670e-01   2.52491130e-01
C     2.405401969500000e+00   4.029741951116482e+00   1.335645392000000e+01  1.45458136e+00   8.32321040e-01   2.06232733e+00
C     3.679221926399999e+00   4.833174928171591e+00   5.180240000000001e-04 -1.10978256e+00  -4.36700502e+00  -3.36243060e-01
C     3.823277413800000e+00   5.322506339332183e+00   3.969789816000000e+00  3.73151483e+00   1.99427643e+00  -1.65781362e+00
C     5.081890440600000e+00   6.162648522440811e+00   3.744734840000000e+00  1.33476733e+00  -4.48423392e+00  -8.93429610e-01
C     4.886199735449999e+00   4.002801671917449e+00   2.561055440000000e-01  6.47742150e-01   3.18844566e+00   5.35773710e-01
C     6.181775264699999e+00   4.823859550858749e+00   5.833918560000000e-01 -1.75675177e+00  -3.24290833e+00  -1.77650093e+00
C     6.391892357700000e+00   5.396232155816502e+00   3.580288536000000e+00 -1.28249776e+00  -3.47177960e-01  -2.75216560e-01
C     7.619809589925000e+00   6.165120245761877e+00   3.494404264000000e+00 -2.93761690e-01  -7.37044953e+00   9.31398000e-02
C     7.485122569200000e+00   4.243463435483672e+00   5.580456720000000e-01 -6.51559162e+00  -8.93734288e+00   2.22857080e-01
C     8.608718055750000e+00   4.810982125324175e+00   2.781028640000000e-01  4.96784780e+00  -4.09086653e+00  -2.85575551e+00
C     8.838934093199999e+00   5.377193321879980e+00   3.501706104000000e+00  8.30827110e-01  -1.44158404e+00   1.05619028e+00
C     1.006454123835000e+01   6.002368264382491e+00   3.915394848000000e+00 -3.13428345e+00   3.40077458e+00  -1.99082252e+00
C     7.399606604324999e+00   2.259894166812282e-01   6.807979799999999e+00 -1.90696361e+00   5.49550610e-01  -8.14153310e-01
C     1.234187563650000e+00   9.024836627358551e-01   6.564160223999999e+00 -1.40318083e+00   1.78370664e+00   4.29948530e-01
C     1.087181545200000e+00   3.870805178272032e-01   1.015573676000000e+01  4.12551630e-01  -8.20412180e-01   1.16843800e-02
C     2.320248655425000e+00   1.073711423222638e+00   9.741418744000001e+00 -2.06927020e+00   1.92819850e-01   1.15104158e+00
C     2.439893580600000e+00   2.463839679641340e-01   6.749622880000000e+00 -1.14002687e+00  -2.16332650e+00  -6.24195910e-01
C     3.595838383725000e+00   9.889036789373743e-01   6.736326976000000e+00  9.27438880e-01  -5.32469320e-01  -5.07928220e-01
C     3.526475169450000e+00   3.559621008003060e-01   9.795964264000000e+00  7.63736180e-01  -1.64083310e-01   1.34918090e+00
C     4.741947134325000e+00   1.070157316280653e+00   9.962203184000000e+00  2.41239091e+00   3.72447630e-01   1.04414189e+00
C     4.791281508749999e+00   3.219957103030668e-01   6.817397256000000e+00  1.67122038e+00  -4.27411297e+00  -5.81825000e-02
C     6.016356361800000e+00   9.737236024892377e-01   6.755871399999999e+00  3.87895121e+00  -3.99851814e+00   3.64311500e-01
C     6.038776300950000e+00   2.639071702355088e-01   1.036973588800000e+01 -1.84780143e+00   2.66506804e+00  -1.60701043e+00
C     7.229715316350000e+00   1.104292458972503e+00   1.040227184800000e+01  6.05682180e-01  -2.42279342e+00  -1.21633146e+00
C     8.628449172900000e+00   2.355599012016651e+00   6.341171632000000e+00  3.23951240e-01  -1.55418482e+00   1.52977431e+00
C     2.459742241275000e+00   3.105963554612919e+00   6.390085256000000e+00 -1.31914192e+00   4.81176800e-01   8.79957100e-01
C     2.257336469400000e+00   2.482843674415104e+00   9.630643888000000e+00  7.19952130e-01   1.06817306e+00   1.69846029e+00
C     3.532043715375000e+00   3.281939495919685e+00   9.726899112000000e+00  4.97821260e-01  -2.30334710e+00   9.62348430e-01
C     3.629348604375000e+00   2.348443726837409e+00   6.542080488000000e+00  1.73475426e+00   3.18192843e+00   5.29716500e-02
C     4.882538138175000e+00   3.074500460427997e+00   6.595063639999999e+00  1.79127057e+00  -5.00206680e-01   7.38764910e-01
C     4.775715625349999e+00   2.606873015112366e+00   9.926125104000000e+00  5.19258580e-01  -3.92654306e+00   9.16275440e-01
C     6.065341322475000e+00   3.262596459734813e+00   1.030107003200000e+01 -4.18018269e+00  -4.45391304e+00  -8.80066070e-01
C     6.124804480500000e+00   2.301170121060611e+00   6.654064248000000e+00 -9.35301600e-01   3.18728016e+00  -2.95373090e-01
C     7.400658136350000e+00   2.932811955064992e+00   6.551682768000000e+00 -1.40993748e+00   4.68555741e+00   4.76965750e-01
C     7.230327770250000e+00   2.536456919090094e+00   1.031895049600000e+01 -1.22556861e+00  -4.21543060e+00  -1.88695970e-01
C     8.374245382350001e+00   3.109696020136306e+00   9.964471935999999e+00  4.74236887e+00   4.53191916e+00  -7.03648090e-01
C     9.871032132149999e+00   4.512346970246716e+00   6.633995816000000e+00 -9.02888460e-01   9.89344880e-01   4.69478780e-01
C     3.774681578025000e+00   5.221161584443405e+00   6.795692880000000e+00 -2.47656785e+00  -5.30232810e-01  -3.82532280e-01
C     3.615770053275000e+00   4.640992820222358e+00   1.009455144800000e+01 -8.21789020e-01  -1.71235272e+00  -3.01317360e-01
C     4.832951335424999e+00   5.294977700963551e+00   1.024932747200000e+01 -1.15564144e+00   2.91540256e+00  -4.95382460e-01
C     5.035413050475000e+00   4.513966671102088e+00   6.716912160000000e+00 -7.53526418e+00  -2.95207102e+00  -3.80905450e-01
C     6.137148990975000e+00   5.199114542504883e+00   6.756329992000000e+00  5.20572973e+00   1.91811316e+00   5.89704690e-01
C     6.027327029175000e+00   4.568467161661003e+00   1.027279685600000e+01  1.83595200e-02   5.90616602e+00  -9.63876850e-01
C     7.178600780549999e+00   5.350485261070950e+00   1.007460514400000e+01  3.18512863e+00  -5.15050350e-01  -2.12026960e-01
C     7.366171221075000e+00   4.440716562891609e+00   6.738183104000000e+00 -1.69829410e-01  -8.71861560e-01  -8.50529200e-01
C     8.513105290650000e+00   5.214743685514163e+00   6.766269824000000e+00  3.77828474e+00   6.47387440e-01  -2.77501560e-01
C     8.401479725325000e+00   4.596766040122456e+00   1.001268257600000e+01  2.57095335e+00  -2.80679520e-01   7.11011110e-01
C     9.793052707575001e+00   5.236423315179256e+00   1.021085810400000e+01 -5.17734308e+00   3.26457221e+00  -6.20633120e-01
