72
Lattice="7.395 0 0 3.6975 6.40425786098592 0 0 0 13.6 " PBC="1 1 1" Properties=species:S:1:pos:R:3:force:R:3 Energy="-568.82592624"
C     3.778529972999999e+00   6.337366923674186e+00   1.339238580000000e+01 -1.60707186e+00   3.02780382e+00   7.33081250e-01
C     1.243057903125000e+00   7.850883006280314e-01   1.345800471200000e+01  8.84410570e-01  -2.87847365e+00  -1.56400250e-01
C     1.359805097550000e+00   6.893655875442337e-01   3.459219024000000e+00 -4.38328663e+00   4.04610773e+00  -6.86986060e-01
C     2.450377989750000e+00   1.584164012762932e+00   3.449395200000000e+00  4.95687750e-01  -1.99250830e+00  -7.60666930e-01
C     2.470256045550000e+00   1.697307652120080e-02   1.349635072800000e+01 -5.30153860e-01  -1.37309803e+00   1.38740200e-02
C     3.673489322400000e+00   6.844948932713892e-01   1.331428480800000e+01  2.38771016e+00   2.08458486e+00   1.24797266e+00
C     3.600117241650000e+00   7.437335099654461e-01   3.433582616000000e+00  3.58155276e+00   9.33822900e-02   6.27688580e-01
C     4.947787994625000e+00   1.418697010306376e+00   3.496160568000000e+00 -3.34331375e+00  -5.16056900e-02  -4.67438700e-02
C     8.650050707399998e+00   6.393616801310139e+00   1.347483403200000e+01 -1.20194354e+00  -9.12051240e-01  -5.59690380e-01
C     6.263650560149999e+00   7.372836537894829e-01   1.354389864000000e+01 -2.51187075e+00  -6.82375731e+00  -9.37261110e-01
C     6.138015204299999e+00   7.602965858984496e-01   3.498413136000000e+00  1.09269843e+00  -2.21225235e+00   2.17442040e-01
C     7.358143763699999e+00   1.364415097068223e+00   3.391767240000000e+00  4.02894160e+00   4.24474243e+00   2.01444770e-01
C     8.598791081700000e+00   2.221466186034295e+00   1.345719061600000e+01  4.33627233e+00  -4.41708687e+00  -8.40787720e-01
C     2.436265334775000e+00   2.937031912696682e+00   1.330463112000000e+01  1.33409908e+00  -4.79356045e+00   1.04633890e-01
C     2.432041717500000e+00   3.069045121455113e+00   3.373549224000000e+00  5.83712662e+00  -7.28839409e+00   8.59081820e-01
C     3.764589029925000e+00   3.549353509674173e+00   3.556969296000000e+00 -1.79818492e+00   4.18694513e+00  -6.64598560e-01
C     3.682382919150000e+00   2.205516894174594e+00   1.325273923200000e+01  4.71392350e-01  -2.57338296e+00   2.15373361e+00
C     4.914053039925000e+00   2.865278095292613e+00   5.231253600000000e-02  2.10021340e-01  -4.10789875e+00  -1.24928843e+00
C     4.988288967599999e+00   2.803676115320481e+00   3.603749352000000e+00 -4.10519417e+00   5.51460980e-01  -6.34948530e-01
C     6.087712676474999e+00   3.589334779153524e+00   3.560362088000000e+00  5.49771677e+00  -4.02571819e+00  -1.10116445e+00
C     6.242386570424999e+00   2.045926182560060e+00   1.198014480000000e-01 -5.43056264e+00   2.18652355e+00  -2.98243100e-01
C     7.388954883300000e+00   2.696071774756760e+00   1.358857151200000e+01 -1.37172724e+00   6.04500682e+00   7.06819100e-01
C     7.363563448275000e+00   2.887841960840437e+00   3.341549376000000e+00  5.57966590e-01  -1.88806453e+00   8.80423380e-01
C     8.654080353825000e+00   3.640817327238492e+00   3.319768976000000e+00 -5.00276865e+00   2.49000050e-01   8.06192350e-01
C     2.533336209000000e+00   4.256630077303204e+00   1.331799896800000e+01 -7.01941211e+00   2.28325763e+00   3.08013920e-01
C     3.688777560525000e+00   4.896867642164699e+00   1.331806044000000e+01  3.10538385e+00   4.04110689e+00   1.33739133e+00
C     3.790814842800000e+00   5.064421023746886e+00   3.524190576000000e+00 -8.22145430e-01  -1.50136430e+00   4.11998210e-01
C     5.079915273075000e+00   5.725974776639918e+00   3.447757624000000e+00 -4.15454279e+00  -7.34003520e-01   5.22771510e-01
C     4.856675345849999e+00   4.224047390759196e+00   6.037556800000000e-02  2.36781535e+00   1.79440888e+00  -5.69729250e-01
C     6.110187745350000e+00   4.954234998754642e+00   1.148588000000000e-01  3.55862920e-01  -2.42377450e-01  -9.39096590e-01
C     6.181089304499999e+00   4.921370396779637e+00   3.472612848000000e+00  9.61324600e-02   2.80025979e+00   9.71960800e-02
C     7.337508903600000e+00   5.646612124514962e+00   3.476221472000000e+00  3.81261265e+00   2.72422966e+00   3.08992170e-01
C     7.268649769500000e+00   4.096192914927313e+00   2.265420000000000e-02  3.09623312e+00   5.98015591e+00  -6.58379300e-01
C     8.558998475774999e+00   4.922215694774579e+00   1.342609312800000e+01  1.17664851e+00   7.11634560e-01   7.95292610e-01
C     8.670832173375000e+00   4.979310550192579e+00   3.576525144000000e+00 -1.65694040e+00   4.36549760e+00  -1.01160163e+00
C     9.895540012574999e+00   5.774251609410484e+00   3.612207192000000e+00  3.04719290e-01  -3.59208884e+00  -7.79462300e-01
C     4.908937807500000e-02   2.808427178056500e-02   7.115195504000000e+00 -1.37900847e+00  -1.97388413e+00  -5.02503080e-01
C     1.214223134250000e+00   7.083096384644281e-01   6.931331391999999e+00  3.07116883e+00   2.13643121e+00  -1.04155226e+00
C     1.099291227450000e+00   6.484179155538085e-01   1.020931205600000e+01  9.94795970e+00  -1.63043690e+00   8.07065500e-02
C     2.477536386075000e+00   1.422055146957846e+00   1.014660558400000e+01 -1.37779367e+00  -2.83941469e+00   1.05590945e+00
C     2.492657903925000e+00   8.156783023389002e-03   6.640500424000000e+00 -1.09201367e+00   1.63471345e+00   8.99118490e-01
C     3.834926202675000e+00   6.588350173463059e-01   6.471783992000000e+00 -2.21825659e+00  -8.88384700e-02   2.00604984e+00
C     3.743650346249999e+00   6.749449920357145e-01   1.039052838400000e+01 -5.26668582e+00  -1.58582850e+00  -6.17927680e-01
C     4.884993167250000e+00   1.395224188440483e+00   1.032726417600000e+01  2.29118745e+00  -9.67140220e-01  -1.12690250e-01
C     8.718499751774999e+00   6.401249331785108e+00   6.885135592000000e+00  1.10262446e+00   4.89338930e-01  -3.89857780e-01
C     6.278522422800000e+00   8.030295088099285e-01   7.095451159999999e+00 -3.94858159e+00  -1.91898605e+00  -1.65593652e+00
C     6.125640633150000e+00   7.359093000527269e-01   1.030795448800000e+01  1.76378149e+00   5.39530870e-01  -2.23014210e-01
C     7.443468752699999e+00   1.332362939245338e+00   1.017600688000000e+01 -8.02188554e+00   7.59888439e+00  -5.16454620e-01
C     8.611636492499999e+00   2.173391343556633e+00   6.906542128000000e+00 -2.63860540e-01   5.90917070e-01  -1.59609491e+00
C     2.497205459175000e+00   2.789546721416856e+00   6.664804304000000e+00 -1.45566077e+00  -6.11665420e-01   6.51412690e-01
C     2.461850888550000e+00   2.826280455777979e+00   1.006533320800000e+01 -7.13699080e-01  -1.35684019e+00   6.13531590e-01
C     3.698547464775000e+00   3.414992179771373e+00   1.003693464000000e+01 -9.04759200e-02   4.97866487e+00   2.42518300e-01
C     3.770347664325000e+00   2.077433081868745e+00   6.465102991999999e+00 -1.82292166e+00   6.78959210e-01   1.41109261e+00
C     4.918555633575000e+00   2.811296990046145e+00   6.681580856000000e+00 -7.36879170e-01   2.75578557e+00   5.08444300e-01
C     4.904005934100000e+00   2.728128287474991e+00   1.013226016800000e+01  5.70716480e-01   4.13184178e+00  -5.42297100e-01
C     6.131638791600000e+00   3.527633789354875e+00   1.010432372800000e+01  1.34066373e+00  -1.05018592e+00   6.59681690e-01
C     6.128053104000000e+00   2.171048281775974e+00   6.843582832000000e+00  3.61233107e+00   2.48604580e+00   4.08694180e-01
C     7.363140897974999e+00   3.082012014471991e+00   6.819186472000000e+00  7.86885800e-01  -8.86090078e+00   9.43187830e-01
C     7.438966122075000e+00   2.893727345728620e+00   1.007235597600000e+01 -1.07808329e+00  -2.26321606e+00   1.28106428e+00
C     8.653977045674999e+00   3.616236504720240e+00   1.021919653600000e+01 -4.31956080e-01  -3.05068757e+00  -9.37512690e-01
C     9.780468118424999e+00   4.181950346610637e+00   6.883180864000000e+00  5.56815228e+00   2.89952620e-01  -2.67521650e-01
C     3.638909673825000e+00   4.959103195366922e+00   6.974939520000000e+00 -1.44249049e+00   1.68466835e+00   2.36219380e-01
C     3.649475280075000e+00   4.956972883032371e+00   1.004544008000000e+01 -7.53407250e-01  -7.13266660e-01   1.47425191e+00
C     4.835100581250000e+00   5.655337029253111e+00   1.022823972000000e+01  2.09162901e+00  -1.55085353e+00  -4.00364950e-01
C     4.821280842224999e+00   4.324789889238819e+00   6.888314320000000e+00  3.65060843e+00  -3.01877430e+00  -1.22828326e+00
C     6.067361081850000e+00   5.057344318811586e+00   6.787751024000000e+00  2.48667379e+00  -1.14057565e+00  -3.93072960e-01
C     6.144794681475000e+00   4.927462703239277e+00   1.029428703200000e+01 -1.72012617e+00   3.11305380e-01  -1.37995940e-01
C     7.384173683025000e+00   5.565321662688989e+00   1.052106975200000e+01 -9.25245300e-01   3.99934928e+00  -1.30848018e+00
C     7.423314493649999e+00   4.403660566274970e+00   6.742692184000000e+00 -3.84966555e+00   2.10731460e-01   4.07769320e-01
C     8.680422637949999e+00   4.930669891532986e+00   6.899116799999999e+00 -2.19084306e+00   4.70430489e+00  -2.18877430e-01
C     8.632551992850001e+00   4.971571068611348e+00   1.044579443200000e+01 -2.60739500e-01   9.84702730e-01  -9.31387160e-01
C     9.780504945524999e+00   5.797550939930950e+00   1.027185288000000e+01  2.64127748e+00  -5.57293293e+00  -2.82880010e-01
