72
Lattice="7.395 0 0 3.6975 6.40425786098592 0 0 0 13.6 " PBC="1 1 1" Properties=species:S:1:pos:R:3:force:R:3 Energy="-580.77509767"
C     1.103676477240000e+01   6.374949030074025e+00   1.341412580800000e+01  1.72627882e+00  -5.61234870e-01  -1.39159480e-01
C     1.221248310300000e+00   6.633562312677301e-01   1.336787887200000e+01 -8.06107970e-01  -1.41963790e-01   1.23435380e-01
C     1.244272494900000e+00   7.481381023512397e-01   3.439097280000000e+00  3.78197300e-01   7.09164100e-01   2.32568150e-01
C     2.477880549375000e+00   1.462234948430857e+00   3.414577704000000e+00  1.59767447e+00  -1.77762451e+00   5.20960330e-01
C     6.176614220250000e+00   6.349907613330481e+00   1.339685816000000e+01 -1.79254271e+00   8.51860500e-01   4.41615260e-01
C     3.684263430675000e+00   6.502469075560459e-01   1.341870343200000e+01 -3.83887180e-01   9.85567820e-01  -7.14152720e-01
C     3.772400923050000e+00   7.963931606450820e-01   3.532070416000000e+00 -2.02865882e+00  -2.09052012e+00  -4.16420660e-01
C     5.004778486500000e+00   1.505693153544980e+00   3.594324688000000e+00 -2.10030524e+00  -2.03709890e-01  -6.40702040e-01
C     8.589703292249999e+00   6.386565072980493e+00   1.337453879200000e+01  2.23019081e+00  -9.98223520e-01   5.44654350e-01
C     6.132057015825000e+00   7.006993948068114e-01   1.343413140800000e+01  8.24966500e-02  -4.56388800e-02  -4.53120000e-04
C     6.170357754449999e+00   7.823064831413833e-01   3.584154744000000e+00  2.30202784e+00  -9.84502820e-01  -5.66431430e-01
C     7.420575644475000e+00   1.485815682041691e+00   3.469354424000000e+00 -7.35125350e-01  -9.04272400e-02   3.55861460e-01
C     8.586507395100000e+00   2.091394940386752e+00   1.333297556000000e+01  1.88054732e+00  -3.18479650e-01   6.38943110e-01
C     2.465197200000000e+00   2.789560746741569e+00   1.325887024800000e+01 -8.54722390e-01   1.66236980e-01   2.89193700e-01
C     2.498300178000000e+00   2.835997380058643e+00   3.465272928000000e+00 -8.26934570e-01   2.66576324e+00   9.78465700e-02
C     3.669551078175000e+00   3.591736632021338e+00   3.576199696000000e+00  3.21292019e+00   2.54808230e-01  -4.86393350e-01
C     3.680188822650000e+00   2.068363179759677e+00   1.331068312000000e+01  1.04393290e+00   1.13525973e+00   1.26153156e+00
C     4.921798636875000e+00   2.814780522066513e+00   1.351617041600000e+01 -4.76203790e-01   4.31166680e-01  -8.49698940e-01
C     4.976316758399999e+00   2.897837150125117e+00   3.526089000000000e+00 -5.56019440e-01   2.39583496e+00   5.51993780e-01
C     6.210539152499999e+00   3.670256739982233e+00   3.516788096000000e+00 -1.60477229e+00  -2.22320334e+00   1.13588750e-01
C     6.177520477500000e+00   2.127389303177939e+00   1.354956943200000e+01 -1.61501471e+00  -8.86409060e-01  -3.05414300e-02
C     7.399955315550000e+00   2.798765970819219e+00   1.356913167200000e+01  1.16458800e-01   1.97780040e+00  -6.03398990e-01
C     7.413959153100000e+00   2.920329416070066e+00   3.475900240000000e+00  1.61854187e+00   3.29802680e-01  -1.71772550e-01
C     8.707963023000000e+00   3.612691555866994e+00   3.463094344000000e+00 -2.39623229e+00  -1.08853388e+00   2.12708400e-01
C     2.486873054250000e+00   4.220985002735701e+00   1.326951292800000e+01 -9.27115090e-01  -7.45708930e-01   6.27479790e-01
C     3.685145506275000e+00   4.918799919802369e+00   1.337799414400000e+01 -8.08983300e-02   2.18486239e+00  -3.77383300e-02
C     3.691339299450000e+00   5.036957004340061e+00   3.615583800000000e+00  4.40813020e-01  -5.34951600e-01  -6.52231880e-01
C     4.963230973125000e+00   5.749171510949467e+00   3.560866784000000e+00 -2.74466275e+00   2.20501440e-01  -1.17381570e-01
C     4.908196199924999e+00   4.269464402182380e+00   1.348801746400000e+01  1.10547123e+00  -2.07733666e+00   2.53651110e-01
C     6.162365608200000e+00   4.962539912262333e+00   1.354087440800000e+01  2.60540380e-01  -7.98000580e-01  -8.88290200e-02
C     6.155512846575000e+00   5.072660037441197e+00   3.554655256000000e+00  2.34366291e+00  -9.08628400e-01  -4.65722770e-01
C     7.417857353400001e+00   5.714920323105193e+00   3.506871792000000e+00  5.68489320e-01   2.80272482e+00   4.43513700e-01
C     7.413982780125000e+00   4.266886047967944e+00   1.358676448000000e+01  2.27910220e-01  -1.32849729e+00  -1.04673748e+00
C     8.664527677050000e+00   4.951731830527482e+00   1.335472155200000e+01 -1.77057225e+00   8.65358200e-02   8.32479850e-01
C     8.665973251650000e+00   5.024178716717160e+00   3.532282984000000e+00 -9.49218820e-01  -5.31611150e-01  -4.14082010e-01
C     9.853201677900000e+00   5.746962874541289e+00   3.547138808000000e+00  1.51110482e+00   1.06050545e+00   5.81138360e-01
C     3.380025255000000e-02   3.291071263159680e-02   7.069581511999999e+00 -1.99503761e+00   6.82751420e-01  -6.47719230e-01
C     1.240026618675000e+00   7.112734649594574e-01   6.880656704000000e+00  4.40650080e-01   1.79491166e+00  -3.27825160e-01
C     1.206479201175000e+00   6.538642885656882e-01   1.017525983200000e+01 -1.10403485e+00   3.96041270e-01   4.28194410e-01
C     2.412822925950000e+00   1.383995859304859e+00   1.021186885600000e+01  1.34826809e+00  -4.72390130e-01   1.64827160e-01
C     2.450094243600000e+00   1.558591426872480e-02   6.735190560000000e+00  1.60548068e+00   8.49370700e-01   3.26186670e-01
C     3.670647460875000e+00   7.862356874662291e-01   6.673257656000001e+00  6.87253980e-01  -8.46657220e-01   2.78750550e-01
C     3.667880732550000e+00   6.944920678760064e-01   1.040065018400000e+01  4.29839360e-01  -1.42341130e+00  -1.58701340e+00
C     4.918202226525000e+00   1.394595354361209e+00   1.024090594400000e+01 -1.71965150e+00  -1.22478126e+00   8.36476730e-01
C     4.903793734574999e+00   4.597981760392020e-02   6.806022759999999e+00 -5.15400410e-01  -2.82638230e-01   6.14719690e-01
C     6.124099145400001e+00   7.245389244777685e-01   6.997607728000000e+00  1.88079751e+00   7.48935790e-01  -7.57142550e-01
C     6.126992587049999e+00   6.355940296149444e-01   1.030665432800000e+01 -3.27379750e-01   4.68628900e-01  -6.46394800e-01
C     7.335402142050000e+00   1.337639407296192e+00   1.018085949600000e+01  1.65084898e+00   8.55092020e-01   1.12406740e-01
C     1.268220315000000e+00   2.169100746960748e+00   6.797311688000000e+00 -8.65006600e-02  -1.06650527e+00   2.10853770e-01
C     2.475136116975000e+00   2.930877292808065e+00   6.672483136000000e+00  5.72904540e-01  -4.48438080e-01   1.16922271e+00
C     2.429274693375000e+00   2.787528995935484e+00   1.011165290400000e+01 -2.09470340e-01   1.04300930e+00   2.06685750e-01
C     3.684713971050000e+00   3.494007849205474e+00   1.006479954400000e+01 -2.34908924e+00   1.19548991e+00   7.82711170e-01
C     3.725527530675000e+00   2.218686417910162e+00   6.640732440000000e+00 -2.36473936e+00  -1.75406690e+00   2.89221240e-01
C     4.930599981000000e+00   2.857109144179290e+00   6.723078400000000e+00  2.39394105e+00   2.10122695e+00   5.73255680e-01
C     4.859212607324999e+00   2.800896731451819e+00   1.013531037600000e+01  3.20341342e+00  -1.97741360e-01   9.67637300e-02
C     6.115370272274999e+00   3.524680978183365e+00   1.020675580000000e+01  4.07402410e-01  -7.15439950e-01  -1.52294030e-01
C     6.172322864775000e+00   2.153461485224049e+00   6.875077848000000e+00 -5.93389680e-01  -1.14217039e+00   9.14127200e-02
C     7.423185746700000e+00   2.818380803707669e+00   6.897937000000001e+00 -2.73409780e-01   1.81485133e+00  -5.52997300e-01
C     7.367455214924999e+00   2.780565774449463e+00   1.018500640800000e+01 -1.82015163e+00  -3.60321700e-02   1.66106470e-01
C     8.570137453350000e+00   3.504878308411881e+00   1.019377990400000e+01  1.11736588e+00  -1.21756382e+00  -2.09530650e-01
C     9.894428100375000e+00   4.337955890632564e+00   6.907592591999999e+00 -1.02680883e+00  -1.91474360e-01  -6.48205720e-01
C     3.732634680300000e+00   5.047251592679697e+00   7.000364992000001e+00  9.15114380e-01  -2.03039319e+00  -1.04455794e+00
C     3.697805487450000e+00   4.936690150091700e+00   1.016481394400000e+01 -1.36827242e+00  -3.71652870e-01   1.77105020e-01
C     4.922071771200000e+00   5.651564152862628e+00   1.020813130400000e+01 -6.52666480e-01  -4.04912400e-02  -2.84820600e-02
C     4.985338621424999e+00   4.297909553893356e+00   6.797792448000000e+00 -1.16364473e+00   5.35996070e-01   6.01172470e-01
C     6.228650394899999e+00   5.012194557068899e+00   6.784084600000000e+00 -1.46814690e+00  -1.26239301e+00   1.17003120e-01
C     6.137223680475000e+00   4.948216725515864e+00   1.028070702400000e+01  4.63268130e-01  -1.19491628e+00  -1.34237010e-01
C     7.386154396799999e+00   5.606819396387009e+00   1.040020274400000e+01 -1.70600478e+00   2.82649072e+00  -3.32180330e-01
C     7.435918864424999e+00   4.258741368991910e+00   6.827943104000000e+00 -5.23847040e-01   3.42155160e-01  -3.54323200e-02
C     8.614105719975001e+00   5.013258752597496e+00   6.869073584000000e+00  1.49524078e+00   1.53091800e-01  -6.20429000e-03
C     8.561309672100000e+00   4.894804126239627e+00   1.033273776800000e+01  2.36820229e+00   8.85344160e-01  -3.32303560e-01
C     9.823540185000001e+00   5.626071876365741e+00   1.030827014400000e+01  2.71777950e-01  -7.81227240e-01  -4.69444470e-01
