72
Lattice="7.395 0 0 3.6975 6.40425786098592 0 0 0 13.6 " PBC="1 1 1" Properties=species:S:1:pos:R:3:force:R:3 Energy="-576.93259601"
C     3.741832914075000e+00   6.310793800578267e+00   1.327657350400000e+01 -2.65314666e+00   6.71324400e-02   6.97526860e-01
C     1.184919374475000e+00   6.576089862215875e-01   1.335613690400000e+01  1.68800957e+00   8.03812700e-02  -5.43606140e-01
C     1.303196520450000e+00   8.473538897996172e-01   3.763749000000000e+00  5.14930310e-01   6.09506580e-01  -8.51569630e-01
C     2.563116391650000e+00   1.556724201450818e+00   3.747908808000000e+00 -1.71879759e+00   1.61566731e+00  -3.63710220e-01
C     6.063182241300000e+00   6.357458617602894e+00   1.329625406400000e+01  4.89622120e+00  -2.36857135e+00   1.00913100e-01
C     3.693015228300000e+00   6.588338005373124e-01   1.336882080800000e+01  5.28586000e-03  -1.41000729e+00  -6.27486490e-01
C     3.742318950450000e+00   8.314508366816653e-01   3.632851040000000e+00  8.32051660e-01   9.51804130e-01  -2.06826250e-01
C     4.941358559775001e+00   1.556777164663321e+00   3.539239928000000e+00  3.15237948e+00   8.46858990e-01   9.16307850e-01
C     8.672397251174999e+00   6.269777603028740e+00   1.333648830400000e+01 -2.17563330e+00   1.79783752e+00   1.69737290e-01
C     6.223732571999999e+00   6.465997467473544e-01   1.326347738400000e+01 -3.00921072e+00  -1.83903829e+00  -1.91548850e-01
C     6.249427239000000e+00   9.052660566057109e-01   3.604610367999999e+00 -5.23626790e-01  -2.89140381e+00  -1.20019170e-01
C     7.504170351375000e+00   1.612540702957384e+00   3.725138464000000e+00 -2.28616810e+00  -2.96687871e+00  -4.55506700e-01
C     1.207239222300000e+00   2.082296283159893e+00   1.335329382400000e+01  3.14724900e-01  -1.41311021e+00   2.26308900e-02
C     2.427656741324999e+00   2.747695664812698e+00   1.351588753600000e+01  1.22142298e+00   1.44877439e+00  -1.03201393e+00
C     2.565268262700000e+00   3.046031036579731e+00   3.703880304000000e+00 -1.49412056e+00  -2.41273946e+00  -2.39012020e-01
C     3.827418539850000e+00   3.718208492623825e+00   3.570533528000000e+00 -2.66535611e+00  -1.52050906e+00   5.68240610e-01
C     3.706874863349999e+00   2.114468072519603e+00   1.336235360000000e+01 -1.97451367e+00  -3.50210175e+00   8.82387180e-01
C     4.904894369400000e+00   2.763050577500413e+00   1.319296995200000e+01  1.03571694e+00  -2.93411880e-01  -3.27121520e-01
C     4.995607170524999e+00   2.999189846293641e+00   3.604876384000000e+00  1.14018124e+00  -1.05823071e+00  -4.29841040e-01
C     6.248875867799999e+00   3.723882537002628e+00   3.653194192000000e+00 -1.81443779e+00  -2.33911797e+00  -2.15089380e-01
C     6.118595823374999e+00   2.043324516847013e+00   1.305807699200000e+01  2.21979916e+00  -1.87444040e-01   1.20643996e+00
C     7.419995617650000e+00   2.755687602238771e+00   1.306325029600000e+01 -2.66639271e+00  -1.83585306e+00   8.70882180e-01
C     7.419717084975000e+00   2.973223782800271e+00   3.727405720000000e+00  2.53115011e+00   2.11175999e+00  -9.42245700e-02
C     8.640434545200000e+00   3.694920177426878e+00   3.718413535999999e+00  2.45558288e+00   1.00015719e+00  -1.40010120e-01
C     9.802858366650000e+00   4.178203151294173e+00   1.349472348800000e+01  2.36278542e+00  -6.51141570e-01  -4.07531250e-01
C     3.693964635375000e+00   4.903059406748904e+00   1.337461835200000e+01 -5.01361710e-01  -1.06762145e+00  -5.13967610e-01
C     3.794491784700000e+00   5.085288785643066e+00   3.571762560000000e+00 -1.02379778e+00   2.24161557e+00  -1.04654850e-01
C     4.954370025300000e+00   5.835783654886786e+00   3.592681944000000e+00  3.51286122e+00  -7.88921900e-02   6.32958420e-01
C     4.912399074225000e+00   4.155752833238206e+00   1.314094342400000e+01 -8.55756130e-01   1.28456991e+00   1.27980116e+00
C     6.132426950699999e+00   4.823781546998013e+00   1.310799647200000e+01  1.12484470e-01   3.51080377e+00   4.39441450e-01
C     6.252937053900000e+00   5.089146070152144e+00   3.625308480000000e+00 -1.14590031e+00   3.33157086e+00  -5.05644800e-02
C     7.484712738299999e+00   5.843845975106740e+00   3.634767688000000e+00 -2.23548337e+00  -6.97974840e-01   1.20586720e-01
C     7.374034842224999e+00   4.108888395496084e+00   1.307857450400000e+01  1.44809130e-01   3.48854504e+00   1.44878954e+00
C     8.584432912724999e+00   4.813926354790153e+00   1.338966838400000e+01 -1.10826040e-01   2.85576832e+00  -9.58997950e-01
C     8.664785947424999e+00   5.148535635203961e+00   3.668450128000000e+00  2.64173098e+00  -1.90364075e+00  -4.07931700e-01
C     9.967422777299999e+00   5.782047192290570e+00   3.601288568000000e+00 -1.89332632e+00   3.14907616e+00   8.12145100e-02
C     7.391927081700000e+00   9.632874800508960e-02   6.542709352000000e+00  2.54995188e+00  -1.14255479e+00   2.02920583e+00
C     1.258796607675000e+00   8.292894636964938e-01   6.827269224000000e+00  5.24880870e-01  -2.47146214e+00   1.05269390e-01
C     1.125132759150000e+00   6.031313588632332e-01   1.022614477600000e+01  1.61765762e+00  -2.31521396e+00  -7.15706210e-01
C     2.429186655900000e+00   1.269380137236011e+00   1.014182056000000e+01 -3.76991338e+00   1.15273004e+00   1.13057194e+00
C     2.535442083150000e+00   5.186142397996560e-02   7.048248416000000e+00 -2.99601426e+00   1.71405424e+00  -8.55421540e-01
C     3.740375655375000e+00   7.541294777070054e-01   7.163995840000000e+00  8.71820760e-01   1.89376765e+00  -1.04124554e+00
C     3.586443960600000e+00   5.629671837794005e-01   9.978126880000001e+00  2.12844033e+00   5.02566380e-01   2.53969550e-01
C     4.846392450450000e+00   1.258466641416785e+00   1.006526303200000e+01 -9.91594260e-01   1.49695973e+00   9.44521840e-01
C     4.990431594900000e+00   6.487154573739841e-02   6.903324504000000e+00 -7.02804050e-01   1.18643825e+00   3.82605300e-02
C     6.198379923750000e+00   7.870981488722352e-01   6.679523992000000e+00 -1.05870754e+00   1.24426321e+00   9.30405620e-01
C     6.054823450950000e+00   5.940535795169976e-01   1.009431943200000e+01  2.03306169e+00  -7.11882510e-01   2.95322700e-02
C     7.311517771049999e+00   1.305428295793222e+00   1.024664201600000e+01 -1.12551625e+00  -8.58940830e-01  -3.07343500e-01
C     1.286886810975000e+00   2.216681500944511e+00   6.914515807999999e+00 -2.13809916e+00   1.18519789e+00  -1.54688950e-01
C     2.483747224725000e+00   2.934779535207320e+00   7.072778735999999e+00  8.68731470e-01   2.26371850e-01  -6.47697820e-01
C     2.385162815850000e+00   2.698272149672299e+00   1.032532359200000e+01 -1.49062900e-02   2.29741270e-01  -9.69375720e-01
C     3.598279658099999e+00   3.451577207264987e+00   1.035296028800000e+01  6.02486590e-01  -3.00896774e+00  -3.97157790e-01
C     3.713940564000000e+00   2.248182700463700e+00   7.205952384000000e+00  1.45691574e+00  -1.71864007e+00  -1.11439311e+00
C     4.996022473725000e+00   2.943618691905692e+00   7.069320663999999e+00 -2.56920567e+00   1.87931400e-01  -6.83378300e-01
C     4.872492215549999e+00   2.669660231086649e+00   1.032757126400000e+01 -1.41937512e+00   1.26649536e+00  -1.31880371e+00
C     6.108106755374999e+00   3.371849256271696e+00   1.022992312800000e+01 -2.17796678e+00   2.73091663e+00  -1.76137940e-01
C     6.182163613125000e+00   2.227960423717228e+00   6.840085456000000e+00  7.02314190e-01   2.72435700e-02   2.48120910e-01
C     7.401418305375000e+00   2.982860653857685e+00   6.831291832000000e+00  1.51584846e+00  -2.72941135e+00   2.48163040e-01
C     7.294761440549999e+00   2.701928340484574e+00   1.026276835200000e+01  1.93436888e+00   2.46059770e-01  -7.81536480e-01
C     8.529803903174999e+00   3.417280293019593e+00   1.021595688000000e+01  1.50491184e+00   5.16473650e-01  -3.76178790e-01
C     9.896685350175000e+00   4.350316364472679e+00   6.810753655999999e+00 -4.59219490e-01  -1.28397394e+00   7.07304480e-01
C     3.706947297375000e+00   5.013470349277190e+00   6.703703023999999e+00  2.41485620e-01   3.58019651e+00   6.61590000e-02
C     3.552586618650000e+00   4.828825540488550e+00   1.027607296000000e+01  2.39009080e+00   1.08889706e+00  -4.15922360e-01
C     4.794544811324999e+00   5.520521701510616e+00   1.020985537600000e+01  1.85806632e+00   2.00198820e+00  -2.24700970e-01
C     4.927052710425000e+00   4.399709587473400e+00   6.917839240000000e+00  7.20833350e-01  -3.02428683e+00   2.81338860e-01
C     6.135989381024999e+00   5.060409588751116e+00   6.987262071999999e+00  3.27608158e+00   4.59908860e-01  -5.44990090e-01
C     6.084352092675000e+00   4.854879150186866e+00   1.010469242400000e+01 -8.41977890e-01  -1.10901167e+00   1.14139770e-01
C     7.297239689925000e+00   5.589853300506876e+00   9.879959359999999e+00  9.94869990e-01  -2.96198502e+00   1.39806460e+00
C     7.428231392174999e+00   4.354943184606214e+00   6.928432551999999e+00 -6.79862750e-01   1.55667483e+00   1.29260910e-01
C     8.701909328099999e+00   5.075464526000669e+00   6.856779728000000e+00 -2.26510642e+00  -8.90297780e-01   4.66010800e-02
C     8.622067657650000e+00   4.846944338740904e+00   9.978795864000000e+00 -4.65524797e+00  -5.93152960e-01   5.59649180e-01
C     9.784175121000001e+00   5.570607544998897e+00   1.006384917600000e+01 -1.22238200e-02   3.03615180e-01   3.66741990e-01
