72
Lattice="7.395 0 0 3.6975 6.40425786098592 0 0 0 13.6 " PBC="1 1 1" Properties=species:S:1:pos:R:3:force:R:3 Energy="-570.77587213"
C     1.098030723817500e+01   6.301518257749315e+00   1.347035364800000e+01  2.93941770e+00   7.59143150e-01  -1.52307314e+00
C     1.220320681500000e+00   6.040872583914169e-01   1.343438559200000e+01 -1.29420237e+00  -1.72046996e+00  -2.95565600e-01
C     1.306387352025000e+00   8.612643861695874e-01   3.754958504000000e+00 -1.43054656e+00  -5.14138500e-02  -3.84739210e-01
C     2.555087159475000e+00   1.527980803451302e+00   3.825400928000000e+00  3.68680790e-01  -7.36293850e-01  -8.86664790e-01
C     6.192518055150000e+00   6.238297409475332e+00   1.330607557600000e+01 -3.36467115e+00   3.20504965e+00   9.54264430e-01
C     3.668961548775000e+00   5.300516679544086e-01   1.349197275200000e+01  1.14674163e+00   2.20466383e+00  -1.43909816e+00
C     3.833631744900000e+00   8.807804013592585e-01   3.660542816000000e+00  4.31473610e-01   8.83114270e-01   2.12047130e-01
C     5.118032282924999e+00   1.648855150556414e+00   3.627115376000000e+00 -3.80867066e+00  -7.53441400e-01  -1.59245788e+00
C     8.611943089200000e+00   6.332692840117645e+00   1.335706918400000e+01 -4.71585400e-01  -1.96357522e+00  -4.25889050e-01
C     6.086482296375000e+00   6.575013946895394e-01   1.322389580800000e+01  2.71582113e+00  -2.78162220e-01   1.00469668e+00
C     6.263249048625000e+00   8.760018643570194e-01   3.526992584000000e+00 -8.67700360e-01   2.17768351e+00   2.55793300e-01
C     7.432851603300000e+00   1.551837112277852e+00   3.724016872000000e+00  4.10125962e+00   4.04187385e+00   3.70761630e-01
C     1.221028678800000e+00   2.011585591276061e+00   1.345405513600000e+01 -1.25763335e+00   8.10854370e-01  -3.94137330e-01
C     2.446319724675000e+00   2.725138075437578e+00   1.159514240000000e-01  8.53332130e-01  -2.28114015e+00  -1.95768177e+00
C     2.533825979850000e+00   2.899713725763255e+00   3.772784024000000e+00  2.51914950e+00   2.30283929e+00  -1.33745000e-03
C     3.758937327225000e+00   3.624371193054011e+00   3.620540728000000e+00 -1.07117930e-01   3.49215540e+00  -1.78040730e+00
C     3.666397517400000e+00   1.950765122890584e+00   1.346279000800000e+01  9.22066090e-01   2.89759318e+00   1.05177501e+00
C     4.906580022675000e+00   2.770051007724601e+00   1.318759659200000e+01 -7.76228200e-01  -1.29046245e+00   4.70135800e-02
C     5.075170456200000e+00   3.069619967640627e+00   3.400319600000000e+00 -2.92290386e+00  -2.62910520e+00   2.87285729e+00
C     6.203193033449999e+00   3.797988254063204e+00   3.584153248000000e+00  4.95190702e+00   1.77836135e+00   7.28806630e-01
C     6.177154240125000e+00   2.071693970230084e+00   1.300151064800000e+01 -3.14318072e+00  -1.21767483e+00   1.50304294e+00
C     7.369437740474999e+00   2.735075306188626e+00   1.307291051200000e+01  3.45090383e+00   1.01388624e+00   2.15831006e+00
C     7.520811911475000e+00   3.124238616757058e+00   3.865328080000000e+00 -3.99589645e+00  -4.18940262e+00  -2.08650519e+00
C     8.787165617549999e+00   3.701954101919674e+00   3.808637432000000e+00 -1.63303949e+00  -3.52496220e-01   3.72002800e-02
C     2.515848032325000e+00   4.099625917353166e+00   9.813624000000000e-02 -3.53751119e+00   2.37257304e+00  -2.06847174e+00
C     3.667029789900000e+00   4.844249939374046e+00   1.351597308000000e+01  1.14535624e+00   1.66480915e+00  -3.56960880e-01
C     3.694643866125000e+00   5.142226160360289e+00   3.468453152000000e+00  1.74929789e+00  -9.09945710e-01   8.93111900e-01
C     4.969292100000000e+00   5.860628076658556e+00   3.608581568000000e+00 -1.89995140e+00   7.51637240e-01  -5.42786860e-01
C     4.879070252925000e+00   4.197782056296028e+00   1.316168016000000e+01  1.24026183e+00  -1.76692550e-01   4.95802790e-01
C     6.159559686374999e+00   4.947221119588948e+00   1.295196272000000e+01 -6.23493600e-02  -4.79874666e+00   2.11949872e+00
C     6.199063998225000e+00   5.262546026819883e+00   3.621723656000000e+00  1.25613076e+00  -3.91118539e+00  -4.44132530e-01
C     7.463989692825000e+00   5.875241760541553e+00   3.584028127999999e+00  1.99734640e+00  -1.05124072e+00   1.19385106e+00
C     7.428774924675000e+00   4.179628418880915e+00   1.315340619200000e+01 -1.18944706e+00   3.79757830e-01  -1.35710408e+00
C     8.648079311324999e+00   4.894293770930765e+00   1.331020127200000e+01  7.33539970e-01  -1.62627303e+00   2.21331867e+00
C     8.754917982224999e+00   5.063476331669957e+00   3.652783336000000e+00 -1.90318721e+00   5.30570910e+00  -1.53776855e+00
C     9.885771217574998e+00   5.932293707431892e+00   3.414784968000000e+00  1.28365117e+00  -6.14936199e+00   1.41537908e+00
C     7.440010591875000e+00   1.074421207121262e-01   6.520189656000000e+00 -8.22886800e-01   1.26347208e+00   1.01293935e+00
C     1.287748624275000e+00   7.426165433520835e-01   6.808510880000000e+00 -1.63203744e+00   3.58813424e+00   4.55592470e-01
C     1.121822979000000e+00   5.266964132189760e-01   1.006643440000000e+01  4.10918180e-01   3.43834725e+00   1.31749606e+00
C     2.306912475450000e+00   1.281826684301764e+00   1.020781170400000e+01  3.38078027e+00  -5.04741940e-01  -9.33026760e-01
C     2.444129325675000e+00   1.174414727644158e-01   7.126595431999999e+00  3.67364709e+00  -2.99827286e+00  -3.34759010e-01
C     3.691381266075000e+00   9.046921710588762e-01   7.337153351999999e+00 -1.10019875e+00  -3.16688047e+00  -2.65291447e+00
C     3.660452233200000e+00   5.587166778377185e-01   9.955268952000001e+00 -4.19768908e+00  -1.67291650e-01   2.32814700e-02
C     4.810525554224999e+00   1.314648313706528e+00   9.933218183999999e+00  2.72811244e+00  -1.11638848e+00   1.98514969e+00
C     4.782925417575000e+00   1.449344394167670e-01   6.807430088000000e+00  3.68364795e+00  -6.36509800e-01   1.00077787e+00
C     6.108663303074999e+00   8.173396308703627e-01   6.607681448000000e+00 -1.21357720e-01  -2.73777698e+00   8.18442150e-01
C     6.056313099750000e+00   5.373951102295776e-01   9.977897312000000e+00 -8.80770310e-01  -1.00472779e+00  -6.22079600e-02
C     7.271136153375000e+00   1.199162252994506e+00   1.017550055200000e+01 -3.29335630e-01   2.26061949e+00  -1.08185279e+00
C     8.672198140799999e+00   2.224727618392079e+00   6.955853415999999e+00  2.56343752e+00  -1.08617608e+00  -2.21661630e-01
C     2.541457619850000e+00   3.051185823731245e+00   7.089504696000001e+00 -2.01984366e+00  -2.15299079e+00   9.83500210e-01
C     2.346779105325000e+00   2.727311680555262e+00   1.035957696000000e+01  4.88043440e-01  -3.37681671e+00  -6.10215080e-01
C     3.594456110324999e+00   3.334775776031099e+00   1.036937916000000e+01  5.64857160e-01   4.24176212e+00  -5.85729890e-01
C     3.720067950075000e+00   2.290675527748008e+00   7.420570040000000e+00  6.71283340e-01   2.38607646e+00  -3.12843627e+00
C     4.965644257425000e+00   2.973664267655882e+00   7.111468288000000e+00 -8.83508000e-02  -3.13461819e+00  -2.32324420e-01
C     4.824093752325000e+00   2.700590170804726e+00   1.025453409600000e+01  6.90715000e-02  -1.99050500e-01  -7.18230140e-01
C     6.027702029625000e+00   3.484925650921315e+00   1.019022799200000e+01  1.80246179e+00  -4.69736954e+00  -1.00565117e+00
C     6.160567624874999e+00   2.150895427184704e+00   6.835187416000000e+00  6.93297030e-01   3.60434860e+00   1.14365623e+00
C     7.464759549299999e+00   2.829650504349069e+00   6.906195736000001e+00 -2.15238709e+00   2.56791896e+00  -1.68724400e-02
C     7.265078871899999e+00   2.657699382936999e+00   1.014738500000000e+01  5.24091340e-01   7.94925370e-01   6.44545380e-01
C     8.541326681249998e+00   3.385924085898354e+00   1.020784244000000e+01 -3.41341990e+00   2.38662120e-01  -1.64987081e+00
C     9.893061393449999e+00   4.452782889168214e+00   6.904067744000000e+00  1.52948013e+00  -8.65120200e-02  -1.36788236e+00
C     3.814881722400000e+00   5.158164372853893e+00   6.664511903999999e+00 -2.33469714e+00  -4.04874947e+00   1.74223487e+00
C     3.632564578950000e+00   4.834253789450687e+00   1.025907540800000e+01 -5.25323550e-01  -1.00272477e+00  -7.60983370e-01
C     4.901895142274999e+00   5.598235065108887e+00   1.013247640800000e+01 -2.10407917e+00  -5.10844413e+00  -5.77528720e-01
C     5.011915881675000e+00   4.328524980507928e+00   6.887870551999999e+00  4.74807450e-01   3.37792077e+00   8.51417000e-03
C     6.310709271224999e+00   4.999868474093494e+00   6.999583672000000e+00 -4.69330846e+00   3.04407381e+00  -4.57894370e-01
C     6.093780421875000e+00   4.821000369937152e+00   9.943963816000000e+00 -1.30040240e-01   2.97420774e+00   8.58092580e-01
C     7.342445916525000e+00   5.508993396936829e+00   9.718571967999999e+00 -1.86518754e+00   1.20097267e+00   1.88999796e+00
C     7.484430582074999e+00   4.305773598289965e+00   7.003432335999999e+00 -1.18747435e+00  -2.38621699e+00  -5.11941660e-01
C     8.594878387199998e+00   5.063011574677057e+00   6.825364543999999e+00  2.46002275e+00   2.62641778e+00   3.11608410e-01
C     8.488773891899999e+00   4.749832478084695e+00   9.809816544000000e+00  3.40314866e+00   6.24070760e-01   2.14169246e+00
C     9.755174704125000e+00   5.471369534775745e+00   9.988776224000000e+00  3.90768320e-01   1.40101953e+00   7.77910700e-02
