72
Lattice="7.395 0 0 3.6975 6.40425786098592 0 0 0 13.6 " PBC="1 1 1" Properties=species:S:1:pos:R:3:force:R:3 Energy="-579.11368437"
C     3.691062208800000e+00   6.316066105861513e+00   1.314099537600000e+01  2.62719070e-01  -1.76622051e+00  -7.15070200e-02
C     1.206940168500000e+00   6.136147447245817e-01   1.310679450400000e+01  3.06549230e-01   5.33755570e-01   7.08581490e-01
C     1.332774191025000e+00   8.734237663128979e-01   3.672560728000000e+00 -2.65834340e-01   2.78541370e-01   1.05356150e-01
C     2.527137313275000e+00   1.598541891871525e+00   3.629020871999999e+00  7.33703950e-01   1.70089785e+00  -1.75402960e-01
C     6.123055821825000e+00   6.339351539142422e+00   1.321006025600000e+01  1.60106953e+00  -1.66010879e+00  -5.58304000e-01
C     3.668760774524999e+00   6.356380268664427e-01   1.313568498400000e+01  5.02330950e-01   2.82155920e-01   1.69710627e+00
C     3.730254636525000e+00   8.875556578770882e-01   3.651103464000000e+00  6.66809760e-01  -1.87184891e+00   6.01163060e-01
C     4.967885053349999e+00   1.556044581606715e+00   3.721734112000000e+00  1.14664229e+00   6.14855650e-01  -3.61676000e-01
C     8.618184912900000e+00   6.292623063794668e+00   1.326983307200000e+01 -7.20846900e-01   2.01574709e+00  -1.12720738e+00
C     6.180132095699999e+00   6.131415981538848e-01   1.319346064000000e+01 -1.84197459e+00  -2.57850249e+00   4.67159940e-01
C     6.234905936325000e+00   8.896198782705235e-01   3.752198928000000e+00  2.44341990e-01  -2.68518584e+00   2.40182550e-01
C     7.491648545775000e+00   1.563665968673008e+00   3.683009472000000e+00 -1.72570218e+00  -1.57809926e+00   1.03673500e-02
C     1.229169723375000e+00   2.032505804044115e+00   1.310567957600000e+01 -2.43481060e-01   5.24709820e-01   4.76843890e-01
C     2.465913923400000e+00   2.756695632425936e+00   1.310138687200000e+01 -2.02199361e+00   1.62665432e+00   5.18200990e-01
C     2.554455737400000e+00   3.088584127930501e+00   3.622252287999999e+00 -1.25663781e+00  -2.29077636e+00   3.70646670e-01
C     3.776855153400000e+00   3.770230791561235e+00   3.740180880000000e+00  1.18273926e+00  -2.58292748e+00  -6.00978830e-01
C     3.679900713450000e+00   2.110777298714885e+00   1.318608862400000e+01  9.60740900e-02  -3.56450341e+00  -7.13426990e-01
C     4.921817826900000e+00   2.722020931009380e+00   1.318575800800000e+01  7.44397010e-01   1.16614358e+00   8.27091250e-01
C     4.986438368849999e+00   2.958241982175480e+00   3.727859144000000e+00  1.25627800e-02   2.10894672e+00   1.47689810e-01
C     6.252657338024999e+00   3.655608857362262e+00   3.742037959999999e+00 -2.27694048e+00  -2.91223410e-01  -3.34254090e-01
C     6.124116412725000e+00   1.967049421478942e+00   1.322432053600000e+01  1.91489190e+00   3.79060967e+00  -1.53138660e-01
C     7.389069099075000e+00   2.735539871053790e+00   1.319029578400000e+01 -1.18013423e+00  -8.53143300e-02   1.44476000e-01
C     7.408475390850000e+00   2.916581900540709e+00   3.652240016000000e+00  4.45537307e+00   4.03752142e+00  -3.64440100e-02
C     8.703033146250000e+00   3.749757275778914e+00   3.634916064000000e+00 -1.31465020e+00  -9.19466930e-01   2.66365920e-01
C     9.793230890099998e+00   4.208551648441140e+00   1.311704455200000e+01  2.77929624e+00  -1.73989329e+00   8.91212500e-02
C     3.694473559275000e+00   4.856457287408727e+00   1.307739212000000e+01 -4.53559560e-01   1.20320988e+00   1.44944694e+00
C     3.795285490050000e+00   5.149669893313546e+00   3.770567496000000e+00  8.85602590e-01   1.12125339e+00   3.00832640e-01
C     5.034489341025000e+00   5.890560489172359e+00   3.761916264000000e+00  8.93283670e-01  -3.19736277e+00  -4.20464280e-01
C     4.953861951824999e+00   4.147963590573402e+00   1.322671998400000e+01 -1.65772718e+00   8.08652700e-02  -7.50897010e-01
C     6.165051768000000e+00   4.864783270924778e+00   1.324827435200000e+01 -1.82610270e+00   2.27955024e+00   2.63865180e-01
C     6.281116108125000e+00   5.058455649678031e+00   3.739128240000000e+00 -7.72017080e-01   3.40161801e+00  -1.39923700e-02
C     7.504349643150000e+00   5.838455895521450e+00   3.727090880000000e+00 -2.85328490e+00   1.20421928e+00  -4.12731250e-01
C     7.341618268125000e+00   4.180333527671301e+00   1.325037895200000e+01  2.69665262e+00  -1.39256845e+00  -2.21544760e-01
C     8.594086641524999e+00   4.906371688914096e+00   1.319570314400000e+01 -9.69932070e-01  -7.53712120e-01   4.62108550e-01
C     8.714217159375000e+00   5.191732610639976e+00   3.740387872000000e+00  6.53757170e-01  -3.23682236e+00  -8.75498800e-02
C     9.961918678800000e+00   5.799524924331139e+00   3.833535904000000e+00 -4.25819210e-01   4.14523566e+00  -1.07361941e+00
C     7.414619933325000e+00   8.942438164880220e-02   6.925318696000000e+00  1.97880849e+00  -7.44211410e-01  -3.58950590e-01
C     1.246067594175000e+00   8.616454395122574e-01   6.878085488000000e+00  8.58381270e-01  -3.06796817e+00   3.88387830e-01
C     1.123568125050000e+00   5.781007012728948e-01   1.025270285600000e+01  2.55587615e+00  -1.97723782e+00  -5.57409610e-01
C     2.430598324425000e+00   1.295247639200916e+00   1.015064641600000e+01 -4.14410928e+00  -1.16683020e+00  -7.20437500e-02
C     2.546464552500000e+00   9.889890476946481e-02   6.873217504000000e+00 -2.81385149e+00   1.47530333e+00   5.47838000e-02
C     3.794443532325000e+00   7.529590355405118e-01   6.850671016000001e+00 -1.09937798e+00   1.54546704e+00   4.25604010e-01
C     3.572348942699999e+00   5.604308414965261e-01   1.013675673600000e+01  2.52177867e+00  -1.46191465e+00   1.07760294e+00
C     4.833260853150000e+00   1.240409195954729e+00   1.023772898400000e+01 -4.22970510e-01   4.07632010e-01  -9.21605210e-01
C     5.019471575025000e+00   1.019630219425818e-01   6.966069192000000e+00  5.09891100e-02  -1.20170488e+00  -5.38790930e-01
C     6.245070622650000e+00   8.112179929097244e-01   6.968041191999999e+00 -1.47417470e+00   1.31485666e+00  -2.84332270e-01
C     6.074842196624999e+00   5.519761323974898e-01   1.023162666400000e+01  7.51632900e-01   1.79973347e+00   2.12776530e-01
C     7.346308251075000e+00   1.270643889439525e+00   1.027335010400000e+01 -2.32412337e+00   1.30235774e+00  -8.77546950e-01
C     8.636059441350000e+00   2.247823421597754e+00   6.915699143999999e+00 -1.45511727e+00   3.51350670e-01  -6.49147390e-01
C     2.473437004800000e+00   2.854752633457124e+00   6.886282208000000e+00  1.73900759e+00   2.82143852e+00  -1.45931800e-01
C     2.384081260125000e+00   2.671178744667833e+00   1.010536113600000e+01 -7.19997680e-01   2.57161707e+00   5.94475750e-01
C     3.589173122325000e+00   3.411233777003653e+00   1.019678890400000e+01  8.49150600e-01  -1.11612615e+00  -7.54412550e-01
C     3.739025956950000e+00   2.177522602216962e+00   6.844417464000000e+00 -1.18726380e-01   4.46011000e-02   5.52868070e-01
C     4.961259614025000e+00   2.892938725415739e+00   6.923718792000000e+00 -1.04590601e+00   2.97158191e+00  -1.73882620e-01
C     4.827814250774999e+00   2.650670902063384e+00   1.021830084000000e+01  6.33825440e-01   1.83562835e+00   2.51435350e-01
C     6.097875624975000e+00   3.397708240573647e+00   1.025315641600000e+01 -1.80380918e+00  -5.26342950e-01  -4.06561070e-01
C     6.197305578149999e+00   2.271988735866049e+00   6.914236872000000e+00  7.83595510e-01  -1.36132971e+00   1.02840660e-01
C     7.399307920275000e+00   3.041014133099943e+00   6.853977040000000e+00  8.45846690e-01  -3.85059880e+00   6.92712180e-01
C     7.329946924499999e+00   2.736027171034357e+00   1.020059160000000e+01 -1.30309793e+00  -2.37581937e+00   3.78579420e-01
C     8.508007621350000e+00   3.427435076410145e+00   1.016109924000000e+01  2.94485495e+00  -1.24579710e-01   1.19089800e-02
C     9.875641842375000e+00   4.315590685163558e+00   6.892424920000000e+00  1.64667010e-01  -7.19256350e-01  -1.79910700e-02
C     3.711369877125000e+00   5.011556116602836e+00   6.870400535999999e+00 -1.68989385e+00   3.28655145e+00   7.60842680e-01
C     3.606043779525000e+00   4.832502545138869e+00   1.018263783200000e+01 -1.45435521e+00  -2.79184820e-01   2.19156190e-01
C     4.808649923400000e+00   5.489149868000199e+00   1.025370708000000e+01  1.45772851e+00   3.02438762e+00  -4.05687090e-01
C     4.912682450625000e+00   4.405803751167819e+00   6.954125943999999e+00  2.30842328e+00  -3.60076054e+00  -5.14247420e-01
C     6.129017670825000e+00   5.127524546016874e+00   6.925066008000000e+00  2.24450720e+00  -1.72409044e+00  -1.93194420e-01
C     6.064410476850000e+00   4.812079430865907e+00   1.025735528000000e+01 -1.36915121e+00  -6.83570940e-01  -8.71990600e-02
C     7.242381583275000e+00   5.526450123011617e+00   1.026028988800000e+01  2.73530084e+00   9.64818220e-01  -7.12055780e-01
C     7.418762871149999e+00   4.393470623508767e+00   6.870769776000000e+00 -1.07770256e+00   2.55259024e+00   4.25231680e-01
C     8.678924484900000e+00   5.075176846737598e+00   6.915148071999999e+00 -2.45626190e-01  -9.57982100e-02   3.47939500e-02
C     8.529851526974999e+00   4.838440701111819e+00   1.024367748800000e+01 -7.64905090e-01   9.48687630e-01  -6.79403570e-01
C     9.766060772700000e+00   5.592327457445929e+00   1.018894116000000e+01 -8.16576700e-02  -3.09806701e+00   1.12975850e-01
