72
Lattice="7.395 0 0 3.6975 6.40425786098592 0 0 0 13.6 " PBC="1 1 1" Properties=species:S:1:pos:R:3:force:R:3 Energy="-582.16318565"
C     1.081936567500000e-02   1.776509109074700e-02   1.357208994400000e+01  2.76602180e-01  -1.26770985e+00   5.78452800e-02
C     1.272744945750000e+00   6.911126690884417e-01   1.359432648800000e+01 -1.30144333e+00   9.61067650e-01  -3.09436060e-01
C     1.212642896700000e+00   7.513270385100480e-01   3.420549192000000e+00  2.20679343e+00  -1.77320593e+00  -3.68586800e-01
C     2.464819463400000e+00   1.445432929637096e+00   3.414916752000000e+00  1.07125940e-01  -5.42802400e-01  -2.22231950e-01
C     6.184587213450000e+00   6.391126569683856e+00   1.358426303200000e+01 -5.76310400e-02   1.04548522e+00   9.94779400e-02
C     3.723346227525000e+00   7.333868550094087e-01   1.357386692000000e+01 -1.60364802e+00  -1.65740365e+00  -2.51170630e-01
C     3.700488948075000e+00   7.220743739255047e-01   3.400814640000000e+00 -1.52940308e+00  -6.34097780e-01   6.86173800e-02
C     4.900517194950000e+00   1.399924145198779e+00   3.415564928000000e+00  1.73639855e+00   9.19071170e-01  -1.25309990e-01
C     8.602561089675000e+00   6.393468798910994e+00   1.358876068800000e+01  1.05755176e+00   1.75078300e-01  -7.87935800e-02
C     6.140248679175000e+00   6.416041054036614e-01   5.316240000000000e-04  9.31706950e-01   3.09461619e+00  -1.84054540e-01
C     6.161844556499999e+00   6.915801799122216e-01   3.416761048000000e+00  2.77175720e-01   4.56072850e-01  -1.54910610e-01
C     7.417539442349999e+00   1.435364411599919e+00   3.392805600000000e+00 -2.21416071e+00  -1.29896396e+00   1.97496900e-01
C     1.254101226375000e+00   2.113934021456658e+00   1.357048908800000e+01 -8.06396890e-01   1.34750513e+00   3.69642420e-01
C     2.483342274525000e+00   2.840087587426089e+00   1.358910028000000e+01 -1.19328784e+00   9.28996490e-01  -6.59509850e-01
C     2.485745131875000e+00   2.844442226600575e+00   3.387558312000000e+00 -1.78315955e+00   2.03910415e+00   2.14018250e-01
C     3.682736658975000e+00   3.605189416082054e+00   3.436488392000000e+00  1.28093751e+00  -2.42904674e+00  -4.76586050e-01
C     3.705078765750000e+00   2.118573842233649e+00   1.351503726400000e+01 -2.31710920e-01   1.13481546e+00   1.18435355e+00
C     4.927513936575000e+00   2.804098860381819e+00   3.527880800000000e-02 -6.41334800e-02   2.09083404e+00  -7.81261670e-01
C     4.890454855425000e+00   2.827499634346788e+00   3.410093240000000e+00  1.71101667e+00   9.47113700e-01   4.29347280e-01
C     6.189618438675000e+00   3.507782191053340e+00   3.434040936000000e+00 -2.31773878e+00   1.61654526e+00  -3.61750830e-01
C     6.130627636274999e+00   2.107572928294634e+00   8.137016000000000e-03  1.79003580e+00  -2.81841140e-01   1.88006840e-01
C     7.378370345850000e+00   2.870488791615245e+00   1.359493672000000e+01  6.23045740e-01  -1.29271751e+00   7.62171100e-02
C     7.407457986750000e+00   2.821261823148569e+00   3.391900112000000e+00  3.09230310e-01   1.66555463e+00  -2.68038800e-02
C     8.609719190850001e+00   3.587463903304882e+00   3.365982456000000e+00  1.08344967e+00  -1.05717943e+00   6.65116680e-01
C     9.815022734924998e+00   4.302321575218267e+00   1.356817708800000e+01  2.66956750e+00  -1.49636118e+00  -3.58465200e-02
C     3.708108386325000e+00   5.005271234109347e+00   1.354685351200000e+01 -8.17620040e-01  -1.03302386e+00   4.76755580e-01
C     3.719758580250000e+00   4.997547122746980e+00   3.413364448000000e+00 -1.76268850e-01   1.57049140e-01  -2.93132000e-03
C     4.945706523975000e+00   5.709094946113159e+00   3.391901608000000e+00  6.56048900e-02  -1.37280300e-02   3.58742550e-01
C     4.938292186049999e+00   4.267747228522378e+00   1.424192000000000e-02 -7.40842590e-01  -6.08199410e-01  -1.51319350e-01
C     6.153718819574999e+00   4.990339066482971e+00   1.320396800000000e-02  3.59131770e-01  -4.47472670e-01   2.28765100e-02
C     6.176112173700000e+00   4.967780772639485e+00   3.413639032000000e+00  6.18545100e-02  -1.14816260e-01  -1.64122570e-01
C     7.406812292324999e+00   5.712359196344401e+00   3.390296808000000e+00 -1.10989322e+00  -3.38518590e-01   5.17081560e-01
C     7.394847108375000e+00   4.315330544209285e+00   9.992736000000000e-03 -1.05107685e+00  -2.74593553e+00  -1.92996050e-01
C     8.604724459949999e+00   4.991125957646228e+00   1.356898669600000e+01  1.80179500e-01   6.30815200e-02   2.98102330e-01
C     8.616734087849999e+00   5.019428422492084e+00   3.454340296000000e+00  6.76211090e-01  -1.95277993e+00  -8.99534100e-01
C     9.874992857174998e+00   5.660719615856705e+00   3.417527000000000e+00 -3.49624460e-01   2.38127527e+00   2.47134070e-01
C     3.706609308900000e+00   6.400224842655244e+00   6.828603928000000e+00 -2.88910860e-01   6.81112890e-01   2.88996490e-01
C     1.245970128075000e+00   7.324450448485170e-01   6.821451280000000e+00 -9.57403770e-01  -5.81601420e-01  -1.37416170e-01
C     1.268141964975000e+00   6.984942807404563e-01   1.019846918400000e+01 -3.25162610e+00  -1.27843130e-01   9.91329300e-02
C     2.451439209225000e+00   1.387539014965904e+00   1.017958735200000e+01  8.72460080e-01   1.79815604e+00   3.66125840e-01
C     2.462134043100000e+00   2.566954635445200e-02   6.766923712000000e+00  5.25695690e-01  -6.67366640e-01   3.38234550e-01
C     3.717209449799999e+00   6.824976614151697e-01   6.753415784000000e+00  1.69046960e-01   8.95583890e-01   1.38618080e-01
C     3.660446797875000e+00   6.966234689343931e-01   1.024942376000000e+01  2.19125759e+00   1.85253660e-01  -7.44091470e-01
C     4.934472372750000e+00   1.413311349659009e+00   1.018820349600000e+01 -9.47929660e-01   2.95101520e-01   7.79466920e-01
C     4.982547859349999e+00   3.524006930043600e-03   6.804350640000000e+00 -1.83790158e+00  -1.14849500e-01   1.84408340e-01
C     6.176319307650000e+00   7.344974173649113e-01   6.865245591999999e+00  1.04366163e+00   7.16004100e-02  -7.90902750e-01
C     6.178561619549999e+00   7.200309673701144e-01   1.022958217600000e+01 -6.39120200e-01  -2.41640980e-01  -4.77086380e-01
C     7.380788178075000e+00   1.473933734348876e+00   1.020248648800000e+01  1.79412162e+00  -2.96182378e+00  -1.35936280e-01
C     8.616250787624999e+00   2.146401175188871e+00   6.834359856000000e+00  3.47549580e-01  -8.66834840e-01  -5.36931540e-01
C     2.456408316450000e+00   2.801987568693113e+00   6.762656848000000e+00  7.81122150e-01   1.38582185e+00   5.75281960e-01
C     2.466959909175000e+00   2.824587746383003e+00   1.018358167200000e+01  5.00831000e-03   9.36885230e-01  -4.70156000e-03
C     3.696480932025000e+00   3.583125851158254e+00   1.017399693600000e+01 -4.97887840e-01  -2.13379227e+00   1.84337120e-01
C     3.696792668250000e+00   2.106125886231167e+00   6.753534648000000e+00  4.53812300e-02   1.40630160e-01   1.08363640e-01
C     4.911748388175000e+00   2.854057579351579e+00   6.791235072000000e+00  1.16680976e+00  -5.32033510e-01  -1.44743530e-01
C     4.923818137425000e+00   2.860160324751530e+00   1.020932456800000e+01  5.47606420e-01  -1.07570062e+00  -4.84809970e-01
C     6.169436707199999e+00   3.541839970310242e+00   1.018684104800000e+01 -6.57801030e-01   6.75853280e-01   5.22793300e-02
C     6.189986931525000e+00   2.175379929664742e+00   6.786960727999999e+00 -1.97124024e+00  -1.80913531e+00   5.10480700e-01
C     7.396927358850000e+00   2.838610829606152e+00   6.797688680000000e+00 -7.36613000e-02   2.52614303e+00   7.60491400e-02
C     7.405654124400000e+00   2.855462865653799e+00   1.016676500000000e+01 -3.65028890e-01   4.68427630e-01   4.60044200e-01
C     8.638858411875001e+00   3.554351776763588e+00   1.021474022400000e+01  1.46182890e-01   3.85687250e-01  -3.29587750e-01
C     2.478199236900000e+00   4.234330323349527e+00   6.823227168000000e+00 -1.64524088e+00   7.75732290e-01  -3.58802110e-01
C     3.669010318800000e+00   4.977507687562411e+00   6.815010048000000e+00  1.62421501e+00  -4.90266970e-01   1.24258080e-01
C     3.686664513225000e+00   4.970678891448871e+00   1.016649762400000e+01  6.88988200e-01   5.77707400e-01   3.67818290e-01
C     4.937075006024999e+00   5.665193886568017e+00   1.021699741600000e+01 -9.92234800e-01   1.25981404e+00  -3.82095960e-01
C     4.933808338724999e+00   4.253837628748508e+00   6.818037952000000e+00 -1.31701846e+00   1.37899160e+00  -1.51341510e-01
C     6.143478149624999e+00   5.008090260334161e+00   6.812011791999999e+00 -2.03027480e-01  -6.93058540e-01  -3.58653470e-01
C     6.136736867625000e+00   4.967741514538803e+00   1.020559558400000e+01  1.26367659e+00  -3.93692860e-01   1.39339140e-01
C     7.364275808624999e+00   5.696863197856031e+00   1.023567756000000e+01  5.92655080e-01  -6.59563710e-01   1.19688560e-01
C     7.354768722674999e+00   4.301442526784403e+00   6.780958232000000e+00  1.86920838e+00  -7.55756800e-01   3.19101370e-01
C     8.620981295175000e+00   4.997015761472335e+00   6.818252968000000e+00  6.96039830e-01  -1.32772630e+00  -1.71139670e-01
C     8.616057889049999e+00   4.990882211592077e+00   1.024408712000000e+01  5.64154690e-01  -3.96218980e-01  -3.78624880e-01
C     9.875724444525000e+00   5.672930230062896e+00   1.019739940800000e+01 -1.31008914e+00   1.39771287e+00   3.20671230e-01
