72
Lattice="7.395 0 0 3.6975 6.40425786098592 0 0 0 13.6 " PBC="1 1 1" Properties=species:S:1:pos:R:3:force:R:3 Energy="-575.98099769"
C     3.687821793750000e+00   6.176274221463747e+00   1.356310347200000e+01  8.83905630e-01   1.47814858e+00   1.60640200e-01
C     1.259475246825000e+00   5.386001994310938e-01   5.813292799999999e-02 -1.88135320e+00   3.56325470e-01  -7.38040160e-01
C     1.432810866975000e+00   1.000275719619376e+00   3.716857968000000e+00 -3.99098680e-01   1.06225547e+00  -4.13070480e-01
C     2.587980489225000e+00   1.843456210741946e+00   3.869782215999999e+00  1.59477456e+00  -4.17102129e+00  -1.17840962e+00
C     6.173099154900000e+00   6.231220576454874e+00   1.347797862400000e+01 -1.28639234e+00  -4.23936360e-01   1.05558879e+00
C     3.696633601800000e+00   5.280699984447889e-01   1.350434140800000e+01 -1.69614439e+00   2.94010050e-01  -2.53343330e-01
C     3.821066419725000e+00   1.065502445497690e+00   3.715598744000000e+00 -4.18183730e-01  -2.50231152e+00  -2.35578880e-01
C     5.087731011600000e+00   1.672574792520232e+00   3.579116624000000e+00 -1.82132781e+00   5.88683070e-01   6.74427030e-01
C     8.585202954074999e+00   6.265909815536772e+00   1.340129883200000e+01  1.91222403e+00  -3.06126385e+00   4.77978700e-01
C     6.140702991000000e+00   5.185636461625620e-01   1.349434649600000e+01  6.10072490e-01  -1.78833113e+00   1.90328710e-01
C     6.283058552775000e+00   9.948267208617738e-01   3.488308880000000e+00  3.32811385e+00   2.43524920e-01   3.13461400e-01
C     7.575470279175000e+00   1.650923853930351e+00   3.640286160000000e+00 -1.44761557e+00   2.52146547e+00   1.25490310e-01
C     1.194438403350000e+00   2.047759145202170e+00   1.170077360000000e-01  1.09147553e+00  -4.76756214e+00  -6.96844940e-01
C     2.418195578325000e+00   2.699012545923494e+00   1.416014320000000e-01  1.07945978e+00   3.63791400e-02  -8.63308170e-01
C     2.584227748575000e+00   3.227629467989527e+00   3.791494088000000e+00  2.67517664e+00  -1.34748427e+00  -3.03449590e-01
C     3.854535672074999e+00   3.842093161136030e+00   3.625756056000000e+00  1.34441762e+00   1.72206056e+00  -4.68086170e-01
C     3.631711122000000e+00   1.899736764773047e+00   2.341063200000000e-02  2.44264783e+00   3.50772111e+00   3.80373570e-01
C     4.971684308550000e+00   2.615816176958385e+00   1.358238528000000e+01 -3.73198753e+00   1.29328355e+00  -4.63585830e-01
C     5.070313494150000e+00   3.047069166778837e+00   3.641470448000000e+00  4.79072460e-01   4.72536729e+00  -4.32105510e-01
C     6.331101612299999e+00   3.867530296972742e+00   3.637537056000000e+00 -1.44155124e+00  -6.37028592e+00   1.85243120e-01
C     6.160354205175000e+00   1.906349353141233e+00   1.353015176000000e+01 -4.98967540e-01   3.13406230e-01  -1.68294310e-01
C     7.357889967300000e+00   2.621592689462947e+00   1.350515713600000e+01  1.28645930e-01   1.32863196e+00   5.60679050e-01
C     7.543989505349999e+00   3.129654377416367e+00   3.746060704000000e+00  1.44907226e+00  -6.11972650e-01  -6.92733760e-01
C     8.796432439949999e+00   3.860279780479122e+00   3.734746864000000e+00 -3.14146911e+00   2.76262065e+00  -3.05166900e-01
C     2.435048265675000e+00   4.133290283049728e+00   1.110304000000000e-02 -5.45738390e-01  -2.11846859e+00  -1.70548360e-01
C     3.689840776650000e+00   4.743613687532320e+00   1.358484592800000e+01 -4.24050360e-01   2.85330228e+00  -4.19445220e-01
C     3.932633083875000e+00   5.339259301510735e+00   3.411771616000000e+00 -1.71353498e+00  -2.45739571e+00   1.30070073e+00
C     5.172326040150000e+00   6.000569308349616e+00   3.504415224000000e+00 -1.17009013e+00  -5.72913150e-01   5.90705640e-01
C     4.913474307225000e+00   4.095842537979793e+00   1.350586855200000e+01  8.72627900e-01  -2.54951773e+00   8.83260300e-01
C     6.125963092125000e+00   4.810225206087702e+00   1.347173146400000e+01  8.15531160e-01  -1.05111431e+00  -7.96393590e-01
C     6.325445509574999e+00   5.181364501420108e+00   3.619555408000000e+00  1.33059196e+00   5.57088492e+00  -1.18533520e-01
C     7.558873902525000e+00   5.937200393633910e+00   3.657107048000000e+00 -7.66949430e-01   3.21788955e+00   7.92508700e-02
C     7.340421683174999e+00   4.005322836109195e+00   1.340574508000000e+01  6.06496710e-01   3.61553396e+00   5.09018460e-01
C     8.586737490525000e+00   4.784456777991891e+00   1.342978920000000e+01 -4.21871340e-01   7.62789140e-01   3.27501370e-01
C     8.814636267750000e+00   5.336655010051966e+00   3.610861608000000e+00 -5.02582470e-01  -2.84752077e+00  -9.62186100e-02
C     1.004173295077500e+01   6.027350825996300e+00   3.450822656000000e+00  5.95570170e-01  -1.63988342e+00   2.52548520e-01
C     7.440735116999999e+00   1.920966111068004e-01   7.003738608000000e+00 -8.23890430e-01  -1.45373123e+00  -1.77141570e-01
C     1.234636107375000e+00   9.362105980317090e-01   7.051338200000000e+00  1.46891485e+00  -2.02296528e+00  -1.11085942e+00
C     1.090099981950000e+00   4.110599805324013e-01   9.805909264000000e+00 -8.51448380e-01  -9.25333650e-01   1.44352550e-01
C     2.266005664875000e+00   1.104933461141710e+00   9.977152711999999e+00  2.53683311e+00   8.27186350e-01   4.42245980e-01
C     2.506771853025000e+00   2.243349407056758e-01   6.867275391999999e+00 -2.19830140e+00  -8.62254140e-01   5.99288440e-01
C     3.756210310050000e+00   8.487245290668145e-01   6.818202376000000e+00  8.81887050e-01   7.54247130e-01   7.80027420e-01
C     3.504178394025000e+00   3.427417272573294e-01   1.007859103200000e+01  1.53425025e+00   2.80036542e+00  -1.18388214e+00
C     4.838307866699999e+00   1.152080006442565e+00   9.905539736000000e+00 -4.64457291e+00  -2.07230613e+00   1.25206757e+00
C     5.032711472099999e+00   1.600499609456748e-01   6.927285663999999e+00 -1.31414635e+00   1.62455182e+00  -3.64851890e-01
C     6.261456648525000e+00   9.105519389156190e-01   7.038291176000000e+00 -2.30927498e+00   1.56202382e+00  -1.23242021e+00
C     6.003063886274999e+00   4.949010020936982e-01   9.765839312000001e+00  2.12120406e+00  -3.76503061e+00   3.31230750e-01
C     7.284928974600000e+00   1.131911973760168e+00   9.679967959999999e+00 -1.22696249e+00   1.40895102e+00   9.46408110e-01
C     8.605034051624999e+00   2.304873511253313e+00   7.126478472000001e+00  1.09653410e-01   2.62766199e+00  -1.24503933e+00
C     2.493882700800000e+00   2.916870348314723e+00   7.045893576000000e+00 -1.07058801e+00   3.61171618e+00  -5.39860510e-01
C     2.312367360225000e+00   2.561374797699518e+00   9.992398311999999e+00 -1.26136140e-01  -4.00823770e-01  -1.76269870e-01
C     3.566740352850000e+00   3.238301331159695e+00   9.915535328000001e+00 -1.58836577e+00   5.26823160e-01   3.33003980e-01
C     3.736286996850000e+00   2.275291411644452e+00   6.889072112000000e+00 -1.41864592e+00  -1.44139598e+00   3.37855060e-01
C     4.918626477675000e+00   2.977911827638949e+00   6.924015408000000e+00  6.97839790e-01   3.68318005e+00  -1.37729250e-01
C     4.784235848550000e+00   2.524461616033157e+00   9.901591111999998e+00 -3.40239270e-01   9.89563120e-01  -7.63848810e-01
C     5.949488035650000e+00   3.217568955274674e+00   9.678040432000000e+00  3.49995970e+00   2.48830946e+00   1.36349766e+00
C     6.172073283524999e+00   2.418741087918956e+00   6.974633927999999e+00  1.03118889e+00  -3.70805197e+00  -7.53144200e-02
C     7.366428197325000e+00   3.161903850423919e+00   7.016023759999999e+00  1.70120536e+00  -3.92848099e+00  -3.15850000e-03
C     7.277773498649999e+00   2.574360903489976e+00   9.671087024000000e+00 -1.07983010e+00  -1.10977940e-01   1.61314520e+00
C     8.503577128950001e+00   3.336535730133606e+00   9.923850503999999e+00 -4.78773090e-01  -4.31944597e+00  -6.22383120e-01
C     9.856543959074999e+00   4.423515494790593e+00   7.010583896000001e+00 -9.97213940e-01  -2.13740130e+00  -3.49872100e-01
C     3.633889652025000e+00   5.126682642278598e+00   6.952106071999999e+00  3.27249599e+00   1.71250843e+00   1.22235190e-01
C     3.522666522600000e+00   4.640550093876497e+00   9.752840839999999e+00  2.27114200e-01   1.96167675e+00   9.80803550e-01
C     4.808407293450000e+00   5.384033709700246e+00   9.743224824000000e+00 -3.99782098e+00   1.11663568e+00   6.14603210e-01
C     4.900871452424999e+00   4.444815672177481e+00   6.963289352000000e+00 -9.91041610e-01  -5.76941380e-01  -8.50273260e-01
C     6.084721953599999e+00   5.204129780877627e+00   6.893604448000000e+00  2.89456014e+00  -3.42331810e-01  -1.40584970e-01
C     5.972076839625000e+00   4.718422987538060e+00   9.791521824000000e+00  1.52191802e+00  -4.33226605e+00   2.54305510e-01
C     7.196365345349999e+00   5.352284089018667e+00   9.991903135999999e+00  1.43485660e+00   1.26775887e+00  -2.86905090e-01
C     7.397778116625000e+00   4.518567618033870e+00   6.918986263999999e+00 -1.60790832e+00   1.37878942e+00   5.32227700e-02
C     8.649223132949999e+00   5.175685013422124e+00   6.961308647999999e+00  4.35168150e-01  -7.22679150e-01  -2.09989620e-01
C     8.492688028425000e+00   4.694482975061280e+00   9.957250607999999e+00 -2.89220175e+00   1.16006411e+00   1.44295070e-01
C     9.633587001524999e+00   5.402191253712654e+00   9.836080320000001e+00  4.71995787e+00   1.63935179e+00  -6.54374000e-02
