72
Lattice="7.395 0 0 3.6975 6.40425786098592 0 0 0 13.6 " PBC="1 1 1" Properties=species:S:1:pos:R:3:force:R:3 Energy="-578.70332898"
C     3.679911879900000e+00   6.342640701936740e+00   1.322043651200000e+01  1.70076914e+00  -2.13292890e+00   4.69092890e-01
C     1.283271173625000e+00   6.186899269508959e-01   1.323504413600000e+01 -2.12198865e+00   1.06566047e+00   5.23514360e-01
C     1.309476687225000e+00   8.608747511213850e-01   3.654429344000000e+00  1.40721220e-01  -4.73328600e-01  -8.41200100e-02
C     2.483540608425000e+00   1.616399140232877e+00   3.622881016000000e+00  2.48687322e+00  -1.97661339e+00  -1.59200990e-01
C     6.238537103175000e+00   6.329012889508710e+00   1.330147306400000e+01 -4.53649085e+00   1.81169020e-01  -5.62838550e-01
C     3.691473555675000e+00   6.268179548564935e-01   1.321023406400000e+01  3.76202300e-02   2.01322220e+00   1.59055422e+00
C     3.741310827075000e+00   8.832910625681142e-01   3.597066040000000e+00 -1.55708001e+00  -2.87888005e+00   4.13697070e-01
C     4.996179358650000e+00   1.510855753891084e+00   3.593302784000000e+00 -1.48572800e+00   3.41922560e-01   5.42350720e-01
C     8.551916284275000e+00   6.322266772364143e+00   1.332911424800000e+01  3.38275607e+00   5.54402680e-01  -4.98056620e-01
C     6.128010471824999e+00   5.659508634737959e-01   1.327465998400000e+01  5.28465920e-01   1.48695647e+00   2.14133480e-01
C     6.188682305625000e+00   8.102753501953111e-01   3.653829448000000e+00  2.51532920e+00  -4.55988470e-01   3.05365420e-01
C     7.453200018074999e+00   1.512271671261351e+00   3.655234872000000e+00 -1.08740501e+00   1.42191000e-02  -2.67937290e-01
C     1.216177928550000e+00   2.056266433258238e+00   1.325516982400000e+01  1.14763240e+00   1.95271460e-01  -2.33695890e-01
C     2.487484509825000e+00   2.796843604737382e+00   1.324018017600000e+01 -2.71175999e+00   1.21929310e-01   8.10334900e-01
C     2.519982022200000e+00   3.003052702507058e+00   3.613037200000000e+00 -1.05706005e+00   1.59135302e+00  -9.69073700e-02
C     3.704157903375000e+00   3.723845584434776e+00   3.610115920000000e+00  4.02026286e+00  -1.06383406e+00   6.52072760e-01
C     3.669280458149999e+00   2.058801750859854e+00   1.332271259200000e+01  1.33373860e+00   1.64011110e-01  -1.57366952e+00
C     4.927402087199999e+00   2.723377865164757e+00   1.321615346400000e+01 -2.02075800e-02   1.64648431e+00   1.39735916e+00
C     4.958377190925000e+00   2.886714427201605e+00   3.697937240000000e+00  6.86180690e-01   4.35647359e+00  -1.18874584e+00
C     6.232729809675000e+00   3.615768993896459e+00   3.670641224000000e+00 -2.14642364e+00   4.33031360e-01  -2.43425310e-01
C     6.154135786649999e+00   1.973638314093046e+00   1.326170272000000e+01 -4.34454560e-01   2.08230220e+00  -3.37186890e-01
C     7.356618212174999e+00   2.738446251355815e+00   1.321373756000000e+01  4.25519710e-01   1.42648683e+00   3.81415980e-01
C     7.439731023900000e+00   2.917730312060164e+00   3.609745864000000e+00  2.01480592e+00   2.12845379e+00   4.13219800e-01
C     8.721528632849999e+00   3.739844381207735e+00   3.625649296000000e+00 -2.65540106e+00  -2.08590570e+00  -3.14237460e-01
C     9.829528840875000e+00   4.242861627372569e+00   1.326217640800000e+01  3.47426140e-01  -1.93369508e+00   1.06337570e-01
C     3.682104571350000e+00   4.873000189929471e+00   1.321120932000000e+01  2.99846670e-01   2.32787220e+00   7.60272410e-01
C     3.792858746850000e+00   5.161682744037019e+00   3.655772616000000e+00  1.38954400e-01  -1.69470207e+00   1.40986890e-01
C     5.087236951650000e+00   5.856560988661984e+00   3.649920536000000e+00 -3.52829708e+00  -1.18784335e+00  -7.12031600e-02
C     4.920740079600000e+00   4.200619590826059e+00   1.327624928000000e+01 -5.30392600e-02  -1.79682116e+00  -4.86801380e-01
C     6.148990567500000e+00   4.935999514924078e+00   1.329553748000000e+01 -1.08255521e+00  -5.40214040e-01  -1.40229150e-01
C     6.227783922750000e+00   5.064361720319102e+00   3.634646239999999e+00  1.39471251e+00  -1.85182510e-01   3.82582390e-01
C     7.443127510425001e+00   5.788527852946840e+00   3.673846880000000e+00  3.05192250e-01   2.69546274e+00  -9.30728050e-01
C     7.324367618849999e+00   4.265194363254225e+00   1.322235112000000e+01  3.10748690e+00  -4.26659868e+00   9.33369680e-01
C     8.596166633174999e+00   4.956940349402442e+00   1.332871930400000e+01 -1.32531889e+00  -2.64279326e+00  -7.49905250e-01
C     8.712443616525000e+00   5.154323163032043e+00   3.645473064000000e+00 -1.77093602e+00  -2.64078224e+00   4.80471370e-01
C     9.921506741624999e+00   5.785812063358728e+00   3.737151752000000e+00  1.58013222e+00   3.05586493e+00  -1.18509328e+00
C     8.722088212499998e-02   6.249050670762901e-02   6.824581864000000e+00 -3.84608373e+00   3.25384830e-01   6.89070200e-02
C     1.237656595125000e+00   7.903756559172475e-01   6.863345263999999e+00  1.88970043e+00   1.14198054e+00   9.89482900e-02
C     1.169359813800000e+00   5.725366820441269e-01   1.027123462400000e+01 -1.11152565e+00   3.61002670e-01  -8.19455890e-01
C     2.376136737675000e+00   1.303145754249339e+00   1.017506508000000e+01  6.86661200e-01  -9.51981360e-01  -1.85243360e-01
C     2.484466240575000e+00   9.706120297653779e-02   6.892927031999999e+00  9.62097060e-01   1.27006612e+00  -1.31417480e-01
C     3.788298657075000e+00   7.434151543072255e-01   6.878746991999999e+00 -1.09426916e+00   3.43745210e-01   4.98900450e-01
C     3.598944505575000e+00   5.980230025812042e-01   1.008561040000000e+01  1.58518090e+00  -1.65353099e+00   1.87101772e+00
C     4.863840879000000e+00   1.310338184124169e+00   1.025746367200000e+01 -1.43748783e+00  -1.23240678e+00  -1.65839499e+00
C     5.041966721325000e+00   8.364517935593821e-02   6.959095928000000e+00 -1.76554404e+00  -1.03699285e+00  -1.07256947e+00
C     6.231043971524999e+00   8.228407602869454e-01   6.865234848000000e+00  1.20908881e+00   1.28919110e-01   3.17790780e-01
C     6.121181448149999e+00   5.989377227313480e-01   1.020188156000000e+01 -1.03039971e+00   9.38896390e-01   4.33906970e-01
C     7.342774439399999e+00   1.318213500014611e+00   1.025597800800000e+01  8.75584400e-01   2.05437500e-02  -2.12060890e-01
C     8.616898737525000e+00   2.235243858096249e+00   6.880038856000000e+00  3.79171660e-01  -1.71100292e+00   4.82770400e-02
C     2.476499533125000e+00   2.829055997091925e+00   6.944231400000000e+00  1.47311501e+00   2.32451216e+00  -1.20497537e+00
C     2.411418208725000e+00   2.686572275030444e+00   1.018105316000000e+01 -1.00810878e+00   3.15699920e+00   2.70576980e-01
C     3.643936905750000e+00   3.415293243933371e+00   1.025345235200000e+01 -2.52162676e+00   1.30570898e+00  -8.79534740e-01
C     3.772597851900000e+00   2.146951877322252e+00   6.879483567999999e+00 -3.80910733e+00  -5.53030770e-01   4.97040140e-01
C     4.902067445775000e+00   2.868793904772596e+00   6.919396711999999e+00  4.23458475e+00   3.91500374e+00  -3.64625300e-02
C     4.801865565525000e+00   2.719180962861363e+00   1.023126966400000e+01  4.45709137e+00  -4.29887280e-01   4.14706630e-01
C     6.088773932924999e+00   3.448200562308302e+00   1.023213720800000e+01 -3.63813740e-01  -1.46616147e+00   1.03678380e-01
C     6.212896641525000e+00   2.281776555281223e+00   6.883335495999999e+00 -1.63273837e+00  -3.03570736e+00  -1.83536100e-01
C     7.417192949624999e+00   2.974664740818771e+00   6.827289624000001e+00 -2.41694890e-01   7.03218040e-01   5.24537830e-01
C     7.383312128549999e+00   2.772512868488563e+00   1.024171160800000e+01 -3.19279363e+00  -1.56579873e+00  -3.57338230e-01
C     8.560097446724999e+00   3.484479786489101e+00   1.018207846400000e+01  1.70855126e+00  -2.04536374e+00   4.33438270e-01
C     2.481611696625000e+00   4.266537400170045e+00   6.830026351999999e+00 -8.25143160e-01   1.34540461e+00   7.97851230e-01
C     3.685318808100000e+00   5.049172229611910e+00   6.813695200000000e+00  1.50021243e+00  -1.32368483e+00   7.46572160e-01
C     3.658086942450000e+00   4.867994237730624e+00   1.021954279200000e+01 -2.98438411e+00  -8.38656680e-01  -9.70871700e-02
C     4.854565404450000e+00   5.542565477277630e+00   1.023474228800000e+01 -9.96916100e-02   1.98612009e+00   6.28470000e-02
C     4.929107004450000e+00   4.343629614798474e+00   6.937573384000000e+00 -6.06729070e-01   2.41393100e-02  -7.76431770e-01
C     6.153226349550000e+00   5.133857908742363e+00   6.906487456000000e+00 -2.75847450e-01  -3.70450533e+00   1.24225830e-01
C     6.053083111649999e+00   4.840013394714498e+00   1.024063503200000e+01  9.47545070e-01  -8.55833390e-01  -3.53660370e-01
C     7.280827005074999e+00   5.496509705175489e+00   1.020076676800000e+01 -4.14976740e-01   4.62551123e+00  -5.63885610e-01
C     7.385207393100000e+00   4.398075028739793e+00   6.867298511999999e+00  6.82377890e-01   5.98710700e-02   1.83022420e-01
C     8.637581332349999e+00   5.047407088060537e+00   6.890831544000000e+00  1.72888702e+00  -2.55447820e-01  -9.36192100e-02
C     8.488735363949999e+00   4.871560768932858e+00   1.021422124800000e+01  3.89936433e+00   5.04499650e-01  -4.76987550e-01
C     9.784729487174999e+00   5.608390552967803e+00   1.017999344800000e+01  1.23291400e-02  -1.74464321e+00   2.32237810e-01
