72
Lattice="7.395 0 0 3.6975 6.40425786098592 0 0 0 13.6 " PBC="1 1 1" Properties=species:S:1:pos:R:3:force:R:3 Energy="-579.41450442"
C     1.106756036250000e+01   6.391180365449880e+00   1.341604028000000e+01 -5.73665850e-01  -1.86162200e-02   4.00463930e-01
C     1.234950912525000e+00   6.239444924398686e-01   1.338336383200000e+01 -7.64587430e-01   2.57488103e+00   4.75123940e-01
C     1.230584349900000e+00   7.698785084234244e-01   3.399555688000000e+00  3.07106500e-02  -1.03858201e+00   6.74202990e-01
C     2.513925997875000e+00   1.377347150922343e+00   3.386280456000000e+00 -2.06064538e+00   3.97101124e+00   5.59557120e-01
C     6.176594401650000e+00   6.368138998436016e+00   1.343631012800000e+01 -9.66882260e-01  -3.75129460e-01   1.78751120e-01
C     3.692334777375000e+00   6.624641821904107e-01   1.338534127200000e+01  2.43874120e-01   5.76987350e-01   5.64512110e-01
C     3.732621110475000e+00   7.469652906093379e-01   3.513357768000000e+00  1.57952186e+00   1.80318901e+00  -2.39536360e-01
C     4.970252969324999e+00   1.487784478993012e+00   3.545197680000000e+00 -1.21503890e-01  -2.53782940e-01   1.21195040e-01
C     8.609517640124999e+00   6.360381072592147e+00   1.338812084000000e+01 -2.98529720e-01   1.53272625e+00   6.16565790e-01
C     6.088618859775000e+00   6.864969283210038e-01   1.346317624800000e+01  3.16767406e+00   2.79855120e-01   6.32058100e-02
C     6.223475891550000e+00   7.353274091835672e-01   3.550665016000000e+00 -2.68249153e+00   1.85779742e+00  -1.07078050e-01
C     7.389571404449999e+00   1.487472655677809e+00   3.453112896000000e+00  2.43995705e+00   6.59675600e-02  -1.28009820e-01
C     1.240700857800000e+00   2.073942697292466e+00   1.338346964000000e+01 -1.14046081e+00   1.11710617e+00   2.45401310e-01
C     2.472875058750000e+00   2.775876128546321e+00   1.321841460000000e+01 -1.63202030e-01   9.37797860e-01   1.69939796e+00
C     2.476441704225000e+00   2.850974569617775e+00   3.457809384000000e+00  1.74635383e+00  -6.58600520e-01  -2.76347820e-01
C     3.710303296275000e+00   3.589722108668897e+00   3.520451800000000e+00 -1.34095246e+00   6.15112270e-01   4.95450320e-01
C     3.714080699250000e+00   2.076016780243006e+00   1.340565586400000e+01 -1.54699607e+00   5.52954330e-01  -1.13791739e+00
C     4.893233267849999e+00   2.819276375126812e+00   1.350469188000000e+01  1.51985037e+00  -3.30895920e-01   7.92720610e-01
C     4.935395046900000e+00   2.940298788673647e+00   3.579270848000000e+00  1.29886919e+00  -2.74900849e+00  -1.00258351e+00
C     6.179728624500000e+00   3.594770008756727e+00   3.486117784000000e+00  1.73344440e+00   2.16690651e+00   3.55966440e-01
C     6.116599506150000e+00   2.078514440808406e+00   3.142456800000000e-02  1.47869435e+00   2.60916325e+00  -7.93719450e-01
C     7.407005819475000e+00   2.885024983978137e+00   2.467026400000000e-02 -2.20702940e-01  -3.19919798e+00  -1.09271517e+00
C     7.469302075949999e+00   2.906809899642449e+00   3.428568296000000e+00 -3.76872284e+00  -8.67530760e-01   3.53042630e-01
C     8.671900233224999e+00   3.583724265012692e+00   3.460620232000000e+00 -4.68343300e-02   1.07206826e+00  -4.46413860e-01
C     2.460301414200000e+00   4.220603565137560e+00   1.327048220000000e+01 -7.05260000e-04   9.02441920e-01   1.09235788e+00
C     3.675364102800000e+00   4.996184424759528e+00   1.341223921600000e+01  8.40317750e-01  -2.94033486e+00  -2.68335610e-01
C     3.679530519750000e+00   5.018119007930029e+00   3.597764128000000e+00  7.75043280e-01  -1.51326830e-01  -5.35496380e-01
C     4.878105094500000e+00   5.770010261557542e+00   3.546231960000000e+00  2.87240843e+00  -1.65127297e+00  -4.29851280e-01
C     4.938814494899999e+00   4.230810158974199e+00   1.354510278400000e+01 -8.79390610e-01   1.81411797e+00  -3.03892830e-01
C     6.184973787075000e+00   4.973476143196962e+00   1.633278400000000e-02 -1.34359762e+00  -6.57444060e-01  -7.47852050e-01
C     6.206880513225000e+00   5.045010806897062e+00   3.514736400000000e+00 -2.07033213e+00   2.83658260e-01   8.21122300e-02
C     7.436020915424999e+00   5.793486541722680e+00   3.533791224000000e+00 -4.63521850e-01  -4.48046939e+00  -7.58002130e-01
C     7.420631513700000e+00   4.317842614354870e+00   1.358397362400000e+01 -4.77649990e-01  -2.57826944e+00   1.89897560e-01
C     8.629586745750000e+00   4.995419628285887e+00   1.342934992000000e+01  1.16733773e+00  -2.85362674e+00  -6.59208430e-01
C     8.637673030349999e+00   5.018096849197833e+00   3.460259968000000e+00  8.27932770e-01   8.04400600e-01   1.08254435e+00
C     9.874291922099999e+00   5.735190183487566e+00   3.573755640000000e+00 -7.05631880e-01  -7.53381020e-01  -5.75094840e-01
C     7.387881609975000e+00   5.826574588254421e-02   7.125563192000000e+00  1.71562408e+00  -1.73605823e+00  -1.60029885e+00
C     1.240601653875000e+00   7.526609813797075e-01   6.885274856000001e+00  2.97220150e-01  -2.04096325e+00  -1.33713610e-01
C     1.181987515800000e+00   6.656506206886537e-01   1.018897624800000e+01  2.68647621e+00   1.14393930e-01   5.35952000e-03
C     2.454429673275000e+00   1.378966019224193e+00   1.023387855200000e+01 -1.37104096e+00   1.69399510e-01  -5.99627350e-01
C     2.479769195400000e+00   3.168813980612280e-02   6.717045440000000e+00 -1.24046237e+00  -1.08327349e+00   3.63337770e-01
C     3.668675879925000e+00   7.630644421029631e-01   6.618349424000000e+00  5.92116370e-01  -6.91590100e-02   6.37721000e-01
C     3.665368872900000e+00   6.789339480863940e-01   1.035915196000000e+01 -3.21230280e-01   3.56514320e-01   5.68237700e-02
C     4.880153176725000e+00   1.397820666704662e+00   1.032768754400000e+01  2.08823580e+00   4.54964000e-03  -1.37646984e+00
C     4.868521174500000e+00   5.433026538499560e-02   6.829703216000000e+00  2.41299267e+00  -9.84737520e-01   8.42312000e-02
C     6.162314656650000e+00   7.415418448405968e-01   6.977530184000000e+00 -1.89411846e+00  -1.42011872e+00  -5.25110800e-02
C     6.133259331900000e+00   6.366452245000849e-01   1.028127496000000e+01 -7.05953700e-02   9.65934100e-01   9.05445500e-02
C     7.388548047375000e+00   1.372302132750549e+00   1.014404919200000e+01 -2.93782747e+00   4.09565180e-01   7.93784670e-01
C     1.278541331625000e+00   2.121073360033828e+00   6.763231040000000e+00 -1.09365860e+00   2.68749857e+00   9.16440000e-01
C     2.478715075125000e+00   2.907370080077463e+00   6.707246776000000e+00 -5.05746250e-01  -2.17631630e-01  -2.39835670e-01
C     2.440622357850000e+00   2.798809135517195e+00   1.009689228000000e+01 -2.73039650e-01  -3.08591130e-01   3.32147840e-01
C     3.636261709200000e+00   3.544679746330523e+00   1.005172967200000e+01  2.64541709e+00  -1.21568778e+00   5.44014480e-01
C     3.666757653900000e+00   2.176678521031014e+00   6.572376120000000e+00  2.58611858e+00   1.20193170e+00   1.17942421e+00
C     4.975432871024999e+00   2.877094847640414e+00   6.696657271999999e+00 -2.22268443e+00  -4.93786950e-01   4.66827510e-01
C     4.925961060524999e+00   2.833524632056319e+00   1.008463392000000e+01 -2.42664137e+00  -1.19187514e+00   1.00291716e+00
C     6.137738187600000e+00   3.533513026155513e+00   1.017242124000000e+01 -1.40989130e-01  -3.99134820e-01   3.29260360e-01
C     6.149399474025000e+00   2.124388972413108e+00   6.906650656000000e+00  1.56331494e+00   1.94703419e+00  -7.83183780e-01
C     7.432808379525000e+00   2.830176998387739e+00   6.897715320000000e+00 -7.92015070e-01  -7.98742610e-01  -4.78654060e-01
C     7.330421387700000e+00   2.818493262475691e+00   1.020145384000000e+01  2.21239253e+00  -1.70574003e+00  -6.29259210e-01
C     8.596877995200000e+00   3.479734679712892e+00   1.015667910400000e+01 -9.42245800e-01   1.63961929e+00   8.57023250e-01
C     9.868598178825000e+00   4.338974936143248e+00   6.872805560000001e+00  1.59845674e+00  -9.45038710e-01   2.86222780e-01
C     3.784756821825000e+00   4.991680246164012e+00   7.019433416000001e+00 -3.83971495e+00   2.16635564e+00  -7.90161470e-01
C     3.707185786125000e+00   4.943495250451158e+00   1.016481720800000e+01 -1.39653125e+00  -1.83895580e-01  -2.25824160e-01
C     4.931832061950000e+00   5.652544132400366e+00   1.017257084000000e+01 -5.57469360e-01  -2.34816390e-01   6.67142630e-01
C     4.971377379074999e+00   4.318442629273774e+00   6.801025032000000e+00  3.59627640e-01  -1.79762067e+00   8.09547300e-02
C     6.193068317100000e+00   4.990177999397791e+00   6.745972232000000e+00  1.03563109e+00   6.39126230e-01   7.10242990e-01
C     6.155474651400000e+00   4.926704246980917e+00   1.030548921600000e+01 -9.19449780e-01   1.71324251e+00  -6.39532610e-01
C     7.330698293474999e+00   5.680552833938183e+00   1.045239233600000e+01  2.61661727e+00  -2.12608493e+00  -1.06482764e+00
C     7.420017358950000e+00   4.219347946341529e+00   6.823714592000000e+00 -1.63160170e-01   2.55431370e+00  -2.67235740e-01
C     8.626301036325000e+00   5.011118833876155e+00   6.871673087999999e+00 -4.53248110e-01   4.60096300e-01  -1.86008340e-01
C     8.601595746374999e+00   4.911703233582545e+00   1.035054152800000e+01 -6.71376520e-01   2.44629220e-01  -3.54369170e-01
C     9.845796990449999e+00   5.600292561031569e+00   1.031768583200000e+01 -2.32548260e-01   1.70144296e+00  -5.36800360e-01
