72
Lattice="7.395 0 0 3.6975 6.40425786098592 0 0 0 13.6 " PBC="1 1 1" Properties=species:S:1:pos:R:3:force:R:3 Energy="-580.64590285"
C     3.725208214575000e+00   6.372427609711965e+00   1.348855616000000e+01 -2.24147200e-01   9.98759570e-01   3.51825580e-01
C     1.215519218925000e+00   7.626712206703591e-01   1.350962868000000e+01  1.13537282e+00  -2.44116103e+00   1.86898230e-01
C     1.281908607900000e+00   7.008586686997896e-01   3.416298648000000e+00 -1.31932896e+00   1.95229977e+00  -3.36996100e-02
C     2.451351319650000e+00   1.518615024629103e+00   3.414929536000000e+00  1.19199056e+00  -2.83256353e+00  -1.59832240e-01
C     6.133963114049999e+00   6.402531912506730e+00   1.354309692000000e+01  1.24995014e+00  -3.95713800e-02  -2.51886240e-01
C     3.691178421225000e+00   7.080614734723530e-01   1.343970319200000e+01  1.63918530e-01   1.10718530e-01   1.07557544e+00
C     3.672727674374999e+00   7.363360157539387e-01   3.427160288000000e+00  2.27293610e-01  -6.50695450e-01   2.62754010e-01
C     4.932386058375000e+00   1.431402545559987e+00   3.450333055999999e+00 -9.94589110e-01  -2.76992200e-01   1.76657790e-01
C     8.649528546450000e+00   6.402051721252388e+00   1.352182176000000e+01 -5.85057750e-01  -5.80201200e-01  -1.56888670e-01
C     6.233644423274999e+00   7.294894798461271e-01   1.355616352800000e+01 -2.78116961e+00  -2.22690515e+00  -6.78507500e-02
C     6.141011140650000e+00   7.564715788489861e-01   3.455807056000000e+00  2.02054479e+00  -2.06570275e+00   1.86277770e-01
C     7.408429283025000e+00   1.415269579584861e+00   3.407604032000000e+00 -5.05930990e-01   6.82949090e-01   3.70189300e-02
C     8.605908769199999e+00   2.177361983429833e+00   1.352298034400000e+01  2.45164209e+00  -2.45993249e+00  -5.47774640e-01
C     2.448357860625000e+00   2.884493046320285e+00   1.341702723200000e+01  2.70690150e-01  -1.72508377e+00   6.46212920e-01
C     2.476738058850000e+00   2.928879996909266e+00   3.399002848000000e+00 -5.12426490e-01  -1.18044463e+00   1.40321800e-01
C     3.729820476075000e+00   3.567125709491144e+00   3.469172184000000e+00  1.85640030e-01   1.05438880e+00   7.26955100e-02
C     3.671786623650000e+00   2.168337103253521e+00   1.345612696000000e+01  1.35883677e+00  -1.42931303e+00   1.18665020e-01
C     4.940043654825000e+00   2.852904044425836e+00   1.359792912800000e+01 -5.69447340e-01  -1.14694112e+00  -5.40460000e-03
C     4.970438214075000e+00   2.821440822155756e+00   3.519814368000000e+00 -1.97344484e+00   2.10846678e+00  -7.25304030e-01
C     6.151441973024999e+00   3.596302099364575e+00   3.472498472000000e+00  2.42066900e-01  -3.11100173e+00  -2.41131500e-01
C     6.205129007475000e+00   2.131088722730768e+00   6.602092800000001e-02 -3.34409629e+00  -1.77426454e+00  -6.94622490e-01
C     7.392938384924999e+00   2.752782823001211e+00   1.359967414400000e+01 -2.28699590e-01   4.61292742e+00   2.35937860e-01
C     7.348765424700000e+00   2.856588990355901e+00   3.375332320000000e+00  2.82482068e+00   2.21132270e-01   4.25300350e-01
C     8.622575879025000e+00   3.596081920979348e+00   3.380973056000000e+00 -3.54675560e-01  -6.60157390e-01   1.66057210e-01
C     2.481614765550000e+00   4.261299677879244e+00   1.344258530400000e+01 -1.62132283e+00   5.23143470e-01   1.96937610e-01
C     3.702462340799999e+00   4.923507369542362e+00   1.346199984800000e+01 -2.57011950e-01   2.85132754e+00   4.44795910e-01
C     3.736780687050000e+00   5.010691862004630e+00   3.473086944000000e+00 -3.35636290e-01  -2.58575070e-01   1.43088960e-01
C     5.002151338799999e+00   5.690989404674574e+00   3.439723560000000e+00 -3.09994438e+00   1.28244091e+00   8.51102000e-02
C     4.899163614150000e+00   4.259505717167501e+00   2.357152000000000e-02  1.38343587e+00  -8.51887710e-01  -3.57048320e-01
C     6.133037112149999e+00   4.952270300528351e+00   5.770330400000000e-02  7.45347130e-01   6.42576260e-01  -6.12326420e-01
C     6.154116042000000e+00   4.969684118075477e+00   3.437827312000000e+00  1.93665733e+00   4.50114820e-01   2.17486930e-01
C     7.377664640999999e+00   5.651634087358460e+00   3.461135808000000e+00  1.17421627e+00   3.12307356e+00  -3.90422320e-01
C     7.345666697850000e+00   4.166932810226987e+00   8.582959999999999e-04  1.52338954e+00   3.46004602e+00  -2.68334000e-02
C     8.614184513700000e+00   4.927077230958683e+00   1.351891000000000e+01 -6.78495500e-01   1.47964958e+00   2.59701600e-02
C     8.655284925375000e+00   4.994683843100352e+00   3.463818952000000e+00 -1.23023716e+00   5.08823580e-01   4.26486000e-02
C     9.873787620074999e+00   5.727099492405292e+00   3.521456568000000e+00  5.43290860e-01  -3.17389310e-01  -7.65742930e-01
C     3.724077297225000e+00   6.398847350832137e+00   6.982101960000000e+00 -1.22968100e+00   7.45869030e-01  -5.71392280e-01
C     1.233548783550000e+00   7.041243278677608e-01   6.863510231999999e+00  5.98685210e-01   1.31646166e+00  -2.96534990e-01
C     1.209198157800000e+00   6.868839376234837e-01   1.020792730400000e+01  3.36689190e-01   1.94594340e-01  -1.72668080e-01
C     2.459845660350000e+00   1.420209760055486e+00   1.019135815200000e+01 -2.09001420e-01  -1.30013095e+00   9.87652800e-02
C     6.171222784574999e+00   6.397461085175761e+00   6.724464783999999e+00  1.17753250e-01   1.64809916e+00   2.29189740e-01
C     3.751260244950000e+00   6.966114929721948e-01   6.630172312000000e+00 -7.89555730e-01   4.10937700e-02   1.09247761e+00
C     3.706259414474999e+00   6.916287882293790e-01   1.028179788000000e+01 -8.95968090e-01  -7.44535430e-01   3.34811030e-01
C     4.925093368200000e+00   1.403210938417689e+00   1.028814826400000e+01 -1.00040904e+00  -3.19222110e-01  -7.58478870e-01
C     8.678745747750000e+00   6.397035266070650e+00   6.854343832000000e+00 -8.04440250e-01   6.50004710e-01  -7.24182150e-01
C     6.187855766474999e+00   7.273687738983666e-01   6.934919344000000e+00  3.72855580e-01   6.01370660e-01  -2.58031240e-01
C     6.140474633399999e+00   7.237032969121956e-01   1.024548955200000e+01  8.11063410e-01  -3.79424460e-01   1.50152020e-01
C     7.378858637700000e+00   1.384536891008872e+00   1.017757822400000e+01  8.71733910e-01   1.83848708e+00   1.47313300e-02
C     8.608501899900000e+00   2.172713260734417e+00   6.830840039999999e+00  3.56419060e-01  -1.10610285e+00  -2.89141200e-01
C     2.475888743100000e+00   2.830917650809248e+00   6.744708247999999e+00 -1.72639300e-02  -1.12028190e-01  -1.60122810e-01
C     2.456175965550000e+00   2.830946085714146e+00   1.012772538400000e+01  3.18156600e-02   5.79570800e-02   3.68364270e-01
C     3.710355320100000e+00   3.491157057861674e+00   1.011479980800000e+01 -1.81011253e+00   2.27426866e+00   1.14059240e-01
C     3.745252768799999e+00   2.132741213386383e+00   6.621914936000000e+00 -2.45190546e+00  -1.21264609e+00   7.87360450e-01
C     4.916457635100000e+00   2.838181488159218e+00   6.733219784000000e+00  1.39414711e+00   1.69111818e+00   4.47859860e-01
C     4.903794178275000e+00   2.782712353598978e+00   1.014582317600000e+01  1.68959210e+00   1.87140099e+00   2.60223150e-01
C     6.150296746350000e+00   3.533151826012209e+00   1.015367812800000e+01  2.29165820e-01   5.72625700e-02   3.92207140e-01
C     6.164873844300000e+00   2.167502116113734e+00   6.841408464000000e+00  1.98039530e-01  -3.78149680e-01  -1.95903930e-01
C     7.377775861799999e+00   2.930966119864583e+00   6.820140375999999e+00  7.98021810e-01  -1.85499377e+00   2.37826560e-01
C     7.419996615974999e+00   2.836377216592319e+00   1.015428156000000e+01 -1.58591549e+00  -3.50483200e-02   3.03038820e-01
C     8.621897461725000e+00   3.582361310854927e+00   1.019595495200000e+01  8.15046290e-01  -1.77542511e+00  -1.02160140e-01
C     2.454688794075000e+00   4.241295273985170e+00   6.836971736000000e+00  2.30399120e-01   4.51054770e-01   1.38411540e-01
C     3.648408514350000e+00   4.993342471291575e+00   6.903438608000000e+00  1.95545460e+00  -9.40319820e-01  -1.67847030e-01
C     3.657212150925000e+00   4.960466661865315e+00   1.013422210400000e+01  3.89438910e-01   2.14244000e-02   4.65405180e-01
C     4.881208221375000e+00   5.673362261298132e+00   1.019919297600000e+01  1.20933163e+00  -2.55541130e-01   6.05699800e-02
C     4.890199912800000e+00   4.284313890839783e+00   6.838023832000000e+00  6.25222610e-01  -2.38932930e-01  -4.39037740e-01
C     6.136532026125000e+00   5.007603408651645e+00   6.779802640000000e+00  2.99432490e-01  -7.32408760e-01   1.80096490e-01
C     6.144341774700000e+00   4.970037633109349e+00   1.025578584000000e+01 -1.53534000e-03  -1.14389703e+00  -2.16230600e-01
C     7.414726014599999e+00   5.629014248596940e+00   1.037612489600000e+01 -2.42022603e+00   2.67394617e+00  -9.01200640e-01
C     7.409000214000000e+00   4.341336634314279e+00   6.779910760000000e+00 -1.36724752e+00  -1.30756252e+00   1.46497260e-01
C     8.650639756124999e+00   4.974664261115149e+00   6.850134359999999e+00 -2.91003820e-01   7.49524870e-01  -1.04588100e-01
C     8.626683357825000e+00   4.977780701074982e+00   1.032257612000000e+01  4.41849100e-01   7.45372000e-03  -4.45022320e-01
C     9.826936930350000e+00   5.742281490130786e+00   1.024717717600000e+01  1.08948408e+00  -3.02984241e+00  -1.95538710e-01
