72
Lattice="7.395 0 0 3.6975 6.40425786098592 0 0 0 13.6 " PBC="1 1 1" Properties=species:S:1:pos:R:3:force:R:3 Energy="-580.93564084"
C     3.655135080300000e+00   6.245148940704274e+00   1.353618240800000e+01 -1.63792000e-01   2.27484764e+00   5.93915970e-01
C     1.179511374000000e+00   5.896917675737089e-01   1.352900256000000e+01  4.99061840e-01  -1.70848750e-01   9.98369600e-02
C     1.313106227175000e+00   8.314014598535646e-01   3.397871600000000e+00 -1.15140673e+00   1.19473317e+00   3.66490480e-01
C     2.535396123225000e+00   1.569473349700456e+00   3.354795912000000e+00  8.81387420e-01  -1.81469452e+00   8.83359780e-01
C     6.108083756925000e+00   6.292233877044517e+00   1.357259192000000e+01  7.62912020e-01  -1.22539851e+00   1.78279120e-01
C     3.658993162724999e+00   5.724839750019390e-01   1.354738241600000e+01  9.52297430e-01   1.83595970e-01   3.99145400e-01
C     3.806492612550000e+00   8.869541059362984e-01   3.464256736000000e+00 -9.38615740e-01  -1.62664777e+00  -4.65723970e-01
C     5.029052647950000e+00   1.607476279884275e+00   3.471927680000000e+00 -6.96454030e-01  -1.78951810e-01   5.15952670e-01
C     8.639192887724999e+00   6.306184528111269e+00   1.354591334400000e+01 -1.10548360e+00  -1.06186763e+00   6.44031110e-01
C     6.142084340024999e+00   6.666506455534926e-01   1.359514847200000e+01  3.31494900e-02  -3.19146043e+00  -4.10594760e-01
C     6.223769399100000e+00   8.909959611569017e-01   3.512138664000000e+00  1.21217690e+00  -7.18804660e-01  -2.91075080e-01
C     7.473619498800000e+00   1.581618960689368e+00   3.439154672000000e+00 -2.31864770e-01   1.78412540e-01   3.95716000e-02
C     1.199288007375000e+00   2.044227261034959e+00   1.350549564000000e+01  3.11697050e-01  -2.71300004e+00   3.19253190e-01
C     2.421177649050000e+00   2.704648484968030e+00   1.341952324000000e+01  1.68057722e+00  -2.46684800e-01   9.53926490e-01
C     2.537117161575000e+00   2.955177993087521e+00   3.429673976000000e+00  3.57754650e-01   8.36909800e-01  -3.84959170e-01
C     3.779520237450000e+00   3.655658618445834e+00   3.450011960000000e+00 -4.36424750e-01   2.09307230e+00   9.78708820e-01
C     3.674251931775000e+00   1.987338622720051e+00   1.357379171200000e+01  9.03877600e-02   1.04699518e+00  -1.24103348e+00
C     4.922822659500000e+00   2.748332824427190e+00   1.358863951200000e+01 -1.13646636e+00  -4.48663350e-01   5.27690080e-01
C     5.043487835850000e+00   3.021291388466551e+00   3.528046311999999e+00 -9.43936140e-01   4.32415740e-01  -1.24207397e+00
C     6.239800834724999e+00   3.803491240714565e+00   3.440227984000000e+00 -1.32959190e-01  -3.64833685e+00   4.96301200e-01
C     6.149793072900000e+00   2.062884977586233e+00   6.470186400000000e-02 -4.60421610e-01  -9.44320000e-01  -1.97233100e-01
C     7.393993244699999e+00   2.709011962018362e+00   9.316258399999999e-02 -7.08852800e-01   7.42130210e-01  -1.04782028e+00
C     7.449774358275000e+00   3.029967684887544e+00   3.411393264000000e+00  1.00442248e+00  -6.04806270e-01   2.53888640e-01
C     8.716872408075000e+00   3.672944286793181e+00   3.437815616000000e+00 -5.45054750e-01   1.11796393e+00  -4.82904700e-01
C     2.463644471849999e+00   4.112117870607146e+00   1.343756282400000e+01 -5.13871630e-01   3.59683250e-01   9.91676250e-01
C     3.664814987400000e+00   4.831836566364007e+00   1.355249914400000e+01  5.71773770e-01   1.06531691e+00  -5.68453080e-01
C     3.740808558675000e+00   5.118883024716061e+00   3.543817416000000e+00 -2.84490370e-01  -3.96444950e-01  -6.69453270e-01
C     4.967271342300000e+00   5.817577502557221e+00   3.497981608000000e+00 -6.29471700e-02   1.41622695e+00  -1.99189000e-01
C     4.914648263475000e+00   4.181591580085319e+00   9.478928000000001e-03 -7.31020430e-01  -1.87246480e+00   7.98824200e-02
C     6.129926997000000e+00   4.836916807954031e+00   9.107960799999999e-02  1.37649109e+00   1.40398449e+00  -9.78346130e-01
C     6.205036015350000e+00   5.173138424326673e+00   3.462315472000000e+00  1.31356836e+00  -2.19478420e-01   8.32853700e-02
C     7.479148000800000e+00   5.795625499805341e+00   3.476704680000000e+00 -2.03106920e-01   3.35090216e+00  -6.02174790e-01
C     7.376965332825000e+00   4.082482231402575e+00   3.544527200000000e-02  9.66812210e-01   3.83794016e+00   6.18671500e-01
C     8.666642684025000e+00   4.830808106594270e+00   1.359331546400000e+01 -2.40297429e+00   9.61069280e-01  -9.97729640e-01
C     8.709248828625000e+00   5.109168918308855e+00   3.415362560000000e+00 -3.79881570e-01  -3.24711500e-02   9.81094720e-01
C     9.898391339700000e+00   5.878232997260223e+00   3.519424184000000e+00  1.23993314e+00  -1.46149779e+00  -3.76189170e-01
C     7.405502194125000e+00   1.126980951378282e-01   7.044268647999999e+00  8.48098800e-01  -6.58135400e-02  -8.42728770e-01
C     1.256569048800000e+00   8.101565512120080e-01   6.909606344000000e+00  5.22640790e-01  -5.08900130e-01  -2.32734610e-01
C     1.161819095325000e+00   5.893903191562386e-01   1.007884018400000e+01 -1.19595133e+00  -1.68046250e-01  -3.42439100e-01
C     2.367295608450000e+00   1.305733778893144e+00   1.006144143200000e+01  1.02564183e+00  -5.83368800e-02  -3.90579400e-02
C     2.505773195250000e+00   7.480326882668641e-02   6.850065816000001e+00 -6.77661070e-01   1.06800689e+00  -1.03146580e-01
C     3.679014348750000e+00   8.594396209775377e-01   6.802064208000000e+00  1.23304139e+00  -6.03003070e-01   2.29674840e-01
C     3.615655578675000e+00   5.811906916477663e-01   1.011383393600000e+01  5.84281150e-01   8.36699630e-01   4.12581190e-01
C     4.879603876125000e+00   1.308608714289076e+00   1.013746434400000e+01 -2.63236903e+00  -9.12335480e-01  -7.98459900e-01
C     4.898698505624999e+00   8.186799779978821e-02   6.907096600000000e+00  8.48191510e-01   1.73115671e+00  -2.77357610e-01
C     6.161484050249999e+00   7.549838697481080e-01   6.953855304000000e+00 -3.88706730e-01   2.46734769e+00   1.58550660e-01
C     6.045148794300000e+00   5.777141402684652e-01   1.013211736800000e+01  1.30390193e+00  -1.14854185e+00   9.51191300e-02
C     7.282047106124999e+00   1.248350283573393e+00   1.005530919200000e+01  1.05022070e+00   8.67006770e-01   7.47551170e-01
C     1.285826811675000e+00   2.219488487164549e+00   6.809394879999999e+00 -3.60024250e-01   9.04044110e-01   1.02089074e+00
C     2.509695170475000e+00   3.004439032206011e+00   6.822937352000000e+00 -8.59325890e-01  -1.00783080e-01  -5.66509000e-01
C     2.365840753125000e+00   2.740729369282905e+00   9.994528888000000e+00  4.77828350e-01  -1.05392602e+00   2.01112840e-01
C     3.615758221275000e+00   3.421646716028541e+00   9.985559007999999e+00 -1.25812020e-01   1.30998320e-01   3.32109190e-01
C     3.722332409999999e+00   2.317428354319478e+00   6.755036496000000e+00  1.13214040e-01  -2.58227332e+00   6.20373380e-01
C     4.983513239625000e+00   2.950089810217750e+00   6.814300264000001e+00 -6.47169420e-01   8.32020170e-01   1.99852570e-01
C     4.857004386374999e+00   2.695402465767812e+00   9.994642583999999e+00 -6.93456230e-01   1.34290876e+00   8.30345910e-01
C     6.050111504849999e+00   3.413421151275736e+00   1.008310786400000e+01  1.84126168e+00   1.34061892e+00   3.94441660e-01
C     6.183966551099999e+00   2.221345273645898e+00   6.927245952000000e+00  3.03966380e-01  -1.19976375e+00  -5.52226490e-01
C     7.421824401149999e+00   2.917939475121871e+00   6.920250520000000e+00  8.90998510e-01  -8.18025580e-01  -5.43429480e-01
C     7.289948700600000e+00   2.656046187813018e+00   1.012242179200000e+01 -1.09143390e-01   2.10223894e+00  -9.26588760e-01
C     8.531516733075000e+00   3.421050223451461e+00   1.002305257600000e+01 -4.31841310e-01  -1.07872390e+00   1.02237948e+00
C     9.911455494599998e+00   4.445239441920077e+00   6.893798383999999e+00 -3.10342140e-01  -1.95689826e+00   4.26945650e-01
C     3.741579339525000e+00   5.111123113552256e+00   7.006600456000000e+00  9.86252620e-01  -6.69844270e-01  -1.06500630e+00
C     3.619094882250000e+00   4.829932708587386e+00   1.007385714400000e+01 -2.87714930e-01   1.39609453e+00  -2.74668560e-01
C     4.865920168124999e+00   5.585647752455372e+00   1.005308450400000e+01 -6.46179480e-01  -6.90269950e-01   8.42030020e-01
C     4.979216929500000e+00   4.371896343885471e+00   6.849487544000000e+00  7.30272160e-01   5.19239780e-01   4.98342970e-01
C     6.262317833250000e+00   5.049487319098622e+00   6.842871823999999e+00 -2.01568597e+00   2.90757550e-01   4.63157820e-01
C     6.095464263375000e+00   4.915707687937246e+00   1.015043303200000e+01 -1.85261440e-01  -3.22152024e+00  -7.21023910e-01
C     7.346230529624999e+00   5.570414712794732e+00   1.017878046400000e+01 -8.23554560e-01   1.74566340e-01  -1.87238900e-01
C     7.465524414150000e+00   4.315248633751255e+00   6.893351352000000e+00 -3.12817930e-01   1.41731359e+00  -2.12393870e-01
C     8.669330914425000e+00   5.093553800624290e+00   6.923121752000000e+00 -1.03303016e+00  -8.03907760e-01  -2.52917700e-01
C     8.567708491649999e+00   4.818861283769333e+00   1.014679054400000e+01 -1.88048487e+00   7.30830810e-01  -2.03559430e-01
C     9.733823231550000e+00   5.554279633414512e+00   1.014554424000000e+01  2.77851768e+00  -5.42723920e-01  -2.57339590e-01
