72
Lattice="7.395 0 0 3.6975 6.40425786098592 0 0 0 13.6 " PBC="1 1 1" Properties=species:S:1:pos:R:3:force:R:3 Energy="-567.93791191"
C     3.673241294100000e+00   6.194953520364009e+00   1.798933200000000e-01  7.54543850e-01  -3.06167949e+00  -1.60595056e+00
C     1.239798704775000e+00   3.843793939895910e-01   1.355899015200000e+01 -6.96818910e-01   2.88130582e+00   1.22083960e+00
C     1.445387543475000e+00   1.034863323129036e+00   3.246270768000000e+00 -1.27299810e-01   1.82445740e+00   9.14301110e-01
C     2.623756796700000e+00   1.807813633835009e+00   2.985301864000000e+00  3.95721056e+00  -5.12739570e-01   1.77317681e+00
C     6.148159739250000e+00   6.129918537966023e+00   2.448429760000000e-01  1.36345800e-02   7.25752780e-01   1.96017630e-01
C     3.644954272875000e+00   5.127275100173226e-01   3.163584400000000e-01 -2.46468600e-01  -1.26877153e+00  -1.95870705e+00
C     3.949518900825000e+00   1.174370602307503e+00   3.270648496000000e+00 -3.14010550e+00  -4.30578944e+00   1.34049377e+00
C     5.157232105649999e+00   1.821410897953046e+00   3.632692056000000e+00 -1.53496625e+00  -2.09711961e+00  -1.85550216e+00
C     8.571489074475000e+00   6.181645664658665e+00   4.094561520000000e-01  2.53344597e+00  -7.01978020e-01  -1.95646911e+00
C     6.156412928999999e+00   4.407429472025580e-01   2.553500640000000e-01 -1.96231847e+00   1.22294381e+00   1.68468986e+00
C     6.349054305900000e+00   1.079850480764656e+00   3.781760296000000e+00  1.96314092e+00  -2.51533200e-02  -1.05420527e+00
C     7.603654066200000e+00   1.774030148942251e+00   3.406306320000000e+00 -9.06746280e-01  -1.19174952e+00   6.44228010e-01
C     1.260019223025000e+00   1.836769653195477e+00   1.347316653600000e+01 -3.19401089e+00   1.71074632e+00   1.33928183e+00
C     2.438404079700000e+00   2.584727091432486e+00   1.326822541600000e+01 -6.57240300e-01   1.81453404e+00   1.87876833e+00
C     2.732155516800000e+00   3.250554853893547e+00   3.098046272000000e+00 -2.70323946e+00   2.63412840e-01   1.21029935e+00
C     3.841809320775000e+00   3.932708798789371e+00   3.613608808000000e+00  4.20654235e+00   7.01242630e-01  -1.05816617e+00
C     3.623636743350000e+00   1.886564999547228e+00   1.347376357600000e+01  3.58656331e+00  -2.66939600e-01   3.16250329e+00
C     4.882113813075000e+00   2.569593894151885e+00   3.628501760000000e-01 -8.05515130e-01   1.18925584e+00  -1.95932904e+00
C     5.083363339725000e+00   3.163926443141264e+00   3.493828712000000e+00  2.41694840e+00   5.67859297e+00   1.39465013e+00
C     6.397994194050000e+00   3.967226019505149e+00   3.480048512000000e+00 -2.09454472e+00  -5.71277973e+00   3.59465300e-01
C     6.135289887975000e+00   1.829835378954983e+00   5.416488320000000e-01  3.66569280e-01   2.59696209e+00  -2.43778593e+00
C     7.353268979699999e+00   2.628598947561787e+00   3.465280000000000e-01  1.21867404e+00  -6.18813550e-01   7.12228310e-01
C     7.589337013425000e+00   3.177130229656383e+00   3.270002224000000e+00  2.15844854e+00   2.67927081e+00   1.07195310e-01
C     8.926709082675000e+00   3.963126974261856e+00   3.146810160000000e+00 -3.89275257e+00   5.45387770e-01   2.30069766e+00
C     2.448986509575000e+00   4.073417004401745e+00   1.352193341600000e+01 -1.47435650e-01  -2.98793561e+00  -7.79537730e-01
C     3.673163202900000e+00   4.735257411876592e+00   1.466624000000000e-02  6.16261830e-01   1.57696864e+00   1.14983276e+00
C     3.986169741000000e+00   5.416678389460338e+00   3.913278688000000e+00 -3.87943660e+00  -2.92304156e+00  -2.28239742e+00
C     5.211971559524999e+00   6.101513284781515e+00   3.694385328000000e+00 -1.28138748e+00  -1.09340295e+00  -9.00339850e-01
C     4.886047435425000e+00   4.048073050516895e+00   2.794483120000000e-01  1.01544561e+00  -2.28794865e+00   6.90929710e-01
C     6.122521828875000e+00   4.753833025842101e+00   5.623168880000000e-01 -6.97383660e-01   4.96453920e-01  -1.10390664e+00
C     6.386718889650000e+00   5.300820113281493e+00   3.574188256000000e+00  8.88789910e-01   3.40048157e+00  -7.99384870e-01
C     7.614464114175000e+00   5.996392771586217e+00   3.440642512000000e+00 -1.61515220e+00   5.93928838e+00  -1.20617610e-01
C     7.367660537100000e+00   4.131406854855681e+00   7.102570079999999e-01  2.54629888e+00  -5.02832816e+00  -5.01449792e+00
C     8.664901346400001e+00   4.734289344258475e+00   2.069774480000000e-01 -4.32775512e+00   2.23966365e+00   2.79202894e+00
C     8.838955058025000e+00   5.462410490370234e+00   3.570066504000000e+00  8.64496050e-01  -7.47283039e+00  -1.58195956e+00
C     1.002028038855000e+01   6.035506968593903e+00   3.867779344000000e+00  4.59308254e+00   3.90648566e+00  -6.58678370e-01
C     7.375670172524999e+00   2.114219074974006e-01   6.632840360000000e+00 -8.48122970e-01   9.86418240e-01   2.15875310e-01
C     1.165270156950000e+00   9.735485100793453e-01   6.468353120000000e+00  1.74498271e+00  -2.63704076e+00   1.17482289e+00
C     1.111174031100000e+00   3.742809680682072e-01   1.022212896800000e+01 -2.26290858e+00  -8.72559290e-01   1.03845157e+00
C     2.244155695350000e+00   1.066564719748929e+00   9.765139727999999e+00  1.58248924e+00  -1.71884152e+00   1.49738918e+00
C     2.432806212600000e+00   2.178659357987112e-01   6.696961775999999e+00 -8.54828330e-01   4.72219891e+00  -8.95006050e-01
C     3.648248597475000e+00   9.424283639028259e-01   6.702877912000000e+00  9.13502300e-01   6.22105540e-01  -5.96466590e-01
C     3.481637361750000e+00   2.822653596466704e-01   9.810726519999999e+00  2.97631502e+00   1.90274372e+00   9.48875770e-01
C     4.920447718275000e+00   1.082642801234194e+00   9.992258776000000e+00 -6.38555994e+00  -1.29584223e+00   4.33539500e-02
C     4.913890978500000e+00   2.360313570482868e-01   6.770779719999999e+00 -1.13114487e+00   4.83865090e-01  -7.29256000e-02
C     6.154985102400000e+00   8.988975345045696e-01   6.707003880000000e+00 -3.44087050e-01   3.40759394e+00  -9.08660270e-01
C     6.009675496950000e+00   3.539783178855924e-01   1.038195372000000e+01  2.53861680e-01  -1.46729764e+00  -2.96465430e-01
C     7.236422840175000e+00   1.049612841321244e+00   1.055369928000000e+01  2.73618417e+00   4.99655250e-01  -2.76526914e+00
C     8.609674044374998e+00   2.344240868574205e+00   6.318902448000000e+00 -2.02759933e+00   1.70313119e+00   4.83173830e-01
C     2.433438004425000e+00   3.023693177291787e+00   6.294884983999999e+00  5.05926250e-01   3.24965826e+00   2.39732907e+00
C     2.259194056425000e+00   2.463672720638930e+00   9.715374472000001e+00  1.18384642e+00   3.18020491e+00   1.29516300e+00
C     3.543151375125000e+00   3.231349317124929e+00   9.787992352000000e+00  2.09450100e-02  -1.94583219e+00   1.52467671e+00
C     3.660752839950000e+00   2.380411156328806e+00   6.527767848000000e+00 -1.99163895e+00  -3.79763901e+00  -2.26744850e-01
C     4.865684637375000e+00   2.989063433765409e+00   6.576770008000000e+00  1.33100175e+00   6.59915495e+00   8.30754050e-01
C     4.758995937074999e+00   2.490344277178157e+00   1.008282498400000e+01  1.17175359e+00  -4.67726600e-01  -6.66997280e-01
C     5.965399857149999e+00   3.146025069443256e+00   1.038008589600000e+01  1.95129867e+00   2.88179078e+00  -1.30162917e+00
C     6.105403550100000e+00   2.452677954787461e+00   6.549138072000000e+00  2.49233834e+00  -5.59638064e+00   6.85673900e-01
C     7.352537133524999e+00   3.140708190525306e+00   6.436117447999999e+00 -6.63758500e-02  -3.44085251e+00   3.26352070e-01
C     7.281030441524999e+00   2.460286405252877e+00   1.033407940800000e+01 -2.29697800e+00   1.01916236e+00   5.78527420e-01
C     8.488076506424999e+00   3.237093680255034e+00   1.005621114400000e+01 -4.12837630e-01  -4.84514198e+00  -7.29327790e-01
C     9.848108334675000e+00   4.495049646150064e+00   6.601141208000000e+00 -3.02249122e+00  -9.07148900e-01  -1.30065290e+00
C     3.644641279500000e+00   5.197622542551239e+00   6.641421824000000e+00  2.05407796e+00  -3.31624750e-01   8.66153190e-01
C     3.618430737300000e+00   4.578867484297906e+00   1.015259869600000e+01 -4.08439782e+00   1.71061361e+00   4.81797870e-01
C     4.826451389250000e+00   5.324403664765786e+00   1.036835018400000e+01 -2.77905372e+00   2.20345230e+00  -1.40977648e+00
C     4.887108987674999e+00   4.494697027712292e+00   6.709799904000000e+00  3.35260890e-01  -7.62836700e-02  -7.30633860e-01
C     6.135836859149999e+00   5.295394169852186e+00   6.785322880000000e+00 -1.61655754e+00  -7.11878166e+00  -6.58314260e-01
C     5.988595236000000e+00   4.685255528208856e+00   1.026765496800000e+01  1.38218160e+00  -6.02574587e+00   5.69364980e-01
C     7.194970352550000e+00   5.297118964579042e+00   1.009085211200000e+01  2.21023877e+00   2.17567564e+00  -9.36192020e-01
C     7.330083990824999e+00   4.468082981408647e+00   6.642769855999999e+00  1.49953092e+00   5.32786161e+00   4.37927170e-01
C     8.574756296400000e+00   5.248845333937406e+00   6.678646928000000e+00  1.13370718e+00  -3.15737008e+00  -5.99972500e-02
C     8.484128981474999e+00   4.594281188072777e+00   1.002824532800000e+01 -1.78110604e+00   2.55939836e+00   1.28793667e+00
C     9.638063010149999e+00   5.303232853387669e+00   1.025598535200000e+01  4.53004935e+00   5.44411320e-01  -8.85840030e-01
