72
Lattice="7.395 0 0 3.6975 6.40425786098592 0 0 0 13.6 " PBC="1 1 1" Properties=species:S:1:pos:R:3:force:R:3 Energy="-580.55512603"
C     1.103551150477500e+01   6.384281891010825e+00   1.341386047200000e+01  1.47539269e+00  -7.55126840e-01   1.86101300e-02
C     1.235483537400000e+00   6.403807000246656e-01   1.336986093600000e+01 -1.32414696e+00   1.18416215e+00   1.95613280e-01
C     1.241451672150000e+00   7.503282304542025e-01   3.425772136000000e+00  6.23073000e-03   6.77985250e-01   3.20998520e-01
C     2.481278219100000e+00   1.432138458830680e+00   3.402180352000000e+00  1.32447654e+00   8.33106600e-02   6.16728170e-01
C     6.203549657325000e+00   6.354854838484753e+00   1.340398836800000e+01 -3.39209859e+00   1.74347610e-01   3.96370710e-01
C     3.684966362400000e+00   6.354722206304473e-01   1.341254780000000e+01 -2.69917500e-02   2.26416115e+00  -4.58542010e-01
C     3.769492025850000e+00   7.963273248742813e-01   3.530562992000000e+00 -1.51426961e+00  -2.12780906e+00  -4.36292500e-01
C     5.013105959025000e+00   1.501897670124251e+00   3.584676440000000e+00 -2.45726175e+00  -5.77426900e-02  -4.67271480e-01
C     8.572867983149999e+00   6.377186677770309e+00   1.337268375200000e+01  3.16182912e+00  -2.23139250e-01   6.41101770e-01
C     6.107436731400000e+00   7.005142477120788e-01   1.344216180000000e+01  1.15624050e+00  -3.98513320e-01  -6.75505500e-02
C     6.178924159425000e+00   7.708011698533147e-01   3.579059368000000e+00  1.54790387e+00  -5.73819330e-01  -5.03952160e-01
C     7.404677725575000e+00   1.486636964069658e+00   3.463784952000000e+00  3.73215020e-01  -1.46400860e-01   2.47626010e-01
C     8.589089248424999e+00   2.086076396361758e+00   1.334168527200000e+01  1.72672351e+00  -1.43903790e-01   5.64454200e-01
C     2.476144462200000e+00   2.781148754042459e+00   1.324137779200000e+01 -1.24127957e+00   5.17503980e-01   6.69118750e-01
C     2.487875890200000e+00   2.831728557939481e+00   3.464161672000000e+00  5.65577500e-02   1.57399118e+00  -4.84226400e-02
C     3.658264274550000e+00   3.587172637657409e+00   3.561989872000000e+00  3.39675908e+00   4.22725540e-01  -1.51214350e-01
C     3.687226902975000e+00   2.061276292054380e+00   1.333206422400000e+01  6.28484810e-01   1.18963972e+00   7.10271700e-01
C     4.910246056949999e+00   2.815962299769419e+00   1.351499156800000e+01  2.02712530e-01   1.49072720e-01  -4.50840710e-01
C     4.964848629375000e+00   2.900815962583539e+00   3.540542944000000e+00 -1.08237820e-01   1.83469398e+00   1.19423050e-01
C     6.206696747475000e+00   3.659618819378723e+00   3.506732120000000e+00 -1.09007204e+00  -1.80093119e+00   2.31788900e-01
C     6.164998597949999e+00   2.101265310685741e+00   1.357256064000000e+01 -7.95690630e-01   1.08826200e+00  -1.37387670e-01
C     7.405564755824999e+00   2.822417471479406e+00   1.359078151200000e+01 -4.86029910e-01   6.03761800e-01  -8.11112720e-01
C     7.430081214450000e+00   2.914515246529287e+00   3.463420200000000e+00  6.22459680e-01   5.17766200e-01  -3.76158500e-02
C     8.725147376099999e+00   3.608017728480766e+00   3.463193216000000e+00 -3.51001735e+00  -6.89626460e-01   5.99600000e-04
C     2.487540748800000e+00   4.222566854427122e+00   1.326289408000000e+01 -1.05884147e+00  -5.29795380e-01   7.61639530e-01
C     3.676151078700000e+00   4.935437861509756e+00   1.338803298400000e+01  6.71689510e-01   1.23507909e+00  -1.14604410e-01
C     3.682607320425000e+00   5.037674089092645e+00   3.616666496000000e+00  6.29445320e-01  -7.37316020e-01  -7.07650600e-01
C     4.945877755200000e+00   5.768848913437211e+00   3.558472096000000e+00 -1.40582212e+00  -1.46271725e+00  -1.19407820e-01
C     4.914068088750000e+00   4.264716349447554e+00   1.350214500800000e+01  5.52619880e-01  -1.26037968e+00   1.55158460e-01
C     6.174759406350001e+00   4.973106553475861e+00   1.356328462400000e+01 -5.45320680e-01  -9.84932110e-01  -2.84493280e-01
C     6.165406321274999e+00   5.063804998183332e+00   3.546778544000000e+00  1.09365922e+00   4.91003100e-02  -3.67316340e-01
C     7.420996641825000e+00   5.729665934700108e+00   3.513977384000000e+00  3.31293560e-01   1.78488921e+00   1.50003710e-01
C     7.408765200900000e+00   4.302549374670347e+00   1.359093736800000e+01  9.22672420e-01  -2.59164636e+00  -7.63547300e-01
C     8.665063740599999e+00   4.980985199580390e+00   1.337177309600000e+01 -1.62014683e+00  -1.60056460e+00   4.62327210e-01
C     8.662550660775000e+00   5.026078283641015e+00   3.512553056000000e+00 -7.99201550e-01  -7.32992540e-01  -6.51320500e-02
C     9.849177060075000e+00   5.735644053242103e+00   3.552240576000000e+00  1.55329704e+00   1.40703058e+00   3.75597140e-01
C     3.379067602500000e-02   4.664803786903261e-02   7.092202120000000e+00 -1.94129297e+00  -5.40231110e-01  -8.52010610e-01
C     1.229634573075000e+00   7.179253114283251e-01   6.885432343999999e+00  1.36948996e+00   1.13640703e+00  -4.82553380e-01
C     1.185889598475000e+00   6.555898518034866e-01   1.017636564800000e+01  9.97181010e-01   2.86234680e-01   3.43362170e-01
C     2.423591303100000e+00   1.388682879462279e+00   1.021844459200000e+01  3.91731100e-01  -8.59854890e-01  -2.93935000e-03
C     2.454648602250000e+00   1.498122424158360e-02   6.727434344000000e+00  8.21370570e-01   9.43099330e-01   3.61177970e-01
C     3.663985896975000e+00   7.852961828381670e-01   6.655810352000000e+00  7.83809370e-01  -7.22115730e-01   3.55664530e-01
C     3.665008181775000e+00   7.014164155168170e-01   1.039797588000000e+01  4.64433480e-01  -1.55023571e+00  -1.20643331e+00
C     4.911854876175000e+00   1.405492967620942e+00   1.026258203200000e+01 -1.04864795e+00  -1.44541118e+00   3.96075170e-01
C     4.887677367374999e+00   5.502339821318341e-02   6.807888952000001e+00  3.55338210e-01  -7.31673070e-01   5.72533890e-01
C     6.131439348450000e+00   7.312635233159257e-01   6.996439759999999e+00  9.28857790e-01   1.15262600e-01  -5.76930260e-01
C     6.129565640325000e+00   6.260208809232378e-01   1.030389747200000e+01 -1.61070430e-01   1.17543655e+00  -5.58351120e-01
C     7.360294414575000e+00   1.334734243803160e+00   1.016753258400000e+01 -4.95671310e-01   1.39658765e+00   3.81695600e-01
C     1.278696515700000e+00   2.151660159615767e+00   6.783680136000000e+00 -8.11734260e-01  -3.98705700e-02   5.00444700e-01
C     2.473069953975000e+00   2.926625249844496e+00   6.676031648000000e+00  5.81320760e-01  -2.11124810e-01   8.46065470e-01
C     2.436655790775000e+00   2.780220200695338e+00   1.010611226400000e+01 -5.23189710e-01   1.51958676e+00   1.90582460e-01
C     3.676785532725000e+00   3.502183332661814e+00   1.005509404000000e+01 -1.47819476e+00   9.90596450e-01   7.99482140e-01
C     3.716179770000000e+00   2.214453651762752e+00   6.617943056000000e+00 -1.62922631e+00  -1.34803484e+00   4.93458290e-01
C     4.936834964325000e+00   2.844662661156116e+00   6.711670992000000e+00  1.53595072e+00   2.61823827e+00   5.99692650e-01
C     4.861645118625000e+00   2.814016237933501e+00   1.011852226400000e+01  2.82295570e+00  -4.82807350e-01   3.38107310e-01
C     6.119110959075000e+00   3.536100026118060e+00   1.019765617600000e+01  3.07553730e-01  -1.11935064e+00  -2.94179100e-02
C     6.160110835725000e+00   2.146894943469877e+00   6.884996872000000e+00  3.96444200e-01  -6.62380550e-01  -9.94099900e-02
C     7.430776122600000e+00   2.820165798458409e+00   6.902748136000000e+00 -5.59384720e-01   6.54504000e-01  -6.06921310e-01
C     7.364887190250000e+00   2.801919299304326e+00   1.019113157600000e+01 -1.53411588e+00  -1.17983090e+00  -1.20664790e-01
C     8.569905768000000e+00   3.501043823060784e+00   1.018272487200000e+01  1.24526890e+00  -7.92073900e-01   2.66668500e-02
C     9.885904808250000e+00   4.343566981156603e+00   6.901159792000001e+00 -2.27110880e-01  -5.22107740e-01  -4.36583640e-01
C     3.756873826425000e+00   5.033462521038752e+00   7.013569095999999e+00 -4.98248860e-01  -7.61955710e-01  -1.07096734e+00
C     3.721196833800000e+00   4.944630789412314e+00   1.016479558400000e+01 -2.53877160e+00  -7.77828410e-01   5.64005800e-02
C     4.928701906350000e+00   5.650666788251285e+00   1.019660353600000e+01 -5.24246310e-01   2.09215810e-01   1.98865410e-01
C     4.988122580100000e+00   4.311013754198752e+00   6.795063200000000e+00 -1.08310901e+00  -5.50445940e-01   5.23779990e-01
C     6.221270073974999e+00   5.017896331884236e+00   6.771207984000000e+00 -6.04273420e-01  -1.76358183e+00   2.91895760e-01
C     6.146983934250000e+00   4.944117936442885e+00   1.029053356800000e+01 -3.55454620e-01  -6.73462290e-01  -3.44058440e-01
C     7.364887596975001e+00   5.610790100302788e+00   1.041836581600000e+01  1.21712170e-01   2.54960198e+00  -4.71748550e-01
C     7.437858055275000e+00   4.229176112581221e+00   6.828348248000000e+00 -7.86125490e-01   1.97522012e+00  -1.44640450e-01
C     8.609177433150000e+00   5.008829375733784e+00   6.870404479999999e+00  1.32351654e+00   3.99788130e-01  -5.12746100e-02
C     8.559899075850000e+00   4.889346930031964e+00   1.033987545600000e+01  1.94192475e+00   1.32199399e+00  -3.03659300e-01
C     9.826691268450000e+00   5.620592777596197e+00   1.031535996000000e+01  3.66962200e-01  -5.48091990e-01  -5.62969230e-01
