72
Lattice="7.395 0 0 3.6975 6.40425786098592 0 0 0 13.6 " PBC="1 1 1" Properties=species:S:1:pos:R:3:force:R:3 Energy="-580.17661429"
C     7.401976627874999e+00   2.661282949465140e-02   1.357329844000000e+01  7.13712860e-01  -1.93281994e+00   3.91414700e-02
C     1.278712673775000e+00   6.868294373890951e-01   1.359644550400000e+01 -1.64079730e+00   1.06136317e+00  -3.37649290e-01
C     1.196522610150000e+00   7.613489335500049e-01   3.421555592000000e+00  3.83091358e+00  -2.59789132e+00  -3.69348120e-01
C     2.463013308600000e+00   1.450279928155859e+00   3.415336720000000e+00  3.63878030e-01  -1.38664265e+00  -2.17144090e-01
C     6.181874727449999e+00   6.383308507858683e+00   1.358444853600000e+01  3.42290010e-01   1.73273555e+00   1.08426220e-01
C     3.734005232625000e+00   7.454190465916194e-01   1.357685470400000e+01 -2.41449946e+00  -2.80361403e+00  -2.81044890e-01
C     3.713658148950000e+00   7.277327278725504e-01   3.400412624000000e+00 -3.01166654e+00  -1.47658705e+00   5.09469500e-02
C     4.888991902574999e+00   1.394972437064006e+00   3.415514336000000e+00  2.90820167e+00   1.42189749e+00  -1.31388650e-01
C     8.596430486774999e+00   6.393579464486815e+00   1.358979836800000e+01  1.50850590e+00   3.40738000e-02  -7.80338400e-02
C     6.137224198124999e+00   6.236933174465994e-01   1.580184000000000e-03  7.67697390e-01   4.14025061e+00  -1.87036270e-01
C     6.158198747549999e+00   6.914191768696213e-01   3.416780360000000e+00  6.73739230e-01   1.06364930e-01  -1.85739020e-01
C     7.435333845975000e+00   1.445280700427764e+00   3.392023464000000e+00 -4.05793726e+00  -2.07959790e+00   1.97843490e-01
C     1.258057440450000e+00   2.105367365930229e+00   1.356991367200000e+01 -8.14646010e-01   1.82232380e+00   4.19109030e-01
C     2.491815798300000e+00   2.833160678082135e+00   1.359353170400000e+01 -1.92396049e+00   1.34778095e+00  -7.29729310e-01
C     2.499651947025000e+00   2.827283170431120e+00   3.387030224000000e+00 -2.78537658e+00   3.50757785e+00   1.95253060e-01
C     3.673024620600000e+00   3.621017859595937e+00   3.437278416000000e+00  2.06539013e+00  -3.89966979e+00  -4.98415360e-01
C     3.705024042750000e+00   2.111475106651310e+00   1.351282481600000e+01 -1.22249500e-02   1.78481186e+00   1.23846265e+00
C     4.928776447950000e+00   2.790843263420613e+00   3.787219200000000e-02 -4.31933190e-01   3.05482030e+00  -8.31734540e-01
C     4.881493520475000e+00   2.819809017253028e+00   3.407038816000000e+00  2.08535547e+00   1.72237308e+00   5.06703000e-01
C     6.207396573299999e+00   3.501207003551057e+00   3.434188088000000e+00 -3.88129625e+00   1.83941753e+00  -3.55900270e-01
C     6.119949182325000e+00   2.113955667848225e+00   6.500392000000000e-03  2.55970174e+00  -1.03103893e+00   2.20917170e-01
C     7.374703572074999e+00   2.876417149073668e+00   1.359485267200000e+01  8.22292720e-01  -1.26377189e+00   7.03454700e-02
C     7.400741219175000e+00   2.809474850599817e+00   3.392566784000000e+00  1.38730772e+00   2.87132370e+00  -7.50940800e-02
C     8.602720488899999e+00   3.594337080925391e+00   3.364029496000000e+00  1.35796865e+00  -1.59403376e+00   7.28857630e-01
C     9.796939630499999e+00   4.311767535348874e+00   1.357003104000000e+01  4.23233567e+00  -2.34239559e+00  -4.32988400e-02
C     3.714636470475000e+00   5.009388147232069e+00   1.354713380800000e+01 -1.32257401e+00  -9.53817630e-01   4.95521270e-01
C     3.719179699650000e+00   4.994530845380076e+00   3.412682543999999e+00 -5.24206800e-02   5.91383770e-01  -2.50802700e-02
C     4.945545830625000e+00   5.706721015809614e+00   3.390337880000000e+00 -1.66221480e-01   3.13352930e-01   3.89886340e-01
C     4.943260849574999e+00   4.274220075984059e+00   1.416712000000000e-02 -1.09441616e+00  -1.20439225e+00  -1.31048300e-01
C     6.150560784825000e+00   4.992440175401680e+00   1.230160800000000e-02  7.88240860e-01  -5.28842970e-01   4.17312100e-02
C     6.172835227349999e+00   4.970590192477510e+00   3.413881928000000e+00  5.70448640e-01  -3.62316400e-01  -1.89493080e-01
C     7.414781588024999e+00   5.710392704925909e+00   3.387772376000000e+00 -1.82985408e+00   3.45703130e-01   5.50037720e-01
C     7.402874491800000e+00   4.331830794372681e+00   1.061969600000000e-02 -1.78938954e+00  -3.78059233e+00  -1.88871250e-01
C     8.606644719600000e+00   4.987486674074705e+00   1.356885056000000e+01 -2.63966190e-01   8.76422130e-01   3.08472410e-01
C     8.613068793075000e+00   5.032518021089560e+00   3.456578448000000e+00  9.41903320e-01  -3.09433877e+00  -9.47345750e-01
C     9.875819285399999e+00   5.643577659055737e+00   3.415041056000000e+00 -3.66091050e-01   3.78015470e+00   2.85665220e-01
C     3.709263448350000e+00   6.393992859331678e+00   6.825420304000001e+00 -6.48319320e-01   1.30360815e+00   3.44638930e-01
C     1.252753006950000e+00   7.340566763389861e-01   6.821072656000000e+00 -1.51514711e+00  -4.88980520e-01  -1.22049990e-01
C     1.292686043925000e+00   7.012100703285679e-01   1.019797033600000e+01 -5.42354856e+00  -9.17407710e-01   1.28489860e-01
C     2.445124322925000e+00   1.376311838596695e+00   1.017851363200000e+01  1.77153748e+00   2.94131930e+00   3.49272130e-01
C     2.457496564650000e+00   2.756328540365400e-02   6.766787440000000e+00  9.68742070e-01  -6.47712130e-01   3.46215810e-01
C     3.714159529950000e+00   6.779362927969632e-01   6.755279392000000e+00  4.33994180e-01   1.26266661e+00   1.16495810e-01
C     3.645563435999999e+00   6.973274890009429e-01   1.025114021600000e+01  3.42134868e+00  -1.12980320e-01  -7.96299720e-01
C     4.943417142900000e+00   1.411720019665956e+00   1.018431852000000e+01 -1.80475886e+00   4.34305780e-01   8.74252430e-01
C     4.993892787675000e+00   3.890650692528600e-03   6.802901560000000e+00 -2.96516561e+00  -1.53699400e-01   1.80506460e-01
C     6.164515112849999e+00   7.303007071892532e-01   6.866230639999999e+00  2.38360976e+00   6.97022600e-01  -8.38655430e-01
C     6.181630100850000e+00   7.216101292732333e-01   1.023079325600000e+01 -7.20669300e-01  -3.94420560e-01  -5.23932420e-01
C     7.365299905199999e+00   1.492750404580235e+00   1.020316404000000e+01  2.83851492e+00  -4.30946656e+00  -1.26378110e-01
C     8.613896071725000e+00   2.154134956980607e+00   6.835639752000001e+00  6.61230340e-01  -1.76320261e+00  -5.42077000e-01
C     2.450620619700000e+00   2.794900616945237e+00   6.761324184000000e+00  1.31145923e+00   1.90012740e+00   6.12937380e-01
C     2.466761760150000e+00   2.818344555608181e+00   1.018453680000000e+01 -1.50167500e-02   1.49445254e+00  -1.43623700e-02
C     3.702388464750000e+00   3.597238465906285e+00   1.017433884000000e+01 -1.14446329e+00  -3.28848272e+00   1.93668330e-01
C     3.698481501374999e+00   2.109417738813785e+00   6.755512768000000e+00 -3.99116730e-01  -4.39270350e-01   8.04267600e-02
C     4.902377185350000e+00   2.856747047439886e+00   6.792573719999999e+00  2.07536512e+00  -6.22393520e-01  -1.70013440e-01
C     4.917952349475000e+00   2.866599037518817e+00   1.021164785600000e+01  1.29279173e+00  -1.34595353e+00  -5.26729420e-01
C     6.174427999424999e+00   3.537666891846087e+00   1.018728536000000e+01 -1.10987034e+00   1.04435164e+00   4.61428300e-02
C     6.204332750849999e+00   2.187349039307032e+00   6.784677560000000e+00 -3.50691509e+00  -3.03544796e+00   5.62754800e-01
C     7.397116153200000e+00   2.818507223757825e+00   6.797403352000000e+00  1.92232000e-01   4.15070930e+00   5.94272600e-02
C     7.408911363074999e+00   2.850104615230073e+00   1.016585665600000e+01 -7.49342600e-01   1.30237787e+00   4.60921720e-01
C     8.635249910700001e+00   3.552386374068933e+00   1.021581639200000e+01  6.57052950e-01   3.83735850e-01  -3.52424500e-01
C     2.491855694325000e+00   4.231368930472484e+00   6.824017055999999e+00 -2.85952824e+00   8.05461630e-01  -3.83516900e-01
C     3.656368714200000e+00   4.983096171056204e+00   6.813494191999999e+00  2.84998352e+00  -9.98833900e-01   1.23912470e-01
C     3.681232515975000e+00   4.966635114950909e+00   1.016618033600000e+01  1.35617303e+00   1.08361901e+00   3.74512170e-01
C     4.943932870199999e+00   5.656812314093741e+00   1.021824861600000e+01 -1.62067148e+00   2.03117229e+00  -4.02306320e-01
C     4.944313638750000e+00   4.243750986661587e+00   6.817837352000001e+00 -2.05708471e+00   2.18554701e+00  -1.35357290e-01
C     6.147476145450000e+00   5.011851416932760e+00   6.813463864000000e+00 -6.64321400e-01  -9.93135060e-01  -3.76318980e-01
C     6.128501130075000e+00   4.973474990430547e+00   1.020450581600000e+01  2.12374118e+00  -1.16454858e+00   1.44872570e-01
C     7.364033437499999e+00   5.699537551895788e+00   1.023295647200000e+01  3.16904430e-01  -5.49845160e-01   1.62984050e-01
C     7.343632296375000e+00   4.305362957275981e+00   6.780207376000000e+00  2.67748498e+00  -1.03214821e+00   3.32488240e-01
C     8.615571298050000e+00   5.007112266116361e+00   6.818204280000001e+00  1.04239526e+00  -2.14008569e+00  -1.79757340e-01
C     8.612099456475001e+00   4.993005927541032e+00   1.024387904000000e+01  9.18025380e-01  -5.35519400e-01  -4.07624330e-01
C     9.884720351100000e+00   5.664661116356643e+00   1.019572647200000e+01 -2.08008269e+00   1.89273997e+00   3.64924870e-01
