72
Lattice="7.395 0 0 3.6975 6.40425786098592 0 0 0 13.6 " PBC="1 1 1" Properties=species:S:1:pos:R:3:force:R:3 Energy="-582.54904267"
C     3.690219881325000e+00   6.242358029171465e+00   7.019531200000000e-02 -4.11952310e-01   1.64804300e-01   7.67638720e-01
C     1.250779651200000e+00   5.172250281846649e-01   8.817151999999999e-02 -9.57793140e-01   1.66651882e+00  -1.92345810e-01
C     1.328210551650000e+00   9.263638594442232e-01   3.364125920000000e+00 -4.17966170e-01  -6.43759150e-01  -3.37596400e-02
C     2.552642002724999e+00   1.615462581563430e+00   3.275758832000000e+00  1.62710170e-01   1.11683599e+00   4.82900830e-01
C     6.193128808199999e+00   6.248495293521281e+00   1.355499760000000e-01 -2.36274915e+00  -6.46675720e-01  -1.89198840e-01
C     3.684590030850000e+00   5.340531123079153e-01   7.356484800000000e-02  8.61817220e-01   8.83509100e-01   7.09008060e-01
C     3.783884951325000e+00   9.208256493746311e-01   3.318743264000000e+00  4.93362100e-01  -3.76260630e-01   9.56099200e-02
C     5.036903808525000e+00   1.609322307212420e+00   3.339721400000000e+00 -7.74678370e-01   2.47316470e-01   8.85200800e-01
C     8.596019657549999e+00   6.226312225145813e+00   1.582807440000000e-01  3.64252220e-01   1.01549983e+00  -1.64150000e-04
C     6.112648024875000e+00   5.228835102168679e-01   1.605333120000000e-01  2.03529587e+00   1.81848630e-01  -6.07584250e-01
C     6.267691151175000e+00   8.868704022860682e-01   3.441500264000000e+00 -8.85086770e-01   1.06260935e+00  -1.84765760e-01
C     7.471587167925000e+00   1.606298985161871e+00   3.396405792000000e+00  1.44939612e+00   9.60515910e-01  -1.38773480e-01
C     1.233085375875000e+00   1.960833320714869e+00   4.031366400000000e-02 -6.75751860e-01   3.76678660e-01   2.65797530e-01
C     2.460200879175000e+00   2.680444553024839e+00   5.309440000000000e-04 -1.64740720e-01   2.38330400e-01   5.84749310e-01
C     2.548556930775000e+00   3.052821150975797e+00   3.295358336000000e+00  8.42966930e-01  -4.52516380e-01  -1.26906800e-02
C     3.783509063475000e+00   3.756466568440787e+00   3.329114488000000e+00  7.68550300e-02   6.33638190e-01   9.55279520e-01
C     3.687885316800000e+00   1.949430603637717e+00   8.573902400000000e-02 -3.40703510e-01   9.88075790e-01  -9.54632780e-01
C     4.908442749224999e+00   2.670273823032216e+00   8.620183200000001e-02  6.46942750e-01   1.03189340e-01   6.11920080e-01
C     4.997942548499999e+00   3.035868247866855e+00   3.436984384000000e+00  1.21323155e+00  -2.07507980e-01  -1.23109040e+00
C     6.249123637275000e+00   3.734950823734331e+00   3.403158192000000e+00  6.70915240e-01   7.51458800e-01  -6.99858300e-02
C     6.134954487749999e+00   1.920921537433298e+00   1.439592640000000e-01  5.29495880e-01   2.56729364e+00  -2.91973920e-01
C     7.380209371425000e+00   2.700689692971871e+00   1.143648480000000e-01 -1.90743990e-01  -1.04175929e+00  -4.67383260e-01
C     7.517129090549999e+00   3.041673707616944e+00   3.338965648000000e+00 -1.75294763e+00  -2.57327430e-01   4.89105040e-01
C     8.738646837675001e+00   3.764708592136292e+00   3.330668424000000e+00 -8.80976320e-01   4.71586830e-01  -1.79971100e-02
C     2.444036037750000e+00   4.120847130240642e+00   4.281280000000000e-02 -1.63711710e-01  -3.25339070e-01   6.12928600e-01
C     3.668810838675000e+00   4.839080614557189e+00   7.840604000000000e-02  1.03319766e+00  -1.32504823e+00  -7.04301500e-02
C     3.800668014750000e+00   5.201815154001867e+00   3.439598168000000e+00 -1.95272430e-01  -1.14725970e+00  -3.57297910e-01
C     5.025917833499999e+00   5.914757632602218e+00   3.394859200000000e+00  5.94185140e-01  -9.56474720e-01   9.91326300e-02
C     4.925533703475000e+00   4.105255131926950e+00   1.316734320000000e-01 -9.24495850e-01   2.48540470e-01  -2.44546980e-01
C     6.145525307474999e+00   4.840086723466995e+00   2.048374880000000e-01 -4.25393900e-02  -7.34541670e-01  -9.54249850e-01
C     6.270287350799999e+00   5.172146148613844e+00   3.364985168000000e+00 -8.76273800e-01   1.16837560e-01   3.57893660e-01
C     7.488852052575000e+00   5.905144649426623e+00   3.380534864000000e+00  1.00785940e-01  -4.88968510e-01  -4.22361230e-01
C     7.365021261600001e+00   4.152826663779394e+00   1.046276560000000e-01  6.50540850e-01  -2.07455055e+00   1.03240999e+00
C     8.605397294025000e+00   4.848476813604224e+00   1.940609840000000e-01  1.48331690e-01  -2.11485157e+00  -1.49336795e+00
C     8.727479204474999e+00   5.203030361930802e+00   3.381658768000000e+00 -2.58466160e-01  -9.32182650e-01   4.34833240e-01
C     9.954923267624999e+00   5.888861183391787e+00   3.487102424000000e+00  3.31680770e-01  -1.32753560e-01  -7.64139580e-01
C     7.419085551975000e+00   1.441874467799766e-01   6.760867903999999e+00  6.79739910e-01  -1.09528098e+00  -1.82992200e-02
C     1.257873711675000e+00   8.564636263925742e-01   6.737679088000000e+00 -5.20359800e-02  -1.21449623e+00   3.15936600e-02
C     1.128720369450000e+00   5.415718391207125e-01   1.019884032800000e+01  2.92275170e-01   2.00858110e-01  -6.24798290e-01
C     2.351098598775000e+00   1.246390068327604e+00   1.006364816800000e+01  3.54699530e-01   2.60234650e-01   2.23781770e-01
C     2.493009979875000e+00   1.440420701265546e-01   6.787366008000000e+00 -4.31320600e-01  -5.44763510e-01  -1.69153500e-01
C     3.726030020925000e+00   8.223431494512233e-01   6.772764096000000e+00  1.33631890e-01   4.44298890e-01   2.17327910e-01
C     3.578756636250000e+00   5.262546475117933e-01   1.003296656800000e+01  5.26902150e-01   1.06257831e+00   1.22325725e+00
C     4.825241789100001e+00   1.272077226391171e+00   1.017171268000000e+01 -1.59487290e-01  -6.18276200e-01  -8.54949690e-01
C     4.960080259425000e+00   1.352741287755858e-01   6.852643968000000e+00  6.95862860e-01  -3.41460740e-01  -8.20404230e-01
C     6.216285548175001e+00   8.552237620708782e-01   6.772317063999999e+00 -1.69877646e+00  -1.65062910e-01   3.97664990e-01
C     6.060389075850000e+00   5.567045881032636e-01   1.021290286400000e+01  1.64810300e-01  -1.12839030e-01  -4.30824100e-02
C     7.314043311449999e+00   1.281622132305715e+00   1.021809942400000e+01 -1.25942137e+00  -6.62981510e-01   1.99243680e-01
C     8.649970027949999e+00   2.240064022774578e+00   6.689235207999999e+00 -2.31843570e-01   1.85218589e+00   4.93508230e-01
C     2.498742657825000e+00   2.936519700153039e+00   6.739301024000000e+00 -8.31927410e-01   1.31337463e+00  -7.35468840e-01
C     2.365765878750000e+00   2.675572129602372e+00   1.005998364800000e+01 -3.00386620e-01   1.71537200e-01   3.57620720e-01
C     3.580493093175000e+00   3.406962649351661e+00   1.011884268000000e+01  1.09418510e+00  -9.23588910e-01  -1.65873870e-01
C     3.713620619325000e+00   2.234437433946518e+00   6.719450328000000e+00  9.76813990e-01   7.05099670e-01   5.12626370e-01
C     4.956495681074999e+00   2.965737205361931e+00   6.769919111999999e+00 -8.96903170e-01   4.08530800e-01  -5.94166800e-02
C     4.839328672500000e+00   2.704422030410100e+00   1.013663651200000e+01 -1.18003500e+00  -1.00845234e+00   3.87267050e-01
C     6.055221893550000e+00   3.394569962094512e+00   1.019419688000000e+01  4.00771620e-01   1.89951210e-01   2.46239000e-01
C     6.178342468725000e+00   2.283501478093235e+00   6.772569615999999e+00  9.40063380e-01  -6.92785130e-01  -3.24052150e-01
C     7.413819128775000e+00   2.992778159494523e+00   6.720019895999999e+00  1.86788900e-02  -1.06255566e+00   2.04722020e-01
C     7.292923598174999e+00   2.704820951632199e+00   1.022595655200000e+01  5.74157830e-01  -6.70160030e-01  -7.13617910e-01
C     8.539160168099999e+00   3.400380545250889e+00   1.011735293600000e+01 -6.10596480e-01  -2.05634220e-01   6.13315340e-01
C     9.874469771849999e+00   4.388474533867024e+00   6.715394128000000e+00  6.31861270e-01  -2.75771530e-01   8.11677310e-01
C     3.734211701025000e+00   5.096958688358137e+00   6.766832320000000e+00 -1.42252753e+00   8.20297610e-01  -1.44443730e-01
C     3.612041013600000e+00   4.804497045729982e+00   1.018049270400000e+01 -1.18697981e+00   9.04243120e-01  -1.69885250e-01
C     4.844186706825000e+00   5.519714508849941e+00   1.018531254400000e+01 -1.14872118e+00   3.05426350e-01   2.99560450e-01
C     4.949539722224999e+00   4.397755392230001e+00   6.793282552000000e+00  2.66615590e-01  -2.52758000e-01  -1.66061840e-01
C     6.173248385999999e+00   5.130349912456969e+00   6.805404368000000e+00  3.03257000e-02  -7.78365190e-01  -2.05730400e-02
C     6.049941271949999e+00   4.810037241119510e+00   1.020420117600000e+01  3.49974800e-02   2.72033300e-02  -4.62161850e-01
C     7.250260401150000e+00   5.524758822553371e+00   1.014399574400000e+01  2.10707216e+00  -1.88167800e-01  -7.92354000e-03
C     7.386551804100000e+00   4.389964036160102e+00   6.775109688000000e+00  1.38916743e+00   1.44117172e+00   9.27236800e-02
C     8.649083478374999e+00   5.115839337125517e+00   6.805383559999999e+00 -3.18148500e-01  -5.47710170e-01  -3.17624740e-01
C     8.520869412074999e+00   4.816065376915392e+00   1.016825216000000e+01 -4.09820770e-01   2.68471150e-01  -3.07924340e-01
C     9.748153743224998e+00   5.514807438392452e+00   1.017799955200000e+01  7.37700100e-01   9.83988620e-01   1.38347950e-01
