72
Lattice="7.395 0 0 3.6975 6.40425786098592 0 0 0 13.6 " PBC="1 1 1" Properties=species:S:1:pos:R:3:force:R:3 Energy="-580.84525601"
C     3.676455050175000e+00   6.357879441386873e+00   1.345798077600000e+01  1.72006430e-01  -1.32372479e+00  -2.91470860e-01
C     1.163439376800000e+00   6.805706202250956e-01   1.346276403200000e+01  2.55646700e+00  -1.80425864e+00  -2.87218420e-01
C     1.274093387025000e+00   7.839565401790123e-01   3.608798760000000e+00  5.27995300e-02   5.35826300e-01  -4.06684460e-01
C     2.513293762350000e+00   1.495262538768399e+00   3.620597712000000e+00  3.13696870e-01  -1.69304930e-01  -4.57383070e-01
C     6.102671171550000e+00   6.337584540356270e+00   1.340928556800000e+01  1.83072837e+00  -6.90460000e-04   2.41046970e-01
C     3.680979643950000e+00   6.481827512051893e-01   1.350898499200000e+01 -1.76185900e-02  -4.78966880e-01  -1.14837717e+00
C     3.751115820600000e+00   7.946191812178620e-01   3.538952560000000e+00 -2.52998720e-01   8.99112900e-02   2.50378200e-02
C     4.967644013325000e+00   1.543762303755072e+00   3.511476208000000e+00  9.00173230e-01  -9.83993330e-01  -4.44011830e-01
C     8.649534795225000e+00   6.327767389440098e+00   1.344630939200000e+01 -1.07591758e+00   8.26637720e-01  -1.35511990e-01
C     6.204666228374999e+00   6.890524833774582e-01   1.337969591200000e+01 -3.21110242e+00  -1.05724925e+00   1.97800830e-01
C     6.209818066050000e+00   8.458511947353468e-01   3.498915520000000e+00  4.41439020e-01  -1.89633275e+00  -5.70662200e-02
C     7.465836631049999e+00   1.544090137714925e+00   3.586704880000000e+00 -1.90709468e+00  -1.56749772e+00  -2.11472740e-01
C     1.207654451550000e+00   2.072131060829029e+00   1.345543635200000e+01  5.49611890e-01   2.93491990e-01   2.81841280e-01
C     2.462549050500000e+00   2.772175364099342e+00   3.968072000000000e-03 -1.29610850e+00   1.99032960e-01  -1.07949574e+00
C     2.540277784575000e+00   2.921757885785739e+00   3.585654416000000e+00 -1.95585200e+00   2.36955230e-01   1.21574510e-01
C     3.754712378850000e+00   3.641971310462285e+00   3.520238144000000e+00 -6.75138600e-02  -8.36662800e-01  -6.10691780e-01
C     3.674073231600000e+00   2.104629851595071e+00   1.346462342400000e+01  1.01736824e+00  -2.07475572e+00   9.18016430e-01
C     4.904563738949999e+00   2.801955803574128e+00   1.334870518400000e+01  3.86945970e-01  -5.11375300e-01  -3.93853410e-01
C     5.007148288200000e+00   2.944766014701311e+00   3.436407064000000e+00 -1.06591713e+00   9.78112160e-01   1.17602759e+00
C     6.223087358249999e+00   3.684247994043818e+00   3.527092000000000e+00 -1.56904210e+00  -4.87305600e-01  -2.23472730e-01
C     6.155637415349999e+00   2.108759317063199e+00   1.323537992000000e+01 -5.19957560e-01  -1.53240832e+00   1.00834896e+00
C     7.392908915849999e+00   2.754433904720098e+00   1.326618895200000e+01 -4.99109600e-02   1.96157811e+00   7.47992450e-01
C     7.389114467400000e+00   2.939308434238177e+00   3.624439440000000e+00  3.20894538e+00   1.11531830e+00  -4.62761960e-01
C     8.655575142149999e+00   3.644995016768305e+00   3.598515664000000e+00  1.06609740e+00  -3.98302280e-01   1.52317250e-01
C     2.449706449800000e+00   4.178918891152605e+00   1.358110701600000e+01  5.39737130e-01   6.18772970e-01  -7.41479370e-01
C     3.689222517675000e+00   4.890842900625482e+00   1.348481724800000e+01 -5.37563200e-01   1.46006966e+00  -4.63280000e-02
C     3.709434420750000e+00   5.035438554801455e+00   3.470005592000000e+00  1.04137874e+00   1.43604306e+00   1.32207400e-01
C     4.948179855675000e+00   5.763349385085093e+00   3.516791496000000e+00 -1.29685130e-01   1.00493242e+00   5.01360600e-02
C     4.912925006625001e+00   4.206575614678437e+00   1.331060804800000e+01 -3.60707500e-02  -6.31503700e-02   5.27062520e-01
C     6.160481362200000e+00   4.888778488104311e+00   1.323448490400000e+01 -6.12082130e-01   1.84164963e+00   1.18830610e+00
C     6.194200639500000e+00   5.114982895721900e+00   3.533717240000000e+00  5.63043110e-01  -1.61046289e+00  -2.27854220e-01
C     7.445363351700000e+00   5.768525882670752e+00   3.508969592000000e+00 -1.17763040e-01   1.47325655e+00   6.17156020e-01
C     7.389111879149999e+00   4.185085422960842e+00   1.330763155200000e+01  1.06592490e-01   2.61924230e-01  -2.34868560e-01
C     8.617982918474999e+00   4.882821567655832e+00   1.342685486400000e+01  2.33120160e-01   1.33365590e+00   6.19005700e-01
C     8.681138991599997e+00   5.069417625729256e+00   3.556260872000000e+00 -7.13233450e-01  -7.76570850e-01  -7.44931790e-01
C     9.897860378699999e+00   5.765828921600749e+00   3.447537576000000e+00  1.34975390e-01   1.76887820e+00   7.48131480e-01
C     3.028385610000000e-02   4.765446699173161e-02   6.604494832000000e+00 -8.89782800e-01   1.12050388e+00   1.11141527e+00
C     1.260142756500000e+00   7.502174367932245e-01   6.796989640000000e+00  1.09354090e-01   8.13548470e-01   4.11625460e-01
C     1.187173148625000e+00   6.401263869450450e-01   1.019474373600000e+01 -1.23450562e+00  -6.80276380e-01   3.93565100e-01
C     2.428968059700000e+00   1.362098420829947e+00   1.020284716000000e+01 -8.28665000e-01  -1.46616976e+00   5.13447600e-02
C     2.484268978949999e+00   1.914911525687160e-02   6.975424088000000e+00  3.47319810e-01   2.08798274e+00  -2.54871160e-01
C     3.723557983350000e+00   7.854986214291216e-01   7.092908095999999e+00 -7.89481620e-01  -6.61040500e-02  -1.17676756e+00
C     3.645358039875000e+00   6.484908600508338e-01   1.008378351200000e+01  3.69132550e-01  -1.38549911e+00  -5.37570820e-01
C     4.866721897049999e+00   1.333026036104163e+00   1.007801928800000e+01  2.99928440e-01   4.29663080e-01   1.37592619e+00
C     4.920992397000000e+00   6.805446189381840e-02   6.819024904000000e+00 -2.79886040e-01  -4.61776320e-01   7.62915700e-01
C     6.128956846950000e+00   7.417772653595304e-01   6.701265632000000e+00  2.68095359e+00   1.48365487e+00   3.72724100e-02
C     6.101266491299999e+00   6.049619519299356e-01   1.013610665600000e+01 -3.47131030e-01   1.25624566e+00  -2.62625710e-01
C     7.304802926175000e+00   1.316311243302456e+00   1.024730025600000e+01  2.09451174e+00   4.52857660e-01  -5.12417710e-01
C     8.656849522500000e+00   2.221337332366152e+00   6.883251720000000e+00  5.51120900e-01  -2.20253282e+00  -3.64640670e-01
C     2.477947289250000e+00   2.945529146067908e+00   6.954800368000000e+00  1.14990642e+00  -8.41104710e-01   6.23949280e-01
C     2.417008976625000e+00   2.744608428268708e+00   1.031142208000000e+01 -6.61425730e-01   1.76791207e+00  -4.39149820e-01
C     3.657292053900000e+00   3.458231999692470e+00   1.033063983200000e+01 -1.32692968e+00   7.22909310e-01  -3.38001040e-01
C     3.739646175600000e+00   2.238817498024708e+00   7.127883760000000e+00 -1.71995266e+00  -1.67355486e+00  -1.31176368e+00
C     4.952227730775000e+00   2.902943072789160e+00   6.983333848000000e+00  1.11399542e+00   8.26210910e-01  -6.27683160e-01
C     4.859709736200000e+00   2.742301934800428e+00   1.029970214400000e+01  1.67882057e+00   7.86850950e-01  -9.09409030e-01
C     6.128285048174999e+00   3.485931759831121e+00   1.024808783200000e+01 -1.25827032e+00  -4.19052730e-01  -5.64216560e-01
C     6.184984583775000e+00   2.176098231226320e+00   6.807361136000000e+00 -6.07882970e-01  -3.69117810e-01   5.52003320e-01
C     7.431018567674999e+00   2.876229376233213e+00   6.830869416000001e+00 -7.19648250e-01   1.05188819e+00   9.64693400e-02
C     7.338628987274999e+00   2.744147321702787e+00   1.022895494400000e+01 -1.08165586e+00   2.15128660e-01   1.23049050e-01
C     8.528655607574999e+00   3.466339085674865e+00   1.023833119200000e+01  2.69729598e+00  -1.18331290e-01  -6.03532620e-01
C     9.900673362749998e+00   4.346084110665898e+00   6.832401999999999e+00 -8.13431250e-01   3.72280550e-01  -4.69002160e-01
C     3.726820990125000e+00   5.056703700897850e+00   6.705979119999999e+00  7.97486780e-01  -1.07383417e+00   7.33484140e-01
C     3.627068614950000e+00   4.907205203074575e+00   1.026766829600000e+01  6.27680160e-01  -8.51524190e-01  -1.30311230e-01
C     4.846966302449999e+00   5.602393798035434e+00   1.022761085600000e+01  2.03036087e+00   9.55810400e-01  -6.69991360e-01
C     4.959501785550000e+00   4.336873378926488e+00   6.856990799999999e+00 -5.87252700e-02  -3.14817590e-01   1.09250870e-01
C     6.204459501150000e+00   5.022459045396594e+00   6.920957175999999e+00 -1.93559690e-01  -4.06547140e-01  -4.47682990e-01
C     6.127253038949999e+00   4.908773990079960e+00   1.011442608000000e+01 -5.80249070e-01  -6.36388470e-01   5.45298340e-01
C     7.381112966474999e+00   5.594543266622911e+00   9.961271719999999e+00 -2.13973352e+00   1.36693731e+00   1.11796070e+00
C     7.444240014225000e+00   4.308233729904305e+00   6.894542032000000e+00 -4.94016640e-01   6.18161700e-02  -1.35346710e-01
C     8.654612645924999e+00   5.044609259929239e+00   6.814112039999999e+00 -2.79960280e-01  -4.02963090e-01   1.92534980e-01
C     8.573711974500000e+00   4.882172368036564e+00   1.003320062400000e+01  7.96517540e-01  -5.05542200e-02   7.98704760e-01
C     9.818873163524998e+00   5.628814371709129e+00   1.011739183200000e+01 -1.02930529e+00  -2.21402116e+00   1.61726670e-01
