72
Lattice="7.395 0 0 3.6975 6.40425786098592 0 0 0 13.6 " PBC="1 1 1" Properties=species:S:1:pos:R:3:force:R:3 Energy="-575.4916503"
C     3.765422002724999e+00   6.394188509409301e+00   1.346595146400000e+01 -1.30675040e+00   5.45620390e-01   4.65071610e-01
C     1.316077833975000e+00   6.986532344205414e-01   1.354309896000000e+01 -1.61156062e+00   1.26993240e+00  -8.03865720e-01
C     1.309861153275000e+00   7.566033144331663e-01   3.470146352000000e+00 -3.88030701e+00  -1.05940420e-01  -1.12543227e+00
C     2.469577517325000e+00   1.495963356706018e+00   3.454444336000000e+00 -9.71885090e-01   2.32025536e+00  -8.67764970e-01
C     2.553987818775000e+00   1.337433190193100e-02   1.352800132800000e+01 -4.45713190e+00  -2.13232791e+00   4.42924060e-01
C     3.697600276200000e+00   6.948485288684940e-01   1.344822277600000e+01  2.31847323e+00   2.93767280e+00  -4.90238040e-01
C     3.598033996200000e+00   7.188206907197316e-01   3.409831984000000e+00  4.72931638e+00   1.57268933e+00   3.54363740e-01
C     4.922486482799999e+00   1.388284662708544e+00   3.467893784000000e+00 -1.88589367e+00  -4.92689000e-03  -3.80273440e-01
C     8.593161194249999e+00   6.373580696339658e+00   1.353642408000000e+01  6.10257860e-01   8.80203080e-01  -3.42561180e-01
C     6.147073635599999e+00   6.151367806475893e-01   1.358777264800000e+01  2.05394542e+00   7.64359800e-01  -7.01254470e-01
C     6.172317170625000e+00   6.629944547412187e-01   3.468464304000000e+00 -1.82641536e+00   3.39126634e+00  -2.45396340e-01
C     7.344005928750000e+00   1.383170734722176e+00   3.379566816000000e+00  5.16383717e+00   2.54010769e+00   4.67510740e-01
C     1.280005467675000e+00   2.135395329971304e+00   1.348797353600000e+01 -2.44744984e+00   5.74383590e-01   7.80918580e-01
C     2.465077142175000e+00   2.882494277442180e+00   1.348243983200000e+01  1.21013270e+00  -2.46814220e-01  -1.66626744e+00
C     2.440127410500000e+00   2.987964527159212e+00   3.356602128000000e+00  2.88701132e+00  -3.51614262e+00   1.01467699e+00
C     3.722055578175000e+00   3.594654027646882e+00   3.538694704000000e+00 -1.54154946e+00   2.06262183e+00  -1.48656144e+00
C     3.716041039799999e+00   2.151691540479281e+00   1.328166153600000e+01 -1.09541052e+00  -6.45941560e-01   3.64514681e+00
C     4.905139994324999e+00   2.800747512243681e+00   1.046407120000000e-01  9.97604730e-01  -4.89659990e-01  -2.31409005e+00
C     4.879793373000000e+00   2.819502829684741e+00   3.492008352000000e+00  1.59717019e+00  -1.60184404e+00   6.23310870e-01
C     6.122232536475000e+00   3.456900490440798e+00   3.535918536000000e+00  3.59943516e+00   3.43784308e+00  -1.40785760e+00
C     6.149874454875000e+00   1.993791681024944e+00   5.752786400000000e-02  2.91004070e-01   4.82608553e+00   3.24360630e-01
C     7.359300563550000e+00   2.856632283139034e+00   1.358291595200000e+01  7.34212250e-01  -3.38519066e+00   3.27647390e-01
C     7.459708838250000e+00   2.859976458508370e+00   3.356299392000000e+00 -4.88995662e+00  -2.57893175e+00   5.25375290e-01
C     8.623201533000000e+00   3.629905688654045e+00   3.293826296000000e+00 -3.21205450e-01   5.11108590e-01   1.73209896e+00
C     9.848927848574998e+00   4.308218103515125e+00   1.343558647200000e+01 -1.55683871e+00   1.75120940e-01   6.29710000e-03
C     3.695758181700000e+00   5.007754869350033e+00   1.338222619200000e+01  8.43327620e-01  -2.39909382e+00   1.65586263e+00
C     3.788578742700000e+00   5.068561248368218e+00   3.467187536000000e+00 -1.46151484e+00  -2.05955997e+00   2.88911890e-01
C     5.016396105450000e+00   5.762062705638439e+00   3.394629904000000e+00  2.31534980e-01  -2.43304378e+00   1.00064450e+00
C     4.908529455600000e+00   4.225620660745084e+00   5.579943999999999e-02  1.23582900e-01   1.68035872e+00  -7.22523620e-01
C     6.140810662200000e+00   4.989131671748625e+00   6.943044799999999e-02 -1.10643330e+00  -3.48633920e-01  -1.06019820e-01
C     6.223476187350000e+00   4.918791402139416e+00   3.453559112000000e+00 -2.63734099e+00   1.25635593e+00  -2.62472320e-01
C     7.365936392850000e+00   5.742243448839098e+00   3.397860448000000e+00  1.46949479e+00  -3.36730155e+00   1.48765254e+00
C     7.311160407674999e+00   4.267281062592748e+00   3.518809600000000e-02  2.28360324e+00  -4.76461800e-01  -8.14122860e-01
C     8.536523295975000e+00   5.016046013703325e+00   1.346883072000000e+01  2.10715171e+00  -3.53170549e+00   9.58726600e-01
C     8.631064303724999e+00   5.014256792142398e+00   3.587876112000000e+00  8.97933800e-02   1.54379479e+00  -2.61071801e+00
C     9.900432507600000e+00   5.716351674736904e+00   3.508970408000000e+00 -3.18088990e-01  -2.98036143e+00   4.42080320e-01
C     2.498774197500000e-02   2.987208440476260e-02   6.969939480000000e+00  8.97286220e-01  -1.84061940e+00   2.68437550e-01
C     1.227141940425000e+00   7.564840671518130e-01   6.896253184000000e+00  1.19557608e+00  -1.42265155e+00  -6.97935200e-01
C     1.162945205925000e+00   6.329563079301462e-01   1.020132776800000e+01  3.97913980e+00   2.95932346e+00   1.16266000e-03
C     2.472422854500000e+00   1.393564204803171e+00   1.012741843200000e+01 -1.36905646e+00  -1.51684670e+00   1.49783495e+00
C     2.486921454525000e+00   6.296954519555700e-02   6.667453448000000e+00 -1.15366305e+00  -1.88044556e+00   1.30837677e+00
C     3.804593502600000e+00   6.426789320003052e-01   6.581373608000000e+00 -1.49627572e+00   2.91574920e-01   9.18637250e-01
C     3.688058766525000e+00   6.603520579481826e-01   1.037995710400000e+01 -1.71538149e+00   1.22575101e+00  -2.14288884e+00
C     4.888996598399999e+00   1.398100724900880e+00   1.021449039200000e+01  2.16088238e+00  -1.15491100e-02   1.64511715e+00
C     5.041129681275000e+00   7.126081763400601e-03   6.834049504000000e+00  2.46636830e-01  -3.74704630e-01   6.06382720e-01
C     6.293480474175000e+00   8.197376411834610e-01   7.051264488000000e+00 -4.67807305e+00  -2.69538807e+00  -2.38824435e+00
C     6.182415191024999e+00   7.357848653225071e-01   1.030333960000000e+01 -9.92086250e-01  -1.79802130e-01  -1.14129542e+00
C     7.437836387925000e+00   1.437672185919770e+00   1.020178228000000e+01 -2.65881947e+00   8.82276810e-01  -5.79304520e-01
C     8.605939569375000e+00   2.135313867811324e+00   6.923233135999999e+00 -1.13700130e-01   2.67662339e+00  -2.09337442e+00
C     2.483081896575000e+00   2.744230961310439e+00   6.666123640000000e+00 -1.29660743e+00   1.04801505e+00   1.71576025e+00
C     2.474377131150000e+00   2.815357225486806e+00   1.011746962400000e+01 -5.71094770e-01  -7.34017470e-01   1.41756760e-01
C     3.666129855374999e+00   3.506774032781019e+00   1.008711918400000e+01  2.54274886e+00   1.94979239e+00   5.19488580e-01
C     3.706602209700000e+00   2.021300338109052e+00   6.579861832000000e+00  1.71394112e+00   3.73812684e+00   8.74829130e-01
C     4.923328625400000e+00   2.838289207776423e+00   6.741174560000000e+00 -2.03133878e+00   2.28838490e-01  -2.72648810e-01
C     4.934020427325001e+00   2.823070705781126e+00   1.020213506400000e+01 -2.04591574e+00  -7.51300000e-01  -1.23632192e+00
C     6.146992179674999e+00   3.535874468156230e+00   1.013826348000000e+01  9.80799600e-01  -1.13193843e+00   1.45518550e-01
C     6.142636820474999e+00   2.187404051882049e+00   6.782897456000000e+00  3.26658670e+00   1.61348156e+00   1.19382643e+00
C     7.400129800575000e+00   2.997288806390479e+00   6.795091896000000e+00 -1.03594487e+00  -4.50845098e+00   6.70094120e-01
C     7.422732396224999e+00   2.926612185158462e+00   1.007514751200000e+01  6.80243960e-01  -3.43441102e+00   1.67643647e+00
C     8.684517286424999e+00   3.574787635509691e+00   1.024349756000000e+01 -2.36637054e+00   4.05348690e-01  -9.99555310e-01
C     2.412992456325000e+00   4.159279786126866e+00   6.881862888000000e+00  2.65186689e+00   1.64220881e+00  -1.00239337e+00
C     3.675208548975000e+00   4.935349674879023e+00   6.887416992000000e+00 -3.51948962e+00   2.49617573e+00   5.41827200e-01
C     3.692474949600000e+00   4.976249122807763e+00   1.006682676000000e+01 -2.44772744e+00  -1.53272546e+00   1.41851407e+00
C     4.883308512299999e+00   5.651367157890855e+00   1.025001998400000e+01  1.19967270e+00  -1.14698344e+00  -9.96245210e-01
C     4.851576160575000e+00   4.298352472366953e+00   6.875670535999999e+00  2.98639314e+00  -2.21121239e+00  -8.69854930e-01
C     6.061004524725000e+00   5.059995745608203e+00   6.827622143999999e+00  2.54245148e+00  -4.15825100e-01  -1.13924847e+00
C     6.139166716725000e+00   4.894204111320724e+00   1.024143158400000e+01 -1.56633057e+00   3.60872057e+00   4.84716140e-01
C     7.304926459650000e+00   5.647747087092911e+00   1.038865620800000e+01  3.26451299e+00  -4.14339710e-01  -1.14957690e-01
C     7.350392990250000e+00   4.370078943589960e+00   6.735761760000000e+00 -5.23968800e-02   1.29637590e-01   9.49710540e-01
C     8.643791505450000e+00   4.961377923716214e+00   6.874550031999999e+00 -1.71849310e-01   1.47325605e+00  -4.97366260e-01
C     8.617476028200000e+00   4.994011331982473e+00   1.038255769600000e+01 -4.19786770e-01  -3.00624580e-01  -1.14436891e+00
C     9.831506115974999e+00   5.711556358579071e+00   1.021948689600000e+01  1.35652944e+00   7.89659600e-02   5.26902760e-01
