72
Lattice="7.395 0 0 3.6975 6.40425786098592 0 0 0 13.6 " PBC="1 1 1" Properties=species:S:1:pos:R:3:force:R:3 Energy="-582.95133341"
C     3.659650171500000e+00   6.224046398714945e+00   1.344357280000000e-01  1.30628039e+00   9.38185170e-01  -1.43839450e-01
C     1.236936691875000e+00   5.452456416421014e-01   1.207114240000000e-01 -1.60311986e+00  -3.76341390e-01   1.05587690e-01
C     1.310972695725000e+00   9.059693081613175e-01   3.377283104000000e+00  9.89969250e-01   2.52556340e-01   5.78705500e-02
C     2.556326228700000e+00   1.628776841526635e+00   3.365674960000000e+00  4.46512540e-01  -1.79569938e+00  -3.35288000e-03
C     6.147963623850000e+00   6.224288095406582e+00   1.241284240000000e-01  2.96225410e-01   9.50908920e-01  -2.57458540e-01
C     3.694369511625000e+00   5.414416405584187e-01   1.010969600000000e-01 -7.83112000e-01  -2.75308990e-01   3.77073280e-01
C     3.826862546775000e+00   9.251852838702473e-01   3.353710224000000e+00 -1.14481751e+00  -2.67633510e-01   1.84259160e-01
C     5.060830072200000e+00   1.641891993112972e+00   3.344845200000000e+00 -1.24645753e+00  -1.12753770e-01   2.87095090e-01
C     8.613910381050001e+00   6.255228986405600e+00   1.356231440000000e-01  3.70722900e-01  -1.67978695e+00  -2.00400100e-01
C     6.137312272575000e+00   5.476182910940742e-01   1.225721760000000e-01  5.85015500e-01   7.16833080e-01   1.33219400e-02
C     6.254135894325000e+00   9.068928021447296e-01   3.361708384000000e+00  7.39971230e-01   7.26431020e-01   2.29989860e-01
C     7.488776586600000e+00   1.611813755647696e+00   3.390246624000000e+00 -3.43636900e-02   1.71038120e+00  -2.64641160e-01
C     1.211171698425000e+00   1.970465580706623e+00   1.241767040000000e-01  1.48906550e-01  -3.39259260e-01  -3.46876960e-01
C     2.432557149000000e+00   2.674716264581962e+00   1.217080320000000e-01  1.29701018e+00  -7.17758840e-01   2.01759600e-01
C     2.558467413975000e+00   3.005704513559148e+00   3.352292968000000e+00  4.78130740e-01   2.04423325e+00   9.53401400e-02
C     3.782098578149999e+00   3.739301428226364e+00   3.326894016000000e+00  5.91790120e-01   7.42907240e-01   4.80576300e-01
C     3.679521128100000e+00   1.945811173265560e+00   1.365404640000000e-01  6.29067650e-01   1.17815432e+00  -5.72051430e-01
C     4.942960575600000e+00   2.679819945755753e+00   9.028006399999999e-02 -1.87227527e+00   5.75551600e-01   2.78386160e-01
C     5.042156920725001e+00   3.066768471828462e+00   3.376723736000000e+00 -7.62451960e-01  -4.87980580e-01  -4.50808540e-01
C     6.246692457075000e+00   3.792357950765585e+00   3.378663912000000e+00  1.07326605e+00  -6.46069850e-01  -4.31754700e-02
C     6.166417846350000e+00   1.997827580285737e+00   9.474834400000000e-02 -8.93437340e-01  -1.62691061e+00  -1.48267650e-01
C     7.378069184475000e+00   2.687189133147519e+00   7.366712000000000e-02  8.22473400e-01  -3.38402830e-01   1.85586930e-01
C     7.503532791450000e+00   3.093914776002851e+00   3.372820672000000e+00 -5.97505030e-01  -1.97477970e+00   3.08818770e-01
C     8.753462720174999e+00   3.763707222377302e+00   3.387267136000000e+00 -1.13342714e+00  -7.82761360e-01  -3.09643580e-01
C     2.475658277925000e+00   4.078923513394931e+00   1.494023920000000e-01 -1.02539104e+00   6.92287180e-01  -2.14791150e-01
C     3.685433467575000e+00   4.811197628601164e+00   1.362220880000000e-01 -7.42467440e-01   3.58446880e-01  -2.79894900e-02
C     3.789703041525000e+00   5.185361783006005e+00   3.349672656000000e+00 -2.08878620e-01  -4.52282590e-01   1.26337940e-01
C     5.037321182325000e+00   5.890233231595713e+00   3.361946112000000e+00 -1.92975269e+00   4.56547900e-01   3.92644600e-02
C     4.893506513100000e+00   4.130355147629912e+00   1.056344640000000e-01  1.47360403e+00  -1.61813071e+00  -8.70007500e-02
C     6.123312502275000e+00   4.826386222712254e+00   1.011706720000000e-01  1.45840654e+00  -1.08890929e+00  -1.72663650e-01
C     6.232755248475000e+00   5.197257179640326e+00   3.365979600000000e+00  1.54862221e+00   3.50926800e-02   2.05553610e-01
C     7.478190718050000e+00   5.894298462357505e+00   3.390460552000000e+00  8.96977590e-01   8.82117100e-02  -3.98829940e-01
C     7.393608334950001e+00   4.082056284212307e+00   7.157326400000000e-02 -6.10479670e-01   1.72088908e+00   3.84731860e-01
C     8.641076505150000e+00   4.788589509631528e+00   1.439180560000000e-01 -8.67126950e-01   1.10242447e+00  -3.76468580e-01
C     8.721680045475001e+00   5.159788172434296e+00   3.365957704000000e+00  1.37979520e-01   1.83452841e+00   3.91379810e-01
C     9.947849876174999e+00   5.913224389227956e+00   3.382411664000000e+00  9.15488400e-02  -1.57612279e+00  -3.57282670e-01
C     7.416123965399999e+00   1.297505204139144e-01   6.699410456000000e+00 -4.44105670e-01   5.21523550e-01  -1.34282800e-02
C     1.254170591475000e+00   8.220645642343134e-01   6.721024799999999e+00 -1.63722700e-01   1.38882022e+00   8.79926200e-02
C     1.124652749700000e+00   5.392476058581612e-01   1.018547329600000e+01 -1.86761330e-01   6.85451080e-01  -1.11244300e-01
C     2.333495762625000e+00   1.249467570399649e+00   1.016446306400000e+01  1.77974605e+00   7.40567710e-01  -7.45974500e-02
C     2.475505312350000e+00   1.466238185976564e-01   6.772584712000000e+00  6.68426820e-01  -1.74588327e+00  -1.91507340e-01
C     3.693899300550000e+00   8.642963539682472e-01   6.784772759999999e+00  8.47710060e-01  -9.48671790e-01  -5.21757100e-02
C     3.613707772650000e+00   5.466730866765168e-01   1.011341233600000e+01 -1.35036289e+00   6.02746400e-02   6.26073890e-01
C     4.836661332975000e+00   1.270865604846638e+00   1.017167732000000e+01 -5.32334630e-01  -5.52704180e-01  -3.72351310e-01
C     4.933019403149999e+00   1.208915105161764e-01   6.759420864000000e+00 -1.48538260e-01   6.60852120e-01  -2.79214140e-01
C     6.169938199124999e+00   8.407400205798594e-01   6.699189048000000e+00  7.17111000e-02  -6.02687340e-01   4.82521290e-01
C     6.047993761725000e+00   5.489210452279554e-01   1.016385636800000e+01  1.55348080e-01  -9.28683620e-01   2.41781810e-01
C     7.274249559300000e+00   1.242970514843257e+00   1.019029408800000e+01  4.85329000e-01   4.11096950e-01   2.44845600e-02
C     8.660699359499999e+00   2.263489773345201e+00   6.719075648000000e+00 -1.05268320e-01  -2.11835570e-01   2.52956940e-01
C     2.499915209025000e+00   3.007698799456752e+00   6.759578080000000e+00 -6.74440820e-01  -8.64361440e-01  -2.30076830e-01
C     2.351121042600000e+00   2.701864810246602e+00   1.018138989600000e+01  7.69289960e-01  -1.76447615e+00  -6.89650600e-02
C     3.594459918750000e+00   3.378126773868647e+00   1.019439421600000e+01 -3.16269790e-01   1.22527485e+00  -1.57731150e-01
C     3.714408371699999e+00   2.271510337803907e+00   6.782780224000000e+00 -2.13428600e-02   7.82770830e-01  -6.09232000e-02
C     4.939728812700000e+00   2.991964498533411e+00   6.777268144000000e+00  8.83434190e-01  -1.35087924e+00  -4.37151400e-02
C     4.817652300600000e+00   2.682351548887811e+00   1.017891836800000e+01  3.82386830e-01   8.24678500e-02   1.98899780e-01
C     6.038425260299999e+00   3.400355568645236e+00   1.018799895200000e+01  1.07392690e+00  -6.08065360e-01  -1.52679100e-02
C     6.186911572874999e+00   2.252439546620664e+00   6.754103536000000e+00 -9.47693130e-01   3.88033360e-01  -1.99701910e-01
C     7.411461713700000e+00   2.940183127776695e+00   6.736434824000000e+00  7.78621920e-01   1.45306786e+00   8.27415000e-02
C     7.289180101275000e+00   2.661996960173952e+00   1.019698542400000e+01 -1.60363180e-01   9.24180190e-01  -2.80420960e-01
C     8.544508158150000e+00   3.394217984082526e+00   1.016017416800000e+01 -2.08639173e+00  -4.25787420e-01   2.52242840e-01
C     9.889003165349999e+00   4.426065221972395e+00   6.725147367999999e+00 -2.69431180e-01  -3.87608030e-01   1.31972940e-01
C     3.719038418175000e+00   5.136281984384952e+00   6.716310495999999e+00  7.15721520e-01  -1.20923798e+00   1.85037560e-01
C     3.589537252125000e+00   4.817927478930766e+00   1.019061518400000e+01  7.10338580e-01  -2.49811330e-01  -2.53803600e-02
C     4.852249364400000e+00   5.550680184326878e+00   1.018071234400000e+01 -1.67273515e+00  -1.58560456e+00   5.38423700e-02
C     4.969948332300000e+00   4.385497194387910e+00   6.760767400000000e+00 -6.82350980e-01   1.37822636e+00  -1.38581020e-01
C     6.215033574674999e+00   5.085644926422661e+00   6.760072303999999e+00 -1.17882971e+00   1.54085868e+00   1.56186550e-01
C     6.053696046224999e+00   4.818814468644377e+00   1.016977400000000e+01  7.32086600e-01   2.36236810e-01  -3.76605600e-02
C     7.306393553700000e+00   5.519975482357736e+00   1.013586498400000e+01 -1.03153241e+00   4.77868320e-01  -4.61512300e-02
C     7.432138577400000e+00   4.398825223505513e+00   6.764516512000000e+00 -7.21700360e-01  -1.74969950e+00  -1.59868880e-01
C     8.631475022025000e+00   5.100517278280625e+00   6.737983320000000e+00  1.24431229e+00   9.66046370e-01   1.12186050e-01
C     8.507743804724999e+00   4.802419440437619e+00   1.013917073600000e+01  1.09050564e+00   1.72518380e-01   2.03618330e-01
C     9.744102429449999e+00   5.504009667512757e+00   1.017221547200000e+01  1.87740620e-01   1.08530918e+00  -1.71402840e-01
