72
Lattice="7.395 0 0 3.6975 6.40425786098592 0 0 0 13.6 " PBC="1 1 1" Properties=species:S:1:pos:R:3:force:R:3 Energy="-579.00238909"
C     3.750803566725000e+00   6.394668956833958e+00   1.349639492800000e+01 -1.09877688e+00   5.27950650e-01   3.41740050e-01
C     1.297286177625000e+00   7.013948972104075e-01   1.355560688000000e+01 -1.28902789e+00   1.04762121e+00  -6.14221210e-01
C     1.289943201450000e+00   7.481124853197997e-01   3.453452080000000e+00 -2.81019655e+00  -9.73217200e-02  -8.60985960e-01
C     2.468055330525000e+00   1.480885556255906e+00   3.441580504000000e+00 -7.78983050e-01   1.74333453e+00  -6.64613780e-01
C     2.534003903550000e+00   1.070125871374560e-02   1.354495984800000e+01 -3.31290514e+00  -1.59535006e+00   2.79143390e-01
C     3.697777571325000e+00   6.982291444650522e-01   1.348187407200000e+01  1.64944339e+00   2.18976788e+00  -3.33580970e-01
C     3.622520542050000e+00   7.179007831207213e-01   3.408150072000000e+00  3.50065512e+00   1.27242968e+00   2.85872700e-01
C     4.923072869325000e+00   1.394592152232279e+00   3.451910792000000e+00 -1.37581267e+00   1.03233080e-01  -2.68762460e-01
C     8.601125720174998e+00   6.379439119302249e+00   1.355047016000000e+01  4.44841610e-01   7.38424400e-01  -2.68934130e-01
C     6.148909777125000e+00   6.405453534942462e-01   1.358940179200000e+01  1.70680573e+00   3.85596920e-01  -5.36740110e-01
C     6.170921438325000e+00   6.745383857041831e-01   3.453499952000000e+00 -1.47543183e+00   2.52139264e+00  -1.80273560e-01
C     7.355691211949999e+00   1.392356489855932e+00   3.385508520000000e+00  3.99964776e+00   1.96858569e+00   3.80128410e-01
C     1.263945746175000e+00   2.138702872985679e+00   1.351272322400000e+01 -1.63932290e+00   2.88094080e-01   5.81440350e-01
C     2.463745376625000e+00   2.877409424786497e+00   1.350895425600000e+01  9.12280940e-01  -3.84293090e-01  -1.26215247e+00
C     2.442118218450000e+00   2.957566589141564e+00   3.367341776000000e+00  2.54336097e+00  -2.93012376e+00   7.64454600e-01
C     3.717680548275000e+00   3.587675820197469e+00   3.506605232000000e+00 -1.24170961e+00   1.59012065e+00  -1.13042684e+00
C     3.709709034075000e+00   2.145823639215056e+00   1.335582546400000e+01 -9.07062490e-01  -4.30701980e-01   2.78773734e+00
C     4.915042897650000e+00   2.813561343497705e+00   8.015296000000000e-02  7.59362400e-01  -5.23939440e-01  -1.76722376e+00
C     4.892675241150000e+00   2.827093540355885e+00   3.470703544000000e+00  1.10335916e+00  -1.35942599e+00   4.98408550e-01
C     6.129826203149999e+00   3.480076667082616e+00   3.504568632000000e+00  2.92082911e+00   2.63808046e+00  -1.06254186e+00
C     6.153926619075000e+00   2.025954504423650e+00   4.472727200000000e-02  2.18502020e-01   3.80889266e+00   2.15531890e-01
C     7.369872714374999e+00   2.850173012704017e+00   1.358650404000000e+01  4.24909900e-01  -2.42210392e+00   2.70772190e-01
C     7.444903863375000e+00   2.853485166784052e+00   3.367087728000000e+00 -3.76692892e+00  -1.86959418e+00   3.71953890e-01
C     8.626491938249998e+00   3.610380771545949e+00   3.317754408000000e+00 -5.44848200e-01   4.97828690e-01   1.36604294e+00
C     9.852319676250000e+00   4.299872138714553e+00   1.347317592000000e+01 -1.35492243e+00   1.87443940e-01  -9.95401000e-03
C     3.693012307275000e+00   5.000470602417490e+00   1.343099660800000e+01  8.37784640e-01  -1.79831117e+00   1.28034512e+00
C     3.767821976025000e+00   5.048305029055088e+00   3.452245624000000e+00 -1.08871933e+00  -1.56671626e+00   2.02129080e-01
C     4.996865281874999e+00   5.746861110883893e+00   3.395634944000000e+00  2.31391960e-01  -1.89895163e+00   7.79054560e-01
C     4.913915308049999e+00   4.232965063658932e+00   4.344315999999999e-02  1.33024540e-01   1.49383240e+00  -5.66263210e-01
C     6.146510580299999e+00   4.986829469133111e+00   5.334096800000000e-02 -8.30803600e-01  -3.66803240e-01  -9.19289800e-02
C     6.209822577000000e+00   4.930513755726359e+00   3.441420976000000e+00 -2.08867603e+00   1.12673462e+00  -2.13343780e-01
C     7.372638703200000e+00   5.731700759549965e+00   3.399446344000000e+00  1.13279951e+00  -2.68161406e+00   1.12051248e+00
C     7.331303389349999e+00   4.266940932457804e+00   2.594635200000000e-02  1.67959169e+00  -3.59583310e-01  -5.85450380e-01
C     8.558046110699999e+00   5.008837957439316e+00   1.350004979200000e+01  1.68052136e+00  -2.76682190e+00   7.30803790e-01
C     8.630130019425000e+00   5.007082998657940e+00   3.544385216000000e+00  1.22035720e-01   1.28238074e+00  -2.01499886e+00
C     9.892389668625000e+00   5.712438993397337e+00   3.484846319999999e+00 -3.48924740e-01  -2.28598227e+00   3.09447350e-01
C     1.951732770000000e-02   2.274766774840560e-02   6.931277400000000e+00  7.12937700e-01  -1.50490519e+00   2.38939690e-01
C     1.227355175250000e+00   7.471331462078484e-01   6.873681536000000e+00  9.54204680e-01  -1.13162492e+00  -5.23872990e-01
C     1.176668920875000e+00   6.561074439237319e-01   1.020090195200000e+01  3.55835454e+00   1.83319505e+00   4.08098400e-02
C     2.467352620650000e+00   1.398490744204554e+00   1.014599100000000e+01 -1.01248893e+00  -1.00089543e+00   1.08607029e+00
C     2.482784210850000e+00   4.904483137313760e-02   6.697529576000000e+00 -9.09232530e-01  -1.44870508e+00   9.77198560e-01
C     3.780273935849999e+00   6.582223219968396e-01   6.630699720000000e+00 -1.21263943e+00   2.91384990e-01   7.02460370e-01
C     3.690760788600000e+00   6.716507698776876e-01   1.033802123200000e+01 -1.43258636e+00   9.11076350e-01  -1.60586802e+00
C     4.896390156375000e+00   1.403673774133231e+00   1.021094052000000e+01  1.85386185e+00  -5.31549000e-03   1.25919492e+00
C     5.016347557275000e+00   5.343904886119801e-03   6.828248832000001e+00  3.29337670e-01  -3.22012960e-01   4.23820230e-01
C     6.265312364550000e+00   7.949301719795436e-01   6.994090767999999e+00 -3.70639475e+00  -2.25536981e+00  -1.84336566e+00
C     6.178452913050000e+00   7.295374477374985e-01   1.027977256800000e+01 -7.20971070e-01  -1.03442730e-01  -9.05825400e-01
C     7.436135242124999e+00   1.432439394907521e+00   1.020036570400000e+01 -2.73750494e+00   9.44994710e-01  -4.23578120e-01
C     8.608397593425000e+00   2.134503601106877e+00   6.893758399999999e+00 -1.30386380e-01   2.13260747e+00  -1.58309226e+00
C     2.478831731250000e+00   2.767650243580623e+00   6.697091384000000e+00 -9.78493930e-01   7.82527610e-01   1.30413857e+00
C     2.472314628675000e+00   2.821828535926600e+00   1.013614133600000e+01 -4.31925030e-01  -5.89063730e-01   1.12492200e-01
C     3.671754862125000e+00   3.519879193725095e+00   1.011262068000000e+01  2.02295309e+00   1.38186009e+00   4.02143050e-01
C     3.704658396975000e+00   2.046526901947328e+00   6.629389768000000e+00  1.38267924e+00   2.91463873e+00   6.59190500e-01
C     4.926335062650000e+00   2.840540432499370e+00   6.754832768000000e+00 -1.63441166e+00   1.49364460e-01  -2.20170210e-01
C     4.933198583999999e+00   2.827482278807987e+00   1.020124317600000e+01 -1.66020118e+00  -5.27754660e-01  -9.48787700e-01
C     6.150231744299999e+00   3.539416855306332e+00   1.015249955200000e+01  7.51429550e-01  -7.67907210e-01   1.48016710e-01
C     6.149232494925000e+00   2.177644859499510e+00   6.786565104000000e+00  2.45232387e+00   1.30398884e+00   9.38577840e-01
C     7.396756127624999e+00   2.964799109670598e+00   6.796880976000000e+00 -6.83058000e-01  -3.62104805e+00   4.90792280e-01
C     7.416179501849999e+00   2.904796144800951e+00   1.010481482400000e+01  6.15439140e-01  -2.57693451e+00   1.28937495e+00
C     8.671909513949998e+00   3.571190427912308e+00   1.023324628800000e+01 -1.90104507e+00   2.85455130e-01  -7.70367020e-01
C     2.422242750900000e+00   4.186335662180272e+00   6.863569528000000e+00  2.33570146e+00   1.16633006e+00  -7.58166830e-01
C     3.681087130274999e+00   4.944497004465619e+00   6.867725823999999e+00 -2.74344137e+00   2.04257168e+00   4.00310990e-01
C     3.693174146850000e+00   4.975850521798557e+00   1.009767183200000e+01 -1.80502080e+00  -1.08657029e+00   1.09705337e+00
C     4.894859576250000e+00   5.662266692427946e+00   1.023816391200000e+01  8.06912170e-01  -8.57596700e-01  -7.95784490e-01
C     4.868035249049999e+00   4.292085713923207e+00   6.858316664000000e+00  2.27399276e+00  -1.71661527e+00  -6.46154240e-01
C     6.084147731850000e+00   5.041062005543163e+00   6.820841864000000e+00  1.96839775e+00  -2.98815720e-01  -8.50489160e-01
C     6.142292102550000e+00   4.914541024282890e+00   1.023215012800000e+01 -1.12481646e+00   2.68687225e+00   3.50720780e-01
C     7.325460895650000e+00   5.659586126258064e+00   1.034614764000000e+01  2.55338605e+00  -4.51507590e-01  -9.39142800e-02
C     7.360762148325000e+00   4.345883977607773e+00   6.750133288000000e+00 -8.05929600e-02   1.94009140e-01   7.35866290e-01
C     8.642852599274999e+00   4.963935336007449e+00   6.858010800000001e+00 -3.45652690e-01   1.32092624e+00  -3.77148250e-01
C     8.619248572724999e+00   4.991530002274616e+00   1.034176395200000e+01 -3.76202910e-01  -1.84802840e-01  -9.05771850e-01
C     9.838860184649999e+00   5.707526095065194e+00   1.021420914400000e+01  1.01666260e+00   6.93453400e-02   4.42020030e-01
