72
Lattice="7.395 0 0 3.6975 6.40425786098592 0 0 0 13.6 " PBC="1 1 1" Properties=species:S:1:pos:R:3:force:R:3 Energy="-579.20259194"
C     3.710695711950000e+00   6.230775864789075e+00   1.352666227200000e+01 -5.31437000e-01   6.08597060e-01  -2.18228650e-01
C     1.275634024350000e+00   5.256694264285464e-01   1.357643745600000e+01 -2.28515534e+00   2.64087487e+00  -2.36957190e-01
C     1.366424583900000e+00   9.578119676657533e-01   3.633507648000000e+00  1.44289140e-01   3.87757050e-01  -4.00807410e-01
C     2.556312178200000e+00   1.734070013513838e+00   3.743101480000000e+00  1.50535926e+00  -2.65507616e+00  -1.06394810e+00
C     6.196020955725000e+00   6.284107770416276e+00   1.347388924000000e+01 -2.27460907e+00  -2.37402574e+00   3.71555150e-01
C     3.694694410950000e+00   5.566356782886900e-01   1.348404912000000e+01 -7.78850560e-01   6.74909380e-01  -2.58279720e-01
C     3.805100503800000e+00   1.000872276239035e+00   3.622783504000000e+00 -1.77714966e+00  -3.19950245e+00   2.22550050e-01
C     5.037775752975000e+00   1.611922179733266e+00   3.566694791999999e+00 -5.45214700e-02   1.10728336e+00  -2.00757530e-01
C     8.563742109449999e+00   6.264682823773374e+00   1.344387104800000e+01  3.08431879e+00  -1.34316547e+00  -5.80302000e-02
C     6.115324645125000e+00   5.264651554676515e-01   1.349018652800000e+01  1.50399251e+00  -5.95665510e-01   1.96771770e-01
C     6.258759433200000e+00   9.234801502150224e-01   3.474769536000000e+00  1.88492987e+00   3.87765630e-01   3.83837450e-01
C     7.525504889400000e+00   1.641031645112059e+00   3.561565008000000e+00 -1.14342401e+00  -9.09061280e-01   4.26317000e-02
C     1.208170215825000e+00   2.025849986935375e+00   2.791998400000000e-02  1.28249004e+00  -2.36798552e+00  -5.92729820e-01
C     2.445221567175000e+00   2.709139342707198e+00   5.372503200000000e-02 -1.19843720e-01   6.36077590e-01  -9.50861900e-01
C     2.572688442675000e+00   3.115291740441481e+00   3.661296935999999e+00 -1.51215270e-01   1.34730195e+00   3.34227400e-02
C     3.801008628450000e+00   3.819444823427033e+00   3.603115320000000e+00  1.90664274e+00  -3.96981060e-01  -9.06336540e-01
C     3.670447093350000e+00   1.938046138695467e+00   1.351994455200000e+01  5.62166820e-01   3.16800104e+00   1.21103535e+00
C     4.937695557450000e+00   2.642500926268804e+00   1.357747908000000e+01 -1.67882028e+00   1.80961978e+00  -8.75393570e-01
C     5.007046976700000e+00   3.005790266571893e+00   3.564639016000000e+00  1.59391403e+00   3.92024666e+00   4.93148110e-01
C     6.304088786549999e+00   3.770850851807240e+00   3.598543000000000e+00 -2.44719918e+00  -1.95873539e+00  -3.23839500e-01
C     6.120559935374999e+00   1.913940960408477e+00   1.352103921600000e+01  1.85393467e+00   2.13929338e+00  -1.44785800e-01
C     7.385609311350000e+00   2.686955826033679e+00   1.348002651200000e+01 -1.95598487e+00   1.55638360e-01   8.52106600e-01
C     7.510909230000000e+00   3.036311166340452e+00   3.630571544000000e+00  1.34809653e+00   2.34146583e+00  -3.57982370e-01
C     8.754339471374999e+00   3.813079439412244e+00   3.609979104000000e+00 -1.41064021e+00   4.30098710e-01   4.27930090e-01
C     9.807785655149999e+00   4.183371131216878e+00   1.357002614400000e+01  2.26591399e+00  -3.19886981e+00  -3.06459070e-01
C     3.686359913175000e+00   4.822495636062305e+00   1.351375002400000e+01 -9.73278300e-02   6.31625710e-01   3.29569220e-01
C     3.875152488375000e+00   5.272761970872997e+00   3.434529856000000e+00 -1.80755595e+00  -2.30813209e+00   9.96462870e-01
C     5.098174267575000e+00   5.948938245524875e+00   3.497405104000000e+00 -2.60646190e-01  -4.33668230e-01   4.33955640e-01
C     4.927570619250000e+00   4.140353731171258e+00   1.352168385600000e+01 -1.11520157e+00  -2.65116066e+00   2.01238300e-01
C     6.120883392674999e+00   4.838838021269453e+00   1.345677132800000e+01  1.24466941e+00   7.23503230e-01   6.81810500e-02
C     6.285473205150000e+00   5.161805577702774e+00   3.580877552000000e+00  1.05263837e+00   1.64928237e+00  -1.81443080e-01
C     7.523317522349999e+00   5.896169017993254e+00   3.585015080000000e+00 -1.46035045e+00   3.09774095e+00   3.74729950e-01
C     7.328468848875000e+00   4.116594638979023e+00   1.345619020000000e+01  2.35983146e+00  -4.86737350e-01  -2.88447570e-01
C     8.620982219550001e+00   4.846072206905530e+00   1.342137814400000e+01 -3.30873015e+00  -1.14931850e-01   7.94809290e-01
C     8.758987561649999e+00   5.288964294960746e+00   3.599625968000000e+00 -1.05592550e-01  -4.18168360e+00  -6.64596470e-01
C     9.990446074499999e+00   5.925436988754083e+00   3.467847136000000e+00  1.10602721e+00   1.27769177e+00   1.65707470e-01
C     7.447015616550000e+00   1.489138531232352e-01   6.991446656000000e+00 -9.92680420e-01  -8.10273220e-01  -1.26169710e-01
C     1.253554698900000e+00   8.903605306920325e-01   7.014609496000000e+00  7.75751260e-01  -2.33174417e+00  -6.16238850e-01
C     1.126957105650000e+00   4.780380147651109e-01   9.916043288000001e+00 -2.01377375e+00  -4.40534880e-01   3.04754220e-01
C     2.322073445625000e+00   1.168253383284788e+00   1.003699352800000e+01  6.06879910e-01   1.13309636e+00   1.49185510e-01
C     2.511907162875000e+00   1.575117614280210e-01   6.876250304000000e+00 -1.75450737e+00   1.39828321e+00   5.06189980e-01
C     3.742308153749999e+00   8.073313768996476e-01   6.845637112000000e+00  1.56231988e+00   1.22007538e+00   4.61363300e-01
C     3.516019231050000e+00   4.436189713223269e-01   1.010688528800000e+01  3.23243694e+00   1.00933599e+00  -9.12513880e-01
C     4.842320948325000e+00   1.219502175957866e+00   9.974785224000000e+00 -3.20016212e+00  -1.53457623e+00   9.33690760e-01
C     5.022808716675000e+00   1.310051785712670e-01   6.921460648000000e+00 -1.45632357e+00   1.00765004e+00  -1.21432470e-01
C     6.240007340100000e+00   8.655016352974992e-01   7.014531976000000e+00 -7.47002170e-01   1.55144870e+00  -9.10002400e-01
C     6.044977082400000e+00   5.253328186354249e-01   9.890861392000000e+00  4.99258620e-01  -1.21340575e+00   2.67540600e-01
C     7.291155379725000e+00   1.237205850215735e+00   9.849804623999999e+00  4.25420720e-01  -1.29289688e+00   2.31843050e-01
C     8.637867333974999e+00   2.260239548438672e+00   7.084811744000000e+00 -8.87099520e-01   1.86206670e+00  -1.21450034e+00
C     2.488624744875000e+00   2.883332338625739e+00   6.986422680000000e+00  5.47835600e-01   3.73991053e+00   1.19889570e-01
C     2.344031936775000e+00   2.602955082281354e+00   1.003572709600000e+01 -2.05313540e-01   1.45706664e+00  -1.37024390e-01
C     3.583346527875000e+00   3.345397878117696e+00   9.970295591999999e+00 -1.03250161e+00  -1.84087121e+00   4.85909170e-01
C     3.750707764500000e+00   2.239382737823431e+00   6.899736824000000e+00 -2.19042535e+00  -1.72435772e+00   6.20597100e-02
C     4.930336645050000e+00   2.937726454461599e+00   6.930403871999999e+00  1.08839248e+00   3.92887958e+00  -4.12124100e-02
C     4.803684143925000e+00   2.624764782423584e+00   9.979105671999999e+00  5.15401510e-01  -4.04012720e-01  -6.92034830e-01
C     6.022041600825000e+00   3.294797324425207e+00   9.833705080000000e+00  1.03657096e+00   2.31403311e+00   6.47270170e-01
C     6.185434865324999e+00   2.372837929281620e+00   6.958801352000000e+00  5.08056060e-01  -4.60924356e+00   9.69583500e-02
C     7.388855346599999e+00   3.064874924906996e+00   6.987077792000000e+00  1.36579650e+00  -1.68273100e+00   1.24256880e-01
C     7.305278054925000e+00   2.648955841808477e+00   9.804238231999999e+00 -1.33601592e+00  -2.48215140e-01   1.44810877e+00
C     8.511289300500000e+00   3.379080495949158e+00   9.999768560000000e+00  9.26417800e-01  -2.62682005e+00  -6.22005200e-01
C     9.881590528275000e+00   4.376885709056460e+00   6.999582719999999e+00 -1.52314590e+00  -1.06710860e+00  -6.41190890e-01
C     3.674023537200000e+00   5.090222241642939e+00   6.945520680000000e+00  2.21425121e+00   1.12120973e+00   3.41715300e-01
C     3.585581962425000e+00   4.721971202562814e+00   9.870245967999999e+00 -1.81448505e+00   2.11749266e+00   7.07837260e-01
C     4.811445492224999e+00   5.436163023786495e+00   9.896105823999999e+00 -1.38062553e+00   2.00796058e+00   4.54503900e-02
C     4.929338061225000e+00   4.402135136095297e+00   6.971624791999999e+00 -6.41672470e-01   1.09758010e-01  -7.58982350e-01
C     6.134325949725000e+00   5.191858774519818e+00   6.917117623999999e+00  7.28390170e-01  -3.72323079e+00  -1.95814190e-01
C     6.008657834025000e+00   4.773500501730160e+00   9.897302895999999e+00  7.53269590e-01  -3.42059322e+00   4.13554740e-01
C     7.217979895050000e+00   5.430721133755117e+00   1.004149961600000e+01  1.76348821e+00   1.60582271e+00  -2.03670780e-01
C     7.373018843174999e+00   4.442306483947933e+00   6.916900296000000e+00  1.23377342e+00   2.19039629e+00   1.56655200e-01
C     8.656162342125000e+00   5.147993963074162e+00   6.950624080000000e+00 -1.26892000e-03  -2.33080348e+00  -1.04715440e-01
C     8.502567415649999e+00   4.762072423791884e+00   1.000924694400000e+01 -1.03682000e+00   9.46830470e-01   7.01001900e-02
C     9.697828919475000e+00   5.469745927323078e+00   9.923927616000000e+00  2.51029684e+00   6.48335290e-01   1.76289380e-01
