72
Lattice="7.395 0 0 3.6975 6.40425786098592 0 0 0 13.6 " PBC="1 1 1" Properties=species:S:1:pos:R:3:force:R:3 Energy="-580.77677267"
C     3.684678068325000e+00   6.329357694751892e+00   1.349909820000000e+01 -3.92647740e-01  -1.69734226e+00   5.18437170e-01
C     1.152823521525000e+00   6.560258536785954e-01   1.352597669600000e+01  3.19563395e+00  -2.69147457e+00  -7.70468700e-02
C     1.293979207575000e+00   8.335167862247226e-01   3.539177640000000e+00  2.13919400e-02  -2.66075890e-01   6.91821900e-02
C     2.539731515925000e+00   1.529541521091784e+00   3.588371016000000e+00 -9.61369430e-01   1.15591945e+00   2.56451440e-01
C     6.089697790275000e+00   6.289995717007603e+00   1.346581573600000e+01  2.02075290e+00   1.09313857e+00   1.59969220e-01
C     3.662635717875000e+00   6.427577684145618e-01   1.348338911200000e+01  4.88570240e-01  -1.11014272e+00   4.95172320e-01
C     3.738607399950000e+00   7.996048959618720e-01   3.563374080000000e+00  1.17811915e+00   2.55742301e+00  -5.76112910e-01
C     4.955647511550000e+00   1.563940647292624e+00   3.447136104000000e+00  1.60934086e+00  -8.47288830e-01   9.17883170e-01
C     8.645168454449999e+00   6.294030207331668e+00   1.343124684800000e+01 -1.94933993e+00   8.06102520e-01   8.01668080e-01
C     6.197189920350000e+00   6.225557291229277e-01   1.345649633600000e+01 -3.07040816e+00   4.89036750e-01  -1.95019280e-01
C     6.241435573425000e+00   8.604561688276555e-01   3.434480760000000e+00 -1.34863127e+00  -9.69030970e-01   1.19833530e-01
C     7.466453743800000e+00   1.564819311471016e+00   3.525872488000000e+00 -3.09101370e-01  -6.50749150e-01  -1.92486110e-01
C     1.216025184825000e+00   2.018683878560349e+00   1.356285377600000e+01 -5.87042410e-01   2.28889677e+00  -2.47855840e-01
C     2.444607819150000e+00   2.752707060630727e+00   3.610120000000000e-03 -1.23839130e-01  -1.36384980e-01   3.48532670e-01
C     2.551873884075000e+00   2.990847275749734e+00   3.620826600000000e+00 -1.39419625e+00  -8.93074980e-01  -9.87428530e-01
C     3.781880869350000e+00   3.699769353393314e+00   3.427144648000000e+00 -1.47450360e+00  -1.56674403e+00   1.45790873e+00
C     3.684010558650000e+00   2.099841644163464e+00   4.233258400000000e-02 -4.86073740e-01  -3.14982797e+00  -1.86115832e+00
C     4.890084550799999e+00   2.761999894955902e+00   1.339459920000000e+01  1.12039344e+00  -8.38338870e-01   1.02697287e+00
C     4.997291233875000e+00   2.993421787409453e+00   3.515002280000000e+00 -4.69138150e-01  -1.60055798e+00  -1.27017484e+00
C     6.227154867074999e+00   3.647724191255344e+00   3.463724160000000e+00 -2.80508350e-01   2.85249993e+00   5.44382500e-01
C     6.145740797775000e+00   2.064724344486204e+00   1.338299608800000e+01  6.65386300e-02  -1.27804234e+00   3.47199860e-01
C     7.380589881150000e+00   2.747289955077268e+00   1.344692520000000e+01  1.97953460e-01  -2.97369940e-01  -4.83586570e-01
C     7.433646122100000e+00   2.976731586957929e+00   3.557880768000000e+00  7.70904930e-01  -8.01671150e-01   4.53108100e-02
C     8.641362728624999e+00   3.688866296514399e+00   3.620710592000000e+00  2.81863543e+00  -2.27793470e-01  -1.06562656e+00
C     2.450428053900000e+00   4.153099613249387e+00   1.358306079200000e+01 -3.72733240e-01   1.32238738e+00   1.89592890e-01
C     3.692133633375000e+00   4.880888122207899e+00   1.358916052800000e+01 -4.18647250e-01  -1.53685300e-02  -1.05547973e+00
C     3.751703797050000e+00   5.072097423388195e+00   3.433443896000000e+00  4.98179220e-01   2.19676326e+00  -2.11784250e-01
C     4.979561129775000e+00   5.796428657783564e+00   3.475493600000000e+00  6.14676840e-01   1.04852844e+00   6.76460500e-02
C     4.908977333775000e+00   4.140717557060285e+00   1.341847740000000e+01  1.87594550e-01   2.19221778e+00   4.51608700e-01
C     6.156278857649999e+00   4.854982578951305e+00   1.337745558400000e+01 -7.15342810e-01   8.78847930e-01  -2.49344650e-01
C     6.234824813174999e+00   5.128997781494988e+00   3.492865152000000e+00 -9.02702500e-01  -1.93343095e+00   1.14458020e-01
C     7.450146659550000e+00   5.831798925646294e+00   3.551074104000000e+00  5.19173830e-01  -1.84377770e+00  -9.29495750e-01
C     7.404620562224999e+00   4.150373000465493e+00   1.332805943200000e+01 -1.70206426e+00   6.02129030e-01   1.46023682e+00
C     8.579041292174999e+00   4.854491180245708e+00   1.352734812000000e+01  2.56287607e+00   1.57560536e+00  -1.13046314e+00
C     8.679932534325001e+00   5.087806235365254e+00   3.434695096000000e+00  2.42478860e-01   1.12731939e+00   1.27725176e+00
C     9.938131034399998e+00   5.800984582782589e+00   3.419511512000000e+00 -1.15484655e+00   6.64779920e-01  -6.21775400e-02
C     7.417946426175000e+00   6.047752037707380e-02   6.764855696000000e+00  4.69830320e-01   1.55796976e+00   2.74006940e-01
C     1.274418877950000e+00   7.789675592634937e-01   6.882149032000000e+00 -1.09501198e+00   1.14691333e+00  -1.26306010e-01
C     1.159434392700000e+00   6.064129005906972e-01   1.014317104000000e+01 -2.38826220e-01   1.45156300e-02  -7.23760470e-01
C     2.415474292275000e+00   1.326076199517069e+00   1.019517268000000e+01 -9.97589830e-01  -1.16181524e+00  -4.26942350e-01
C     2.480080155150000e+00   6.426480634774201e-02   6.956583055999999e+00  1.47590694e+00   5.82409260e-01  -3.74797920e-01
C     3.759969188550000e+00   7.961848941794749e-01   6.988201016000000e+00 -2.03034482e+00  -6.67029300e-02  -1.55557340e-01
C     3.644569843799999e+00   6.169172924178264e-01   1.005574888000000e+01 -1.95956435e+00  -1.25580161e+00   9.94559960e-01
C     4.824791618474999e+00   1.279251212003365e+00   1.013838547200000e+01  3.18471486e+00   1.83732353e+00  -1.05580971e+00
C     4.968101985674999e+00   9.298233114550380e-02   6.867933904000000e+00 -2.15928500e-01  -7.58075580e-01  -3.81975280e-01
C     6.169975211100001e+00   7.985111768045413e-01   6.756292999999999e+00  1.52246083e+00  -5.83447270e-01   9.12583320e-01
C     6.106497603375000e+00   5.810047119995119e-01   1.001780651200000e+01 -1.36975766e+00   1.55703776e+00   6.60266690e-01
C     7.299571666199999e+00   1.314318558469316e+00   1.006326655200000e+01  1.53040137e+00  -3.03463230e-01   8.33474760e-01
C     8.653189293300001e+00   2.261065249404562e+00   6.909679784000000e+00  1.08347166e+00  -2.56656129e+00   7.16742970e-01
C     2.479713585000000e+00   2.970961606796383e+00   7.056099968000000e+00  9.38866370e-01  -2.24380348e+00  -1.51868800e+00
C     2.399210172975000e+00   2.724099048642372e+00   1.024699820000000e+01 -7.23882110e-01   6.70024910e-01  -5.98525130e-01
C     3.624568476375000e+00   3.429379345053862e+00   1.023828032800000e+01  9.99273300e-02   1.17136409e+00  -6.03901650e-01
C     3.730124669399999e+00   2.218920365449788e+00   7.030163680000000e+00  1.97170770e-01   7.77280570e-01  -1.46447010e-01
C     4.973086400550000e+00   2.955537207910888e+00   6.963190752000000e+00 -5.81543200e-01  -2.05005993e+00  -2.13464410e-01
C     4.851154682550000e+00   2.720488776358954e+00   1.013700044800000e+01  2.42487180e-01   2.20992500e-01   4.85432500e-01
C     6.112492212224999e+00   3.451909908460814e+00   1.007345458400000e+01 -1.47790634e+00  -1.09247786e+00   5.81981360e-01
C     6.203409189300000e+00   2.188782952641886e+00   6.901354951999999e+00 -2.86248510e-01   1.97032255e+00  -4.21771560e-01
C     7.446260143349999e+00   2.919084812597554e+00   6.911939288000000e+00 -1.58553962e+00   1.39782285e+00  -2.81114650e-01
C     7.316979126449999e+00   2.729232637700369e+00   1.014190896000000e+01  1.42146220e-01   9.88426400e-02  -9.66951020e-01
C     8.532249096899999e+00   3.431269433676084e+00   1.010202464800000e+01  1.38520667e+00   1.01142500e+00   9.23884580e-01
C     9.884905078199999e+00   4.336062215625941e+00   6.840978975999999e+00  6.44409700e-01   1.67355042e+00   8.42932080e-01
C     3.733138760475000e+00   5.068829266559659e+00   6.827879728000000e+00 -8.17027760e-01  -7.81884550e-01  -2.24877520e-01
C     3.594151510274999e+00   4.895950296268832e+00   1.015867232000000e+01  1.90082462e+00  -2.22940722e+00  -3.75621950e-01
C     4.810835774475000e+00   5.581473713352538e+00   1.006667226400000e+01  2.67502176e+00  -5.92947600e-02   8.31331650e-01
C     4.943481553350000e+00   4.354734726012872e+00   6.882866568000000e+00  1.18492593e+00   2.13505250e-01   2.01918600e-01
C     6.193142414999999e+00   5.046580554541126e+00   6.892215751999999e+00 -4.81945310e-01   1.02664105e+00   2.20693960e-01
C     6.103484436675000e+00   4.837329562373108e+00   1.007438482400000e+01 -6.24827290e-01   2.49563152e+00  -3.78011750e-01
C     7.355118912899998e+00   5.593115309247866e+00   1.001650907200000e+01 -1.76652714e+00  -7.12666210e-01   3.08995430e-01
C     7.431821036100000e+00   4.383579631499469e+00   6.914447264000001e+00  2.14323060e-01  -2.00527610e+00  -1.92403080e-01
C     8.673873736874999e+00   5.061987085547192e+00   6.852650360000000e+00 -8.03563380e-01   5.97618810e-01   1.14798500e-02
C     8.557644118500001e+00   4.886347944161284e+00   1.004379040000000e+01  7.76367700e-01  -9.91043510e-01   1.73984740e-01
C     9.824537511675000e+00   5.605059058029031e+00   1.005758392800000e+01 -2.72204636e+00  -1.18796664e+00   1.10645420e-01
