72
Lattice="7.395 0 0 3.6975 6.40425786098592 0 0 0 13.6 " PBC="1 1 1" Properties=species:S:1:pos:R:3:force:R:3 Energy="-580.32332897"
C     3.721994347575000e+00   6.374068892916325e+00   1.348221624800000e+01 -4.40082000e-03   7.30097280e-01   3.66030010e-01
C     1.209645222525000e+00   7.649631764732958e-01   1.349992072800000e+01  1.34320458e+00  -2.71841686e+00   2.67445160e-01
C     1.275477731025000e+00   7.032365056006291e-01   3.413273056000000e+00 -8.19744590e-01   1.80989505e+00   5.14051900e-02
C     2.451359565075000e+00   1.522588418333182e+00   3.412421968000000e+00  1.36639337e+00  -3.38824228e+00  -9.90172500e-02
C     6.122280456075000e+00   6.397993279003927e+00   1.353884923200000e+01  1.79241448e+00   2.36837930e-01  -3.09809580e-01
C     3.694753533975000e+00   7.136275420636362e-01   1.342876444000000e+01 -1.76478400e-01  -3.61415840e-01   1.22577109e+00
C     3.681691967325000e+00   7.390318240575270e-01   3.431549416000000e+00 -3.68288230e-01  -8.43951720e-01   2.49865790e-01
C     4.927000390800000e+00   1.434454878898642e+00   3.453719320000000e+00 -4.82570760e-01  -2.58249120e-01   2.22584350e-01
C     8.653153501500000e+00   6.402747992166927e+00   1.351357975200000e+01 -6.18405650e-01  -6.40803760e-01  -1.22469190e-01
C     6.239669795325000e+00   7.263740645675515e-01   1.354972569600000e+01 -3.29496372e+00  -1.70268064e+00   1.38425600e-02
C     6.139935833699999e+00   7.627027936616089e-01   3.459888008000000e+00  2.31586470e+00  -2.34081524e+00   2.23061830e-01
C     7.420576273050000e+00   1.423457743471764e+00   3.410241344000000e+00 -1.41833146e+00   2.40505310e-01   2.87412500e-02
C     8.608115622074999e+00   2.173894269926379e+00   1.351796330400000e+01  2.22511517e+00  -2.24044574e+00  -6.26826920e-01
C     2.449173196349999e+00   2.879447836020756e+00   1.339815056800000e+01  1.03084690e-01  -1.47448643e+00   8.34448950e-01
C     2.487742336500000e+00   2.920063895539191e+00   3.402808944000000e+00 -1.39924196e+00  -3.88092430e-01   8.47320800e-02
C     3.730294754400000e+00   3.573235435532163e+00   3.469361088000000e+00  4.34661870e-01   5.46870030e-01   1.93751030e-01
C     3.669758840700000e+00   2.167513003352097e+00   1.345865928000000e+01  1.55855790e+00  -1.43168022e+00  -1.37746840e-01
C     4.941572275275000e+00   2.849203920404642e+00   1.358898522400000e+01 -7.30982370e-01  -7.46907700e-01   1.76526860e-01
C     4.972447028850000e+00   2.821927865966009e+00   3.530198240000000e+00 -1.91132222e+00   2.53252851e+00  -8.82764110e-01
C     6.161111046449999e+00   3.601430308845970e+00   3.472421768000000e+00 -6.12094540e-01  -3.18265990e+00  -1.38025880e-01
C     6.200967914924999e+00   2.142046920269857e+00   7.030642399999999e-02 -3.17964795e+00  -2.56059277e+00  -8.25847840e-01
C     7.392572997975000e+00   2.751389128405718e+00   1.884144000000000e-03  9.35711000e-03   4.72998008e+00   2.02256540e-01
C     7.340228525774999e+00   2.855083029120122e+00   3.376070120000000e+00  3.60205418e+00   5.63111470e-01   4.17122000e-01
C     8.615450870474998e+00   3.598202883097423e+00   3.387097272000000e+00  2.39551160e-01  -9.06086140e-01   5.31236600e-02
C     2.473703076900000e+00   4.260687302742672e+00   1.343050673600000e+01 -8.38179210e-01   2.75310560e-01   2.16470110e-01
C     3.707278593375000e+00   4.921124537320392e+00   1.345871463200000e+01 -8.15566740e-01   2.97840127e+00   3.61934030e-01
C     3.734596980525000e+00   5.006432838399993e+00   3.480131336000000e+00 -3.04198040e-01   2.75981000e-03   1.26469180e-01
C     4.998541321650000e+00   5.685995876735976e+00   3.447050015999999e+00 -3.23847641e+00   1.76826193e+00   2.36156900e-02
C     4.900863539774999e+00   4.262935389379266e+00   2.175102400000000e-02  1.30803655e+00  -1.31508298e+00  -3.68902700e-01
C     6.130683505500000e+00   4.948591950983881e+00   5.998796800000000e-02  9.83326870e-01   8.17821870e-01  -6.86207870e-01
C     6.150645753375000e+00   4.976754610880653e+00   3.440355280000000e+00  2.40413938e+00   1.04684350e-01   2.54846830e-01
C     7.383433110750000e+00   5.648352161375524e+00   3.470194360000000e+00  8.36457270e-01   3.57329494e+00  -5.45524200e-01
C     7.350839278499999e+00   4.164027454606219e+00   1.359820466400000e+01  1.33242449e+00   3.47385480e+00   4.15966200e-02
C     8.618664182849999e+00   4.917476479915599e+00   1.351609235200000e+01 -1.02146379e+00   1.97155399e+00  -4.90774400e-02
C     8.655250871400000e+00   5.000291475325146e+00   3.459092271999999e+00 -1.19793839e+00   8.62420000e-04   2.25491140e-01
C     9.874176005475000e+00   5.723655026357870e+00   3.530299423999999e+00  5.74934420e-01   2.29426590e-01  -8.86617340e-01
C     3.723481592999999e+00   6.394472922500864e+00   6.996708359999999e+00 -1.28553660e+00   1.28128062e+00  -6.93098080e-01
C     1.239146022075000e+00   7.034142877988226e-01   6.865317127999999e+00  1.83063590e-01   1.36482015e+00  -2.62684850e-01
C     1.223863736925000e+00   6.876426500521579e-01   1.020874480000000e+01 -9.88358490e-01   1.05191580e-01  -2.23632840e-01
C     2.457012783750000e+00   1.415677210597650e+00   1.019587852000000e+01  3.61467000e-02  -9.96588930e-01  -1.01819400e-02
C     6.169281892875000e+00   6.395702091711933e+00   6.723643208000000e+00  3.49063890e-01   1.77285494e+00   1.70457600e-01
C     3.747825415350000e+00   6.987412929661165e-01   6.623224752000000e+00 -6.83119980e-01   1.24111130e-01   1.15861331e+00
C     3.700318604250000e+00   6.899833422574092e-01   1.028154764000000e+01 -3.48203680e-01  -7.33312310e-01   5.31385060e-01
C     4.929481006574999e+00   1.400000676080206e+00   1.029947869600000e+01 -1.60428165e+00  -1.18955700e-01  -9.85804940e-01
C     8.679523147125000e+00   6.396811949599071e+00   6.858252879999999e+00 -1.29766041e+00   7.48758470e-01  -8.65627400e-01
C     6.176793992700000e+00   7.206129863244313e-01   6.935623824000000e+00  1.19161639e+00   1.06160965e+00  -8.87332700e-02
C     6.138126351149999e+00   7.239032378425848e-01   1.024500716000000e+01  7.98426570e-01  -6.59565330e-01   2.38316280e-01
C     7.363344186525000e+00   1.389978781040250e+00   1.017383387200000e+01  2.10082554e+00   1.21796420e+00   7.61794500e-02
C     8.608061416725000e+00   2.179117454551838e+00   6.824963615999999e+00  5.29395200e-01  -1.60399706e+00  -1.47302080e-01
C     2.474028678750000e+00   2.834587418648185e+00   6.746157192000000e+00  2.26803600e-01  -1.18179400e-02  -3.06938660e-01
C     2.453165017350000e+00   2.829356036572666e+00   1.012359819200000e+01  1.57627420e-01   1.90485200e-01   4.05773160e-01
C     3.713371962450000e+00   3.494536840904710e+00   1.011026067200000e+01 -2.26731314e+00   1.97732956e+00   1.12544730e-01
C     3.746750736975000e+00   2.140599814163811e+00   6.612951584000000e+00 -2.74153997e+00  -1.60430226e+00   8.49663250e-01
C     4.914280510125000e+00   2.843411269170272e+00   6.728001600000000e+00  1.88129365e+00   1.54476651e+00   5.35148440e-01
C     4.901738183400000e+00   2.781889982847175e+00   1.013740980800000e+01  1.98620324e+00   1.74275796e+00   4.12117200e-01
C     6.151922611050000e+00   3.529446578584727e+00   1.015206476000000e+01  4.33778500e-02   2.64638180e-01   4.27103860e-01
C     6.172284262874999e+00   2.170829704455212e+00   6.849193376000000e+00 -4.98666480e-01  -8.40274750e-01  -3.31106380e-01
C     7.377183855075000e+00   2.918272816743484e+00   6.824694880000000e+00  9.33221620e-01  -8.83508270e-01   1.92344460e-01
C     7.418574039825000e+00   2.826515940339492e+00   1.015771256800000e+01 -1.78161694e+00   4.25252680e-01   2.16876720e-01
C     8.616955937850001e+00   3.579133628936066e+00   1.019138929600000e+01  1.07035909e+00  -1.76030785e+00  -1.67432800e-02
C     2.464734864600000e+00   4.245389580077647e+00   6.836649280000000e+00 -5.92314590e-01   4.89044270e-01   2.22537250e-01
C     3.641414286374999e+00   5.000144753777573e+00   6.913121400000000e+00  2.79140349e+00  -1.41968755e+00  -2.67614960e-01
C     3.649642407075000e+00   4.956461823255142e+00   1.013568764000000e+01  8.34636100e-01   1.97070080e-01   3.98160390e-01
C     4.881936480975000e+00   5.669727332621953e+00   1.019513868000000e+01  1.11921283e+00   3.21261200e-02   1.55058620e-01
C     4.896824945400000e+00   4.279401953146320e+00   6.836647920000001e+00  2.30382120e-01   2.44968890e-01  -3.93344080e-01
C     6.143444058675000e+00   5.004489786565269e+00   6.774723856000000e+00 -5.65027100e-02  -6.95051310e-01   2.85994480e-01
C     6.140788070475000e+00   4.974406938034334e+00   1.026106386400000e+01  3.28432820e-01  -1.53969919e+00  -2.75600370e-01
C     7.420237138350000e+00   5.630459305340470e+00   1.038715313600000e+01 -2.88774619e+00   2.68499351e+00  -1.00581164e+00
C     7.407513116475000e+00   4.344574947301189e+00   6.782296064000000e+00 -1.03418345e+00  -1.75385161e+00   1.18464720e-01
C     8.649464505749998e+00   4.982155385576569e+00   6.851985727999999e+00 -1.05257270e-01   2.03802190e-01  -9.72001400e-02
C     8.627496881774999e+00   4.977187282541674e+00   1.032650856000000e+01  4.94291610e-01  -1.60207350e-01  -4.46545100e-01
C     9.829336570875000e+00   5.737749773226471e+00   1.025292984000000e+01  8.88984090e-01  -2.88498362e+00  -2.44643300e-01
