72
Lattice="7.395 0 0 3.6975 6.40425786098592 0 0 0 13.6 " PBC="1 1 1" Properties=species:S:1:pos:R:3:force:R:3 Energy="-575.09012653"
C     3.682077875400000e+00   6.229290973561656e+00   2.789245760000000e-01  1.15008750e-01  -5.38918173e+00   1.43728191e+00
C     1.230741456675000e+00   4.389307343559138e-01   3.428418560000000e-01  4.93222550e-01   7.28538370e-01  -1.11902861e+00
C     1.457914229775000e+00   1.154142241516064e+00   3.406607968000000e+00  8.30371650e-01  -1.31363465e+00  -5.50354260e-01
C     2.671852323750000e+00   1.814999467324243e+00   3.326565168000000e+00  2.05969524e+00   1.89593856e+00   5.23157340e-01
C     6.170154318000000e+00   6.160114613775924e+00   3.076179920000000e-01 -9.85760220e-01  -2.44132510e-01  -1.12369690e-01
C     3.704082437400000e+00   4.337521874077392e-01   1.791583760000000e-01 -1.42803086e+00   7.15133320e-01   1.76769768e+00
C     3.929385643575000e+00   1.133703564896503e+00   3.345616728000000e+00 -2.70011880e-01  -1.44362690e+00  -5.19471320e-01
C     5.187098292149999e+00   1.809557128994815e+00   3.243731104000000e+00 -5.90621040e-01  -8.70862540e-01   2.00270189e+00
C     8.579106479100000e+00   6.077581021456745e+00   3.454651600000000e-01  1.12930151e+00   2.87673552e+00   4.15065420e-01
C     6.127068755550000e+00   3.760685245220904e-01   3.985724800000000e-01 -6.85443760e-01   1.43509900e+00  -1.80270301e+00
C     6.444552300599999e+00   1.089204667880129e+00   3.375168576000000e+00 -2.02959945e+00   8.10557200e-01  -3.69711680e-01
C     7.637844109200000e+00   1.827201499824901e+00   3.384686264000000e+00 -2.03262470e-01  -1.13088653e+00  -6.30139600e-02
C     1.256743459875000e+00   1.818528917873468e+00   2.288145600000000e-01 -2.88441842e+00   3.56660246e+00   7.52269700e-01
C     2.433945634200000e+00   2.574457992039133e+00   3.300131120000000e-01 -1.39987440e-01   1.86478751e+00  -5.81658430e-01
C     2.706172925475000e+00   3.267936073768166e+00   3.326837032000000e+00 -5.95139310e-01  -1.23910120e-01  -2.64459240e-01
C     3.924600671850000e+00   3.985058931686633e+00   3.241119904000000e+00  1.44177741e+00  -1.65591730e-01   1.85964338e+00
C     3.641130577200000e+00   1.874381923649836e+00   3.325232640000000e-01  2.07995891e+00  -3.62683520e-01  -1.95411414e+00
C     4.904043796500000e+00   2.539196148261973e+00   1.891799440000000e-01 -6.47548900e-02   1.35078467e+00   1.27442591e+00
C     5.110515930975000e+00   3.190367702567846e+00   3.429364168000000e+00  2.46706358e+00   3.18942343e+00  -1.73022536e+00
C     6.404168020725001e+00   3.942129718271745e+00   3.464770952000000e+00 -9.50563770e-01  -6.54906850e-01  -9.39454790e-01
C     6.112664589674999e+00   1.745747473253183e+00   1.742883520000000e-01  7.45258320e-01   5.05061330e+00   6.50902370e-01
C     7.349689356000000e+00   2.588192691530847e+00   1.989337280000000e-01  4.09253730e-01  -8.40646550e-01  -1.09165886e+00
C     7.650793271849999e+00   3.196996301580682e+00   3.382801848000000e+00 -3.39597360e-01   3.99838417e+00   6.77090220e-01
C     8.886321290175001e+00   3.966306688289346e+00   3.414557440000000e+00 -1.15378182e+00   1.26686577e+00  -3.92855130e-01
C     2.385420531600000e+00   4.078269062284217e+00   3.215649280000000e-01  2.35137586e+00  -3.73692949e+00   9.22310390e-01
C     3.633748444500000e+00   4.743600750931442e+00   3.387262240000000e-01  2.00519158e+00   5.06211550e-01  -4.62135240e-01
C     3.994694438175000e+00   5.449596595073632e+00   3.337268096000000e+00 -2.89188924e+00  -3.37548293e+00  -2.16046000e-03
C     5.175024919350000e+00   6.149243642228887e+00   3.337321680000000e+00  1.71612690e+00  -1.24106474e+00   4.70145380e-01
C     4.932542092875000e+00   4.007832152423901e+00   3.307801520000000e-01 -2.18309208e+00  -7.46242240e-01  -8.76050810e-01
C     6.139251241575000e+00   4.754732824071430e+00   3.471555040000000e-01 -8.45958860e-01  -6.50490600e-02  -1.43445295e+00
C     6.419477889225000e+00   5.368508315668298e+00   3.365128376000000e+00 -5.10329330e-01   2.07436040e-01   7.17644750e-01
C     7.651992334125000e+00   6.089908769539195e+00   3.419731152000000e+00 -1.95657625e+00   2.54845252e+00  -5.17430900e-01
C     7.345400773650000e+00   4.125538505293406e+00   1.213553840000000e-01  5.83868190e-01  -6.11143208e+00   2.68481328e+00
C     8.569688909624999e+00   4.719484429235776e+00   4.917366960000000e-01 -8.88599790e-01  -1.06994700e-01  -3.16279032e+00
C     8.882075303025001e+00   5.518073866071367e+00   3.443866256000000e+00 -1.17150807e+00  -7.72645023e+00  -1.77598000e-02
C     1.008990324127500e+01   6.070582000169287e+00   3.426725632000000e+00  4.05338693e+00   3.60488425e+00  -5.97984210e-01
C     7.338118288574999e+00   2.717077484367246e-01   6.302280256000000e+00  1.35497740e+00  -1.65312969e+00   7.64575830e-01
C     1.179015872025000e+00   9.880932841477698e-01   6.352592232000000e+00  1.97197030e-01  -1.93974047e+00   4.69752410e-01
C     1.100878823025000e+00   2.847962583103638e-01   1.041918562400000e+01 -1.24568334e+00   7.90179790e-01  -1.30726429e+00
C     2.329364471925000e+00   1.011310768252785e+00   1.023938152000000e+01 -1.62288277e+00  -1.76864462e+00  -9.73174600e-02
C     2.438697402375000e+00   2.513616773858190e-01   6.513637176000000e+00 -1.88322240e+00   3.03794502e+00  -6.01106850e-01
C     3.668953303350000e+00   9.281694759052717e-01   6.494449752000000e+00 -5.28082960e-01   1.23941575e+00   4.92750520e-01
C     3.483360655574999e+00   2.402536202128062e-01   1.006632342400000e+01  3.20839362e+00   2.94206751e+00   1.63603610e+00
C     4.809483635699999e+00   1.052017191849624e+00   1.026703684800000e+01 -3.07633310e+00  -1.27125303e+00  -1.07820835e+00
C     4.896781093049999e+00   2.958878565406764e-01   6.538223663999999e+00  1.50873029e+00  -2.12561169e+00  -1.11355342e+00
C     6.161144360924999e+00   9.811636209729355e-01   6.367421535999999e+00 -2.66143700e+00   1.76960444e+00   1.03080255e+00
C     5.998728900300000e+00   3.515252309548980e-01   1.033800328000000e+01  1.81101314e+00  -8.25134500e-01  -4.28987970e-01
C     7.248717989025000e+00   1.100990103406994e+00   1.040476078400000e+01  9.11029250e-01  -2.58591645e+00   5.70738100e-01
C     8.566412406974999e+00   2.361559006508902e+00   6.320756672000000e+00 -1.01220289e+00   2.09031037e+00   8.10786930e-01
C     2.410759573050000e+00   2.992702909464668e+00   6.473946256000000e+00 -1.33020870e-01   3.77859228e+00  -1.57495124e+00
C     2.313388794600000e+00   2.398157226773709e+00   1.023160762400000e+01 -9.66358000e-02   3.56091803e+00   9.44277190e-01
C     3.515049968400000e+00   3.187627256586973e+00   1.038376496800000e+01  1.51072157e+00  -4.02234395e+00  -1.32468518e+00
C     3.650585713274999e+00   2.330749402796014e+00   6.474941912000000e+00 -5.44230550e-01   1.28588790e-01   6.82902980e-01
C     4.861973715450000e+00   3.039405191397775e+00   6.555274120000000e+00 -1.36072318e+00   4.27247405e+00  -2.39034930e-01
C     4.799272434824999e+00   2.477485039735906e+00   1.031635221600000e+01 -9.33669650e-01  -1.08052415e+00   7.11160980e-01
C     6.037224534149999e+00   3.153347697880380e+00   1.037230588000000e+01 -1.28231780e+00   9.09714130e-01   1.00399980e-01
C     6.071612541299999e+00   2.469316600963212e+00   6.452104792000000e+00  3.57570258e+00  -4.13818289e+00  -7.84235940e-01
C     7.316147706600000e+00   3.177886124211599e+00   6.321611976000000e+00 -1.93811960e-01  -3.75699490e+00   8.17850290e-01
C     7.276581239775000e+00   2.531479081583252e+00   1.043803032800000e+01 -7.78718900e-01  -3.08534382e+00  -1.13049397e+00
C     8.483806226700001e+00   3.189314906618240e+00   1.026763919200000e+01  1.55893546e+00  -1.26281751e+00   6.03094620e-01
C     9.796642869149998e+00   4.478734350953663e+00   6.301338048000000e+00 -6.11319930e-01   3.80416750e-01   2.25588939e+00
C     3.655162700625000e+00   5.200602123520604e+00   6.391748536000000e+00 -2.34140026e+00   1.34469361e+00  -2.66556580e-01
C     3.595461830324999e+00   4.533415761797122e+00   1.040849915200000e+01 -3.74380454e+00   3.02099629e+00  -8.43348880e-01
C     4.807505916900000e+00   5.214019748205669e+00   1.035119623200000e+01 -1.81401355e+00   4.03672229e+00   6.99730550e-01
C     4.850612333250000e+00   4.537866272711772e+00   6.552743568000000e+00  4.00373230e-01  -1.22514699e+00  -2.72212020e-01
C     6.051947979149999e+00   5.319893274040145e+00   6.545099552000000e+00  3.49310660e-01  -5.47585301e+00  -1.87461900e-02
C     5.991014399325000e+00   4.566251544611757e+00   1.030837799200000e+01  7.10427240e-01  -1.82398533e+00  -3.29389860e-01
C     7.155210580425000e+00   5.259008570948333e+00   1.013540843200000e+01  3.93273455e+00   6.60236970e-01   5.86068510e-01
C     7.235870359724998e+00   4.513259897204659e+00   6.432712688000001e+00  3.58831513e+00   4.86618748e+00   6.18460190e-01
C     8.548209318674999e+00   5.277566957460198e+00   6.445318392000000e+00  4.11129390e-01  -2.59556383e+00  -4.46623420e-01
C     8.465914985550000e+00   4.582409679320273e+00   1.024055370400000e+01  2.29721970e-01   1.26040117e+00  -7.56575860e-01
C     9.705999322200000e+00   5.290471601090676e+00   1.024585090400000e+01  7.83315010e-01   5.91509900e-01   1.22201151e+00
