72
Lattice="7.395 0 0 3.6975 6.40425786098592 0 0 0 13.6 " PBC="1 1 1" Properties=species:S:1:pos:R:3:force:R:3 Energy="-578.71651519"
C     3.716134956299999e+00   6.309392613001077e+00   1.325079837600000e+01 -2.49502403e+00   9.35216860e-01  -2.57676270e-01
C     1.154353066350000e+00   6.589858376189088e-01   1.320210031200000e+01  2.97537466e+00  -2.04552360e-01   3.73814640e-01
C     1.303650573450000e+00   8.183018706138278e-01   3.575323720000000e+00 -5.70851860e-01   1.34654390e-01   1.93940530e-01
C     2.549931439424999e+00   1.522911064844169e+00   3.545285400000000e+00 -2.63474789e+00   2.36872307e+00  -1.33175210e-01
C     6.048174865275000e+00   6.356209467107300e+00   1.326799244800000e+01  4.71930483e+00  -1.43879406e+00   1.48797570e-01
C     3.667196916900000e+00   6.850233726299965e-01   1.325066863200000e+01  4.69531210e-01  -1.25394058e+00   2.13558180e-01
C     3.705423150900000e+00   7.863716498605968e-01   3.600906544000000e+00  2.88299916e+00   2.98472151e+00   3.54903830e-01
C     4.925380220249999e+00   1.540987146696598e+00   3.696370520000000e+00  2.58015849e+00   1.17432030e-01  -1.01588726e+00
C     8.678119724024999e+00   6.328276656025125e+00   1.329616253600000e+01 -3.26454735e+00   6.36858570e-01  -4.46811180e-01
C     6.203652669675000e+00   6.700107034823202e-01   1.327958372800000e+01 -2.00249686e+00  -1.87675241e+00   3.04326560e-01
C     6.246234004050000e+00   8.526015386901012e-01   3.689470424000000e+00 -2.42448305e+00  -1.23899595e+00  -8.61360800e-02
C     7.462135951200000e+00   1.542486895802252e+00   3.592412256000000e+00  2.08090570e-01  -6.13927900e-01   1.00582220e-01
C     1.238137935675000e+00   2.067526719640582e+00   1.317536584000000e+01 -1.80679048e+00  -1.28991540e-01   7.31118950e-01
C     2.429304717075000e+00   2.778952413809372e+00   1.315021372800000e+01  1.54115493e+00   2.73601860e-01   4.21584200e-02
C     2.529715617000000e+00   3.037225310107388e+00   3.547000088000000e+00  2.53874420e-01  -3.43186064e+00   6.07224840e-01
C     3.825241451850000e+00   3.694103506464572e+00   3.702963664000000e+00 -4.71827437e+00  -3.04225120e-01  -1.16836663e+00
C     3.698071892325000e+00   2.126836679767199e+00   1.317873619200000e+01 -1.30190104e+00  -2.70532480e+00   8.96983850e-01
C     4.914285464774999e+00   2.791369117033497e+00   1.334033996000000e+01  4.85097760e-01  -1.76415779e+00  -3.70887460e-01
C     4.985952739200000e+00   2.999829439526119e+00   3.625750072000000e+00  2.53533470e-01  -3.50625289e+00   8.70473870e-01
C     6.206117238300001e+00   3.653558278038069e+00   3.657471800000000e+00  1.45046102e+00   7.07195640e-01  -3.26791840e-01
C     6.129199772700000e+00   2.073266279577293e+00   1.336047911200000e+01  1.99871989e+00  -2.75630400e-02  -3.34637400e-02
C     7.409312985525000e+00   2.774500814170886e+00   1.334141680800000e+01 -1.14920979e+00  -2.07602498e+00  -1.38501510e-01
C     7.421517175875000e+00   2.933821714401778e+00   3.584664880000000e+00  3.65886040e-01   5.61245870e-01  -1.41591270e-01
C     8.619384899549999e+00   3.656610163078673e+00   3.550867112000000e+00  2.80402812e+00   1.46548825e+00   6.39966350e-01
C     2.423090180925000e+00   4.184471062504333e+00   1.315269940000000e+01  1.21449008e+00   1.15627721e+00   3.31407100e-01
C     3.699181179300000e+00   4.918934217089693e+00   1.317479137600000e+01 -3.00091560e-01  -2.12203416e+00   9.52940760e-01
C     3.759822065024999e+00   5.070717241776787e+00   3.707667767999999e+00 -1.40819730e-01   1.99251414e+00   1.36882380e-01
C     4.938231325199999e+00   5.797970226693045e+00   3.685940680000000e+00  4.06212926e+00   1.15331330e-01  -4.82567610e-01
C     4.947689160450000e+00   4.152313938895122e+00   1.333014526400000e+01 -1.41388617e+00   3.38829762e+00  -4.17548750e-01
C     6.154390026750000e+00   4.867572709478279e+00   1.336236216800000e+01 -1.55144890e-01   1.69997126e+00   2.55858940e-01
C     6.262619068575000e+00   5.060726087174558e+00   3.671505504000000e+00 -2.34943248e+00   1.87515788e+00  -3.31173970e-01
C     7.476088393500000e+00   5.834244839808185e+00   3.619421584000000e+00 -1.44555703e+00  -3.50738897e+00   4.36962690e-01
C     7.404472551300000e+00   4.127893863249156e+00   1.340735477600000e+01 -1.15665904e+00   3.97543266e+00  -9.11233590e-01
C     8.587887597900000e+00   4.875962927700665e+00   1.321365582400000e+01  1.62948090e+00   1.49533012e+00   1.14032153e+00
C     8.669793101924999e+00   5.093778590075175e+00   3.677312840000000e+00  1.25859421e+00   4.79554200e-01  -6.75011020e-01
C     9.947934438000001e+00   5.808798161627261e+00   3.710202672000000e+00 -1.84146201e+00  -2.37764610e-01  -2.01837370e-01
C     7.372267880925000e+00   6.574412587082340e-02   7.005450712000000e+00  4.03682291e+00  -1.12488023e+00  -6.24974670e-01
C     1.263950996625000e+00   8.217370504873531e-01   6.876829392000000e+00 -3.60218530e-01  -2.75751116e+00   3.46224950e-01
C     1.155791504775000e+00   6.235923863427258e-01   1.021675819200000e+01  2.21843496e+00  -1.36112657e+00   2.07176790e-01
C     2.451629371650000e+00   1.326343064942095e+00   1.018729991200000e+01 -3.18901317e+00  -1.15011730e-01  -7.94386300e-02
C     2.539126161225000e+00   6.690598633178461e-02   6.800091935999999e+00 -3.18177000e+00  -2.81864710e-01   4.57488210e-01
C     3.749229799800000e+00   7.555033831457113e-01   6.759096640000000e+00 -3.53964460e-01   1.00519734e+00   3.65603950e-01
C     3.627982008375000e+00   5.811558524850078e-01   1.030233687200000e+01 -4.33449100e-01   2.38006413e+00  -8.10316190e-01
C     4.840780458899999e+00   1.267441696466946e+00   1.023357472800000e+01  1.92095634e+00   2.04686598e+00   3.29465160e-01
C     4.964201382000001e+00   5.804242941096600e-02   6.890447887999999e+00  1.15371769e+00   3.58719480e-01   2.95218960e-01
C     6.208261825275000e+00   7.708148749651350e-01   7.008857920000000e+00 -2.34356959e+00   3.93478240e-01  -9.11336290e-01
C     6.079744896750000e+00   6.045574590034981e-01   1.029240098400000e+01  1.26622114e+00  -7.79610400e-02  -4.21865150e-01
C     7.349391004725000e+00   1.313102710114596e+00   1.024717187200000e+01 -2.37047866e+00   2.56648720e-01  -5.78610550e-01
C     8.643507056775000e+00   2.206587622046207e+00   6.880414759999999e+00 -2.74595530e-01   1.38583292e+00  -7.72360080e-01
C     2.488899543075000e+00   2.905238871146812e+00   6.755068048000000e+00 -6.51999160e-01   4.80574500e-02   1.09873377e+00
C     2.388140671425000e+00   2.760329984718907e+00   1.010748763200000e+01  2.96767240e-01  -1.53618827e+00   5.09189280e-01
C     3.597177470325001e+00   3.467262451573121e+00   1.012943449600000e+01  2.27547406e+00  -1.18270022e+00   1.89508260e-01
C     3.692563134975000e+00   2.189667828950402e+00   6.741749840000000e+00  2.72936154e+00   6.46056140e-01   3.93310540e-01
C     5.002088037600000e+00   2.933053779841786e+00   6.825680744000000e+00 -3.40696726e+00  -1.34063223e+00   1.24085300e-02
C     4.909595038125000e+00   2.700688924460927e+00   1.019696638400000e+01 -3.35839112e+00   9.15083860e-01  -2.28429420e-01
C     6.116413152150001e+00   3.416441143112197e+00   1.024495833600000e+01 -1.43210564e+00   1.45689710e+00  -4.01444650e-01
C     6.178527454650000e+00   2.182283399424929e+00   6.892251792000000e+00  1.40745528e+00   2.05290524e+00   2.32281150e-01
C     7.402261557225000e+00   2.973219684075241e+00   6.874615720000000e+00  6.45527230e-01  -3.11014305e+00   2.85029610e-01
C     7.293813290625000e+00   2.724603319906268e+00   1.017949120000000e+01  2.95217115e+00  -2.88014410e-01   7.03364920e-01
C     8.545196299875000e+00   3.430806597960542e+00   1.020201307200000e+01  7.95678700e-02   1.66862679e+00  -3.53779170e-01
C     9.875553435150000e+00   4.328562701586724e+00   6.918575680000000e+00  1.37635618e+00  -1.02008701e+00  -7.25205090e-01
C     3.718450108950000e+00   4.997292873709937e+00   6.932773944000000e+00 -1.58858615e+00   3.25687371e+00   3.62872570e-01
C     3.576625360275000e+00   4.865876669869215e+00   1.017264428000000e+01  2.68374362e+00   3.97113590e-01   4.10083930e-01
C     4.828491373949999e+00   5.571860474006628e+00   1.025711700800000e+01  1.34228469e+00   2.02488460e-01  -6.27519270e-01
C     4.930944070350000e+00   4.361244141786933e+00   6.885990216000000e+00  1.49055995e+00  -2.29447140e+00  -2.30459300e-01
C     6.146315722050000e+00   5.030882693845009e+00   6.868162519999999e+00  2.75659063e+00   2.16680864e+00  -2.73950920e-01
C     6.109461075675000e+00   4.858899230930746e+00   1.027184050400000e+01 -1.27419400e+00   9.76400030e-01   1.57834780e-01
C     7.312422031650000e+00   5.640506817411867e+00   1.034757169600000e+01  1.19980055e+00  -5.04625670e+00  -4.87691280e-01
C     7.430950237874999e+00   4.355908178180560e+00   6.848179632000001e+00 -9.64891400e-01   5.75234240e-01   2.55140320e-01
C     8.698836557700000e+00   5.056602961921712e+00   6.900010320000000e+00 -2.51037472e+00   2.70848200e-02  -6.64142400e-02
C     8.615819659124998e+00   4.888373034539194e+00   1.030632439200000e+01 -3.99664280e+00  -8.95103240e-01  -4.27680220e-01
C     9.795261852900000e+00   5.595347321197234e+00   1.026495700000000e+01 -1.82517520e-01   2.52443590e-01  -1.70494140e-01
