72
Lattice="7.395 0 0 3.6975 6.40425786098592 0 0 0 13.6 " PBC="1 1 1" Properties=species:S:1:pos:R:3:force:R:3 Energy="-580.46656632"
C     3.699181881825000e+00   6.212017345219086e+00   5.749304800000000e-02 -1.65032810e-01   2.31197260e+00  -2.90723180e-01
C     1.215292377300000e+00   5.986157166461472e-01   1.359871711200000e+01 -2.10299100e-02  -1.97542430e+00   3.30615160e-01
C     1.348078956975000e+00   8.930450034592087e-01   3.328245584000000e+00 -8.13524890e-01   2.90845050e-01   2.06647620e-01
C     2.551235510700000e+00   1.670717685825989e+00   3.194144144000000e+00 -3.46200810e-01  -1.89491514e+00   4.38573710e-01
C     6.116503149300000e+00   6.245935895910111e+00   1.213941440000000e-01  1.28962241e+00   6.78623690e-01  -2.13953370e-01
C     3.668835427050000e+00   5.863044275063977e-01   1.122065280000000e-01  5.51010610e-01  -7.26550850e-01  -5.98829670e-01
C     3.757601753249999e+00   8.872743188292984e-01   3.280078736000000e+00  9.32560330e-01   1.23333054e+00   6.49068990e-01
C     4.995968379300000e+00   1.601402737900165e+00   3.450021344000000e+00  2.92076050e-01  -1.02976070e-01  -7.77319130e-01
C     8.641698757424999e+00   6.276274722627710e+00   1.806120800000000e-01 -1.94359890e+00  -1.42281036e+00  -6.80261060e-01
C     6.171825957749999e+00   5.622413251935481e-01   1.360440640000000e-01 -1.78571490e-01  -5.23721810e-01  -1.09559180e-01
C     6.243857768700000e+00   8.952745177480105e-01   3.545918208000000e+00 -4.29276650e-01   1.16890737e+00  -4.81513550e-01
C     7.478928406275000e+00   1.570364566224254e+00   3.408621584000000e+00  1.07647573e+00   2.41854266e+00  -1.88402740e-01
C     1.210050505500000e+00   2.018709687719525e+00   1.353538082400000e+01 -1.13538520e-01  -1.38380802e+00   3.20278150e-01
C     2.408158086000000e+00   2.737071961661638e+00   1.345664988000000e+01  2.29228646e+00  -2.08890731e+00   2.21387120e-01
C     2.536354663125000e+00   3.084290777503736e+00   3.213058072000000e+00  1.61279302e+00  -9.91213980e-01   9.51398730e-01
C     3.819207057900000e+00   3.732712599654839e+00   3.441846520000000e+00 -2.13361965e+00   1.75531758e+00  -8.63253180e-01
C     3.679870763699999e+00   1.998652832953577e+00   1.349956114400000e+01 -3.88831200e-02  -1.15791310e-01   1.62376429e+00
C     4.939710694950000e+00   2.692009938251634e+00   1.433699760000000e-01 -1.49632120e+00  -4.00451870e-01  -9.96889950e-01
C     5.034891185325000e+00   3.038948888025251e+00   3.392399776000000e+00 -1.68566506e+00  -2.00963530e+00   8.18413080e-01
C     6.215631645300000e+00   3.728879651325629e+00   3.434464712000000e+00  3.07519538e+00   8.72307200e-01  -3.81351860e-01
C     6.168653798549999e+00   1.993028997956397e+00   1.911406560000000e-01 -1.30578922e+00  -1.75616598e+00  -3.22472670e-01
C     7.372418221275000e+00   2.664965077521747e+00   1.253584080000000e-01  8.35453490e-01  -5.48987300e-02   1.19322040e-01
C     7.486033818075000e+00   3.064383910456869e+00   3.330707184000000e+00 -1.56337741e+00  -2.93518868e+00   2.98839720e-01
C     8.691148863600000e+00   3.757364637520494e+00   3.254195624000000e+00  1.02996634e+00   2.03824610e-01   8.80341600e-01
C     2.459691289725000e+00   4.109260739048065e+00   1.353262124800000e+01 -1.33975552e+00   1.72583285e+00   2.20610660e-01
C     3.695698947750000e+00   4.811516368514856e+00   1.357774360000000e+01 -4.50609040e-01   1.06316280e-01   5.58812250e-01
C     3.821512966799999e+00   5.178744711657317e+00   3.554922904000000e+00 -7.02295550e-01  -2.69199410e-01  -4.56369320e-01
C     5.067519219449999e+00   5.857657653777931e+00   3.468956624000000e+00 -1.50627578e+00   1.56218552e+00  -2.33352130e-01
C     4.902646622175000e+00   4.107113391387607e+00   1.383574240000000e-01  7.14546790e-01   7.34212000e-03  -2.45679750e-01
C     6.113526661800000e+00   4.819404108665547e+00   2.451534640000000e-01  1.51937559e+00  -5.45210430e-01  -1.09196400e-01
C     6.254326241625000e+00   5.147443709238831e+00   3.409132944000000e+00  2.64491900e-01  -3.45823700e-01  -1.97600280e-01
C     7.463032964699999e+00   5.867950705095680e+00   3.327373280000000e+00  1.27055379e+00  -2.90062000e-01   7.98720740e-01
C     7.383638913599999e+00   4.017868457044042e+00   2.783439920000000e-01 -6.58048900e-01   5.27120175e+00  -1.44963047e+00
C     8.597171835525000e+00   4.795449302353110e+00   8.398639199999999e-02  5.23697220e-01   1.01389156e+00   8.50333910e-01
C     8.717909556824999e+00   5.138828957735874e+00   3.445709328000000e+00 -6.58142100e-02   3.05414910e+00  -6.27657290e-01
C     9.961313472000001e+00   5.925090646489015e+00   3.562368360000000e+00 -3.63491080e-01  -3.83762193e+00  -3.75938580e-01
C     7.415210461050000e+00   1.064914086328092e-01   6.882214719999999e+00  1.06842408e+00   2.52013060e-01  -9.32439600e-02
C     1.258776826050000e+00   8.272051979759569e-01   6.772410495999999e+00 -5.34518650e-01   8.50972020e-01   4.63528900e-02
C     1.125330538425000e+00   5.500916154796063e-01   1.013642163200000e+01  7.67964060e-01   7.42566630e-01   1.99706960e-01
C     2.342738403375000e+00   1.259422733072704e+00   9.939851856000001e+00  1.29567022e+00   2.77394550e-01   9.59391360e-01
C     2.490914162925000e+00   1.481511700546878e-01   6.792957240000000e+00  4.52270170e-01  -1.82692727e+00   2.49818040e-01
C     3.759232387725000e+00   8.258724078727122e-01   6.779281352000000e+00 -6.63697310e-01  -9.61622810e-01   3.73745600e-02
C     3.629530447425000e+00   5.379652813068535e-01   1.005606140800000e+01 -2.53880826e+00   7.19775480e-01  -4.53677180e-01
C     4.834648635824999e+00   1.248166353287654e+00   1.008053093600000e+01  5.60941440e-01   6.29319500e-01   9.18113680e-01
C     4.993938008100000e+00   9.740312630368321e-02   6.905239520000000e+00 -1.34674900e-02   1.12563685e+00  -1.55437170e-01
C     6.232816405125000e+00   8.487669892964262e-01   6.931168328000000e+00 -1.74039282e+00  -6.47778340e-01  -9.12757220e-01
C     6.058502500424999e+00   5.902336318312434e-01   1.027491655200000e+01  5.02174330e-01  -1.48398212e+00  -5.73687490e-01
C     7.307371764299999e+00   1.261313718291027e+00   1.027082458400000e+01 -6.44299080e-01   8.32920600e-01  -7.92316600e-01
C     8.625505075500000e+00   2.270048886160255e+00   6.700842808000000e+00  9.11230760e-01  -1.09638690e-01  -2.13084410e-01
C     2.503835409450000e+00   2.964274408824129e+00   6.622675448000000e+00 -1.14125608e+00  -1.26258015e+00   1.13690797e+00
C     2.354310210300000e+00   2.726633405605309e+00   9.913827440000000e+00  7.25402260e-01  -2.79786380e+00   6.06329170e-01
C     3.593381136150000e+00   3.373127354012817e+00   9.970293280000000e+00  8.17356890e-01   1.77867297e+00   9.17173530e-01
C     3.724825190550000e+00   2.221481812423474e+00   6.682137912000000e+00  8.31202610e-01   1.90574385e+00   1.42045720e-01
C     4.958526902700000e+00   2.992918989124865e+00   6.750034688000000e+00 -6.26993190e-01  -2.72781564e+00   5.44276800e-02
C     4.840104629850000e+00   2.652794618012339e+00   1.010837027200000e+01 -1.17412515e+00   1.44945564e+00  -4.79331380e-01
C     6.041265088200000e+00   3.390330983816978e+00   1.022969546400000e+01  1.16653358e+00  -2.16194230e-01  -4.83742660e-01
C     6.202682334750000e+00   2.257918197092158e+00   6.780745800000000e+00 -4.17005370e-01   1.37294829e+00   3.99145920e-01
C     7.404757332749999e+00   3.018117310185978e+00   6.734967248000000e+00  7.00883990e-01  -8.26309720e-01   3.50468730e-01
C     7.300044243675000e+00   2.672115047166966e+00   1.019103528800000e+01  6.80974610e-01   1.42273997e+00   3.09870450e-01
C     8.573328728625000e+00   3.420726936514688e+00   1.010643798400000e+01 -2.89310847e+00   4.62960300e-02  -1.43148440e-01
C     9.864301424999999e+00   4.362088863398667e+00   6.810947184000000e+00  1.39405468e+00   1.31786640e-01  -5.36713230e-01
C     3.686104415925000e+00   5.092025616613736e+00   6.846073807999999e+00  5.30116690e-01  -1.03142680e-01   1.20733270e-01
C     3.555249336300000e+00   4.821920853919369e+00   1.013628699200000e+01  2.09125450e+00  -1.38540400e-01   2.03569250e-01
C     4.822751005200000e+00   5.561617119729872e+00   1.021904000000000e+01 -4.19556120e-01  -2.35377163e+00  -6.48772370e-01
C     4.911055069949999e+00   4.371876234515790e+00   6.823465304000001e+00  1.54283808e+00   1.42207599e+00  -1.27937160e-01
C     6.177851477699999e+00   5.081016761394975e+00   6.868730864000000e+00 -8.94188560e-01   2.56276914e+00  -5.35841670e-01
C     6.048882381900000e+00   4.816793605076653e+00   1.019823580800000e+01  4.05394760e-01   8.13188030e-01   9.00852700e-02
C     7.315962350925000e+00   5.542301942066690e+00   1.016394177600000e+01 -1.34976367e+00  -8.77730270e-01   7.53254000e-02
C     7.423803081299999e+00   4.460877102592311e+00   6.814474615999999e+00 -6.08939260e-01  -2.94721321e+00  -8.28244200e-02
C     8.676785813924999e+00   5.079158309806582e+00   6.874534800000000e+00 -8.78557280e-01   1.76832973e+00  -1.25760880e-01
C     8.543623753125001e+00   4.848146738154120e+00   1.016708609600000e+01 -3.58046460e-01  -7.35842090e-01   2.61190000e-03
C     9.750427003199999e+00   5.562814715949691e+00   1.020794158400000e+01  3.67920900e-01  -9.87273200e-02  -1.38436850e-01
