72
Lattice="7.395 0 0 3.6975 6.40425786098592 0 0 0 13.6 " PBC="1 1 1" Properties=species:S:1:pos:R:3:force:R:3 Energy="-582.35672956"
C     1.649643322500000e-02   1.472934477994980e-02   1.356374498400000e+01  1.71862200e-02  -1.03391405e+00   7.69624900e-02
C     1.277135653050000e+00   6.904920965018077e-01   1.359070372000000e+01 -1.34806393e+00   1.08873658e+00  -3.53601200e-01
C     1.221570769275000e+00   7.521959041739142e-01   3.424733639999999e+00  1.52254671e+00  -1.57330376e+00  -4.39474360e-01
C     2.465850141525000e+00   1.447939876376394e+00   3.418229848000000e+00 -5.88421000e-02  -1.08395800e-01  -2.74288380e-01
C     6.191801331750000e+00   6.394281179020535e+00   1.358000555200000e+01 -4.31890500e-01   7.34873010e-01   1.04316260e-01
C     3.720649381950000e+00   7.287504925316617e-01   1.356420425600000e+01 -1.29128193e+00  -1.14528950e+00  -2.62081980e-01
C     3.690418474050000e+00   7.204792654203144e-01   3.401462136000000e+00 -8.06694040e-01  -2.23952750e-01   9.38785400e-02
C     4.903077085125000e+00   1.398637593837284e+00   3.419622216000000e+00  1.29339852e+00   7.93001290e-01  -1.45630720e-01
C     8.601701457899999e+00   6.390941998972331e+00   1.358480812000000e+01  9.64090530e-01   3.23694930e-01  -9.70722200e-02
C     6.138485341425000e+00   6.399000604722727e-01   1.359958996000000e+01  1.22465384e+00   2.88155090e+00  -2.20450620e-01
C     6.164061836325000e+00   6.875488917170874e-01   3.421011184000000e+00  1.55592900e-02   8.07665250e-01  -1.65073030e-01
C     7.408780767374999e+00   1.430172159539924e+00   3.391774992000000e+00 -1.32720673e+00  -9.43816500e-01   2.33680810e-01
C     1.255841417775000e+00   2.116270935149771e+00   1.356356124800000e+01 -9.31355260e-01   1.24060283e+00   4.18380190e-01
C     2.480875376475000e+00   2.844420964464480e+00   1.358174213600000e+01 -8.99854130e-01   7.78045330e-01  -7.57561820e-01
C     2.479756439025000e+00   2.858205489082344e+00   3.384970776000000e+00 -1.31226068e+00   1.37170492e+00   2.74867680e-01
C     3.687016330350000e+00   3.603520274356002e+00   3.444954800000000e+00  9.49346850e-01  -1.88380306e+00  -5.63609230e-01
C     3.706415707800000e+00   2.120976207442092e+00   1.349572975200000e+01 -3.97950440e-01   9.16660360e-01   1.39953558e+00
C     4.926000438899999e+00   2.804869740900427e+00   4.155833599999999e-02  1.23094870e-01   1.77230333e+00  -9.17235260e-01
C     4.888916251725000e+00   2.828566071365635e+00   3.415823871999999e+00  1.74717807e+00   5.63866940e-01   4.68426420e-01
C     6.181871362724999e+00   3.501938049585776e+00   3.442484496000000e+00 -1.61194905e+00   1.80731943e+00  -4.48846120e-01
C     6.132327487950000e+00   2.096200055059110e+00   1.183132000000000e-02  1.59414696e+00   2.56804450e-01   2.03278040e-01
C     7.377277660650000e+00   2.870331887297675e+00   1.359379200800000e+01  5.91980100e-01  -1.53931931e+00   1.01367080e-01
C     7.414827400049999e+00   2.824898545016949e+00   3.389189632000000e+00 -4.09870180e-01   1.16351196e+00   6.28843000e-03
C     8.611281754349999e+00   3.589417073867025e+00   3.359408624000000e+00  1.01749997e+00  -8.37843110e-01   7.84433950e-01
C     9.819101262299998e+00   4.302481489537031e+00   1.355810207200000e+01  2.10426346e+00  -1.22789108e+00  -4.58188700e-02
C     3.705600187200000e+00   5.006790388116316e+00   1.353314552800000e+01 -5.84178740e-01  -1.26776535e+00   5.85795700e-01
C     3.725793417900000e+00   5.004121477695741e+00   3.417484296000000e+00 -3.01100870e-01  -1.10224310e-01   2.06074700e-02
C     4.950575244075000e+00   5.714700849188331e+00   3.391526656000000e+00  2.05969010e-01  -2.83167000e-01   4.24030300e-01
C     4.935975850200000e+00   4.262492791118563e+00   1.782130400000000e-02 -6.35683180e-01  -2.72900100e-01  -1.98865210e-01
C     6.153748325624999e+00   4.990503912080287e+00   1.746063200000000e-02  1.38643590e-01  -4.70450230e-01   1.61185600e-02
C     6.181554265125000e+00   4.962431360091605e+00   3.416869848000000e+00 -2.97051070e-01   8.21371700e-02  -1.78277660e-01
C     7.402934391299999e+00   5.717551448404396e+00   3.390416216000000e+00 -8.25971300e-01  -8.76970460e-01   6.04527560e-01
C     7.387677212174999e+00   4.311822676009048e+00   1.192733600000000e-02 -7.22542310e-01  -2.53326346e+00  -2.30529910e-01
C     8.598031689150000e+00   4.995734589687442e+00   1.356118084000000e+01  4.94599900e-01  -4.85556500e-01   3.57335970e-01
C     8.617611097874999e+00   5.018085129405949e+00   3.465818560000000e+00  6.36138000e-01  -1.51583166e+00  -1.06725806e+00
C     9.877683823725000e+00   5.667069309439738e+00   3.424494144000000e+00 -4.01494070e-01   1.78905908e+00   2.65818220e-01
C     3.707145779175000e+00   6.404006749049310e+00   6.839210295999999e+00 -9.58705100e-02   3.59602540e-01   3.11646170e-01
C     1.243649983800000e+00   7.356769535775661e-01   6.827300231999999e+00 -7.21665420e-01  -7.63185520e-01  -1.69908350e-01
C     1.256700457950000e+00   6.930025655829276e-01   1.019859947200000e+01 -2.32345884e+00   2.81292870e-01   1.01877160e-01
C     2.453340833475000e+00   1.388458025968814e+00   1.017545798400000e+01  5.07698790e-01   1.39661568e+00   4.47906170e-01
C     2.465067676575000e+00   2.984044737093420e-02   6.758676943999999e+00  3.07608360e-01  -8.36145960e-01   4.21112360e-01
C     3.724747653975000e+00   6.792241250100306e-01   6.739715688000000e+00 -3.93544000e-03   8.23018620e-01   1.92137640e-01
C     3.663744191400000e+00   6.926817122641417e-01   1.026027696800000e+01  1.73151070e+00   4.02386470e-01  -8.57796860e-01
C     4.928772639525000e+00   1.412184904744013e+00   1.018924702400000e+01 -4.96557410e-01   2.52249480e-01   8.75868450e-01
C     4.986390597150000e+00   3.946559863646401e-03   6.806853992000000e+00 -1.43993031e+00  -1.32922430e-01   2.14500060e-01
C     6.188845365375000e+00   7.430209081933639e-01   6.880803992000000e+00  2.98724740e-01  -3.39791700e-01  -9.37806520e-01
C     6.179637702975000e+00   7.209613139094366e-01   1.023588183200000e+01 -7.04497740e-01  -1.88638730e-01  -5.46650880e-01
C     7.389255748875000e+00   1.470184809882789e+00   1.020244432800000e+01  1.23649431e+00  -2.53856804e+00  -1.67515760e-01
C     8.615214637200001e+00   2.143524190430423e+00   6.841807759999999e+00  2.29509120e-01  -3.85507660e-01  -6.58105500e-01
C     2.459122540275000e+00   2.797135382725484e+00   6.754517111999999e+00  5.45479020e-01   1.29871513e+00   6.70397570e-01
C     2.467615180125000e+00   2.824221166663096e+00   1.017844454400000e+01 -1.07629000e-03   7.33929420e-01   2.32586000e-03
C     3.692055468225000e+00   3.576851983988283e+00   1.016702054400000e+01 -1.10531130e-01  -1.73974551e+00   2.13670530e-01
C     3.696109924875000e+00   2.097079423705867e+00   6.739694744000000e+00  3.48005900e-01   5.99007050e-01   1.62060120e-01
C     4.914459395175000e+00   2.853235272642355e+00   6.787630800000000e+00  7.42331420e-01  -5.40511710e-01  -1.61414760e-01
C     4.926340387050000e+00   2.857630706939409e+00   1.020929478400000e+01  1.35973150e-01  -1.08581920e+00  -5.57551990e-01
C     6.167032481774999e+00   3.541345881816343e+00   1.018305657600000e+01 -4.59353740e-01   5.36112690e-01   6.49102700e-02
C     6.184867262099999e+00   2.175633602318577e+00   6.785997848000000e+00 -1.32195824e+00  -1.32739893e+00   5.87206680e-01
C     7.397202896550000e+00   2.853664293876396e+00   6.797417632000000e+00 -2.09181890e-01   1.79522483e+00   1.10322690e-01
C     7.406145965850000e+00   2.862025436768098e+00   1.015921523200000e+01 -1.63474870e-01  -2.78512000e-03   5.65713250e-01
C     8.644091002949999e+00   3.555528943400835e+00   1.021733823200000e+01 -1.94372540e-01   4.50296430e-01  -3.87993730e-01
C     2.470548776625000e+00   4.228163471328397e+00   6.828295751999999e+00 -1.06694496e+00   8.72638210e-01  -4.15634000e-01
C     3.671745359550000e+00   4.972511469835510e+00   6.820417815999999e+00  1.03510065e+00  -1.66516120e-01   1.56998250e-01
C     3.688240942350000e+00   4.971440037495532e+00   1.015829464800000e+01  3.41551400e-01   3.53330520e-01   4.49124720e-01
C     4.932669360824999e+00   5.665229750412032e+00   1.021999254400000e+01 -7.71631220e-01   9.55012050e-01  -4.47931540e-01
C     4.925930482200000e+00   4.258389198852188e+00   6.822765992000000e+00 -9.71536850e-01   1.03335824e+00  -1.98883810e-01
C     6.135641261400000e+00   5.011868068003197e+00   6.813576064000000e+00  1.10172450e-01  -6.16510950e-01  -4.22560500e-01
C     6.137270010149999e+00   4.960135753861689e+00   1.020815619200000e+01  9.35073980e-01   7.88607400e-02   1.65204170e-01
C     7.357707680550000e+00   5.694547482256433e+00   1.024752533600000e+01  9.32547350e-01  -8.28959500e-01   1.04445280e-01
C     7.354492001775000e+00   4.306356385755224e+00   6.776938616000000e+00  1.65613856e+00  -6.70610510e-01   3.83378900e-01
C     8.623765623599999e+00   4.992741495733992e+00   6.822904031999999e+00  5.53275460e-01  -9.77511240e-01  -2.02243650e-01
C     8.616388963200000e+00   4.991395704987292e+00   1.025552730400000e+01  4.32376910e-01  -3.83659550e-01  -4.57684930e-01
C     9.871820587049999e+00   5.675711407123758e+00   1.019851624000000e+01 -1.02065143e+00   1.30555099e+00   3.63171890e-01
