72
Lattice="7.395 0 0 3.6975 6.40425786098592 0 0 0 13.6 " PBC="1 1 1" Properties=species:S:1:pos:R:3:force:R:3 Energy="-583.36137765"
C     7.398109042875000e+00   1.187816918067780e-02   1.358806042400000e+01  3.11330820e-01  -8.83115290e-01   2.94891800e-02
C     1.253185096800000e+00   7.005040008995028e-01   1.359840594400000e+01 -7.14417450e-01   4.58786450e-01  -1.54053280e-01
C     1.216320726000000e+00   7.338861949947528e-01   3.409630296000000e+00  1.56925842e+00  -1.08204952e+00  -1.80239340e-01
C     2.464122854400000e+00   1.435310487748738e+00   3.406859840000000e+00  1.77669410e-01  -5.80398570e-01  -1.04362940e-01
C     6.171166471650000e+00   6.394896243945410e+00   1.359304808800000e+01  1.64902360e-01   7.76612350e-01   5.91684200e-02
C     3.713829158325000e+00   7.267490979078330e-01   1.358964264800000e+01 -1.08488363e+00  -1.20438147e+00  -1.34441910e-01
C     3.704782485075000e+00   7.188412483874622e-01   3.400187544000000e+00 -1.23434868e+00  -5.86106930e-01   2.94944500e-02
C     4.911595755375000e+00   1.410511728335510e+00   3.406936136000000e+00  1.18814974e+00   5.54651340e-01  -7.19400600e-02
C     8.613606668399999e+00   6.399499624495178e+00   1.359543257600000e+01  6.66450660e-01   2.64608500e-02  -3.33754400e-02
C     6.151203040574999e+00   6.723109848204750e-01   7.020319999999999e-04  3.33643340e-01   1.93261228e+00  -9.17256300e-02
C     6.160612253700000e+00   7.025938383243781e-01   3.407512232000000e+00  3.50543310e-01   7.27818800e-02  -8.29479300e-02
C     7.413071679149999e+00   1.433037744719381e+00   3.396431496000000e+00 -1.74774766e+00  -9.59207860e-01   1.03554310e-01
C     1.243871944725000e+00   2.121646541112298e+00   1.358654280000000e+01 -4.36595000e-01   8.58274020e-01   1.88976410e-01
C     2.476986530850000e+00   2.840481385241901e+00   1.359710088800000e+01 -8.58439850e-01   6.52495390e-01  -3.25386230e-01
C     2.480409898200000e+00   2.837828869721446e+00   3.394199872000000e+00 -1.36603371e+00   1.58092499e+00   1.03830980e-01
C     3.686579692575000e+00   3.586185293223133e+00   3.416660680000000e+00  9.56491990e-01  -1.66296375e+00  -2.37467820e-01
C     3.700867793925000e+00   2.124287785138919e+00   1.356104946400000e+01 -9.62821000e-03   7.17392540e-01   5.74422190e-01
C     4.929501934425000e+00   2.821537782619756e+00   1.692560800000000e-02 -1.19574140e-01   1.39323096e+00  -3.86057670e-01
C     4.908324503175000e+00   2.834493724355694e+00   3.403145272000000e+00  9.69080650e-01   8.06492360e-01   2.15496230e-01
C     6.182564607000000e+00   3.532542524919408e+00   3.415282592000000e+00 -1.76439740e+00   7.93692800e-01  -1.68212070e-01
C     6.143444021699999e+00   2.125436516871268e+00   2.913936000000000e-03  1.10204853e+00  -4.83814480e-01   1.00728310e-01
C     7.385957948624999e+00   2.859760058635280e+00   1.359769452800000e+01  4.03639480e-01  -6.06804010e-01   2.96635900e-02
C     7.397555712000000e+00   2.829807024411167e+00   3.396679288000000e+00  6.04487030e-01   1.19626760e+00  -2.06779800e-02
C     8.616492086475001e+00   3.574167062923057e+00   3.383913648000000e+00  6.98647700e-01  -7.64574400e-01   3.23604090e-01
C     9.831774406574999e+00   4.288430996090241e+00   1.358660468000000e+01  1.86090529e+00  -1.01564195e+00  -1.09859600e-02
C     3.705125687025000e+00   4.993725381869024e+00   1.357636755200000e+01 -6.48001090e-01  -4.45239910e-01   2.17493970e-01
C     3.707176246575000e+00   4.987062007736008e+00   3.405676776000000e+00 -4.46999400e-02   2.09811750e-01  -4.71823000e-03
C     4.936940971649999e+00   5.698962193369645e+00   3.395675064000000e+00 -8.03523400e-02   1.57882940e-01   1.71288750e-01
C     4.935922680150000e+00   4.271569930039012e+00   6.340999999999999e-03 -4.81994280e-01  -5.94755040e-01  -5.76315100e-02
C     6.157163595449999e+00   4.986170727169632e+00   5.504328000000000e-03  3.39667970e-01  -2.21112190e-01   1.56364800e-02
C     6.167119410000000e+00   4.976374774346977e+00   3.406211120000000e+00  2.62388590e-01  -2.05975520e-01  -8.51559000e-02
C     7.403862907500000e+00   5.700581189756654e+00   3.394536200000000e+00 -7.79603640e-01   1.36320630e-01   2.62350730e-01
C     7.398566423625000e+00   4.297390809006695e+00   4.741368000000000e-03 -7.27850610e-01  -1.68419344e+00  -9.94050100e-02
C     8.618200812149999e+00   4.983899649247319e+00   1.358607618400000e+01 -9.91844600e-02   3.27447740e-01   1.60724760e-01
C     8.621018565975000e+00   5.004093619174049e+00   3.425286072000000e+00  3.74246750e-01  -1.37463709e+00  -4.39614880e-01
C     9.867089783699999e+00   5.670728766423522e+00   3.406730504000000e+00 -1.34594510e-01   1.71035843e+00   1.30945510e-01
C     3.702749821425000e+00   6.399686564782111e+00   6.811365520000000e+00 -2.97395140e-01   5.98158030e-01   1.38129720e-01
C     1.241548435725000e+00   7.216274848120338e-01   6.809422896000000e+00 -6.78315730e-01  -2.23046850e-01  -6.95046400e-02
C     1.259412315375000e+00   7.070748335064414e-01   1.019909043200000e+01 -2.40979684e+00  -2.15238350e-01   4.84997600e-02
C     2.456031689100000e+00   1.402135151182366e+00   1.019040601600000e+01  6.54688080e-01   1.18736428e+00   1.86249850e-01
C     2.461655290800000e+00   1.232409765546960e-02   6.785152743999999e+00  4.43304190e-01  -2.65549680e-01   1.64926350e-01
C     3.704938482600000e+00   6.965338733669317e-01   6.780010040000000e+00  1.91025830e-01   5.41358940e-01   5.21332100e-02
C     3.674271713400000e+00   7.052362351174141e-01   1.022285221600000e+01  1.52922692e+00  -1.47048800e-02  -3.74325480e-01
C     4.935962021550000e+00   1.418047298346479e+00   1.019297886400000e+01 -8.53067010e-01   1.89898250e-01   3.88504900e-01
C     4.958608580475000e+00   1.753806014961000e-03   6.801310768000000e+00 -1.29255121e+00  -4.69332300e-02   1.05401610e-01
C     6.163385341724999e+00   7.199494411675567e-01   6.829590607999999e+00  1.04742195e+00   3.07544480e-01  -3.77423720e-01
C     6.171031623825000e+00   7.160615443059078e-01   1.021377149600000e+01 -3.35729400e-01  -1.86379790e-01  -2.45687840e-01
C     7.381868069925000e+00   1.454275352506977e+00   1.020140583200000e+01  1.48267455e+00  -1.92868563e+00  -6.84429000e-02
C     8.621413828724998e+00   2.143413204641709e+00   6.815922880000000e+00  2.72437100e-01  -7.79170620e-01  -2.70949760e-01
C     2.458557451350000e+00   2.823326427797475e+00   6.782715488000000e+00  5.68482890e-01   8.39300320e-01   2.85629720e-01
C     2.465795640375000e+00   2.833832036433598e+00   1.019308168000000e+01  7.38421000e-03   6.73245200e-01  -4.59034000e-03
C     3.699659155125000e+00   3.575544234533271e+00   1.018852595200000e+01 -5.57113130e-01  -1.38636940e+00   9.37367300e-02
C     3.697938671400000e+00   2.123436082886118e+00   6.780120336000000e+00 -1.81711560e-01  -2.03972810e-01   4.57978300e-02
C     4.917669712574999e+00   2.850996600264813e+00   6.796675072000000e+00  9.55196020e-01  -2.64192800e-01  -7.06277500e-02
C     4.924625745375000e+00   2.855376216044953e+00   1.020520662400000e+01  5.90196820e-01  -6.30857510e-01  -2.42490760e-01
C     6.167833175399999e+00   3.548860702031845e+00   1.019431520000000e+01 -4.89477700e-01   4.55421200e-01   2.27728400e-02
C     6.181280613150000e+00   2.158313415021364e+00   6.793149951999999e+00 -1.45094055e+00  -1.28891204e+00   2.56806420e-01
C     7.395889063875000e+00   2.833909399868547e+00   6.798841280000000e+00 -1.66102400e-02   1.86576339e+00   3.62883700e-02
C     7.401192942749999e+00   2.847953104802005e+00   1.018474120800000e+01 -3.61091730e-01   4.65320100e-01   2.36303420e-01
C     8.630963177099998e+00   3.555454141669030e+00   1.020707771200000e+01  2.99411100e-01   1.81329780e-01  -1.62811640e-01
C     2.476986530850000e+00   4.252491902044387e+00   6.810739783999999e+00 -1.32038079e+00   4.18430680e-01  -1.74885200e-01
C     3.679130487225000e+00   4.981947183153541e+00   6.806038943999999e+00  1.30459474e+00  -5.07081210e-01   5.73848000e-02
C     3.690206274524999e+00   4.974597016407619e+00   1.018488292000000e+01  5.54380760e-01   4.21090470e-01   1.85495600e-01
C     4.936271428350000e+00   5.676636053873586e+00   1.020816244800000e+01 -6.51314840e-01   8.92900350e-01  -1.88347970e-01
C     4.936364272574999e+00   4.258000652527822e+00   6.807977080000000e+00 -9.71198310e-01   9.91106940e-01  -6.56938400e-02
C     6.155792229675000e+00   4.994822559325599e+00   6.806018000000000e+00 -2.89168480e-01  -4.66533070e-01  -1.80697260e-01
C     6.147257179499999e+00   4.977713904665502e+00   1.020201878400000e+01  8.76406080e-01  -4.85797070e-01   6.64882200e-02
C     7.381160035649999e+00   5.695745718902039e+00   1.021473519200000e+01  1.29309520e-01  -2.26467820e-01   6.70448500e-02
C     7.372021553474999e+00   4.285516034082684e+00   6.791149800000000e+00  1.19075524e+00  -5.08691980e-01   1.50945000e-01
C     8.622202172700000e+00   4.992699996143060e+00   6.808146535999999e+00  5.23406150e-01  -9.97912370e-01  -8.17922900e-02
C     8.620624967099999e+00   4.986418187693343e+00   1.021960956800000e+01  4.15066680e-01  -2.32614350e-01  -1.87867900e-01
C     9.871077130724998e+00   5.680130665260052e+00   1.019808212800000e+01 -8.86839280e-01   8.22979690e-01   1.53966960e-01
