72
Lattice="7.395 0 0 3.6975 6.40425786098592 0 0 0 13.6 " PBC="1 1 1" Properties=species:S:1:pos:R:3:force:R:3 Energy="-581.23754027"
C     3.652300207050000e+00   6.220917918750335e+00   1.752549040000000e-01  1.95788932e+00   5.10298390e-01  -2.55314840e-01
C     1.271600643450000e+00   5.039457995119548e-01   2.034205040000000e-01 -2.84973193e+00   1.31411757e+00  -5.29148230e-01
C     1.318582187700000e+00   9.337140261901452e-01   3.411583528000000e+00  1.23898719e+00  -6.20048310e-01  -6.81741700e-02
C     2.555726790000000e+00   1.653203577600775e+00   3.534624224000000e+00  7.41247810e-01  -2.20728663e+00  -3.64136370e-01
C     6.179998431075000e+00   6.215718237751223e+00   6.726301599999999e-02 -8.48945100e-01   1.13675356e+00   5.16269160e-01
C     3.697108434750000e+00   5.173305703541976e-01   1.380185120000000e-01 -1.03700669e+00   7.66471940e-01  -4.78171200e-01
C     3.824935705575000e+00   9.363317665904203e-01   3.465745120000000e+00 -1.04576581e+00  -4.90572910e-01  -5.13501980e-01
C     5.057351464200000e+00   1.628960387556903e+00   3.338974760000000e+00 -1.15897794e+00   5.39574890e-01  -3.58174000e-03
C     8.596291645650000e+00   6.259092162831909e+00   3.234800800000000e-02  8.53196540e-01  -2.21135432e+00   3.93694070e-01
C     6.107016880275000e+00   5.043465139262550e-01   7.498713600000001e-02  2.30360594e+00   2.30779108e+00  -1.22299530e-01
C     6.256328068125000e+00   9.004296251124174e-01   3.231583176000000e+00  6.70507180e-01   1.86468351e+00   2.34127030e-01
C     7.495798065150000e+00   1.598987179920531e+00   3.337671608000000e+00 -3.94375020e-01   2.36707086e+00   4.08405960e-01
C     1.239937508925000e+00   1.950833584407107e+00   2.386936000000000e-01 -8.64498110e-01   2.54397820e-01  -1.28947470e-01
C     2.454636474450000e+00   2.675533319799741e+00   3.627785040000000e-01  1.34867540e-01  -4.81789990e-01  -1.20792017e+00
C     2.561489158875000e+00   3.024457333339643e+00   3.519039168000000e+00  6.75061660e-01   2.40536668e+00  -6.71586570e-01
C     3.775140881475000e+00   3.760688383307256e+00   3.346300264000000e+00  1.05357773e+00   4.45183470e-01  -1.78182690e-01
C     3.676527484200000e+00   1.905460250022530e+00   2.432449760000000e-01  8.88412690e-01   2.79302788e+00  -1.96424630e-01
C     4.932512328000000e+00   2.645203779256038e+00   7.589303200000000e-02 -1.46171066e+00   1.44608161e+00   1.25462670e-01
C     5.030939888924999e+00   3.055795928751766e+00   3.283827440000000e+00 -1.23877140e-01   2.17187860e-01   7.20330770e-01
C     6.262678413449999e+00   3.775212663750529e+00   3.319510712000000e+00  4.56868210e-01  -1.41245080e-01   3.60642720e-01
C     6.142034386800000e+00   1.951011430647880e+00   1.358759571200000e+01  7.33713260e-01  -1.92744240e-01   7.28896630e-01
C     7.379993511375000e+00   2.689697296695810e+00   7.038285600000001e-02  7.48838930e-01  -7.51056360e-01  -1.72426130e-01
C     7.515621360975000e+00   3.070859511749430e+00   3.454895312000000e+00 -7.31735020e-01  -8.94982020e-01  -8.47046900e-01
C     8.763535745475000e+00   3.782129198196750e+00   3.476530599999999e+00 -1.50191024e+00  -9.88745850e-01  -1.43292500e-01
C     2.448676030500000e+00   4.107499760264301e+00   2.757030080000000e-01  5.09606330e-01  -3.44982200e-01  -3.65502400e-01
C     3.695811277800000e+00   4.816291767430744e+00   2.393580960000000e-01 -5.77216450e-01  -3.47408760e-01  -7.53388980e-01
C     3.786447244875000e+00   5.209780321630085e+00   3.207423592000000e+00  5.27039760e-01  -6.21411340e-01   6.86750180e-01
C     5.048183586900000e+00   5.921741603883706e+00   3.301076864000000e+00 -1.45359438e+00  -6.07409530e-01   7.23753400e-02
C     4.923723629325000e+00   4.132020702971562e+00   5.987889599999999e-02  1.33803920e-01  -1.85197516e+00   2.51818810e-01
C     6.147066462450001e+00   4.850600017212551e+00   1.353089377600000e+01  6.63063410e-01  -2.68820512e+00   5.63230100e-01
C     6.252244179374999e+00   5.199235967233909e+00   3.366893792000000e+00  1.00019448e+00  -3.82608200e-02  -1.56899310e-01
C     7.504734811725000e+00   5.904221667783840e+00   3.392359656000000e+00 -8.98832900e-02   3.01517900e-02   2.21243700e-01
C     7.403008895925000e+00   4.122826622302588e+00   1.357500292800000e+01 -5.59682330e-01  -7.45339820e-01   3.41224770e-01
C     8.637490299900000e+00   4.830530225845725e+00   7.910439999999999e-02 -7.46072830e-01  -6.93733010e-01   1.42094760e-01
C     8.743679467949999e+00   5.181500207644161e+00   3.343587880000000e+00 -3.70244560e-01   1.11717665e+00  -2.31605350e-01
C     9.947027071499999e+00   5.935669840047948e+00   3.166544304000000e+00  4.21236070e-01  -2.64479238e+00   1.14865679e+00
C     7.420926056550000e+00   1.449929102910288e-01   6.591571976000000e+00 -6.98506590e-01   3.40040200e-02   4.17834980e-01
C     1.255090455525000e+00   8.404657902582942e-01   6.709180560000000e+00 -6.21255740e-01   6.93965340e-01   6.06897000e-02
C     1.150523047950000e+00   5.240587555767564e-01   1.019503423200000e+01 -1.81699592e+00   7.79904090e-01  -1.05842800e-02
C     2.317267620000000e+00   1.229237608543745e+00   1.037307074400000e+01  2.45942355e+00   1.35795747e+00  -3.30837420e-01
C     2.474359605000000e+00   1.696303464487632e-01   6.711603808000000e+00  3.35792260e-01  -2.36905127e+00  -2.55843300e-02
C     3.683617551375000e+00   8.676899061656826e-01   6.752008184000000e+00  1.54753515e+00  -1.01976917e+00  -4.67668110e-01
C     3.584167964475000e+00   5.170273287445266e-01   1.031304360800000e+01 -8.29050400e-02   9.46977940e-01  -7.93217280e-01
C     4.830838768800000e+00   1.265115926182508e+00   1.020363623200000e+01 -5.47703290e-01  -8.21778880e-01   4.57798980e-01
C     4.928906895750000e+00   1.465513223986812e-01   6.577030448000000e+00 -7.76875200e-02   7.29322000e-02   9.25171920e-01
C     6.176664247424999e+00   8.580129444540655e-01   6.597777248000000e+00 -8.98660700e-02  -5.49508040e-01   1.79876690e-01
C     6.052469733374999e+00   5.491489087226142e-01   1.009136129600000e+01 -2.77275000e-02  -1.20621770e+00   2.04224670e-01
C     7.288222263900000e+00   1.256849438221978e+00   1.010674534400000e+01  1.58781310e-01  -7.54148570e-01   3.60060200e-01
C     8.644462823550001e+00   2.252563597095412e+00   6.800955807999999e+00  6.93999100e-02   7.20349130e-01  -2.21609190e-01
C     2.492204997150000e+00   2.975286786384713e+00   6.836726664000000e+00 -6.83451980e-01   6.91632790e-01  -2.82091720e-01
C     2.334827195400000e+00   2.697593298339140e+00   1.040949698400000e+01  1.26250650e+00  -1.92712517e+00  -5.25615080e-01
C     3.588581152575000e+00   3.378822596485136e+00   1.035452932000000e+01 -6.64961100e-02   5.17093530e-01  -2.94508730e-01
C     3.711414912675000e+00   2.256012482080758e+00   6.844304584000000e+00  5.36507400e-02   1.65475554e+00  -4.45104170e-01
C     4.935957843374999e+00   2.997567775862860e+00   6.767279488000000e+00  8.27809430e-01  -1.59038071e+00  -2.51013620e-01
C     4.829886218850000e+00   2.691509381457296e+00   1.026233723200000e+01 -7.28357410e-01  -9.85231580e-01  -2.05966190e-01
C     6.027969210975000e+00   3.398455617465909e+00   1.013872438400000e+01  1.41744642e+00  -8.89805980e-01   1.89483810e-01
C     6.192054277724999e+00   2.275826231218340e+00   6.704598584000000e+00 -1.59275037e+00  -4.57590880e-01   1.17015660e-01
C     7.397667228600000e+00   2.950163651310876e+00   6.763134888000000e+00  1.30154914e+00   1.86250742e+00  -3.38711120e-01
C     7.279456193925000e+00   2.661544435313564e+00   1.014194772000000e+01  2.64407910e-01   8.75832820e-01   2.74319760e-01
C     8.542779170174999e+00   3.382291142542112e+00   1.025572205600000e+01 -2.40693028e+00   1.17649000e-02  -3.51192160e-01
C     9.885760753650001e+00   4.420117971953283e+00   6.707928000000000e+00 -7.71447500e-01  -2.97805660e-01  -1.83236700e-02
C     3.716482558275000e+00   5.139596059742344e+00   6.644614832000000e+00  5.40442370e-01  -1.28326372e+00   4.86917700e-02
C     3.601356384825000e+00   4.791221723654567e+00   1.021961024800000e+01  1.00536990e-01   5.58427170e-01  -2.38203590e-01
C     4.872194049150000e+00   5.529096298316792e+00   1.015180513600000e+01 -3.12822380e+00  -8.21129430e-01   2.71183560e-01
C     4.974719512349999e+00   4.379849023210861e+00   6.680779000000000e+00 -1.44569775e+00   1.99076962e+00   2.63257810e-01
C     6.200593616999999e+00   5.104185060799625e+00   6.670176304000000e+00 -1.24317799e+00   1.42452517e+00   1.07941800e-02
C     6.036007945725000e+00   4.807894568567291e+00   1.013619804800000e+01  1.54950042e+00  -1.05642240e-01   1.30309990e-01
C     7.269438557174999e+00   5.510282189788576e+00   1.014513134400000e+01  5.09991110e-01   3.28279450e-01   5.15228820e-01
C     7.398575223675000e+00   4.415737395534466e+00   6.694815696000000e+00  7.09841630e-01  -1.69199829e+00   2.11879210e-01
C     8.610953564250000e+00   5.124204130444199e+00   6.629140752000000e+00  1.78609071e+00   1.24143770e-01   2.19417110e-01
C     8.497645858275000e+00   4.792171347010047e+00   1.016043379200000e+01  1.06394241e+00   3.50216340e-01   5.25926800e-02
C     9.747277435725000e+00   5.476471807012807e+00   1.012955172800000e+01  4.89396600e-02   1.84458274e+00   3.31961450e-01
