72
Lattice="7.395 0 0 3.6975 6.40425786098592 0 0 0 13.6 " PBC="1 1 1" Properties=species:S:1:pos:R:3:force:R:3 Energy="-574.15537399"
C     3.623247988200000e+00   6.133768009280512e+00   4.542246320000000e-01  6.77013690e-01   7.77174860e-01  -2.13277446e+00
C     1.152777487650000e+00   4.717971935656980e-01   4.184849200000000e-01  4.85118740e-01  -1.44177817e+00  -1.54362650e-01
C     1.483719452025000e+00   1.093098392616430e+00   3.431006504000000e+00  1.01005880e-01   1.15824235e+00  -1.90367170e-01
C     2.778216827250000e+00   1.768730241307630e+00   3.588634992000000e+00 -1.11185195e+00   8.49217350e-01  -1.43854596e+00
C     6.068542691925000e+00   6.130102404209184e+00   2.933291520000000e-01  2.36123002e+00  -6.98579010e-01  -6.23036370e-01
C     3.687733460475000e+00   4.530350876113062e-01   3.231402160000000e-01 -2.96696542e+00  -1.25885026e+00  -2.67883020e-01
C     4.017493223175000e+00   1.120779004024079e+00   3.387657864000000e+00 -1.61827586e+00   7.27135900e-02   4.61984090e-01
C     5.188291327500000e+00   1.903590590982881e+00   3.275777736000000e+00  1.64232473e+00  -1.38288919e+00  -6.14721830e-01
C     8.557220163149999e+00   6.152138366781608e+00   2.888622320000000e-01  3.43564413e+00  -1.32792572e+00  -1.30761364e+00
C     6.156183536099999e+00   5.125255837669969e-01   1.676590320000000e-01 -2.37619003e+00  -1.26367874e+00   1.66750877e+00
C     6.396080442000001e+00   1.205529558286654e+00   3.099129376000000e+00  2.75827863e+00  -2.81240972e+00   1.53632443e+00
C     7.698473458724999e+00   1.914517343615877e+00   3.369237344000000e+00 -3.39327985e+00  -1.71951862e+00  -8.45321990e-01
C     1.167271096050000e+00   1.901652790639602e+00   4.719277520000000e-01  1.25365467e+00  -1.88363151e+00  -1.21161353e+00
C     2.465596566975000e+00   2.527564543008906e+00   5.855919280000000e-01 -1.28131179e+00   1.32784352e+00  -9.67150180e-01
C     2.780512752900000e+00   3.213898547009951e+00   3.490373360000000e+00 -3.00472738e+00  -7.08807660e-01   3.65872570e-01
C     3.921898908600000e+00   3.940110391725908e+00   3.221820416000000e+00  2.69556525e+00  -9.07522340e-01   6.03985870e-01
C     3.695671586250000e+00   1.851814215547296e+00   4.085752800000000e-01  1.24253330e-01   7.28186350e-01  -1.54273140e-01
C     4.889639593649999e+00   2.628916470666486e+00   1.955213520000000e-01 -1.03394022e+00  -1.00517454e+00   5.19866300e-02
C     5.246372507924999e+00   3.293848597665826e+00   3.228232544000000e+00 -2.08240985e+00   1.65425662e+00   5.65632170e-01
C     6.455408789175000e+00   4.086387035504974e+00   3.316723800000000e+00 -2.69164077e+00  -2.55225247e+00  -1.80651820e-01
C     6.130956824699998e+00   1.996041048513111e+00   7.523247999999999e-02 -6.15626410e-01  -5.27776748e+00   6.44509000e-02
C     7.378743719400000e+00   2.556262983118244e+00   8.589093600000000e-02  1.19256577e+00   1.87435349e+00   1.29095486e+00
C     7.597516844774999e+00   3.345496119433268e+00   3.507623192000000e+00  3.78741531e+00  -2.15124379e+00  -2.23467580e-01
C     8.896968426299999e+00   3.943716373156561e+00   3.566085512000000e+00  4.11537640e-01   5.25583590e-01  -1.43044959e+00
C     2.470636666200000e+00   3.952936198942131e+00   5.976959279999999e-01 -1.57446703e+00   2.98754770e-01  -2.13884170e+00
C     3.697459364475000e+00   4.654245663352685e+00   4.965373599999999e-01 -3.72686245e+00   4.15989808e+00  -4.21938700e-01
C     3.878058094800000e+00   5.312915194675889e+00   3.052630432000000e+00  2.01057497e+00   2.28756112e+00   1.28077969e+00
C     5.108631648000000e+00   6.088025469430304e+00   3.192571984000000e+00  6.61468650e-01   7.29762890e-01   7.64414500e-01
C     4.835300505075000e+00   4.031839409608210e+00   2.044962640000000e-01  4.25140868e+00  -1.90957660e+00  -5.85448840e-01
C     6.121603850550000e+00   4.653491946245143e+00   1.696695200000000e-02 -1.92712330e-01   3.52738293e+00   1.70005202e+00
C     6.375920082075000e+00   5.470940961839754e+00   3.329206152000000e+00  8.79638120e-01  -6.58246200e-02  -9.72246200e-02
C     7.652914416674999e+00   6.116125367600048e+00   3.391891816000000e+00  4.37579470e-01  -1.88921810e-01  -6.47913530e-01
C     7.402660924199999e+00   3.950625030365614e+00   6.082110400000000e-02 -1.00509144e+00   1.96896223e+00   1.85548000e-03
C     8.612935424250001e+00   4.653589034794300e+00   2.478782240000000e-01  7.19191400e-01   1.94198424e+00   1.37507620e+00
C     8.875251270974999e+00   5.339373681556115e+00   3.297883584000000e+00  1.45094500e-02   7.30847030e-01   5.51461200e-01
C     1.009480963890000e+01   6.024627287256178e+00   3.068686864000000e+00 -1.42052094e+00   3.91155279e+00   9.93388190e-01
C     7.315357476900000e+00   2.539751909759064e-01   6.324120904000000e+00 -1.38832956e+00   3.25372667e+00  -2.39463340e-01
C     1.154590593750000e+00   9.701870432137883e-01   6.379148544000000e+00  6.06576610e-01  -2.97489020e-01   2.40344340e-01
C     1.077081897900000e+00   3.313998506298481e-01   1.031414983200000e+01 -4.30026260e-01  -2.00504661e+00   8.49792820e-01
C     2.322760441125000e+00   1.026684829671501e+00   1.054300192800000e+01 -5.59025530e-01  -1.04873928e+00  -5.72171130e-01
C     2.371598241300000e+00   2.033892389913384e-01   6.376163480000000e+00  1.03152715e+00   2.65358530e+00   3.89628870e-01
C     3.581778048375000e+00   1.014202803017204e+00   6.440149440000000e+00  2.61380600e-02  -1.03730650e-01  -3.66493060e-01
C     3.576346716675000e+00   3.667483440158538e-01   1.046248054400000e+01 -1.64089936e+00  -4.25804887e+00  -7.16543320e-01
C     4.755165511950000e+00   9.866958110401393e-01   1.038348032000000e+01  2.93862259e+00   2.00504176e+00  -3.07648400e-02
C     4.789435790700000e+00   2.383692954226584e-01   6.258346135999999e+00 -1.48105121e+00   1.03268807e+00   1.10772456e+00
C     5.974290237075000e+00   9.296721069269636e-01   6.283454863999999e+00  4.23324921e+00   8.21279460e-01   5.45517760e-01
C     6.032979656249999e+00   2.503086252658993e-01   1.023593840800000e+01 -3.55382559e+00   1.39185996e+00   8.10798230e-01
C     7.185947306324999e+00   9.469533563363874e-01   1.028147760000000e+01  4.04565529e+00   2.08886022e+00   1.42558280e-01
C     8.582161945199999e+00   2.439818205004581e+00   6.446233127999999e+00  2.55605834e+00  -3.63200384e+00  -7.63025300e-02
C     2.367710948625000e+00   3.244068301320047e+00   6.436832128000000e+00  1.97755105e+00  -2.78029466e+00   1.15348460e+00
C     2.336173196325000e+00   2.391410533245935e+00   1.065391645600000e+01 -1.60929303e+00   3.47065776e+00  -1.38549460e+00
C     3.588221940450000e+00   3.152769137225308e+00   1.057616552800000e+01 -3.37033176e+00   1.93905150e-01  -1.33431670e-01
C     3.622725716325000e+00   2.540268925496102e+00   6.538167223999999e+00 -1.92854700e+00  -4.52844812e+00  -9.33817720e-01
C     4.858919025824999e+00   3.120776987298571e+00   6.461724616000000e+00  1.75961083e+00   1.37545746e+00  -1.50494090e-01
C     4.736568307124999e+00   2.416016460454998e+00   1.046358826400000e+01  3.49750020e+00   7.21058290e-01  -5.51035610e-01
C     6.020909722124999e+00   3.138755148048320e+00   1.034278245600000e+01 -7.23679470e-01   4.38531420e-01  -3.60141670e-01
C     6.074592023775000e+00   2.322924680542666e+00   6.398689023999999e+00 -1.98538660e-01   1.23308727e+00   3.87592810e-01
C     7.379785896750000e+00   2.978981146573833e+00   6.468426968000000e+00 -4.31792972e+00   4.48336779e+00  -3.52170490e-01
C     7.236546706424999e+00   2.366027129132667e+00   1.032285859200000e+01 -1.94848320e+00   1.85992722e+00   2.11882470e-01
C     8.395933327424999e+00   3.121179815117965e+00   1.043955529600000e+01  4.38661411e+00  -4.79714020e-01  -8.20552900e-02
C     9.822129403875000e+00   4.619344123122729e+00   6.424530384000000e+00 -2.10441655e+00  -8.34506880e-01  -7.87711360e-01
C     3.606336843375000e+00   5.308272043684811e+00   6.327153024000000e+00  3.99943349e+00  -2.45187055e+00   7.16544830e-01
C     3.520013566350000e+00   4.605612305547053e+00   1.042809131200000e+01  2.48286484e+00  -2.34417651e+00   2.99786180e-01
C     4.744778864700000e+00   5.282392501715129e+00   1.034387072800000e+01  2.54658060e+00   1.33168966e+00  -3.71529240e-01
C     4.899664366574999e+00   4.562638902752932e+00   6.383831024000000e+00 -1.52670423e+00  -9.43782810e-01  -5.33910500e-02
C     6.144501173925001e+00   5.191316974304862e+00   6.334848992000000e+00  3.11656530e-01   3.24115860e-01   6.31765550e-01
C     6.046328185875000e+00   4.601636222054672e+00   1.027956775200000e+01 -2.10930030e-01  -1.38436286e+00   7.84698810e-01
C     7.340857840275000e+00   5.304956559390688e+00   1.029295137600000e+01 -3.77638243e+00   4.11978050e-01   4.50146200e-02
C     7.414290523050000e+00   4.457387806739868e+00   6.414198736000000e+00 -3.07015904e+00  -3.60775860e-01  -2.34705100e-01
C     8.560884755400000e+00   5.225738515408211e+00   6.305541944000000e+00 -3.14774010e-01   7.26653940e-01   8.02636470e-01
C     8.504994010950000e+00   4.550016302638607e+00   1.026908011200000e+01 -4.61857590e-01  -2.35685270e-01   1.30289474e+00
C     9.734420266874999e+00   5.294073804009191e+00   1.035747344800000e+01 -1.61175313e+00  -2.10242340e+00  -6.40806420e-01
