72
Lattice="7.395 0 0 3.6975 6.40425786098592 0 0 0 13.6 " PBC="1 1 1" Properties=species:S:1:pos:R:3:force:R:3 Energy="-579.62373207"
C     3.746453236125000e+00   6.403496713953340e+00   1.350505119200000e+01 -9.43240930e-01   1.96824000e-02   2.98322720e-01
C     1.302963910725000e+00   6.929677904627478e-01   1.356302228000000e+01 -1.57831190e+00   1.39126986e+00  -6.43820690e-01
C     1.275082764075000e+00   7.572396414941358e-01   3.452613368000000e+00 -1.94064888e+00  -6.47705580e-01  -8.76499980e-01
C     2.468512933125000e+00   1.475378022581463e+00   3.440404104000000e+00 -6.82948930e-01   1.56651663e+00  -6.37352690e-01
C     2.533546818600000e+00   5.053727962483201e-03   1.354906432800000e+01 -2.80249170e+00  -1.01531921e+00   2.52428160e-01
C     3.707001280875000e+00   7.066772571784927e-01   1.349520955200000e+01  7.22835750e-01   1.44935701e+00  -3.91157480e-01
C     3.632994265425000e+00   7.179629684645419e-01   3.406457416000000e+00  2.75853919e+00   1.24454447e+00   2.62642910e-01
C     4.914960295499999e+00   1.391127000431969e+00   3.448448504000000e+00 -8.22645400e-01   2.54573820e-01  -2.85838990e-01
C     8.595379805175000e+00   6.378363075896612e+00   1.355603310400000e+01  7.29888340e-01   8.64376290e-01  -2.42366940e-01
C     6.139098386924999e+00   6.234669909738271e-01   1.359242452800000e+01  2.06187677e+00   1.74197385e+00  -4.87499460e-01
C     6.170689013474999e+00   6.694887564667302e-01   3.450079824000000e+00 -1.14838976e+00   2.54256550e+00  -2.27870210e-01
C     7.366845312300000e+00   1.401589892668165e+00   3.384759432000000e+00  2.90742171e+00   1.12000984e+00   4.15330420e-01
C     1.269472103625000e+00   2.128322723761034e+00   1.351697662400000e+01 -1.78925435e+00   7.83094480e-01   6.57865060e-01
C     2.470358207475000e+00   2.868559252764606e+00   1.352451877600000e+01  4.48877710e-01   8.85385800e-02  -1.34431636e+00
C     2.453537762324999e+00   2.938158037398784e+00   3.367672392000000e+00  1.21657297e+00  -1.76146046e+00   7.00193490e-01
C     3.708879130200000e+00   3.598800976738968e+00   3.502097376000000e+00 -6.30742500e-01   6.69065010e-01  -1.13396661e+00
C     3.711990206699999e+00   2.137914572885692e+00   1.336530004000000e+01 -9.35046030e-01  -7.92272900e-02   2.79630500e+00
C     4.915207732199999e+00   2.802768760066876e+00   8.134363999999999e-02  7.65043540e-01   3.08418590e-01  -1.78453398e+00
C     4.881058472625000e+00   2.824967518874101e+00   3.459945808000000e+00  1.82011731e+00  -9.27946580e-01   6.21765580e-01
C     6.144065793299999e+00   3.470970837086953e+00   3.499305568000000e+00  1.70535380e+00   2.87619277e+00  -1.03214606e+00
C     6.142202179349999e+00   2.031527809826315e+00   3.876911200000000e-02  7.44808720e-01   3.10588220e+00   2.74270490e-01
C     7.367136009749999e+00   2.863607800800147e+00   1.358675700000000e+01  6.05633830e-01  -2.73303182e+00   2.46427940e-01
C     7.446306805799999e+00   2.844863434640027e+00   3.369810584000000e+00 -3.50475452e+00  -1.24661656e+00   2.91625650e-01
C     8.618230466100000e+00   3.611818527435519e+00   3.318079176000000e+00  3.84140510e-01   6.84697000e-02   1.41686678e+00
C     9.836962220924999e+00   4.306901516184268e+00   1.348533024000000e+01 -2.79925810e-01  -2.50734620e-01  -3.80530500e-02
C     3.697624014150000e+00   5.010070905162523e+00   1.344091046400000e+01  3.75782440e-01  -2.16667042e+00   1.25622079e+00
C     3.764751645975000e+00   5.044430709220102e+00   3.447081840000000e+00 -1.05326255e+00  -1.42548871e+00   1.71014490e-01
C     4.989177328949999e+00   5.745341828791766e+00   3.392031216000000e+00  3.93252030e-01  -1.62833945e+00   8.00212730e-01
C     4.920535275074999e+00   4.237721057673504e+00   4.143552800000000e-02 -1.69892770e-01   1.08009974e+00  -5.26921730e-01
C     6.147622011825000e+00   4.989995798261675e+00   4.822328800000000e-02 -7.46208750e-01  -4.36898110e-01  -3.93774800e-02
C     6.209073574425000e+00   4.933717357635667e+00   3.439158208000000e+00 -1.84901343e+00   9.28852390e-01  -2.48444580e-01
C     7.380404377574999e+00   5.737132658939082e+00   3.393840832000000e+00  6.10623320e-01  -2.86054883e+00   1.15563866e+00
C     7.341284198999999e+00   4.287664214296663e+00   2.573623200000000e-02  1.19972084e+00  -1.36148139e+00  -5.55828830e-01
C     8.559651750074998e+00   5.012731938345932e+00   1.350609934400000e+01  1.61414022e+00  -2.79029096e+00   7.12055510e-01
C     8.625134807849999e+00   5.016272660388990e+00   3.541110608000000e+00  3.06604240e-01   4.30836150e-01  -2.07292210e+00
C     9.892646570924999e+00   5.697897741670735e+00   3.474638296000000e+00 -4.36074310e-01  -1.17343140e+00   3.72076560e-01
C     1.815132330000000e-02   1.849165414496400e-02   6.916549416000000e+00  6.32949850e-01  -1.07033705e+00   3.27484780e-01
C     1.232901277350000e+00   7.509803119895077e-01   6.868570112000000e+00  4.66977830e-01  -1.40808870e+00  -4.69122700e-01
C     1.198136864700000e+00   6.569063750917669e-01   1.020005616800000e+01  1.86148845e+00   2.13258243e+00   6.02293400e-02
C     2.463997176375000e+00   1.390969135475720e+00   1.014670853600000e+01 -8.64336990e-01  -4.99170580e-01   1.04790214e+00
C     2.479355925825000e+00   5.212214131744621e-02   6.702881992000000e+00 -6.70159890e-01  -1.55257266e+00   9.55349990e-01
C     3.773493349425000e+00   6.564481504418839e-01   6.644288976000000e+00 -9.49978230e-01   5.14209750e-01   6.11354680e-01
C     3.678304983375000e+00   6.712079154466687e-01   1.033336744800000e+01 -4.37926240e-01   1.12121310e+00  -1.65105472e+00
C     4.902592860525000e+00   1.403448344256559e+00   1.020190644800000e+01  1.29885007e+00   1.05152520e-01   1.39754290e+00
C     5.020035554700000e+00   5.967743644262401e-03   6.823703168000000e+00 -1.91220130e-01  -2.77941500e-01   4.37763660e-01
C     6.256180537874999e+00   7.913808682309531e-01   6.985082943999999e+00 -3.04398852e+00  -2.06006276e+00  -1.86014033e+00
C     6.183395139450000e+00   7.295389847593848e-01   1.027749878400000e+01 -9.48721800e-01  -1.39213000e-01  -9.65430100e-01
C     7.423622717250000e+00   1.451256449394352e+00   1.020195989600000e+01 -1.31319278e+00  -4.03125260e-01  -4.08952320e-01
C     8.608027399725000e+00   2.135982088076437e+00   6.891534936000000e+00 -7.81661100e-02   1.75982937e+00  -1.52603847e+00
C     2.473903481400000e+00   2.763795905030160e+00   6.700234480000000e+00 -6.15270350e-01   1.12965703e+00   1.32618003e+00
C     2.471836098225000e+00   2.818361142636039e+00   1.014196988800000e+01 -2.42188810e-01  -1.92532960e-01   7.17489900e-02
C     3.673791112350000e+00   3.535942289246968e+00   1.011867213600000e+01  1.62175065e+00   5.17653670e-01   4.16301770e-01
C     3.700486951425000e+00   2.047844001618816e+00   6.643304880000000e+00  1.38487455e+00   2.69902308e+00   5.77009400e-01
C     4.921662088200000e+00   2.845108461545750e+00   6.760569928000000e+00 -1.07402431e+00  -1.69289610e-01  -2.60730000e-01
C     4.932693542475000e+00   2.838465645080465e+00   1.020627096000000e+01 -1.42229389e+00  -1.01548342e+00  -9.89270960e-01
C     6.154462164975000e+00   3.537229737204563e+00   1.015633271200000e+01  4.70346430e-01  -3.68234140e-01   1.33104240e-01
C     6.159019259775000e+00   2.183637451664269e+00   6.782421048000000e+00  1.67515736e+00   6.81223690e-01   9.95961270e-01
C     7.399105408200000e+00   2.942050481283514e+00   6.795951280000000e+00 -7.92270190e-01  -2.10574592e+00   4.10766060e-01
C     7.415381174625000e+00   2.901484310933809e+00   1.010816491200000e+01  5.11735020e-01  -2.29502270e+00   1.25522370e+00
C     8.670688488525000e+00   3.566157641873026e+00   1.023379205600000e+01 -1.72480635e+00   5.24471860e-01  -7.60045290e-01
C     2.433418629525000e+00   4.186108375068820e+00   6.861637511999999e+00  1.42666129e+00   1.37253370e+00  -7.84249390e-01
C     3.675777816075000e+00   4.948128731012868e+00   6.859877944000000e+00 -1.74727844e+00   1.49324905e+00   3.80897060e-01
C     3.692490700950000e+00   4.974560832350710e+00   1.010267935200000e+01 -1.47701624e+00  -8.70758030e-01   1.04993231e+00
C     4.903299083025000e+00   5.658280490208146e+00   1.023877210400000e+01  4.58454360e-01  -4.20129580e-01  -8.22471080e-01
C     4.880078117475000e+00   4.282843281107391e+00   6.854986024000000e+00  1.24285154e+00  -9.12366930e-01  -5.76956850e-01
C     6.089073134625000e+00   5.040811022677631e+00   6.822911104000000e+00  1.67389507e+00  -4.59485910e-01  -8.57705480e-01
C     6.137610254099999e+00   4.918016486938355e+00   1.022752068800000e+01 -6.54767070e-01   2.37183072e+00   3.58205210e-01
C     7.322817257100000e+00   5.669482882099437e+00   1.033181024800000e+01  2.47769904e+00  -8.96704180e-01  -9.58771000e-03
C     7.350621015074999e+00   4.344301741660882e+00   6.751097392000000e+00  6.26049950e-01  -2.44800770e-01   7.59977380e-01
C     8.637111010349999e+00   4.972685793734459e+00   6.854552728000000e+00  9.68232000e-03   6.01311930e-01  -3.88627570e-01
C     8.616544258199999e+00   4.993900025980866e+00   1.033303955200000e+01 -1.25005350e-01  -3.42644980e-01  -9.06319050e-01
C     9.848092620299999e+00   5.695899677260994e+00   1.020958228800000e+01  4.89655910e-01   6.34437340e-01   5.21238310e-01
