72
Lattice="7.395 0 0 3.6975 6.40425786098592 0 0 0 13.6 " PBC="1 1 1" Properties=species:S:1:pos:R:3:force:R:3 Energy="-579.40929218"
C     1.102629600367500e+01   6.314979367345249e+00   1.352446111200000e+01  1.12083637e+00   1.36042116e+00  -9.77836060e-01
C     1.255032256875000e+00   5.590182543403459e-01   1.347854588000000e+01 -3.01781114e+00   3.03144080e+00   2.96029310e-01
C     1.253465552175000e+00   8.145736319006287e-01   3.572904824000000e+00  5.28670380e-01  -7.65478100e-02   1.55979100e-01
C     2.520327072900000e+00   1.469843014640801e+00   3.619219352000000e+00  1.28068220e-01   7.32496320e-01  -2.08808110e-01
C     6.190911713249999e+00   6.317631818823125e+00   1.343531828000000e+01 -2.61279856e+00  -6.35921980e-01  -1.41288760e-01
C     3.680663100975000e+00   5.948371404661686e-01   1.351601020800000e+01 -4.17114320e-01   1.46714158e+00  -1.82719400e-01
C     3.804767174175000e+00   8.422603913958234e-01   3.558111968000000e+00 -1.13035106e+00  -1.21984976e+00  -1.24190620e-01
C     5.039514576300000e+00   1.547857250273334e+00   3.512777864000000e+00 -2.15444395e+00   4.75424500e-01  -5.58896370e-01
C     8.564909779950000e+00   6.347890272104582e+00   1.344738624000000e+01  2.36529214e+00  -1.36957041e+00  -2.41865660e-01
C     6.051076626300000e+00   6.427062141387888e-01   1.337514603200000e+01  4.07388976e+00   5.07884520e-01   7.47069360e-01
C     6.214631841300000e+00   7.981065557929464e-01   3.458663328000000e+00  4.76882680e-01   1.47099043e+00   2.19620930e-01
C     7.424791312125000e+00   1.524327814767958e+00   3.577074448000000e+00  1.13112832e+00   1.41466268e+00  -2.64323540e-01
C     1.211568070425000e+00   2.042466986719560e+00   1.350891141600000e+01  7.69683400e-02  -4.35159430e-01  -1.24917280e-01
C     2.446219115700000e+00   2.726836164409157e+00   3.349285599999999e-02  5.94434790e-01   7.45917090e-01  -4.18730480e-01
C     2.499203255400000e+00   2.868559060636870e+00   3.620663944000000e+00  1.74838211e+00   1.46634651e+00  -2.92801330e-01
C     3.700861286325000e+00   3.620353930183591e+00   3.490727504000000e+00  1.45712878e+00   1.43975653e+00  -2.91541210e-01
C     3.697511499225000e+00   1.977040319910856e+00   1.358138364000000e+01 -5.06515820e-01   3.56353707e+00  -7.40053760e-01
C     4.904614431674999e+00   2.759619368266761e+00   1.332095275200000e+01 -4.76868160e-01   4.71649440e-01   9.36234060e-01
C     4.967099815275000e+00   2.975180155491344e+00   3.414865480000000e+00  1.25205904e+00  -6.47249100e-02   1.08729314e+00
C     6.222340389299999e+00   3.724468398511661e+00   3.483036432000000e+00  1.83954200e-01  -2.10100102e+00   2.44935600e-01
C     6.127668637949999e+00   2.051241012115495e+00   1.325682113600000e+01  7.58605580e-01   1.41730868e+00   6.26282200e-01
C     7.398165023024999e+00   2.820054684584537e+00   1.332529387200000e+01 -5.54612400e-01  -1.80785843e+00   3.15999380e-01
C     7.497345247049999e+00   2.993614235358146e+00   3.634292912000000e+00 -2.46257568e+00  -1.36239995e+00  -7.33926000e-01
C     8.746640352000000e+00   3.642495819181019e+00   3.649069448000000e+00 -2.76451177e+00   9.21404490e-01  -6.81468360e-01
C     2.467229124150000e+00   4.186797409171978e+00   2.407404000000000e-02 -5.20961060e-01  -5.18103380e-01  -7.50032470e-01
C     3.675303463800000e+00   4.926581029059690e+00   1.355475960000000e+01  4.70395490e-01  -1.46701577e+00  -3.18441630e-01
C     3.713759793225000e+00   5.101250821975909e+00   3.440263888000000e+00 -1.32698510e-01  -1.52069487e+00   2.71449190e-01
C     4.934157789449999e+00   5.821214608681072e+00   3.522912448000000e+00  7.13857840e-01  -1.56532068e+00  -5.04066310e-01
C     4.911681500400000e+00   4.226280171219506e+00   1.333463503200000e+01  1.54139000e-03  -9.98333480e-01   3.34992680e-01
C     6.151860640950000e+00   4.940252070228275e+00   1.322603440800000e+01  3.45056380e-01  -1.61372484e+00   1.23944752e+00
C     6.196656962700000e+00   5.105585159652978e+00   3.515345136000000e+00  1.54619110e-01   1.64280152e+00   5.28474200e-02
C     7.459505327850000e+00   5.815113528388165e+00   3.524596671999999e+00 -2.02962820e-01  -5.86261830e-01   3.35210100e-02
C     7.410499328400000e+00   4.253866896206928e+00   1.331546039200000e+01  7.24296500e-02  -1.58366848e+00  -8.46760000e-02
C     8.667460571025000e+00   4.949671260561027e+00   1.344564054400000e+01 -1.70423591e+00  -2.16073176e+00   4.94663470e-01
C     8.677975854300000e+00   5.076044111336999e+00   3.486306008000000e+00  8.31156500e-02  -1.01164250e-01   3.45252420e-01
C     9.876052264875000e+00   5.810431055253825e+00   3.400018768000000e+00  1.00145278e+00  -9.65167660e-01   5.50837160e-01
C     7.417234065824999e+00   1.038786635536650e-01   6.634509080000000e+00  3.64766450e-01  -1.74335236e+00   5.97063720e-01
C     1.258338672300000e+00   7.818364106144593e-01   6.807118647999999e+00  6.33014380e-01  -1.29629293e+00   5.20666470e-01
C     1.161090392025000e+00   6.149468944020402e-01   1.015308680000000e+01  8.99924660e-01  -6.62381200e-02   4.09940990e-01
C     2.376940389300000e+00   1.311328410474482e+00   1.022865900800000e+01  1.37718872e+00   1.11306013e+00  -5.46491180e-01
C     2.492129531175000e+00   8.286936755877780e-02   7.014273304000000e+00 -1.18649421e+00  -1.68444507e+00  -9.80184160e-01
C     3.654692600475000e+00   8.200458140716843e-01   7.119566816000000e+00  2.44547644e+00  -1.64971140e-01  -1.16907160e+00
C     3.626645362125000e+00   6.072670364614855e-01   1.004643709600000e+01  3.28068660e-01   1.41641569e+00   5.26708610e-01
C     4.897491974400000e+00   1.364960227497267e+00   1.008416948000000e+01 -1.61606350e+00  -1.49965770e+00   2.78605690e-01
C     4.870273086975000e+00   9.109781422762021e-02   6.811156488000000e+00  1.59767786e+00  -4.99380400e-02   4.76951870e-01
C     6.170217249449999e+00   7.734455519662873e-01   6.664572288000000e+00 -1.50252145e+00  -1.81402560e-01   1.11456992e+00
C     6.084742992374999e+00   6.016408959314754e-01   1.006311668000000e+01  8.57002350e-01  -6.00421170e-01   4.24340990e-01
C     7.339280006099999e+00   1.313603330951512e+00   1.018438284800000e+01 -1.75314399e+00   2.03981690e-01  -3.68202300e-01
C     1.308613468875000e+00   2.148091258838125e+00   6.883762672000000e+00 -1.38197381e+00   3.36401290e+00   2.34063450e-01
C     2.514092755125000e+00   2.950405924385720e+00   7.013936567999999e+00 -1.41279888e+00   6.38892810e-01  -2.96911770e-01
C     2.385012216675000e+00   2.766727710235890e+00   1.030817861600000e+01  9.25032330e-01  -1.24012616e+00  -3.07693820e-01
C     3.624064913850000e+00   3.483847366025427e+00   1.032972319200000e+01  7.41750690e-01  -1.12722855e+00  -6.75035020e-01
C     3.701041391550000e+00   2.249372099233459e+00   7.170226951999999e+00  1.32680589e+00  -4.76667150e-01  -1.39315731e+00
C     4.970068981724999e+00   2.903781518228191e+00   6.991408848000001e+00 -5.30391750e-01   7.56936520e-01  -2.08347650e-01
C     4.875929041799999e+00   2.784292860396247e+00   1.022599177600000e+01 -1.27447056e+00  -1.27008060e+00   1.47004210e-01
C     6.070935824849999e+00   3.469986118398400e+00   1.020894404000000e+01  1.91177466e+00   7.34918460e-01  -7.41272330e-01
C     6.171516809775000e+00   2.181152983870061e+00   6.845868719999999e+00  7.42074040e-01  -2.84758830e-01  -5.74488000e-03
C     7.425584019150000e+00   2.854188290254501e+00   6.874848824000000e+00  8.10380580e-01  -7.55825700e-02  -1.63917890e-01
C     7.301923904774999e+00   2.742388584409274e+00   1.020239400800000e+01  8.98106370e-01  -1.88750330e-01  -1.61615370e-01
C     8.572874194950000e+00   3.447074629733935e+00   1.018957220000000e+01 -1.86925713e+00  -1.36510170e-01  -2.19345700e-01
C     9.901689546674998e+00   4.409165089948218e+00   6.841941992000001e+00  8.26655300e-02  -1.71174529e+00  -1.27199560e-01
C     3.779354071800000e+00   5.059504731158078e+00   6.733622344000000e+00 -1.19300221e+00   7.23714670e-01   3.56178620e-01
C     3.688305537675000e+00   4.870539738102239e+00   1.025362724800000e+01 -1.73807256e+00   1.17405145e+00  -6.17691800e-01
C     4.939081232550000e+00   5.608330673156812e+00   1.016007597600000e+01 -3.54373049e+00  -5.58928700e-02  -8.02663000e-03
C     5.019037192724999e+00   4.332973634187799e+00   6.848488216000001e+00 -1.49342978e+00  -8.40581500e-02   3.65296810e-01
C     6.238610276699999e+00   5.034211370910322e+00   6.906717976000000e+00 -2.79281600e-01   1.86551210e-01   1.04301030e-01
C     6.107869560750000e+00   4.909581310825792e+00   1.006993980000000e+01  5.85284780e-01  -1.46901492e+00   5.17366010e-01
C     7.305045334275000e+00   5.607169645249373e+00   9.933242256000000e+00  2.33418191e+00  -6.35312200e-01   7.70587480e-01
C     7.437206888550000e+00   4.255330269127938e+00   6.929168856000000e+00  8.91629100e-02   2.37506585e+00  -4.43877350e-01
C     8.619941853975000e+00   5.064485130368064e+00   6.805721384000000e+00  7.87868010e-01  -3.01822190e-01   4.86184890e-01
C     8.562659888174998e+00   4.838887718310446e+00   9.989938071999999e+00 -6.15041840e-01   1.14232901e+00   7.23830110e-01
C     9.780198053025000e+00   5.521566107882425e+00   1.008643333600000e+01  1.60338655e+00   2.58086223e+00   7.53423100e-02
