72
Lattice="7.395 0 0 3.6975 6.40425786098592 0 0 0 13.6 " PBC="1 1 1" Properties=species:S:1:pos:R:3:force:R:3 Energy="-581.4018633"
C     3.648031184475000e+00   6.251976071710770e+00   1.354530950400000e+01  8.23322400e-02   1.92748470e+00   5.97823000e-01
C     1.186458680700000e+00   5.781797298148873e-01   1.352539053600000e+01  2.27540990e-01  -3.76731680e-01   2.08191230e-01
C     1.301794909125000e+00   8.501025332305506e-01   3.376306352000000e+00 -7.07197580e-01   9.95503500e-02   5.39861460e-01
C     2.553190415925000e+00   1.546290832843357e+00   3.316063928000000e+00 -3.08625280e-01  -2.20396990e-01   1.05974993e+00
C     6.117972018150000e+00   6.277114000620263e+00   1.358739062400000e+01  4.28944230e-01  -3.55342990e-01   1.38918740e-01
C     3.664242577425000e+00   5.646408084859542e-01   1.356741385600000e+01  7.48185930e-01   2.51902370e-01   3.25001470e-01
C     3.806404205325000e+00   8.734997208111175e-01   3.449171480000000e+00 -1.96339680e-01  -2.56118990e-01  -4.73216240e-01
C     5.021999777625000e+00   1.607648234207816e+00   3.469399712000000e+00  1.74553910e-01   1.18767900e-02   6.12800540e-01
C     8.634317881874999e+00   6.302993030249316e+00   1.356188967200000e+01 -1.54347185e+00  -1.38650028e+00   7.16257950e-01
C     6.120148514549999e+00   6.347950344043308e-01   7.805720000000000e-03  1.23687947e+00  -1.00522811e+00  -3.05294190e-01
C     6.246594251474999e+00   8.802193243281438e-01   3.528052568000000e+00 -6.54048290e-01   6.79076000e-01  -3.97370340e-01
C     7.466240361074999e+00   1.577520043531232e+00   3.436737952000000e+00  8.56041590e-01   1.21525110e+00  -6.10564900e-02
C     1.218130652250000e+00   2.004162928331164e+00   1.349320790400000e+01 -1.30500721e+00  -2.39153350e-01   6.21889740e-01
C     2.430183686775000e+00   2.695473681115215e+00   1.339172919200000e+01  1.54112187e+00  -4.00536220e-01   1.23733770e+00
C     2.535596047050000e+00   2.949260394782302e+00   3.407343184000000e+00  9.40031760e-01   6.22176720e-01  -3.96261990e-01
C     3.786129296850000e+00   3.669738379351044e+00   3.441719224000000e+00 -1.57139464e+00   1.69395979e+00   1.05380970e+00
C     3.686417076525000e+00   1.969952983907509e+00   1.358110008000000e+01 -7.01579710e-01   1.56699469e+00  -1.50678702e+00
C     4.909651203150000e+00   2.738461045191472e+00   1.359423278400000e+01 -5.62229920e-01  -2.94041530e-01   6.80725040e-01
C     5.041515959100000e+00   3.048816248323045e+00   3.527340064000000e+00 -1.10387859e+00  -1.87375826e+00  -1.31722575e+00
C     6.233049051824999e+00   3.763453485680889e+00   3.428443040000000e+00  1.37643431e+00   5.03507610e-01   5.82425290e-01
C     6.132318650924999e+00   2.059040437550296e+00   8.892183199999999e-02  4.67645620e-01  -1.13195942e+00  -2.94361070e-01
C     7.384927899075000e+00   2.734402602943011e+00   1.229268640000000e-01  4.33275710e-01  -1.25872571e+00  -1.49685833e+00
C     7.479483881700000e+00   3.045008276599489e+00   3.399415608000000e+00 -1.51286845e+00  -2.15049966e+00   2.82072550e-01
C     8.705698489125000e+00   3.675926621593427e+00   3.426410792000000e+00  1.06850276e+00   1.17738550e+00  -5.56632670e-01
C     2.458968724275000e+00   4.107684779273876e+00   1.342453878400000e+01 -5.75848070e-01   9.71046970e-01   1.26127541e+00
C     3.667833922200000e+00   4.847901775290975e+00   1.356197208800000e+01  3.19065590e-01  -2.69247340e-01  -7.13494240e-01
C     3.728635723125000e+00   5.115755441347551e+00   3.562665520000000e+00  2.71464500e-01   6.13207900e-02  -7.79244370e-01
C     4.947947319900000e+00   5.827360262608686e+00   3.508101640000000e+00  1.12333513e+00   1.28299148e+00  -3.67435300e-01
C     4.916110439850000e+00   4.165327390866643e+00   2.029704800000000e-02 -3.76258920e-01  -4.61151240e-01   1.60013670e-01
C     6.141963357825000e+00   4.861559943901261e+00   1.245445840000000e-01  6.07292460e-01  -4.89618840e-01  -1.12301338e+00
C     6.218718762000000e+00   5.201611882857391e+00   3.457896015999999e+00  1.53394330e-01  -2.21198601e+00   8.03439900e-02
C     7.483912044675000e+00   5.839783690303563e+00   3.468708288000000e+00  2.39990200e-02   6.42940020e-01  -6.89253480e-01
C     7.403560082249999e+00   4.109877148867090e+00   6.360380000000000e-02 -4.50098580e-01   2.96369319e+00   7.47915470e-01
C     8.646448455000000e+00   4.847001720891330e+00   1.701876800000000e-02 -5.49382400e-01   2.90601200e-02  -1.33740731e+00
C     8.709585781800000e+00   5.097626204154885e+00   3.399290080000000e+00 -2.85706020e-01   1.71984910e+00   1.26717976e+00
C     9.908878817774999e+00   5.891127394078127e+00   3.533610888000000e+00  3.68250810e-01  -3.02179935e+00  -5.08983360e-01
C     7.405329557850000e+00   1.178032492909272e-01   7.053950216000000e+00  1.09375797e+00  -1.27291170e-01  -1.04025663e+00
C     1.272488302275000e+00   8.038290804037493e-01   6.897126168000000e+00 -7.36166010e-01   1.60488680e-01  -1.46720360e-01
C     1.156636531425000e+00   5.793015636642235e-01   1.008181804000000e+01 -4.93707770e-01   6.54948840e-01  -3.39405380e-01
C     2.368791875775000e+00   1.301414299094309e+00   1.004660750400000e+01  8.95596300e-01   2.27721100e-02  -5.07316900e-02
C     2.491643679675000e+00   9.375942379423620e-02   6.848278912000000e+00  3.78484230e-01  -4.92953090e-01  -1.81800150e-01
C     3.677979307575000e+00   8.707789359018751e-01   6.799659592000000e+00  6.58531420e-01  -1.13317733e+00   1.69174630e-01
C     3.627162642375000e+00   5.818736417059566e-01   1.010079004000000e+01 -1.06719907e+00   8.24326400e-01   4.95419110e-01
C     4.836461667975000e+00   1.301966986547628e+00   1.013933040000000e+01  1.00271726e+00  -3.55539530e-01  -8.99669910e-01
C     4.879958762175000e+00   1.050065814479682e-01   6.910170200000000e+00  1.75809002e+00   4.13222870e-01  -2.58682360e-01
C     6.153669014250000e+00   7.788530511329568e-01   6.950720367999999e+00 -3.83344160e-01   6.94853790e-01   3.12482930e-01
C     6.061543620224999e+00   5.613262207879326e-01   1.015046458400000e+01 -1.84265980e-01  -2.66308670e-01   5.84710600e-02
C     7.289542234424999e+00   1.257056744048906e+00   1.006975062400000e+01  1.95279090e-01   2.79500980e-01   8.02175370e-01
C     8.677594235325000e+00   2.222075038829046e+00   6.777892928000000e+00  1.40211750e-01   6.33048690e-01   1.20279317e+00
C     2.506504486800000e+00   3.019630123977668e+00   6.801814919999999e+00 -8.45456040e-01  -1.23743821e+00  -6.76434380e-01
C     2.366289222900000e+00   2.743110280227517e+00   9.972347967999999e+00  3.58709580e-01  -1.81409855e+00   2.65523430e-01
C     3.606570266550000e+00   3.420452898320859e+00   9.969632455999999e+00  6.72593630e-01   6.84520270e-01   4.12268600e-01
C     3.708565545224999e+00   2.293491736099364e+00   6.736207704000000e+00  1.18580893e+00  -1.45457460e-01   7.20115770e-01
C     4.991775377325000e+00   2.976635330962293e+00   6.798843864000000e+00 -1.41116590e+00  -1.71726029e+00   2.43863510e-01
C     4.863317276025001e+00   2.713940742909997e+00   9.987076631999999e+00 -1.53169371e+00   1.65082160e-01   9.52661800e-01
C     6.060251528849999e+00   3.429930047187244e+00   1.010013914400000e+01  1.10564978e+00   3.59044010e-01   3.50832070e-01
C     6.184607290874999e+00   2.199528464777444e+00   6.925508551999999e+00  1.76138360e-01   6.80756900e-01  -7.21683320e-01
C     7.433292752025000e+00   2.888074435400755e+00   6.909668360000000e+00  1.99874970e-01   8.70609830e-01  -5.37302650e-01
C     7.273587484949999e+00   2.662474269512257e+00   1.014602704000000e+01  9.42427270e-01   1.65694607e+00  -1.16013477e+00
C     8.526612221175000e+00   3.398576786024620e+00   1.001467783200000e+01 -9.73101910e-01   4.27800770e-01   1.25631247e+00
C     9.902463877124999e+00   4.436564810606129e+00   6.882717648000001e+00  8.44152970e-01  -7.73478200e-01   6.07544970e-01
C     3.772405507950000e+00   5.115649707050283e+00   7.012106279999999e+00 -1.08529566e+00  -8.49138120e-01  -1.19641162e+00
C     3.618528092475000e+00   4.840506330441983e+00   1.008647685600000e+01  2.56116700e-01   3.46089540e-01  -4.54515130e-01
C     4.866893276175000e+00   5.588575266808334e+00   1.006077639200000e+01 -5.39460090e-01  -1.55627154e+00   8.99924590e-01
C     4.984924390500000e+00   4.367563223017394e+00   6.839129784000000e+00  9.62113530e-01   1.25509746e+00   5.52002730e-01
C     6.266755979475000e+00   5.039068936454553e+00   6.837947128000000e+00 -2.39467408e+00   1.64852807e+00   5.13588350e-01
C     6.095582694299999e+00   4.883460520462524e+00   1.016516224000000e+01 -1.96871570e-01  -1.02094707e+00  -7.96852550e-01
C     7.339287955725000e+00   5.581726937708321e+00   1.018399837600000e+01 -7.09439230e-01  -1.00724258e+00  -1.89295860e-01
C     7.459681550699999e+00   4.327852213219735e+00   6.892629735999999e+00  2.86528700e-02  -4.88188630e-01  -2.32579630e-01
C     8.659207270350000e+00   5.085613481516568e+00   6.923454680000000e+00 -7.03493510e-01   5.54908630e-01  -2.53382990e-01
C     8.544031994099999e+00   4.818014768965398e+00   1.014938746400000e+01 -2.62527080e-01   3.51211210e-01  -2.42355620e-01
C     9.764502313425000e+00   5.532244823608504e+00   1.016173925600000e+01  5.40099390e-01   2.48960720e-01  -2.78805690e-01
