72
Lattice="7.395 0 0 3.6975 6.40425786098592 0 0 0 13.6 " PBC="1 1 1" Properties=species:S:1:pos:R:3:force:R:3 Energy="-581.09934607"
C     3.733303151325000e+00   6.375378947904167e+00   1.351303616000000e+01 -8.12931720e-01   1.38441198e+00   2.97443270e-01
C     1.242596492100000e+00   7.394559780555948e-01   1.354407394400000e+01  2.40746680e-01  -9.51628360e-01  -1.21034180e-01
C     1.291460507550000e+00   7.068958344992544e-01   3.425979128000000e+00 -2.55755332e+00   1.57704261e+00  -3.10442750e-01
C     2.458255994175000e+00   1.488917264123289e+00   3.422048048000000e+00  1.58933890e-01  -2.89474760e-01  -3.37281760e-01
C     2.481411550950000e+00   1.140098792752920e-02   1.355646204800000e+01 -1.20267349e+00  -1.18022524e+00  -5.98778000e-03
C     3.682938283650000e+00   6.930344587870705e-01   1.348422456000000e+01  1.59942140e+00   1.70324497e+00   3.87289770e-01
C     3.647487097350000e+00   7.238084548262569e-01   3.413868872000000e+00  2.16084355e+00   1.94103190e-01   2.41602590e-01
C     4.941406035675000e+00   1.418949209980903e+00   3.439554920000000e+00 -1.75058538e+00  -1.59410150e-01   5.55703000e-03
C     8.632934979900000e+00   6.396045808231280e+00   1.354906256000000e+01 -3.93665780e-01  -1.39610880e-01  -2.20372630e-01
C     6.196378060274999e+00   7.211638165429698e-01   1.357746221600000e+01 -6.76532340e-01  -3.00434799e+00  -2.91246320e-01
C     6.155887699125000e+00   7.228818227564935e-01   3.442754456000000e+00 -8.49679600e-02  -1.84032280e-01   5.75920200e-02
C     7.369435928700000e+00   1.395017330911605e+00   3.398836248000000e+00  2.71721524e+00   2.05537114e+00   1.07956430e-01
C     8.615390564249999e+00   2.171432152992102e+00   1.353715208800000e+01  1.33560984e+00  -1.90166226e+00  -1.03214340e-01
C     2.449019232450000e+00   2.888367045942378e+00   1.348576027200000e+01  9.65516530e-01  -1.82205775e+00  -1.09820890e-01
C     2.441941588875000e+00   2.945381527924236e+00   3.387291480000000e+00  2.84357602e+00  -3.44961891e+00   3.68111550e-01
C     3.727127032199999e+00   3.556491375272036e+00   3.468116280000000e+00 -1.01565832e+00   2.14271674e+00  -3.82673980e-01
C     3.686717609325000e+00   2.161155048276424e+00   1.345006530400000e+01  2.14458950e-01  -1.05937750e+00   1.03142005e+00
C     4.931730861375000e+00   2.854909473732116e+00   2.760256000000000e-02  2.14032900e-02  -2.00808432e+00  -6.25607810e-01
C     4.949209091775000e+00   2.830836124606690e+00   3.479612360000000e+00 -1.53971992e+00  -2.27782250e-01  -1.65649460e-01
C     6.125666367750000e+00   3.558782434478872e+00   3.470337160000000e+00  2.91067167e+00  -9.26363890e-01  -5.31511060e-01
C     6.196286584125000e+00   2.087122339755453e+00   4.700527200000000e-02 -2.11945046e+00   1.76491083e+00  -2.35643830e-01
C     7.391207991900000e+00   2.787619360013888e+00   1.359383960800000e+01 -5.98959780e-01   1.93169136e+00   2.52499580e-01
C     7.392607643550000e+00   2.860623800892858e+00   3.375833752000000e+00 -5.32623140e-01  -1.14527326e+00   3.67476570e-01
C     8.640468007574999e+00   3.586333615835170e+00   3.361711512000000e+00 -2.12879347e+00   6.06702760e-01   5.44060300e-01
C     2.492855720175000e+00   4.268488777539987e+00   1.348572613600000e+01 -3.07150141e+00   9.12098370e-01   8.81606400e-02
C     3.687755941274999e+00   4.950318090604887e+00   1.347720342400000e+01  1.34876999e+00   1.24549287e+00   6.84808750e-01
C     3.741579857175000e+00   5.022101751850584e+00   3.449768520000000e+00 -5.08985580e-01  -8.77549880e-01   1.58661110e-01
C     4.994790244875000e+00   5.713633131317913e+00   3.415337808000000e+00 -1.34445283e+00  -7.11926600e-01   2.95613780e-01
C     4.903083814575000e+00   4.245219034690835e+00   2.725276800000000e-02  1.01120902e+00   1.01012177e+00  -3.73335700e-01
C     6.144918436799999e+00   4.968432726089634e+00   4.586382400000000e-02 -1.20081590e-01   4.05151500e-02  -3.11732290e-01
C     6.175847469675000e+00   4.950490621311636e+00   3.430324463999999e+00 -3.89474960e-01   1.20332961e+00   4.44858700e-02
C     7.367929936950000e+00   5.681486254521277e+00   3.428006208000000e+00  1.67637375e+00   5.95548640e-01   2.01035380e-01
C     7.339724852325000e+00   4.201245863202188e+00   9.414871999999999e-03  1.73596458e+00   2.48498264e+00  -2.33371940e-01
C     8.596196915700000e+00   4.967524346154771e+00   1.352940117600000e+01  5.35274710e-01  -4.21756180e-01   2.85744520e-01
C     8.646909459300000e+00   4.982265026471133e+00   3.479132688000000e+00 -7.46815130e-01   1.85884585e+00  -6.58515350e-01
C     9.875820283725000e+00   5.732538372435475e+00   3.486092896000000e+00  1.60074470e-01  -2.24790449e+00  -2.67461100e-01
C     2.096452920000000e-02   1.135436493030840e-02   6.928094048000000e+00 -3.40091550e-01  -9.96328180e-01  -1.53040770e-01
C     1.220825168400000e+00   7.153073148577356e-01   6.854920063999999e+00  1.43063681e+00   6.03563430e-01  -3.42176280e-01
C     1.170517722900000e+00   6.852014109985044e-01   1.020419165600000e+01  4.65687998e+00  -1.43210300e-01  -1.44138400e-02
C     2.466887253300000e+00   1.425178055218117e+00   1.017712779200000e+01 -6.80593210e-01  -1.57617358e+00   4.37425330e-01
C     2.479684189875000e+00   9.361167756540601e-03   6.729439800000000e+00 -6.30113090e-01   3.72258160e-01   4.44198520e-01
C     3.756607532474999e+00   6.890518429516723e-01   6.661668280000000e+00 -1.12126820e+00  -1.25509390e-01   7.52179650e-01
C     3.716658152550000e+00   6.922176597396060e-01   1.028366271200000e+01 -2.35544865e+00  -4.03041290e-01  -3.93622050e-01
C     4.907371879274999e+00   1.411146006033964e+00   1.024489795200000e+01  1.28010408e+00  -4.90989570e-01   5.24442500e-02
C     8.673553533374999e+00   6.401601181711936e+00   6.836586176000000e+00  7.03412580e-01   1.04324000e-01  -1.63157850e-01
C     6.223217325374999e+00   7.518607053175219e-01   6.929451328000000e+00 -2.24793381e+00  -9.92671140e-01  -7.92151710e-01
C     6.154151464049999e+00   7.217074739927052e-01   1.024759143200000e+01  4.28473490e-01   1.49168400e-01  -2.05353790e-01
C     7.429186419450000e+00   1.383063143190128e+00   1.019025152000000e+01 -3.69274583e+00   3.35174380e+00  -1.78684750e-01
C     8.611738247700000e+00   2.146317343453483e+00   6.848129992000000e+00 -1.99227500e-02   8.13497890e-01  -7.28907540e-01
C     2.480402688075000e+00   2.816815026703478e+00   6.739605936000000e+00 -8.36746730e-01  -2.72977060e-01   3.85442440e-01
C     2.465858941575000e+00   2.835598971177173e+00   1.014446793600000e+01 -4.17321870e-01  -5.88233880e-01   2.17846430e-01
C     3.691063428975000e+00   3.497185962168499e+00   1.013144199200000e+01  5.28290340e-01   2.44439288e+00   1.60585640e-01
C     3.725633611950000e+00   2.100388952040179e+00   6.658411896000000e+00 -4.40893940e-01   8.08370180e-01   5.95242500e-01
C     4.929607608975000e+00   2.832149381723462e+00   6.753875055999999e+00 -9.14447050e-01   1.21939204e+00   8.40450400e-02
C     4.919985161025000e+00   2.799346644879385e+00   1.017590352000000e+01 -1.48312240e-01   1.49614397e+00  -2.17649160e-01
C     6.147502434674999e+00   3.544771135090185e+00   1.016183894400000e+01  7.16087140e-01  -7.03401750e-01   2.27426890e-01
C     6.145132891799999e+00   2.156436070872283e+00   6.813922728000000e+00  2.11269120e+00   1.10164598e+00   2.56311200e-01
C     7.384644781500000e+00   2.955175239256641e+00   6.806394719999999e+00  2.35648420e-01  -4.35883330e+00   3.53514720e-01
C     7.415513988824999e+00   2.867455158709542e+00   1.014523388800000e+01 -3.24976260e-01  -1.29436914e+00   5.99015200e-01
C     8.642588782649998e+00   3.581355009817385e+00   1.021050192000000e+01 -5.05776130e-01  -1.07754065e+00  -3.38956340e-01
C     9.822160573800000e+00   4.229862328810919e+00   6.838469640000000e+00  2.61190854e+00   1.87690280e-01  -1.87209210e-01
C     3.680157467850000e+00   4.966992280411762e+00   6.869270103999999e+00 -1.47614462e+00   1.13004065e+00   1.24928030e-01
C     3.683443657950000e+00   4.973227722034572e+00   1.013294683200000e+01 -9.21770890e-01  -5.83243340e-01   6.29987850e-01
C     4.887816023625000e+00   5.682241124395236e+00   1.021303315200000e+01  1.16879160e+00  -1.02173303e+00  -2.64376120e-01
C     4.875097030350000e+00   4.296260777707299e+00   6.839379479999999e+00  2.23128278e+00  -1.73553565e+00  -4.91716130e-01
C     6.116912055824999e+00   5.013628278276018e+00   6.797942455999999e+00  1.24552558e+00  -2.94952480e-01  -2.15983540e-01
C     6.154292338799999e+00   4.950059934970550e+00   1.023632981600000e+01 -1.03347261e+00   7.37103990e-01   9.20210000e-03
C     7.382524154324999e+00   5.642092063359953e+00   1.033209204000000e+01  8.64993000e-02   1.52835135e+00  -4.64035560e-01
C     7.402824020924999e+00   4.324112446842388e+00   6.772973400000000e+00 -1.60504528e+00   4.02704770e-01   2.89199310e-01
C     8.651095251150000e+00   4.957447374497217e+00   6.842865976000001e+00 -9.46434150e-01   2.02450089e+00  -1.59258390e-01
C     8.625963602475000e+00   4.980860252509542e+00   1.030565880800000e+01 -2.17866740e-01   3.19186780e-01  -4.86130290e-01
C     9.827634944400000e+00   5.736446826964855e+00   1.022621196000000e+01  1.41686262e+00  -2.14511429e+00   3.66118900e-02
