72
Lattice="7.395 0 0 3.6975 6.40425786098592 0 0 0 13.6 " PBC="1 1 1" Properties=species:S:1:pos:R:3:force:R:3 Energy="-582.20596954"
C     1.353943155000000e-02   1.675123302893040e-02   1.356797036800000e+01  1.62497900e-01  -1.18309123e+00   6.43240300e-02
C     1.275443048475000e+00   6.903907170998839e-01   1.359268347200000e+01 -1.35408885e+00   1.04012784e+00  -3.33785670e-01
C     1.216241895300000e+00   7.524422759737884e-01   3.422765584000000e+00  1.94467029e+00  -1.71483953e+00  -4.06693070e-01
C     2.465312672925000e+00   1.446803120606243e+00   3.416641776000000e+00  3.15965400e-02  -3.48683500e-01  -2.47412750e-01
C     6.188216605500000e+00   6.392301238660538e+00   1.358213259200000e+01 -2.24084270e-01   9.29241190e-01   1.04624920e-01
C     3.722623181400000e+00   7.316988847652485e-01   1.356923136000000e+01 -1.49333442e+00  -1.45977475e+00  -2.60473650e-01
C     3.696044035424999e+00   7.214736545382366e-01   3.401100376000000e+00 -1.23324925e+00  -4.51973790e-01   7.97815800e-02
C     4.901143995150000e+00   1.398940066936012e+00   3.417610096000000e+00  1.56655534e+00   8.79208550e-01  -1.35735380e-01
C     8.601723384074999e+00   6.392130052847939e+00   1.358685736800000e+01  1.03614955e+00   2.47365690e-01  -8.87415200e-02
C     6.138947196150000e+00   6.395403333082764e-01   1.512320000000000e-04  1.08700097e+00   3.05754251e+00  -2.02466330e-01
C     6.162866619449999e+00   6.893523947730421e-01   3.418911480000000e+00  1.64258440e-01   6.23273380e-01  -1.62208800e-01
C     7.413986033925000e+00   1.433286678222399e+00   3.392211824000000e+00 -1.85065480e+00  -1.16845170e+00   2.19975710e-01
C     1.255305354225000e+00   2.114548445955746e+00   1.356693051200000e+01 -8.71985460e-01   1.32513990e+00   3.98233230e-01
C     2.482567389450000e+00   2.841860606214630e+00   1.358577780000000e+01 -1.08328072e+00   8.79219010e-01  -7.14972870e-01
C     2.483452386075000e+00   2.850483875380541e+00   3.386190832000000e+00 -1.60583352e+00   1.76953333e+00   2.44651840e-01
C     3.684373468275000e+00   3.605266779517002e+00   3.440852496000000e+00  1.15275830e+00  -2.23071647e+00  -5.23888670e-01
C     3.705860602125000e+00   2.119328584022450e+00   1.350504262400000e+01 -3.12991070e-01   1.05590887e+00   1.30136484e+00
C     4.926762641549999e+00   2.803679061279096e+00   3.870274400000000e-02  2.24015700e-02   1.98737533e+00  -8.53985460e-01
C     4.888993640400000e+00   2.827706043577615e+00   3.412721439999999e+00  1.75919268e+00   7.89234560e-01   4.56479090e-01
C     6.186639436875000e+00   3.504218349639408e+00   3.438346016000000e+00 -2.04506011e+00   1.73534884e+00  -4.04476140e-01
C     6.130764739574999e+00   2.102013392046368e+00   9.868432000000000e-03  1.73547415e+00  -4.89054000e-02   2.02186580e-01
C     7.377586290975000e+00   2.870986722663860e+00   1.359434063200000e+01  6.18048170e-01  -1.43071568e+00   8.63249500e-02
C     7.411078948500000e+00   2.822455192558202e+00   3.390576696000000e+00 -1.34092300e-02   1.47153972e+00  -1.53224500e-02
C     8.610052520475000e+00   3.588814497244977e+00   3.362463320000000e+00  1.07911007e+00  -9.76429430e-01   7.32720000e-01
C     9.816036811275000e+00   4.302962001004267e+00   1.356325076000000e+01  2.45738337e+00  -1.39859896e+00  -4.00776500e-02
C     3.707171587725000e+00   5.006483816292559e+00   1.353991370400000e+01 -7.30624920e-01  -1.16276794e+00   5.35272970e-01
C     3.722814157275000e+00   5.000755719977417e+00   3.415382824000000e+00 -2.35779760e-01   4.22672500e-02   7.61496000e-03
C     4.948040792700000e+00   5.711900331268732e+00   3.391560112000000e+00  1.35780160e-01  -1.36665620e-01   3.92837780e-01
C     4.937441132475000e+00   4.265355686509718e+00   1.606840000000000e-02 -7.09751320e-01  -4.62979720e-01  -1.75042970e-01
C     6.153627861074999e+00   4.990608301483404e+00   1.528286400000000e-02  2.62958220e-01  -4.68462990e-01   2.38675600e-02
C     6.178821886574999e+00   4.965168924156441e+00   3.415293472000000e+00 -9.86972000e-02  -3.04654200e-02  -1.72600780e-01
C     7.405312919100000e+00   5.715144856385765e+00   3.390129528000000e+00 -1.00304821e+00  -5.92849010e-01   5.62719510e-01
C     7.391703013200000e+00   4.314695818212780e+00   1.102647200000000e-02 -9.29278110e-01  -2.70384510e+00  -2.10273930e-01
C     8.601306749774999e+00   4.993462935381921e+00   1.356502433600000e+01  3.34858230e-01  -1.88690040e-01   3.31258700e-01
C     8.616894337500000e+00   5.019489519112068e+00   3.460368496000000e+00  6.72722650e-01  -1.79225822e+00  -9.88191560e-01
C     9.876466754625000e+00   5.662966998024937e+00   3.420840775999999e+00 -3.82340340e-01   2.16089804e+00   2.59788170e-01
C     3.706954692375000e+00   6.401860938410739e+00   6.833684615999999e+00 -2.04243150e-01   5.46518760e-01   3.05842970e-01
C     1.245180933675000e+00   7.343030481388603e-01   6.824382215999999e+00 -8.68539670e-01  -6.77820230e-01  -1.52409390e-01
C     1.263688880850000e+00   6.957770181730368e-01   1.019849012800000e+01 -2.88742628e+00   5.81736400e-02   1.07329410e-01
C     2.452085088525000e+00   1.387327546371367e+00   1.017739829600000e+01  7.15127940e-01   1.64960645e+00   4.06679180e-01
C     2.463398625075000e+00   2.802112579806540e-02   6.762724031999999e+00  4.35375030e-01  -7.59656610e-01   3.83403380e-01
C     3.720868865550000e+00   6.805379585100096e-01   6.746628840000000e+00  9.71972000e-02   8.81366090e-01   1.64352900e-01
C     3.661251447825000e+00   6.945743625895074e-01   1.025507224800000e+01  2.02460563e+00   2.87718800e-01  -8.06095950e-01
C     4.931982291375000e+00   1.412646267480248e+00   1.018837907200000e+01 -7.61650120e-01   2.80542420e-01   8.37772990e-01
C     4.985110189875001e+00   3.780625542493800e-03   6.805498343999999e+00 -1.68543658e+00  -1.22219270e-01   2.00724140e-01
C     6.182174816549999e+00   7.387266611704980e-01   6.873229200000000e+00  7.21714350e-01  -1.18199420e-01  -8.72789540e-01
C     6.179364198900000e+00   7.205758416288432e-01   1.023288058400000e+01 -6.83208300e-01  -2.19519300e-01  -5.16798220e-01
C     7.384309861949999e+00   1.473231763644841e+00   1.020252728800000e+01  1.57499221e+00  -2.83079745e+00  -1.52541280e-01
C     8.615622804225000e+00   2.145257374735074e+00   6.838253128000001e+00  2.98379420e-01  -6.65681460e-01  -5.95709280e-01
C     2.457462843450000e+00   2.799057364551849e+00   6.758412152000000e+00  6.90386760e-01   1.36935998e+00   6.26398170e-01
C     2.467278892500000e+00   2.824062277025590e+00   1.018106322400000e+01  6.74648000e-03   8.61231220e-01  -3.84361000e-03
C     3.694443165825000e+00   3.580850802596068e+00   1.017049357600000e+01 -3.31363450e-01  -1.99826704e+00   2.01565280e-01
C     3.696381839024999e+00   2.101548186755418e+00   6.746691943999999e+00  1.89381410e-01   3.48194720e-01   1.32139800e-01
C     4.912679603549999e+00   2.853876018641248e+00   6.789530040000000e+00  9.93323290e-01  -5.51787790e-01  -1.56837140e-01
C     4.924908641100000e+00   2.859361905924124e+00   1.020952136000000e+01  3.66121150e-01  -1.10124828e+00  -5.25777510e-01
C     6.168490553925000e+00   3.541345113305399e+00   1.018496098400000e+01 -5.80576850e-01   6.29094870e-01   5.87226600e-02
C     6.188163435450001e+00   2.176156317845110e+00   6.786265904000000e+00 -1.71282875e+00  -1.62251081e+00   5.54189520e-01
C     7.397120812050000e+00   2.845091938560472e+00   6.797519632000000e+00 -1.44526700e-01   2.25124954e+00   9.01876100e-02
C     7.406006163374999e+00   2.858575399016337e+00   1.016285527200000e+01 -2.75255600e-01   2.66945490e-01   5.13106980e-01
C     8.641429357574999e+00   3.554757550541598e+00   1.021615965600000e+01 -9.12753000e-03   4.28273920e-01  -3.60395010e-01
C     2.475014099475000e+00   4.230971610314850e+00   6.825870736000001e+00 -1.41383983e+00   8.30490520e-01  -3.90338630e-01
C     3.669793893000000e+00   4.975199721114824e+00   6.817607104000000e+00  1.39030797e+00  -3.55726300e-01   1.39914800e-01
C     3.687217992000000e+00   4.970856353434172e+00   1.016230909600000e+01  5.47992990e-01   4.88468220e-01   4.09335770e-01
C     4.935279537000000e+00   5.664752441073726e+00   1.021863512800000e+01 -9.10516580e-01   1.14342468e+00  -4.18568360e-01
C     4.930421391750000e+00   4.255567610924230e+00   6.820428559999999e+00 -1.18924097e+00   1.25287884e+00  -1.76552950e-01
C     6.139658964900000e+00   5.010213079687015e+00   6.812937952000000e+00 -6.30477200e-02  -6.70345330e-01  -3.94748230e-01
C     6.136539236250000e+00   4.964085387769107e+00   1.020679116000000e+01  1.14372363e+00  -1.86659520e-01   1.51395100e-01
C     7.360749724724999e+00   5.696030900504545e+00   1.024144355200000e+01  7.56932380e-01  -7.55769550e-01   1.16050260e-01
C     7.353906354750000e+00   4.304146724665788e+00   6.778844248000000e+00  1.80957608e+00  -7.30097440e-01   3.53792020e-01
C     8.622089768700000e+00   4.995397853809163e+00   6.820610936000000e+00  6.41619870e-01  -1.19183980e+00  -1.89162330e-01
C     8.616013519050000e+00   4.991294645798261e+00   1.024986834400000e+01  5.15340450e-01  -3.99068990e-01  -4.19648100e-01
C     9.874294103624999e+00   5.673738319319671e+00   1.019780849600000e+01 -1.20665908e+00   1.38562207e+00   3.46201060e-01
