32
Lattice="9.86 0 0 4.93 8.53901048131456 0 0 0 30 " PBC="1 1 1" Properties=species:S:1:pos:R:3:force:R:3 Energy="-255.54695222"
C     9.830385391400000e+00   1.301724329217312e-01   4.146846900000000e+00 -5.32244610e-01   4.25301963e+00   8.04488220e-01
C     1.181065704400000e+00   9.705548610902144e-01   4.251212100000000e+00  7.73192780e-01  -3.64243754e+00  -1.33474188e+00
C     2.440856705399999e+00   2.506445499381824e-01   4.010283299999999e+00 -7.20911430e-01  -1.10925220e-01   5.72659200e-01
C     3.661086921400000e+00   9.906095811035424e-01   4.014764100000000e+00 -6.49982540e-01  -1.63623440e-01   1.51806630e-01
C     4.913242930000000e+00   2.881372955933472e-01   3.988013100000000e+00 -2.19018592e+00  -5.99066630e-01   9.92706290e-01
C     6.124833173100000e+00   9.754928854606936e-01   4.108342800000000e+00  9.28331170e-01  -1.45104549e+00  -1.05247974e+00
C     7.342535087899999e+00   2.557530129578424e-01   4.008414900000000e+00  1.03937363e+00  -1.90473879e+00   2.00122784e+00
C     8.584763062499999e+00   8.872423829301033e-01   4.184716800000000e+00  3.89967350e-01   2.32813986e+00  -4.58293630e-01
C     1.104105860520000e+01   2.350896322775000e+00   4.325908800000001e+00  1.04622610e+00   1.90403319e+00   1.90908930e-01
C     2.437775110300000e+00   3.125088867378077e+00   4.317918000000000e+00 -1.77962419e+00  -2.38183827e+00  -1.47644790e-01
C     3.608328723600000e+00   2.421119949501052e+00   4.153359600000000e+00  2.79473904e+00  -1.44469287e+00  -2.23223080e-01
C     4.896754939399999e+00   3.084580228611482e+00   4.090875000000000e+00 -3.68374220e-01  -4.59753610e-01   4.90764090e-01
C     6.160645531200000e+00   2.349773101336460e+00   4.086499500000000e+00 -2.62916697e+00   1.87568845e+00  -4.93320310e-01
C     7.342710004299999e+00   3.069767692521931e+00   4.010912100000000e+00  1.70429768e+00   5.95882070e-01   1.67505442e+00
C     8.559345362899998e+00   2.412692885448446e+00   4.253472000000000e+00  2.07578134e+00  -3.41614631e+00  -1.17957904e+00
C     9.842203242299998e+00   3.077389613276379e+00   4.284914700000000e+00 -2.51205579e+00   3.14977100e-01   1.59979490e-01
C     1.231471956960000e+01   4.508069481031917e+00   4.337939100000000e+00 -4.45129126e+00   7.25912700e-02   2.19947280e-01
C     3.570904206200000e+00   5.201823607622241e+00   4.164396900000000e+00  6.14334533e+00   1.30838947e+00  -9.10228850e-01
C     4.878475830499999e+00   4.481928068958340e+00   4.093823700000000e+00  2.93818910e-01   1.18019115e+00  -9.89090630e-01
C     6.157370433600000e+00   5.172352920752617e+00   3.861962100000000e+00 -1.98219208e+00   1.65348538e+00   1.81844290e+00
C     7.385819156799998e+00   4.492620532491291e+00   4.017866400000000e+00 -1.41394559e+00   4.02232000e-02  -1.70084487e+00
C     8.587233485499999e+00   5.215836379990236e+00   3.976580400000000e+00  8.65533120e-01   5.19356000e-03   8.69908240e-01
C     9.796679474399999e+00   4.499436712216847e+00   4.208907300000000e+00  1.65384085e+00   6.32338560e-01   1.96486900e-01
C     1.104851286380000e+01   5.210705544763118e+00   4.339091400000000e+00 -7.29151890e-01   1.46831721e+00  -9.48513340e-01
C     1.350216286990000e+01   6.622142069281138e+00   3.996642000000000e+00  3.01337280e-01  -1.22958277e+00   1.67114411e+00
C     4.892618324300000e+00   7.291614665670536e+00   4.046868600000000e+00 -2.61410200e-02   8.41847700e-02  -8.46506340e-01
C     6.121447101199999e+00   6.642944550442200e+00   3.921139200000000e+00  9.31515180e-01  -2.70684952e+00  -4.58551420e-01
C     7.359974124799999e+00   7.322810147267015e+00   3.883019400000000e+00 -1.29514541e+00   2.61841906e+00   4.53580660e-01
C     8.569948461799999e+00   6.650641614488872e+00   3.923021100000000e+00  9.39909760e-01  -6.38480430e-01   5.57930470e-01
C     9.751523928199999e+00   7.410995240977328e+00   4.111350600000000e+00  3.25497164e+00  -1.21252549e+00  -1.02699632e+00
C     1.105033178730000e+01   6.670626400006368e+00   4.203019800000000e+00 -9.22127330e-01  -1.24068183e+00   4.83304270e-01
C     1.232679476650000e+01   7.326625804100003e+00   4.161786900000000e+00 -2.93364093e+00   2.26731428e+00  -1.54032569e+00
