32
Lattice="9.86 0 0 4.93 8.53901048131456 0 0 0 30 " PBC="1 1 1" Properties=species:S:1:pos:R:3:force:R:3 Energy="-254.34752083"
C     4.925297075800000e+00   8.282781417207898e+00  -6.259791000000021e-01  2.72516360e+00   9.54088920e-01  -3.14484640e-01
C     1.320022536500000e+00   4.738398529576712e-01  -6.557253000000003e-01 -3.29015846e+00  -1.33742810e-01  -5.43333350e-01
C     7.416509195600000e+00   8.249362291892322e+00  -6.205728000000015e-01 -4.57262080e-01   2.87101920e-01  -4.12476090e-01
C     3.671515202499999e+00   4.264041127193848e-01  -7.540343999999983e-01  2.15107043e+00   1.20319687e+00   1.41961518e+00
C     9.871620404400000e+00   8.391135824452181e+00  -6.748830000000012e-01  1.13059901e+00  -4.67191088e+00  -9.82785370e-01
C     6.207495370499999e+00   5.062168774342680e-01  -7.827407999999991e-01 -1.44302382e+00  -6.33631470e-01   6.64759410e-01
C     1.235617248860000e+01   8.241594866399295e+00  -7.758837000000014e-01 -1.07462858e+00   2.33002796e+00   2.80669610e-01
C     8.619989046399999e+00   4.044881445917312e-01  -6.568538999999980e-01  2.26635806e+00   2.88032880e+00   7.73356300e-02
C     1.335740066700000e+00   1.888056764678084e+00  -8.651235000000028e-01 -1.13875241e+00   1.99292500e-02   2.29219285e+00
C     2.575161441600000e+00   2.599361204898058e+00  -7.080722999999978e-01 -3.30430286e+00  -8.85704190e-01  -1.07222581e+00
C     3.724383043500000e+00   1.812359803014561e+00  -6.441167999999990e-01  1.66858154e+00   4.06697501e+00  -1.15953769e+00
C     5.018745422999999e+00   2.645879343070163e+00  -6.938789999999990e-01 -3.82539561e+00  -1.94849003e+00   6.09791110e-01
C     6.159193054600000e+00   1.937343676998330e+00  -7.431848999999993e-01  5.86146448e+00  -1.41673535e+00   4.04488330e-01
C     7.511084590100000e+00   2.612311382801921e+00  -6.772221000000016e-01 -2.63194486e+00   5.71315770e-01  -2.54650980e-01
C     8.733009986599999e+00   1.922256440941637e+00  -5.906778000000017e-01 -2.32821363e+00  -2.59662722e+00  -1.33099080e+00
C     9.912006865799999e+00   2.627137922868659e+00  -7.500900000000001e-01  2.94644898e+00  -5.84055570e-01   5.43677290e-01
C     2.438371245900000e+00   4.022645777237288e+00  -8.089577999999982e-01  2.05769200e-01  -1.35737690e+00   6.94472290e-01
C     3.611755763800000e+00   4.636000082142229e+00  -8.713322999999988e-01  7.43681455e+00   5.61185018e+00   1.85884140e+00
C     4.964467010400000e+00   4.037183698749802e+00  -6.368939999999981e-01 -1.30490461e+00   6.35101800e-02  -1.58947324e+00
C     6.219316771000000e+00   4.753580207089313e+00  -6.634874999999987e-01 -8.67398460e-01  -1.41066928e+00  -5.32758900e-01
C     7.470287262500000e+00   4.033863987645492e+00  -7.622022000000008e-01  2.07928690e-01   6.04619030e-01   6.71178340e-01
C     8.702040071699999e+00   4.791621925728237e+00  -7.892678999999987e-01 -5.33044100e-02  -3.01571227e+00   1.17285650e+00
C     9.965061701700000e+00   4.050418396482859e+00  -6.354743999999997e-01 -3.95562303e+00   1.64679320e-01  -1.52412922e+00
C     1.111388441730000e+01   4.789018722993306e+00  -6.928832999999983e-01  1.09932659e+00  -1.40048968e+00  -7.00758780e-01
C     3.795611831400000e+00   6.169541638650791e+00  -7.814894999999993e-01 -2.99964166e+00  -2.35755508e+00  -5.94906360e-01
C     5.020124738400000e+00   6.884952232840281e+00  -6.963824999999986e-01 -2.34547641e+00  -1.00886695e+00   1.81253020e-01
C     6.202153666199999e+00   6.147459415989091e+00  -6.585326999999985e-01  1.26570838e+00   4.74803860e-01   2.19066340e-01
C     7.414398070999999e+00   6.849360954038803e+00  -5.977607999999996e-01  7.57844600e-01  -1.56474170e-01  -8.32773500e-01
C     8.670415748600000e+00   6.172514238979088e+00  -7.353537000000010e-01 -1.08740066e+00   3.13692510e-01   7.94262240e-01
C     9.863552311499999e+00   6.855100279152725e+00  -6.736241999999990e-01  2.40578133e+00   3.72877725e+00  -5.48216910e-01
C     1.112115296280000e+01   6.177221453896293e+00  -7.625709000000001e-01 -1.01974500e-01   3.91806850e-01   3.96261010e-01
C     1.238640142450000e+01   6.848136374545867e+00  -8.036981999999995e-01  8.05466000e-02  -8.86618100e-02   1.12781100e-01
