32
Lattice="9.86 0 0 4.93 8.53901048131456 0 0 0 30 " PBC="1 1 1" Properties=species:S:1:pos:R:3:force:R:3 Energy="-255.39120815"
C     4.986566573500000e+00   8.324585765424729e+00  -9.288026999999985e-01 -1.09288010e+00  -6.93416350e-01   4.87686810e-01
C     1.273423437000000e+00   5.185086976301232e-01  -9.141629999999985e-01  6.19410900e-01  -4.13774720e-01   6.92353070e-01
C     7.444816466799999e+00   8.297320278011565e+00  -9.844742999999987e-01  1.22919250e-01   2.96606570e+00   9.69858510e-01
C     3.756783545800000e+00   4.951423785724416e-01  -8.206610999999988e-01 -2.31842230e-01  -2.64421620e-01  -2.09261440e-01
C     9.938001474000000e+00   8.314229909684899e+00  -7.692122999999995e-01 -1.39480114e+00  -4.90006750e-01   5.94260430e-01
C     6.221229463100000e+00   4.874438628939880e-01  -7.537212000000011e-01  5.55350700e-02  -9.02121160e-01  -3.07025040e-01
C     1.237663218580000e+01   8.242567801253385e+00  -7.292415000000005e-01  3.40869410e-01   5.45884843e+00  -7.24211070e-01
C     8.668794813900000e+00   4.553972981229672e-01  -9.277733999999995e-01 -7.68003200e-02   1.36916574e+00   2.16521440e-01
C     1.255792080800000e+00   1.927045288799031e+00  -5.599731000000006e-01  9.99520480e-01  -2.99770950e-01  -2.00067250e+00
C     2.511907175200000e+00   2.642947046871331e+00  -4.785992999999991e-01 -3.70809740e-01  -4.31297740e-01   7.78432280e-01
C     3.750433360700000e+00   1.927732935312985e+00  -6.601950000000016e-01 -6.10623720e-01  -3.06588480e-01   4.21491130e-01
C     4.990035272200000e+00   2.634963413632951e+00  -6.494502000000004e-01 -6.96095630e-01  -7.45081310e-01  -7.28717030e-01
C     6.195666180599999e+00   1.912314471039773e+00  -8.321052000000009e-01 -8.45347830e-01  -8.66642000e-01   1.84176930e-01
C     7.377426521999999e+00   2.610492317399366e+00  -9.466914000000024e-01  2.87432499e+00   5.95675690e-01  -1.45643450e-01
C     8.623970021400000e+00   1.914873954041048e+00  -9.974853000000010e-01  1.80782316e+00  -4.05826410e-01   1.41518617e+00
C     9.908901951799999e+00   2.666731265101904e+00  -7.075491000000014e-01 -2.02774453e+00  -1.56290022e+00  -4.84430760e-01
C     2.497949901500000e+00   4.066208563882265e+00  -1.852349999999987e-01  2.18879895e+00  -2.05301337e+00  -9.87023860e-01
C     3.735640057600000e+00   4.751361942946819e+00  -2.515100999999973e-01  1.95836002e+00   2.20881520e-01  -2.23056592e+00
C     4.971432508800000e+00   4.039383689409869e+00  -6.528437999999994e-01  4.74940400e-02   1.48681912e+00   1.55006387e+00
C     6.215587768299999e+00   4.773023107001749e+00  -8.222372999999976e-01 -7.12515480e-01   1.00616240e-01  -5.01856040e-01
C     7.459881215699999e+00   4.025692154616132e+00  -9.169791000000025e-01 -1.91718130e+00   1.09878607e+00   7.50020310e-01
C     8.656540904499998e+00   4.754330871500610e+00  -7.112175000000001e-01  5.38367470e-01   3.24375810e-01  -7.47862390e-01
C     9.899461149699999e+00   4.069833203050815e+00  -5.998263000000001e-01  1.27888312e+00   1.89426770e-01   1.05199551e+00
C     1.119754385510000e+01   4.770624840518336e+00  -2.878812000000011e-01 -4.95343280e+00  -1.41279000e-01  -8.14835150e-01
C     3.772825519300000e+00   6.163251205800489e+00  -4.865271000000000e-01 -1.57657349e+00   5.37112490e-01   8.55986540e-01
C     4.948685291600000e+00   6.863023029246384e+00  -7.664837999999996e-01  4.95887860e-01   2.31945274e+00  -8.86476480e-01
C     6.158458287400000e+00   6.234708121810168e+00  -9.360339000000018e-01  2.11718124e+00  -3.15183823e+00   9.26151230e-01
C     7.418988739100000e+00   6.913636391454593e+00  -9.630075000000033e-01 -1.58515320e-01  -1.00736352e+00   1.53824450e-01
C     8.626376206500000e+00   6.188482957087631e+00  -7.353357000000003e-01  3.88353230e-01  -4.21890160e-01  -2.92919830e-01
C     9.872987887799999e+00   6.861163745104468e+00  -6.121052999999996e-01  5.61885960e-01   9.69232930e-01  -2.33632120e-01
C     1.108841105800000e+01   6.154008153906412e+00  -3.797207999999976e-01  2.72363574e+00   2.54398667e+00  -4.94863200e-02
C     1.242083121340000e+01   6.954598964018306e+00  -4.412565000000015e-01 -2.45408725e+00  -6.02321392e+00   2.96610720e-01
