32
Lattice="9.86 0 0 4.93 8.53901048131456 0 0 0 30 " PBC="1 1 1" Properties=species:S:1:pos:R:3:force:R:3 Energy="-255.41504883"
C     9.733467803200000e+00   6.927873398237793e-01   3.033569400000000e+00  1.61814806e+00  -1.88970020e+00   1.62413800e-01
C     1.167712355700000e+00   1.306586697954938e+00   3.122245200000000e+00 -1.90550915e+00   3.61716786e+00   3.98179430e-01
C     2.389774214600000e+00   6.455064972355999e-01   3.128560500000000e+00  5.30708360e-01  -6.99325660e-01  -2.25693060e-01
C     3.613786578700000e+00   1.332069154589774e+00   3.293715300000000e+00  8.48204130e-01   1.33897692e+00   7.83114190e-01
C     4.847203460099999e+00   5.685374791808712e-01   3.331069200000000e+00 -8.60349750e-01   4.20458137e+00  -1.24076555e+00
C     6.061758457300000e+00   1.356698564077657e+00   3.186438300000000e+00 -3.27737500e-01  -9.81959330e-01   9.59053080e-01
C     7.277397660099999e+00   5.990077426172841e-01   3.155863500000000e+00  2.64802760e-01   7.11189530e-01  -5.04752920e-01
C     8.483947865599999e+00   1.340892428728653e+00   3.019697400000000e+00  8.16791670e-01   8.15701760e-01   7.38927590e-01
C     1.099869053030000e+01   2.796341404183527e+00   3.323460300000000e+00  1.71687932e+00  -3.67660092e+00  -3.13351670e-01
C     2.352360937600000e+00   3.479266272293011e+00   3.478069500000000e+00  7.29991830e-01   1.07329272e+00   3.33187090e-01
C     3.630529253100000e+00   2.803130942196385e+00   3.493031400000000e+00 -2.64317334e+00  -2.28829639e+00  -4.87324930e-01
C     4.799107563300000e+00   3.535447581674809e+00   3.515380200000000e+00  2.75561653e+00  -3.83583036e+00  -1.65848112e+00
C     6.052410339200000e+00   2.806682914385750e+00   3.207875700000000e+00 -1.68600177e+00  -1.75850669e+00   1.34868401e+00
C     7.249255050899999e+00   3.495617025730430e+00   3.164898900000000e+00  2.72948565e+00  -2.89233500e+00  -1.18075671e+00
C     8.547199666999999e+00   2.749901910297942e+00   3.095037300000000e+00 -2.14857080e+00   8.65681390e-01   5.85009500e-01
C     9.788970137600000e+00   3.451000781362534e+00   3.299493300000000e+00 -1.81738466e+00  -1.23574426e+00  -1.05601512e+00
C     1.218964083540000e+01   4.936992174892377e+00   3.548771100000000e+00  2.18337281e+00  -8.47785170e-01  -4.89165090e-01
C     3.600716902200000e+00   5.602709314472671e+00   3.413759100000000e+00  6.95833900e-02   7.41448440e-01   2.65807210e-01
C     4.822103252500000e+00   4.867873581512542e+00   3.377104500000000e+00  2.71025250e-01   4.25261215e+00  -2.95057780e-01
C     6.059744157899999e+00   5.582294675167611e+00   3.129678900000000e+00 -1.15888356e+00   2.11761809e+00  -6.94702500e-02
C     7.247321751399999e+00   4.845699564488182e+00   3.011206200000000e+00  1.60447224e+00   3.62587129e+00   1.74689863e+00
C     8.500084100700001e+00   5.565965013086077e+00   3.186814500000000e+00  1.56554543e+00   1.89174690e-01  -6.48154540e-01
C     9.771816301199999e+00   4.809027076179726e+00   3.295507200000000e+00 -8.29651300e-01   5.77307147e+00   9.87340070e-01
C     1.100887457920000e+01   5.666649254166701e+00   3.490126500000000e+00 -2.61957717e+00  -2.61054842e+00  -7.76457020e-01
C     1.350512619430000e+01   7.028818591478684e+00   3.257463300000000e+00 -6.97628090e-01  -9.47769000e-02   1.23061630e-01
C     4.840144488900000e+00   7.814442394801443e+00   3.099902100000000e+00  4.41188610e-01  -1.72725481e+00  -2.16953600e-02
C     6.092162013799999e+00   7.090737774342622e+00   3.064999200000000e+00 -6.91307070e-01  -2.12112367e+00  -2.08825690e-01
C     7.344261031599999e+00   7.760906983206977e+00   2.998893300000000e+00 -6.49686180e-01  -2.55993370e-01   1.21625739e+00
C     8.558322042799999e+00   7.041943648317178e+00   3.196179300000000e+00 -2.12534661e+00  -2.63283207e+00  -1.00904810e+00
C     9.740083666000000e+00   7.741324299692984e+00   3.242876400000000e+00  2.22020274e+00  -8.01744630e-01   1.02880151e+00
C     1.098211779300000e+01   7.061575687311746e+00   3.388913100000000e+00  8.97925060e-01  -8.28339590e-01  -4.07792250e-01
C     1.225665935400000e+01   7.700779882472476e+00   3.282299700000000e+00 -1.10313689e+00   1.85230975e+00  -8.39279700e-02
