32
Lattice="9.86 0 0 4.93 8.53901048131456 0 0 0 30 " PBC="1 1 1" Properties=species:S:1:pos:R:3:force:R:3 Energy="-249.44658657"
C     4.961409670900000e+00   8.348020567346460e+00  -1.037864400000000e+00 -3.38966547e+00  -1.58286633e+00   1.51345593e+00
C     1.200423793100000e+00   4.661021432211144e-01  -1.058928600000002e+00  5.12358593e+00   1.62552277e+00   1.52099372e+00
C     7.410947268199999e+00   8.297348115185729e+00  -9.260774999999981e-01  1.86664069e+00   2.44991133e+00  -3.29839370e-01
C     3.714537784200000e+00   5.440263349881359e-01  -6.817314000000003e-01  1.66565050e-01  -4.57288500e-01  -1.02973155e+00
C     9.952004843199999e+00   8.373249500760144e+00  -7.258139999999997e-01 -4.10130494e+00  -2.08150450e-01   8.16719000e-01
C     6.155131622000000e+00   6.013364161652848e-01  -7.791354000000013e-01  2.13086664e+00  -1.58025706e+00  -3.46811490e-01
C     1.228583519260000e+01   8.508686062862585e+00  -6.768497999999994e-01  5.00346861e+00  -4.78847745e+00   7.92335530e-01
C     8.690223749099999e+00   6.026398961150569e-01  -8.923203000000015e-01 -2.93489652e+00  -3.30746985e+00  -5.50362880e-01
C     1.314001231700000e+00   1.898465135332366e+00  -7.329879000000012e-01 -3.49185054e+00   2.62520200e-02   5.01795180e-01
C     2.409310325600000e+00   2.624191622692640e+00  -3.223133999999988e-01  6.29907871e+00   1.99905643e+00  -9.80985740e-01
C     3.761210242100000e+00   2.053708956924425e+00  -5.108081999999996e-01 -4.63802942e+00  -7.44606734e+00  -2.61278900e-01
C     4.982635933800000e+00   2.524467764120702e+00  -6.654476999999979e-01  1.95788313e+00   7.18027360e+00  -3.15359700e-02
C     6.279002999199999e+00   1.940899491742411e+00  -9.910436999999988e-01 -7.57111848e+00   4.70273810e-01   1.56297397e+00
C     7.362226493900000e+00   2.679658558457681e+00  -9.431457000000023e-01  5.12695642e+00  -9.87039860e-01  -3.60282170e-01
C     8.591365564999998e+00   1.939058651863133e+00  -9.706904999999999e-01  4.23047594e+00   3.32125607e+00   1.12282475e+00
C     9.939928117999999e+00   2.631811664864782e+00  -6.527333999999989e-01 -3.71223696e+00  -1.30828402e+00  -1.60591041e+00
C     2.535033953100000e+00   4.083971584262970e+00  -1.464669000000001e-01 -1.47251407e+00  -1.15952675e+00   6.09436350e-01
C     3.823236297599999e+00   4.920926539014886e+00  -1.864314000000000e-01 -2.81251794e+00  -6.37644497e+00  -6.80718040e-01
C     4.924919782900000e+00   4.011910533261831e+00  -5.088003000000008e-01  3.53594652e+00   3.10806878e+00  -1.00442679e+00
C     6.229660650500000e+00   4.768658135624583e+00  -8.236715999999973e-01 -2.52697543e+00   1.17068598e+00   6.49789110e-01
C     7.438352743799999e+00   4.039791512550393e+00  -8.848929000000005e-01 -1.24447836e+00   2.39012234e+00  -5.76229000e-02
C     8.661623931699999e+00   4.710832127434233e+00  -7.485858000000007e-01 -6.22240460e-01   3.76993100e+00  -8.09390320e-01
C     9.781708395500001e+00   4.015033590954786e+00  -4.286007000000005e-01  5.63994642e+00  -1.54740116e+00   7.29676030e-01
C     1.109377627840000e+01   4.614353349015009e+00  -7.607339999999851e-02 -8.72368670e-01   5.82722732e+00  -1.10167800e+00
C     3.739626948600000e+00   6.292822748554742e+00  -3.497211000000000e-01  4.59419020e-01   1.22447910e+00  -6.61750900e-02
C     4.926878521199999e+00   6.886392080787418e+00  -7.478286000000018e-01  3.22357536e+00   3.57702181e+00  -1.61300905e+00
C     6.219429569399999e+00   6.275464818831208e+00  -9.203492999999980e-01  1.87932400e-02  -4.24205947e+00   2.14193410e-01
C     7.545177512100000e+00   6.901533539560660e+00  -1.075938000000001e+00 -3.54157548e+00   5.84514050e-01   5.39930620e-01
C     8.743752308700000e+00   6.202174406491263e+00  -9.614112000000006e-01  6.31526290e-01  -1.69088633e+00   2.35713467e+00
C     9.954071942899999e+00   6.933488053798706e+00  -5.777079000000001e-01 -1.42986380e-01  -2.13480057e+00  -1.12537560e-01
C     1.109041327890000e+01   6.123615339295053e+00  -1.107525000000003e-01  1.38517290e+00   3.19036113e+00  -2.03896641e+00
C     1.242527082630000e+01   7.102832684956809e+00  -2.819958000000007e-01 -3.72514176e+00  -3.09793745e+00   5.00043700e-02
