32
Lattice="9.86 0 0 4.93 8.53901048131456 0 0 0 30 " PBC="1 1 1" Properties=species:S:1:pos:R:3:force:R:3 Energy="-255.65097196"
C     4.998979130299999e+00   7.942245764655602e+00   7.098270000000000e-02 -7.80211630e-01  -2.78967332e+00   3.92352110e-01
C     1.269654205500000e+00   4.850917924572720e-02   1.157250000000000e-01  2.38207137e+00   2.02666106e+00  -7.98859060e-01
C     7.447950122700000e+00   7.826568131243461e+00   4.534830000000000e-02  4.11996200e-02   4.83755465e+00   9.82543900e-01
C     3.755409998500000e+00   9.893374393222321e-02   1.854051000000000e-01  7.30192300e-02  -3.83665262e+00  -8.36891090e-01
C     9.937879456499999e+00   7.952148796669678e+00   2.176737000000000e-01  4.68216190e-01  -1.94149678e+00  -7.23185270e-01
C     6.288312761899999e+00   7.750919585769360e-02   5.262300000000000e-02 -2.20786182e+00  -1.01844099e+00   1.52467352e+00
C     1.239213250020000e+01   7.873293340419707e+00   1.557540000000000e-01  1.22700983e+00   2.02887320e-01  -5.26326570e-01
C     8.685303855600001e+00   1.117016993524432e-01   2.007639000000000e-01  1.26598223e+00  -3.88376741e+00  -1.11427552e+00
C     1.301432098100000e+00   1.525433680667697e+00   1.142928000000000e-01  3.68992931e+00  -1.80288209e+00   1.29079502e+00
C     2.642936715200000e+00   2.219797748776608e+00   2.119230000000000e-01 -4.93951305e+00  -5.77488410e-01  -9.29038560e-01
C     3.800678737499999e+00   1.462267375323155e+00   1.480098000000000e-01  1.19443431e+00   2.15850043e+00   7.69965830e-01
C     5.054970027700000e+00   2.156622819031480e+00   2.085063000000000e-01  4.37481220e-01   1.37227202e+00  -9.68842080e-01
C     6.308953538000000e+00   1.476256409242014e+00   8.301990000000001e-02 -2.66945240e-01   2.00742030e-01   5.97272410e-01
C     7.570834711100000e+00   2.119131098057573e+00   1.379229000000000e-01 -2.46301444e+00   4.64922755e+00  -6.84985490e-01
C     8.780609432399999e+00   1.473483109418320e+00   1.496742000000000e-01 -7.18452630e-01   1.14971312e+00   6.35479370e-01
C     9.985770906199999e+00   2.225389434399331e+00   2.159994000000000e-01 -2.59463370e-01  -5.86330860e-01  -4.93101430e-01
C     2.526304550000000e+00   3.624898754468992e+00   1.936677000000000e-01  2.30930254e+00  -3.24887600e-01   5.53486900e-01
C     3.783277316500000e+00   4.307546787858715e+00   1.166229000000000e-01  6.52959200e-01   7.89288610e-01   2.42234610e-01
C     5.048625265600000e+00   3.617834089538469e+00   1.601568000000000e-01 -2.07654602e+00  -2.53092164e+00  -4.93225450e-01
C     6.239848594100000e+00   4.288232570834212e+00   8.133300000000001e-03  2.06444889e+00   5.54702320e-01   8.41284570e-01
C     7.518564977699999e+00   3.628768719408633e+00   6.270930000000001e-02 -8.20799540e-01  -3.17581538e+00   1.46646990e-01
C     8.729027039600000e+00   4.299682273816530e+00   1.083333000000000e-01  7.14896160e-01   2.24439036e+00   3.46091240e-01
C     9.991513074400000e+00   3.625865028894909e+00   2.598330000000000e-01 -2.55491223e+00  -1.97652030e-01  -3.17259590e-01
C     1.116774782250000e+01   4.322751520699613e+00   3.070992000000000e-01  1.18570813e+00   1.08015613e+00  -8.90447190e-01
C     3.807246828600000e+00   5.720589500248023e+00   4.287810000000000e-02 -4.28736360e-01   1.41924432e+00   2.74284390e-01
C     5.077062836700000e+00   6.472814928050671e+00  -1.655249999999953e-02 -3.45296489e+00  -4.25328290e-01   8.66327430e-01
C     6.239447045600000e+00   5.692080647518866e+00   4.598220000000000e-02  7.20255980e-01   2.47218887e+00  -1.16228211e+00
C     7.448118975199999e+00   6.480010496011853e+00   1.689000000000000e-02  1.64776677e+00  -3.97682729e+00   3.04242880e-01
C     8.714857134999999e+00   5.752135166664286e+00   8.168010000000001e-02  3.52832020e-01   3.08029920e-01   8.29741790e-01
C     9.959252682699999e+00   6.475781209511213e+00   2.644812000000000e-01 -1.61377950e+00   1.01447170e+00  -1.01465209e+00
C     1.117699734060000e+01   5.754749128552424e+00   2.344758000000000e-01 -6.59623470e-01  -6.72200490e-01   3.43750940e-01
C     1.237877609490000e+01   6.426686339536663e+00   1.340841000000000e-01  2.81531119e+00   1.26033481e+00   1.21976000e-02
