32
Lattice="9.86 0 0 4.93 8.53901048131456 0 0 0 30 " PBC="1 1 1" Properties=species:S:1:pos:R:3:force:R:3 Energy="-252.88059625"
C     9.798713740299998e+00   5.552852764763303e-01   3.240786600000000e+00 -1.60597882e+00   5.38082830e-01  -2.51480000e-03
C     1.096063334600000e+00   1.295839584754915e+00   3.302030400000000e+00  1.21729050e+00   2.70874235e+00   1.24047436e+00
C     2.319341868200000e+00   6.270774340374543e-01   3.124478400000000e+00 -1.89467550e-01  -2.48990950e-01   5.17890700e-02
C     3.585629623200000e+00   1.188981553707147e+00   3.304603200000000e+00  1.88241332e+00   3.61170528e+00  -2.23370150e-01
C     4.803066994200000e+00   4.911097454831568e-01   3.157089600000000e+00  3.32789028e+00   2.24996462e+00   1.22842161e+00
C     6.117997530900000e+00   1.207776855064780e+00   3.268022700000000e+00 -3.02777635e+00   4.15675600e+00  -1.24448756e+00
C     7.383647245300000e+00   6.441990893410072e-01   3.276753900000000e+00 -2.38172382e+00  -2.74621468e+00  -1.32513330e-01
C     8.591800785400000e+00   1.306267424353091e+00   3.354381000000000e+00 -7.23235580e-01  -4.92102800e-01  -2.38667190e-01
C     1.094670013070000e+01   2.776740105626687e+00   3.715309200000000e+00 -3.87747780e-01  -4.01455317e+00  -7.93338940e-01
C     2.353358424500000e+00   3.374586969769215e+00   3.732612900000000e+00  2.35932494e+00   9.08171250e-01  -1.10516671e+00
C     3.723620816200000e+00   2.641224045336677e+00   3.493169100000000e+00 -5.31008575e+00  -2.20735270e-01   6.25951630e-01
C     4.873808500900000e+00   3.406537556062441e+00   3.345915300000000e+00 -1.63350860e-01  -1.02212042e+00  -9.89517210e-01
C     6.066359034700000e+00   2.699907455569324e+00   3.129046500000000e+00  1.45052097e+00  -2.10880721e+00   1.12356101e+00
C     7.319335346000000e+00   3.404724809527642e+00   3.156361500000000e+00 -2.39852178e+00   1.70062645e+00  -4.61728310e-01
C     8.450933676900000e+00   2.689950969349644e+00   3.421703700000000e+00  4.36596404e+00   1.04589675e+00   1.33364246e+00
C     9.666334662099999e+00   3.422426434422996e+00   3.822140699999999e+00  5.42511180e-01   3.91653000e-02  -2.04677051e+00
C     1.221827284570000e+01   4.808252844099505e+00   3.635533200000000e+00  1.62804402e+00   1.67752763e+00   2.17860740e-01
C     3.658126111300000e+00   5.572154941783030e+00   3.492157500000000e+00 -2.09214697e+00  -1.80521967e+00  -6.87517680e-01
C     4.865201065999999e+00   4.801891708242429e+00   3.199177500000000e+00 -1.70159853e+00   1.62419199e+00   1.17353490e+00
C     6.049737983400000e+00   5.483207570607166e+00   2.933129400000000e+00  1.01457178e+00   3.17925798e+00  -1.17520289e+00
C     7.318053693900000e+00   4.876205264818087e+00   2.977783800000000e+00  1.52032802e+00  -1.94844045e+00   1.79811299e+00
C     8.568638314299999e+00   5.600492501961957e+00   3.239103900000000e+00 -2.78640163e+00   5.58281000e-01  -1.60734681e+00
C     9.695225596000000e+00   4.826328306873673e+00   3.698433900000000e+00  1.21975264e+00   3.32743666e+00  -1.70594777e+00
C     1.100355012990000e+01   5.594520830372875e+00   3.553332300000000e+00 -5.30320680e-01  -3.52120732e+00   1.38685753e+00
C     1.342985505290000e+01   6.988284421070753e+00   3.428346000000000e+00  7.37498950e-01   7.41149430e-01  -1.83807768e+00
C     4.797122646700000e+00   7.678978507865464e+00   3.078113400000000e+00  1.06664252e+00  -8.81686010e-01   5.33324800e-02
C     6.018613710199999e+00   6.954209926700837e+00   2.726370000000000e+00 -1.06773020e-01   1.04497352e+00   2.71170522e+00
C     7.247101183200000e+00   7.799941191033992e+00   2.852296800000000e+00  2.73006400e-02  -3.53834489e+00  -8.57505870e-01
C     8.521510620200001e+00   7.114822907302511e+00   2.899892700000000e+00  1.70769990e-01  -4.90996347e+00   2.34595263e+00
C     9.784196812999999e+00   7.657605620804339e+00   3.173881200000000e+00 -1.61423961e+00   4.62675650e-01  -8.12016160e-01
C     1.099593569560000e+01   6.970941776175978e+00   3.387943500000000e+00  6.49533780e-01   1.77034926e+00  -6.85217240e-01
C     1.219771587960000e+01   7.781292333706091e+00   3.319213200000000e+00  1.83901114e+00  -3.88656765e+00   1.31571017e+00
