32
Lattice="9.86 0 0 4.93 8.53901048131456 0 0 0 30 " PBC="1 1 1" Properties=species:S:1:pos:R:3:force:R:3 Energy="-255.6658449"
C     9.809143894800000e+00   7.461124355901215e-01   3.468213300000000e+00 -1.34354227e+00  -2.73490372e+00   6.33136320e-01
C     1.122362370300000e+00   1.458655544670324e+00   3.392689800000000e+00  2.24098935e+00  -1.71610709e+00   3.46826860e-01
C     2.353813611400000e+00   7.549615829307552e-01   3.551012400000000e+00  6.76746640e-01  -2.14913595e+00   5.10167910e-01
C     3.594135450800000e+00   1.421661050276667e+00   3.461230800000000e+00  2.75268710e-01   5.68294110e-01  -6.26798770e-01
C     4.838212668400000e+00   7.092286921623904e-01   3.482236200000000e+00 -1.18095204e+00  -1.84580846e+00   5.48839800e-01
C     6.030281196100001e+00   1.382760136403246e+00   3.442242000000000e+00  3.22079244e+00   1.50852476e+00  -3.28263690e-01
C     7.333658129900000e+00   7.297237689461720e-01   3.440842200000000e+00 -6.13989620e-01  -1.35759654e+00  -1.84520300e-01
C     8.612723557499999e+00   1.423224799265870e+00   3.370285200000000e+00 -4.13083639e+00   7.95028130e-01   1.07785351e+00
C     1.098050218270000e+01   2.803249805222266e+00   3.161150400000000e+00  2.06045410e-01   3.92554260e+00  -5.68440740e-01
C     2.388225159300000e+00   3.560517945663879e+00   2.981173500000000e+00 -9.65960500e-02  -1.75459258e+00   1.48301923e+00
C     3.616445623500000e+00   2.837068556228306e+00   3.221503500000000e+00  2.18894710e-01   2.14625640e-01   3.21140390e-01
C     4.881170617800000e+00   3.539823909935913e+00   3.371621700000000e+00 -2.42781071e+00   7.40545550e-01  -6.51209700e-01
C     6.066080539000000e+00   2.805276710139904e+00   3.399014700000000e+00  3.91284200e-01   5.87624460e-01   2.55322110e-01
C     7.298930421100000e+00   3.528431930664441e+00   3.396616500000000e+00 -1.38845277e+00   1.79392010e+00   1.37028054e+00
C     8.495224895499998e+00   2.862610785936501e+00   3.445228200000000e+00  3.03715012e+00  -1.84255806e+00  -1.59722916e+00
C     9.729570588900000e+00   3.529690239248773e+00   3.244091700000000e+00  6.77737250e-01   2.57763890e+00   1.56646270e-01
C     1.229206735350000e+01   4.959475304096113e+00   2.985852300000000e+00 -2.26194939e+00   2.02239251e+00   3.51868000e-02
C     3.628374645900000e+00   5.730416278898511e+00   3.203095500000000e+00 -7.99660040e-01  -2.24825955e+00   5.61713110e-01
C     4.817761401499999e+00   4.983651121347298e+00   3.437148300000000e+00  1.03946474e+00   3.19720240e-01  -7.08497930e-01
C     6.023453195400000e+00   5.728931259585934e+00   3.601010400000000e+00  2.18262779e+00  -2.68967509e+00   6.09087210e-01
C     7.309030758600001e+00   4.968386871603355e+00   3.596723700000000e+00 -1.67544169e+00   9.74075530e-01  -1.04343257e+00
C     8.513515392700000e+00   5.755863554810169e+00   3.507941400000000e+00  6.31165650e-01  -4.13405447e+00  -1.65954950e-01
C     9.728716219899999e+00   5.032807813757724e+00   3.229360500000000e+00  1.33191789e+00  -2.02825757e+00  -3.44559150e-01
C     1.099928262330000e+01   5.704409697800414e+00   3.027234600000000e+00 -4.01268300e-02  -8.82287670e-01   1.10629042e+00
C     1.342701862670000e+01   7.116511496624931e+00   3.401541300000000e+00  2.21920232e+00   9.73402350e-01   5.06369470e-01
C     4.828792375099999e+00   7.828539105642456e+00   3.647145000000000e+00 -3.34290800e-02   7.81462230e-01  -1.13285036e+00
C     6.074923184199999e+00   7.117727195546967e+00   3.743535300000000e+00 -5.73336210e-01   1.05784365e+00  -2.88335490e-01
C     7.325651415499999e+00   7.829222397261065e+00   3.785043900000000e+00 -4.49352820e-01   1.41808953e+00  -1.21571957e+00
C     8.571497024099999e+00   7.106198079767187e+00   3.638678400000000e+00 -1.38144756e+00   2.69213181e+00   2.04737850e-01
C     9.802051941900000e+00   7.792774826488652e+00   3.506107500000000e+00 -1.44013384e+00   1.67403853e+00  -3.47442780e-01
C     1.098707431640000e+01   7.113453933142357e+00   3.252608700000000e+00  1.24690068e+00  -4.39039640e-01   3.55485700e-01
C     1.221599503780000e+01   7.823024014943737e+00   3.404512800000000e+00  2.40869430e-01   1.19737574e+00  -8.78848360e-01
