32
Lattice="9.86 0 0 4.93 8.53901048131456 0 0 0 30 " PBC="1 1 1" Properties=species:S:1:pos:R:3:force:R:3 Energy="-253.75835616"
C     4.850030470000000e-02   2.227289876571760e-02   3.754110600000000e+00 -2.37034185e+00   8.72694170e-01  -5.99393790e-01
C     1.247196625800000e+00   7.056194232127040e-01   3.756237600000000e+00 -1.52486668e+00   1.42249419e+00   5.12240810e-01
C     2.397257363000000e+00   6.077640709140000e-02   3.586766100000000e+00  5.96002917e+00  -9.12237820e-01  -7.39187690e-01
C     3.665169109300000e+00   8.406446611803240e-01   3.551607300000000e+00 -6.04085660e-01  -2.10981292e+00   9.32532300e-01
C     9.788577709599998e+00   8.526150730217120e+00   3.563533500000000e+00 -8.38782240e-01   4.47777851e+00  -9.19115300e-01
C     6.036060487199999e+00   7.094394349410368e-01   3.501948300000000e+00  5.84591907e+00   5.46494400e-02   1.34009999e+00
C     1.231702089360000e+01   8.522016824463542e+00   3.612832500000000e+00 -4.87053200e-02   3.82317958e+00  -4.16650110e-01
C     8.717169748700000e+00   7.768852361678409e-01   3.723417300000000e+00 -5.18514353e+00  -1.77365594e+00  -5.04105540e-01
C     1.229451288000000e+00   2.096182080442050e+00   3.910086300000000e+00  3.55876210e-01   3.40075270e+00   1.47229190e-01
C     2.390054140000000e+00   2.966503133254461e+00   3.877567200000000e+00  3.49086663e+00  -2.90528320e+00  -8.08270270e-01
C     3.748828941500000e+00   2.278740574147638e+00   3.710476500000000e+00 -4.24528006e+00  -3.40843728e+00   3.78557020e-01
C     4.983326626800000e+00   2.854983656385661e+00   3.725880600000000e+00 -1.14938554e+00   2.47983925e+00  -1.36917750e+00
C     6.173969743599999e+00   2.123946502237560e+00   3.586392300000000e+00 -7.07585790e-01   1.65188514e+00   3.74564140e-01
C     7.366905951300000e+00   2.959502083952014e+00   3.657088800000000e+00  7.93741030e-01  -3.39000966e+00  -1.40623173e+00
C     8.576943589499999e+00   2.187582709328816e+00   3.703635000000000e+00  2.15489062e+00  -8.98778000e-02   1.48422013e+00
C     9.860479393200000e+00   2.810217893944261e+00   3.955007700000000e+00 -1.80418747e+00   1.88690718e+00  -1.57604212e+00
C     1.234112652300000e+01   4.361609227180005e+00   3.801647100000000e+00 -1.52992140e+00  -3.50847620e-01   2.45723100e-01
C     3.732467158900000e+00   5.038794855565671e+00   3.664521600000000e+00 -3.08275256e+00   8.89802610e-01   1.51294880e-01
C     4.858500160700000e+00   4.297983437681533e+00   3.569028600000000e+00  4.45748906e+00  -9.49500380e-01   9.63193310e-01
C     6.084484327600000e+00   4.995743128697922e+00   3.501367500000000e+00  1.82804538e+00   2.79844724e+00  -1.44175571e+00
C     7.391288498800000e+00   4.357673597249772e+00   3.431556600000000e+00 -2.94066599e+00  -9.58883370e-01   1.95238455e+00
C     8.581206264700000e+00   5.038949240875150e+00   3.590521800000000e+00  3.16729181e+00  -2.38454920e-01  -3.20212470e-01
C     9.799094188400000e+00   4.247609338546974e+00   3.838974600000000e+00  2.50369711e+00   1.93097044e+00  -3.60593490e-01
C     1.111134300230000e+01   5.027392544091517e+00   3.788045100000001e+00 -3.30720776e+00   1.32284265e+00   2.82449120e-01
C     1.354054351150000e+01   6.464026407684446e+00   3.645137400000000e+00 -3.93107600e-02  -8.84755600e-01  -4.00154120e-01
C     4.884255269500000e+00   7.177308055781063e+00   3.569601600000000e+00  1.81442406e+00  -5.95400020e-01   2.49337970e-01
C     6.124222050299999e+00   6.473675831087264e+00   3.425860800000000e+00  1.43546515e+00  -1.61402834e+00   8.76571230e-01
C     7.456547648299999e+00   7.176292255094363e+00   3.453927300000000e+00 -2.75466859e+00  -4.14837380e-01  -2.69311260e-01
C     8.710695031800000e+00   6.466780323954350e+00   3.439455900000000e+00 -4.42880143e+00  -1.83330489e+00   6.52151390e-01
C     9.870308136999999e+00   7.159953627051825e+00   3.537747600000000e+00 -6.43421770e-01   9.50846900e-02   3.60800750e-01
C     1.104979451590000e+01   6.514038879725177e+00   3.699355200000000e+00  2.12477192e+00  -4.52742522e+00  -4.05944870e-01
C     1.228736290100000e+01   7.152622374214118e+00   3.627985200000000e+00  1.27260716e+00  -1.50575440e-01   6.32796070e-01
