32
Lattice="9.86 0 0 4.93 8.53901048131456 0 0 0 30 " PBC="1 1 1" Properties=species:S:1:pos:R:3:force:R:3 Energy="-254.7586742"
C     5.047353769300000e+00   8.126157606132166e+00  -8.229596999999984e-01 -4.18453988e+00   7.43452700e-02   9.38616400e-02
C     1.245939327900000e+00   3.619508077152968e-01  -8.997708000000024e-01  3.21436033e+00  -7.25305830e-01   1.68325892e+00
C     7.462031040799999e+00   8.191716798383519e+00  -8.525205000000007e-01  5.75799770e-01   3.31494880e+00   1.57838040e-01
C     3.830262878700000e+00   4.118865994419176e-01  -6.955050000000007e-01 -3.97413759e+00  -2.51275566e+00  -3.91701800e-01
C     9.905636024000000e+00   8.169018229945372e+00  -6.829091999999974e-01  2.11169798e+00   7.48380430e-01   1.20935660e-01
C     6.256865376500000e+00   3.150663459935992e-01  -7.093269000000006e-01 -1.75908386e+00   2.11725576e+00  -1.88838670e-01
C     1.238622315570000e+01   8.198037630111129e+00  -6.649971000000008e-01  1.99991415e+00  -1.10301831e+00   6.96625610e-01
C     8.742507335799999e+00   3.712351884200960e-01  -7.422137999999983e-01 -1.10262578e+00  -1.41133940e+00  -2.71196310e-01
C     1.243575590100000e+00   1.760352618125702e+00  -5.726627999999998e-01  3.29678164e+00   3.40927200e-01  -1.19161687e+00
C     2.495083205100000e+00   2.504840421581898e+00  -4.506288000000005e-01  8.39136030e-01  -6.38449620e-01   5.89049100e-01
C     3.735530513000000e+00   1.784144436075602e+00  -5.116209000000005e-01  1.48289336e+00   1.07355144e+00  -1.00000645e+00
C     5.012046588300000e+00   2.459349355590327e+00  -6.334941000000001e-01 -4.20803590e-01   4.43293890e-01   2.32661730e-01
C     6.259988975200001e+00   1.767950885821120e+00  -7.972529999999978e-01 -7.41152050e-01  -5.39054240e-01   5.67138250e-01
C     7.492121985999999e+00   2.482986105109910e+00  -8.347577999999984e-01 -5.49344830e-01   1.57142012e+00   4.42218090e-01
C     8.703663422100000e+00   1.792435046740738e+00  -7.729223999999988e-01  1.83397938e+00  -3.88465200e-01  -4.97118030e-01
C     9.989319175100000e+00   2.512805439777433e+00  -6.955907999999980e-01 -4.50910808e+00   1.19073073e+00   6.89667860e-01
C     2.564822344200000e+00   3.942481290680733e+00  -2.531154000000022e-01 -2.37948230e-01  -2.04061917e+00  -5.48908290e-01
C     3.815861855700000e+00   4.646099255227029e+00  -3.478482000000014e-01 -1.20052537e+00  -2.30420681e+00  -4.21463680e-01
C     5.022321842199999e+00   3.871892365086345e+00  -5.818635000000008e-01 -3.30351300e-01   1.21138716e+00   1.02196846e+00
C     6.235712422700000e+00   4.604847978718988e+00  -6.101601000000016e-01  5.92092130e-01   7.04893130e-01  -1.60218023e+00
C     7.509227261900000e+00   3.963042459405630e+00  -7.832565000000002e-01 -3.57007460e+00  -3.07826866e+00   2.87968890e-01
C     8.650663555700000e+00   4.667996522921732e+00  -7.464360000000028e-01  4.81692858e+00  -4.03541800e-01   8.61298150e-01
C     9.935020253699999e+00   3.946498980501678e+00  -5.502851999999976e-01  6.43646040e-01  -6.36120770e-01  -5.47598000e-02
C     1.119202003660000e+01   4.596666496607786e+00  -2.493653999999985e-01 -2.40369984e+00   3.07516322e+00  -9.32252660e-01
C     3.723662671900000e+00   6.025681769660353e+00  -4.740275999999994e-01 -2.07588162e+00   3.16995240e-01   7.22676380e-01
C     4.902525208600000e+00   6.642064349241922e+00  -7.328072999999975e-01  3.36371436e+00   4.83610563e+00  -3.32112430e-01
C     6.152197088799999e+00   6.031318114307886e+00  -7.441998000000005e-01  2.83767120e+00  -2.66636430e-01  -1.64190890e-01
C     7.460766397200000e+00   6.844061131794287e+00  -8.670783000000029e-01 -6.43241480e-01  -4.75969936e+00   6.22944220e-01
C     8.739350903300000e+00   6.055839163752778e+00  -7.463687999999991e-01 -4.40537464e+00   1.17444770e+00  -3.00958360e-01
C     9.899734764700000e+00   6.745911439804336e+00  -6.054458999999994e-01  1.54761384e+00   1.30225725e+00   6.70345030e-01
C     1.112503302070000e+01   6.105015837447728e+00  -2.874087000000003e-01 -2.32011240e-01  -2.87334916e+00  -7.66694900e-01
C     1.231254711580000e+01   6.784325630080398e+00  -3.873542999999984e-01  3.18367521e+00   1.84727460e-01  -7.96456640e-01
