32
Lattice="9.86 0 0 4.93 8.53901048131456 0 0 0 30 " PBC="1 1 1" Properties=species:S:1:pos:R:3:force:R:3 Energy="-255.5693337"
C     9.781848653999999e+00   3.762621038896720e-01   3.897595500000000e+00 -3.96654550e-01   1.92980493e+00  -9.55239220e-01
C     1.117255481900000e+00   1.148509461905406e+00   3.866268300000000e+00  1.71693961e+00  -5.81099020e-01  -1.78244160e-01
C     2.375560482300000e+00   4.171172557015464e-01   3.758370900000001e+00  1.06434500e-02   9.63314430e-01   7.26307030e-01
C     3.664939765700000e+00   1.048450020221604e+00   3.907878600000000e+00 -2.34709793e+00   3.29402483e+00  -2.87420260e-01
C     4.907130469500000e+00   3.899975291972760e-01   3.963802200000000e+00 -1.93297196e+00   1.89706465e+00  -1.37552836e+00
C     6.086781658300000e+00   1.161783353696566e+00   3.847401000000000e+00 -6.05176960e-01   1.40302605e+00   1.10053060e-01
C     7.281757209799999e+00   4.932639670470512e-01   3.844587000000000e+00  2.11111413e+00  -3.79887481e+00  -7.68095460e-01
C     8.551267705799999e+00   1.074502455805979e+00   3.811834800000000e+00  1.42842290e-01   3.23682175e+00   1.04112013e+00
C     1.100551833380000e+01   2.574464012041521e+00   3.923342100000000e+00 -9.48430890e-01  -1.58715438e+00  -2.33917810e-01
C     2.375926682700000e+00   3.222229333719396e+00   3.919177200000000e+00  4.45707060e-01   1.09606245e+00   6.26360330e-01
C     3.580653675600000e+00   2.515781882660447e+00   3.922533900000000e+00  2.48183805e+00  -6.02786500e-01  -3.07135000e-02
C     4.842213462000000e+00   3.304532330060562e+00   3.894672300000000e+00 -1.22620927e+00  -2.91652689e+00  -6.94387540e-01
C     6.087344516400000e+00   2.629429964061701e+00   3.756468600000000e+00 -1.99331021e+00  -3.83578653e+00   1.60022226e+00
C     7.300097105599999e+00   3.211334324857859e+00   3.885506700000000e+00  3.06162362e+00   2.64560752e+00  -1.08987589e+00
C     8.567470052200001e+00   2.536930449916262e+00   3.885056700000000e+00 -5.88846820e-01  -1.34530436e+00  -2.37789980e-01
C     9.780270068000000e+00   3.275309957615696e+00   3.908433600000000e+00 -5.59568300e-01   6.04156120e-01   2.04147600e-02
C     1.224579166200000e+01   4.652867701884002e+00   4.016259600000000e+00 -7.84946850e-01   1.58711830e+00  -1.25935223e+00
C     3.552056668300000e+00   5.418560173894869e+00   3.873400800000000e+00  3.22025822e+00  -2.06988109e+00   6.28657190e-01
C     4.824305039800000e+00   4.645854100236149e+00   3.833180700000000e+00  1.26323242e+00   4.98428064e+00   3.27771070e-01
C     6.194406121899999e+00   5.407531358739109e+00   3.809754600000000e+00 -4.51686724e+00  -1.50047428e+00  -5.22902600e-01
C     7.371644913799999e+00   4.649631246131873e+00   3.801275100000000e+00 -8.18582030e-01   9.30458870e-01   9.30023230e-01
C     8.554048965300000e+00   5.429703582571269e+00   3.888919500000000e+00  3.49476600e-02  -1.21709542e+00  -9.81569300e-01
C     9.766403604899999e+00   4.706071116751004e+00   3.878405100000000e+00  1.71515667e+00   7.69713100e-01   1.00170531e+00
C     1.104014793560000e+01   5.438386133817437e+00   3.962547600000000e+00 -1.66951880e+00  -1.86422156e+00  -1.92448890e-01
C     1.347811033660000e+01   6.823740165434192e+00   3.875496600000000e+00 -7.07797310e-01   6.42179680e-01  -6.75042910e-01
C     4.838702611800000e+00   7.547619237877118e+00   3.828686100000000e+00  1.23675946e+00  -2.94054468e+00   1.69034800e-02
C     6.096452543500000e+00   6.822228675189127e+00   3.744212700000000e+00 -1.41693269e+00  -1.85443360e-01   1.88079440e-01
C     7.264030113000000e+00   7.560582480467016e+00   3.675029400000000e+00  1.36286914e+00  -7.04446040e-01   8.88151300e-01
C     8.482886633800000e+00   6.836073229050666e+00   3.804301500000000e+00  1.41916739e+00   1.01309785e+00  -2.64542840e-01
C     9.714498839400001e+00   7.575676035391465e+00   3.828004500000000e+00  2.73540093e+00  -3.36318858e+00   9.31750540e-01
C     1.101389972820000e+01   6.852165165080435e+00   3.906085500000000e+00 -4.17551530e-01  -9.20424400e-02  -7.79558610e-01
C     1.226684966400000e+01   7.541008506743712e+00   3.793487100000000e+00 -2.02803673e+00   1.60813878e+00   1.48911043e+00
