32
Lattice="9.86 0 0 4.93 8.53901048131456 0 0 0 30 " PBC="1 1 1" Properties=species:S:1:pos:R:3:force:R:3 Energy="-254.00616901"
C     9.761000324899999e+00   2.796144238431544e-01   4.224247500000000e+00  1.84075883e+00   1.17990244e+00  -7.61502550e-01
C     1.195116303000000e+00   1.061829198011982e+00   4.249672200000000e+00 -1.89500484e+00  -1.20865574e+00  -7.06747850e-01
C     2.358683071000000e+00   3.443759017354656e-01   3.790695900000000e+00 -1.05106800e-02   1.41992421e+00   1.75050314e+00
C     3.557499339000000e+00   1.128119756510947e+00   3.978213000000000e+00  2.36601723e+00  -3.97317079e+00  -1.86853443e+00
C     4.865794440799999e+00   4.094653630203136e-01   3.808640700000000e+00 -1.60587171e+00  -1.91233167e+00   1.09146101e+00
C     6.124666933499999e+00   1.043069760498366e+00   3.895593300000000e+00 -1.59093836e+00   1.76136009e+00  -1.63054500e-01
C     7.342063286899999e+00   4.021176298923784e-01   3.922197900000000e+00  1.39462186e+00  -2.66867413e+00   1.94202913e+00
C     8.556448938599999e+00   1.049292905946085e+00   4.348063200000000e+00 -1.94075800e-02   8.53166020e-01  -2.62745905e+00
C     1.108298253640000e+01   2.499181704726907e+00   4.520435999999999e+00 -1.65090287e+00  -7.78636960e-01  -5.44830000e-01
C     2.449890634600000e+00   3.226644770648499e+00   4.477417200000000e+00 -1.45990807e+00  -2.55906190e-01  -1.00056174e+00
C     3.601794255100000e+00   2.479893702464578e+00   4.135420200000000e+00  1.22765283e+00   2.18440540e+00   3.36846150e-01
C     4.867061450800000e+00   3.160526870941440e+00   3.899015700000001e+00 -7.56654180e-01   1.39355098e+00   8.83101810e-01
C     6.112070882099999e+00   2.461588967259022e+00   3.922643700000000e+00  5.59304870e-01   1.79052626e+00  -9.36516930e-01
C     7.350138478999998e+00   3.240197888082355e+00   3.889890900000000e+00  1.27074300e-02  -6.41786920e-01   1.45018962e+00
C     8.601366858799999e+00   2.529702006764733e+00   4.248384000000001e+00 -1.86185150e+00  -1.09918043e+00  -7.69584500e-02
C     9.794775508399999e+00   3.217060756065957e+00   4.448858400000000e+00  1.54871383e+00   1.51037633e+00   5.88601420e-01
C     1.223495823350000e+01   4.642936405745237e+00   4.383289500000000e+00  2.36420610e+00  -3.41070870e-01   6.41995400e-02
C     3.609233970200000e+00   5.350079615378098e+00   4.111704899999999e+00 -3.57586800e-01  -2.75059363e+00  -6.86498620e-01
C     4.789034735200000e+00   4.609979497066944e+00   3.832119900000000e+00  3.14943062e+00   2.02130730e-01   6.97429800e-02
C     6.112035484700000e+00   5.405221897964688e+00   3.594355500000000e+00 -2.04353024e+00  -5.93978219e+00   1.05073988e+00
C     7.333728037299999e+00   4.687252333114551e+00   3.778818000000000e+00  9.67822230e-01  -1.84682681e+00  -2.74911070e-01
C     8.616991606399999e+00   5.356246488746754e+00   3.898854000000000e+00 -1.50407691e+00  -1.22008600e-02   1.19887410e-01
C     9.797371104100000e+00   4.713271039607530e+00   4.417514700000000e+00 -1.13926641e+00  -2.85916434e+00  -1.70406034e+00
C     1.104177059580000e+01   5.348435343520069e+00   4.373848800000000e+00 -8.00734790e-01   1.19896996e+00  -2.61702920e-01
C     1.349861474890000e+01   6.712090810215991e+00   3.970695300000000e+00 -1.55904308e+00   2.34136524e+00   9.21324000e-03
C     4.841965680200000e+00   7.392616557941015e+00   3.830143500000000e+00  4.27435880e-01   2.98304145e+00   1.11462577e+00
C     6.068578323500000e+00   6.732170976480550e+00   3.580913400000000e+00  7.33171700e-02   3.92822287e+00  -3.79594500e-02
C     7.269427082600000e+00   7.489259370751559e+00   3.503157000000000e+00  2.03901392e+00  -7.39086120e-01   7.44441810e-01
C     8.561244201699999e+00   6.739302928813656e+00   3.584200500000000e+00 -1.11492290e-01   1.81128934e+00   1.97528837e+00
C     9.752300846899999e+00   7.474402773367931e+00   3.912085800000000e+00  1.41694847e+00   6.96631110e-01  -1.49835161e+00
C     1.103562825950000e+01   6.737122065537063e+00   4.094065200000000e+00 -5.17970720e-01   2.50225149e+00  -3.63693630e-01
C     1.227218091670000e+01   7.487746514264816e+00   3.980237100000000e+00 -5.03200220e-01  -7.30046280e-01   3.22471830e-01
