32
Lattice="9.86 0 0 4.93 8.53901048131456 0 0 0 30 " PBC="1 1 1" Properties=species:S:1:pos:R:3:force:R:3 Energy="-255.95972804"
C     9.797984100299999e+00   5.915009277241063e-01   3.080104800000000e+00 -1.44430348e+00   2.02578018e+00  -3.89521930e-01
C     1.119389087300000e+00   1.403347519890316e+00   3.147111900000000e+00  1.89965402e+00  -5.15535717e+00  -2.39365690e-01
C     2.372668445700000e+00   6.706087117337608e-01   3.179275800000000e+00  3.99708620e-01  -3.79220970e-01   4.59308540e-01
C     3.639390336500000e+00   1.376233941473591e+00   3.325864200000000e+00 -2.75932247e+00  -1.16992685e+00  -4.80947380e-01
C     4.834956452699999e+00   6.604822992055288e-01   3.326438400000000e+00 -2.70296260e-01  -2.12649189e+00  -1.21875120e-01
C     6.026001512400000e+00   1.347131029785341e+00   3.277912800000000e+00  1.77000053e+00   6.30166260e-01  -6.27068790e-01
C     7.285812036199999e+00   6.945448389607728e-01   3.153504000000000e+00  3.04605220e-01  -8.84396200e-01  -1.44890680e-01
C     8.554768646699999e+00   1.337944164580223e+00   3.010101000000000e+00 -9.74316900e-01  -6.65208960e-01   8.91151800e-01
C     1.101531917380000e+01   2.736185868544128e+00   3.220557600000000e+00 -1.40219724e+00   4.38582899e+00   6.21284500e-01
C     2.385798317499999e+00   3.497496120376658e+00   3.471635100000000e+00 -9.79066800e-01  -8.28700640e-01  -5.40139710e-01
C     3.584537825400000e+00   2.766601823873888e+00   3.412260600000000e+00  2.07428013e+00   1.45408155e+00   8.01103740e-01
C     4.871822203900000e+00   3.470226790408778e+00   3.473370600000000e+00 -3.37074872e+00   2.65455836e+00  -1.37406055e+00
C     6.011688687099999e+00   2.747349002334737e+00   3.227319600000000e+00  2.58476511e+00   1.23178034e+00   1.07339381e+00
C     7.283364636299999e+00   3.447039961351386e+00   3.189868200000000e+00 -8.78479810e-01   2.14015386e+00  -7.15052990e-01
C     8.486474885000000e+00   2.755663351449008e+00   3.063000300000000e+00  1.80591186e+00  -9.26325710e-01   3.52004800e-02
C     9.728769956899999e+00   3.402282567140257e+00   3.135933000000000e+00  1.58458567e+00   3.65660220e+00   3.28908550e-01
C     1.224699813160000e+01   4.915224529376761e+00   3.594723900000000e+00 -2.16363274e+00  -1.70979160e-01  -1.57838406e+00
C     3.558747072700000e+00   5.672306775560225e+00   3.403952100000000e+00  1.68418533e+00  -5.67315700e-01   2.05782470e-01
C     4.821432180900000e+00   4.968998179363618e+00   3.350243700000000e+00  8.67952860e-01  -1.97095151e+00   6.36136930e-01
C     6.097516585399999e+00   5.645264327100798e+00   3.227582700000000e+00 -6.69632040e-01  -1.95654021e+00  -3.58347590e-01
C     7.344658290999999e+00   4.925956186967817e+00   3.169471500000000e+00 -1.71301346e+00  -2.06771835e+00   4.81398980e-01
C     8.568606614400000e+00   5.627988542658081e+00   3.193836600000000e+00 -1.50984636e+00  -4.44774360e-01  -5.81427080e-01
C     9.759815399399999e+00   4.911090794403393e+00   3.204526800000000e+00  6.64206710e-01  -2.78575465e+00   7.63191420e-01
C     1.095870724430000e+01   5.580912721711527e+00   3.439095600000000e+00  2.44265608e+00   2.23260901e+00  -5.32711200e-02
C     1.342443801820000e+01   7.086466048959898e+00   3.217917600000000e+00  6.39665180e-01  -4.04791100e-01   3.41135340e-01
C     4.840890447200000e+00   7.714768147880394e+00   3.132865200000000e+00 -3.08394780e-01   8.83382380e-01  -3.85747660e-01
C     6.074010789099999e+00   7.015357012237173e+00   3.104849700000000e+00  2.80881790e-01   1.99792568e+00   6.14711990e-01
C     7.292014469200000e+00   7.772637192683564e+00   3.147048000000000e+00  4.90396340e-01  -2.32832650e-01  -2.29501110e-01
C     8.523394964799998e+00   7.021879535392322e+00   3.190944000000000e+00  1.05109484e+00   2.24928713e+00   5.52676890e-01
C     9.782384397100000e+00   7.746682784939498e+00   3.304021800000000e+00 -1.45237017e+00   7.66926070e-01  -6.32706900e-02
C     1.101425084280000e+01   7.082931240181597e+00   3.391041600000000e+00 -8.85615300e-01  -1.94576819e+00  -4.93196610e-01
C     1.221452195380000e+01   7.833424529708378e+00   3.234377700000000e+00  2.36686220e-01  -1.62602774e+00   5.70683310e-01
