32
Lattice="9.86 0 0 4.93 8.53901048131456 0 0 0 30 " PBC="1 1 1" Properties=species:S:1:pos:R:3:force:R:3 Energy="-255.16453098"
C     9.801122242500000e+00   8.232522338544503e-01   3.687083700000000e+00  9.21057460e-01   5.25146150e-01  -9.98122300e-01
C     1.213095273500000e+00   1.584419457261441e+00   3.722366400000000e+00 -3.18862277e+00   1.22083709e+00   6.65022760e-01
C     2.404685689800000e+00   8.756318049903424e-01   3.681722100000000e+00  4.55361450e-01   4.96728610e-01  -3.50299480e-01
C     3.630428385300000e+00   1.605532843794079e+00   3.857385600000000e+00 -1.39218340e-01  -1.45382631e+00   3.03800690e-01
C     4.833164003300000e+00   8.750042731101672e-01   3.878344800000000e+00  1.38681088e+00  -5.45454530e-01  -8.42394690e-01
C     6.097509831300000e+00   1.562129224304449e+00   3.822927900000000e+00 -2.62878019e+00   3.14276439e+00  -1.56497410e-01
C     7.303582812799999e+00   9.812404080246768e-01   3.707772600000000e+00  1.26102691e+00  -5.66441379e+00  -6.45177600e-02
C     8.554359998999999e+00   1.552925281078371e+00   3.665682000000000e+00  1.67934494e+00   2.31223394e+00   1.08608500e-01
C     1.103874539990000e+01   3.050733896601591e+00   3.970448400000000e+00 -1.84452420e-01  -2.45015105e+00   6.78759210e-01
C     2.421304325400000e+00   3.707168363279181e+00   4.256817000000000e+00 -1.71609698e+00   3.82643560e-01  -1.09857098e+00
C     3.628162951699999e+00   2.979422741500806e+00   4.094755500000000e+00  4.15414330e-01   1.81994569e+00   1.60176830e-01
C     4.852233588400000e+00   3.727372345195699e+00   4.027070699999999e+00  7.68002680e-01  -4.35198350e-01  -1.18718705e+00
C     6.077968494500000e+00   3.001793924277148e+00   3.768946500000000e+00 -4.67346350e-01   1.06823104e+00   1.32872183e+00
C     7.298687520000000e+00   3.759620089053629e+00   3.747016200000000e+00  1.56438339e+00  -2.58742577e+00  -1.06843329e+00
C     8.561784874799999e+00   2.994937525812232e+00   3.680498100000000e+00 -4.57006910e-01   9.33185550e-01   1.56670649e+00
C     9.761156655199999e+00   3.731168789255107e+00   3.992500800000000e+00  1.36020518e+00  -2.65038697e+00  -1.47216235e+00
C     1.220986581530000e+01   5.146631115654028e+00   4.317074700000000e+00  3.78345294e+00  -5.50957540e-01  -8.56292990e-01
C     3.634701068400000e+00   5.870328221783626e+00   4.104016200000000e+00 -9.73247800e-01   6.39650700e-02  -5.23862180e-01
C     4.865457623199999e+00   5.158545170026248e+00   3.890481300000000e+00  3.37396300e-01  -1.82048400e-01   1.17758752e+00
C     6.141095764099999e+00   5.869115084564732e+00   3.683485200000000e+00 -1.29323455e+00  -2.78606276e+00  -7.08076390e-01
C     7.379367610900000e+00   5.157837713007980e+00   3.638576400000000e+00 -6.23368780e-01   7.00318600e-02   1.00452353e+00
C     8.620679049200000e+00   5.841215148672904e+00   3.735477600000000e+00 -4.01527560e-01   1.11170390e+00  -7.29053960e-01
C     9.838439778900000e+00   5.100644616274407e+00   3.983612400000000e+00 -2.72613450e+00   2.60526680e+00  -2.29890400e-02
C     1.101838223210000e+01   5.819144966015982e+00   4.148326200000001e+00  7.96122280e-01   2.54381058e+00  -7.73223000e-03
C     1.348513060730000e+01   7.288770150499438e+00   3.859276800000000e+00 -3.07305170e-01  -4.52856160e-01  -4.56371700e-01
C     4.879914355200000e+00   7.906094582936950e+00   3.596070000000000e+00 -1.14424756e+00   2.29355098e+00   4.06222840e-01
C     6.082622660999999e+00   7.200138210370706e+00   3.433758000000000e+00  1.50262945e+00   3.97614209e+00   1.01319347e+00
C     7.305962523800000e+00   8.036850230274466e+00   3.449571000000000e+00  1.48899680e+00  -3.05331030e+00   5.11971130e-01
C     8.595699429400000e+00   7.306317048524894e+00   3.580513200000000e+00 -2.13561550e+00  -1.70833391e+00   6.56441970e-01
C     9.775673927600000e+00   7.978350664937452e+00   3.801452700000000e+00  2.08502171e+00   1.15373731e+00   6.00386830e-01
C     1.106751052020000e+01   7.292889625325304e+00   4.010537100000001e+00 -2.06516709e+00  -3.74581750e-01  -1.23364677e+00
C     1.224615367190000e+01   8.045898763509808e+00   3.778682400000000e+00  6.46145770e-01  -8.24917030e-01   1.59408695e+00
