32
Lattice="9.86 0 0 4.93 8.53901048131456 0 0 0 30 " PBC="1 1 1" Properties=species:S:1:pos:R:3:force:R:3 Energy="-255.27291607"
C     4.936955046800000e+00   8.484072023593566e+00  -5.062110000000004e-01 -1.99996920e-01  -5.71726570e-01   1.23827319e+00
C     1.265111604900000e+00   6.615621424708296e-01  -4.486106999999997e-01 -1.28200115e+00   1.59737989e+00  -6.43900540e-01
C     7.395102642599999e+00   8.513202857846085e+00  -5.587373999999983e-01  1.69779586e+00  -5.20339260e-01   1.44788251e+00
C     3.712726797999999e+00   6.853317589934815e-01  -3.223616999999983e-01 -1.83465847e+00   6.13154330e-01  -2.85100440e-01
C     9.830067554299999e+00   8.474734188683161e+00  -2.010003000000005e-01  9.76211770e-01   2.70183270e-01   2.45366820e-01
C     6.138936867799999e+00   5.959180724553056e-01  -2.341191000000009e-01  1.04694000e+00   3.07425932e+00  -1.76463010e-01
C     1.232602790500000e+01   8.480481540466936e+00  -1.799534999999999e-01 -6.43751000e-03  -1.00948566e+00   3.03313200e-02
C     8.629159092900000e+00   6.355478762633000e-01  -4.427804999999978e-01  1.74796770e-01   1.33308852e+00   1.72486320e-01
C     1.296130622600000e+00   2.116901818591560e+00  -2.252472000000019e-01 -1.70117930e+00  -5.52043690e-01   8.97618320e-01
C     2.481380516600000e+00   2.837688573779259e+00   1.316832000000000e-01  1.02307450e-01  -1.06568360e+00  -1.59543326e+00
C     3.673170943000000e+00   2.133845435526605e+00  -1.385427000000021e-01  2.62342128e+00  -1.53450371e+00   4.35123510e-01
C     4.971850277000000e+00   2.802586067937656e+00  -1.648128000000000e-01 -2.31974639e+00   4.04403450e-01   4.13678740e-01
C     6.164236198100000e+00   2.078966325243007e+00  -3.412460999999993e-01  1.43562839e+00  -6.15573520e-01  -3.23466970e-01
C     7.436365756600000e+00   2.812792917944610e+00  -4.931961000000022e-01 -1.07433971e+00   2.48951080e-01   5.15619020e-01
C     8.671589335100000e+00   2.108400294367567e+00  -5.183973000000002e-01 -1.28633790e-01  -6.83308600e-01   1.23847034e+00
C     9.902984374199999e+00   2.816138502250674e+00  -2.091680999999994e-01 -4.63153440e-01   3.21712780e-01  -7.81351880e-01
C     2.490878654600000e+00   4.230580160726920e+00   3.542088000000000e-01 -1.62452595e+00   6.61828110e-01  -5.29397000e-02
C     3.714319779600000e+00   4.966843701629410e+00   2.630490000000000e-01  3.59872510e-01  -9.58406080e-01  -6.17687150e-01
C     4.896424136400000e+00   4.233244502776889e+00  -5.221710000000002e-02  2.33289639e+00   3.93061390e-01  -1.21984458e+00
C     6.128777715400000e+00   4.948822120011370e+00  -4.488249000000017e-01  2.57745970e-01  -5.06152460e-01   1.39405077e+00
C     7.410181146199999e+00   4.276549069744952e+00  -4.703318999999979e-01 -2.78176280e-01  -1.10318016e+00   3.70858140e-01
C     8.621634680400000e+00   5.014836526911411e+00  -2.381781000000025e-01  9.75998590e-01  -1.60348249e+00  -2.96122010e-01
C     9.872312182000000e+00   4.271105109003533e+00   2.282400000000000e-03 -2.23514840e+00  -1.73206534e+00  -5.75415310e-01
C     1.104352902820000e+01   4.912862809858203e+00   3.359997000000000e-01  3.09591925e+00   1.86689777e+00  -2.76684250e-01
C     3.748767513699999e+00   6.384886858555805e+00   1.344699000000000e-01 -1.46512116e+00  -5.74501790e-01  -4.41962410e-01
C     4.912945059399999e+00   7.030688037043070e+00  -3.014322000000007e-01  1.51284314e+00   2.19854836e+00  -5.94541990e-01
C     6.166472939100000e+00   6.360460335956927e+00  -5.062746000000011e-01 -5.39823500e-02  -1.04222150e-01   6.25402790e-01
C     7.426341341099999e+00   7.084731861321514e+00  -5.437758000000024e-01 -6.01778490e-01   5.71834330e-01   2.34638500e-02
C     8.682700716999999e+00   6.437712336818962e+00  -2.874866999999988e-01 -3.51042332e+00  -2.95595731e+00  -2.35494880e-01
C     9.846405968699999e+00   7.061832455356879e+00  -3.461459999999761e-02  3.11577071e+00   1.64866306e+00   2.67145280e-01
C     1.111423326410000e+01   6.369487777836383e+00   2.710524000000000e-01 -2.14845596e+00  -6.59640970e-01  -6.28672400e-01
C     1.233055931450000e+01   7.057909463162157e+00   1.582335000000000e-01  1.21961053e+00   1.54630769e+00  -5.70690120e-01
