32
Lattice="9.832 0 0 4.916 8.5147617700086 0 0 0 30 " PBC="1 1 1" Properties=species:S:1:pos:R:3:force:R:3 Energy="-258.06769329"
C     8.520961969225091e-04   1.503448979714540e-04   2.999889083739113e+00 -5.43034200e-02   2.31470800e-02   7.86920000e-03
C     1.228636645937855e+00   7.097745035362535e-01   3.000087872871423e+00  6.51048100e-02  -2.87017000e-02  -3.07697000e-03
C     2.458804887528324e+00  -5.787552755412394e-04   2.999946855732770e+00 -6.97312500e-02   2.41470000e-03   2.50619000e-03
C     3.686625855586155e+00   7.086650285502856e-01   2.999410024327143e+00  9.72970000e-03   5.81121000e-02   6.32319000e-03
C     4.914888086034025e+00  -2.598270569759269e-04   2.999684432600153e+00  8.26410000e-02   4.81896300e-02  -2.40044000e-03
C     6.145139449525436e+00   7.105405224486858e-01   2.999182336190262e+00 -5.63255000e-02  -8.25301000e-02   1.69388200e-02
C     7.373771913379942e+00   3.744845067181700e-04   3.000166527239029e+00  2.57608400e-02   1.54858800e-02  -5.47657000e-03
C     8.603163503348087e+00   7.096233456688783e-01   3.000264431699683e+00 -5.79800000e-05   1.17093800e-02  -7.17084000e-03
C     1.228086184114349e+00   2.127926804897359e+00   2.999855439168867e+00  6.73151400e-02   5.69207900e-02  -9.31770000e-04
C     2.458889879821747e+00   2.839229712083549e+00   2.999333708646005e+00 -7.24769600e-02  -8.44436700e-02   3.78573000e-03
C     3.686917118344759e+00   2.128618082291536e+00   2.999817454400369e+00  4.42045000e-02   1.98942500e-02  -2.85680000e-03
C     4.917155270129795e+00   2.839054975877420e+00   3.000503682559327e+00 -7.54157700e-02  -5.46081400e-02  -6.52507000e-03
C     6.144518909841765e+00   2.127827932592457e+00   3.001084823822246e+00  5.55080700e-02   7.38341700e-02  -1.24487800e-02
C     7.374681308275568e+00   2.837628896672086e+00   3.000518833784001e+00 -6.47325000e-02   1.43532600e-02   3.22880000e-04
C     8.602428969495392e+00   2.129591780255330e+00   2.999343211142764e+00  2.97652600e-02  -9.36974900e-02   1.20495500e-02
C     9.831313840946999e+00   2.837094619589786e+00   2.999989885711696e+00  3.94561500e-02   1.01573430e-01  -1.85805000e-03
C     2.458554973322625e+00   4.257009444624146e+00   2.999393908168613e+00  1.45759700e-02   7.42417900e-02   4.52120000e-03
C     3.687784224322534e+00   4.967747623816493e+00   2.998894056432325e+00 -1.94127400e-02  -4.01851300e-02   5.99412000e-03
C     4.916870042977143e+00   4.257866765152457e+00   2.998919511591415e+00 -2.50366700e-02  -4.18771000e-03   6.52640000e-03
C     6.144740172563601e+00   4.967029082339802e+00   2.999164930424758e+00  5.86862100e-02  -1.36504000e-03   9.32394000e-03
C     7.375084231206670e+00   4.256227842318953e+00   3.000569162486795e+00 -9.20915400e-02   5.18235700e-02  -1.59755900e-02
C     8.602089466868465e+00   4.966601883081192e+00   2.998876053461725e+00  9.85627400e-02   2.29773000e-02   1.71689400e-02
C     9.832328334310333e+00   4.257940294143542e+00   3.000470153623441e+00 -1.03317100e-02  -4.18123500e-02  -6.89965000e-03
C     1.106182449683588e+01   4.968027804895382e+00   3.000804965291626e+00 -3.77228900e-02  -6.02094100e-02  -1.50423300e-02
C     3.687511182638232e+00   6.386186016557220e+00   3.000329840472959e+00 -1.54956000e-03   4.63798400e-02  -8.46578000e-03
C     4.916972656364279e+00   7.096549194355552e+00   3.000335780391366e+00 -6.14351400e-02  -3.31062000e-02  -2.42207000e-03
C     6.143920956994510e+00   6.386525649278289e+00   2.999945093375102e+00  9.22650300e-02  -3.57841900e-02   1.41400000e-05
C     7.374518474734878e+00   7.094925442052221e+00   3.000494907663306e+00 -1.82426600e-02   2.82875900e-02  -1.09020300e-02
C     8.603977710042606e+00   6.386512413467361e+00   2.999245533148780e+00 -5.68340000e-02  -3.88977100e-02   7.75777000e-03
C     9.832100022979777e+00   7.096556056514480e+00   3.000190205332805e+00 -1.82069000e-03  -4.84332000e-02  -1.41388800e-02
C     1.106058018047887e+01   6.386212856809127e+00   2.999205768474625e+00  6.11748500e-02   4.80380000e-02   1.64742700e-02
C     1.229041989990627e+01   7.096539998102916e+00   2.999951639146986e+00 -2.72292800e-02  -4.94207100e-02  -9.84720000e-04
