32
Lattice="9.892 0 0 4.946 8.56672329423567 0 0 0 30 " PBC="1 1 1" Properties=species:S:1:pos:R:3:force:R:3 Energy="-258.06605386"
C    -5.950743548174994e-04  -1.129268120476621e-03   3.000202861036079e+00 -2.41996000e-03   1.02305280e-01  -8.22832000e-03
C     1.235541742590997e+00   7.141675588360876e-01   2.999496467420865e+00  6.57040700e-02  -8.32325100e-02   2.02261800e-02
C     2.473759834674306e+00  -1.001966281552189e-03   3.000494848224396e+00 -3.15304800e-02   6.34477000e-02  -1.06624100e-02
C     3.710570551865045e+00   7.147398904604431e-01   3.000741798568443e+00 -3.43263400e-02  -7.85338800e-02  -1.20916000e-03
C     4.947169292006228e+00   8.924172512835681e-05   3.000017886726907e+00 -2.98076100e-02   2.24231700e-02  -2.27285000e-03
C     6.183624796710072e+00   7.145754059799296e-01   3.000223944657781e+00 -4.50326700e-02  -2.96700500e-02  -1.03199600e-02
C     7.418181135399553e+00  -7.829754390868725e-04   2.998842025667464e+00  5.78290700e-02   5.51949500e-02   2.04016900e-02
C     8.654831358546138e+00   7.139675786870456e-01   3.000474607187276e+00 -1.52497000e-03  -4.49301400e-02  -1.62922100e-02
C     1.235980588796505e+00   2.140667140244870e+00   3.001200974246237e+00  6.01472200e-02   7.11142600e-02  -2.56962300e-02
C     2.473675551482336e+00   2.855695077926418e+00   2.999154885249856e+00 -3.50381800e-02  -6.56950000e-03   2.63330400e-02
C     3.710119345613839e+00   2.141741893216099e+00   3.000756250112817e+00 -2.70122300e-02   1.22929000e-03  -1.15021100e-02
C     4.946535566564514e+00   2.854377238262239e+00   3.000032606444945e+00 -9.68689000e-03   6.72732400e-02   5.31674000e-03
C     6.182928000381664e+00   2.142137194297651e+00   2.999966144767596e+00  3.66103800e-02  -2.15615300e-02   1.82657000e-03
C     7.420231354707560e+00   2.855226443864746e+00   2.999669637877501e+00 -7.54183000e-02   7.01789100e-02  -1.00501800e-02
C     8.654599634990117e+00   2.141260864856601e+00   2.999184689720185e+00  9.24539200e-02   1.59900200e-02   1.39144000e-02
C     9.892841863327581e+00   2.855835391887120e+00   2.999889604779909e+00 -7.74434100e-02  -4.43370200e-02  -3.20953000e-03
C     2.473500526376724e+00   4.284577672324768e+00   3.000338110676513e+00 -4.77199200e-02  -9.76243500e-02  -2.95349000e-03
C     3.708308810431828e+00   4.996363889379118e+00   3.000359416119830e+00  7.93699700e-02   8.80866500e-02  -5.69065000e-03
C     4.944775092858245e+00   4.282303835063870e+00   3.000168885052312e+00  7.61830200e-02   4.29474100e-02  -5.29570000e-03
C     6.182918894282652e+00   4.998114485352012e+00   2.999394018532134e+00 -5.86639300e-02  -5.22001300e-02   4.74507000e-03
C     7.419584595982415e+00   4.284591212659041e+00   2.998823675383241e+00 -1.21839900e-02  -7.45314700e-02   1.60805600e-02
C     8.656723371560091e+00   4.996266293831678e+00   3.000733781461479e+00 -6.12113800e-02   5.07926300e-02  -1.88555600e-02
C     9.890948486479024e+00   4.282822895666778e+00   2.998975432151049e+00  1.38650630e-01   1.13479600e-02   2.21110400e-02
C     1.112951217901644e+01   4.997805404752185e+00   3.000703844328144e+00 -8.68333800e-02  -3.92096900e-02  -1.25182700e-02
C     3.708668403585292e+00   6.425948721350478e+00   2.999128009435431e+00  4.97997200e-02  -5.85247600e-02   1.07377200e-02
C     4.945662628124864e+00   7.140150373283793e+00   2.999079783597624e+00 -3.35120000e-03  -9.17319500e-02   1.09542600e-02
C     6.182622196570369e+00   6.425497146054261e+00   3.000306960894530e+00 -3.89327300e-02  -1.04479200e-02  -1.52991100e-02
C     7.418797855178251e+00   7.137738146270930e+00   2.999689421237839e+00  4.34624400e-02   3.63696800e-02   1.53822700e-02
C     8.655855281511576e+00   6.423945980965077e+00   3.000896218258359e+00  2.90732000e-03   3.55204800e-02  -1.59925500e-02
C     9.891748304236105e+00   7.139184739631887e+00   2.998813961060911e+00  2.44099200e-02  -2.92838400e-02   2.18806700e-02
C     1.112868477986211e+01   6.424370551878921e+00   3.000029762609997e+00 -1.22808300e-02   4.39798000e-02  -1.64886000e-03
C     1.236516635687845e+01   7.138962610365772e+00   3.000016603678666e+00 -3.71092800e-02  -1.58126800e-02  -1.22130600e-02
