32
Lattice="9.912 0 0 4.956 8.58404380231136 0 0 0 30 " PBC="1 1 1" Properties=species:S:1:pos:R:3:force:R:3 Energy="-258.03043154"
C     3.535856113179039e-04   9.570266694105047e-05   3.000029483200533e+00 -4.44556500e-02   9.54900000e-05  -4.57880000e-03
C     1.239273217408786e+00   7.153196102273348e-01   2.999292436830527e+00 -2.45678800e-02   8.54004000e-03   8.20065000e-03
C     2.477365582487795e+00   1.786502353744687e-04   3.000675573828711e+00  3.04596200e-02  -3.00146400e-02  -1.44522300e-02
C     3.716530736064804e+00   7.150993016320911e-01   3.000239870518546e+00  2.22369000e-03   4.34852200e-02  -1.20354200e-02
C     4.955359275352325e+00   1.005373767073215e-03   2.999155526927152e+00  4.24379900e-02  -7.27661500e-02   1.17070600e-02
C     6.195219708588335e+00   7.147471490675122e-01   3.000932569827078e+00 -2.16648100e-02   8.75908000e-03  -1.33644500e-02
C     7.435038468917393e+00  -9.788771416906004e-04   3.001166347789132e+00 -6.19619500e-02   2.45573900e-02  -1.03423500e-02
C     8.671868612991785e+00   7.141823441895427e-01   3.000080735399844e+00  9.88611300e-02   7.59295900e-02   1.15190000e-04
C     1.237829032363370e+00   2.145608268164327e+00   2.999240086502383e+00  5.06027000e-02   3.20593300e-02   2.04101800e-02
C     2.477426789080586e+00   2.862529625978845e+00   3.001108076258169e+00  1.88950900e-02  -1.07999200e-01  -3.06869500e-02
C     3.717792676275200e+00   2.146395598217221e+00   2.998898359132883e+00 -6.18793900e-02  -2.61214000e-03   2.61094600e-02
C     4.956468740596303e+00   2.861686888381587e+00   3.000254678621708e+00 -3.90150500e-02  -1.84788500e-02  -5.21087000e-03
C     6.194061933470582e+00   2.145299445474761e+00   3.000018431539723e+00  7.17191100e-02   1.18664900e-02   4.71574000e-03
C     7.433942010396473e+00   2.860310673480367e+00   2.999645664689047e+00 -3.93233000e-03   5.90610700e-02   4.86582000e-03
C     8.673577859886587e+00   2.146583722781031e+00   2.999053505224818e+00 -8.61657200e-02  -8.58982000e-02   1.57495200e-02
C     9.910865346008245e+00   2.860899056738567e+00   3.000839455078724e+00  7.23472900e-02   3.43474900e-02  -2.81028700e-02
C     2.478267324406535e+00   4.290974099891817e+00   2.999419466849752e+00 -1.17531200e-02   7.92166100e-02   2.27207300e-02
C     3.717214127968233e+00   5.007170395557415e+00   3.000333634437495e+00 -2.63869900e-02  -1.75870600e-02   6.18750000e-04
C     4.954887856705782e+00   4.292234819752807e+00   3.001149745564454e+00  5.83919800e-02  -2.25553000e-03  -7.73195000e-03
C     6.193774767139810e+00   5.007825953600872e+00   3.000986161418085e+00  7.28134300e-02  -3.07549400e-02  -3.42905000e-03
C     7.434726071349904e+00   4.292429753462799e+00   3.000766186843514e+00 -1.00046350e-01  -5.94603700e-02  -7.04666000e-03
C     8.672161911883938e+00   5.006751049270112e+00   3.000002219550848e+00  8.74353700e-02   2.73802500e-02   3.60040000e-04
C     9.913060312348021e+00   4.292029050558381e+00   2.999245645727485e+00 -6.73758600e-02  -1.37030000e-02   2.06210000e-02
C     1.115143009408777e+01   5.006906742822250e+00   3.000718572806019e+00 -5.27308000e-03   3.08152700e-02  -1.98607400e-02
C     3.717604468358895e+00   6.437155597193305e+00   3.000720666312240e+00 -3.10579000e-03   5.11613900e-02  -6.35229000e-03
C     4.955835385793143e+00   7.154314417381181e+00   3.000178622931788e+00  4.98884800e-02  -6.48730300e-02   1.26841000e-03
C     6.196213265329564e+00   6.437830273736559e+00   2.999641156799668e+00 -9.11850400e-02   2.25833500e-02   9.79506000e-03
C     7.434084090528655e+00   7.152776352099001e+00   2.999766724380730e+00  3.17066500e-02   3.23494500e-02   7.06731000e-03
C     8.673282270745643e+00   6.437478174551984e+00   3.000183783125726e+00  6.39502000e-03   1.67015800e-02  -1.08942000e-02
C     9.913023305025904e+00   7.153088057834215e+00   2.998828264595214e+00 -6.91956600e-02   3.35375800e-02   1.25955600e-02
C     1.115076720911257e+01   6.438625997076389e+00   2.999910113346551e+00  6.53019500e-02  -3.98049900e-02  -8.29110000e-04
C     1.239119121262497e+01   7.153424488802048e+00   3.000180289384559e+00 -4.15148300e-02  -4.62385600e-02   7.99746000e-03
