32
Lattice="9.72 0 0 4.86 8.41776692478474 0 0 0 30 " PBC="1 1 1" Properties=species:S:1:pos:R:3:force:R:3 Energy="-257.45561699"
C    -1.280358655486209e-02   5.783137868887100e-05   2.990563485659544e+00  5.07068940e-01  -1.15126120e-01   8.44992900e-02
C     1.202498529870607e+00   7.091441543110585e-01   2.994870027950844e+00  5.43243870e-01  -8.55296690e-01   3.90763000e-02
C     2.437411518094544e+00   3.439099779405245e-03   3.008460581957506e+00 -1.13149869e+00  -3.97737920e-01  -1.99535240e-01
C     3.638032311314861e+00   6.950592560534553e-01   2.995147974994872e+00  6.92858930e-01   9.65581620e-01   1.62600270e-01
C     4.861391259729410e+00   1.165445379267188e-02   2.997373336018144e+00 -2.88389920e-01  -5.35031620e-01  -3.15613600e-02
C     6.073496259012042e+00   7.054078144263217e-01   2.990786285270900e+00  4.59185120e-01  -4.86739480e-01   1.74321520e-01
C     7.301325349382971e+00  -1.914488081401910e-03   3.006893733327297e+00 -1.28311974e+00  -3.52105920e-01  -1.66575700e-01
C     8.491014985872942e+00   6.905983281719686e-01   2.999185133642020e+00  6.91969960e-01   8.07138720e-01   3.55533000e-03
C     1.212714579394275e+00   2.099150528872414e+00   2.994970182631805e+00  2.02511230e-01   4.75809910e-01  -1.61268400e-02
C     2.432051143578894e+00   2.798981447071153e+00   2.997211318496991e+00 -2.49568870e-01   7.81572010e-01   1.09174160e-01
C     3.653811120075779e+00   2.117416728872439e+00   3.008275344889995e+00 -1.02436166e+00  -1.03583201e+00  -1.58233110e-01
C     4.847061225338064e+00   2.809668230436720e+00   3.001656930069107e+00  1.32510634e+00  -1.65204310e-01   8.44037300e-02
C     6.075716448770821e+00   2.091981203091382e+00   3.003820337206774e+00 -2.35503820e-01   1.16439660e+00  -1.07866040e-01
C     7.293208020081805e+00   2.809310339174277e+00   2.999352587234731e+00 -5.61298050e-01  -1.49331050e-01   2.48034700e-02
C     8.495925206110687e+00   2.099668435463466e+00   2.998735607183595e+00  7.27089190e-01   2.52310050e-01  -1.30733900e-02
C     9.726259307461062e+00   2.806388272174979e+00   2.996132617572521e+00 -9.01035670e-01   1.50190570e-01   5.52564100e-02
C     2.415487203602233e+00   4.221391137107019e+00   3.002741003231896e+00  9.02073900e-01  -1.31506481e+00  -1.70567620e-01
C     3.641534868806395e+00   4.902498295537709e+00   2.994573438437114e+00 -2.86660620e-01   6.09797080e-01   1.92279520e-01
C     4.855152358275157e+00   4.208646081605902e+00   3.006073185324188e+00 -5.95346000e-03  -6.45401000e-03  -6.37385900e-02
C     6.073166089245339e+00   4.905388564118643e+00   3.006950957396420e+00 -2.66525290e-01   4.93334430e-01  -9.65437600e-02
C     7.276204583426624e+00   4.215578018915484e+00   2.997274214858272e+00  1.09976985e+00  -2.79535330e-01   1.38452580e-01
C     8.513900918333503e+00   4.918919955082211e+00   3.008557020800348e+00 -1.13753124e+00  -4.92844700e-01  -1.64847370e-01
C     9.709293031917609e+00   4.221391534097430e+00   3.006007161679292e+00  8.38142710e-01  -1.05133020e+00  -1.06110990e-01
C     1.093604020965664e+01   4.907309196725905e+00   2.987983716493567e+00 -9.02661150e-01   6.96760050e-01   1.27044520e-01
C     3.630529709186765e+00   6.313983263794748e+00   3.009900440075566e+00  1.13129204e+00  -4.32895650e-01  -1.88443100e-01
C     4.858587932256741e+00   7.016351242548547e+00   2.999706613190110e+00 -6.53081400e-02  -2.41021850e-01   2.43389000e-02
C     6.085795689426833e+00   6.314618501954664e+00   2.997361319457772e+00 -9.76814680e-01  -2.25770260e-01   5.04634700e-02
C     7.288023963632254e+00   7.006064557250582e+00   2.994944402322004e+00  6.13870700e-01   6.10820390e-01   2.27778000e-02
C     8.511392923477411e+00   6.306731002324550e+00   2.989533207968638e+00 -3.28167100e-01   7.94200940e-01   1.89953080e-01
C     9.716780118092448e+00   7.023026862337654e+00   3.002768380739535e+00  7.34984200e-02  -1.08585330e-01  -1.81139210e-01
C     1.092076967834162e+01   6.311953167791803e+00   2.987193840300286e+00  8.11170320e-01   2.22827700e-01   8.62785500e-02
C     1.215463417328179e+01   7.010176733913621e+00   2.995031496482619e+00 -9.74453410e-01   2.21167200e-01   9.50834200e-02
