32
Lattice="9.836 0 0 4.918 8.51822587162374 0 0 0 30 " PBC="1 1 1" Properties=species:S:1:pos:R:3:force:R:3 Energy="-258.06219656"
C    -2.168560108277550e-03  -1.926848896755716e-03   2.997564378622402e+00  1.83865800e-02   2.36139060e-01   3.20313600e-02
C     1.226820042582149e+00   7.089489886480823e-01   3.004539579382193e+00  1.44954510e-01   8.34277100e-02  -8.49829600e-02
C     2.459806828407391e+00  -2.378249169936766e-03   3.001585076868156e+00 -1.49936820e-01   1.67676010e-01   6.68129000e-03
C     3.687380605903293e+00   7.084029791388309e-01   3.000631979945733e+00  7.84839900e-02   1.87676270e-01  -3.89420500e-02
C     4.920009561679728e+00   3.059294190890322e-03   2.998218671073966e+00 -2.13265860e-01  -1.52731950e-01   5.10059200e-02
C     6.146522651881299e+00   7.102492538143466e-01   3.000344486051044e+00  1.00818380e-01   1.75221990e-01   1.93000000e-05
C     7.374894910647883e+00   4.085035601874829e-03   3.000615839925469e+00  8.41486800e-02  -2.84931460e-01  -2.06505900e-02
C     8.604597799109428e+00   7.118676258728002e-01   2.996043506433700e+00  2.23893100e-02  -1.12242910e-01   5.46640200e-02
C     1.229381999130292e+00   2.133066208510875e+00   2.996684502560190e+00 -5.86042600e-02  -2.49923990e-01   5.24890900e-02
C     2.457096024262161e+00   2.843831050527779e+00   2.998139072502242e+00  1.32945890e-01  -3.05811300e-01  -2.17985800e-02
C     3.688301362323659e+00   2.132315570172170e+00   2.995694535559450e+00 -1.46188890e-01  -1.84982880e-01   7.28188200e-02
C     4.914978362816483e+00   2.838715843229927e+00   3.002410051114014e+00  2.69593770e-01   1.27389450e-01  -3.98687700e-02
C     6.150205332515863e+00   2.132274468378053e+00   3.002234348367561e+00 -2.18497410e-01  -8.96693400e-02  -2.64826500e-02
C     7.376211077328974e+00   2.842010908431942e+00   2.997765145086651e+00  1.28075140e-01  -1.17483800e-02   5.78148100e-02
C     8.607454828580488e+00   2.128355986673927e+00   3.001242514189783e+00 -1.58411410e-01   1.26625070e-01  -6.70698100e-02
C     9.834339441107188e+00   2.836668279188201e+00   2.997470184695404e+00  1.13856920e-01   2.38342740e-01   1.87245400e-02
C     2.463134050243148e+00   4.255356986520091e+00   2.999605536110663e+00 -2.78514640e-01   3.59507120e-01  -2.37853300e-02
C     3.687344658142007e+00   4.966187500069511e+00   2.997592671839302e+00  2.98403090e-01   1.60323220e-01   4.29380000e-02
C     4.922221840592253e+00   4.260629600736054e+00   3.000879650447380e+00 -2.77174040e-01  -1.51651150e-01  -2.14200100e-02
C     6.149077410581024e+00   4.967843553124736e+00   2.998531456170785e+00 -7.14106100e-02   1.69031330e-01   2.48179900e-02
C     7.376882012362191e+00   4.263448893203713e+00   2.998968794159310e+00  4.53900100e-02  -2.26722840e-01  -1.67220000e-02
C     8.604328206766493e+00   4.969983830957809e+00   2.998209990821040e+00  2.13048020e-01   1.45505500e-02  -4.95160000e-03
C     9.837588981763876e+00   4.259836840330901e+00   2.998605902217836e+00 -8.36159700e-02  -1.24870000e-04  -9.60363000e-03
C     1.106758924313676e+01   4.971796702790253e+00   2.998726087971170e+00 -2.38978700e-02  -1.36993580e-01  -1.07614900e-02
C     3.690269008245924e+00   6.388937437530005e+00   3.000862459556154e+00 -1.70810130e-01  -1.01404880e-01  -2.72596400e-02
C     4.916110764703958e+00   7.101688788465261e+00   2.998688222661145e+00  1.10790750e-01  -2.69386050e-01   1.51193400e-02
C     6.145602673759657e+00   6.387196717744482e+00   2.999814641909050e+00  6.34648900e-02   1.62696490e-01  -2.57590000e-02
C     7.376624361231584e+00   7.099642947510208e+00   2.997982390692429e+00 -8.00717900e-02  -1.62058770e-01   2.07056500e-02
C     8.605686991852650e+00   6.389275760463716e+00   2.997144587351722e+00  2.25667000e-03   1.70626400e-02   3.12231100e-02
C     9.833773912080856e+00   7.099559960342543e+00   3.002134751600959e+00  1.18780840e-01   6.83749000e-02  -7.71319800e-02
C     1.106577668204277e+01   6.392279643448325e+00   2.996587614129441e+00 -5.46863700e-02  -1.64474940e-01   7.16453600e-02
C     1.229537681215366e+01   7.096116036671645e+00   3.001753424384827e+00  3.92986500e-02   3.10814690e-01  -3.55085100e-02
