32
Lattice="10.056 0 0 5.028 8.70875146045631 0 0 0 30 " PBC="1 1 1" Properties=species:S:1:pos:R:3:force:R:3 Energy="-257.2701086"
C     1.345584718270962e-06  -1.649287999309808e-03   3.001784951366282e+00 -6.22103500e-02  -3.93794400e-02  -1.36950000e-02
C     1.254358421346334e+00   7.253381885634306e-01   3.003226438609857e+00  8.53537400e-02   6.57213400e-02  -4.10162200e-02
C     2.512702476105520e+00   2.260208256058952e-03   2.996728995627060e+00 -4.64602200e-02  -1.50804780e-01   5.85897100e-02
C     3.768010829288289e+00   7.215618671919320e-01   2.996228582054241e+00  1.54508860e-01   3.35108640e-01   2.23788900e-02
C     5.028118346988215e+00  -8.780604066743170e-04   2.997372681519433e+00  1.41679200e-02   9.67226500e-02   8.17415000e-03
C     6.289301977755214e+00   7.255328463688626e-01   2.998401683544052e+00 -2.89801320e-01   8.34685600e-02   2.10259000e-02
C     7.539083176860292e+00   1.055457950205936e-03   3.003172341027573e+00  2.27466710e-01  -1.14035800e-01  -8.95647900e-02
C     8.798914901690900e+00   7.230264937316406e-01   2.996765869556309e+00  4.79652000e-03   1.27269570e-01   7.66706300e-02
C     1.257816618410143e+00   2.178450109511117e+00   3.002963040955438e+00 -2.13628800e-02  -1.40743260e-01  -4.11928200e-02
C     2.514842408631063e+00   2.902751499072454e+00   2.997424082622691e+00 -2.32491500e-02   3.05011800e-02   8.64749200e-02
C     3.769977375425368e+00   2.181760736494208e+00   3.000806458254218e+00  1.14469050e-01  -3.02405930e-01  -5.37267400e-02
C     5.030217361183974e+00   2.904461630776995e+00   2.999141439478414e+00 -9.77468000e-02  -4.21004200e-02   9.59508000e-03
C     6.286721624968003e+00   2.179163791839285e+00   2.998599317749902e+00  3.64071300e-02  -8.16088500e-02  -6.80059000e-03
C     7.543453007472683e+00   2.902937152152555e+00   2.998415345387415e+00  5.25532300e-02   7.72302400e-02   1.53149600e-02
C     8.801137077580496e+00   2.177168954832194e+00   2.999128403458737e+00 -5.27670600e-02  -9.33801100e-02  -9.11454000e-03
C     1.005860652884229e+01   2.900910544205604e+00   3.000654410853029e+00 -5.89002600e-02   1.19504550e-01  -5.15655000e-03
C     2.513252927531842e+00   4.352282803834278e+00   3.004183653622636e+00  5.13524000e-02   1.35479030e-01  -1.04186820e-01
C     3.770822776535738e+00   5.080559158815725e+00   2.997715705369551e+00  2.56067400e-02  -1.93543000e-02   6.88065600e-02
C     5.029400612397721e+00   4.354258321556908e+00   2.999297721026145e+00 -1.89035500e-02   6.73248400e-02  -3.63487400e-02
C     6.287497663711775e+00   5.079609311463681e+00   2.995751263853847e+00 -4.42780300e-02   7.56071400e-02   7.32255000e-02
C     7.545323183888237e+00   4.358187339897664e+00   3.001156166429416e+00 -1.54572560e-01  -2.22133570e-01  -2.54679900e-02
C     8.795960953063810e+00   5.079858957724150e+00   3.004036409003109e+00  3.03883400e-01   1.27807810e-01  -3.80337000e-02
C     1.005805258597751e+01   4.353962215992231e+00   2.998816868768879e+00 -1.70659750e-01  -4.11797000e-02   3.57321400e-02
C     1.131148376894894e+01   5.077232162938397e+00   2.998620772565013e+00  6.42742600e-02   1.97193130e-01   6.23023300e-02
C     3.773770309940628e+00   6.534804035236002e+00   3.001870652461962e+00 -1.68961510e-01  -2.48066400e-01  -5.65745600e-02
C     5.026277685892004e+00   7.253132226175378e+00   3.001298961737166e+00  2.08302710e-01   2.16462920e-01   4.90756000e-03
C     6.286482715591633e+00   6.531427683108737e+00   3.001005976311001e+00 -5.04417200e-02  -6.25453100e-02  -1.57845500e-02
C     7.542104231144743e+00   7.257647858298268e+00   3.002092076719239e+00  1.82169400e-02   5.16778400e-02  -2.79790700e-02
C     8.800395465884574e+00   6.534126528839445e+00   3.003364992053979e+00 -1.10185960e-01  -1.13315640e-01  -1.21197400e-02
C     1.005624010145559e+01   7.258810742707304e+00   3.000528559360389e+00  1.38788700e-02  -1.35682600e-02   1.33074000e-02
C     1.131128967946836e+01   6.534333226961265e+00   3.003244407313499e+00  1.57380710e-01  -1.97289320e-01  -6.82528600e-02
C     1.257207950015288e+01   7.256769311900705e+00   2.997698366307658e+00 -1.62118090e-01   7.48316300e-02   8.85095700e-02
