32
Lattice="9.74 0 0 4.87 8.43508743286043 0 0 0 30 " PBC="1 1 1" Properties=species:S:1:pos:R:3:force:R:3 Energy="-257.6250845"
C    -6.740092874993941e-03  -1.049449859002137e-02   3.000551832377579e+00  4.47730110e-01   6.68332860e-01  -1.61219880e-01
C     1.218057984252737e+00   7.040310139315795e-01   2.986952106925691e+00  7.31691000e-03  -8.83899730e-01   2.00985820e-01
C     2.443663139197472e+00  -9.415632881014348e-03   2.997819787352128e+00 -3.47118820e-01   4.37312740e-01  -1.80384600e-02
C     3.664471993568089e+00   7.041805913673649e-01   2.997990407145123e+00 -5.90457930e-01  -4.60995370e-01   6.12594400e-02
C     4.870009907380090e+00  -9.071790520394207e-03   3.001763028804736e+00  4.03634580e-01   4.22452260e-01   3.15080000e-02
C     6.087126326310682e+00   7.114380543282950e-01   3.002143512370854e+00 -2.12750080e-01  -1.13216629e+00   1.21362940e-01
C     7.299472637957010e+00  -1.381821746113668e-02   3.009239362555386e+00  9.58254100e-02   7.73400830e-01  -1.15824290e-01
C     8.517634613610745e+00   6.978382792055039e-01   2.989138925556677e+00  4.42348800e-02  -4.35832160e-01   2.11988940e-01
C     1.213037353647885e+00   2.095522094377742e+00   3.001858953803656e+00  2.14458140e-01   1.03827883e+00  -2.33827990e-01
C     2.433297113982639e+00   2.816302040690601e+00   2.995976750593212e+00 -6.77430100e-02  -3.62839540e-01   1.32714150e-01
C     3.648855837520555e+00   2.106809956063995e+00   3.008110569989096e+00  2.01833020e-01   3.88270380e-01  -1.22124720e-01
C     4.868946201415319e+00   2.818412161840301e+00   3.008450983549877e+00 -9.05932900e-02  -4.05129200e-01  -9.62043000e-03
C     6.079392112316301e+00   2.101000573728053e+00   3.013911568863165e+00  4.66940270e-01   6.94276620e-01  -4.38832200e-02
C     7.311592770610889e+00   2.799500471076174e+00   3.014846149534886e+00 -7.59634300e-01   3.22894930e-01  -1.59902680e-01
C     8.520925798015805e+00   2.100234318757529e+00   3.000201474125724e+00  3.44040400e-01   1.89847180e-01  -8.88192300e-02
C     9.739112181846615e+00   2.812213300286333e+00   2.987043591201653e+00 -3.37577700e-02  -3.15457840e-01   2.01387790e-01
C     2.443495587211501e+00   4.225391378672648e+00   3.002841631770315e+00 -1.22272379e+00  -4.35659970e-01   4.14098600e-02
C     3.639306896990747e+00   4.920582968530478e+00   3.006382965844441e+00  1.26627179e+00   9.44141000e-02  -1.40225280e-01
C     4.872331710853093e+00   4.218686907268256e+00   2.997937344774437e+00 -4.35665180e-01   1.58631550e-01   1.02833030e-01
C     6.082998504561477e+00   4.925597399452749e+00   2.999998982513157e+00  2.36674980e-01  -3.76272850e-01  -3.33918600e-02
C     7.301021669025515e+00   4.207058146383118e+00   2.992222028527523e+00  3.43049240e-01   4.09267780e-01   1.90882810e-01
C     8.533201645151966e+00   4.915425646562455e+00   3.000943282012036e+00 -9.65448900e-01   1.56459600e-02  -8.71771000e-02
C     9.739891236169417e+00   4.221477236289202e+00   3.003443653570227e+00  3.18806640e-01  -5.22398750e-01  -4.55346900e-02
C     1.095122662674633e+01   4.925558160301548e+00   3.010307292941758e+00  4.96137720e-01  -1.31760360e-01  -1.00894810e-01
C     3.659675838371053e+00   6.320008133693243e+00   2.993426078772221e+00 -5.45110360e-01   4.22809310e-01   1.85449250e-01
C     4.881405610433098e+00   7.027247483179261e+00   3.001233065765776e+00 -1.20084270e+00   2.48605400e-02  -1.60510000e-04
C     6.074999705929089e+00   6.332363216104149e+00   3.008644486009058e+00  9.54612410e-01  -6.19344740e-01  -6.75071500e-02
C     7.295245060541443e+00   7.020985296450585e+00   3.007177211319854e+00  8.07532950e-01   1.33660270e-01  -8.99115300e-02
C     8.528781738784856e+00   6.318648389772422e+00   2.995685998846301e+00 -4.17467990e-01   1.42743590e-01   1.71279000e-01
C     9.750018748280752e+00   7.019787422979669e+00   3.009990434561429e+00 -1.00757637e+00   5.72955060e-01  -1.60821260e-01
C     1.094926897201940e+01   6.331185630905663e+00   3.002290706685418e+00  6.99221680e-01  -6.93760230e-01   1.60738320e-01
C     1.216884492483756e+01   7.023960774625683e+00   3.010273533667146e+00  5.48569340e-01  -1.34537730e-01  -1.34914260e-01
