2
Lattice="2.52 0 0 1.26 2.18238401753678 0 0 0 30 " PBC="1 1 1" Properties=species:S:1:pos:R:3:force:R:3 Energy="-16.06710268"
C     0.000000000000000e+00   0.000000000000000e+00   3.000000000000000e+00 -0.00000000e+00   0.00000000e+00  -0.00000000e+00
C     1.260000000000000e+00   7.274613391789284e-01   3.000000000000000e+00  0.00000000e+00   0.00000000e+00   0.00000000e+00
