32
Lattice="9.912 0 0 4.956 8.58404380231136 0 0 0 30 " PBC="1 1 1" Properties=species:S:1:pos:R:3:force:R:3 Energy="-257.90504901"
C    -3.999688152985344e-03   6.316872503693368e-03   2.987589809757426e+00  2.10059140e-01  -5.39697070e-01   1.56517010e-01
C     1.240102127245977e+00   7.129195107425168e-01   2.989385043445966e+00 -1.92375250e-01   9.06195400e-02  -1.55752500e-02
C     2.470250166413575e+00  -6.318596530077794e-03   3.003118413940072e+00  2.47664570e-01  -8.40293200e-02  -2.15027930e-01
C     3.711296812948160e+00   7.127786022708105e-01   2.985540575594697e+00 -2.25008300e-01  -1.27638650e-01   2.35339000e-01
C     4.944275667102487e+00  -2.896690009457558e-03   3.007575724018205e+00  4.75157100e-01  -4.64984700e-02  -1.49991270e-01
C     6.194683022170484e+00   7.007950888839140e-01   2.997896856825045e+00 -6.13749890e-01   5.25746720e-01   7.85949700e-02
C     7.423061660382460e+00  -2.306775269726071e-03   3.007657000671564e+00  7.72077010e-01   1.58988670e-01  -1.80485480e-01
C     8.672974615525526e+00   7.077980724421352e-01   2.987696513680060e+00 -3.82287290e-01   9.31042810e-01   1.17261140e-01
C     1.237910684873408e+00   2.142968244479417e+00   2.983433784125645e+00  2.91745050e-01  -6.13321300e-02   2.71560800e-01
C     2.470881514981669e+00   2.864713558397203e+00   3.005340614297032e+00  1.93389270e-01  -2.01786590e-01  -1.58490600e-01
C     3.705544365111979e+00   2.135337076645471e+00   2.994618740854024e+00  6.03768750e-01   7.87355310e-01   1.16595000e-03
C     4.965465759744301e+00   2.864195435145228e+00   2.997798578818776e+00 -9.96509520e-01  -4.09494190e-01   7.71032200e-02
C     6.187258500012682e+00   2.135845550959947e+00   2.992664402518654e+00  3.72562610e-01   3.18413120e-01   2.35885500e-02
C     7.424052103696829e+00   2.868526208471747e+00   2.995762035612034e+00  5.19289230e-01  -2.68098740e-01   8.52287000e-02
C     8.671821541493383e+00   2.160609720247117e+00   2.996972580692689e+00 -8.62107700e-02  -8.69549450e-01   3.69820000e-04
C     9.923199462957985e+00   2.858474174786481e+00   3.010121565766063e+00 -7.02843900e-01   6.19116400e-02  -2.81082630e-01
C     2.470413061160159e+00   4.298211234137549e+00   3.005498305232166e+00  8.66888340e-01  -5.77928960e-01  -4.47681000e-03
C     3.723902228225544e+00   5.005163639857950e+00   2.997221221369868e+00 -8.29164720e-01   1.71703260e-01   7.68653600e-02
C     4.950548681064928e+00   4.300361066771620e+00   3.015037561915196e+00  4.92552320e-01  -6.26416360e-01  -2.81564580e-01
C     6.187380142855222e+00   5.006437705621980e+00   2.990177275255955e+00  5.86495660e-01   1.19715410e-01   2.78709450e-01
C     7.444291635413840e+00   4.297945962887930e+00   3.010445195803301e+00 -9.08815020e-01  -2.60498700e-02  -2.83201510e-01
C     8.673364983285699e+00   5.017082703436421e+00   2.994619757991048e+00  5.60361550e-01  -8.79306320e-01   1.69115400e-01
C     9.917470687159501e+00   4.280447769548589e+00   2.995869702017074e+00 -1.29937470e-01   6.09901480e-01   1.50315200e-01
C     1.115945878617191e+01   4.996950351171616e+00   3.006442108084571e+00 -6.02838340e-01   4.67480980e-01  -1.27622890e-01
C     3.713488723129791e+00   6.431294924880957e+00   2.986033224845237e+00  6.46936610e-01   5.38706060e-01   2.61729630e-01
C     4.962917288190940e+00   7.152321811347839e+00   3.014331091922553e+00 -4.35843950e-01   5.26964700e-02  -3.81227130e-01
C     6.198912008495884e+00   6.436431741811893e+00   2.995567429213155e+00 -2.53488510e-01  -9.73225900e-02   4.77796500e-02
C     7.432959068415155e+00   7.144291395176647e+00   2.993172295745380e+00  2.75076710e-01   2.44153910e-01   1.81358810e-01
C     8.680343207644373e+00   6.431449269164703e+00   3.010842728825062e+00 -3.69295320e-01   5.29641290e-01  -1.86873660e-01
C     9.909714884045924e+00   7.154631216108791e+00   3.009463278310592e+00  4.15984040e-01  -4.49021560e-01  -1.92083400e-02
C     1.115856761153976e+01   6.426760938784318e+00   2.997903753398427e+00 -1.66948750e-01   7.48644350e-01   1.11645450e-01
C     1.239946052143313e+01   7.165595708517960e+00   2.998524684530744e+00 -6.34690980e-01  -1.09255074e+00  -3.94200500e-02
