32
Lattice="9.664 0 0 4.832 8.36926950217281 0 0 0 30 " PBC="1 1 1" Properties=species:S:1:pos:R:3:force:R:3 Energy="-257.06306519"
C     2.106224938376351e-03  -6.744164773186673e-03   3.007146448930182e+00 -2.79141100e-01   8.19191550e-01  -1.41838490e-01
C     1.218253915161843e+00   6.915887562562605e-01   2.993057662626134e+00 -9.31405340e-01   1.72912780e-01   1.04796320e-01
C     2.405913014003734e+00  -3.332955552174751e-03   2.990120817732859e+00  1.10700512e+00  -1.52155120e-01   1.19293630e-01
C     3.623689781464194e+00   7.010927560885424e-01   2.997702091178839e+00 -2.93711680e-01  -3.70319510e-01   6.50404500e-02
C     4.834324939909266e+00   4.787444956323127e-03   3.012354133070997e+00 -1.65740090e-01   1.79848860e-01  -1.38464320e-01
C     6.041977019065116e+00   7.033397729766920e-01   2.996633496377349e+00 -2.14386170e-01  -6.82688720e-01   1.81355240e-01
C     7.239794345006078e+00  -5.185605991338495e-03   3.007955603289688e+00  6.67173720e-01   3.47629540e-01  -4.48348700e-02
C     8.453217921858874e+00   7.030358205233942e-01   3.007744007531906e+00  5.56192400e-02  -1.66607870e-01   7.29612200e-02
C     1.208271936188816e+00   2.085754385153341e+00   3.005120532631619e+00  2.83351270e-01   3.93295930e-01  -1.69266390e-01
C     2.413285030348993e+00   2.798532964198379e+00   2.994352234413372e+00  2.98824600e-02  -8.00278160e-01   1.45419220e-01
C     3.616964306195954e+00   2.093098971756010e+00   3.003785674887605e+00  2.75101050e-01   1.37310080e-01  -8.97513000e-02
C     4.827837141040626e+00   2.789316295368301e+00   3.002444889087479e+00  2.56187810e-01  -9.22963000e-02  -3.69253000e-02
C     6.040873232130544e+00   2.080320807174729e+00   3.000310060471829e+00 -2.75944220e-01   1.12301217e+00  -1.06820300e-01
C     7.245331694153314e+00   2.790558689962429e+00   2.986272413600120e+00 -6.24791600e-02   6.65338700e-02   1.34352350e-01
C     8.448923823613297e+00   2.106096713367835e+00   3.008907575404160e+00  7.82075480e-01  -6.11295960e-01  -1.72481440e-01
C     9.677273019485325e+00   2.796993756857596e+00   2.997413506613339e+00 -8.51405380e-01  -7.87923280e-01   1.66071340e-01
C     2.428820629606648e+00   4.180124441310805e+00   3.002572065112163e+00 -1.07360225e+00   5.21343420e-01  -7.05783000e-02
C     3.623142994836980e+00   4.877268731364903e+00   2.996928632020375e+00  3.91691760e-01   3.36306530e-01  -1.96654700e-02
C     4.831772464060646e+00   4.190408684332506e+00   2.992593308839344e+00 -4.27399300e-02  -6.86226520e-01   6.70750900e-02
C     6.033646199824847e+00   4.878456544793998e+00   2.997966093768633e+00  8.46163560e-01   4.23735230e-01  -1.16527720e-01
C     7.257577287036755e+00   4.183546479651279e+00   2.986186944914262e+00 -7.83523900e-01   1.94687940e-01   1.55039390e-01
C     8.462986774855560e+00   4.879642218455601e+00   3.009888481055109e+00 -8.10615700e-02   2.06496200e-02  -2.13145370e-01
C     9.667782234904131e+00   4.178987938249946e+00   3.005309026825696e+00  1.82094140e-01   3.74841890e-01  -3.04262200e-02
C     1.086869001767814e+01   4.878252462426213e+00   2.999860656834718e+00  5.47100000e-01   6.28122100e-02  -4.29364600e-02
C     3.633623689248040e+00   6.270267038647763e+00   2.995327472767240e+00 -7.56175130e-01   3.78383370e-01   2.20702200e-02
C     4.829215829251075e+00   6.979433315444096e+00   2.988076017943439e+00  4.32445630e-01  -5.10135420e-01   1.62504010e-01
C     6.046322326073573e+00   6.282201395227227e+00   2.999289557786134e+00 -6.90167690e-01  -6.10177160e-01   6.56301000e-03
C     7.243584839927406e+00   6.967252644240078e+00   3.011641953727295e+00  7.39796290e-01   2.49266450e-01  -2.38774900e-01
C     8.464553900528921e+00   6.271583059249653e+00   2.995234022204694e+00 -2.57151590e-01   4.58347660e-01   2.67086620e-01
C     9.671822952167702e+00   6.983628017446874e+00   3.006467915826534e+00 -5.45112180e-01  -4.41783160e-01  -1.24290890e-01
C     1.086523573700286e+01   6.273741824461763e+00   2.987417047869510e+00  5.93298450e-01   6.06276200e-02   2.41246970e-01
C     1.207976515388488e+01   6.973113914291366e+00   3.007394756023588e+00  1.14761410e-01  -4.08849530e-01  -1.54147340e-01
