32
Lattice="9.952 0 0 4.976 8.61868481846273 0 0 0 30 " PBC="1 1 1" Properties=species:S:1:pos:R:3:force:R:3 Energy="-257.89812214"
C     1.203987151952612e-03  -2.767225195080532e-03   3.001242234116899e+00 -1.76803520e-01   2.09673150e-01  -6.32423700e-02
C     1.241756366234993e+00   7.184448747610620e-01   2.999155059967890e+00  1.03004110e-01   1.39000000e-05   5.94717500e-02
C     2.486554696264288e+00   2.316368353455550e-03   3.001825623613224e+00  8.17651500e-02  -3.20634600e-02  -2.94726100e-02
C     3.733175931131098e+00   7.178856813098613e-01   3.000001603555106e+00 -9.34856200e-02   3.25295900e-02   1.96952300e-02
C     4.976022601876634e+00  -2.504834418308954e-03   2.999859942231441e+00  1.95859100e-02   1.99639600e-01  -2.77056500e-02
C     6.220188764030560e+00   7.199770304774710e-01   2.997993636174969e+00 -4.92556000e-03  -2.25874980e-01   1.22430300e-02
C     7.466091323459112e+00   4.483421456164436e-04   3.000143565440142e+00 -1.83411670e-01   1.38378300e-02  -2.70955400e-02
C     8.705153693788345e+00   7.168234881839893e-01   2.997703197684787e+00  2.60064270e-01   5.98178200e-02   5.17972300e-02
C     1.246651791255634e+00   2.155685877987790e+00   3.003885919852787e+00 -1.63159810e-01  -7.20821900e-02  -4.61252300e-02
C     2.484744464436542e+00   2.872811834754931e+00   3.002635438324992e+00  2.15646130e-01   4.76863500e-02  -1.96196800e-02
C     3.730102145311620e+00   2.153972900655110e+00   3.001726394169859e+00  1.40102040e-01   6.91977400e-02   1.64986200e-02
C     4.977702676881443e+00   2.872773116506467e+00   3.004706998105381e+00 -1.92318960e-01   3.52271000e-03  -9.19005400e-02
C     6.219045556420047e+00   2.151157348607916e+00   2.996841421028449e+00  2.04654000e-03   2.09836160e-01   7.96734600e-02
C     7.461913779901669e+00   2.872354119902488e+00   3.002856316577626e+00  2.18064320e-01  -1.07177100e-01  -6.59548700e-02
C     8.708759304986128e+00   2.152835603327085e+00   3.001586151770107e+00 -8.04627000e-03   9.58611600e-02  -2.11210500e-02
C     9.956674002673921e+00   2.874750239622620e+00   3.000743397201810e+00 -2.67431650e-01  -1.80590580e-01   3.16160700e-02
C     2.486365988272250e+00   4.309839728461430e+00   2.997766292443412e+00  4.58827400e-02   5.15772000e-02   7.26531800e-02
C     3.733634495794306e+00   5.029308294175593e+00   3.000033743360850e+00 -1.72674870e-01  -4.68011500e-02  -2.73877600e-02
C     4.974815754387971e+00   4.312157255812635e+00   2.998903963939483e+00  6.12642700e-02  -1.83664270e-01   5.10386900e-02
C     6.217384461630858e+00   5.026956730043334e+00   3.000911954414732e+00  2.48221360e-01   5.46110200e-02  -3.41313600e-02
C     7.467959062754176e+00   4.306085639881700e+00   2.997995040085738e+00 -3.33739440e-01   1.96306150e-01   6.61425600e-02
C     8.705850054959356e+00   5.031336069078880e+00   3.001013683597770e+00  1.07937270e-01  -3.26473860e-01  -3.48532600e-02
C     9.950161260451614e+00   4.306303972670011e+00   3.001970792826810e+00  5.60403200e-02   2.70267350e-01   3.64771000e-03
C     1.119376458677017e+01   5.028198128137498e+00   3.003380669556701e+00  4.44924600e-02  -1.85845500e-02  -5.47258200e-02
C     3.733336044305045e+00   6.464949446953048e+00   2.999488373531763e+00 -1.37721370e-01   1.02278200e-02  -8.61862000e-03
C     4.972475526201347e+00   7.184525863911443e+00   2.996370904631024e+00  2.79866250e-01  -1.63118210e-01   6.54224700e-02
C     6.220394048827200e+00   6.464587284254670e+00   3.000888155005272e+00 -3.46255600e-02   3.43892400e-02  -2.32366200e-02
C     7.466477642865150e+00   7.185569344875613e+00   3.001170040761659e+00 -2.00542830e-01  -1.46487020e-01  -2.09416900e-02
C     8.706162777020451e+00   6.461948948714721e+00   2.996827933559459e+00  9.54069600e-02   2.61529250e-01   4.21687800e-02
C     9.950961656422836e+00   7.184605319502696e+00   2.996980342577829e+00  1.89193300e-02  -2.14094100e-01   2.39007600e-02
C     1.119523685785967e+01   6.465412275293846e+00   2.999691919400584e+00  1.83330200e-02   1.82229000e-02   1.37793400e-02
C     1.244088395578290e+01   7.184391303133691e+00   3.000901116574344e+00 -4.77553300e-02  -1.21735470e-01  -1.36162200e-02
