32
Lattice="9.696 0 0 4.848 8.39698231509392 0 0 0 30 " PBC="1 1 1" Properties=species:S:1:pos:R:3:force:R:3 Energy="-257.43362393"
C    -2.520722666252259e-03  -2.286836839039006e-04   3.001824060021118e+00  1.65277800e-01   1.49015800e-01  -1.94880900e-02
C     1.208083686194331e+00   7.016730639180958e-01   3.001291922654190e+00  2.55191130e-01  -8.24346700e-02   1.32206300e-02
C     2.423203144371669e+00   2.020377545611538e-03   3.004685711400620e+00  3.60283100e-02  -7.53562700e-02  -1.50893200e-02
C     3.639668138927426e+00   7.002957563100841e-01   3.002976459595204e+00 -3.27409360e-01  -2.85936800e-02  -4.88685200e-02
C     4.847001877138585e+00   3.128722355872587e-04   2.996798393958858e+00  1.80803650e-01  -1.12505860e-01   5.66721300e-02
C     6.058895899393700e+00   7.024305359410630e-01   3.001909093429942e+00  1.44610880e-01  -4.28606120e-01  -8.54188700e-02
C     7.274148117042211e+00  -2.146648168745585e-03   2.996164904152541e+00 -1.11748850e-01   1.51906060e-01   5.92641200e-02
C     8.487679591908293e+00   7.019621091097181e-01   3.002854635389252e+00 -3.51950890e-01  -1.33361860e-01  -4.99990200e-02
C     1.214908909147570e+00   2.101743268233990e+00   2.999272305108592e+00 -3.98243100e-01  -1.40078090e-01   1.53157900e-02
C     2.421647985573900e+00   2.797122541014901e+00   3.001534497529724e+00  2.91905310e-01   1.56640840e-01  -5.56754000e-02
C     3.635555871178948e+00   2.098011899481957e+00   2.996901711069996e+00  9.21500500e-02   1.02734630e-01   6.53259000e-02
C     4.851113828744479e+00   2.797191722081117e+00   2.997980567700495e+00 -3.14463980e-01   1.58893400e-02  -6.24400000e-04
C     6.056877867242184e+00   2.094736605531510e+00   2.998070375352003e+00  2.13138510e-01   2.44273070e-01   1.55179200e-02
C     7.269599925854402e+00   2.795432544729489e+00   2.996434734117939e+00 -2.27483500e-02   1.75863000e-01   2.00672200e-02
C     8.481448776599033e+00   2.100878643746583e+00   2.999136027322907e+00  1.32406930e-01  -6.11915300e-02   3.50605000e-03
C     9.694128635521244e+00   2.799492225063096e+00   2.997756650186417e+00  1.06936150e-01   8.86009600e-02   3.33226300e-02
C     2.424588952567189e+00   4.198265883466012e+00   2.997314499208974e+00  8.14554000e-03  -3.75794100e-02   4.48664500e-02
C     3.636707983032470e+00   4.899677781895504e+00   3.001745119839059e+00  2.66231100e-02  -1.28935040e-01  -5.68280000e-03
C     4.849825060705657e+00   4.195822031627390e+00   3.001498387174053e+00 -1.32852530e-01   9.14272600e-02  -3.32488900e-02
C     6.059241707539453e+00   4.895987926051040e+00   2.997990385654572e+00  2.72928000e-03   1.52872080e-01   2.45379900e-02
C     7.270569727850551e+00   4.197622434694929e+00   2.997357571296436e+00  5.16515800e-02  -9.28596300e-02  -1.41771200e-02
C     8.481805372647234e+00   4.900420377889292e+00   2.997684132854031e+00  6.06100900e-02  -2.70826640e-01   3.88245300e-02
C     9.696900885895055e+00   4.199935451738112e+00   3.001710906331181e+00 -1.79598750e-01  -7.50891500e-02  -6.41152600e-02
C     1.090794309126954e+01   4.896142617540837e+00   2.997923615787537e+00  8.18447400e-02   7.89930100e-02   1.54882900e-02
C     3.633451795480920e+00   6.299388024061962e+00   3.003084205604222e+00  1.83133870e-01  -1.22961910e-01  -6.63170300e-02
C     4.845691761113110e+00   7.001100408349338e+00   2.997325178054286e+00  5.09726100e-02  -2.39960600e-01   7.07597000e-02
C     6.057819409289118e+00   6.297645721529506e+00   3.000207372548672e+00  9.15677700e-02   3.73715400e-02  -1.20615400e-02
C     7.275407207796961e+00   6.996112014649714e+00   3.003522025620137e+00 -4.08326900e-01   1.59802430e-01  -7.01673000e-03
C     8.479879232472893e+00   6.294862339788673e+00   3.001460647588971e+00  4.18292810e-01   2.28221220e-01  -2.74451600e-02
C     9.698282735386176e+00   6.997086548788693e+00   2.996742544206675e+00 -1.70689310e-01  -8.68738500e-02   2.05868600e-02
C     1.091092491940693e+01   6.296050955841845e+00   2.997023199382075e+00 -2.78261630e-01  -3.17818600e-02  -1.32033000e-02
C     1.211839598679919e+01   6.993027541222823e+00   2.996549831837035e+00  1.02273530e-01   3.15384940e-01   2.11552600e-02
