32
Lattice="9.836 0 0 4.918 8.51822587162374 0 0 0 30 " PBC="1 1 1" Properties=species:S:1:pos:R:3:force:R:3 Energy="-258.07262787"
C    -1.962700838008371e-04  -3.362940769628545e-04   2.999225111775206e+00 -1.10056400e-02  -2.79919000e-03   1.21024400e-02
C     1.229544957228564e+00   7.086438167751343e-01   3.001153114132323e+00  1.04220000e-03   7.57686300e-02  -1.88206500e-02
C     2.459741096508544e+00   6.327301799886813e-04   3.000421679898229e+00 -6.70043500e-02  -7.05746100e-02  -2.14379000e-03
C     3.687343426584700e+00   7.095855070003665e-01   2.999765888541893e+00  6.98180100e-02   9.42112400e-02   4.00316000e-03
C     4.917236802664371e+00   6.568127797830561e-04   3.000287022214322e+00  3.15699000e-02  -5.95540400e-02  -5.28763000e-03
C     6.148548207677455e+00   7.094221359685016e-01   2.999393006552428e+00 -9.59740100e-02   3.88966200e-02   4.47132000e-03
C     7.377541515861769e+00   1.222018401486725e-03   2.999527560130535e+00 -3.48712100e-02  -8.91365900e-02  -3.60200000e-04
C     8.605693415250270e+00   7.090539265172239e-01   2.999173349590094e+00  7.14192500e-02   5.87899000e-02   1.15570700e-02
C     1.229709050351837e+00   2.129491391841484e+00   2.999903501345524e+00 -3.02837600e-02  -2.33563200e-02   1.37657800e-02
C     2.458348743706686e+00   2.840284561901276e+00   2.999928427794550e+00  2.66759600e-02  -6.50428900e-02  -3.99740000e-04
C     3.687404720658030e+00   2.130769387064544e+00   2.999251373161261e+00  5.41751300e-02  -4.39364000e-02   8.51171000e-03
C     4.918522598687777e+00   2.840186626793416e+00   2.999928829829568e+00 -5.99292000e-02  -2.93577600e-02  -1.41819400e-02
C     6.146912510902877e+00   2.129410450128066e+00   2.999285372684201e+00  4.18228700e-02  -5.72276000e-03  -9.30700000e-05
C     7.376933370473623e+00   2.838748094152390e+00   2.999166834114554e+00 -1.47297200e-02   3.82016300e-02   1.03955700e-02
C     8.605804255830227e+00   2.128722167276597e+00   3.001099112082931e+00  4.12626500e-02   3.56611800e-02  -1.81155900e-02
C     9.836299362394326e+00   2.839971206101480e+00   3.000924808328520e+00 -2.02758100e-02  -8.93481700e-02  -1.25998200e-02
C     2.460086078090350e+00   4.258180843435115e+00   3.000941121644884e+00 -8.19928100e-02   1.04134280e-01  -6.19313000e-03
C     3.687506805427562e+00   4.969660370861662e+00   3.000387210342515e+00  9.97908800e-02  -5.81637900e-02  -3.41619000e-03
C     4.918939926089120e+00   4.259490657629634e+00   2.998873108477265e+00 -5.80274100e-02   3.21357500e-02   1.77365200e-02
C     6.147821487170564e+00   4.969484091460489e+00   2.999888652483576e+00  1.15035500e-02   4.38698000e-03  -1.67805300e-02
C     7.377422116030598e+00   4.259843111464545e+00   2.999251720100705e+00 -4.17666300e-02  -8.35232600e-02   1.05525500e-02
C     8.605686619082023e+00   4.967758386525539e+00   3.000614805201754e+00  7.90846200e-02   3.62476000e-02  -2.46435100e-02
C     9.836765620330949e+00   4.257999310626697e+00   2.998952602993862e+00 -2.17921600e-02   8.92891300e-02   2.79810300e-02
C     1.106625965046156e+01   4.969607743916039e+00   3.000673821200617e+00 -7.60088000e-03  -3.25634600e-02  -1.46388000e-02
C     3.688172706266362e+00   6.388492103407006e+00   3.000421780731946e+00 -2.44199500e-02   3.48405900e-02  -7.26520000e-04
C     4.917205754286360e+00   7.098779856861162e+00   2.999750198879464e+00  5.28776100e-02  -2.97044800e-02  -6.41305000e-03
C     6.148303205858147e+00   6.389191916343730e+00   2.998862354160517e+00 -7.47793300e-02  -1.31650000e-03   1.29678300e-02
C     7.376774828766925e+00   7.098451948486676e+00   2.999462466658522e+00  3.13488300e-02   2.03539500e-02  -6.24720000e-04
C     8.605766516362893e+00   6.387755045194679e+00   2.999310584411980e+00  8.93447000e-03   1.16481000e-03   1.40780100e-02
C     9.834775833769168e+00   7.097791067735070e+00   3.000479718914148e+00  3.02931700e-02   6.22276300e-02  -1.25999000e-02
C     1.106571347144901e+01   6.389877789446998e+00   2.999428311049753e+00 -2.70336600e-02  -4.90750000e-02   1.94638400e-02
C     1.229473689381760e+01   7.099222747007670e+00   3.000530301384283e+00  1.98674300e-02   6.86529000e-03  -9.54801000e-03
