32
Lattice="9.724 0 0 4.862 8.42123102639988 0 0 0 30 " PBC="1 1 1" Properties=species:S:1:pos:R:3:force:R:3 Energy="-257.63436229"
C     2.548929308710944e-03  -1.724852091692650e-03   2.997762083468246e+00 -6.13755400e-02   1.56860700e-01  -2.85152000e-03
C     1.218637914312845e+00   7.030750840689153e-01   2.995631625020648e+00 -2.20210970e-01  -3.11736200e-02   4.75795300e-02
C     2.429452794645772e+00   1.955944122677804e-03   2.998944955687425e+00  1.11204440e-01  -2.56386250e-01  -4.27780400e-02
C     3.644244972122953e+00   6.979661468677132e-01   2.997816489707304e+00  4.83242200e-02   3.85093390e-01  -1.93486000e-03
C     4.859740113038880e+00   1.692168951340002e-03   2.997449982489237e+00  1.17917440e-01  -1.39118540e-01   1.64383300e-02
C     6.077099799910024e+00   7.043162446558059e-01   3.003758964369186e+00  3.36236300e-02  -2.87970210e-01  -3.93427600e-02
C     7.295404823692297e+00   2.885954366800640e-03   3.002979747651997e+00 -1.95459530e-01  -2.81181720e-01  -2.10080400e-02
C     8.508135241244535e+00   7.036248388518865e-01   3.001209992605752e+00  1.51829810e-01  -2.39394930e-01  -1.62800500e-02
C     1.217048765706445e+00   2.106480147692933e+00   3.001072535192248e+00  1.10924500e-02   3.58096000e-02  -7.38757200e-02
C     2.432224840750946e+00   2.810879987114788e+00   2.997931772146609e+00 -4.71408200e-02  -2.30485430e-01   4.01100400e-02
C     3.644024567218647e+00   2.107807084276047e+00   2.997724548161255e+00  1.78393560e-01  -2.26176360e-01  -1.68328000e-03
C     4.862785898541993e+00   2.806475127639875e+00   2.997496249582275e+00 -5.90331300e-02  -7.75917000e-02   7.06999000e-03
C     6.079149180072367e+00   2.101192921647213e+00   3.000609016035546e+00 -1.26296620e-01   3.27346200e-01   8.63390000e-03
C     7.292267274641168e+00   2.805511190877555e+00   3.000808461337575e+00  4.09808700e-02   1.17588170e-01   3.89299000e-03
C     8.504386621128289e+00   2.101935270341673e+00   2.999277510882185e+00  4.00788340e-01   3.38603580e-01   2.66370000e-03
C     9.728224725432536e+00   2.807269193234614e+00   2.996639652143846e+00 -3.85007170e-01  -1.36018400e-02   7.38319000e-02
C     2.434141864713342e+00   4.208682886452765e+00   3.002054503429497e+00 -3.64059810e-01   2.03882240e-01  -3.45839800e-02
C     3.644026524306239e+00   4.908363295368374e+00   3.001115626154952e+00  2.51787820e-01   2.20416130e-01   7.53250000e-04
C     4.861029231489946e+00   4.208945102199245e+00   2.997726810889253e+00  1.47527610e-01   9.31695000e-03  -1.24046000e-03
C     6.080940260611562e+00   4.909039308428672e+00   2.997013791727429e+00 -2.15283490e-01   2.78261350e-01   5.90946600e-02
C     7.294735049711985e+00   4.213056442483364e+00   3.001918011304817e+00  1.00504780e-01  -1.90271980e-01  -3.12033200e-02
C     8.512050394068014e+00   4.916374850652455e+00   3.002323141949839e+00 -2.27476520e-01  -1.00084040e-01   9.68919000e-03
C     9.723598753874482e+00   4.214258201081829e+00   3.004131460121030e+00  6.17974900e-02  -2.67230510e-01  -6.42342000e-02
C     1.093695441005642e+01   4.911835674919591e+00   2.999991034146650e+00  2.48150640e-01   2.99429900e-02   6.48043800e-02
C     3.647951594774036e+00   6.314267790157079e+00   3.002415971863455e+00 -8.42803200e-02  -3.64824600e-02  -4.59790200e-02
C     4.865009474934492e+00   7.016468426360055e+00   2.998854366408727e+00 -1.23825870e-01   5.27316100e-02   3.78812300e-02
C     6.079748977556202e+00   6.318453092378385e+00   3.002985456525429e+00  3.63562200e-02  -3.34730850e-01  -7.77209100e-02
C     7.295142858134693e+00   7.016046702387779e+00   2.997100926980143e+00 -1.52550690e-01   2.51306220e-01   5.01458900e-02
C     8.508793985167541e+00   6.318781693599545e+00   2.999234584828800e+00  2.66497500e-02  -1.32747170e-01  -2.08655700e-02
C     9.722257028150338e+00   7.016665160757598e+00   2.995996474568150e+00  7.89358900e-02   2.32657980e-01   5.20696800e-02
C     1.093586245604622e+01   6.315154767716659e+00   3.003209094919488e+00  1.68117400e-01  -1.47434900e-02  -7.95995200e-02
C     1.215450915743265e+01   7.014628982259185e+00   2.997756784971454e+00  4.80181200e-02   2.19553980e-01   8.05226200e-02
