32
Lattice="9.988 0 0 4.994 8.64986173299897 0 0 0 30 " PBC="1 1 1" Properties=species:S:1:pos:R:3:force:R:3 Energy="-257.72824497"
C    -2.542757290451829e-03  -2.758409939933700e-03   3.003445350132979e+00  1.92788810e-01   1.11491280e-01  -8.19678600e-02
C     1.249976192669378e+00   7.223790863033663e-01   2.997933707630247e+00 -1.24242090e-01  -9.18525100e-02   1.69496400e-02
C     2.496779916585181e+00  -1.689274727007263e-03   2.996665407078028e+00  6.44321500e-02   1.86878250e-01   5.42085100e-02
C     3.746482024350866e+00   7.245198210546231e-01   3.001406016299698e+00 -1.98440190e-01  -1.14005970e-01  -5.79668400e-02
C     4.989797746927502e+00   3.864111647258712e-03   2.997895647270612e+00  2.49981930e-01  -8.75400800e-02   3.66856400e-02
C     6.239478757499889e+00   7.235171890925771e-01   2.999569501584525e+00  1.22326300e-01  -6.06818800e-02   2.86813000e-03
C     7.493558899409252e+00  -4.549701202023484e-04   3.004103030985798e+00 -3.08412070e-01  -1.05047100e-02  -5.41411100e-02
C     8.738061441521598e+00   7.171414550692613e-01   3.000920135789756e+00  7.51585500e-02   1.22275210e-01   4.55266000e-02
C     1.250636901569446e+00   2.166794817881933e+00   2.997623965832579e+00 -2.69493540e-01  -2.26725260e-01   3.17636100e-02
C     2.492403924842212e+00   2.884953626814222e+00   3.000135929408768e+00  2.79824630e-01   6.47619400e-02  -1.01568000e-03
C     3.742884397399683e+00   2.162480882897997e+00   2.999996280951643e+00  3.29219400e-02   1.43803100e-01  -2.95524000e-03
C     4.992851200613205e+00   2.886139832177566e+00   2.997754968749635e+00 -1.03257130e-01  -4.30602900e-02   3.46614000e-03
C     6.239207189149143e+00   2.164834376968635e+00   2.996870940030886e+00  9.12889600e-02  -3.08581500e-02   8.90921000e-03
C     7.490426032448029e+00   2.884779694754855e+00   2.996414010393424e+00 -6.63872400e-02  -1.46462890e-01   4.16178700e-02
C     8.738117784781457e+00   2.160963189590936e+00   3.001199795743149e+00 -3.27313300e-02  -3.81562800e-02  -3.09087500e-02
C     9.983536386672107e+00   2.879729844497989e+00   3.000547136748877e+00  1.72729160e-01   1.92885190e-01  -3.13638200e-02
C     2.499359464532921e+00   4.327334365280858e+00   3.002245268175526e+00 -2.38783180e-01  -6.30649800e-02  -3.65298400e-02
C     3.743976941694120e+00   5.046732169999278e+00   2.996893854386098e+00  9.05898100e-02   2.65325200e-02   3.35745500e-02
C     4.990862559411847e+00   4.327006939715802e+00   2.997674134637263e+00  1.63003720e-01   1.87691800e-02   1.75801400e-02
C     6.243278198295299e+00   5.048886901018249e+00   3.003346191915567e+00 -1.37725790e-01  -1.39442600e-01  -7.62104600e-02
C     7.488051149220851e+00   4.320888267171150e+00   3.000259675559260e+00  2.11422700e-01   3.43652520e-01   2.48739300e-02
C     8.742506647950597e+00   5.048705057967734e+00   3.003857611207051e+00 -2.33435970e-01  -2.57485850e-01  -7.61013000e-02
C     9.987777487318604e+00   4.325568403665962e+00   2.996971989329011e+00 -1.27934500e-02  -1.01018150e-01   8.13071100e-02
C     1.123540106527070e+01   5.044840971740476e+00   3.001965977359818e+00  8.28501700e-02   1.13306290e-01  -4.36756600e-02
C     3.748193395693705e+00   6.487164552197148e+00   2.998115869323397e+00 -2.20483490e-01  -2.29494100e-02  -1.15264000e-02
C     4.994538723348872e+00   7.204487868542741e+00   2.995775330924082e+00 -6.72652000e-02   2.15700790e-01   5.76416500e-02
C     6.239827853694162e+00   6.490215436791495e+00   2.997792469897754e+00  2.94393370e-01  -1.08720120e-01   4.19656600e-02
C     7.493491324270670e+00   7.210161671578280e+00   3.001944987123509e+00 -1.42130650e-01  -1.34605410e-01  -6.28241000e-02
C     8.740145232850272e+00   6.484728714766928e+00   2.999250027797247e+00  1.22096790e-01   2.53652140e-01   5.67900000e-02
C     9.992383349770446e+00   7.210719830973670e+00   2.999852808035551e+00 -3.00097130e-01  -2.32065100e-02  -2.33696000e-02
C     1.123625952813012e+01   6.490716773768868e+00   2.999092756295518e+00  2.35549900e-02  -1.84162990e-01   2.79172300e-02
C     1.248373850815418e+01   7.207047246488004e+00   3.000606847200742e+00  1.86314450e-01   9.07956300e-02   6.91105000e-03
