32
Lattice="9.628 0 0 4.814 8.33809258763658 0 0 0 30 " PBC="1 1 1" Properties=species:S:1:pos:R:3:force:R:3 Energy="-256.78690852"
C    -1.540602705441969e-04  -1.141095559990266e-03   3.000119537584254e+00 -1.15751500e-02   6.16146600e-02  -1.80633000e-02
C     1.203344320999032e+00   6.946493742693391e-01   2.999591615914156e+00 -4.11658600e-02   1.43605500e-02   4.09940000e-04
C     2.406289089262129e+00   2.870852160060475e-04   2.999517768799535e+00  1.48345300e-02  -7.15787000e-03   1.93802000e-03
C     3.609938753251173e+00   6.951326181051902e-01   3.000070145020925e+00  4.05289000e-03  -4.06236700e-02  -5.75501000e-03
C     4.813120433928446e+00   3.268253788665164e-05   2.999240446756612e+00  7.77317700e-02   6.69278700e-02   6.02153000e-03
C     6.018186801700795e+00   6.956930674990978e-01   2.999986128067578e+00 -3.45505500e-02  -8.21670700e-02  -7.36072000e-03
C     7.221834173495256e+00  -1.011793336839190e-03   3.000012627338923e+00 -8.63259500e-02   4.73630600e-02  -8.75416000e-03
C     8.423453644616059e+00   6.946680394122414e-01   2.999028849913995e+00  9.91139000e-02  -2.61028200e-02   1.42377600e-02
C     1.202602574051885e+00   2.084756012867855e+00   2.999340510885455e+00  4.14427900e-02  -4.13888400e-02   7.14586000e-03
C     2.406053918262134e+00   2.778690972919277e+00   2.999638531868003e+00  4.84121600e-02   6.33867900e-02   3.26186000e-03
C     3.610422464475390e+00   2.083805242854764e+00   3.000337958987592e+00 -2.76129400e-02   6.11251000e-02  -5.67719000e-03
C     4.813959249094173e+00   2.779376800663943e+00   2.999727750611243e+00  8.59677000e-03  -4.86005000e-02  -4.23188000e-03
C     6.018206785352841e+00   2.084715716967703e+00   2.999187152726595e+00 -1.13854100e-02   2.62618300e-02   9.09195000e-03
C     7.221483210898284e+00   2.780482370328633e+00   3.000000020125337e+00  2.38346200e-02  -7.06656800e-02   3.55780000e-04
C     8.425437574793918e+00   2.084141910971123e+00   3.000161615915200e+00 -9.10088400e-02   2.18838800e-02  -3.75543000e-03
C     9.627825603133655e+00   2.779211946540963e+00   3.000665677958288e+00  2.02256000e-03  -8.00151000e-03  -2.66653000e-03
C     2.407085699245609e+00   4.170138451358544e+00   3.000106409041476e+00 -4.38916200e-02  -1.17140200e-01  -1.57458000e-03
C     3.609494102477916e+00   4.863565628948835e+00   3.000844497163139e+00  7.66101700e-02   7.06197000e-03  -8.18190000e-03
C     4.813774404028616e+00   4.167908269912997e+00   2.999391455614266e+00 -2.02950100e-02   9.11535500e-02   1.70119900e-02
C     6.016458116500364e+00   4.865076044579493e+00   3.001132686814299e+00  7.32371000e-02  -1.31858970e-01  -1.39982900e-02
C     7.221722721851176e+00   4.169291367629510e+00   3.000637758384107e+00 -1.20017900e-01   2.95882500e-02   4.45580000e-04
C     8.423703825649929e+00   4.863389149706992e+00   3.000057928968848e+00  8.66436000e-02   3.77731700e-02   9.95944000e-03
C     9.627654894644662e+00   4.167952743087634e+00   3.001162950342975e+00  1.47129000e-03   6.69386200e-02  -1.47569200e-02
C     1.083135884129089e+01   4.863896971845588e+00   2.999575263951306e+00 -3.89003600e-02  -3.60320700e-02   1.65640000e-02
C     3.609921705619862e+00   6.253297184681399e+00   3.000799164677420e+00  6.84969500e-02  -7.33278000e-03  -1.29351600e-02
C     4.814569850164483e+00   6.948119749531775e+00   2.998827832729424e+00 -4.58903600e-02  -3.14986400e-02   2.18471300e-02
C     6.018215853688251e+00   6.253014359563246e+00   3.000199022526689e+00 -7.54312700e-02   5.35110400e-02  -3.36194000e-03
C     7.219858001117032e+00   6.948800909957526e+00   2.999729268886077e+00  1.04601980e-01  -2.78381900e-02  -3.36330000e-04
C     8.424492956633554e+00   6.253364619077993e+00   2.999641048666433e+00 -2.41495200e-02   4.30115900e-02  -2.45856000e-03
C     9.628122703818116e+00   6.949548785727676e+00   2.999067952350078e+00 -2.41836500e-02  -9.58752500e-02   9.15447000e-03
C     1.083105051327793e+01   6.252466547814958e+00   3.000573828219001e+00  1.75252700e-02   9.14100500e-02  -1.65127000e-02
C     1.203537913231709e+01   6.947723617938731e+00   2.999799625530550e+00 -5.22439700e-02  -1.10878900e-02   1.29352800e-02
