32
Lattice="9.636 0 0 4.818 8.34502079086685 0 0 0 30 " PBC="1 1 1" Properties=species:S:1:pos:R:3:force:R:3 Energy="-256.87701293"
C     1.125074882183947e-03   1.137824882643151e-04   3.001138696623156e+00 -4.17414000e-02  -3.26207400e-02  -9.95803000e-03
C     1.205017491728761e+00   6.958947279773589e-01   2.999316059594853e+00  2.57951400e-02  -8.17014700e-02   1.39953200e-02
C     2.410147345161556e+00  -1.189491315212143e-03   2.999404934510982e+00 -6.18647200e-02   1.12580320e-01  -3.26510000e-04
C     3.613342912801562e+00   6.960914326975052e-01   2.999271723344712e+00  4.52069600e-02  -2.04609300e-02   3.90920000e-04
C     4.818874450704558e+00   1.164512231315328e-03   2.999190195959544e+00 -7.37100900e-02  -8.59014900e-02   1.00192900e-02
C     6.022734477470934e+00   6.942355467481852e-01   2.999726750219889e+00 -1.03268900e-02   1.50077930e-01  -4.63434000e-03
C     7.225901881579556e+00   1.100076999223594e-03   2.999846177272334e+00  1.43938030e-01  -9.94590800e-02   3.59304000e-03
C     8.432581586332036e+00   6.961081103590215e-01   3.000882390920284e+00 -5.50619700e-02  -7.60905400e-02  -5.14256000e-03
C     1.203712655500384e+00   2.085231248862827e+00   3.000242689215800e+00  5.14059200e-02   9.29782000e-02  -1.34423800e-02
C     2.408200144990578e+00   2.782235809779149e+00   2.999779441259107e+00  1.87984300e-02  -2.92755200e-02   1.27841800e-02
C     3.613567232355614e+00   2.087309307662450e+00   3.000052265958971e+00 -8.51239500e-02  -6.06842500e-02  -7.62267000e-03
C     4.817056137859375e+00   2.780850257143524e+00   3.000108893187953e+00  8.91180900e-02   5.44743800e-02   6.75043000e-03
C     6.022558789428884e+00   2.086586700794812e+00   2.999762702523610e+00 -4.96608000e-03  -5.00682600e-02   4.66605000e-03
C     7.227360880507627e+00   2.781425229062606e+00   3.000298513917538e+00 -5.99812000e-03  -2.20984000e-03  -9.63234000e-03
C     8.432144178565720e+00   2.085481845866001e+00   2.999700262026528e+00 -1.85777900e-02   7.02152100e-02   6.58549000e-03
C     9.636006102139918e+00   2.782123277951134e+00   2.999406614273626e+00 -3.25605000e-03  -7.26962100e-02   8.89663000e-03
C     2.409131870738829e+00   4.172811353836775e+00   3.000952762309030e+00 -4.66443700e-02   9.52131000e-03  -1.38234500e-02
C     3.613169614294535e+00   4.868260169661231e+00   2.999256694382705e+00  3.84275800e-02  -3.24491900e-02   1.43972000e-02
C     4.817994686022113e+00   4.171745406413037e+00   3.001007884741288e+00 -9.24312000e-03   5.92476600e-02  -1.71075300e-02
C     6.022335759369861e+00   4.868724217810284e+00   2.999799514117971e+00  3.04766000e-02  -7.77197600e-02  -2.12224000e-03
C     7.227974844221282e+00   4.172281119381926e+00   2.999593299377947e+00 -6.32777600e-02   4.55109400e-02   9.84377000e-03
C     8.431673782297587e+00   4.868760968422997e+00   3.000869683477013e+00  2.48633000e-02  -4.22774000e-02  -1.46018700e-02
C     9.636230512674016e+00   4.171509845254373e+00   3.000234315257032e+00 -2.53207900e-02   1.01667990e-01   5.43184000e-03
C     1.083988679798398e+01   4.868489112289982e+00   3.000950714963191e+00  4.05659100e-02  -7.72598700e-02  -7.02223000e-03
C     3.613535494135930e+00   6.259015077646595e+00   2.998952248360031e+00  1.62029600e-02  -2.27957800e-02   5.77203000e-03
C     4.818096540023709e+00   6.953290703350904e+00   3.000275981896858e+00 -7.46014000e-03   9.01701700e-02  -8.53629000e-03
C     6.022171533686030e+00   6.259410622254840e+00   2.998912418734635e+00  4.72198000e-03  -4.64898600e-02   1.41308900e-02
C     7.226060051846545e+00   6.954627304314275e+00   3.000035300756275e+00  7.88999200e-02  -4.23819200e-02  -1.09423300e-02
C     8.431672584064220e+00   6.259593583298661e+00   2.999970459972712e+00 -1.11606700e-02  -1.24413900e-02   1.52399900e-02
C     9.636747137912900e+00   6.954208669292013e+00   3.001027970150016e+00 -2.31393100e-02   4.35103700e-02  -1.98794700e-02
C     1.084090212900164e+01   6.257919376106334e+00   2.999673708599360e+00  1.37583000e-03   7.16878100e-02   1.22590800e-02
C     1.204588115177251e+01   6.953823329461993e+00   2.999250863054530e+00 -6.29234300e-02   6.33412000e-02   3.80700000e-05
