32
Lattice="9.948 0 0 4.974 8.6152207168476 0 0 0 30 " PBC="1 1 1" Properties=species:S:1:pos:R:3:force:R:3 Energy="-257.91345764"
C     8.725401373573642e-04   3.014191278153203e-03   3.002191204293442e+00  1.43307700e-02  -1.41169400e-01  -1.03510500e-02
C     1.245063296064455e+00   7.201734021876520e-01   3.003045066531482e+00 -5.54967200e-02  -2.84996800e-02  -7.41008900e-02
C     2.488734693907997e+00   3.409652758459943e-04   2.996705885672030e+00 -1.48340350e-01   4.49491200e-02   8.69475300e-02
C     3.728551654242237e+00   7.153558743541704e-01   3.002230234490568e+00  1.43411460e-01   2.37564730e-01  -5.17628400e-02
C     4.972853421395963e+00  -3.201871584778853e-04   2.997241491076932e+00  1.24285910e-01   7.88863300e-02   5.84311900e-02
C     6.217446246084902e+00   7.214152711919474e-01   3.002481480983652e+00 -1.10003700e-02  -1.27465430e-01  -3.43977800e-02
C     7.462311322341267e+00  -4.079160995118366e-03   3.003212227306472e+00 -1.27461830e-01   3.20925020e-01  -7.13647200e-02
C     8.703551657358782e+00   7.142000408450339e-01   2.996841728565247e+00  5.88398200e-02   2.70742340e-01   6.97085300e-02
C     1.243343533392733e+00   2.155080994319224e+00   2.996619564062801e+00 -1.21963050e-01   4.01541000e-03   5.39982700e-02
C     2.483340662508378e+00   2.871738909806234e+00   2.995145504092357e+00  1.77060660e-01   5.41567400e-02   4.72431800e-02
C     3.730422990383484e+00   2.156337907811704e+00   3.003008183906280e+00 -2.12956100e-02  -1.78670400e-01  -4.51168800e-02
C     4.977200937503642e+00   2.870331860191024e+00   3.000897947874157e+00 -2.43782420e-01   1.57177170e-01   8.35500000e-04
C     6.216863904849468e+00   2.158469438174175e+00   2.999357545747783e+00  1.37099480e-01  -2.18922530e-01   7.04748000e-03
C     7.462019292406477e+00   2.874763655714121e+00   2.995854682298581e+00 -6.50285600e-02  -6.08354600e-02   5.08141900e-02
C     8.701463439560211e+00   2.156233111440077e+00   2.998373008129881e+00  1.46016410e-01  -1.46805200e-01  -4.59826000e-03
C     9.946229299337382e+00   2.876264596613118e+00   3.002498460671818e+00  8.82025000e-03  -1.81071740e-01  -4.74968700e-02
C     2.483568383059161e+00   4.307596779118090e+00   2.997018538788965e+00  8.87837100e-02  -7.87087000e-03   3.13570500e-02
C     3.730562851562029e+00   5.021150455662487e+00   3.002021179958581e+00 -5.67529400e-02   2.29682020e-01  -3.88819300e-02
C     4.973597550940821e+00   4.308040530618705e+00   2.999571747287644e+00  5.64410500e-02  -9.67965900e-02   9.06107000e-03
C     6.217867302742947e+00   5.024819163912420e+00   2.998106180487353e+00  2.56354900e-02  -1.19935300e-02   1.35704800e-02
C     7.463270309673716e+00   4.307711915850905e+00   2.999915314190334e+00 -1.16273290e-01   3.05322500e-02  -5.56817000e-02
C     8.703869019429428e+00   5.024050865599251e+00   2.996567370610354e+00  3.05154600e-02   1.92815780e-01   6.72286800e-02
C     9.946582083790508e+00   4.310490292003128e+00   3.002598283013461e+00  6.92143400e-02  -6.61880700e-02  -3.68987100e-02
C     1.119082630672004e+01   5.026951605157267e+00   3.000913530999630e+00 -3.60700000e-02   7.81993000e-02  -2.27953800e-02
C     3.732340545173018e+00   6.461630994902351e+00   3.002021805943530e+00 -1.02289470e-01  -5.83328700e-02  -1.38491100e-02
C     4.974188121020889e+00   7.179471965051644e+00   3.002901305053447e+00  8.84576000e-02  -1.93307600e-02  -2.19104400e-02
C     6.219084439479767e+00   6.457616294772840e+00   2.998188361853826e+00 -1.78827700e-02   2.53493380e-01   4.48193800e-02
C     7.462305142884918e+00   7.183246209555192e+00   3.001088002272962e+00  2.79539300e-02  -2.94355900e-01  -5.43421600e-02
C     8.707267616007865e+00   6.461393482688980e+00   2.999235113703558e+00 -1.12103490e-01   3.55828700e-02  -1.90618100e-02
C     9.952034811141983e+00   7.178183407806739e+00   2.997276207642453e+00 -2.38455100e-01   1.13025760e-01   9.70065000e-03
C     1.118921579512183e+01   6.464735751308725e+00   2.998422619756314e+00  2.64990810e-01  -1.50803290e-01  -1.70756000e-03
C     1.243522276802583e+01   7.183162385082252e+00   2.997771743638495e+00  1.23387900e-02  -3.12636510e-01   5.35549000e-02
