32
Lattice="10.068 0 0 5.034 8.71914376530173 0 0 0 30 " PBC="1 1 1" Properties=species:S:1:pos:R:3:force:R:3 Energy="-257.17830752"
C    -3.144812066259414e-04   3.531467283452955e-04   3.001132691730363e+00  1.75851900e-02  -6.08971500e-02  -2.04009600e-02
C     1.257431979524235e+00   7.272923457261373e-01   3.000837521084368e+00  2.70553100e-02  -3.11266800e-02  -5.87892000e-03
C     2.515879446048291e+00   7.995939709351500e-04   3.000969929619969e+00  3.52692500e-02  -5.10902800e-02  -9.91817000e-03
C     3.776059646167702e+00   7.253432473069915e-01   3.001211178582023e+00 -5.46151000e-02   3.91880000e-02  -6.99743000e-03
C     5.033605887764381e+00  -1.019989361460494e-03   2.999734815395745e+00  1.76852500e-02   1.15373100e-02   1.41133900e-02
C     6.291253946375751e+00   7.271911048669266e-01   3.001147265890495e+00  7.78048800e-02  -3.85170700e-02  -2.70246800e-02
C     7.551806973787599e+00  -3.901777988509872e-04   2.999694296400296e+00 -7.76094800e-02   1.15442200e-02   7.20447000e-03
C     8.810216750018879e+00   7.255538584934591e-01   3.000115968101445e+00 -3.86368600e-02   3.39903700e-02   5.07486000e-03
C     1.257649822893067e+00   2.179257546824999e+00   2.998854785569749e+00  3.22794600e-02   5.24477700e-02   2.17313100e-02
C     2.516577616585199e+00   2.906976609205853e+00   3.000853795308275e+00  2.52847600e-02  -8.44060800e-02  -1.84802300e-02
C     3.776026963183981e+00   2.179001646935941e+00   3.001222427765300e+00 -3.33995000e-02   2.06829900e-02   1.25049000e-03
C     5.033718104326351e+00   2.906389194931578e+00   3.000663305828785e+00  2.47869700e-02  -1.71535100e-02  -1.85962000e-03
C     6.292962454575392e+00   2.180344608054422e+00   2.999280520812453e+00 -2.83254400e-02  -3.52837400e-02   2.33024500e-02
C     7.551662204021278e+00   2.905312074163671e+00   3.000279111896193e+00 -1.81050000e-02   5.70111300e-02  -1.40130100e-02
C     8.809312811778859e+00   2.179117303011421e+00   3.000123405282152e+00  2.56913800e-02   5.59635000e-03  -2.15520000e-03
C     1.006819355667699e+01   2.906502112022906e+00   2.999131412244427e+00 -3.46623700e-02  -4.29760200e-02   1.24973000e-03
C     2.517333657247812e+00   4.358588096632539e+00   2.999030199936776e+00 -3.51531900e-02   6.23151500e-02   2.26806300e-02
C     3.775490363260950e+00   5.085858205714286e+00   3.001205794055782e+00  2.09374200e-02   5.63820000e-03  -1.66802700e-02
C     5.034536823227556e+00   4.358467903106976e+00   3.001007507082534e+00 -1.98168600e-02   7.31474900e-02  -8.30188000e-03
C     6.293626043359435e+00   5.086995915043218e+00   2.999129294300881e+00 -5.77020000e-02  -7.62712100e-02   5.78705000e-03
C     7.551385583169607e+00   4.360343356227054e+00   2.998996017890389e+00 -7.31029000e-03  -6.52649600e-02   1.10933300e-02
C     8.808496015551457e+00   5.085494842367306e+00   2.999979778378483e+00  4.20207700e-02   3.22787700e-02  -5.64129000e-03
C     1.006765350293484e+01   4.358395094702662e+00   2.999246529146667e+00  1.04311000e-03   5.86957100e-02   2.74046000e-03
C     1.132572371113882e+01   5.085906835217144e+00   2.999276519861360e+00  1.99989100e-02  -1.20414000e-03  -5.61898000e-03
C     3.774751850993914e+00   6.540415395199995e+00   2.999963696698578e+00  3.09709000e-03  -8.63732000e-02  -3.97876000e-03
C     5.033296360654128e+00   7.264974272822901e+00   2.998792748082174e+00  1.33592100e-02   5.62641700e-02   2.03965600e-02
C     6.291815492258539e+00   6.538137924266343e+00   2.998928477727610e+00  2.55007900e-02   5.78793500e-02  -4.52651000e-03
C     7.550997339861656e+00   7.265449488221402e+00   2.998824529588626e+00 -5.30102500e-02   4.58600500e-02   2.09858000e-02
C     8.808358594464803e+00   6.539626273720836e+00   3.000566682619407e+00  3.94108000e-02  -4.52747000e-02  -1.74763300e-02
C     1.006788970897466e+01   7.264847449914527e+00   2.999530268602405e+00 -4.03925900e-02   4.63673100e-02   4.97513000e-03
C     1.132527688117327e+01   6.540147146111993e+00   2.999126335811649e+00  2.98864100e-02  -8.61658800e-02   3.81083000e-03
C     1.258394768044171e+01   7.265363216434572e+00   2.999358684895594e+00  2.00419900e-02   5.15602800e-02   2.55576000e-03
