2
Lattice="2.418 0 0 1.209 2.09404942635077 0 0 0 30 " PBC="1 1 1" Properties=species:S:1:pos:R:3:force:R:3 Energy="-16.07756225"
C     0.000000000000000e+00   0.000000000000000e+00   3.000000000000000e+00  0.00000000e+00  -0.00000000e+00  -0.00000000e+00
C     1.209000000000000e+00   6.980164754502575e-01   3.000000000000000e+00 -0.00000000e+00   0.00000000e+00   0.00000000e+00
