32
Lattice="9.952 0 0 4.976 8.61868481846273 0 0 0 30 " PBC="1 1 1" Properties=species:S:1:pos:R:3:force:R:3 Energy="-257.81322639"
C    -7.595719552418753e-04  -4.004596981159771e-03   3.003882761198878e+00  1.92465960e-01   4.53581030e-01  -1.03947830e-01
C     1.236891510916101e+00   7.282239249949678e-01   3.000323271950040e+00  1.44805830e-01  -2.89745850e-01   4.44191500e-02
C     2.480001850800406e+00   9.072349134113384e-03   2.989833576068013e+00  3.18826230e-01  -2.02726720e-01   2.17797060e-01
C     3.733537139961548e+00   7.282392734250965e-01   3.003153565981476e+00 -3.90653400e-02  -3.97072260e-01  -1.95015120e-01
C     4.981244442686837e+00   9.195375281635335e-03   2.990742041452830e+00 -2.90982670e-01  -6.37749140e-01   1.08634900e-01
C     6.228589349078045e+00   7.113780534403948e-01   2.990035701533669e+00 -7.11507510e-01   6.87423730e-01   6.73079900e-02
C     7.453791030585494e+00   6.232058012298159e-03   3.000342965794429e+00  1.04642014e+00  -6.13851020e-01  -2.73319300e-02
C     8.716963419334506e+00   7.144065036347729e-01   2.999150533136297e+00 -7.61493200e-01   2.91701570e-01   1.08322810e-01
C     1.235441818608698e+00   2.160266707447372e+00   3.011372224623311e+00  5.63650730e-01  -1.04817770e-01  -1.50805510e-01
C     2.495922199124576e+00   2.864668694193784e+00   2.995286891924001e+00 -5.25839010e-01   5.45879020e-01   1.17922460e-01
C     3.736444529711550e+00   2.157284786035111e+00   2.996253893508591e+00 -2.02034700e-02   4.01348000e-02   5.93810300e-02
C     4.982663470825318e+00   2.874601905882876e+00   3.003828125448621e+00 -4.32853810e-01  -8.11726800e-02  -5.59298900e-02
C     6.207464455633183e+00   2.156252428946762e+00   2.996035166021801e+00  7.82228860e-01  -1.14153510e-01   5.36506600e-02
C     7.452567280783164e+00   2.883067427580868e+00   3.006145993900063e+00  3.54436300e-01  -5.95284890e-01  -1.15132110e-01
C     8.705579150624022e+00   2.154578102951290e+00   3.009066213349973e+00 -2.21286600e-02   6.41942400e-02  -5.28583600e-02
C     9.953446982262955e+00   2.876054984188220e+00   3.007224764570656e+00 -4.96060190e-01  -4.22960300e-02  -3.34734600e-02
C     2.482341357124697e+00   4.308807007934323e+00   3.000294861431512e+00  2.35050110e-01   2.33268190e-01  -6.95444300e-02
C     3.734163698705220e+00   5.039045538859873e+00   2.994236283402984e+00 -8.57853400e-02  -6.34526960e-01   1.17104660e-01
C     4.984596833021906e+00   4.304445415870841e+00   3.008662433070530e+00 -7.23685250e-01   4.73699120e-01  -1.82554490e-01
C     6.207134187029189e+00   5.030132598003939e+00   2.992838327033230e+00  8.51631190e-01  -2.09986150e-01   1.50030180e-01
C     7.464458243021746e+00   4.311032055292776e+00   2.991004320625745e+00 -5.11173370e-01   1.62363100e-01   1.61951350e-01
C     8.701865166267485e+00   5.026738077025475e+00   3.003421709800839e+00  1.56988500e-02   5.86497600e-02  -1.96048880e-01
C     9.940643605061922e+00   4.307394534146746e+00   2.990450421231630e+00  3.59120890e-01   2.57413430e-01   1.88756350e-01
C     1.118487525325379e+01   5.031920672926420e+00   2.997890355520070e+00  1.79534910e-01  -1.85339340e-01  -5.15458200e-02
C     3.735711162516087e+00   6.471485882722136e+00   2.993766177040892e+00  5.20924600e-02  -5.83316200e-02   2.79029600e-02
C     4.982952398825472e+00   7.194045778657260e+00   2.990670706615699e+00 -5.92116600e-02  -6.94992710e-01   1.72059790e-01
C     6.225176581159417e+00   6.458487197119224e+00   3.008582859514479e+00 -4.01150850e-01   4.79282750e-01  -1.81718380e-01
C     7.464471956033058e+00   7.179444953621802e+00   3.008090214026941e+00 -8.56789500e-02   3.75725470e-01  -1.64293420e-01
C     8.702681903918993e+00   6.462907870547417e+00   2.994465323887944e+00  2.50419880e-01   6.82730000e-03   1.55443400e-01
C     9.952514932174486e+00   7.175126203835268e+00   2.998999926105178e+00 -4.45690790e-01   8.55493280e-01  -1.02406570e-01
C     1.118530880463219e+01   6.474086839456189e+00   2.996185891964869e+00  6.30324390e-01  -6.50000970e-01   8.34486400e-02
C     1.244217433246827e+01   7.178281156753049e+00   3.006550938497240e+00 -3.64196680e-01   5.26410840e-01  -1.51527200e-01
