2
Lattice="2.46 0 0 1.23 2.13042249330972 0 0 0 30 " PBC="1 1 1" Properties=species:S:1:pos:R:3:force:R:3 Energy="-16.12986616"
C     0.000000000000000e+00   0.000000000000000e+00   3.000000000000000e+00 -0.00000000e+00  -0.00000000e+00  -0.00000000e+00
C     1.230000000000000e+00   7.101408311032397e-01   3.000000000000000e+00  0.00000000e+00   0.00000000e+00   0.00000000e+00
