32
Lattice="10.072 0 0 5.036 8.72260786691687 0 0 0 30 " PBC="1 1 1" Properties=species:S:1:pos:R:3:force:R:3 Energy="-257.00886374"
C     2.059453128087745e-05   2.581629324693414e-03   2.990624441935746e+00  2.26903270e-01  -6.31113880e-01   1.30874220e-01
C     1.260070653901630e+00   7.200385553081351e-01   2.995895876290395e+00  1.16224890e-01   4.32066130e-01  -3.75661400e-02
C     2.516841374351005e+00   5.667194745697717e-03   3.000888660201083e+00  3.00935600e-01  -2.91888570e-01  -4.90784200e-02
C     3.782792200744585e+00   7.313295669941748e-01   3.003585909198207e+00 -2.34588260e-01   2.17747720e-01  -6.59554400e-02
C     5.041669557839344e+00   1.330784337649058e-02   2.985069734164879e+00 -2.53664250e-01  -5.98246950e-01   2.40033200e-01
C     6.286224207740992e+00   7.384335226176508e-01   2.990304010142260e+00  8.81193800e-01  -5.95258770e-01   1.15061580e-01
C     7.567830740441121e+00  -1.357701156744398e-02   2.998696851034333e+00 -8.24683710e-01   8.64508270e-01  -4.39179400e-02
C     8.820990631076508e+00   7.131378052793861e-01   2.994300983037208e+00 -3.12211630e-01   4.87684220e-01  -2.18908700e-02
C     1.269970319923702e+00   2.183225188777850e+00   2.991739195353019e+00 -5.15166730e-01  -3.81016340e-01   1.07084420e-01
C     2.510009341866217e+00   2.914384205517732e+00   2.996109699978452e+00  7.61995160e-01  -5.08096420e-01   9.33986600e-02
C     3.787964374167093e+00   2.186834895068713e+00   3.010563861644511e+00 -5.80362760e-01  -1.64277290e-01  -2.62708310e-01
C     5.042683209199820e+00   2.901924351571318e+00   2.985401364791493e+00 -3.02201590e-01   3.24266000e-01   4.04967050e-01
C     6.284477884521643e+00   2.177504930340293e+00   3.010671624317523e+00  9.66303980e-01   3.54889710e-01  -2.79777900e-01
C     7.562730708580168e+00   2.915182967089443e+00   3.005520712467096e+00 -4.02405000e-01  -3.74029990e-01  -8.71701900e-02
C     8.817029828409868e+00   2.176589055163242e+00   2.993716982770061e+00 -9.69714200e-02  -2.08352800e-02   1.30781550e-01
C     1.007694447048877e+01   2.899641293877487e+00   3.005803079605457e+00 -1.04627230e-01   1.90068910e-01  -1.26757940e-01
C     2.508434332093762e+00   4.349624165441004e+00   3.001349027268220e+00  4.14421800e-01   8.03211640e-01  -1.29546800e-02
C     3.779890609443947e+00   5.098474017834091e+00   2.998499378209670e+00 -1.92255810e-01  -7.70258770e-01   1.04773580e-01
C     5.045205260565942e+00   4.352668238051097e+00   3.010284515880608e+00 -4.16097040e-01   7.08800200e-01  -2.94849180e-01
C     6.297903172944113e+00   5.094562028159202e+00   2.995086044967597e+00 -4.91337900e-02  -5.51315970e-01   1.46277220e-01
C     7.557075281407569e+00   4.372484552873745e+00   2.993043383316619e+00 -1.43923450e-01  -6.74411620e-01   1.72671950e-01
C     8.804638315936939e+00   5.076894897163302e+00   3.014880605149229e+00  3.89729430e-01   8.11102780e-01  -1.40351160e-01
C     1.006291747214563e+01   4.357272523175014e+00   3.012398114159446e+00  2.45566990e-01  -1.41570360e-01   1.64381200e-02
C     1.132627451972893e+01   5.077723550812906e+00   3.010042661817651e+00  3.02136800e-02   4.53074250e-01  -3.78947300e-02
C     3.764845782814168e+00   6.549872391907532e+00   3.000027386607445e+00  5.00947530e-01  -4.45363430e-01   5.73600000e-02
C     5.025517885643113e+00   7.260263078907375e+00   3.006454973101194e+00  6.09808130e-01   2.92622570e-01  -8.47045200e-02
C     6.302197824550498e+00   6.526746595400076e+00   3.009225666801649e+00 -3.88222220e-01   9.42349400e-01  -1.75973250e-01
C     7.567711725056326e+00   7.269486911359514e+00   2.992635983189473e+00 -7.23494030e-01   7.86829200e-02   1.90088600e-01
C     8.808511215508402e+00   6.547739069212827e+00   3.008072982018399e+00  6.22423360e-01  -4.02574500e-01  -1.25231000e-03
C     1.007584032740992e+01   7.270585952677028e+00   3.012024770974091e+00  7.43230600e-02   1.08572110e-01  -2.03889080e-01
C     1.134291825698166e+01   6.545531656056743e+00   3.005697437411160e+00 -8.73801690e-01  -4.07766120e-01   7.08571400e-02
C     1.258374867855341e+01   7.272191057934247e+00   3.003449643003412e+00  2.72819910e-01  -1.11622530e-01  -5.39752400e-02
