2
Lattice="2.493 0 0 1.2465 2.15900133163461 0 0 0 30 " PBC="1 1 1" Properties=species:S:1:pos:R:3:force:R:3 Energy="-16.11384991"
C     0.000000000000000e+00   0.000000000000000e+00   3.000000000000000e+00  0.00000000e+00  -0.00000000e+00  -0.00000000e+00
C     1.246500000000000e+00   7.196671105448684e-01   3.000000000000000e+00 -0.00000000e+00   0.00000000e+00   0.00000000e+00
