32
Lattice="10.088 0 0 5.044 8.73646427337742 0 0 0 30 " PBC="1 1 1" Properties=species:S:1:pos:R:3:force:R:3 Energy="-256.98913072"
C    -1.459150444470418e-04   4.084924093257860e-04   3.000166844514602e+00  9.12158000e-03  -8.17539100e-02   1.55490100e-02
C     1.265070472363579e+00   7.245906137782537e-01   3.002918716123432e+00 -2.87069470e-01   2.67414590e-01  -7.53652400e-02
C     2.518917164374192e+00  -8.871308622176435e-04   2.997606230403112e+00  2.04125600e-01   5.53441800e-02   8.11830400e-02
C     3.781102065418459e+00   7.307900289848059e-01   3.004202384546381e+00  1.00620900e-01  -2.01564770e-01  -8.13092100e-02
C     5.044217036599229e+00   8.711771743928488e-04   2.998092836341417e+00 -1.99691800e-02   4.44061000e-02   2.00632900e-02
C     6.306710437402468e+00   7.269134010804106e-01   2.998396573698940e+00 -5.59251700e-02   1.04393660e-01   4.78126200e-02
C     7.569177085793359e+00   1.585874029860058e-03   3.001522925399868e+00 -2.08210330e-01  -1.47484940e-01  -3.48435400e-02
C     8.822646330226480e+00   7.265911621825589e-01   2.999771047116033e+00  3.38460370e-01   1.28606720e-01   1.50263300e-02
C     1.262412215038657e+00   2.187252565543896e+00   2.997794414786398e+00 -3.98711900e-02  -2.28602260e-01   8.74040800e-02
C     2.523951845047781e+00   2.910339770239158e+00   3.002552360192976e+00 -4.42986300e-02   3.65298800e-02  -3.90576400e-02
C     3.786291663928000e+00   2.181228200885868e+00   3.001543254552374e+00 -1.15313920e-01   9.78125000e-02   1.48373100e-02
C     5.045061212782737e+00   2.908882460698132e+00   2.999892345796757e+00  1.49085500e-02   2.07203960e-01   1.88149000e-02
C     6.305139705634008e+00   2.185623562872119e+00   3.003645000808083e+00  9.50447900e-02  -1.29829730e-01  -4.77096000e-02
C     7.569034046610052e+00   2.912320946567371e+00   3.002280831026467e+00 -1.12868420e-01   1.97148000e-02  -2.84863100e-02
C     8.829022408224530e+00   2.185061582610759e+00   3.000179122242946e+00 -1.73180220e-01  -9.92836900e-02   2.40130000e-02
C     1.008411357573722e+01   2.912620207693907e+00   3.003179492101582e+00  3.24988190e-01  -5.76400900e-02  -4.91516700e-02
C     2.521616379033043e+00   4.364359771386480e+00   3.001577092768305e+00  6.91086200e-02   2.29639470e-01  -2.33548300e-02
C     3.781251237253721e+00   5.100510110180095e+00   2.997563383916327e+00  3.96528300e-02  -2.30596870e-01   5.79150100e-02
C     5.044954349915469e+00   4.370520127223455e+00   2.998259975886569e+00 -1.57909280e-01  -1.16681090e-01   3.37966000e-02
C     6.301738089469573e+00   5.095064847175799e+00   3.004184657754129e+00  2.03877290e-01   9.86040500e-02  -1.10358590e-01
C     7.565691876307927e+00   4.367723346674867e+00   2.996644932071400e+00 -1.30528600e-02  -5.05516000e-03   8.86583800e-02
C     8.826902302563408e+00   5.094196329996260e+00   2.998909567451014e+00  6.19498000e-02   5.38676300e-02  -1.70218000e-02
C     1.009171381803885e+01   4.365446486674534e+00   3.002440660253045e+00 -2.24450850e-01   1.41490730e-01  -2.00381000e-02
C     1.134924386843540e+01   5.096632058875938e+00   3.000600658561794e+00  1.49219200e-02  -1.07173110e-01   2.79793200e-02
C     3.781205731865884e+00   6.553914646578104e+00   3.004109478988032e+00  9.18026300e-02  -4.12173600e-02  -6.61376900e-02
C     5.046065693839401e+00   7.278596389726662e+00   3.000584095489867e+00 -9.56035000e-02   1.59832440e-01   2.95095000e-03
C     6.306598738308709e+00   6.554494458284831e+00   2.997500672409729e+00 -9.72069600e-02  -1.35862540e-01   6.77913700e-02
C     7.564189767842320e+00   7.282651366169330e+00   3.000007150415763e+00  1.32558290e-01  -1.63268400e-01  -6.39442600e-02
C     8.826913049355172e+00   6.550174273600276e+00   2.995448285272499e+00 -1.54982700e-02   1.24445970e-01   4.10949500e-02
C     1.008836121409079e+01   7.282754643394822e+00   2.996363006309136e+00 -9.58038000e-02  -1.32612800e-01   2.38393000e-02
C     1.134618557771298e+01   6.552364174184734e+00   3.001807882398229e+00  1.71773070e-01   4.98005500e-02  -4.68544300e-02
C     1.261120307172391e+01   7.279991188728033e+00   3.000911734405123e+00 -1.16682430e-01   5.95194800e-02   3.49034300e-02
