2
Lattice="2.451 0 0 1.2255 2.12262826467566 0 0 0 30 " PBC="1 1 1" Properties=species:S:1:pos:R:3:force:R:3 Energy="-16.12581378"
C     0.000000000000000e+00   0.000000000000000e+00   3.000000000000000e+00  0.00000000e+00  -0.00000000e+00   0.00000000e+00
C     1.225500000000000e+00   7.075427548918862e-01   3.000000000000000e+00 -0.00000000e+00   0.00000000e+00  -0.00000000e+00
