32
Lattice="9.724 0 0 4.862 8.42123102639988 0 0 0 30 " PBC="1 1 1" Properties=species:S:1:pos:R:3:force:R:3 Energy="-257.53523964"
C    -4.731488399571450e-03   4.432575419163358e-03   2.988465144008551e+00  2.06580100e-02  -6.13104400e-02   1.34356060e-01
C     1.220533088056357e+00   7.021190569242777e-01   3.002645913380247e+00 -7.70562210e-01   2.88694400e-02  -1.26383810e-01
C     2.420924679092968e+00  -1.005233647732083e-02   2.989224579365379e+00  7.26332200e-01   8.99086430e-01   2.12520670e-01
C     3.644624793957699e+00   6.992065133675361e-01   3.001405916311346e+00 -4.51480670e-01   2.71022860e-01  -1.26751270e-01
C     4.851736440433393e+00   1.128568662558838e-02   2.987079123057306e+00  4.86336930e-01  -5.84933570e-01   1.73112890e-01
C     6.074292021087881e+00   7.002133394814092e-01   3.010901568891145e+00  2.00378000e-03   2.38436300e-01  -1.16208160e-01
C     7.290142878920026e+00  -5.719554329357864e-03   3.005249132152608e+00 -2.06408520e-01   1.07307840e-01  -3.16849300e-02
C     8.496117867870852e+00   7.140245057645387e-01   2.994288226133905e+00  5.52106150e-01  -1.46576357e+00   4.50699400e-02
C     1.214256077965065e+00   2.112255377137826e+00   3.007926679154600e+00 -1.46629950e-01  -5.67080740e-01  -2.85819200e-02
C     2.425606519926978e+00   2.798954799178980e+00   3.005685293665326e+00  4.15460810e-01   8.04287090e-01   4.55698100e-02
C     3.647934053801298e+00   2.105182888942277e+00   3.006737027085346e+00 -2.94631400e-01  -9.93912800e-02   1.91955600e-02
C     4.857858293628760e+00   2.813342445076902e+00   3.009459034908767e+00  1.77135490e-01  -4.20259700e-02  -1.25577600e-02
C     6.074259943015911e+00   2.109751879821771e+00   3.010482959226156e+00  3.33195090e-01  -7.31849800e-02  -6.56539500e-02
C     7.301303631366363e+00   2.806212888151405e+00   2.993028402645979e+00 -5.12793550e-01   1.48922660e-01   2.18712160e-01
C     8.510043855960660e+00   2.090805869233519e+00   2.999424388633391e+00 -2.83396260e-01   1.31491823e+00  -5.90137100e-02
C     9.717935135941804e+00   2.802673308934494e+00   3.003066235441737e+00  4.25570110e-01   3.43457170e-01  -2.77388600e-02
C     2.437268492763591e+00   4.216024444797161e+00   3.004970186230894e+00 -6.64188230e-01  -7.42213550e-01  -6.93491500e-02
C     3.640142578248331e+00   4.901674812942661e+00   2.989439607940012e+00  5.29118200e-01   1.03608397e+00   1.16900270e-01
C     4.857379569687740e+00   4.219334714501005e+00   3.000874336001118e+00  4.03883240e-01  -4.37431990e-01  -1.14983240e-01
C     6.081195989703227e+00   4.915834486960588e+00   2.987836235328118e+00 -4.64164330e-01   3.38175520e-01   2.42103310e-01
C     7.294071002312114e+00   4.218560164114453e+00   3.009154767932626e+00 -1.59203000e-02  -5.52714540e-01  -2.79703970e-01
C     8.502712150067030e+00   4.914122903239250e+00   2.991447382079492e+00  8.48792390e-01   2.37215470e-01   2.20077380e-01
C     9.733502437560780e+00   4.213621757157281e+00   2.996199945767676e+00 -7.46856550e-01  -1.92374220e-01   1.41370000e-03
C     1.094383340624922e+01   4.920584825587708e+00   3.000020622540838e+00 -3.55613000e-02  -4.42246270e-01   2.42559900e-02
C     3.651262593861896e+00   6.317992748890680e+00   2.992007047055834e+00 -5.42015460e-01  -7.24641190e-01   1.47180000e-04
C     4.858588303429735e+00   7.010556336929630e+00   2.995442422442491e+00 -6.33256800e-02   9.91179080e-01  -7.27084800e-02
C     6.068294218796325e+00   6.327681062399688e+00   2.998765100477158e+00  9.42917630e-01  -6.34412360e-01  -2.59962500e-02
C     7.297862325485482e+00   7.027795824996735e+00   3.007797112894524e+00 -4.14227220e-01  -8.63961140e-01  -1.07473590e-01
C     8.519195097681832e+00   6.322490953364792e+00   3.009430751346556e+00 -7.23743620e-01  -2.45226360e-01  -2.06421140e-01
C     9.721038188463050e+00   7.023637634352876e+00   2.987215659767740e+00  3.99037640e-01   9.72999000e-02   1.28189230e-01
C     1.093799236126132e+01   6.315841230769701e+00   3.000155848477629e+00 -9.43025900e-02   2.56469870e-01  -8.13682900e-02
C     1.215475222787113e+01   7.006086327487147e+00   3.000795385805804e+00  1.67660190e-01   6.16180330e-01  -2.90456600e-02
