32
Lattice="9.924 0 0 4.962 8.59443610715677 0 0 0 30 " PBC="1 1 1" Properties=species:S:1:pos:R:3:force:R:3 Energy="-257.98749727"
C    -2.964196011284609e-03  -2.334266307458830e-03   2.996768884128931e+00  1.91746710e-01  -9.13255000e-03  -8.03380000e-04
C     1.238575044479173e+00   7.171530080156071e-01   2.998877570758858e+00  7.73206000e-02  -6.81123500e-02   3.89224000e-02
C     2.480823242388555e+00  -2.054122398381503e-03   3.002542676609450e+00 -3.54165000e-02   1.32741480e-01  -8.64092300e-02
C     3.723527804303515e+00   7.182270757969937e-01   2.995567310411905e+00 -2.16641410e-01  -1.17482120e-01   1.07812680e-01
C     4.958711276206373e+00  -6.591154661212181e-04   3.003464832366163e+00  2.94569330e-01   1.40725900e-02  -8.18042200e-02
C     6.205047163864569e+00   7.121859564500976e-01   2.999307348606931e+00 -1.94706060e-01   2.34831780e-01   5.24643500e-02
C     7.444400550877438e+00  -2.006277110549298e-03   3.000575024189561e+00  7.87537400e-02   1.06318410e-01  -4.09523800e-02
C     8.686869410116676e+00   7.166076016078582e-01   2.996583440736425e+00 -2.31932320e-01  -8.66088300e-02   4.54327000e-02
C     1.238666320940323e+00   2.152306237109907e+00   3.003727145489631e+00  1.08210090e-01  -2.47735910e-01  -9.28835100e-02
C     2.484824779067801e+00   2.863689017090848e+00   2.997804795012174e+00 -2.50568530e-01   8.87965100e-02   8.86497200e-02
C     3.720165283939665e+00   2.150782023104785e+00   3.000586709866522e+00  1.93907920e-01  -1.66776300e-01  -5.64165700e-02
C     4.962957244061451e+00   2.863693909278691e+00   2.999541842172800e+00 -9.92131500e-02   1.40423750e-01   4.42722400e-02
C     6.202077983739946e+00   2.152559629799789e+00   3.002246191699280e+00  9.63389800e-02  -4.08974290e-01  -6.12561500e-02
C     7.444813390086456e+00   2.860369196235865e+00   2.997189467277547e+00 -1.45726800e-01   3.15225740e-01   7.05765100e-02
C     8.681080641704664e+00   2.147406083851608e+00   3.001272859183598e+00  2.16137240e-01  -4.50098100e-02  -7.02236000e-02
C     9.923350684978038e+00   2.862091200680583e+00   2.997275404671939e+00 -2.62742600e-02   2.60074290e-01   6.78620900e-02
C     2.483829096867558e+00   4.293874250791220e+00   3.004141113031550e+00 -1.48270440e-01   1.34290500e-01  -1.04989920e-01
C     3.722851835141998e+00   5.010684771575707e+00   2.998659827802744e+00 -1.47370680e-01   3.22417800e-02   6.32249100e-02
C     4.959830026426579e+00   4.296587894775167e+00   3.002792049042283e+00  2.64508820e-01   1.14530800e-02  -4.41699700e-02
C     6.206128939511397e+00   5.013678292113455e+00   3.001354584016287e+00 -1.73560490e-01  -1.28516510e-01   3.38580000e-03
C     7.444209319233496e+00   4.297937429157678e+00   3.001281921690308e+00  5.44588700e-02  -1.80724910e-01  -1.78876100e-02
C     8.684647879108612e+00   5.012815124251565e+00   3.001480190673469e+00 -1.92875000e-02   9.55297100e-02  -1.05952600e-02
C     9.926654207266029e+00   4.299817764222360e+00   2.999365442140774e+00 -1.86170090e-01  -2.58320170e-01  -2.29585300e-02
C     1.116174590354356e+01   5.012646392568304e+00   2.996734419849302e+00  2.72656400e-01   1.53119700e-02   8.00295000e-02
C     3.716750173434679e+00   6.443103067283323e+00   2.999887174910545e+00  3.05169540e-01   2.44858700e-02  -3.71473500e-02
C     4.960131734344512e+00   7.157623381469062e+00   2.996759725339715e+00  4.80853700e-02   5.80014300e-02   2.01678200e-02
C     6.206210208734195e+00   6.443498575211679e+00   2.999150326617147e+00 -2.87375490e-01   2.81123300e-02  -7.94331000e-03
C     7.441198381500913e+00   7.158243134860539e+00   2.997969315909333e+00  1.33098450e-01   2.22196870e-01   5.08221900e-02
C     8.681711467551365e+00   6.446619050835823e+00   3.001886142258176e+00  1.21020680e-01  -1.38557190e-01  -3.05869300e-02
C     9.925745501790708e+00   7.160121480663227e+00   3.000088765366857e+00 -2.63327150e-01   1.08444250e-01   4.43082200e-02
C     1.116010725294482e+01   6.445491993000801e+00   3.001722263644003e+00  3.49484550e-01   1.72317300e-02  -4.94315600e-02
C     1.240902641332084e+01   7.163416397968541e+00   2.998521681580248e+00 -3.79626430e-01  -1.83833130e-01   3.85283300e-02
