32
Lattice="9.772 0 0 4.886 8.46280024578153 0 0 0 30 " PBC="1 1 1" Properties=species:S:1:pos:R:3:force:R:3 Energy="-257.9038392"
C    -2.814992690205950e-04   8.787662692208825e-04   3.001085179710278e+00  5.52229300e-02  -5.52082400e-02  -7.01752000e-03
C     1.221995501215091e+00   7.055598219145175e-01   3.000258863411903e+00 -3.42214100e-02   2.58697800e-02   5.46343000e-03
C     2.442267409877107e+00  -2.751113904302490e-04   2.999411195869045e+00  3.32155500e-02  -3.13944800e-02  -2.62740000e-04
C     3.663460765588508e+00   7.046982317042656e-01   2.999849594631250e+00  2.31584300e-02   6.57402600e-02   5.20713000e-03
C     4.885959077413490e+00   9.002198150001053e-04   3.000072384585122e+00 -1.51517700e-02  -2.80535900e-02  -1.88339000e-03
C     6.107652108861366e+00   7.051626420205080e-01   3.000461341023093e+00 -1.01568700e-02   4.69941700e-02  -6.40592000e-03
C     7.329011796282935e+00   7.895183688926359e-04   3.001124676957189e+00  2.51384400e-02  -1.66241400e-02  -8.38621000e-03
C     8.551374946375182e+00   7.047671718200547e-01   3.000121468555636e+00 -7.34935400e-02   7.99102600e-02   6.00594000e-03
C     1.221877879286335e+00   2.116801509317109e+00   3.001159862249052e+00 -3.91791500e-02  -6.65384900e-02  -4.07070000e-03
C     2.442874270169573e+00   2.821664539025480e+00   3.000557867935316e+00 -1.03547000e-02  -1.27854000e-02   5.56287000e-03
C     3.663493839591928e+00   2.116415944995548e+00   3.001033790374039e+00  4.26278000e-02  -6.63697400e-02  -1.50009900e-02
C     4.886280715941251e+00   2.820226865277549e+00   2.999368829422480e+00 -5.31439800e-02   3.32336000e-02   6.33499000e-03
C     6.107287896327810e+00   2.116259971083450e+00   2.998815365727590e+00  1.23865000e-03  -6.09559300e-02   1.48545800e-02
C     7.328228692857795e+00   2.820794245758753e+00   3.000240389661353e+00  1.92826400e-02   2.15313900e-02  -1.42085900e-02
C     8.549589232456681e+00   2.116461898893596e+00   2.999310777718837e+00  2.58899800e-02  -7.79904600e-02   1.75085900e-02
C     9.770999410653168e+00   2.820007928287755e+00   3.001201952309323e+00  4.69100900e-02   8.65743400e-02  -1.51968200e-02
C     2.442570012153020e+00   4.231160076243699e+00   2.999948055991659e+00  3.02855000e-02   3.71065500e-02   3.18952000e-03
C     3.664298952641843e+00   4.936132204587580e+00   3.000169806529623e+00 -1.19888800e-02   2.29806900e-02  -6.41797000e-03
C     4.885666007144319e+00   4.230789543371230e+00   2.999857996235592e+00  2.62043700e-02   2.07236300e-02   2.14430000e-03
C     6.107747397497142e+00   4.936216841518344e+00   3.000362334768909e+00 -2.42519900e-02   1.42626900e-02  -5.00143000e-03
C     7.328797899556895e+00   4.230888890945377e+00   3.000462526501446e+00  3.80841200e-02   3.90593500e-02   5.89670000e-04
C     8.551525668937581e+00   4.936827232255300e+00   3.000415681927466e+00 -5.28099300e-02  -2.20990300e-02  -7.71684000e-03
C     9.772351789310715e+00   4.231797131829842e+00   2.999734320361309e+00  2.04784000e-03  -3.84251200e-02   1.35549300e-02
C     1.099405895010837e+01   4.936965770230834e+00   2.999897562084687e+00 -2.29573900e-02   1.54764800e-02  -6.89259000e-03
C     3.663344833548181e+00   6.347164397921023e+00   2.999891705593425e+00  9.60824000e-02  -1.36871000e-03   1.21950500e-02
C     4.886346357905210e+00   7.052440958157541e+00   3.001142334186532e+00 -3.28344300e-02   1.61781000e-03  -1.10077200e-02
C     6.108203387100608e+00   6.347382951838283e+00   2.999796391306983e+00 -3.58824300e-02  -4.36578800e-02   5.40797000e-03
C     7.329600168402503e+00   7.051191879992587e+00   2.998827002166387e+00 -1.70742800e-02   6.40315100e-02   7.78579000e-03
C     8.551079170684089e+00   6.347139508850466e+00   2.999505364314327e+00  9.14365000e-03  -3.59922000e-03  -8.33460000e-04
C     9.772104604676864e+00   7.053187674237765e+00   2.999658269710732e+00  2.72800900e-02  -1.89589900e-02  -1.79821000e-03
C     1.099441237793152e+01   6.347967783265039e+00   2.999321650702783e+00 -4.61850700e-02  -1.16911800e-02   8.92333000e-03
C     1.221536772131137e+01   7.053431929303967e+00   3.000432261789539e+00 -2.21266600e-02  -1.93919100e-02  -2.62699000e-03
