32
Lattice="9.688 0 0 4.844 8.39005411186364 0 0 0 30 " PBC="1 1 1" Properties=species:S:1:pos:R:3:force:R:3 Energy="-257.38064385"
C    -4.973213634918203e-04   7.408112207602236e-05   2.999252863345987e+00  2.66280200e-02   9.30214000e-03   2.15539300e-02
C     1.209953454667539e+00   6.998662547727565e-01   3.000378639789741e+00  6.95764300e-02  -7.19592000e-02  -1.98974500e-02
C     2.422333075610218e+00   1.831102086698483e-04   2.998883610383009e+00 -5.90147100e-02   3.72303100e-02   7.34048000e-03
C     3.632655624550059e+00   7.002506206671110e-01   2.998934428215724e+00  4.05513700e-02  -4.00594400e-02   2.00724000e-03
C     4.844881709974789e+00   9.137976543305294e-04   2.998912991058133e+00 -8.61069000e-02  -2.97996800e-02   1.61316100e-02
C     6.055369157886659e+00   6.992965178034705e-01   3.000236177099345e+00  1.58994500e-02  -2.37298200e-02  -9.76219000e-03
C     7.265960106328079e+00  -5.256026744043674e-04   2.999510091689727e+00  2.94947400e-02   4.01771700e-02   8.62143000e-03
C     8.477148974568701e+00   6.989194028787427e-01   3.000699233118842e+00 -3.06355700e-02   2.86500700e-02  -1.28022200e-02
C     1.210802569181308e+00   2.096651063262028e+00   2.999154496013887e+00 -5.87648000e-03   9.13807800e-02   6.30060000e-03
C     2.420922794550223e+00   2.797212790037697e+00   2.999496992632609e+00  4.39952100e-02  -1.53976100e-02   9.36100000e-03
C     3.632270430318469e+00   2.098316091385746e+00   3.000164674491973e+00 -1.94673800e-02  -4.95461000e-03  -1.39397200e-02
C     4.842988426872593e+00   2.796793690500607e+00   2.999173998079342e+00  8.11272600e-02  -1.52009200e-02   8.59583000e-03
C     6.055428118498173e+00   2.096589467791448e+00   2.999866780472143e+00 -1.09981100e-02   1.06718850e-01  -5.60895000e-03
C     7.266939693455529e+00   2.797404686396596e+00   2.998953644479855e+00 -3.47851800e-02  -4.16456500e-02   1.39208600e-02
C     8.478116027946163e+00   2.097899123426245e+00   3.000529875673569e+00 -3.96094300e-02  -2.03827000e-03  -1.27805200e-02
C     9.688589942925155e+00   2.797623801398814e+00   2.999113416406868e+00 -8.58658000e-03  -3.03838100e-02   1.65435800e-02
C     2.422670832434227e+00   4.195845671374357e+00   3.000797576138186e+00 -5.59173200e-02  -7.77214100e-02  -1.97196600e-02
C     3.631859618245572e+00   4.893932718938329e+00   2.999848024325031e+00  1.16058240e-01   5.74023600e-02  -2.08352000e-03
C     4.844049978123825e+00   4.195009793548650e+00   2.999104899721509e+00 -1.29613400e-02   3.29936000e-03   1.03971200e-02
C     6.056173176912069e+00   4.893146362944143e+00   3.000192026036296e+00 -9.19571000e-02   7.71979200e-02  -1.52511200e-02
C     7.266195636626360e+00   4.196127462242200e+00   2.999267208829138e+00  1.73345300e-02  -8.37873400e-02  -4.89655000e-03
C     8.475990814120330e+00   4.895127951055807e+00   2.998827016179327e+00  1.08916690e-01  -3.21258100e-02   2.23749400e-02
C     9.688715930235890e+00   4.195676613176116e+00   3.000901090049579e+00 -5.23525400e-02   5.03958000e-03  -2.92262300e-02
C     1.090000781862924e+01   4.893650407473705e+00   2.999361515088099e+00 -4.91809000e-02   8.58679800e-02   2.83308600e-02
C     3.632541079061309e+00   6.293062871870831e+00   2.998989385354972e+00  6.78622100e-02  -3.33238300e-02   1.00677600e-02
C     4.844425028164957e+00   6.992580106634389e+00   3.000467196253330e+00 -1.69529700e-02  -8.10990700e-02  -2.24307100e-02
C     6.055690472700242e+00   6.292185231089544e+00   2.999322305191224e+00 -4.99714300e-02   1.07971500e-02   9.88482000e-03
C     7.265383291929695e+00   6.992262552999088e+00   2.998944317465969e+00  5.01379500e-02  -2.15762900e-02   4.75980000e-03
C     8.476887952132824e+00   6.292510738389704e+00   3.000341198836915e+00 -3.85372200e-02   4.32601400e-02  -1.00653300e-02
C     9.687046140960426e+00   6.991890043155721e+00   3.001114957513126e+00  7.68116100e-02   1.70520600e-02  -9.33338000e-03
C     1.089903797836524e+01   6.292709700158889e+00   3.001181952134326e+00 -7.93135000e-03  -1.13924000e-02  -1.84522200e-02
C     1.211080621340474e+01   6.991707263884424e+00   2.998983126540307e+00 -7.35512000e-02   2.81931000e-03   1.00579100e-02
