2
Lattice="2.452 0 0 1.226 2.12349429007944 0 0 0 30 " PBC="1 1 1" Properties=species:S:1:pos:R:3:force:R:3 Energy="-16.12644934"
C     0.000000000000000e+00   0.000000000000000e+00   3.000000000000000e+00  0.00000000e+00  -0.00000000e+00   0.00000000e+00
C     1.226000000000000e+00   7.078314300264812e-01   3.000000000000000e+00 -0.00000000e+00   0.00000000e+00  -0.00000000e+00
