32
Lattice="9.776 0 0 4.888 8.46626434739667 0 0 0 30 " PBC="1 1 1" Properties=species:S:1:pos:R:3:force:R:3 Energy="-257.79832772"
C     1.104864492776027e-02   3.792669460594866e-03   2.996866090224986e+00 -4.37584570e-01   1.51568110e-01   4.07663700e-02
C     1.216421191681042e+00   7.167928888095320e-01   3.007908787782128e+00  8.73093140e-01  -8.85815950e-01  -9.02025300e-02
C     2.446511708295871e+00  -3.513738649994976e-03   3.005091827360140e+00 -2.63136590e-01   6.89595190e-01  -1.08717510e-01
C     3.670674032626611e+00   6.984256842831595e-01   2.994817202521340e+00 -5.86178200e-01   7.51280820e-01   1.85083700e-01
C     4.881401425261179e+00   7.750115601780714e-04   3.003606541167318e+00  4.57216680e-01  -3.23302080e-01  -7.02415700e-02
C     6.102812277407407e+00   7.038083458487658e-01   3.001044559701609e+00  2.19103980e-01  -3.11147730e-01  -8.35147500e-02
C     7.330469840659269e+00  -1.464776914825371e-03   2.994659083923505e+00  4.79316050e-01   3.45570700e-01   1.48671680e-01
C     8.567004020639081e+00   7.125081495257130e-01   2.995253754935166e+00 -8.22526080e-01  -6.74523050e-01  -6.34828600e-02
C     1.220122816164720e+00   2.106353055725146e+00   2.999134120214304e+00  2.63750100e-02   9.44640640e-01   9.94732800e-02
C     2.452735980003121e+00   2.821888775930994e+00   3.007015769538910e+00 -1.04854742e+00   2.70243030e-01  -9.68538000e-03
C     3.656051529072628e+00   2.129777901825257e+00   3.009719602686277e+00  9.26285430e-01  -8.80231160e-01  -1.19318170e-01
C     4.887430340227445e+00   2.830199902182437e+00   3.001240362057337e+00 -2.20466460e-01  -3.34944300e-01   9.23188000e-03
C     6.098870150764486e+00   2.103499111595844e+00   2.992623868912340e+00  5.49504630e-01   8.66450030e-01   1.23300990e-01
C     7.336070712496090e+00   2.814726745510850e+00   3.004858036416023e+00 -8.20659270e-01   4.01476700e-02  -1.16016600e-01
C     8.547282666689602e+00   2.115597609708609e+00   2.990625769550654e+00  3.69517200e-01  -1.28155940e-01   1.36709800e-01
C     9.766295795392356e+00   2.808132526524635e+00   3.000668623295136e+00  7.38212520e-01   1.07283730e+00  -1.44509130e-01
C     2.438411429841478e+00   4.237108814807898e+00   3.004520439079450e+00  7.51694340e-01  -2.15089860e-01  -5.96795400e-02
C     3.663094541783911e+00   4.950388068509811e+00   3.003594014975384e+00  2.71803280e-01  -5.31436860e-01  -5.38782800e-02
C     4.892860898746346e+00   4.239040133922050e+00   3.001118017693193e+00 -4.92970090e-01  -1.40124360e-01   8.86613600e-02
C     6.112093054647755e+00   4.925343915037451e+00   3.012856586622514e+00  3.17458480e-01   8.15588970e-01  -1.29954020e-01
C     7.336898842822547e+00   4.227218227733308e+00   3.012348497874398e+00 -1.43957200e-01  -3.09505300e-01   1.40643300e-02
C     8.551854530886674e+00   4.933863230397407e+00   3.009929442897899e+00  4.36622290e-01   5.60796260e-01  -9.14625000e-02
C     9.789468942002419e+00   4.242096052936872e+00   2.989768478801319e+00 -8.60793260e-01  -9.74578800e-01   1.37483400e-01
C     1.100566063777019e+01   4.934992241175959e+00   2.990293211777007e+00 -2.88668370e-01   6.85522260e-01   8.41911300e-02
C     3.674785067309684e+00   6.352813182257341e+00   2.994278725939897e+00  1.21523570e-01   3.30416340e-01   1.54940210e-01
C     4.900395247877598e+00   7.065791083506825e+00   2.996420431559285e+00 -1.43610300e-02  -7.13762650e-01  -5.65338600e-02
C     6.122463673302634e+00   6.345423887263276e+00   2.995220551552242e+00 -5.71144470e-01   1.93475900e-02   7.48181800e-02
C     7.331266964673625e+00   7.063623118256348e+00   2.992829478914383e+00  1.57550760e-01  -4.48385320e-01   1.40303630e-01
C     8.547318815129515e+00   6.357449701654991e+00   3.007356566804773e+00  5.82421020e-01  -5.28057400e-01  -8.73741900e-02
C     9.784117511771239e+00   7.052513775780021e+00   3.002496604625557e+00 -5.88938200e-01   1.56509530e-01   3.65599600e-02
C     1.100273165024557e+01   6.355772782326481e+00   3.001753469987591e+00  2.70615490e-01  -4.28562890e-01   2.87949400e-02
C     1.223116403135059e+01   7.056029452960624e+00   3.013274574632945e+00 -3.88382650e-01   1.27109200e-01  -2.18483970e-01
