2
Lattice="2.487 0 0 1.2435 2.1538051792119 0 0 0 30 " PBC="1 1 1" Properties=species:S:1:pos:R:3:force:R:3 Energy="-16.12024817"
C     0.000000000000000e+00   0.000000000000000e+00   3.000000000000000e+00  0.00000000e+00   0.00000000e+00   0.00000000e+00
C     1.243500000000000e+00   7.179350597372995e-01   3.000000000000000e+00 -0.00000000e+00   0.00000000e+00  -0.00000000e+00
