32
Lattice="10.1 0 0 5.05 8.74685657822283 0 0 0 30 " PBC="1 1 1" Properties=species:S:1:pos:R:3:force:R:3 Energy="-256.88439249"
C    -8.895578713764303e-04   7.369061568344714e-05   2.999984015786777e+00  9.37014000e-03   8.57546000e-03   3.76003000e-03
C     1.261377465534705e+00   7.288953281841395e-01   3.000776497652622e+00  1.97762700e-02   5.98224000e-03  -1.86818700e-02
C     2.524294693860265e+00  -1.102090492423010e-05   3.000052134159092e+00  7.46441000e-03   3.87432600e-02   1.42950000e-04
C     3.786946813260594e+00   7.295734340943367e-01   3.000336510955744e+00  4.02558100e-02  -2.33971500e-02  -6.70836000e-03
C     5.050694643094156e+00  -2.311525630746873e-04   3.000446167547417e+00 -5.22395000e-02   9.68957000e-03  -1.64759800e-02
C     6.312637977092005e+00   7.281204192904225e-01   2.999148672441551e+00  7.57156000e-03   1.45954700e-02   1.44284900e-02
C     7.575198881190416e+00  -8.186232162398004e-04   3.001048737727049e+00 -3.37432400e-02   8.30820000e-03  -2.03566900e-02
C     8.836319905415795e+00   7.291163224735794e-01   3.000641817211966e+00  4.82152200e-02  -3.89843000e-02  -1.02084700e-02
C     1.262609708413396e+00   2.186669500315056e+00   2.998925518921045e+00 -1.64351800e-02   8.67465000e-03   1.99567300e-02
C     2.524979732271451e+00   2.914930592746362e+00   2.999565006355153e+00  1.42255800e-02   3.18902200e-02  -3.00857000e-03
C     3.788090112252749e+00   2.187884012837745e+00   2.999292109015668e+00 -4.28291700e-02  -4.85642600e-02   1.05850100e-02
C     5.049281342741334e+00   2.916699353697040e+00   2.999987675768672e+00  7.91610000e-02  -5.54487600e-02  -3.93877000e-03
C     6.312870684981053e+00   2.185812400756078e+00   2.998968257745105e+00 -3.32092500e-02   3.01935400e-02   1.51994100e-02
C     7.575029085649260e+00   2.914538399420777e+00   3.000680492379526e+00  2.03570500e-02   7.68739000e-03  -2.00516900e-02
C     8.838435978458051e+00   2.185674987266638e+00   2.998915192486524e+00 -4.90305400e-02   4.98075100e-02   2.56765500e-02
C     1.009995555812115e+01   2.916549729883971e+00   3.000031872322034e+00  3.47143000e-03  -5.76547000e-02  -1.62250600e-02
C     2.525463239789661e+00   4.373150288074710e+00   3.000035662026520e+00  8.17475000e-03   6.13900000e-04   1.01738000e-03
C     3.787748303332922e+00   5.103387489452835e+00   3.000475804441054e+00  2.78444400e-02  -4.41145800e-02  -2.32453000e-03
C     5.050974064855490e+00   4.372860561518748e+00   3.000954751139292e+00 -2.89076800e-02   8.85810100e-02  -5.89246000e-03
C     6.313527113406000e+00   5.103509204283805e+00   3.000832767758014e+00 -1.60903000e-03  -7.63462300e-02  -7.63560000e-03
C     7.575937886844391e+00   4.372548628122721e+00   3.000310741828904e+00 -4.06621100e-02   2.49245600e-02   7.63085000e-03
C     8.837388195980150e+00   5.101580697014318e+00   3.000351711153132e+00  8.07927000e-03   5.82360000e-02  -1.14944900e-02
C     1.009879129308221e+01   4.373349631626462e+00   2.999492467565633e+00  7.89876000e-02   4.68173000e-03   1.12198400e-02
C     1.136373291027617e+01   5.101211936136544e+00   3.000186365283072e+00 -6.64579800e-02   2.73015600e-02  -1.38209500e-02
C     3.788067731779461e+00   6.561140658465840e+00   2.999834686638356e+00 -2.13084600e-02  -4.09370800e-02  -6.11110000e-04
C     5.049921571852034e+00   7.289847255503781e+00   2.999236686063438e+00  2.64843400e-02  -2.26586200e-02   9.27850000e-03
C     6.313614839414249e+00   6.560196992807957e+00   2.999532233391667e+00 -5.23795000e-02   3.14424300e-02   2.17818000e-03
C     7.574592021341715e+00   7.289905697922789e+00   2.999099601287913e+00  5.79877800e-02  -2.89571800e-02   8.04580000e-03
C     8.838436926628264e+00   6.561095091044853e+00   2.999299101828861e+00 -4.98878200e-02  -4.47379500e-02   2.66091000e-03
C     1.010049280655148e+01   7.288790399792347e+00   2.999033953330855e+00  6.37902000e-03   4.43239000e-03   7.72126000e-03
C     1.136316433552986e+01   6.559300793000882e+00   2.998830957433627e+00 -1.74852800e-02  -1.36703400e-02   1.07196500e-02
C     1.262443334242232e+01   7.287974820333721e+00   2.999538007277515e+00  4.23790800e-02   4.11100600e-02   7.21307000e-03
