32
Lattice="9.588 0 0 4.794 8.3034515714852 0 0 0 30 " PBC="1 1 1" Properties=species:S:1:pos:R:3:force:R:3 Energy="-256.15541374"
C    -4.976977657421346e-03   9.506581483631583e-03   3.008248164225565e+00  6.25440680e-01  -1.01489384e+00  -3.90941200e-02
C     1.200476668876548e+00   6.869576590610662e-01   3.001269047440489e+00  7.93627000e-03  -2.97593000e-02   1.29060260e-01
C     2.402697741637182e+00  -9.005213935530372e-03   3.013248898666174e+00 -4.82705170e-01   3.77539450e-01  -1.57401960e-01
C     3.597868108980949e+00   6.832877336439432e-01   2.996926857412697e+00  1.34769320e-01   2.59940850e-01  -4.23851000e-03
C     4.801481516898646e+00  -1.784642677402383e-03   2.995788680828696e+00 -3.86962240e-01   3.16222730e-01   9.83131600e-02
C     5.994503110148371e+00   6.888148002066322e-01   3.005440519132410e+00 -1.53736600e-02   5.27016410e-01  -1.24723270e-01
C     7.186787229688788e+00   6.560814857971380e-03   2.990599689275308e+00  6.15767130e-01  -8.75826150e-01   2.01182950e-01
C     8.398320937693537e+00   6.883199421584920e-01   2.997832573453020e+00 -1.04959039e+00   3.87542050e-01   2.08973000e-02
C     1.185799723683851e+00   2.067430338395330e+00   3.003462643337819e+00  8.72302560e-01   4.83270190e-01  -1.05253800e-02
C     2.385074808704952e+00   2.778313071173069e+00   3.010366875478582e+00  7.10578110e-01  -7.04669500e-01  -1.50972500e-01
C     3.603196186248132e+00   2.069578049215571e+00   2.985557136168194e+00 -1.27831090e+00   2.30263780e-01   2.48548500e-01
C     4.789906056007831e+00   2.757908791054166e+00   3.005178689406769e+00  2.82626900e-01   8.75859830e-01  -1.33435420e-01
C     5.990376884011557e+00   2.076751337155493e+00   3.007575622777473e+00  1.72369900e-01  -3.50051300e-02  -2.83011400e-02
C     7.192914275799152e+00   2.772952752829219e+00   2.998522964684223e+00 -2.93388280e-01  -7.44570100e-01   6.28019000e-02
C     8.380608701430781e+00   2.068791991296236e+00   3.001219609059783e+00  7.91389030e-01   5.75417330e-01  -8.18672000e-02
C     9.591253108331417e+00   2.769045763389689e+00   2.995373765151480e+00 -7.84661580e-01  -2.50572280e-01   4.40661000e-03
C     2.395094147166953e+00   4.162893228077401e+00   3.009765903672515e+00  6.29989000e-02  -2.83956660e-01  -1.38322650e-01
C     3.601551171660538e+00   4.854550042293566e+00   2.987133009478526e+00 -6.20144740e-01  -8.64737450e-01   9.20015800e-02
C     4.785020471552508e+00   4.158717640427708e+00   2.993340602183995e+00  6.72266090e-01  -6.51197720e-01   7.57748400e-02
C     5.985913991921944e+00   4.852151763232881e+00   3.002144161672450e+00  5.40519680e-01  -7.66151700e-01  -1.46363820e-01
C     7.202748427116347e+00   4.142579124679791e+00   3.000275354171005e+00 -8.17213030e-01   1.23643547e+00   2.98688400e-02
C     8.394596084301291e+00   4.845605540183087e+00   3.003334262838004e+00  1.54517810e-01   1.64222850e-01  -7.90737000e-02
C     9.601161487211671e+00   4.154382707150948e+00   2.987045405845815e+00 -9.03959030e-01  -2.29610970e-01   1.34529540e-01
C     1.078084616848783e+01   4.845866591438802e+00   2.998088220773150e+00  6.23985380e-01   5.29158560e-01   5.82522500e-02
C     3.599004489380166e+00   6.218926844117047e+00   2.989857332446939e+00 -4.81790760e-01   9.67238780e-01   1.41952450e-01
C     4.785335800646287e+00   6.917436003034894e+00   3.009255156437973e+00  1.10660240e-01   6.22573550e-01  -2.23675150e-01
C     5.980993919099283e+00   6.233257677523983e+00   2.986871669646940e+00  1.20497330e-01  -3.06476820e-01   2.22594390e-01
C     7.176867054928568e+00   6.916962450808303e+00   3.001437326536660e+00  7.59390780e-01   1.98365800e-02   5.40393300e-02
C     8.389124334184897e+00   6.238671032305670e+00   3.009844887533990e+00 -3.44597870e-01  -5.94497300e-01  -6.27858000e-02
C     9.587058323598752e+00   6.929302650574763e+00   3.007136492497212e+00 -1.51724400e-02  -4.10956190e-01  -2.65337900e-02
C     1.078229529980771e+01   6.235848934889528e+00   3.005562441784548e+00 -2.92923900e-02  -4.56840430e-01   1.27464000e-02
C     1.198131802178277e+01   6.912858503788176e+00   3.007776702914224e+00  2.45146350e-01   6.47183150e-01  -1.79655920e-01
