32
Lattice="9.924 0 0 4.962 8.59443610715677 0 0 0 30 " PBC="1 1 1" Properties=species:S:1:pos:R:3:force:R:3 Energy="-258.00061775"
C    -4.693312668044826e-04   7.914072946034668e-04   2.999590021261562e+00 -1.01267000e-03  -8.43743300e-02   1.20719900e-02
C     1.239740103239829e+00   7.152361962891861e-01   3.001146991326955e+00  7.28256500e-02   7.95896800e-02  -2.00076600e-02
C     2.481905682231562e+00   8.743341072687821e-04   2.998956766870646e+00 -5.23019800e-02  -5.96843500e-02   1.71636300e-02
C     3.722146893181282e+00   7.170966484453646e-01   2.999169736394983e+00 -1.36861100e-02  -1.97730100e-02   4.42304000e-03
C     4.962387794836012e+00  -3.238803638219664e-04   3.000787565462038e+00  2.60619000e-03   3.10707400e-02  -1.62147400e-02
C     6.203538920193179e+00   7.153674582704611e-01   3.000823998412035e+00 -5.74097700e-02   9.49936300e-02   2.72049000e-03
C     7.442858180603110e+00   1.209879277975223e-03   3.000593514617255e+00  5.13355100e-02  -7.22838500e-02  -2.53567000e-03
C     8.683655258564061e+00   7.168971989391706e-01   2.999985675851394e+00 -2.54889000e-02   4.19219000e-03   3.36327000e-03
C     1.241497977178445e+00   2.149037366638944e+00   3.000913820104179e+00 -4.42878600e-02  -3.38637700e-02  -9.93211000e-03
C     2.481783240149593e+00   2.865829673442870e+00   2.999893039181466e+00 -5.19448300e-02  -5.85648200e-02   5.06285000e-03
C     3.720963256470301e+00   2.149625697833134e+00   2.999038210060445e+00  4.19857900e-02  -2.90862200e-02   8.91949000e-03
C     4.960953064597819e+00   2.865349520046322e+00   3.000055260667245e+00  8.30232700e-02  -2.50850400e-02   6.60554000e-03
C     6.203662222403733e+00   2.149845351979836e+00   3.000942108184931e+00 -7.39325700e-02  -8.35680600e-02  -8.64349000e-03
C     7.443989601233725e+00   2.863771789719731e+00   3.000101127231823e+00 -6.22193800e-02   1.03377060e-01   1.03363800e-02
C     8.682353344299704e+00   2.149062876328275e+00   3.000247667734710e+00  1.21803360e-01  -2.63690600e-02  -6.36218000e-03
C     9.924726455854250e+00   2.864823588556917e+00   2.999398876302445e+00 -3.67817200e-02   3.33470300e-02   1.40860600e-02
C     2.480252774877869e+00   4.296537219681725e+00   3.000528586910257e+00  7.07351900e-02   3.50311600e-02  -1.43694600e-02
C     3.721567076002223e+00   5.012494747358877e+00   2.999070204342447e+00 -4.19109200e-02   3.03201100e-02   1.69312700e-02
C     4.961459004650961e+00   4.296694926300574e+00   3.000925066358635e+00  5.29701100e-02   6.41085700e-02  -2.52310000e-02
C     6.203496621796919e+00   5.014493959125974e+00   2.999008782125086e+00 -5.15173700e-02  -6.28171000e-02   1.92179900e-02
C     7.443368089177638e+00   4.297696891296180e+00   3.000562571086103e+00 -2.67026300e-02  -3.36031700e-02  -1.03210400e-02
C     8.682372521637248e+00   5.013502286457626e+00   3.000482019462297e+00  6.66455200e-02   4.23394200e-02  -1.38321000e-02
C     9.923810225161654e+00   4.298419437701670e+00   2.999583751787576e+00  2.29092000e-03  -7.85202200e-02   4.08355000e-03
C     1.116524402267544e+01   5.012288713076362e+00   2.999829960583279e+00 -6.93856800e-02   7.31169800e-02  -2.30952000e-03
C     3.720281622392975e+00   6.445509380492527e+00   2.999335414546140e+00  7.44806100e-02  -1.64858900e-02   2.14162000e-03
C     4.961647682577797e+00   7.161069805499651e+00   2.999707974655631e+00 -7.96230000e-03   6.85661000e-02  -7.73709000e-03
C     6.203456853361519e+00   6.446701043559800e+00   2.999083454371412e+00 -8.65597700e-02  -5.12928500e-02   6.93042000e-03
C     7.442033157387740e+00   7.161072793224941e+00   2.999917553025854e+00  8.74431300e-02   1.23455630e-01  -1.59805600e-02
C     8.682989517075169e+00   6.446683818909821e+00   2.998935200435303e+00 -1.76012000e-02  -5.60562300e-02   1.26183300e-02
C     9.923470018262053e+00   7.162043703193113e+00   2.999194427795413e+00  8.66010000e-03  -5.37951000e-03   4.63519000e-03
C     1.116348045546166e+01   6.445283063418787e+00   2.999136817147801e+00  8.00728100e-02   2.30193600e-02   9.12438000e-03
C     1.240568584691940e+01   7.162440421914531e+00   3.000160215726646e+00 -9.61725000e-02  -9.72020000e-03  -6.95886000e-03
