32
Lattice="9.7 0 0 4.85 8.40044641670905 0 0 0 30 " PBC="1 1 1" Properties=species:S:1:pos:R:3:force:R:3 Energy="-257.33321304"
C     7.543814837629452e-04   1.179277234544157e-02   2.991805326171260e+00  5.50775300e-01  -8.18017620e-01   2.27060000e-01
C     1.219841176434558e+00   7.094753022013273e-01   3.000648052616538e+00 -2.99738760e-01  -6.40258730e-01  -7.86320200e-02
C     2.426807694007353e+00   1.097939531771896e-02   2.997132729041075e+00  1.42503100e-01  -7.16056350e-01   3.28929400e-02
C     3.639350605183815e+00   6.980833926542221e-01   3.004686400989758e+00  4.68950000e-04   5.69145570e-01  -4.67612500e-02
C     4.838377736677225e+00  -1.028196747393622e-02   2.992563480044609e+00  9.74220610e-01   3.41274110e-01   1.25618170e-01
C     6.067143496960655e+00   6.960274834394635e-01   3.001564613463498e+00 -6.01139110e-01   1.67588000e-01   5.02296100e-02
C     7.279032182660651e+00   3.696235280388383e-03   3.010972417728471e+00 -1.68168300e-01  -4.53393890e-01   9.34367000e-03
C     8.495276710791071e+00   6.864097765168997e-01   3.010368418778969e+00 -2.45884040e-01   9.64016640e-01  -1.92260890e-01
C     1.227723835072564e+00   2.089762555256921e+00   3.005077231480490e+00 -9.52053600e-01   1.02030545e+00   5.07590200e-02
C     2.423489006529747e+00   2.801103208563028e+00   3.007831344077029e+00  7.28296650e-01  -3.17989800e-01  -3.06791600e-02
C     3.651455963500617e+00   2.109784403653215e+00   3.010146069733656e+00 -8.97263900e-01  -8.05480200e-01   2.02903000e-03
C     4.851761975603832e+00   2.791708661087159e+00   3.010609354424317e+00  2.77279290e-01   6.43483490e-01  -9.78809600e-02
C     6.060419624208502e+00   2.102677127231898e+00   3.012546496577240e+00  5.09985420e-01  -4.61663060e-01  -2.15052900e-02
C     7.276847881927420e+00   2.807406261847283e+00   3.013179732432514e+00  1.70871340e-01  -7.98627710e-01  -1.71550280e-01
C     8.501658780986464e+00   2.091338930850926e+00   2.990345300169347e+00 -9.08750990e-01   4.15217760e-01   3.11922260e-01
C     9.696916092987296e+00   2.800634138862732e+00   3.011095430981738e+00  9.16740880e-01  -2.76100460e-01  -1.52918320e-01
C     2.426964492037214e+00   4.190537982612132e+00   2.997537640757229e+00  2.17156100e-01   6.56833970e-01   4.37501300e-02
C     3.649352914612881e+00   4.891369426168048e+00   2.999873813126225e+00 -6.77161120e-01   6.27073160e-01  -8.61356800e-02
C     4.848136438578359e+00   4.194159858070795e+00   2.988746716283449e+00  4.03750550e-01   1.99841160e-01   1.98959930e-01
C     6.057141646807235e+00   4.912396519462168e+00   2.997158521098851e+00  2.56930000e-03  -8.76730250e-01  -3.68452300e-02
C     7.264557735011852e+00   4.197238999451228e+00   3.000744531512832e+00  6.29927060e-01   7.47279130e-01  -1.58385900e-02
C     8.484451085800774e+00   4.911406579208085e+00   2.989683833014703e+00  2.00893110e-01  -1.19087265e+00   2.36801010e-01
C     9.711514925163661e+00   4.202072910545246e+00   3.008812589621638e+00 -1.02924182e+00  -8.82395700e-02  -1.53297230e-01
C     1.091526707874042e+01   4.893884302956597e+00   2.993208534269430e+00  2.33827390e-01   2.57581420e-01   1.01044110e-01
C     3.651929991186826e+00   6.312771566436229e+00   3.003851881460243e+00 -9.36239590e-01  -1.02980192e+00   7.52621100e-02
C     4.847832784988242e+00   7.001825649697246e+00   3.008731866811646e+00  6.98951080e-01   6.31382030e-01  -1.69139240e-01
C     6.060944452410865e+00   6.299241163753792e+00   2.997382220367821e+00  4.51965030e-01   6.56718850e-01   1.53635300e-02
C     7.288254025409056e+00   7.003176481098214e+00   2.994453955242940e+00 -7.76712000e-01   8.82775700e-02   6.90173200e-02
C     8.493133126099083e+00   6.295262155872691e+00   3.006287844953603e+00 -3.50469970e-01   4.21077220e-01  -1.94968890e-01
C     9.699917699223954e+00   6.992078460813122e+00   3.000319100393281e+00 -1.38408500e-02   2.35244770e-01  -4.18576900e-02
C     1.090314564730820e+01   6.295180409096580e+00   2.995210152465046e+00  9.81766800e-01   1.52949620e-01   6.84725600e-02
C     1.212803707646127e+01   7.004184689735734e+00   3.012274285021681e+00 -2.35283910e-01  -3.22057690e-01  -1.28254660e-01
