32
Lattice="9.864 0 0 4.932 8.5424745829297 0 0 0 30 " PBC="1 1 1" Properties=species:S:1:pos:R:3:force:R:3 Energy="-258.07680538"
C     3.782602946585320e-03  -3.358608972430810e-04   3.003643159005094e+00 -1.35382350e-01   5.05891400e-02  -8.08546300e-02
C     1.235990185540245e+00   7.098200453623181e-01   2.996034314938929e+00  5.57862100e-02   1.15631470e-01   7.33739400e-02
C     2.470703077053559e+00  -1.691271274453844e-03   2.999643603194233e+00 -2.97084870e-01   4.90850700e-02  -1.52816000e-02
C     3.696180840220995e+00   7.124090266912770e-01   2.999542047099411e+00  2.80698040e-01  -4.20121000e-03   2.33531100e-02
C     4.930900803365586e+00  -3.511569282400145e-04   3.002718517060485e+00  2.76197100e-02   9.89929800e-02  -2.60581300e-02
C     6.165277307920560e+00   7.109113809050707e-01   3.001703572046910e+00 -1.47308840e-01   1.21857540e-01   2.01386500e-02
C     7.394698035910197e+00  -6.892275474630348e-04   3.002763282137312e+00  3.02409620e-01  -1.99517600e-02  -2.40205200e-02
C     8.631977311233916e+00   7.111432949210658e-01   2.999885544443592e+00 -5.53603400e-02  -8.22195400e-02   2.46393700e-02
C     1.236725822752234e+00   2.135023690160432e+00   2.999560006160476e+00 -1.79709670e-01   5.11241400e-02  -2.40027300e-02
C     2.467537465524658e+00   2.850455364232467e+00   2.998348484214352e+00  3.48653600e-02  -1.85787550e-01   3.24233000e-03
C     3.701658075950071e+00   2.136219798602682e+00   3.000623682995971e+00 -1.83419890e-01   1.06781500e-02  -4.50759700e-02
C     4.931793195546208e+00   2.847627124880351e+00   2.996981480386669e+00  1.89921500e-02   1.03266330e-01   7.82651800e-02
C     6.161858975862505e+00   2.137961574632924e+00   3.002577506415694e+00  2.68341790e-01  -7.89116200e-02  -4.09858800e-02
C     7.399739427585700e+00   2.851734795184308e+00   3.001240878925900e+00 -1.76295410e-01  -3.67566520e-01  -1.25643400e-02
C     8.631765263008012e+00   2.132564701823558e+00   2.997502763585441e+00 -5.32265000e-02   1.61001180e-01   4.30169000e-02
C     9.861845586337921e+00   2.846859775313531e+00   3.000223238379401e+00  2.07018850e-01  -7.95893000e-03  -4.13625000e-02
C     2.467059705720466e+00   4.271024853598568e+00   2.996305098326179e+00 -1.83555110e-01   1.66411300e-02  -2.32885000e-03
C     3.696958697492255e+00   4.979930378048413e+00   2.995929696740797e+00  1.06246730e-01   1.85985620e-01   7.18102700e-02
C     4.930996256388414e+00   4.274439534114738e+00   3.002638577491975e+00 -2.81755400e-02  -2.00286180e-01  -7.84347400e-02
C     6.161064266745991e+00   4.983877886362602e+00   3.001280275740435e+00  1.70137410e-01   2.36425200e-02   3.35256600e-02
C     7.395790648104600e+00   4.268703283064485e+00   3.001862565899767e+00 -4.98242900e-02   2.23120370e-01   4.08590000e-03
C     8.627145049913516e+00   4.981192194273856e+00   3.002510252258719e+00  9.78069600e-02   1.77228680e-01  -2.63667000e-02
C     9.861628118083626e+00   4.273570573006364e+00   2.997190161076507e+00 -6.56095000e-03  -2.25083920e-01   4.22425100e-02
C     1.109494917339713e+01   4.980727918629626e+00   2.997250245999450e+00  5.16330100e-02   2.17260970e-01   2.24822000e-02
C     3.700522767380253e+00   6.403365924083221e+00   3.002980597025854e+00  8.27590000e-02   1.54143670e-01  -7.10917700e-02
C     4.935879714321807e+00   7.120547535611453e+00   2.999490368963355e+00 -1.96756570e-01  -1.47960270e-01   6.81815800e-02
C     6.165992123062717e+00   6.409239406662499e+00   3.002961232174850e+00 -9.74121300e-02  -1.46690590e-01  -3.18877500e-02
C     7.394408503747980e+00   7.118737376731221e+00   3.002231355398599e+00  3.56126230e-01  -2.79658600e-02   7.13400000e-05
C     8.630427751525763e+00   6.406509179467788e+00   3.002819487124292e+00 -4.84570700e-02  -1.11461100e-02  -6.83376000e-03
C     9.866141552052705e+00   7.120208690919495e+00   3.001403509853271e+00 -2.27002380e-01  -7.28131500e-02   3.19462200e-02
C     1.109447584141690e+01   6.408802814041138e+00   3.003855812981490e+00  2.76484150e-01  -1.84739380e-01  -6.15679900e-02
C     1.233458231947296e+01   7.117282409609729e+00   3.000795864850562e+00 -2.71393310e-01   3.03364000e-03   4.83426700e-02
