LAMMPS (29 Sep 2021)
  using 1 OpenMP thread(s) per MPI task
################################################################################
# Compute the energy of a monolayer graphene with a lattice parameter of a=2.466
# Angstrom. Periodic boundary conditions are applied in the two in-plane
# directions, while the out-of-plane direction is free.
#
# The energy is computed using the DUNN potential with 100 ensemble members
# (each with different dropout matrices). The mean and standard deviation of
# the energy are reported.
################################################################################

# Initialize interatomic potential (KIM model) and units
atom_style	atomic
kim init	DUNN_best_train metal
#=== KIM is looking for 'Portable Models' in these directories ===
#  1: .
#  2: /fslhome/yonatank/.kim-api/2.2.1+GNU.GNU.GNU.2021-03-10-17-46-54/portable-models-dir
#  3: /zhome/yonatank/local/lib64/kim-api/portable-models
#=== KIM is looking for 'Simulator Models' in these directories ===
#  1: .
#  2: /fslhome/yonatank/.kim-api/2.2.1+GNU.GNU.GNU.2021-03-10-17-46-54/simulator-models-dir
#  3: /zhome/yonatank/local/lib64/kim-api/simulator-models
#=== BEGIN kim init ==========================================
units metal
neighbor 2.0 bin   # Angstroms
timestep 1.0e-3    # picoseconds

This model has 2 mutable parameters. 
 No.      | Parameter name     | data type  | extent
-----------------------------------------------------
 1        | ensemble_size      | "Integer"  | 1
 2        | active_member_id   | "Integer"  | 1
#=== END kim init ============================================

# boundary conditions
boundary	p p f
# create a honeycomb lattice
variable	a equal 2.6352392681250008
lattice		custom $a a1 1.0 0.0 0.0 			  a2 0.5 $(sqrt(3.0)/2.0) 0.0 			  a3 0.0 0.0 1.0 			  basis 0.0 0.0 0.0 			  basis $(1.0/3.0) $(1.0/3.0) 0.0 			  spacing 1.0 $(sqrt(3.0)/2.0) 1.0
lattice		custom 2.635239268125 a1 1.0 0.0 0.0 			  a2 0.5 $(sqrt(3.0)/2.0) 0.0 			  a3 0.0 0.0 1.0 			  basis 0.0 0.0 0.0 			  basis $(1.0/3.0) $(1.0/3.0) 0.0 			  spacing 1.0 $(sqrt(3.0)/2.0) 1.0
lattice		custom 2.635239268125 a1 1.0 0.0 0.0 			  a2 0.5 0.86602540378443859659 0.0 			  a3 0.0 0.0 1.0 			  basis 0.0 0.0 0.0 			  basis $(1.0/3.0) $(1.0/3.0) 0.0 			  spacing 1.0 $(sqrt(3.0)/2.0) 1.0
lattice		custom 2.635239268125 a1 1.0 0.0 0.0 			  a2 0.5 0.86602540378443859659 0.0 			  a3 0.0 0.0 1.0 			  basis 0.0 0.0 0.0 			  basis 0.33333333333333331483 $(1.0/3.0) 0.0 			  spacing 1.0 $(sqrt(3.0)/2.0) 1.0
lattice		custom 2.635239268125 a1 1.0 0.0 0.0 			  a2 0.5 0.86602540378443859659 0.0 			  a3 0.0 0.0 1.0 			  basis 0.0 0.0 0.0 			  basis 0.33333333333333331483 0.33333333333333331483 0.0 			  spacing 1.0 $(sqrt(3.0)/2.0) 1.0
lattice		custom 2.635239268125 a1 1.0 0.0 0.0 			  a2 0.5 0.86602540378443859659 0.0 			  a3 0.0 0.0 1.0 			  basis 0.0 0.0 0.0 			  basis 0.33333333333333331483 0.33333333333333331483 0.0 			  spacing 1.0 0.86602540378443859659 1.0
Lattice spacing in x,y,z = 2.6352393 2.2821842 2.6352393
# create simulation box and atoms
region		reg prism 0 1 0 1 0 1 0.5 0 0 units lattice
create_box	1 reg
Created triclinic box = (0.0000000 0.0000000 0.0000000) to (2.6352393 2.2821842 2.6352393) with tilt (1.3176196 0.0000000 0.0000000)
  1 by 1 by 1 MPI processor grid
create_atoms	1 box
Created 2 atoms
  using lattice units in triclinic box = (0.0000000 0.0000000 0.0000000) to (2.6352393 2.2821842 2.6352393) with tilt (1.3176196 0.0000000 0.0000000)
  create_atoms CPU = 0.000 seconds
mass		1 12
# specify atom type to chemical species mapping for the KIM model
kim interactions C
#=== BEGIN kim interactions ==================================
pair_style kim DUNN_best_train
pair_coeff * * C
#=== END kim interactions ====================================

# get model ensemble size
kim param	get ensemble_size 1 size
#=== BEGIN kim param get =====================================
variable size string 100
#=== END kim param get =======================================
# loop over model ensemble member to compute energy sum and energy square sum
variable	natoms equal 2
variable	E_sum equal 0
variable	Esq_sum equal 0
variable	id loop ${size}
variable	id loop 100
label		LP
kim param	set active_member_id 1 ${id}
kim param	set active_member_id 1 1
#=== BEGIN kim param set =====================================
pair_coeff * *  C active_member_id 1 1
#=== END kim param set =======================================
run		0
Neighbor list info ...
  update every 1 steps, delay 10 steps, check yes
  max neighbors/atom: 2000, page size: 100000
  master list distance cutoff = 7
  ghost atom cutoff = 7
  binsize = 3.5, bins = 2 1 1
  1 neighbor lists, perpetual/occasional/extra = 1 0 0
  (1) pair kim, perpetual
      attributes: full, newton off, cut 7
      pair build: full/bin/atomonly
      stencil: full/bin/3d
      bin: standard
Per MPI rank memory allocation (min/avg/max) = 3.105 | 3.105 | 3.105 Mbytes
Step Temp E_pair E_mol TotEng Press 
       0            0   -15.647893            0   -15.647893   -336869.34 
Loop time of 1.11712e-06 on 1 procs for 0 steps with 2 atoms

179.0% CPU use with 1 MPI tasks x 1 OpenMP threads

MPI task timing breakdown:
Section |  min time  |  avg time  |  max time  |%varavg| %total
---------------------------------------------------------------
Pair    | 0          | 0          | 0          |   0.0 |  0.00
Neigh   | 0          | 0          | 0          |   0.0 |  0.00
Comm    | 0          | 0          | 0          |   0.0 |  0.00
Output  | 0          | 0          | 0          |   0.0 |  0.00
Modify  | 0          | 0          | 0          |   0.0 |  0.00
Other   |            | 1.117e-06  |            |       |100.00

Nlocal:        2.00000 ave           2 max           2 min
Histogram: 1 0 0 0 0 0 0 0 0 0
Nghost:        111.000 ave         111 max         111 min
Histogram: 1 0 0 0 0 0 0 0 0 0
Neighs:         0.00000 ave           0 max           0 min
Histogram: 1 0 0 0 0 0 0 0 0 0
FullNghs:      114.000 ave         114 max         114 min
Histogram: 1 0 0 0 0 0 0 0 0 0

Total # of neighbors = 114
Ave neighs/atom = 57.000000
Neighbor list builds = 0
Dangerous builds = 0
variable	E equal pe/${natoms}
variable	E equal pe/2
variable	E_sum equal ${E_sum}+${E}
variable	E_sum equal 0+${E}
variable	E_sum equal 0+-7.82394656723336
variable	Esq_sum equal ${Esq_sum}+${E}^2
variable	Esq_sum equal 0+${E}^2
variable	Esq_sum equal 0+-7.82394656723336^2
next		id
jump		SELF LP
kim param	set active_member_id 1 ${id}
kim param	set active_member_id 1 2
#=== BEGIN kim param set =====================================
pair_coeff * *  C active_member_id 1 2
#=== END kim param set =======================================
run		0
Neighbor list info ...
  update every 1 steps, delay 10 steps, check yes
  max neighbors/atom: 2000, page size: 100000
  master list distance cutoff = 7
  ghost atom cutoff = 7
  binsize = 3.5, bins = 2 1 1
  1 neighbor lists, perpetual/occasional/extra = 1 0 0
  (1) pair kim, perpetual
      attributes: full, newton off, cut 7
      pair build: full/bin/atomonly
      stencil: full/bin/3d
      bin: standard
Per MPI rank memory allocation (min/avg/max) = 3.105 | 3.105 | 3.105 Mbytes
Step Temp E_pair E_mol TotEng Press 
       0            0   -15.667128            0   -15.667128   -387821.38 
Loop time of 1.14599e-06 on 1 procs for 0 steps with 2 atoms

174.5% CPU use with 1 MPI tasks x 1 OpenMP threads

MPI task timing breakdown:
Section |  min time  |  avg time  |  max time  |%varavg| %total
---------------------------------------------------------------
Pair    | 0          | 0          | 0          |   0.0 |  0.00
Neigh   | 0          | 0          | 0          |   0.0 |  0.00
Comm    | 0          | 0          | 0          |   0.0 |  0.00
Output  | 0          | 0          | 0          |   0.0 |  0.00
Modify  | 0          | 0          | 0          |   0.0 |  0.00
Other   |            | 1.146e-06  |            |       |100.00

Nlocal:        2.00000 ave           2 max           2 min
Histogram: 1 0 0 0 0 0 0 0 0 0
Nghost:        111.000 ave         111 max         111 min
Histogram: 1 0 0 0 0 0 0 0 0 0
Neighs:         0.00000 ave           0 max           0 min
Histogram: 1 0 0 0 0 0 0 0 0 0
FullNghs:      114.000 ave         114 max         114 min
Histogram: 1 0 0 0 0 0 0 0 0 0

Total # of neighbors = 114
Ave neighs/atom = 57.000000
Neighbor list builds = 0
Dangerous builds = 0
variable	E equal pe/${natoms}
variable	E equal pe/2
variable	E_sum equal ${E_sum}+${E}
variable	E_sum equal -7.82394656723336+${E}
variable	E_sum equal -7.82394656723336+-7.83356395715469
variable	Esq_sum equal ${Esq_sum}+${E}^2
variable	Esq_sum equal 61.2141398869227+${E}^2
variable	Esq_sum equal 61.2141398869227+-7.83356395715469^2
next		id
jump		SELF LP
kim param	set active_member_id 1 ${id}
kim param	set active_member_id 1 3
#=== BEGIN kim param set =====================================
pair_coeff * *  C active_member_id 1 3
#=== END kim param set =======================================
run		0
Neighbor list info ...
  update every 1 steps, delay 10 steps, check yes
  max neighbors/atom: 2000, page size: 100000
  master list distance cutoff = 7
  ghost atom cutoff = 7
  binsize = 3.5, bins = 2 1 1
  1 neighbor lists, perpetual/occasional/extra = 1 0 0
  (1) pair kim, perpetual
      attributes: full, newton off, cut 7
      pair build: full/bin/atomonly
      stencil: full/bin/3d
      bin: standard
Per MPI rank memory allocation (min/avg/max) = 3.105 | 3.105 | 3.105 Mbytes
Step Temp E_pair E_mol TotEng Press 
       0            0   -15.653218            0   -15.653218   -294336.78 
Loop time of 9.03849e-07 on 1 procs for 0 steps with 2 atoms

221.3% CPU use with 1 MPI tasks x 1 OpenMP threads

MPI task timing breakdown:
Section |  min time  |  avg time  |  max time  |%varavg| %total
---------------------------------------------------------------
Pair    | 0          | 0          | 0          |   0.0 |  0.00
Neigh   | 0          | 0          | 0          |   0.0 |  0.00
Comm    | 0          | 0          | 0          |   0.0 |  0.00
Output  | 0          | 0          | 0          |   0.0 |  0.00
Modify  | 0          | 0          | 0          |   0.0 |  0.00
Other   |            | 9.038e-07  |            |       |100.00

Nlocal:        2.00000 ave           2 max           2 min
Histogram: 1 0 0 0 0 0 0 0 0 0
Nghost:        111.000 ave         111 max         111 min
Histogram: 1 0 0 0 0 0 0 0 0 0
Neighs:         0.00000 ave           0 max           0 min
Histogram: 1 0 0 0 0 0 0 0 0 0
FullNghs:      114.000 ave         114 max         114 min
Histogram: 1 0 0 0 0 0 0 0 0 0

Total # of neighbors = 114
Ave neighs/atom = 57.000000
Neighbor list builds = 0
Dangerous builds = 0
variable	E equal pe/${natoms}
variable	E equal pe/2
variable	E_sum equal ${E_sum}+${E}
variable	E_sum equal -15.657510524388+${E}
variable	E_sum equal -15.657510524388+-7.82660911143469
variable	Esq_sum equal ${Esq_sum}+${E}^2
variable	Esq_sum equal 122.578864157756+${E}^2
variable	Esq_sum equal 122.578864157756+-7.82660911143469^2
next		id
jump		SELF LP
kim param	set active_member_id 1 ${id}
kim param	set active_member_id 1 4
#=== BEGIN kim param set =====================================
pair_coeff * *  C active_member_id 1 4
#=== END kim param set =======================================
run		0
Neighbor list info ...
  update every 1 steps, delay 10 steps, check yes
  max neighbors/atom: 2000, page size: 100000
  master list distance cutoff = 7
  ghost atom cutoff = 7
  binsize = 3.5, bins = 2 1 1
  1 neighbor lists, perpetual/occasional/extra = 1 0 0
  (1) pair kim, perpetual
      attributes: full, newton off, cut 7
      pair build: full/bin/atomonly
      stencil: full/bin/3d
      bin: standard
Per MPI rank memory allocation (min/avg/max) = 3.105 | 3.105 | 3.105 Mbytes
Step Temp E_pair E_mol TotEng Press 
       0            0   -15.583217            0   -15.583217   -395605.28 
Loop time of 9.62988e-07 on 1 procs for 0 steps with 2 atoms

207.7% CPU use with 1 MPI tasks x 1 OpenMP threads

MPI task timing breakdown:
Section |  min time  |  avg time  |  max time  |%varavg| %total
---------------------------------------------------------------
Pair    | 0          | 0          | 0          |   0.0 |  0.00
Neigh   | 0          | 0          | 0          |   0.0 |  0.00
Comm    | 0          | 0          | 0          |   0.0 |  0.00
Output  | 0          | 0          | 0          |   0.0 |  0.00
Modify  | 0          | 0          | 0          |   0.0 |  0.00
Other   |            | 9.63e-07   |            |       |100.00

Nlocal:        2.00000 ave           2 max           2 min
Histogram: 1 0 0 0 0 0 0 0 0 0
Nghost:        111.000 ave         111 max         111 min
Histogram: 1 0 0 0 0 0 0 0 0 0
Neighs:         0.00000 ave           0 max           0 min
Histogram: 1 0 0 0 0 0 0 0 0 0
FullNghs:      114.000 ave         114 max         114 min
Histogram: 1 0 0 0 0 0 0 0 0 0

Total # of neighbors = 114
Ave neighs/atom = 57.000000
Neighbor list builds = 0
Dangerous builds = 0
variable	E equal pe/${natoms}
variable	E equal pe/2
variable	E_sum equal ${E_sum}+${E}
variable	E_sum equal -23.4841196358227+${E}
variable	E_sum equal -23.4841196358227+-7.79160863602521
variable	Esq_sum equal ${Esq_sum}+${E}^2
variable	Esq_sum equal 183.834674340949+${E}^2
variable	Esq_sum equal 183.834674340949+-7.79160863602521^2
next		id
jump		SELF LP
kim param	set active_member_id 1 ${id}
kim param	set active_member_id 1 5
#=== BEGIN kim param set =====================================
pair_coeff * *  C active_member_id 1 5
#=== END kim param set =======================================
run		0
Neighbor list info ...
  update every 1 steps, delay 10 steps, check yes
  max neighbors/atom: 2000, page size: 100000
  master list distance cutoff = 7
  ghost atom cutoff = 7
  binsize = 3.5, bins = 2 1 1
  1 neighbor lists, perpetual/occasional/extra = 1 0 0
  (1) pair kim, perpetual
      attributes: full, newton off, cut 7
      pair build: full/bin/atomonly
      stencil: full/bin/3d
      bin: standard
Per MPI rank memory allocation (min/avg/max) = 3.105 | 3.105 | 3.105 Mbytes
Step Temp E_pair E_mol TotEng Press 
       0            0   -15.642185            0   -15.642185   -278305.31 
Loop time of 9.80217e-07 on 1 procs for 0 steps with 2 atoms

102.0% CPU use with 1 MPI tasks x 1 OpenMP threads

MPI task timing breakdown:
Section |  min time  |  avg time  |  max time  |%varavg| %total
---------------------------------------------------------------
Pair    | 0          | 0          | 0          |   0.0 |  0.00
Neigh   | 0          | 0          | 0          |   0.0 |  0.00
Comm    | 0          | 0          | 0          |   0.0 |  0.00
Output  | 0          | 0          | 0          |   0.0 |  0.00
Modify  | 0          | 0          | 0          |   0.0 |  0.00
Other   |            | 9.802e-07  |            |       |100.00

Nlocal:        2.00000 ave           2 max           2 min
Histogram: 1 0 0 0 0 0 0 0 0 0
Nghost:        111.000 ave         111 max         111 min
Histogram: 1 0 0 0 0 0 0 0 0 0
Neighs:         0.00000 ave           0 max           0 min
Histogram: 1 0 0 0 0 0 0 0 0 0
FullNghs:      114.000 ave         114 max         114 min
Histogram: 1 0 0 0 0 0 0 0 0 0

Total # of neighbors = 114
Ave neighs/atom = 57.000000
Neighbor list builds = 0
Dangerous builds = 0
variable	E equal pe/${natoms}
variable	E equal pe/2
variable	E_sum equal ${E_sum}+${E}
variable	E_sum equal -31.2757282718479+${E}
variable	E_sum equal -31.2757282718479+-7.82109273622246
variable	Esq_sum equal ${Esq_sum}+${E}^2
variable	Esq_sum equal 244.543839477932+${E}^2
variable	Esq_sum equal 244.543839477932+-7.82109273622246^2
next		id
jump		SELF LP
kim param	set active_member_id 1 ${id}
kim param	set active_member_id 1 6
#=== BEGIN kim param set =====================================
pair_coeff * *  C active_member_id 1 6
#=== END kim param set =======================================
run		0
Neighbor list info ...
  update every 1 steps, delay 10 steps, check yes
  max neighbors/atom: 2000, page size: 100000
  master list distance cutoff = 7
  ghost atom cutoff = 7
  binsize = 3.5, bins = 2 1 1
  1 neighbor lists, perpetual/occasional/extra = 1 0 0
  (1) pair kim, perpetual
      attributes: full, newton off, cut 7
      pair build: full/bin/atomonly
      stencil: full/bin/3d
      bin: standard
Per MPI rank memory allocation (min/avg/max) = 3.105 | 3.105 | 3.105 Mbytes
Step Temp E_pair E_mol TotEng Press 
       0            0   -15.682235            0   -15.682235   -309985.99 
Loop time of 9.41101e-07 on 1 procs for 0 steps with 2 atoms

212.5% CPU use with 1 MPI tasks x 1 OpenMP threads

MPI task timing breakdown:
Section |  min time  |  avg time  |  max time  |%varavg| %total
---------------------------------------------------------------
Pair    | 0          | 0          | 0          |   0.0 |  0.00
Neigh   | 0          | 0          | 0          |   0.0 |  0.00
Comm    | 0          | 0          | 0          |   0.0 |  0.00
Output  | 0          | 0          | 0          |   0.0 |  0.00
Modify  | 0          | 0          | 0          |   0.0 |  0.00
Other   |            | 9.411e-07  |            |       |100.00

Nlocal:        2.00000 ave           2 max           2 min
Histogram: 1 0 0 0 0 0 0 0 0 0
Nghost:        111.000 ave         111 max         111 min
Histogram: 1 0 0 0 0 0 0 0 0 0
Neighs:         0.00000 ave           0 max           0 min
Histogram: 1 0 0 0 0 0 0 0 0 0
FullNghs:      114.000 ave         114 max         114 min
Histogram: 1 0 0 0 0 0 0 0 0 0

Total # of neighbors = 114
Ave neighs/atom = 57.000000
Neighbor list builds = 0
Dangerous builds = 0
variable	E equal pe/${natoms}
variable	E equal pe/2
variable	E_sum equal ${E_sum}+${E}
variable	E_sum equal -39.0968210080704+${E}
variable	E_sum equal -39.0968210080704+-7.84111757075226
variable	Esq_sum equal ${Esq_sum}+${E}^2
variable	Esq_sum equal 305.713331066524+${E}^2
variable	Esq_sum equal 305.713331066524+-7.84111757075226^2
next		id
jump		SELF LP
kim param	set active_member_id 1 ${id}
kim param	set active_member_id 1 7
#=== BEGIN kim param set =====================================
pair_coeff * *  C active_member_id 1 7
#=== END kim param set =======================================
run		0
Neighbor list info ...
  update every 1 steps, delay 10 steps, check yes
  max neighbors/atom: 2000, page size: 100000
  master list distance cutoff = 7
  ghost atom cutoff = 7
  binsize = 3.5, bins = 2 1 1
  1 neighbor lists, perpetual/occasional/extra = 1 0 0
  (1) pair kim, perpetual
      attributes: full, newton off, cut 7
      pair build: full/bin/atomonly
      stencil: full/bin/3d
      bin: standard
Per MPI rank memory allocation (min/avg/max) = 3.105 | 3.105 | 3.105 Mbytes
Step Temp E_pair E_mol TotEng Press 
       0            0   -15.620702            0   -15.620702   -319878.39 
Loop time of 9.69972e-07 on 1 procs for 0 steps with 2 atoms

103.1% CPU use with 1 MPI tasks x 1 OpenMP threads

MPI task timing breakdown:
Section |  min time  |  avg time  |  max time  |%varavg| %total
---------------------------------------------------------------
Pair    | 0          | 0          | 0          |   0.0 |  0.00
Neigh   | 0          | 0          | 0          |   0.0 |  0.00
Comm    | 0          | 0          | 0          |   0.0 |  0.00
Output  | 0          | 0          | 0          |   0.0 |  0.00
Modify  | 0          | 0          | 0          |   0.0 |  0.00
Other   |            | 9.7e-07    |            |       |100.00

Nlocal:        2.00000 ave           2 max           2 min
Histogram: 1 0 0 0 0 0 0 0 0 0
Nghost:        111.000 ave         111 max         111 min
Histogram: 1 0 0 0 0 0 0 0 0 0
Neighs:         0.00000 ave           0 max           0 min
Histogram: 1 0 0 0 0 0 0 0 0 0
FullNghs:      114.000 ave         114 max         114 min
Histogram: 1 0 0 0 0 0 0 0 0 0

Total # of neighbors = 114
Ave neighs/atom = 57.000000
Neighbor list builds = 0
Dangerous builds = 0
variable	E equal pe/${natoms}
variable	E equal pe/2
variable	E_sum equal ${E_sum}+${E}
variable	E_sum equal -46.9379385788227+${E}
variable	E_sum equal -46.9379385788227+-7.81035101342055
variable	Esq_sum equal ${Esq_sum}+${E}^2
variable	Esq_sum equal 367.196455824884+${E}^2
variable	Esq_sum equal 367.196455824884+-7.81035101342055^2
next		id
jump		SELF LP
kim param	set active_member_id 1 ${id}
kim param	set active_member_id 1 8
#=== BEGIN kim param set =====================================
pair_coeff * *  C active_member_id 1 8
#=== END kim param set =======================================
run		0
Neighbor list info ...
  update every 1 steps, delay 10 steps, check yes
  max neighbors/atom: 2000, page size: 100000
  master list distance cutoff = 7
  ghost atom cutoff = 7
  binsize = 3.5, bins = 2 1 1
  1 neighbor lists, perpetual/occasional/extra = 1 0 0
  (1) pair kim, perpetual
      attributes: full, newton off, cut 7
      pair build: full/bin/atomonly
      stencil: full/bin/3d
      bin: standard
Per MPI rank memory allocation (min/avg/max) = 3.105 | 3.105 | 3.105 Mbytes
Step Temp E_pair E_mol TotEng Press 
       0            0   -15.674452            0   -15.674452      -278290 
Loop time of 9.22009e-07 on 1 procs for 0 steps with 2 atoms

108.5% CPU use with 1 MPI tasks x 1 OpenMP threads

MPI task timing breakdown:
Section |  min time  |  avg time  |  max time  |%varavg| %total
---------------------------------------------------------------
Pair    | 0          | 0          | 0          |   0.0 |  0.00
Neigh   | 0          | 0          | 0          |   0.0 |  0.00
Comm    | 0          | 0          | 0          |   0.0 |  0.00
Output  | 0          | 0          | 0          |   0.0 |  0.00
Modify  | 0          | 0          | 0          |   0.0 |  0.00
Other   |            | 9.22e-07   |            |       |100.00

Nlocal:        2.00000 ave           2 max           2 min
Histogram: 1 0 0 0 0 0 0 0 0 0
Nghost:        111.000 ave         111 max         111 min
Histogram: 1 0 0 0 0 0 0 0 0 0
Neighs:         0.00000 ave           0 max           0 min
Histogram: 1 0 0 0 0 0 0 0 0 0
FullNghs:      114.000 ave         114 max         114 min
Histogram: 1 0 0 0 0 0 0 0 0 0

Total # of neighbors = 114
Ave neighs/atom = 57.000000
Neighbor list builds = 0
Dangerous builds = 0
variable	E equal pe/${natoms}
variable	E equal pe/2
variable	E_sum equal ${E_sum}+${E}
variable	E_sum equal -54.7482895922433+${E}
variable	E_sum equal -54.7482895922433+-7.83722597354613
variable	Esq_sum equal ${Esq_sum}+${E}^2
variable	Esq_sum equal 428.198038777723+${E}^2
variable	Esq_sum equal 428.198038777723+-7.83722597354613^2
next		id
jump		SELF LP
kim param	set active_member_id 1 ${id}
kim param	set active_member_id 1 9
#=== BEGIN kim param set =====================================
pair_coeff * *  C active_member_id 1 9
#=== END kim param set =======================================
run		0
Neighbor list info ...
  update every 1 steps, delay 10 steps, check yes
  max neighbors/atom: 2000, page size: 100000
  master list distance cutoff = 7
  ghost atom cutoff = 7
  binsize = 3.5, bins = 2 1 1
  1 neighbor lists, perpetual/occasional/extra = 1 0 0
  (1) pair kim, perpetual
      attributes: full, newton off, cut 7
      pair build: full/bin/atomonly
      stencil: full/bin/3d
      bin: standard
Per MPI rank memory allocation (min/avg/max) = 3.105 | 3.105 | 3.105 Mbytes
Step Temp E_pair E_mol TotEng Press 
       0            0   -15.619252            0   -15.619252   -385438.59 
Loop time of 9.5088e-07 on 1 procs for 0 steps with 2 atoms

105.2% CPU use with 1 MPI tasks x 1 OpenMP threads

MPI task timing breakdown:
Section |  min time  |  avg time  |  max time  |%varavg| %total
---------------------------------------------------------------
Pair    | 0          | 0          | 0          |   0.0 |  0.00
Neigh   | 0          | 0          | 0          |   0.0 |  0.00
Comm    | 0          | 0          | 0          |   0.0 |  0.00
Output  | 0          | 0          | 0          |   0.0 |  0.00
Modify  | 0          | 0          | 0          |   0.0 |  0.00
Other   |            | 9.509e-07  |            |       |100.00

Nlocal:        2.00000 ave           2 max           2 min
Histogram: 1 0 0 0 0 0 0 0 0 0
Nghost:        111.000 ave         111 max         111 min
Histogram: 1 0 0 0 0 0 0 0 0 0
Neighs:         0.00000 ave           0 max           0 min
Histogram: 1 0 0 0 0 0 0 0 0 0
FullNghs:      114.000 ave         114 max         114 min
Histogram: 1 0 0 0 0 0 0 0 0 0

Total # of neighbors = 114
Ave neighs/atom = 57.000000
Neighbor list builds = 0
Dangerous builds = 0
variable	E equal pe/${natoms}
variable	E equal pe/2
variable	E_sum equal ${E_sum}+${E}
variable	E_sum equal -62.5855155657894+${E}
variable	E_sum equal -62.5855155657894+-7.80962602880718
variable	Esq_sum equal ${Esq_sum}+${E}^2
variable	Esq_sum equal 489.620149738149+${E}^2
variable	Esq_sum equal 489.620149738149+-7.80962602880718^2
next		id
jump		SELF LP
kim param	set active_member_id 1 ${id}
kim param	set active_member_id 1 10
#=== BEGIN kim param set =====================================
pair_coeff * *  C active_member_id 1 10
#=== END kim param set =======================================
run		0
Neighbor list info ...
  update every 1 steps, delay 10 steps, check yes
  max neighbors/atom: 2000, page size: 100000
  master list distance cutoff = 7
  ghost atom cutoff = 7
  binsize = 3.5, bins = 2 1 1
  1 neighbor lists, perpetual/occasional/extra = 1 0 0
  (1) pair kim, perpetual
      attributes: full, newton off, cut 7
      pair build: full/bin/atomonly
      stencil: full/bin/3d
      bin: standard
Per MPI rank memory allocation (min/avg/max) = 3.105 | 3.105 | 3.105 Mbytes
Step Temp E_pair E_mol TotEng Press 
       0            0   -15.592225            0   -15.592225   -425963.18 
Loop time of 9.98843e-07 on 1 procs for 0 steps with 2 atoms

100.1% CPU use with 1 MPI tasks x 1 OpenMP threads

MPI task timing breakdown:
Section |  min time  |  avg time  |  max time  |%varavg| %total
---------------------------------------------------------------
Pair    | 0          | 0          | 0          |   0.0 |  0.00
Neigh   | 0          | 0          | 0          |   0.0 |  0.00
Comm    | 0          | 0          | 0          |   0.0 |  0.00
Output  | 0          | 0          | 0          |   0.0 |  0.00
Modify  | 0          | 0          | 0          |   0.0 |  0.00
Other   |            | 9.988e-07  |            |       |100.00

Nlocal:        2.00000 ave           2 max           2 min
Histogram: 1 0 0 0 0 0 0 0 0 0
Nghost:        111.000 ave         111 max         111 min
Histogram: 1 0 0 0 0 0 0 0 0 0
Neighs:         0.00000 ave           0 max           0 min
Histogram: 1 0 0 0 0 0 0 0 0 0
FullNghs:      114.000 ave         114 max         114 min
Histogram: 1 0 0 0 0 0 0 0 0 0

Total # of neighbors = 114
Ave neighs/atom = 57.000000
Neighbor list builds = 0
Dangerous builds = 0
variable	E equal pe/${natoms}
variable	E equal pe/2
variable	E_sum equal ${E_sum}+${E}
variable	E_sum equal -70.3951415945966+${E}
variable	E_sum equal -70.3951415945966+-7.79611242051357
variable	Esq_sum equal ${Esq_sum}+${E}^2
variable	Esq_sum equal 550.610408447972+${E}^2
variable	Esq_sum equal 550.610408447972+-7.79611242051357^2
next		id
jump		SELF LP
kim param	set active_member_id 1 ${id}
kim param	set active_member_id 1 11
#=== BEGIN kim param set =====================================
pair_coeff * *  C active_member_id 1 11
#=== END kim param set =======================================
run		0
Neighbor list info ...
  update every 1 steps, delay 10 steps, check yes
  max neighbors/atom: 2000, page size: 100000
  master list distance cutoff = 7
  ghost atom cutoff = 7
  binsize = 3.5, bins = 2 1 1
  1 neighbor lists, perpetual/occasional/extra = 1 0 0
  (1) pair kim, perpetual
      attributes: full, newton off, cut 7
      pair build: full/bin/atomonly
      stencil: full/bin/3d
      bin: standard
Per MPI rank memory allocation (min/avg/max) = 3.105 | 3.105 | 3.105 Mbytes
Step Temp E_pair E_mol TotEng Press 
       0            0   -15.691298            0   -15.691298   -245688.44 
Loop time of 9.6485e-07 on 1 procs for 0 steps with 2 atoms

103.6% CPU use with 1 MPI tasks x 1 OpenMP threads

MPI task timing breakdown:
Section |  min time  |  avg time  |  max time  |%varavg| %total
---------------------------------------------------------------
Pair    | 0          | 0          | 0          |   0.0 |  0.00
Neigh   | 0          | 0          | 0          |   0.0 |  0.00
Comm    | 0          | 0          | 0          |   0.0 |  0.00
Output  | 0          | 0          | 0          |   0.0 |  0.00
Modify  | 0          | 0          | 0          |   0.0 |  0.00
Other   |            | 9.649e-07  |            |       |100.00

Nlocal:        2.00000 ave           2 max           2 min
Histogram: 1 0 0 0 0 0 0 0 0 0
Nghost:        111.000 ave         111 max         111 min
Histogram: 1 0 0 0 0 0 0 0 0 0
Neighs:         0.00000 ave           0 max           0 min
Histogram: 1 0 0 0 0 0 0 0 0 0
FullNghs:      114.000 ave         114 max         114 min
Histogram: 1 0 0 0 0 0 0 0 0 0

Total # of neighbors = 114
Ave neighs/atom = 57.000000
Neighbor list builds = 0
Dangerous builds = 0
variable	E equal pe/${natoms}
variable	E equal pe/2
variable	E_sum equal ${E_sum}+${E}
variable	E_sum equal -78.1912540151102+${E}
variable	E_sum equal -78.1912540151102+-7.84564917897068
variable	Esq_sum equal ${Esq_sum}+${E}^2
variable	Esq_sum equal 611.389777321258+${E}^2
variable	Esq_sum equal 611.389777321258+-7.84564917897068^2
next		id
jump		SELF LP
kim param	set active_member_id 1 ${id}
kim param	set active_member_id 1 12
#=== BEGIN kim param set =====================================
pair_coeff * *  C active_member_id 1 12
#=== END kim param set =======================================
run		0
Neighbor list info ...
  update every 1 steps, delay 10 steps, check yes
  max neighbors/atom: 2000, page size: 100000
  master list distance cutoff = 7
  ghost atom cutoff = 7
  binsize = 3.5, bins = 2 1 1
  1 neighbor lists, perpetual/occasional/extra = 1 0 0
  (1) pair kim, perpetual
      attributes: full, newton off, cut 7
      pair build: full/bin/atomonly
      stencil: full/bin/3d
      bin: standard
Per MPI rank memory allocation (min/avg/max) = 3.105 | 3.105 | 3.105 Mbytes
Step Temp E_pair E_mol TotEng Press 
       0            0   -15.749189            0   -15.749189    -253515.1 
Loop time of 1.08499e-06 on 1 procs for 0 steps with 2 atoms

92.2% CPU use with 1 MPI tasks x 1 OpenMP threads

MPI task timing breakdown:
Section |  min time  |  avg time  |  max time  |%varavg| %total
---------------------------------------------------------------
Pair    | 0          | 0          | 0          |   0.0 |  0.00
Neigh   | 0          | 0          | 0          |   0.0 |  0.00
Comm    | 0          | 0          | 0          |   0.0 |  0.00
Output  | 0          | 0          | 0          |   0.0 |  0.00
Modify  | 0          | 0          | 0          |   0.0 |  0.00
Other   |            | 1.085e-06  |            |       |100.00

Nlocal:        2.00000 ave           2 max           2 min
Histogram: 1 0 0 0 0 0 0 0 0 0
Nghost:        111.000 ave         111 max         111 min
Histogram: 1 0 0 0 0 0 0 0 0 0
Neighs:         0.00000 ave           0 max           0 min
Histogram: 1 0 0 0 0 0 0 0 0 0
FullNghs:      114.000 ave         114 max         114 min
Histogram: 1 0 0 0 0 0 0 0 0 0

Total # of neighbors = 114
Ave neighs/atom = 57.000000
Neighbor list builds = 0
Dangerous builds = 0
variable	E equal pe/${natoms}
variable	E equal pe/2
variable	E_sum equal ${E_sum}+${E}
variable	E_sum equal -86.0369031940809+${E}
variable	E_sum equal -86.0369031940809+-7.87459471723717
variable	Esq_sum equal ${Esq_sum}+${E}^2
variable	Esq_sum equal 672.943988360741+${E}^2
variable	Esq_sum equal 672.943988360741+-7.87459471723717^2
next		id
jump		SELF LP
kim param	set active_member_id 1 ${id}
kim param	set active_member_id 1 13
#=== BEGIN kim param set =====================================
pair_coeff * *  C active_member_id 1 13
#=== END kim param set =======================================
run		0
Neighbor list info ...
  update every 1 steps, delay 10 steps, check yes
  max neighbors/atom: 2000, page size: 100000
  master list distance cutoff = 7
  ghost atom cutoff = 7
  binsize = 3.5, bins = 2 1 1
  1 neighbor lists, perpetual/occasional/extra = 1 0 0
  (1) pair kim, perpetual
      attributes: full, newton off, cut 7
      pair build: full/bin/atomonly
      stencil: full/bin/3d
      bin: standard
Per MPI rank memory allocation (min/avg/max) = 3.105 | 3.105 | 3.105 Mbytes
Step Temp E_pair E_mol TotEng Press 
       0            0   -15.641667            0   -15.641667   -313739.48 
Loop time of 1.13901e-06 on 1 procs for 0 steps with 2 atoms

175.6% CPU use with 1 MPI tasks x 1 OpenMP threads

MPI task timing breakdown:
Section |  min time  |  avg time  |  max time  |%varavg| %total
---------------------------------------------------------------
Pair    | 0          | 0          | 0          |   0.0 |  0.00
Neigh   | 0          | 0          | 0          |   0.0 |  0.00
Comm    | 0          | 0          | 0          |   0.0 |  0.00
Output  | 0          | 0          | 0          |   0.0 |  0.00
Modify  | 0          | 0          | 0          |   0.0 |  0.00
Other   |            | 1.139e-06  |            |       |100.00

Nlocal:        2.00000 ave           2 max           2 min
Histogram: 1 0 0 0 0 0 0 0 0 0
Nghost:        111.000 ave         111 max         111 min
Histogram: 1 0 0 0 0 0 0 0 0 0
Neighs:         0.00000 ave           0 max           0 min
Histogram: 1 0 0 0 0 0 0 0 0 0
FullNghs:      114.000 ave         114 max         114 min
Histogram: 1 0 0 0 0 0 0 0 0 0

Total # of neighbors = 114
Ave neighs/atom = 57.000000
Neighbor list builds = 0
Dangerous builds = 0
variable	E equal pe/${natoms}
variable	E equal pe/2
variable	E_sum equal ${E_sum}+${E}
variable	E_sum equal -93.9114979113181+${E}
variable	E_sum equal -93.9114979113181+-7.82083336697144
variable	Esq_sum equal ${Esq_sum}+${E}^2
variable	Esq_sum equal 734.953230321481+${E}^2
variable	Esq_sum equal 734.953230321481+-7.82083336697144^2
next		id
jump		SELF LP
kim param	set active_member_id 1 ${id}
kim param	set active_member_id 1 14
#=== BEGIN kim param set =====================================
pair_coeff * *  C active_member_id 1 14
#=== END kim param set =======================================
run		0
Neighbor list info ...
  update every 1 steps, delay 10 steps, check yes
  max neighbors/atom: 2000, page size: 100000
  master list distance cutoff = 7
  ghost atom cutoff = 7
  binsize = 3.5, bins = 2 1 1
  1 neighbor lists, perpetual/occasional/extra = 1 0 0
  (1) pair kim, perpetual
      attributes: full, newton off, cut 7
      pair build: full/bin/atomonly
      stencil: full/bin/3d
      bin: standard
Per MPI rank memory allocation (min/avg/max) = 3.105 | 3.105 | 3.105 Mbytes
Step Temp E_pair E_mol TotEng Press 
       0            0   -15.640131            0   -15.640131   -433921.34 
Loop time of 9.56003e-07 on 1 procs for 0 steps with 2 atoms

104.6% CPU use with 1 MPI tasks x 1 OpenMP threads

MPI task timing breakdown:
Section |  min time  |  avg time  |  max time  |%varavg| %total
---------------------------------------------------------------
Pair    | 0          | 0          | 0          |   0.0 |  0.00
Neigh   | 0          | 0          | 0          |   0.0 |  0.00
Comm    | 0          | 0          | 0          |   0.0 |  0.00
Output  | 0          | 0          | 0          |   0.0 |  0.00
Modify  | 0          | 0          | 0          |   0.0 |  0.00
Other   |            | 9.56e-07   |            |       |100.00

Nlocal:        2.00000 ave           2 max           2 min
Histogram: 1 0 0 0 0 0 0 0 0 0
Nghost:        111.000 ave         111 max         111 min
Histogram: 1 0 0 0 0 0 0 0 0 0
Neighs:         0.00000 ave           0 max           0 min
Histogram: 1 0 0 0 0 0 0 0 0 0
FullNghs:      114.000 ave         114 max         114 min
Histogram: 1 0 0 0 0 0 0 0 0 0

Total # of neighbors = 114
Ave neighs/atom = 57.000000
Neighbor list builds = 0
Dangerous builds = 0
variable	E equal pe/${natoms}
variable	E equal pe/2
variable	E_sum equal ${E_sum}+${E}
variable	E_sum equal -101.73233127829+${E}
variable	E_sum equal -101.73233127829+-7.82006530593394
variable	Esq_sum equal ${Esq_sum}+${E}^2
variable	Esq_sum equal 796.118664875415+${E}^2
variable	Esq_sum equal 796.118664875415+-7.82006530593394^2
next		id
jump		SELF LP
kim param	set active_member_id 1 ${id}
kim param	set active_member_id 1 15
#=== BEGIN kim param set =====================================
pair_coeff * *  C active_member_id 1 15
#=== END kim param set =======================================
run		0
Neighbor list info ...
  update every 1 steps, delay 10 steps, check yes
  max neighbors/atom: 2000, page size: 100000
  master list distance cutoff = 7
  ghost atom cutoff = 7
  binsize = 3.5, bins = 2 1 1
  1 neighbor lists, perpetual/occasional/extra = 1 0 0
  (1) pair kim, perpetual
      attributes: full, newton off, cut 7
      pair build: full/bin/atomonly
      stencil: full/bin/3d
      bin: standard
Per MPI rank memory allocation (min/avg/max) = 3.105 | 3.105 | 3.105 Mbytes
Step Temp E_pair E_mol TotEng Press 
       0            0   -15.704529            0   -15.704529   -297383.55 
Loop time of 1.02818e-06 on 1 procs for 0 steps with 2 atoms

97.3% CPU use with 1 MPI tasks x 1 OpenMP threads

MPI task timing breakdown:
Section |  min time  |  avg time  |  max time  |%varavg| %total
---------------------------------------------------------------
Pair    | 0          | 0          | 0          |   0.0 |  0.00
Neigh   | 0          | 0          | 0          |   0.0 |  0.00
Comm    | 0          | 0          | 0          |   0.0 |  0.00
Output  | 0          | 0          | 0          |   0.0 |  0.00
Modify  | 0          | 0          | 0          |   0.0 |  0.00
Other   |            | 1.028e-06  |            |       |100.00

Nlocal:        2.00000 ave           2 max           2 min
Histogram: 1 0 0 0 0 0 0 0 0 0
Nghost:        111.000 ave         111 max         111 min
Histogram: 1 0 0 0 0 0 0 0 0 0
Neighs:         0.00000 ave           0 max           0 min
Histogram: 1 0 0 0 0 0 0 0 0 0
FullNghs:      114.000 ave         114 max         114 min
Histogram: 1 0 0 0 0 0 0 0 0 0

Total # of neighbors = 114
Ave neighs/atom = 57.000000
Neighbor list builds = 0
Dangerous builds = 0
variable	E equal pe/${natoms}
variable	E equal pe/2
variable	E_sum equal ${E_sum}+${E}
variable	E_sum equal -109.552396584224+${E}
variable	E_sum equal -109.552396584224+-7.85226445977226
variable	Esq_sum equal ${Esq_sum}+${E}^2
variable	Esq_sum equal 857.272086264487+${E}^2
variable	Esq_sum equal 857.272086264487+-7.85226445977226^2
next		id
jump		SELF LP
kim param	set active_member_id 1 ${id}
kim param	set active_member_id 1 16
#=== BEGIN kim param set =====================================
pair_coeff * *  C active_member_id 1 16
#=== END kim param set =======================================
run		0
Neighbor list info ...
  update every 1 steps, delay 10 steps, check yes
  max neighbors/atom: 2000, page size: 100000
  master list distance cutoff = 7
  ghost atom cutoff = 7
  binsize = 3.5, bins = 2 1 1
  1 neighbor lists, perpetual/occasional/extra = 1 0 0
  (1) pair kim, perpetual
      attributes: full, newton off, cut 7
      pair build: full/bin/atomonly
      stencil: full/bin/3d
      bin: standard
Per MPI rank memory allocation (min/avg/max) = 3.105 | 3.105 | 3.105 Mbytes
Step Temp E_pair E_mol TotEng Press 
       0            0   -15.604189            0   -15.604189   -391476.25 
Loop time of 9.37842e-07 on 1 procs for 0 steps with 2 atoms

213.3% CPU use with 1 MPI tasks x 1 OpenMP threads

MPI task timing breakdown:
Section |  min time  |  avg time  |  max time  |%varavg| %total
---------------------------------------------------------------
Pair    | 0          | 0          | 0          |   0.0 |  0.00
Neigh   | 0          | 0          | 0          |   0.0 |  0.00
Comm    | 0          | 0          | 0          |   0.0 |  0.00
Output  | 0          | 0          | 0          |   0.0 |  0.00
Modify  | 0          | 0          | 0          |   0.0 |  0.00
Other   |            | 9.378e-07  |            |       |100.00

Nlocal:        2.00000 ave           2 max           2 min
Histogram: 1 0 0 0 0 0 0 0 0 0
Nghost:        111.000 ave         111 max         111 min
Histogram: 1 0 0 0 0 0 0 0 0 0
Neighs:         0.00000 ave           0 max           0 min
Histogram: 1 0 0 0 0 0 0 0 0 0
FullNghs:      114.000 ave         114 max         114 min
Histogram: 1 0 0 0 0 0 0 0 0 0

Total # of neighbors = 114
Ave neighs/atom = 57.000000
Neighbor list builds = 0
Dangerous builds = 0
variable	E equal pe/${natoms}
variable	E equal pe/2
variable	E_sum equal ${E_sum}+${E}
variable	E_sum equal -117.404661043996+${E}
variable	E_sum equal -117.404661043996+-7.80209468236801
variable	Esq_sum equal ${Esq_sum}+${E}^2
variable	Esq_sum equal 918.93014341069+${E}^2
variable	Esq_sum equal 918.93014341069+-7.80209468236801^2
next		id
jump		SELF LP
kim param	set active_member_id 1 ${id}
kim param	set active_member_id 1 17
#=== BEGIN kim param set =====================================
pair_coeff * *  C active_member_id 1 17
#=== END kim param set =======================================
run		0
Neighbor list info ...
  update every 1 steps, delay 10 steps, check yes
  max neighbors/atom: 2000, page size: 100000
  master list distance cutoff = 7
  ghost atom cutoff = 7
  binsize = 3.5, bins = 2 1 1
  1 neighbor lists, perpetual/occasional/extra = 1 0 0
  (1) pair kim, perpetual
      attributes: full, newton off, cut 7
      pair build: full/bin/atomonly
      stencil: full/bin/3d
      bin: standard
Per MPI rank memory allocation (min/avg/max) = 3.105 | 3.105 | 3.105 Mbytes
Step Temp E_pair E_mol TotEng Press 
       0            0    -15.61221            0    -15.61221   -307501.29 
Loop time of 9.71369e-07 on 1 procs for 0 steps with 2 atoms

205.9% CPU use with 1 MPI tasks x 1 OpenMP threads

MPI task timing breakdown:
Section |  min time  |  avg time  |  max time  |%varavg| %total
---------------------------------------------------------------
Pair    | 0          | 0          | 0          |   0.0 |  0.00
Neigh   | 0          | 0          | 0          |   0.0 |  0.00
Comm    | 0          | 0          | 0          |   0.0 |  0.00
Output  | 0          | 0          | 0          |   0.0 |  0.00
Modify  | 0          | 0          | 0          |   0.0 |  0.00
Other   |            | 9.714e-07  |            |       |100.00

Nlocal:        2.00000 ave           2 max           2 min
Histogram: 1 0 0 0 0 0 0 0 0 0
Nghost:        111.000 ave         111 max         111 min
Histogram: 1 0 0 0 0 0 0 0 0 0
Neighs:         0.00000 ave           0 max           0 min
Histogram: 1 0 0 0 0 0 0 0 0 0
FullNghs:      114.000 ave         114 max         114 min
Histogram: 1 0 0 0 0 0 0 0 0 0

Total # of neighbors = 114
Ave neighs/atom = 57.000000
Neighbor list builds = 0
Dangerous builds = 0
variable	E equal pe/${natoms}
variable	E equal pe/2
variable	E_sum equal ${E_sum}+${E}
variable	E_sum equal -125.206755726364+${E}
variable	E_sum equal -125.206755726364+-7.80610492361762
variable	Esq_sum equal ${Esq_sum}+${E}^2
variable	Esq_sum equal 979.802824843325+${E}^2
variable	Esq_sum equal 979.802824843325+-7.80610492361762^2
next		id
jump		SELF LP
kim param	set active_member_id 1 ${id}
kim param	set active_member_id 1 18
#=== BEGIN kim param set =====================================
pair_coeff * *  C active_member_id 1 18
#=== END kim param set =======================================
run		0
Neighbor list info ...
  update every 1 steps, delay 10 steps, check yes
  max neighbors/atom: 2000, page size: 100000
  master list distance cutoff = 7
  ghost atom cutoff = 7
  binsize = 3.5, bins = 2 1 1
  1 neighbor lists, perpetual/occasional/extra = 1 0 0
  (1) pair kim, perpetual
      attributes: full, newton off, cut 7
      pair build: full/bin/atomonly
      stencil: full/bin/3d
      bin: standard
Per MPI rank memory allocation (min/avg/max) = 3.105 | 3.105 | 3.105 Mbytes
Step Temp E_pair E_mol TotEng Press 
       0            0   -15.647501            0   -15.647501   -324339.89 
Loop time of 9.71835e-07 on 1 procs for 0 steps with 2 atoms

102.9% CPU use with 1 MPI tasks x 1 OpenMP threads

MPI task timing breakdown:
Section |  min time  |  avg time  |  max time  |%varavg| %total
---------------------------------------------------------------
Pair    | 0          | 0          | 0          |   0.0 |  0.00
Neigh   | 0          | 0          | 0          |   0.0 |  0.00
Comm    | 0          | 0          | 0          |   0.0 |  0.00
Output  | 0          | 0          | 0          |   0.0 |  0.00
Modify  | 0          | 0          | 0          |   0.0 |  0.00
Other   |            | 9.718e-07  |            |       |100.00

Nlocal:        2.00000 ave           2 max           2 min
Histogram: 1 0 0 0 0 0 0 0 0 0
Nghost:        111.000 ave         111 max         111 min
Histogram: 1 0 0 0 0 0 0 0 0 0
Neighs:         0.00000 ave           0 max           0 min
Histogram: 1 0 0 0 0 0 0 0 0 0
FullNghs:      114.000 ave         114 max         114 min
Histogram: 1 0 0 0 0 0 0 0 0 0

Total # of neighbors = 114
Ave neighs/atom = 57.000000
Neighbor list builds = 0
Dangerous builds = 0
variable	E equal pe/${natoms}
variable	E equal pe/2
variable	E_sum equal ${E_sum}+${E}
variable	E_sum equal -133.012860649982+${E}
variable	E_sum equal -133.012860649982+-7.82375065838918
variable	Esq_sum equal ${Esq_sum}+${E}^2
variable	Esq_sum equal 1040.73809892185+${E}^2
variable	Esq_sum equal 1040.73809892185+-7.82375065838918^2
next		id
jump		SELF LP
kim param	set active_member_id 1 ${id}
kim param	set active_member_id 1 19
#=== BEGIN kim param set =====================================
pair_coeff * *  C active_member_id 1 19
#=== END kim param set =======================================
run		0
Neighbor list info ...
  update every 1 steps, delay 10 steps, check yes
  max neighbors/atom: 2000, page size: 100000
  master list distance cutoff = 7
  ghost atom cutoff = 7
  binsize = 3.5, bins = 2 1 1
  1 neighbor lists, perpetual/occasional/extra = 1 0 0
  (1) pair kim, perpetual
      attributes: full, newton off, cut 7
      pair build: full/bin/atomonly
      stencil: full/bin/3d
      bin: standard
Per MPI rank memory allocation (min/avg/max) = 3.105 | 3.105 | 3.105 Mbytes
Step Temp E_pair E_mol TotEng Press 
       0            0   -15.738688            0   -15.738688   -298889.15 
Loop time of 9.6485e-07 on 1 procs for 0 steps with 2 atoms

103.6% CPU use with 1 MPI tasks x 1 OpenMP threads

MPI task timing breakdown:
Section |  min time  |  avg time  |  max time  |%varavg| %total
---------------------------------------------------------------
Pair    | 0          | 0          | 0          |   0.0 |  0.00
Neigh   | 0          | 0          | 0          |   0.0 |  0.00
Comm    | 0          | 0          | 0          |   0.0 |  0.00
Output  | 0          | 0          | 0          |   0.0 |  0.00
Modify  | 0          | 0          | 0          |   0.0 |  0.00
Other   |            | 9.649e-07  |            |       |100.00

Nlocal:        2.00000 ave           2 max           2 min
Histogram: 1 0 0 0 0 0 0 0 0 0
Nghost:        111.000 ave         111 max         111 min
Histogram: 1 0 0 0 0 0 0 0 0 0
Neighs:         0.00000 ave           0 max           0 min
Histogram: 1 0 0 0 0 0 0 0 0 0
FullNghs:      114.000 ave         114 max         114 min
Histogram: 1 0 0 0 0 0 0 0 0 0

Total # of neighbors = 114
Ave neighs/atom = 57.000000
Neighbor list builds = 0
Dangerous builds = 0
variable	E equal pe/${natoms}
variable	E equal pe/2
variable	E_sum equal ${E_sum}+${E}
variable	E_sum equal -140.836611308371+${E}
variable	E_sum equal -140.836611308371+-7.86934419589857
variable	Esq_sum equal ${Esq_sum}+${E}^2
variable	Esq_sum equal 1101.9491732865+${E}^2
variable	Esq_sum equal 1101.9491732865+-7.86934419589857^2
next		id
jump		SELF LP
kim param	set active_member_id 1 ${id}
kim param	set active_member_id 1 20
#=== BEGIN kim param set =====================================
pair_coeff * *  C active_member_id 1 20
#=== END kim param set =======================================
run		0
Neighbor list info ...
  update every 1 steps, delay 10 steps, check yes
  max neighbors/atom: 2000, page size: 100000
  master list distance cutoff = 7
  ghost atom cutoff = 7
  binsize = 3.5, bins = 2 1 1
  1 neighbor lists, perpetual/occasional/extra = 1 0 0
  (1) pair kim, perpetual
      attributes: full, newton off, cut 7
      pair build: full/bin/atomonly
      stencil: full/bin/3d
      bin: standard
Per MPI rank memory allocation (min/avg/max) = 3.105 | 3.105 | 3.105 Mbytes
Step Temp E_pair E_mol TotEng Press 
       0            0   -15.556461            0   -15.556461   -438003.23 
Loop time of 9.69041e-07 on 1 procs for 0 steps with 2 atoms

206.4% CPU use with 1 MPI tasks x 1 OpenMP threads

MPI task timing breakdown:
Section |  min time  |  avg time  |  max time  |%varavg| %total
---------------------------------------------------------------
Pair    | 0          | 0          | 0          |   0.0 |  0.00
Neigh   | 0          | 0          | 0          |   0.0 |  0.00
Comm    | 0          | 0          | 0          |   0.0 |  0.00
Output  | 0          | 0          | 0          |   0.0 |  0.00
Modify  | 0          | 0          | 0          |   0.0 |  0.00
Other   |            | 9.69e-07   |            |       |100.00

Nlocal:        2.00000 ave           2 max           2 min
Histogram: 1 0 0 0 0 0 0 0 0 0
Nghost:        111.000 ave         111 max         111 min
Histogram: 1 0 0 0 0 0 0 0 0 0
Neighs:         0.00000 ave           0 max           0 min
Histogram: 1 0 0 0 0 0 0 0 0 0
FullNghs:      114.000 ave         114 max         114 min
Histogram: 1 0 0 0 0 0 0 0 0 0

Total # of neighbors = 114
Ave neighs/atom = 57.000000
Neighbor list builds = 0
Dangerous builds = 0
variable	E equal pe/${natoms}
variable	E equal pe/2
variable	E_sum equal ${E_sum}+${E}
variable	E_sum equal -148.70595550427+${E}
variable	E_sum equal -148.70595550427+-7.77823071712207
variable	Esq_sum equal ${Esq_sum}+${E}^2
variable	Esq_sum equal 1163.87575136002+${E}^2
variable	Esq_sum equal 1163.87575136002+-7.77823071712207^2
next		id
jump		SELF LP
kim param	set active_member_id 1 ${id}
kim param	set active_member_id 1 21
#=== BEGIN kim param set =====================================
pair_coeff * *  C active_member_id 1 21
#=== END kim param set =======================================
run		0
Neighbor list info ...
  update every 1 steps, delay 10 steps, check yes
  max neighbors/atom: 2000, page size: 100000
  master list distance cutoff = 7
  ghost atom cutoff = 7
  binsize = 3.5, bins = 2 1 1
  1 neighbor lists, perpetual/occasional/extra = 1 0 0
  (1) pair kim, perpetual
      attributes: full, newton off, cut 7
      pair build: full/bin/atomonly
      stencil: full/bin/3d
      bin: standard
Per MPI rank memory allocation (min/avg/max) = 3.105 | 3.105 | 3.105 Mbytes
Step Temp E_pair E_mol TotEng Press 
       0            0   -15.625372            0   -15.625372   -412561.02 
Loop time of 9.51812e-07 on 1 procs for 0 steps with 2 atoms

105.1% CPU use with 1 MPI tasks x 1 OpenMP threads

MPI task timing breakdown:
Section |  min time  |  avg time  |  max time  |%varavg| %total
---------------------------------------------------------------
Pair    | 0          | 0          | 0          |   0.0 |  0.00
Neigh   | 0          | 0          | 0          |   0.0 |  0.00
Comm    | 0          | 0          | 0          |   0.0 |  0.00
Output  | 0          | 0          | 0          |   0.0 |  0.00
Modify  | 0          | 0          | 0          |   0.0 |  0.00
Other   |            | 9.518e-07  |            |       |100.00

Nlocal:        2.00000 ave           2 max           2 min
Histogram: 1 0 0 0 0 0 0 0 0 0
Nghost:        111.000 ave         111 max         111 min
Histogram: 1 0 0 0 0 0 0 0 0 0
Neighs:         0.00000 ave           0 max           0 min
Histogram: 1 0 0 0 0 0 0 0 0 0
FullNghs:      114.000 ave         114 max         114 min
Histogram: 1 0 0 0 0 0 0 0 0 0

Total # of neighbors = 114
Ave neighs/atom = 57.000000
Neighbor list builds = 0
Dangerous builds = 0
variable	E equal pe/${natoms}
variable	E equal pe/2
variable	E_sum equal ${E_sum}+${E}
variable	E_sum equal -156.484186221392+${E}
variable	E_sum equal -156.484186221392+-7.81268576390435
variable	Esq_sum equal ${Esq_sum}+${E}^2
variable	Esq_sum equal 1224.3766244488+${E}^2
variable	Esq_sum equal 1224.3766244488+-7.81268576390435^2
next		id
jump		SELF LP
kim param	set active_member_id 1 ${id}
kim param	set active_member_id 1 22
#=== BEGIN kim param set =====================================
pair_coeff * *  C active_member_id 1 22
#=== END kim param set =======================================
run		0
Neighbor list info ...
  update every 1 steps, delay 10 steps, check yes
  max neighbors/atom: 2000, page size: 100000
  master list distance cutoff = 7
  ghost atom cutoff = 7
  binsize = 3.5, bins = 2 1 1
  1 neighbor lists, perpetual/occasional/extra = 1 0 0
  (1) pair kim, perpetual
      attributes: full, newton off, cut 7
      pair build: full/bin/atomonly
      stencil: full/bin/3d
      bin: standard
Per MPI rank memory allocation (min/avg/max) = 3.105 | 3.105 | 3.105 Mbytes
Step Temp E_pair E_mol TotEng Press 
       0            0   -15.607411            0   -15.607411   -320793.04 
Loop time of 1.017e-06 on 1 procs for 0 steps with 2 atoms

196.7% CPU use with 1 MPI tasks x 1 OpenMP threads

MPI task timing breakdown:
Section |  min time  |  avg time  |  max time  |%varavg| %total
---------------------------------------------------------------
Pair    | 0          | 0          | 0          |   0.0 |  0.00
Neigh   | 0          | 0          | 0          |   0.0 |  0.00
Comm    | 0          | 0          | 0          |   0.0 |  0.00
Output  | 0          | 0          | 0          |   0.0 |  0.00
Modify  | 0          | 0          | 0          |   0.0 |  0.00
Other   |            | 1.017e-06  |            |       |100.00

Nlocal:        2.00000 ave           2 max           2 min
Histogram: 1 0 0 0 0 0 0 0 0 0
Nghost:        111.000 ave         111 max         111 min
Histogram: 1 0 0 0 0 0 0 0 0 0
Neighs:         0.00000 ave           0 max           0 min
Histogram: 1 0 0 0 0 0 0 0 0 0
FullNghs:      114.000 ave         114 max         114 min
Histogram: 1 0 0 0 0 0 0 0 0 0

Total # of neighbors = 114
Ave neighs/atom = 57.000000
Neighbor list builds = 0
Dangerous builds = 0
variable	E equal pe/${natoms}
variable	E equal pe/2
variable	E_sum equal ${E_sum}+${E}
variable	E_sum equal -164.296871985296+${E}
variable	E_sum equal -164.296871985296+-7.80370532617752
variable	Esq_sum equal ${Esq_sum}+${E}^2
variable	Esq_sum equal 1285.41468329431+${E}^2
variable	Esq_sum equal 1285.41468329431+-7.80370532617752^2
next		id
jump		SELF LP
kim param	set active_member_id 1 ${id}
kim param	set active_member_id 1 23
#=== BEGIN kim param set =====================================
pair_coeff * *  C active_member_id 1 23
#=== END kim param set =======================================
run		0
Neighbor list info ...
  update every 1 steps, delay 10 steps, check yes
  max neighbors/atom: 2000, page size: 100000
  master list distance cutoff = 7
  ghost atom cutoff = 7
  binsize = 3.5, bins = 2 1 1
  1 neighbor lists, perpetual/occasional/extra = 1 0 0
  (1) pair kim, perpetual
      attributes: full, newton off, cut 7
      pair build: full/bin/atomonly
      stencil: full/bin/3d
      bin: standard
Per MPI rank memory allocation (min/avg/max) = 3.105 | 3.105 | 3.105 Mbytes
Step Temp E_pair E_mol TotEng Press 
       0            0   -15.626989            0   -15.626989   -380605.69 
Loop time of 9.5414e-07 on 1 procs for 0 steps with 2 atoms

104.8% CPU use with 1 MPI tasks x 1 OpenMP threads

MPI task timing breakdown:
Section |  min time  |  avg time  |  max time  |%varavg| %total
---------------------------------------------------------------
Pair    | 0          | 0          | 0          |   0.0 |  0.00
Neigh   | 0          | 0          | 0          |   0.0 |  0.00
Comm    | 0          | 0          | 0          |   0.0 |  0.00
Output  | 0          | 0          | 0          |   0.0 |  0.00
Modify  | 0          | 0          | 0          |   0.0 |  0.00
Other   |            | 9.541e-07  |            |       |100.00

Nlocal:        2.00000 ave           2 max           2 min
Histogram: 1 0 0 0 0 0 0 0 0 0
Nghost:        111.000 ave         111 max         111 min
Histogram: 1 0 0 0 0 0 0 0 0 0
Neighs:         0.00000 ave           0 max           0 min
Histogram: 1 0 0 0 0 0 0 0 0 0
FullNghs:      114.000 ave         114 max         114 min
Histogram: 1 0 0 0 0 0 0 0 0 0

Total # of neighbors = 114
Ave neighs/atom = 57.000000
Neighbor list builds = 0
Dangerous builds = 0
variable	E equal pe/${natoms}
variable	E equal pe/2
variable	E_sum equal ${E_sum}+${E}
variable	E_sum equal -172.100577311474+${E}
variable	E_sum equal -172.100577311474+-7.81349469330244
variable	Esq_sum equal ${Esq_sum}+${E}^2
variable	Esq_sum equal 1346.31250011212+${E}^2
variable	Esq_sum equal 1346.31250011212+-7.81349469330244^2
next		id
jump		SELF LP
kim param	set active_member_id 1 ${id}
kim param	set active_member_id 1 24
#=== BEGIN kim param set =====================================
pair_coeff * *  C active_member_id 1 24
#=== END kim param set =======================================
run		0
Neighbor list info ...
  update every 1 steps, delay 10 steps, check yes
  max neighbors/atom: 2000, page size: 100000
  master list distance cutoff = 7
  ghost atom cutoff = 7
  binsize = 3.5, bins = 2 1 1
  1 neighbor lists, perpetual/occasional/extra = 1 0 0
  (1) pair kim, perpetual
      attributes: full, newton off, cut 7
      pair build: full/bin/atomonly
      stencil: full/bin/3d
      bin: standard
Per MPI rank memory allocation (min/avg/max) = 3.105 | 3.105 | 3.105 Mbytes
Step Temp E_pair E_mol TotEng Press 
       0            0   -15.576046            0   -15.576046   -372221.05 
Loop time of 9.75095e-07 on 1 procs for 0 steps with 2 atoms

102.6% CPU use with 1 MPI tasks x 1 OpenMP threads

MPI task timing breakdown:
Section |  min time  |  avg time  |  max time  |%varavg| %total
---------------------------------------------------------------
Pair    | 0          | 0          | 0          |   0.0 |  0.00
Neigh   | 0          | 0          | 0          |   0.0 |  0.00
Comm    | 0          | 0          | 0          |   0.0 |  0.00
Output  | 0          | 0          | 0          |   0.0 |  0.00
Modify  | 0          | 0          | 0          |   0.0 |  0.00
Other   |            | 9.751e-07  |            |       |100.00

Nlocal:        2.00000 ave           2 max           2 min
Histogram: 1 0 0 0 0 0 0 0 0 0
Nghost:        111.000 ave         111 max         111 min
Histogram: 1 0 0 0 0 0 0 0 0 0
Neighs:         0.00000 ave           0 max           0 min
Histogram: 1 0 0 0 0 0 0 0 0 0
FullNghs:      114.000 ave         114 max         114 min
Histogram: 1 0 0 0 0 0 0 0 0 0

Total # of neighbors = 114
Ave neighs/atom = 57.000000
Neighbor list builds = 0
Dangerous builds = 0
variable	E equal pe/${natoms}
variable	E equal pe/2
variable	E_sum equal ${E_sum}+${E}
variable	E_sum equal -179.914072004776+${E}
variable	E_sum equal -179.914072004776+-7.78802304992831
variable	Esq_sum equal ${Esq_sum}+${E}^2
variable	Esq_sum equal 1407.36319943439+${E}^2
variable	Esq_sum equal 1407.36319943439+-7.78802304992831^2
next		id
jump		SELF LP
kim param	set active_member_id 1 ${id}
kim param	set active_member_id 1 25
#=== BEGIN kim param set =====================================
pair_coeff * *  C active_member_id 1 25
#=== END kim param set =======================================
run		0
Neighbor list info ...
  update every 1 steps, delay 10 steps, check yes
  max neighbors/atom: 2000, page size: 100000
  master list distance cutoff = 7
  ghost atom cutoff = 7
  binsize = 3.5, bins = 2 1 1
  1 neighbor lists, perpetual/occasional/extra = 1 0 0
  (1) pair kim, perpetual
      attributes: full, newton off, cut 7
      pair build: full/bin/atomonly
      stencil: full/bin/3d
      bin: standard
Per MPI rank memory allocation (min/avg/max) = 3.105 | 3.105 | 3.105 Mbytes
Step Temp E_pair E_mol TotEng Press 
       0            0   -15.632028            0   -15.632028   -389309.32 
Loop time of 9.63919e-07 on 1 procs for 0 steps with 2 atoms

207.5% CPU use with 1 MPI tasks x 1 OpenMP threads

MPI task timing breakdown:
Section |  min time  |  avg time  |  max time  |%varavg| %total
---------------------------------------------------------------
Pair    | 0          | 0          | 0          |   0.0 |  0.00
Neigh   | 0          | 0          | 0          |   0.0 |  0.00
Comm    | 0          | 0          | 0          |   0.0 |  0.00
Output  | 0          | 0          | 0          |   0.0 |  0.00
Modify  | 0          | 0          | 0          |   0.0 |  0.00
Other   |            | 9.639e-07  |            |       |100.00

Nlocal:        2.00000 ave           2 max           2 min
Histogram: 1 0 0 0 0 0 0 0 0 0
Nghost:        111.000 ave         111 max         111 min
Histogram: 1 0 0 0 0 0 0 0 0 0
Neighs:         0.00000 ave           0 max           0 min
Histogram: 1 0 0 0 0 0 0 0 0 0
FullNghs:      114.000 ave         114 max         114 min
Histogram: 1 0 0 0 0 0 0 0 0 0

Total # of neighbors = 114
Ave neighs/atom = 57.000000
Neighbor list builds = 0
Dangerous builds = 0
variable	E equal pe/${natoms}
variable	E equal pe/2
variable	E_sum equal ${E_sum}+${E}
variable	E_sum equal -187.702095054704+${E}
variable	E_sum equal -187.702095054704+-7.81601407592753
variable	Esq_sum equal ${Esq_sum}+${E}^2
variable	Esq_sum equal 1468.0165024606+${E}^2
variable	Esq_sum equal 1468.0165024606+-7.81601407592753^2
next		id
jump		SELF LP
kim param	set active_member_id 1 ${id}
kim param	set active_member_id 1 26
#=== BEGIN kim param set =====================================
pair_coeff * *  C active_member_id 1 26
#=== END kim param set =======================================
run		0
Neighbor list info ...
  update every 1 steps, delay 10 steps, check yes
  max neighbors/atom: 2000, page size: 100000
  master list distance cutoff = 7
  ghost atom cutoff = 7
  binsize = 3.5, bins = 2 1 1
  1 neighbor lists, perpetual/occasional/extra = 1 0 0
  (1) pair kim, perpetual
      attributes: full, newton off, cut 7
      pair build: full/bin/atomonly
      stencil: full/bin/3d
      bin: standard
Per MPI rank memory allocation (min/avg/max) = 3.105 | 3.105 | 3.105 Mbytes
Step Temp E_pair E_mol TotEng Press 
       0            0   -15.653736            0   -15.653736    -315497.5 
Loop time of 9.7882e-07 on 1 procs for 0 steps with 2 atoms

102.2% CPU use with 1 MPI tasks x 1 OpenMP threads

MPI task timing breakdown:
Section |  min time  |  avg time  |  max time  |%varavg| %total
---------------------------------------------------------------
Pair    | 0          | 0          | 0          |   0.0 |  0.00
Neigh   | 0          | 0          | 0          |   0.0 |  0.00
Comm    | 0          | 0          | 0          |   0.0 |  0.00
Output  | 0          | 0          | 0          |   0.0 |  0.00
Modify  | 0          | 0          | 0          |   0.0 |  0.00
Other   |            | 9.788e-07  |            |       |100.00

Nlocal:        2.00000 ave           2 max           2 min
Histogram: 1 0 0 0 0 0 0 0 0 0
Nghost:        111.000 ave         111 max         111 min
Histogram: 1 0 0 0 0 0 0 0 0 0
Neighs:         0.00000 ave           0 max           0 min
Histogram: 1 0 0 0 0 0 0 0 0 0
FullNghs:      114.000 ave         114 max         114 min
Histogram: 1 0 0 0 0 0 0 0 0 0

Total # of neighbors = 114
Ave neighs/atom = 57.000000
Neighbor list builds = 0
Dangerous builds = 0
variable	E equal pe/${natoms}
variable	E equal pe/2
variable	E_sum equal ${E_sum}+${E}
variable	E_sum equal -195.518109130632+${E}
variable	E_sum equal -195.518109130632+-7.82686781839044
variable	Esq_sum equal ${Esq_sum}+${E}^2
variable	Esq_sum equal 1529.1065784957+${E}^2
variable	Esq_sum equal 1529.1065784957+-7.82686781839044^2
next		id
jump		SELF LP
kim param	set active_member_id 1 ${id}
kim param	set active_member_id 1 27
#=== BEGIN kim param set =====================================
pair_coeff * *  C active_member_id 1 27
#=== END kim param set =======================================
run		0
Neighbor list info ...
  update every 1 steps, delay 10 steps, check yes
  max neighbors/atom: 2000, page size: 100000
  master list distance cutoff = 7
  ghost atom cutoff = 7
  binsize = 3.5, bins = 2 1 1
  1 neighbor lists, perpetual/occasional/extra = 1 0 0
  (1) pair kim, perpetual
      attributes: full, newton off, cut 7
      pair build: full/bin/atomonly
      stencil: full/bin/3d
      bin: standard
Per MPI rank memory allocation (min/avg/max) = 3.105 | 3.105 | 3.105 Mbytes
Step Temp E_pair E_mol TotEng Press 
       0            0   -15.745754            0   -15.745754   -234016.23 
Loop time of 9.89996e-07 on 1 procs for 0 steps with 2 atoms

202.0% CPU use with 1 MPI tasks x 1 OpenMP threads

MPI task timing breakdown:
Section |  min time  |  avg time  |  max time  |%varavg| %total
---------------------------------------------------------------
Pair    | 0          | 0          | 0          |   0.0 |  0.00
Neigh   | 0          | 0          | 0          |   0.0 |  0.00
Comm    | 0          | 0          | 0          |   0.0 |  0.00
Output  | 0          | 0          | 0          |   0.0 |  0.00
Modify  | 0          | 0          | 0          |   0.0 |  0.00
Other   |            | 9.9e-07    |            |       |100.00

Nlocal:        2.00000 ave           2 max           2 min
Histogram: 1 0 0 0 0 0 0 0 0 0
Nghost:        111.000 ave         111 max         111 min
Histogram: 1 0 0 0 0 0 0 0 0 0
Neighs:         0.00000 ave           0 max           0 min
Histogram: 1 0 0 0 0 0 0 0 0 0
FullNghs:      114.000 ave         114 max         114 min
Histogram: 1 0 0 0 0 0 0 0 0 0

Total # of neighbors = 114
Ave neighs/atom = 57.000000
Neighbor list builds = 0
Dangerous builds = 0
variable	E equal pe/${natoms}
variable	E equal pe/2
variable	E_sum equal ${E_sum}+${E}
variable	E_sum equal -203.344976949022+${E}
variable	E_sum equal -203.344976949022+-7.87287721615214
variable	Esq_sum equal ${Esq_sum}+${E}^2
variable	Esq_sum equal 1590.36643834226+${E}^2
variable	Esq_sum equal 1590.36643834226+-7.87287721615214^2
next		id
jump		SELF LP
kim param	set active_member_id 1 ${id}
kim param	set active_member_id 1 28
#=== BEGIN kim param set =====================================
pair_coeff * *  C active_member_id 1 28
#=== END kim param set =======================================
run		0
Neighbor list info ...
  update every 1 steps, delay 10 steps, check yes
  max neighbors/atom: 2000, page size: 100000
  master list distance cutoff = 7
  ghost atom cutoff = 7
  binsize = 3.5, bins = 2 1 1
  1 neighbor lists, perpetual/occasional/extra = 1 0 0
  (1) pair kim, perpetual
      attributes: full, newton off, cut 7
      pair build: full/bin/atomonly
      stencil: full/bin/3d
      bin: standard
Per MPI rank memory allocation (min/avg/max) = 3.105 | 3.105 | 3.105 Mbytes
Step Temp E_pair E_mol TotEng Press 
       0            0   -15.642709            0   -15.642709   -325556.81 
Loop time of 9.05246e-07 on 1 procs for 0 steps with 2 atoms

220.9% CPU use with 1 MPI tasks x 1 OpenMP threads

MPI task timing breakdown:
Section |  min time  |  avg time  |  max time  |%varavg| %total
---------------------------------------------------------------
Pair    | 0          | 0          | 0          |   0.0 |  0.00
Neigh   | 0          | 0          | 0          |   0.0 |  0.00
Comm    | 0          | 0          | 0          |   0.0 |  0.00
Output  | 0          | 0          | 0          |   0.0 |  0.00
Modify  | 0          | 0          | 0          |   0.0 |  0.00
Other   |            | 9.052e-07  |            |       |100.00

Nlocal:        2.00000 ave           2 max           2 min
Histogram: 1 0 0 0 0 0 0 0 0 0
Nghost:        111.000 ave         111 max         111 min
Histogram: 1 0 0 0 0 0 0 0 0 0
Neighs:         0.00000 ave           0 max           0 min
Histogram: 1 0 0 0 0 0 0 0 0 0
FullNghs:      114.000 ave         114 max         114 min
Histogram: 1 0 0 0 0 0 0 0 0 0

Total # of neighbors = 114
Ave neighs/atom = 57.000000
Neighbor list builds = 0
Dangerous builds = 0
variable	E equal pe/${natoms}
variable	E equal pe/2
variable	E_sum equal ${E_sum}+${E}
variable	E_sum equal -211.217854165174+${E}
variable	E_sum equal -211.217854165174+-7.8213544584687
variable	Esq_sum equal ${Esq_sum}+${E}^2
variable	Esq_sum equal 1652.34863400287+${E}^2
variable	Esq_sum equal 1652.34863400287+-7.8213544584687^2
next		id
jump		SELF LP
kim param	set active_member_id 1 ${id}
kim param	set active_member_id 1 29
#=== BEGIN kim param set =====================================
pair_coeff * *  C active_member_id 1 29
#=== END kim param set =======================================
run		0
Neighbor list info ...
  update every 1 steps, delay 10 steps, check yes
  max neighbors/atom: 2000, page size: 100000
  master list distance cutoff = 7
  ghost atom cutoff = 7
  binsize = 3.5, bins = 2 1 1
  1 neighbor lists, perpetual/occasional/extra = 1 0 0
  (1) pair kim, perpetual
      attributes: full, newton off, cut 7
      pair build: full/bin/atomonly
      stencil: full/bin/3d
      bin: standard
Per MPI rank memory allocation (min/avg/max) = 3.105 | 3.105 | 3.105 Mbytes
Step Temp E_pair E_mol TotEng Press 
       0            0   -15.636314            0   -15.636314   -296741.95 
Loop time of 1.00676e-06 on 1 procs for 0 steps with 2 atoms

198.7% CPU use with 1 MPI tasks x 1 OpenMP threads

MPI task timing breakdown:
Section |  min time  |  avg time  |  max time  |%varavg| %total
---------------------------------------------------------------
Pair    | 0          | 0          | 0          |   0.0 |  0.00
Neigh   | 0          | 0          | 0          |   0.0 |  0.00
Comm    | 0          | 0          | 0          |   0.0 |  0.00
Output  | 0          | 0          | 0          |   0.0 |  0.00
Modify  | 0          | 0          | 0          |   0.0 |  0.00
Other   |            | 1.007e-06  |            |       |100.00

Nlocal:        2.00000 ave           2 max           2 min
Histogram: 1 0 0 0 0 0 0 0 0 0
Nghost:        111.000 ave         111 max         111 min
Histogram: 1 0 0 0 0 0 0 0 0 0
Neighs:         0.00000 ave           0 max           0 min
Histogram: 1 0 0 0 0 0 0 0 0 0
FullNghs:      114.000 ave         114 max         114 min
Histogram: 1 0 0 0 0 0 0 0 0 0

Total # of neighbors = 114
Ave neighs/atom = 57.000000
Neighbor list builds = 0
Dangerous builds = 0
variable	E equal pe/${natoms}
variable	E equal pe/2
variable	E_sum equal ${E_sum}+${E}
variable	E_sum equal -219.039208623643+${E}
variable	E_sum equal -219.039208623643+-7.81815702962307
variable	Esq_sum equal ${Esq_sum}+${E}^2
variable	Esq_sum equal 1713.52221956788+${E}^2
variable	Esq_sum equal 1713.52221956788+-7.81815702962307^2
next		id
jump		SELF LP
kim param	set active_member_id 1 ${id}
kim param	set active_member_id 1 30
#=== BEGIN kim param set =====================================
pair_coeff * *  C active_member_id 1 30
#=== END kim param set =======================================
run		0
Neighbor list info ...
  update every 1 steps, delay 10 steps, check yes
  max neighbors/atom: 2000, page size: 100000
  master list distance cutoff = 7
  ghost atom cutoff = 7
  binsize = 3.5, bins = 2 1 1
  1 neighbor lists, perpetual/occasional/extra = 1 0 0
  (1) pair kim, perpetual
      attributes: full, newton off, cut 7
      pair build: full/bin/atomonly
      stencil: full/bin/3d
      bin: standard
Per MPI rank memory allocation (min/avg/max) = 3.105 | 3.105 | 3.105 Mbytes
Step Temp E_pair E_mol TotEng Press 
       0            0   -15.689477            0   -15.689477   -261474.67 
Loop time of 9.36911e-07 on 1 procs for 0 steps with 2 atoms

213.5% CPU use with 1 MPI tasks x 1 OpenMP threads

MPI task timing breakdown:
Section |  min time  |  avg time  |  max time  |%varavg| %total
---------------------------------------------------------------
Pair    | 0          | 0          | 0          |   0.0 |  0.00
Neigh   | 0          | 0          | 0          |   0.0 |  0.00
Comm    | 0          | 0          | 0          |   0.0 |  0.00
Output  | 0          | 0          | 0          |   0.0 |  0.00
Modify  | 0          | 0          | 0          |   0.0 |  0.00
Other   |            | 9.369e-07  |            |       |100.00

Nlocal:        2.00000 ave           2 max           2 min
Histogram: 1 0 0 0 0 0 0 0 0 0
Nghost:        111.000 ave         111 max         111 min
Histogram: 1 0 0 0 0 0 0 0 0 0
Neighs:         0.00000 ave           0 max           0 min
Histogram: 1 0 0 0 0 0 0 0 0 0
FullNghs:      114.000 ave         114 max         114 min
Histogram: 1 0 0 0 0 0 0 0 0 0

Total # of neighbors = 114
Ave neighs/atom = 57.000000
Neighbor list builds = 0
Dangerous builds = 0
variable	E equal pe/${natoms}
variable	E equal pe/2
variable	E_sum equal ${E_sum}+${E}
variable	E_sum equal -226.857365653266+${E}
variable	E_sum equal -226.857365653266+-7.84473865554523
variable	Esq_sum equal ${Esq_sum}+${E}^2
variable	Esq_sum equal 1774.64579890772+${E}^2
variable	Esq_sum equal 1774.64579890772+-7.84473865554523^2
next		id
jump		SELF LP
kim param	set active_member_id 1 ${id}
kim param	set active_member_id 1 31
#=== BEGIN kim param set =====================================
pair_coeff * *  C active_member_id 1 31
#=== END kim param set =======================================
run		0
Neighbor list info ...
  update every 1 steps, delay 10 steps, check yes
  max neighbors/atom: 2000, page size: 100000
  master list distance cutoff = 7
  ghost atom cutoff = 7
  binsize = 3.5, bins = 2 1 1
  1 neighbor lists, perpetual/occasional/extra = 1 0 0
  (1) pair kim, perpetual
      attributes: full, newton off, cut 7
      pair build: full/bin/atomonly
      stencil: full/bin/3d
      bin: standard
Per MPI rank memory allocation (min/avg/max) = 3.105 | 3.105 | 3.105 Mbytes
Step Temp E_pair E_mol TotEng Press 
       0            0   -15.373479            0   -15.373479    -460535.8 
Loop time of 9.49949e-07 on 1 procs for 0 steps with 2 atoms

210.5% CPU use with 1 MPI tasks x 1 OpenMP threads

MPI task timing breakdown:
Section |  min time  |  avg time  |  max time  |%varavg| %total
---------------------------------------------------------------
Pair    | 0          | 0          | 0          |   0.0 |  0.00
Neigh   | 0          | 0          | 0          |   0.0 |  0.00
Comm    | 0          | 0          | 0          |   0.0 |  0.00
Output  | 0          | 0          | 0          |   0.0 |  0.00
Modify  | 0          | 0          | 0          |   0.0 |  0.00
Other   |            | 9.499e-07  |            |       |100.00

Nlocal:        2.00000 ave           2 max           2 min
Histogram: 1 0 0 0 0 0 0 0 0 0
Nghost:        111.000 ave         111 max         111 min
Histogram: 1 0 0 0 0 0 0 0 0 0
Neighs:         0.00000 ave           0 max           0 min
Histogram: 1 0 0 0 0 0 0 0 0 0
FullNghs:      114.000 ave         114 max         114 min
Histogram: 1 0 0 0 0 0 0 0 0 0

Total # of neighbors = 114
Ave neighs/atom = 57.000000
Neighbor list builds = 0
Dangerous builds = 0
variable	E equal pe/${natoms}
variable	E equal pe/2
variable	E_sum equal ${E_sum}+${E}
variable	E_sum equal -234.702104308811+${E}
variable	E_sum equal -234.702104308811+-7.68673927060638
variable	Esq_sum equal ${Esq_sum}+${E}^2
variable	Esq_sum equal 1836.18572348153+${E}^2
variable	Esq_sum equal 1836.18572348153+-7.68673927060638^2
next		id
jump		SELF LP
kim param	set active_member_id 1 ${id}
kim param	set active_member_id 1 32
#=== BEGIN kim param set =====================================
pair_coeff * *  C active_member_id 1 32
#=== END kim param set =======================================
run		0
Neighbor list info ...
  update every 1 steps, delay 10 steps, check yes
  max neighbors/atom: 2000, page size: 100000
  master list distance cutoff = 7
  ghost atom cutoff = 7
  binsize = 3.5, bins = 2 1 1
  1 neighbor lists, perpetual/occasional/extra = 1 0 0
  (1) pair kim, perpetual
      attributes: full, newton off, cut 7
      pair build: full/bin/atomonly
      stencil: full/bin/3d
      bin: standard
Per MPI rank memory allocation (min/avg/max) = 3.105 | 3.105 | 3.105 Mbytes
Step Temp E_pair E_mol TotEng Press 
       0            0   -15.491462            0   -15.491462   -411214.57 
Loop time of 9.20147e-07 on 1 procs for 0 steps with 2 atoms

217.4% CPU use with 1 MPI tasks x 1 OpenMP threads

MPI task timing breakdown:
Section |  min time  |  avg time  |  max time  |%varavg| %total
---------------------------------------------------------------
Pair    | 0          | 0          | 0          |   0.0 |  0.00
Neigh   | 0          | 0          | 0          |   0.0 |  0.00
Comm    | 0          | 0          | 0          |   0.0 |  0.00
Output  | 0          | 0          | 0          |   0.0 |  0.00
Modify  | 0          | 0          | 0          |   0.0 |  0.00
Other   |            | 9.201e-07  |            |       |100.00

Nlocal:        2.00000 ave           2 max           2 min
Histogram: 1 0 0 0 0 0 0 0 0 0
Nghost:        111.000 ave         111 max         111 min
Histogram: 1 0 0 0 0 0 0 0 0 0
Neighs:         0.00000 ave           0 max           0 min
Histogram: 1 0 0 0 0 0 0 0 0 0
FullNghs:      114.000 ave         114 max         114 min
Histogram: 1 0 0 0 0 0 0 0 0 0

Total # of neighbors = 114
Ave neighs/atom = 57.000000
Neighbor list builds = 0
Dangerous builds = 0
variable	E equal pe/${natoms}
variable	E equal pe/2
variable	E_sum equal ${E_sum}+${E}
variable	E_sum equal -242.388843579417+${E}
variable	E_sum equal -242.388843579417+-7.74573083962916
variable	Esq_sum equal ${Esq_sum}+${E}^2
variable	Esq_sum equal 1895.27168409581+${E}^2
variable	Esq_sum equal 1895.27168409581+-7.74573083962916^2
next		id
jump		SELF LP
kim param	set active_member_id 1 ${id}
kim param	set active_member_id 1 33
#=== BEGIN kim param set =====================================
pair_coeff * *  C active_member_id 1 33
#=== END kim param set =======================================
run		0
Neighbor list info ...
  update every 1 steps, delay 10 steps, check yes
  max neighbors/atom: 2000, page size: 100000
  master list distance cutoff = 7
  ghost atom cutoff = 7
  binsize = 3.5, bins = 2 1 1
  1 neighbor lists, perpetual/occasional/extra = 1 0 0
  (1) pair kim, perpetual
      attributes: full, newton off, cut 7
      pair build: full/bin/atomonly
      stencil: full/bin/3d
      bin: standard
Per MPI rank memory allocation (min/avg/max) = 3.105 | 3.105 | 3.105 Mbytes
Step Temp E_pair E_mol TotEng Press 
       0            0   -15.646385            0   -15.646385    -242568.2 
Loop time of 9.53209e-07 on 1 procs for 0 steps with 2 atoms

104.9% CPU use with 1 MPI tasks x 1 OpenMP threads

MPI task timing breakdown:
Section |  min time  |  avg time  |  max time  |%varavg| %total
---------------------------------------------------------------
Pair    | 0          | 0          | 0          |   0.0 |  0.00
Neigh   | 0          | 0          | 0          |   0.0 |  0.00
Comm    | 0          | 0          | 0          |   0.0 |  0.00
Output  | 0          | 0          | 0          |   0.0 |  0.00
Modify  | 0          | 0          | 0          |   0.0 |  0.00
Other   |            | 9.532e-07  |            |       |100.00

Nlocal:        2.00000 ave           2 max           2 min
Histogram: 1 0 0 0 0 0 0 0 0 0
Nghost:        111.000 ave         111 max         111 min
Histogram: 1 0 0 0 0 0 0 0 0 0
[...]
FullNghs:      114.000 ave         114 max         114 min
Histogram: 1 0 0 0 0 0 0 0 0 0

Total # of neighbors = 114
Ave neighs/atom = 57.000000
Neighbor list builds = 0
Dangerous builds = 0
variable	E equal pe/${natoms}
variable	E equal pe/2
variable	E_sum equal ${E_sum}+${E}
variable	E_sum equal -711.382089321042+${E}
variable	E_sum equal -711.382089321042+-7.81127269976296
variable	Esq_sum equal ${Esq_sum}+${E}^2
variable	Esq_sum equal 5561.241581841+${E}^2
variable	Esq_sum equal 5561.241581841+-7.81127269976296^2
next		id
jump		SELF LP
kim param	set active_member_id 1 ${id}
kim param	set active_member_id 1 93
#=== BEGIN kim param set =====================================
pair_coeff * *  C active_member_id 1 93
#=== END kim param set =======================================
run		0
Neighbor list info ...
  update every 1 steps, delay 10 steps, check yes
  max neighbors/atom: 2000, page size: 100000
  master list distance cutoff = 7
  ghost atom cutoff = 7
  binsize = 3.5, bins = 2 1 1
  1 neighbor lists, perpetual/occasional/extra = 1 0 0
  (1) pair kim, perpetual
      attributes: full, newton off, cut 7
      pair build: full/bin/atomonly
      stencil: full/bin/3d
      bin: standard
Per MPI rank memory allocation (min/avg/max) = 3.105 | 3.105 | 3.105 Mbytes
Step Temp E_pair E_mol TotEng Press 
       0            0   -15.553694            0   -15.553694   -434615.34 
Loop time of 9.08971e-07 on 1 procs for 0 steps with 2 atoms

220.0% CPU use with 1 MPI tasks x 1 OpenMP threads

MPI task timing breakdown:
Section |  min time  |  avg time  |  max time  |%varavg| %total
---------------------------------------------------------------
Pair    | 0          | 0          | 0          |   0.0 |  0.00
Neigh   | 0          | 0          | 0          |   0.0 |  0.00
Comm    | 0          | 0          | 0          |   0.0 |  0.00
Output  | 0          | 0          | 0          |   0.0 |  0.00
Modify  | 0          | 0          | 0          |   0.0 |  0.00
Other   |            | 9.09e-07   |            |       |100.00

Nlocal:        2.00000 ave           2 max           2 min
Histogram: 1 0 0 0 0 0 0 0 0 0
Nghost:        111.000 ave         111 max         111 min
Histogram: 1 0 0 0 0 0 0 0 0 0
Neighs:         0.00000 ave           0 max           0 min
Histogram: 1 0 0 0 0 0 0 0 0 0
FullNghs:      114.000 ave         114 max         114 min
Histogram: 1 0 0 0 0 0 0 0 0 0

Total # of neighbors = 114
Ave neighs/atom = 57.000000
Neighbor list builds = 0
Dangerous builds = 0
variable	E equal pe/${natoms}
variable	E equal pe/2
variable	E_sum equal ${E_sum}+${E}
variable	E_sum equal -719.193362020805+${E}
variable	E_sum equal -719.193362020805+-7.77684715299161
variable	Esq_sum equal ${Esq_sum}+${E}^2
variable	Esq_sum equal 5622.25756303106+${E}^2
variable	Esq_sum equal 5622.25756303106+-7.77684715299161^2
next		id
jump		SELF LP
kim param	set active_member_id 1 ${id}
kim param	set active_member_id 1 94
#=== BEGIN kim param set =====================================
pair_coeff * *  C active_member_id 1 94
#=== END kim param set =======================================
run		0
Neighbor list info ...
  update every 1 steps, delay 10 steps, check yes
  max neighbors/atom: 2000, page size: 100000
  master list distance cutoff = 7
  ghost atom cutoff = 7
  binsize = 3.5, bins = 2 1 1
  1 neighbor lists, perpetual/occasional/extra = 1 0 0
  (1) pair kim, perpetual
      attributes: full, newton off, cut 7
      pair build: full/bin/atomonly
      stencil: full/bin/3d
      bin: standard
Per MPI rank memory allocation (min/avg/max) = 3.105 | 3.105 | 3.105 Mbytes
Step Temp E_pair E_mol TotEng Press 
       0            0   -15.633441            0   -15.633441   -345479.14 
Loop time of 1.06404e-06 on 1 procs for 0 steps with 2 atoms

94.0% CPU use with 1 MPI tasks x 1 OpenMP threads

MPI task timing breakdown:
Section |  min time  |  avg time  |  max time  |%varavg| %total
---------------------------------------------------------------
Pair    | 0          | 0          | 0          |   0.0 |  0.00
Neigh   | 0          | 0          | 0          |   0.0 |  0.00
Comm    | 0          | 0          | 0          |   0.0 |  0.00
Output  | 0          | 0          | 0          |   0.0 |  0.00
Modify  | 0          | 0          | 0          |   0.0 |  0.00
Other   |            | 1.064e-06  |            |       |100.00

Nlocal:        2.00000 ave           2 max           2 min
Histogram: 1 0 0 0 0 0 0 0 0 0
Nghost:        111.000 ave         111 max         111 min
Histogram: 1 0 0 0 0 0 0 0 0 0
Neighs:         0.00000 ave           0 max           0 min
Histogram: 1 0 0 0 0 0 0 0 0 0
FullNghs:      114.000 ave         114 max         114 min
Histogram: 1 0 0 0 0 0 0 0 0 0

Total # of neighbors = 114
Ave neighs/atom = 57.000000
Neighbor list builds = 0
Dangerous builds = 0
variable	E equal pe/${natoms}
variable	E equal pe/2
variable	E_sum equal ${E_sum}+${E}
variable	E_sum equal -726.970209173797+${E}
variable	E_sum equal -726.970209173797+-7.81672030310313
variable	Esq_sum equal ${Esq_sum}+${E}^2
variable	Esq_sum equal 5682.73691467205+${E}^2
variable	Esq_sum equal 5682.73691467205+-7.81672030310313^2
next		id
jump		SELF LP
kim param	set active_member_id 1 ${id}
kim param	set active_member_id 1 95
#=== BEGIN kim param set =====================================
pair_coeff * *  C active_member_id 1 95
#=== END kim param set =======================================
run		0
Neighbor list info ...
  update every 1 steps, delay 10 steps, check yes
  max neighbors/atom: 2000, page size: 100000
  master list distance cutoff = 7
  ghost atom cutoff = 7
  binsize = 3.5, bins = 2 1 1
  1 neighbor lists, perpetual/occasional/extra = 1 0 0
  (1) pair kim, perpetual
      attributes: full, newton off, cut 7
      pair build: full/bin/atomonly
      stencil: full/bin/3d
      bin: standard
Per MPI rank memory allocation (min/avg/max) = 3.105 | 3.105 | 3.105 Mbytes
Step Temp E_pair E_mol TotEng Press 
       0            0   -15.598803            0   -15.598803   -292517.56 
Loop time of 1.00816e-06 on 1 procs for 0 steps with 2 atoms

99.2% CPU use with 1 MPI tasks x 1 OpenMP threads

MPI task timing breakdown:
Section |  min time  |  avg time  |  max time  |%varavg| %total
---------------------------------------------------------------
Pair    | 0          | 0          | 0          |   0.0 |  0.00
Neigh   | 0          | 0          | 0          |   0.0 |  0.00
Comm    | 0          | 0          | 0          |   0.0 |  0.00
Output  | 0          | 0          | 0          |   0.0 |  0.00
Modify  | 0          | 0          | 0          |   0.0 |  0.00
Other   |            | 1.008e-06  |            |       |100.00

Nlocal:        2.00000 ave           2 max           2 min
Histogram: 1 0 0 0 0 0 0 0 0 0
Nghost:        111.000 ave         111 max         111 min
Histogram: 1 0 0 0 0 0 0 0 0 0
Neighs:         0.00000 ave           0 max           0 min
Histogram: 1 0 0 0 0 0 0 0 0 0
FullNghs:      114.000 ave         114 max         114 min
Histogram: 1 0 0 0 0 0 0 0 0 0

Total # of neighbors = 114
Ave neighs/atom = 57.000000
Neighbor list builds = 0
Dangerous builds = 0
variable	E equal pe/${natoms}
variable	E equal pe/2
variable	E_sum equal ${E_sum}+${E}
variable	E_sum equal -734.7869294769+${E}
variable	E_sum equal -734.7869294769+-7.79940167498621
variable	Esq_sum equal ${Esq_sum}+${E}^2
variable	Esq_sum equal 5743.83803096899+${E}^2
variable	Esq_sum equal 5743.83803096899+-7.79940167498621^2
next		id
jump		SELF LP
kim param	set active_member_id 1 ${id}
kim param	set active_member_id 1 96
#=== BEGIN kim param set =====================================
pair_coeff * *  C active_member_id 1 96
#=== END kim param set =======================================
run		0
Neighbor list info ...
  update every 1 steps, delay 10 steps, check yes
  max neighbors/atom: 2000, page size: 100000
  master list distance cutoff = 7
  ghost atom cutoff = 7
  binsize = 3.5, bins = 2 1 1
  1 neighbor lists, perpetual/occasional/extra = 1 0 0
  (1) pair kim, perpetual
      attributes: full, newton off, cut 7
      pair build: full/bin/atomonly
      stencil: full/bin/3d
      bin: standard
Per MPI rank memory allocation (min/avg/max) = 3.105 | 3.105 | 3.105 Mbytes
Step Temp E_pair E_mol TotEng Press 
       0            0   -15.622945            0   -15.622945   -295269.42 
Loop time of 9.83011e-07 on 1 procs for 0 steps with 2 atoms

101.7% CPU use with 1 MPI tasks x 1 OpenMP threads

MPI task timing breakdown:
Section |  min time  |  avg time  |  max time  |%varavg| %total
---------------------------------------------------------------
Pair    | 0          | 0          | 0          |   0.0 |  0.00
Neigh   | 0          | 0          | 0          |   0.0 |  0.00
Comm    | 0          | 0          | 0          |   0.0 |  0.00
Output  | 0          | 0          | 0          |   0.0 |  0.00
Modify  | 0          | 0          | 0          |   0.0 |  0.00
Other   |            | 9.83e-07   |            |       |100.00

Nlocal:        2.00000 ave           2 max           2 min
Histogram: 1 0 0 0 0 0 0 0 0 0
Nghost:        111.000 ave         111 max         111 min
Histogram: 1 0 0 0 0 0 0 0 0 0
Neighs:         0.00000 ave           0 max           0 min
Histogram: 1 0 0 0 0 0 0 0 0 0
FullNghs:      114.000 ave         114 max         114 min
Histogram: 1 0 0 0 0 0 0 0 0 0

Total # of neighbors = 114
Ave neighs/atom = 57.000000
Neighbor list builds = 0
Dangerous builds = 0
variable	E equal pe/${natoms}
variable	E equal pe/2
variable	E_sum equal ${E_sum}+${E}
variable	E_sum equal -742.586331151886+${E}
variable	E_sum equal -742.586331151886+-7.81147246970737
variable	Esq_sum equal ${Esq_sum}+${E}^2
variable	Esq_sum equal 5804.66869745677+${E}^2
variable	Esq_sum equal 5804.66869745677+-7.81147246970737^2
next		id
jump		SELF LP
kim param	set active_member_id 1 ${id}
kim param	set active_member_id 1 97
#=== BEGIN kim param set =====================================
pair_coeff * *  C active_member_id 1 97
#=== END kim param set =======================================
run		0
Neighbor list info ...
  update every 1 steps, delay 10 steps, check yes
  max neighbors/atom: 2000, page size: 100000
  master list distance cutoff = 7
  ghost atom cutoff = 7
  binsize = 3.5, bins = 2 1 1
  1 neighbor lists, perpetual/occasional/extra = 1 0 0
  (1) pair kim, perpetual
      attributes: full, newton off, cut 7
      pair build: full/bin/atomonly
      stencil: full/bin/3d
      bin: standard
Per MPI rank memory allocation (min/avg/max) = 3.105 | 3.105 | 3.105 Mbytes
Step Temp E_pair E_mol TotEng Press 
       0            0   -15.604125            0   -15.604125   -360292.45 
Loop time of 9.52743e-07 on 1 procs for 0 steps with 2 atoms

209.9% CPU use with 1 MPI tasks x 1 OpenMP threads

MPI task timing breakdown:
Section |  min time  |  avg time  |  max time  |%varavg| %total
---------------------------------------------------------------
Pair    | 0          | 0          | 0          |   0.0 |  0.00
Neigh   | 0          | 0          | 0          |   0.0 |  0.00
Comm    | 0          | 0          | 0          |   0.0 |  0.00
Output  | 0          | 0          | 0          |   0.0 |  0.00
Modify  | 0          | 0          | 0          |   0.0 |  0.00
Other   |            | 9.527e-07  |            |       |100.00

Nlocal:        2.00000 ave           2 max           2 min
Histogram: 1 0 0 0 0 0 0 0 0 0
Nghost:        111.000 ave         111 max         111 min
Histogram: 1 0 0 0 0 0 0 0 0 0
Neighs:         0.00000 ave           0 max           0 min
Histogram: 1 0 0 0 0 0 0 0 0 0
FullNghs:      114.000 ave         114 max         114 min
Histogram: 1 0 0 0 0 0 0 0 0 0

Total # of neighbors = 114
Ave neighs/atom = 57.000000
Neighbor list builds = 0
Dangerous builds = 0
variable	E equal pe/${natoms}
variable	E equal pe/2
variable	E_sum equal ${E_sum}+${E}
variable	E_sum equal -750.397803621593+${E}
variable	E_sum equal -750.397803621593+-7.80206261502884
variable	Esq_sum equal ${Esq_sum}+${E}^2
variable	Esq_sum equal 5865.68779960177+${E}^2
variable	Esq_sum equal 5865.68779960177+-7.80206261502884^2
next		id
jump		SELF LP
kim param	set active_member_id 1 ${id}
kim param	set active_member_id 1 98
#=== BEGIN kim param set =====================================
pair_coeff * *  C active_member_id 1 98
#=== END kim param set =======================================
run		0
Neighbor list info ...
  update every 1 steps, delay 10 steps, check yes
  max neighbors/atom: 2000, page size: 100000
  master list distance cutoff = 7
  ghost atom cutoff = 7
  binsize = 3.5, bins = 2 1 1
  1 neighbor lists, perpetual/occasional/extra = 1 0 0
  (1) pair kim, perpetual
      attributes: full, newton off, cut 7
      pair build: full/bin/atomonly
      stencil: full/bin/3d
      bin: standard
Per MPI rank memory allocation (min/avg/max) = 3.105 | 3.105 | 3.105 Mbytes
Step Temp E_pair E_mol TotEng Press 
       0            0   -15.608502            0   -15.608502   -349149.03 
Loop time of 9.45292e-07 on 1 procs for 0 steps with 2 atoms

211.6% CPU use with 1 MPI tasks x 1 OpenMP threads

MPI task timing breakdown:
Section |  min time  |  avg time  |  max time  |%varavg| %total
---------------------------------------------------------------
Pair    | 0          | 0          | 0          |   0.0 |  0.00
Neigh   | 0          | 0          | 0          |   0.0 |  0.00
Comm    | 0          | 0          | 0          |   0.0 |  0.00
Output  | 0          | 0          | 0          |   0.0 |  0.00
Modify  | 0          | 0          | 0          |   0.0 |  0.00
Other   |            | 9.453e-07  |            |       |100.00

Nlocal:        2.00000 ave           2 max           2 min
Histogram: 1 0 0 0 0 0 0 0 0 0
Nghost:        111.000 ave         111 max         111 min
Histogram: 1 0 0 0 0 0 0 0 0 0
Neighs:         0.00000 ave           0 max           0 min
Histogram: 1 0 0 0 0 0 0 0 0 0
FullNghs:      114.000 ave         114 max         114 min
Histogram: 1 0 0 0 0 0 0 0 0 0

Total # of neighbors = 114
Ave neighs/atom = 57.000000
Neighbor list builds = 0
Dangerous builds = 0
variable	E equal pe/${natoms}
variable	E equal pe/2
variable	E_sum equal ${E_sum}+${E}
variable	E_sum equal -758.199866236622+${E}
variable	E_sum equal -758.199866236622+-7.80425078930146
variable	Esq_sum equal ${Esq_sum}+${E}^2
variable	Esq_sum equal 5926.5599806506+${E}^2
variable	Esq_sum equal 5926.5599806506+-7.80425078930146^2
next		id
jump		SELF LP
kim param	set active_member_id 1 ${id}
kim param	set active_member_id 1 99
#=== BEGIN kim param set =====================================
pair_coeff * *  C active_member_id 1 99
#=== END kim param set =======================================
run		0
Neighbor list info ...
  update every 1 steps, delay 10 steps, check yes
  max neighbors/atom: 2000, page size: 100000
  master list distance cutoff = 7
  ghost atom cutoff = 7
  binsize = 3.5, bins = 2 1 1
  1 neighbor lists, perpetual/occasional/extra = 1 0 0
  (1) pair kim, perpetual
      attributes: full, newton off, cut 7
      pair build: full/bin/atomonly
      stencil: full/bin/3d
      bin: standard
Per MPI rank memory allocation (min/avg/max) = 3.105 | 3.105 | 3.105 Mbytes
Step Temp E_pair E_mol TotEng Press 
       0            0   -15.660799            0   -15.660799   -404853.22 
Loop time of 9.59262e-07 on 1 procs for 0 steps with 2 atoms

104.2% CPU use with 1 MPI tasks x 1 OpenMP threads

MPI task timing breakdown:
Section |  min time  |  avg time  |  max time  |%varavg| %total
---------------------------------------------------------------
Pair    | 0          | 0          | 0          |   0.0 |  0.00
Neigh   | 0          | 0          | 0          |   0.0 |  0.00
Comm    | 0          | 0          | 0          |   0.0 |  0.00
Output  | 0          | 0          | 0          |   0.0 |  0.00
Modify  | 0          | 0          | 0          |   0.0 |  0.00
Other   |            | 9.593e-07  |            |       |100.00

Nlocal:        2.00000 ave           2 max           2 min
Histogram: 1 0 0 0 0 0 0 0 0 0
Nghost:        111.000 ave         111 max         111 min
Histogram: 1 0 0 0 0 0 0 0 0 0
Neighs:         0.00000 ave           0 max           0 min
Histogram: 1 0 0 0 0 0 0 0 0 0
FullNghs:      114.000 ave         114 max         114 min
Histogram: 1 0 0 0 0 0 0 0 0 0

Total # of neighbors = 114
Ave neighs/atom = 57.000000
Neighbor list builds = 0
Dangerous builds = 0
variable	E equal pe/${natoms}
variable	E equal pe/2
variable	E_sum equal ${E_sum}+${E}
variable	E_sum equal -766.004117025924+${E}
variable	E_sum equal -766.004117025924+-7.83039959658698
variable	Esq_sum equal ${Esq_sum}+${E}^2
variable	Esq_sum equal 5987.46631103291+${E}^2
variable	Esq_sum equal 5987.46631103291+-7.83039959658698^2
next		id
jump		SELF LP
kim param	set active_member_id 1 ${id}
kim param	set active_member_id 1 100
#=== BEGIN kim param set =====================================
pair_coeff * *  C active_member_id 1 100
#=== END kim param set =======================================
run		0
Neighbor list info ...
  update every 1 steps, delay 10 steps, check yes
  max neighbors/atom: 2000, page size: 100000
  master list distance cutoff = 7
  ghost atom cutoff = 7
  binsize = 3.5, bins = 2 1 1
  1 neighbor lists, perpetual/occasional/extra = 1 0 0
  (1) pair kim, perpetual
      attributes: full, newton off, cut 7
      pair build: full/bin/atomonly
      stencil: full/bin/3d
      bin: standard
Per MPI rank memory allocation (min/avg/max) = 3.105 | 3.105 | 3.105 Mbytes
Step Temp E_pair E_mol TotEng Press 
       0            0   -15.603236            0   -15.603236   -288100.33 
Loop time of 8.99192e-07 on 1 procs for 0 steps with 2 atoms

111.2% CPU use with 1 MPI tasks x 1 OpenMP threads

MPI task timing breakdown:
Section |  min time  |  avg time  |  max time  |%varavg| %total
---------------------------------------------------------------
Pair    | 0          | 0          | 0          |   0.0 |  0.00
Neigh   | 0          | 0          | 0          |   0.0 |  0.00
Comm    | 0          | 0          | 0          |   0.0 |  0.00
Output  | 0          | 0          | 0          |   0.0 |  0.00
Modify  | 0          | 0          | 0          |   0.0 |  0.00
Other   |            | 8.992e-07  |            |       |100.00

Nlocal:        2.00000 ave           2 max           2 min
Histogram: 1 0 0 0 0 0 0 0 0 0
Nghost:        111.000 ave         111 max         111 min
Histogram: 1 0 0 0 0 0 0 0 0 0
Neighs:         0.00000 ave           0 max           0 min
Histogram: 1 0 0 0 0 0 0 0 0 0
FullNghs:      114.000 ave         114 max         114 min
Histogram: 1 0 0 0 0 0 0 0 0 0

Total # of neighbors = 114
Ave neighs/atom = 57.000000
Neighbor list builds = 0
Dangerous builds = 0
variable	E equal pe/${natoms}
variable	E equal pe/2
variable	E_sum equal ${E_sum}+${E}
variable	E_sum equal -773.834516622511+${E}
variable	E_sum equal -773.834516622511+-7.80161805724486
variable	Esq_sum equal ${Esq_sum}+${E}^2
variable	Esq_sum equal 6048.78146887514+${E}^2
variable	Esq_sum equal 6048.78146887514+-7.80161805724486^2
next		id
jump		SELF LP
# compute mean energy and the standard deviation
variable	E_mean equal ${E_sum}/${size}
variable	E_mean equal -781.636134679756/${size}
variable	E_mean equal -781.636134679756/100
variable	Esq_mean equal ${Esq_sum}/${size}
variable	Esq_mean equal 6109.64671318627/${size}
variable	Esq_mean equal 6109.64671318627/100
variable	E_stdev equal sqrt(${Esq_mean}-${E_mean}^2)
variable	E_stdev equal sqrt(61.0964671318627-${E_mean}^2)
variable	E_stdev equal sqrt(61.0964671318627--7.81636134679756^2)
# # print results
# print		"================================================================================"
# print		"Energy of a monolayer graphene."
# print		"Ensemble size: ${size}"
# print		"Mean energy: ${E_mean} eV/atom"
# print		"Standard deviation of energy: ${E_stdev} eV/atom"
# print		"================================================================================"
Total wall time: 0:00:00
