72
Lattice="7.395 0 0 3.6975 6.40425786098592 0 0 0 13.6 " PBC="1 1 1" Properties=species:S:1:pos:R:3:force:R:3 Energy="-577.32673043"
C     3.684425529075000e+00   6.321625962322671e+00   1.321366480000000e+01  1.15876759e+00  -7.84669430e-01   9.30050770e-01
C     1.312954075050000e+00   6.202414865026380e-01   1.325972079200000e+01 -2.90846558e+00   7.58906520e-01   3.48586240e-01
C     1.311624601950000e+00   8.741502012819576e-01   3.687401728000000e+00 -1.10136780e-01  -1.04047064e+00  -2.97644600e-01
C     2.487920740875000e+00   1.639028969636659e+00   3.652602320000000e+00  1.86478778e+00  -3.33320628e+00  -9.60258500e-02
C     6.269990663400000e+00   6.312151823457480e+00   1.330567029600000e+01 -6.00283421e+00   1.89179084e+00  -3.90431200e-01
C     3.704346660750000e+00   6.264884557895964e-01   1.322276428800000e+01 -8.06197380e-01   1.91925346e+00   1.42092953e+00
C     3.741981442650000e+00   8.806035157571652e-01   3.603843736000000e+00 -8.84034840e-01  -1.82915874e+00   2.29427510e-01
C     5.015667882824999e+00   1.506626189872604e+00   3.555017968000000e+00 -2.58002454e+00   5.29268230e-01   1.16273397e+00
C     8.537805995699999e+00   6.338290033402127e+00   1.333163242400000e+01  4.12007618e+00  -1.72426307e+00  -1.33453550e-01
C     6.093537644025000e+00   5.317142132948647e-01   1.327765905600000e+01  3.08640975e+00   3.34619321e+00  -1.46621130e-01
C     6.195814783124999e+00   7.752754405646251e-01   3.643583888000000e+00  1.51784669e+00   3.17530883e+00   8.51924900e-02
C     7.428425252099999e+00   1.488053521865711e+00   3.678104496000000e+00  1.38583135e+00   2.28672657e+00  -4.02779030e-01
C     1.223023147275000e+00   2.053434534475124e+00   1.328776929600000e+01  1.82534050e-01   6.48176070e-01  -5.36181340e-01
C     2.464837913925000e+00   2.813625578204041e+00   1.329244620000000e+01 -7.44966720e-01  -1.65542232e+00   8.05520010e-01
C     2.496511327500000e+00   2.996659588055734e+00   3.641989832000000e+00  1.13696234e+00   2.50919795e+00  -3.77871430e-01
C     3.707054007225000e+00   3.708304243800757e+00   3.576422191999999e+00  3.25069778e+00   2.89126060e-01   1.28627670e+00
C     3.673087441124999e+00   2.014204740613065e+00   1.336039492800000e+01  9.73504530e-01   3.27773974e+00  -1.91924384e+00
C     4.940875333500000e+00   2.720065582999565e+00   1.318580152800000e+01 -1.10046762e+00   1.13496569e+00   1.61049793e+00
C     4.956756835500000e+00   2.903366586361441e+00   3.712673656000000e+00  4.99763090e-01   2.35668294e+00  -1.90335144e+00
C     6.205604210174999e+00   3.604457537493813e+00   3.670756960000000e+00  6.25451500e-01   1.86516444e+00  -2.41741530e-01
C     6.169067253000000e+00   1.974966301002895e+00   1.321362372800000e+01 -1.85965865e+00   8.23674870e-01  -1.17145590e-01
C     7.330635990599999e+00   2.744555080800734e+00   1.316589833600000e+01  2.60224920e+00   1.04676692e+00   5.86556410e-01
C     7.494132341400000e+00   2.961751771653075e+00   3.626389952000000e+00 -1.76783527e+00  -5.86342530e-01   6.08767830e-01
C     8.727294181575001e+00   3.743680723793611e+00   3.654635384000000e+00 -2.80980909e+00  -1.92219758e+00  -4.69442710e-01
C     2.457431451675000e+00   4.234978882543008e+00   1.331127608000000e+01 -1.69505801e+00  -9.75601690e-01   2.08555160e-01
C     3.677957418375000e+00   4.885764452227660e+00   1.324434055200000e+01  6.35509300e-01   1.42970424e+00   3.48637010e-01
C     3.812388978825000e+00   5.185203085496234e+00   3.637048544000000e+00 -5.70865850e-01  -2.64155343e+00   5.67049900e-02
C     5.111023634700000e+00   5.852284097177919e+00   3.631525040000000e+00 -5.00040746e+00   2.83373150e-01   1.64133920e-01
C     4.898848069500000e+00   4.201451632007230e+00   1.324286250400000e+01  1.14074162e+00  -1.44163602e+00  -1.57416030e-01
C     6.122250950024999e+00   4.970395951336616e+00   1.326561748000000e+01  9.49420150e-01  -4.05276960e+00  -6.14368420e-01
C     6.225411495825000e+00   5.079907736061359e+00   3.624231224000000e+00  1.61289420e+00  -1.78176997e+00   4.99468350e-01
C     7.419679444425000e+00   5.807180638219561e+00   3.682697760000000e+00  2.19772592e+00   1.44900465e+00  -1.10348951e+00
C     7.345677383625000e+00   4.258023579770962e+00   1.315507450400000e+01  3.41793600e-01  -3.11180890e+00   1.73038756e+00
C     8.579583530550000e+00   4.953069423824122e+00   1.337017795200000e+01 -9.72589200e-02  -2.54599416e+00  -1.41739200e+00
C     8.712130327350000e+00   5.131223709399388e+00   3.637820752000000e+00 -1.49418201e+00   3.41569840e-01   8.11282180e-01
C     9.926260691325000e+00   5.834045731431318e+00   3.727192472000000e+00  1.10855919e+00  -1.95331276e+00  -1.22575518e+00
C     9.009916402500000e-02   6.182151793157341e-02   6.746370984000000e+00 -3.39555879e+00   9.50484850e-01   4.08642210e-01
C     1.256460601125000e+00   7.770970676703235e-01   6.860160415999999e+00 -2.43050500e-01   2.47252700e+00  -1.11778820e-01
C     1.172643637500000e+00   5.464616180819797e-01   1.028139355200000e+01 -1.89770188e+00   1.99848138e+00  -1.00929300e+00
C     2.331446460225000e+00   1.276477527924199e+00   1.016651054400000e+01  3.83451240e+00   6.92936830e-01  -2.12317350e-01
C     2.459453318625000e+00   1.340548861641990e-01   6.931565448000001e+00  3.17049059e+00  -2.04767100e+00  -9.58143800e-02
C     3.784597644450000e+00   7.517784106040208e-01   6.939552456000000e+00 -9.18242650e-01  -8.14605110e-01   3.89208560e-01
C     3.621023054550000e+00   5.773785571566012e-01   1.002255889600000e+01 -7.93657620e-01  -5.26427330e-01   2.27825630e+00
C     4.854369399975000e+00   1.315424125503688e+00   1.024087942400000e+01 -3.64600220e-01  -1.44030401e+00  -1.81367590e+00
C     5.051048742674999e+00   7.583851710975541e-02   6.970989263999999e+00 -1.48496685e+00  -3.10025820e-01  -1.37333472e+00
C     6.251365690350000e+00   8.516195097898488e-01   6.806367792000000e+00 -1.63029200e-01  -1.67864483e+00   7.31776510e-01
C     6.129237080475000e+00   6.177116125202022e-01   1.016947996800000e+01 -1.82500997e+00  -6.17676640e-01   5.22499600e-01
C     7.338694654874999e+00   1.325537089090414e+00   1.025331893600000e+01  9.50199440e-01  -4.22419120e-01   4.47710700e-02
C     8.603629926000000e+00   2.226671310652589e+00   6.877647976000000e+00  2.07708525e+00  -1.15500141e+00   4.93517260e-01
C     2.499555738075000e+00   2.841018638433776e+00   7.008602648000000e+00 -5.17490040e-01   1.06263507e+00  -1.88045174e+00
C     2.404367852700000e+00   2.708906804104301e+00   1.021913057600000e+01 -6.41600310e-01   3.46687850e-01  -9.10608700e-02
C     3.635781145125000e+00   3.403454396895953e+00   1.029159368800000e+01 -1.62685624e+00   1.96279338e+00  -9.22172700e-01
C     3.757457772600000e+00   2.121664537076885e+00   6.948037768000000e+00 -1.57710823e+00   2.44827529e+00   4.82038110e-01
C     4.908569203724999e+00   2.905993676978192e+00   6.958827735999999e+00  2.68426018e+00   5.18436300e-01  -2.68906660e-01
C     4.815261423150000e+00   2.729761757484762e+00   1.025268272800000e+01  2.84981827e+00  -1.23391277e+00   2.53274250e-01
C     6.061909524824999e+00   3.442456711518825e+00   1.022629043200000e+01  1.05166093e+00  -1.79250994e+00   3.26918980e-01
C     6.210799271625000e+00   2.279053592924309e+00   6.877463288000000e+00 -1.30462421e+00  -1.84460188e+00  -2.73407310e-01
C     7.423009782675000e+00   2.963850767166690e+00   6.817511904000000e+00 -8.65702050e-01   1.81760037e+00   5.73279180e-01
C     7.376587263449999e+00   2.761113545668078e+00   1.026528788800000e+01 -1.94497116e+00  -5.73166060e-01  -8.61941310e-01
C     8.602991959350000e+00   3.481163597726615e+00   1.017902404000000e+01 -1.50527746e+00  -1.76195100e+00   7.29860200e-01
C     2.471575424475000e+00   4.255899799779428e+00   6.802590936000001e+00  7.87097000e-02   2.13111641e+00   1.20205218e+00
C     3.684906204075000e+00   5.070681506017928e+00   6.776760456000000e+00  1.13937950e+00  -2.86254993e+00   7.97474560e-01
C     3.648974453699999e+00   4.857035015510277e+00   1.023977238400000e+01 -2.04214665e+00  -3.12148440e-01  -3.26789620e-01
C     4.874072970749999e+00   5.568943334551397e+00   1.022395395200000e+01 -1.94858365e+00  -1.04088735e+00   2.64572760e-01
C     4.929784423425000e+00   4.318497321635897e+00   6.945599288000000e+00 -6.25428010e-01   2.26019849e+00  -8.25307620e-01
C     6.166550290800000e+00   5.120646180947498e+00   6.923927959999999e+00 -1.77334347e+00  -1.39520607e+00   1.48328610e-01
C     6.034186816049999e+00   4.818616000693295e+00   1.022199582400000e+01  1.96753861e+00   8.85929110e-01  -6.01462170e-01
C     7.274573423324999e+00   5.498310198230250e+00   1.012687919200000e+01 -6.30386820e-01   3.64578638e+00  -2.75366600e-01
C     7.370600715149999e+00   4.429599731885328e+00   6.879784536000001e+00  1.64986897e+00  -2.20485231e+00   6.41046200e-02
C     8.631212721375000e+00   5.037977779000366e+00   6.885447304000000e+00  2.06666462e+00   6.22500580e-01  -1.46795820e-01
C     8.479693793250000e+00   4.872809471130402e+00   1.016500325600000e+01  4.47868864e+00  -1.42667580e-01  -3.14137040e-01
C     9.778989857925000e+00   5.576847917900259e+00   1.014670391200000e+01  2.00451710e-01   3.84169570e-01   3.76299160e-01
