72
Lattice="7.395 0 0 3.6975 6.40425786098592 0 0 0 13.6 " PBC="1 1 1" Properties=species:S:1:pos:R:3:force:R:3 Energy="-559.55735818"
C     3.729015715200000e+00   6.365804390275731e+00   1.326873868000000e+01  7.71158090e-01  -1.08562969e+00   6.87681820e-01
C     1.157090362575000e+00   7.790711161130899e-01   1.326186945600000e+01  3.57416866e+00  -4.65557327e+00   1.28730937e+00
C     1.244226424050000e+00   7.631718415072752e-01   3.399081456000000e+00  2.60089891e+00  -9.85026200e-02   9.40913940e-01
C     2.464774945500000e+00   1.592698839127797e+00   3.398753288000000e+00  2.66579765e+00  -6.90128663e+00   5.04607550e-01
C     5.987693452724999e+00   6.354271538678864e+00   1.341437210400000e+01  6.19605855e+00   2.81555180e-01  -8.58110650e-01
C     3.740986186575000e+00   7.544997718964707e-01   1.311094658400000e+01 -1.25480356e+00  -3.52135245e+00   4.11148545e+00
C     3.754735525200000e+00   7.871570680445472e-01   3.526718680000000e+00 -5.59301709e+00  -2.93357398e+00   1.83133450e-01
C     4.866819289200000e+00   1.485111021549355e+00   3.562817704000000e+00  6.52778545e+00   1.09551836e+00   9.21207870e-01
C     8.707023007575000e+00   6.391426865334912e+00   1.330359044800000e+01 -1.67636533e+00  -8.03548720e-01   5.71985940e-01
C     6.311764611675000e+00   6.882346596487362e-01   1.340622801600000e+01 -8.47212046e+00   1.09345022e+00   1.19412522e+00
C     6.170358715799999e+00   8.281768519784761e-01   3.584828216000000e+00  2.12421419e+00  -3.37297193e+00   7.45655920e-01
C     7.530535190250000e+00   1.527456230689990e+00   3.437941416000000e+00 -7.69940353e+00  -3.12915087e+00   4.21438930e-01
C     1.279209063150000e+00   2.151297934791205e+00   1.332018952000000e+01 -2.89477502e+00  -7.24207600e-01  -8.49747200e-01
C     2.439001041075000e+00   2.819840398116542e+00   1.292335566400000e+01  7.14526600e-01   1.04049286e+00   3.52396494e+00
C     2.611185370650000e+00   2.913817310507704e+00   3.453502536000000e+00 -5.86055089e+00   3.56715632e+00  -4.53437950e-01
C     3.795605952375000e+00   3.653465864597149e+00   3.574521048000000e+00  2.31689850e-01  -4.49591407e+00   1.36815925e+00
C     3.661501768575000e+00   2.161126357201212e+00   1.329576718400000e+01  1.93669392e+00  -1.54223969e+00  -2.68794040e+00
C     4.936887801600000e+00   2.812706503158552e+00   1.347428241600000e+01 -2.34581797e+00   1.33144607e+00   1.96278163e+00
C     5.005580067524999e+00   2.868128502380942e+00   3.800630432000000e+00 -1.84993228e+00   3.13598681e+00  -3.47397796e+00
C     6.234634946550000e+00   3.629135768774116e+00   3.564749176000000e+00 -6.66260738e+00  -1.20912040e-01   1.10894514e+00
C     6.110859137399999e+00   2.184889035777848e+00   2.195366400000000e-01  2.74605164e+00  -6.35892097e+00  -3.40338949e+00
C     7.401293329874999e+00   2.723394836448086e+00   4.346492000000000e-02  2.95363080e-01   2.61189110e+00  -3.18816180e-01
C     7.271303908950000e+00   2.867209683505768e+00   3.356465584000000e+00  9.84418223e+00   2.55737248e+00   1.44919690e-01
C     8.537321586225000e+00   3.649396855323219e+00   3.425022096000000e+00  4.33812553e+00  -8.86493140e-01  -7.77172830e-01
C     9.793958558099998e+00   4.244609669555455e+00   1.306930528800000e+01  5.68152016e+00  -2.76231219e+00   5.02067610e-01
C     3.749366200575000e+00   4.895302569628872e+00   1.324014318400000e+01 -3.66277066e+00   3.02042048e+00   2.89240400e-02
C     3.740353137600000e+00   4.988118261984859e+00   3.679974632000000e+00 -1.07303168e+00   3.75942903e+00   1.55694370e-01
C     4.929958353825000e+00   5.681884535317591e+00   3.599583127999999e+00  1.44321734e+00   4.16761616e+00  -7.93647950e-01
C     4.893166454025000e+00   4.254767014649151e+00   3.603061600000000e-02 -8.01658950e-01  -3.08205360e+00  -1.55009691e+00
C     6.084740958750000e+00   4.894214678346193e+00   1.485242400000000e-01  3.16749986e+00   3.30247235e+00  -2.13728300e+00
C     6.173205199200000e+00   5.051524257353575e+00   3.526342640000000e+00  1.78794771e+00  -1.96428784e+00   9.20412240e-01
C     7.455796180725000e+00   5.640040523397080e+00   3.657172464000000e+00 -3.32004100e+00   7.34338968e+00  -2.32937845e+00
C     7.365758543099999e+00   4.081793581554890e+00   1.355932185600000e+01  4.73850310e-01   5.33311122e+00   8.07389650e-01
C     8.637058542824999e+00   4.783144417471219e+00   1.337202129600000e+01 -4.34675388e+00   6.55798016e+00  -1.87671640e-01
C     8.665395960974999e+00   5.086029566149733e+00   3.500214864000000e+00  9.28177560e-01  -4.21701630e+00   1.78544384e+00
C     9.908380394775000e+00   5.741657010946857e+00   3.783779760000000e+00 -2.39952390e-01   2.43122918e+00  -2.82251918e+00
C     3.718503352950000e+00   6.377891018049752e+00   7.396047199999999e+00 -8.55186720e-01   4.87439113e+00  -3.10884767e+00
C     1.315936774350000e+00   7.129834658506561e-01   6.954633904000000e+00 -3.30265693e+00   1.69215011e+00   1.35552030e-01
C     1.335886894425000e+00   6.438211313896363e-01   1.021991366400000e+01 -1.03526273e+01  -2.88385353e+00  -1.01554637e+00
C     2.423154443475000e+00   1.335502242405731e+00   1.024437693600000e+01  3.79146708e+00   3.03588030e+00  -1.18299751e+00
C     2.460435596475000e+00   3.489359895021000e-03   6.628922879999999e+00  2.00088233e+00   1.20733571e+00  -2.87092490e-01
C     3.770747327100000e+00   7.057074604107528e-01   6.359809343999999e+00 -1.25109221e+00   1.45635346e+00   2.92129945e+00
C     3.634396357425000e+00   6.283056639573715e-01   1.040080400000000e+01  3.32103442e+00   1.59733600e-02   2.65913239e+00
C     4.918338183600000e+00   1.366573075796729e+00   1.054860689600000e+01 -3.80455358e+00   1.60916477e+00  -4.85162333e+00
C     4.984195206524999e+00   1.732857687500940e-02   6.952109744000000e+00 -4.60040534e+00   1.47326183e+00  -3.06906153e+00
C     6.094219758825000e+00   6.988649591853930e-01   7.113906223999999e+00  7.18673826e+00   4.68957806e+00   1.54813310e+00
C     6.096524854275000e+00   7.198651611341190e-01   1.031171393600000e+01 -1.02418420e-01  -3.36798424e+00   1.35144138e+00
C     7.204633990650000e+00   1.440527011946022e+00   1.009260705600000e+01  7.74436415e+00  -5.50865461e+00   4.22726470e-01
C     8.610018059774999e+00   2.252868375726969e+00   6.784952688000000e+00  1.92405431e+00  -4.91095815e+00   1.19280883e+00
C     2.475454028025000e+00   2.873693930546439e+00   6.684328192000000e+00  1.65933247e+00   2.85174330e-01  -1.86760001e+00
C     2.410673938950000e+00   2.786626187704960e+00   9.989446432000001e+00  1.03759651e+00   4.28557750e-01   1.08024019e+00
C     3.701268048300000e+00   3.490677635118274e+00   9.940084823999999e+00 -3.46547094e+00  -1.08099621e+00   5.69885620e-01
C     3.753862471500000e+00   2.198042997166817e+00   6.298848975999999e+00 -2.04448476e+00  -2.47646749e+00   3.35255895e+00
C     4.937221242150000e+00   2.923136146119790e+00   6.598655400000000e+00  1.62006970e+00  -2.65709199e+00   1.29038420e+00
C     4.904784664575000e+00   2.722761327260575e+00   9.961981912000001e+00  1.29849882e+00   1.61056629e+00   2.93206658e+00
C     6.159197959949999e+00   3.471034239239767e+00   1.007539435200000e+01 -1.53771810e+00   1.87650430e+00   1.38806051e+00
C     6.228803804175000e+00   2.221838721714012e+00   6.991509624000000e+00 -6.42329823e+00  -4.44999345e+00  -1.89429683e+00
C     7.368573745650000e+00   2.857645692902801e+00   6.922119160000000e+00  3.81252209e+00   5.36197896e+00  -4.94802900e-01
C     7.381857569024999e+00   2.721536705072586e+00   1.013914856800000e+01 -1.45408767e+00   7.23189962e+00  -2.72161770e-01
C     8.581907002574999e+00   3.529857795981918e+00   1.011558629600000e+01  1.94890715e+00  -9.39733790e-01   1.28433959e+00
C     2.543636778450000e+00   4.279828476719796e+00   6.878418144000000e+00 -6.11526925e+00   6.01465470e-01   8.86555260e-01
C     3.572249036250000e+00   5.063298485429184e+00   7.172027320000000e+00  8.07199371e+00  -3.86643134e+00  -1.91354461e+00
C     3.540105707400000e+00   4.885890295894608e+00   1.008365553600000e+01  5.19906319e+00   1.47673414e+00  -1.01985650e-01
C     4.855964834250000e+00   5.602724257741011e+00   1.016337941600000e+01  1.08477453e+00   1.81854165e+00   1.22418619e+00
C     4.939149414450000e+00   4.248685851598188e+00   6.849575536000000e+00 -9.44756720e-01   4.50636791e+00   3.07820850e-01
C     6.197985178650000e+00   4.976510032272979e+00   6.685002208000000e+00 -3.87335276e+00   1.97133102e+00   1.53335572e+00
C     6.093580387125000e+00   4.978816525741259e+00   1.039927916800000e+01  2.30514778e+00  -4.23879849e+00  -1.27917385e+00
C     7.437896546249999e+00   5.629846545948425e+00   1.072689677600000e+01 -4.60111011e+00   8.78417650e-01  -3.57327841e+00
C     7.394770607100000e+00   4.414163421080213e+00   6.787939656000000e+00  3.08235308e+00  -5.21982751e+00   3.49407430e-01
C     8.661394970174999e+00   5.066136660385000e+00   6.937505927999999e+00 -2.28119210e-01  -4.45743059e+00  -5.37237900e-01
C     8.660385182924999e+00   4.943255218866565e+00   1.052057376000000e+01 -2.46770842e+00  -1.88507918e+00  -1.48757075e+00
C     9.825740234474999e+00   5.668972911046045e+00   1.037045084000000e+01  3.43345000e-03  -1.16404950e-01  -7.69764380e-01
