72
Lattice="7.395 0 0 3.6975 6.40425786098592 0 0 0 13.6 " PBC="1 1 1" Properties=species:S:1:pos:R:3:force:R:3 Energy="-581.08254783"
C     3.695437608450000e+00   6.338285678506782e+00   1.323352950400000e+01  3.20266470e-01  -1.50011809e+00   2.58351200e-02
C     1.226355482175000e+00   6.303688596695490e-01   1.321652488000000e+01 -1.83347980e-01   8.07978550e-01   5.43292970e-01
C     1.308448227600000e+00   8.412125907673489e-01   3.619498152000000e+00 -1.67563980e-01   1.91678140e-01   5.22770400e-02
C     2.509090333425000e+00   1.568790655812580e+00   3.590473576000000e+00  7.66848920e-01   8.33882810e-01  -1.78916340e-01
C     6.150687609075000e+00   6.349348329491568e+00   1.329009312800000e+01  3.77314550e-01  -1.08091802e+00  -4.62138180e-01
C     3.678022827150000e+00   6.514199754682620e-01   1.321785020000000e+01  3.66095650e-01   1.24028230e-01   1.37181932e+00
C     3.722747306475000e+00   8.507201598585691e-01   3.595360600000000e+00  8.53153200e-02  -1.66839813e+00   4.35362770e-01
C     4.958155451850000e+00   1.520129247357521e+00   3.639523880000000e+00  8.20280390e-01   5.17670400e-01  -9.75817500e-02
C     8.608000370999999e+00   6.311942788480930e+00   1.332020883200000e+01  5.01135400e-02   1.84488590e+00  -7.21676490e-01
C     6.171150313575000e+00   6.196366043477610e-01   1.327415311200000e+01 -1.31064659e+00  -1.09798616e+00   3.45694800e-01
C     6.211027740150000e+00   8.426748109219440e-01   3.667954408000000e+00  5.99464130e-01  -1.88644508e+00   2.02056510e-01
C     7.466802270150001e+00   1.537667179421974e+00   3.628370384000000e+00 -1.43405278e+00  -1.77675576e+00  -7.79264400e-02
C     1.222629511425000e+00   2.061903268898873e+00   1.321883606400000e+01  6.60232180e-01  -1.10048330e-01   1.54633860e-01
C     2.477558312250000e+00   2.780488859312564e+00   1.319705933600000e+01 -2.38450852e+00   1.24798584e+00   5.34811810e-01
C     2.532424331550000e+00   3.028545747514888e+00   3.582220280000000e+00 -1.23317378e+00  -1.22630015e+00   2.30908500e-01
C     3.750295086525000e+00   3.726000361034352e+00   3.652915392000000e+00  1.40361955e+00  -2.14767645e+00  -2.31518730e-01
C     3.681223161300000e+00   2.107242660716794e+00   1.326417628800000e+01  2.25301550e-01  -2.45926898e+00  -6.34337720e-01
C     4.913539309274999e+00   2.747135420335106e+00   1.326501663200000e+01  1.15500412e+00   1.03952672e+00   7.38881810e-01
C     4.968229290600000e+00   2.922291424508056e+00   3.667551576000000e+00  2.44228500e-01   2.29414849e+00  -2.09802730e-01
C     6.235350523725000e+00   3.633691821858299e+00   3.667275632000000e+00 -2.20846470e+00  -3.39776040e-01  -2.92375160e-01
C     6.133281295050000e+00   1.998741467882359e+00   1.330678712800000e+01  1.23831140e+00   2.61488630e+00  -2.82986600e-01
C     7.389335725799999e+00   2.749967062947905e+00   1.326772371200000e+01 -1.34660861e+00   8.21849430e-01   2.34730650e-01
C     7.407839716650000e+00   2.899403887767988e+00   3.598017088000000e+00  3.39108893e+00   3.57424805e+00   1.14064250e-01
C     8.682375398624998e+00   3.709856379735707e+00   3.592144608000000e+00 -9.69162460e-01  -9.91176700e-01   7.22145000e-02
C     9.810153460199999e+00   4.227073018342574e+00   1.321348990400000e+01  1.98902802e+00  -1.48358390e+00   1.03314200e-01
C     3.690246983999999e+00   4.887983975874199e+00   1.318714004000000e+01 -9.05642200e-02   9.05355760e-01   1.05183740e+00
C     3.774467270925000e+00   5.116930238409390e+00   3.676775912000000e+00  6.14241660e-01   5.89388480e-01   2.11565220e-01
C     5.018880122924999e+00   5.845971612333052e+00   3.667860160000000e+00  1.94388790e-01  -2.20228539e+00  -2.63668520e-01
C     4.942361580600000e+00   4.178302417291002e+00   1.330424270400000e+01 -1.30037155e+00  -2.07356600e-01  -5.90497750e-01
C     6.163663911375000e+00   4.892343290156923e+00   1.332394475200000e+01 -1.80303624e+00   1.92969007e+00   7.85788200e-02
C     6.246942740849999e+00   5.046757952483848e+00   3.650118688000000e+00 -3.71924110e-01   2.15085269e+00   1.06190700e-01
C     7.470850847775000e+00   5.802002923824908e+00   3.652955648000000e+00 -1.82743680e+00   1.30439559e+00  -4.18035060e-01
C     7.339986487425000e+00   4.219766592677836e+00   1.330325792800000e+01  2.92088452e+00  -2.44866637e+00   1.46115700e-02
C     8.597489413799998e+00   4.928118050946090e+00   1.327675261600000e+01 -9.09417470e-01  -1.01673856e+00   1.73328840e-01
C     8.692230826050000e+00   5.146679617233555e+00   3.659516832000000e+00  1.70957840e-01  -2.72851604e+00   2.87482000e-02
C     9.934782652349998e+00   5.771258323329299e+00   3.732072832000000e+00 -9.46745100e-02   3.53161012e+00  -8.87878410e-01
C     7.433370436500000e+00   6.752803189772641e-02   6.905465279999999e+00 -2.13991670e-01  -3.70671380e-01  -2.31284660e-01
C     1.239896244825000e+00   8.173255415030707e-01   6.867714808000000e+00  1.30119391e+00  -1.67330120e+00   1.69407560e-01
C     1.153104827325000e+00   6.039747355808167e-01   1.025035644800000e+01  1.26539553e+00  -1.19234912e+00  -3.96612440e-01
C     2.430600210150000e+00   1.319958147940832e+00   1.018142376000000e+01 -2.85237091e+00  -9.59840810e-01  -1.21254890e-01
C     2.522378926575000e+00   7.244413235879821e-02   6.851906983999999e+00 -1.71141844e+00   1.72803339e+00   3.26578100e-02
C     3.778125281625000e+00   7.390131236245758e-01   6.822962919999999e+00 -9.12520960e-01   1.27716181e+00   4.74255920e-01
C     3.595481427075000e+00   5.987406637169959e-01   1.017400700000000e+01  2.40598140e+00  -1.46297363e+00   8.83711160e-01
C     4.856731843650000e+00   1.290113537802289e+00   1.025331784800000e+01 -6.41836550e-01   2.19240500e-02  -8.72455240e-01
C     5.011275807450000e+00   7.897974154750681e-02   6.933100208000000e+00 -5.52369390e-01  -9.53008950e-01  -5.58042970e-01
C     6.223230007800000e+00   7.939423792472172e-01   6.929576992000000e+00  7.21000000e-03   8.68930070e-01  -1.63212990e-01
C     6.100054339875000e+00   5.909473223271619e-01   1.024048026400000e+01  3.54577730e-01   1.53232203e+00   1.59172140e-01
C     7.356156246524999e+00   1.311217552770926e+00   1.025591259200000e+01 -1.24427604e+00   6.43880350e-01  -4.72905580e-01
C     8.635701116625000e+00   2.223776393972133e+00   6.883214592000000e+00 -1.10143874e+00  -2.80223810e-01  -3.50829260e-01
C     2.470361868000000e+00   2.845838546941791e+00   6.862927608000000e+00  1.77403600e+00   2.31354453e+00  -2.35970080e-01
C     2.406115513050000e+00   2.701422660283948e+00   1.014543040800000e+01 -6.89630210e-01   2.64621601e+00   4.49080220e-01
C     3.623067772050000e+00   3.442894570628714e+00   1.020326400000000e+01 -7.46504700e-02  -6.79006370e-01  -5.44682150e-01
C     3.744197243475000e+00   2.169267834048315e+00   6.815845904000000e+00 -1.12854291e+00  -6.15120300e-01   4.60427940e-01
C     4.944436026000000e+00   2.876863333718775e+00   6.878369863999999e+00  4.06002620e-01   2.89145059e+00   3.75644300e-02
C     4.841284650000000e+00   2.703614325408797e+00   1.021447815200000e+01  1.29320962e+00   1.04520156e+00   2.83792290e-01
C     6.111912333299999e+00   3.435622279658369e+00   1.023936193600000e+01 -1.40952603e+00  -3.04356800e-01  -1.96697620e-01
C     6.196077712350000e+00   2.247784355624808e+00   6.887006951999999e+00  1.63829840e-01  -1.49545185e+00   1.30529400e-02
C     7.407974601449999e+00   2.992730960114096e+00   6.844157840000000e+00  3.32733930e-01  -2.39263680e+00   4.89441670e-01
C     7.351724866725000e+00   2.764558331928393e+00   1.021295944000000e+01 -1.38629939e+00  -1.78174358e+00   1.75975080e-01
C     8.535975881100001e+00   3.463154184198509e+00   1.019075281600000e+01  2.54853377e+00  -4.02028900e-01   2.16866600e-02
C     2.482470551925000e+00   4.294381576323438e+00   6.868210120000001e+00 -3.80293660e-01  -6.02762200e-02   1.04375840e-01
C     3.702987607649999e+00   5.011625090459988e+00   6.861051352000000e+00 -2.72163880e-01   1.84288819e+00   5.74858710e-01
C     3.631008338175000e+00   4.869387612113225e+00   1.019760395200000e+01 -1.46299622e+00  -3.70569190e-01   1.72690350e-01
C     4.832837341499999e+00   5.538564993562801e+00   1.024654899200000e+01  1.41140174e+00   2.37158969e+00  -2.29229360e-01
C     4.922199371925000e+00   4.369533749118339e+00   6.919397800000000e+00  9.36642590e-01  -2.35842563e+00  -5.52413610e-01
C     6.136360499100000e+00   5.103174596994474e+00   6.890183503999999e+00  1.67698156e+00  -2.23749047e+00  -2.31142600e-02
C     6.083940117225000e+00   4.852712205497356e+00   1.025501363200000e+01 -8.53727340e-01  -7.81782160e-01  -1.13268560e-01
C     7.283750248575000e+00   5.551134438336888e+00   1.026922454400000e+01  1.51250835e+00   1.64791708e+00  -5.82979500e-01
C     7.408906334475000e+00   4.366179198851269e+00   6.856890704000000e+00 -4.68215750e-01   1.93766595e+00   2.66050080e-01
C     8.665400176125001e+00   5.054441076595912e+00   6.895116224000001e+00  8.23734600e-02  -4.66799850e-01  -2.84344300e-02
C     8.545588271850001e+00   4.876192200132053e+00   1.025838330400000e+01  7.04692900e-02   5.08971910e-01  -5.14464700e-01
C     9.790752233999999e+00   5.619332163479034e+00   1.021698898400000e+01 -1.97484980e-01  -2.44347509e+00   1.08745400e-02
