72
Lattice="7.395 0 0 3.6975 6.40425786098592 0 0 0 13.6 " PBC="1 1 1" Properties=species:S:1:pos:R:3:force:R:3 Energy="-574.00368265"
C     1.100022622530000e+01   6.361758564415254e+00   1.327060337600000e+01  2.76648519e+00  -1.29264821e+00  -1.16809960e-01
C     1.219054694475000e+00   6.151551608676474e-01   1.319333266400000e+01 -1.61063432e+00   6.32048550e-01   2.67175620e-01
C     1.251300924750000e+00   7.714799571438961e-01   3.462906120000000e+00  6.10618400e-01   1.21709064e+00   3.98533300e-01
C     2.491073968875000e+00   1.484146220102746e+00   3.414960000000000e+00  2.50532872e+00  -2.83933545e+00   9.94342330e-01
C     6.194322767925000e+00   6.310260453983687e+00   1.325197926400000e+01 -3.46081935e+00   9.46739460e-01   7.98569620e-01
C     3.670075568550000e+00   6.076522525717645e-01   1.330600920800000e+01  1.73046700e-02   2.00083969e+00  -1.27961683e+00
C     3.828919059300000e+00   8.619654602775216e-01   3.632631672000000e+00 -3.66224812e+00  -3.61898318e+00  -8.66445460e-01
C     5.053530208875000e+00   1.561395018835852e+00   3.732640632000000e+00 -3.41501158e+00   1.15665780e-01  -9.79706190e-01
C     8.565309220874999e+00   6.371587242995576e+00   1.321422906400000e+01  3.59456099e+00  -1.59119045e+00   1.12060954e+00
C     6.105338622000000e+00   6.915363747884593e-01   1.332606172800000e+01  3.98740350e-01   1.05642300e-01  -7.61151700e-02
C     6.175840000725000e+00   8.292461709133602e-01   3.721202216000000e+00  4.17046721e+00  -1.77186931e+00  -1.06981083e+00
C     7.436800644224999e+00   1.529675754336530e+00   3.512439088000000e+00 -1.25537508e+00  -2.34530850e-01   6.90947410e-01
C     8.554620709725000e+00   2.064333684756744e+00   1.314011518400000e+01  3.32498120e+00  -8.41935880e-01   8.26614890e-01
C     2.472182664900000e+00   2.745837853650091e+00   1.299846520000000e+01 -1.59274630e+00   6.07435580e-01   7.25197760e-01
C     2.518743248775000e+00   2.829934917440631e+00   3.506499424000000e+00 -9.07659860e-01   4.44165721e+00   1.86883310e-01
C     3.643673976525000e+00   3.617302813653930e+00   3.707068008000000e+00  5.44345661e+00   4.29734620e-01  -6.88577200e-01
C     3.676986122100000e+00   2.024036621322316e+00   1.309970319200000e+01  1.29354225e+00   1.52821221e+00   2.42817301e+00
C     4.899864845025000e+00   2.789362663045959e+00   1.346570884000000e+01 -8.72440400e-02   7.90428900e-01  -1.60537533e+00
C     5.009746928175000e+00   2.933263391201543e+00   3.623990232000000e+00 -8.25444020e-01   4.04966831e+00   8.06281950e-01
C     6.252650719500000e+00   3.753246699716514e+00   3.600562464000000e+00 -2.88469096e+00  -4.04501379e+00   2.19629270e-01
C     6.177544104524999e+00   2.109871928781217e+00   1.352828924000000e+01 -1.81316790e+00  -6.82002200e-01  -1.74851350e-01
C     7.425921896699999e+00   2.769718818869403e+00   1.354297941600000e+01 -9.63908460e-01   2.59688621e+00  -7.69557780e-01
C     7.429250829899999e+00   2.973004180798252e+00   3.515970464000000e+00  2.68503966e+00   4.32139370e-01  -2.01244200e-01
C     8.774785315275000e+00   3.650977298077910e+00   3.502066368000000e+00 -4.61966625e+00  -1.59802504e+00   2.70283050e-01
C     2.504694412650000e+00   4.188714843975261e+00   1.302285231200000e+01 -1.89789470e+00  -1.51155827e+00   1.05582017e+00
C     3.667497042975000e+00   4.879708073654614e+00   1.321458048800000e+01  6.15597430e-01   3.58106403e+00  -1.85527900e-02
C     3.687749359725000e+00   5.080361797943633e+00   3.789356848000000e+00  4.81289500e-01  -1.01956420e+00  -1.28515293e+00
C     4.982724858675000e+00   5.794484325097268e+00   3.685509016000000e+00 -4.46109740e+00   3.31901790e-01  -1.25883570e-01
C     4.890136389749999e+00   4.271177220947036e+00   1.339981425600000e+01  1.76469304e+00  -3.28723354e+00   7.09482840e-01
C     6.166724221199999e+00   4.949946963861900e+00   1.350762730400000e+01  1.48035280e-01  -1.17872701e+00  -2.97004770e-01
C     6.154045826475000e+00   5.136490763191188e+00   3.676748304000000e+00  3.98485316e+00  -1.41123778e+00  -8.38893120e-01
C     7.436707097474999e+00   5.724974431562186e+00   3.594105728000000e+00  6.70258140e-01   4.65429861e+00   6.82109310e-01
C     7.436559271425000e+00   4.278497351723596e+00   1.358490073600000e+01  6.09284120e-01  -2.56834551e+00  -1.93892669e+00
C     8.690877134325000e+00   4.929278310342587e+00   1.318101106400000e+01 -3.01202032e+00   2.16354290e-01   1.60235025e+00
C     8.684386949549999e+00   5.052744396561061e+00   3.629274104000000e+00 -1.00210831e+00  -1.03140657e+00  -6.70680860e-01
C     9.846701214074999e+00   5.783870804716205e+00   3.664555768000000e+00  2.53396109e+00   1.84392795e+00   1.04010456e+00
C     6.593947717499998e-02   6.872364279760980e-02   7.241608048000001e+00 -3.78676236e+00  -5.81991100e-02  -8.74233020e-01
C     1.235373351900000e+00   7.092176341438189e-01   6.938048432000000e+00  1.74411664e+00   2.99479138e+00  -9.59856280e-01
C     1.182648222075000e+00   6.131092566516918e-01   1.015773813600000e+01 -1.22266193e+00   4.85798410e-01   7.09753650e-01
C     2.380315356375000e+00   1.354251475801825e+00   1.021641710400000e+01  1.93130059e+00  -6.25847420e-01   2.46954120e-01
C     2.434798943250000e+00   2.191127167188960e-02   6.694913208000000e+00  2.35692570e+00   1.70811073e+00   5.17814310e-01
C     3.645995599800000e+00   8.369795044070460e-01   6.599643848000000e+00  1.22385225e+00  -1.30920452e+00   5.22592360e-01
C     3.644861650500000e+00   6.983210455653432e-01   1.053003759200000e+01  7.77816480e-01  -2.41635228e+00  -2.81475293e+00
C     4.910281220175000e+00   1.380863344657797e+00   1.026329576000000e+01 -2.79703042e+00  -2.11156186e+00   1.52617703e+00
C     4.877002684875000e+00   8.153817851999820e-02   6.816651432000000e+00 -3.90870580e-01  -5.32445900e-01   9.40661490e-01
C     6.091420381575000e+00   7.374456174707622e-01   7.128549616000000e+00  2.69142625e+00   1.25038929e+00  -1.21542656e+00
C     6.102123312974999e+00   5.790789516610099e-01   1.037986244800000e+01 -4.50167940e-01   1.11059978e+00  -1.21092454e+00
C     7.298771970899999e+00   1.272412809503035e+00   1.015883565600000e+01  2.14650951e+00   1.51074933e+00   2.59035600e-01
C     1.301332093050000e+00   2.185487193461973e+00   6.790924584000000e+00 -9.27006440e-01  -1.23652356e+00   5.65623400e-01
C     2.475213764475000e+00   2.996775825335892e+00   6.590539464000000e+00  1.23355097e+00  -7.43058230e-01   2.00864515e+00
C     2.405368544100000e+00   2.744674199996930e+00   1.004369098400000e+01 -3.90076690e-01   1.78728444e+00   3.14014900e-01
C     3.673953136800000e+00   3.455570774381326e+00   9.961045008000001e+00 -4.06494940e+00   1.95148642e+00   1.35756412e+00
C     3.744063615825000e+00   2.281021877535001e+00   6.549315279999999e+00 -4.49071778e+00  -3.12727939e+00   3.18653120e-01
C     4.930523479724999e+00   2.858028091139622e+00   6.678856368000000e+00  4.50164265e+00   4.03505844e+00   1.29669835e+00
C     4.810611225300000e+00   2.776956142591831e+00   1.009653092800000e+01  5.54598038e+00  -8.51114530e-01   2.13859280e-01
C     6.081717549975000e+00   3.499934285386539e+00   1.021423199200000e+01  6.65375320e-01  -9.43636540e-01  -2.33457970e-01
C     6.175993446975000e+00   2.165457941047401e+00   6.937239367999999e+00 -1.06775821e+00  -1.89573192e+00   7.25979800e-02
C     7.442544821400000e+00   2.795419233746740e+00   6.969548616000001e+00 -1.25345640e-01   2.92804205e+00  -1.05468530e+00
C     7.341643374149999e+00   2.732981434081299e+00   1.016847030400000e+01 -2.57899501e+00  -5.12450100e-02   3.03449850e-01
C     8.531653466624999e+00   3.468739657691108e+00   1.018421148800000e+01  1.61935317e+00  -2.26442974e+00  -6.36166010e-01
C     9.915671088299998e+00   4.382975838068428e+00   6.974114136000000e+00 -1.35066096e+00  -3.51371380e-01  -1.04545526e+00
C     3.768261682725000e+00   5.083076306680172e+00   7.138036840000000e+00  8.22868130e-01  -2.61358569e+00  -1.94307933e+00
C     3.705607064550000e+00   4.903013103964576e+00   1.014166429600000e+01 -2.71011459e+00  -4.69243050e-01   2.73417940e-01
C     4.920803232900000e+00   5.617739040293781e+00   1.021944650400000e+01 -1.28774503e+00   3.17654890e-01  -5.39872300e-02
C     5.019008574075000e+00   4.327780805744597e+00   6.802377959999999e+00 -1.62697217e+00   2.45632020e-01   1.01964065e+00
C     6.274846701074999e+00   5.038933550443393e+00   6.771333512000000e+00 -2.42347035e+00  -2.41499541e+00   3.31838230e-01
C     6.118560216450000e+00   4.927943598961984e+00   1.034384040000000e+01  9.90726830e-01  -2.29045966e+00  -3.27473180e-01
C     7.373840353724999e+00   5.539110572289895e+00   1.053118706400000e+01 -2.68024870e+00   4.67123726e+00  -6.29215960e-01
C     7.462393888799999e+00   4.245493841395607e+00   6.849827543999999e+00 -8.77086860e-01   7.78422370e-01  -9.46644800e-02
C     8.603525397675000e+00   5.034236155388241e+00   6.909876440000001e+00  2.32266932e+00   3.90803680e-01   1.00097590e-01
C     8.516320414799999e+00   4.829377075175453e+00   1.040475044800000e+01  3.80090307e+00   1.52809697e+00  -4.77669800e-01
C     9.797943612674999e+00   5.577447100265641e+00   1.038258952000000e+01  6.99152080e-01  -1.37187571e+00  -1.11095867e+00
