72
Lattice="7.395 0 0 3.6975 6.40425786098592 0 0 0 13.6 " PBC="1 1 1" Properties=species:S:1:pos:R:3:force:R:3 Energy="-580.9745669"
C     3.683209495275000e+00   6.250446094508016e+00   5.192480000000000e-02 -4.79862470e-01   2.99585290e-01  -7.08350330e-01
C     1.224664504500000e+00   5.369150470603921e-01   1.355537772000000e+01 -4.43092200e-01   1.44574998e+00   5.53035990e-01
C     1.323989744475000e+00   8.814780171679484e-01   3.313490944000000e+00 -6.33685950e-01   6.57350600e-01   5.30335100e-01
C     2.532236276700000e+00   1.608918774924661e+00   3.192201112000000e+00  1.46889529e+00  -3.47647570e-01   4.84658660e-01
C     6.160945916099999e+00   6.263646102510998e+00   9.325955200000000e-02 -1.31313369e+00  -1.13476388e+00  -8.54217300e-02
C     3.659019193125000e+00   5.738789504490042e-01   1.102214720000000e-01  1.19808527e+00  -8.45568300e-02  -9.06795530e-01
C     3.796576472174999e+00   9.262699089814170e-01   3.301598968000000e+00 -8.82550910e-01  -2.21351854e+00   6.50789570e-01
C     5.037205117799999e+00   1.610605144104357e+00   3.491854264000000e+00 -1.64114979e+00  -2.48205240e-01  -1.15936739e+00
C     8.599283145000001e+00   6.259218839052379e+00   1.449708320000000e-01  4.26259260e-01   7.48089200e-02  -6.70984100e-01
C     6.129008390099999e+00   5.782930851790092e-01   9.423548799999999e-02  7.91182440e-01  -1.73688450e+00   2.41336510e-01
C     6.234119736899999e+00   8.908669794036013e-01   3.566344864000000e+00  1.14283701e+00  -4.17849650e-01  -4.49972970e-01
C     7.469186713950000e+00   1.599493116291471e+00   3.416238128000000e+00  3.94522720e-01  -2.22340900e-01  -6.32710800e-02
C     1.198962849225000e+00   2.003655647066073e+00   1.350606956000000e+01  9.08767750e-01  -1.48223434e+00   2.04159560e-01
C     2.432448812250000e+00   2.695420205562084e+00   1.339607656800000e+01  6.77342180e-01   5.10735940e-01   7.35343610e-01
C     2.556196409475000e+00   3.026507208195471e+00   3.230077248000000e+00 -4.09306380e-01   2.81258940e-01   8.52532660e-01
C     3.754574573025000e+00   3.728247999372897e+00   3.468177344000000e+00  1.72268978e+00   8.16653380e-01  -8.68675990e-01
C     3.674382971175000e+00   1.982461139933875e+00   1.348001916800000e+01  3.27055950e-01   3.81875830e-01   1.47724414e+00
C     4.915551229950000e+00   2.693661980609200e+00   1.239951440000000e-01 -3.48922600e-01  -4.99753500e-02  -7.94100640e-01
C     4.995803211975000e+00   3.011447467752524e+00   3.395058032000000e+00  1.09443106e+00   1.67114524e+00   1.20538015e+00
C     6.253649451225000e+00   3.763192704300830e+00   3.428973576000000e+00 -8.70710040e-01  -2.80282648e+00  -1.63090810e-01
C     6.156201801750000e+00   1.957580790275510e+00   1.926351600000000e-01 -4.36116540e-01   2.07012493e+00  -5.15002580e-01
C     7.395770965725000e+00   2.689200966711660e+00   1.301388080000000e-01 -1.21376673e+00   8.77102120e-01   5.36040380e-01
C     7.480791946275001e+00   3.023381418019162e+00   3.343548848000000e+00  5.64588320e-01   5.98673750e-01   5.59834900e-02
C     8.747845478175000e+00   3.741826434972827e+00   3.278178136000000e+00 -2.03899229e+00   2.85973810e-01   7.46884020e-01
C     2.463180916275000e+00   4.133018870601622e+00   1.349412617600000e+01 -7.12220070e-01  -9.81258300e-01  -1.03627110e-01
C     3.674428709250000e+00   4.834340631187268e+00   1.355644858400000e+01  9.41340850e-01   2.10477680e-01   6.90151850e-01
C     3.803163124725000e+00   5.184956905824095e+00   3.587853808000000e+00 -1.22413836e+00  -1.37797879e+00  -6.51978690e-01
C     5.038965238725000e+00   5.887051724376023e+00   3.502635120000000e+00 -7.48438760e-01  -6.27575290e-01  -4.52438430e-01
C     4.911839198775000e+00   4.132213983473776e+00   1.175025040000000e-01 -4.41689740e-01  -1.06976163e+00  -3.07580810e-01
C     6.131426629050000e+00   4.817088072853056e+00   2.290007440000000e-01  8.45601990e-01   1.42958459e+00  -2.86000500e-02
C     6.243222575174999e+00   5.136591310039590e+00   3.430003504000000e+00  4.43697330e-01   1.82609187e+00  -2.66044020e-01
C     7.472448796349999e+00   5.838345229945629e+00   3.345918104000000e+00  1.94065820e-01   2.74457132e+00   5.60967200e-01
C     7.369673234250000e+00   4.131858739290282e+00   3.033558880000000e-01  1.54940511e+00  -9.86306260e-01  -2.41416976e+00
C     8.642686877325000e+00   4.833648651125494e+00   3.340146400000000e-02 -2.20832428e+00   2.96850320e-01   1.49549965e+00
C     8.710398233474999e+00   5.183923514775806e+00   3.441729832000000e+00  5.57164900e-02  -2.18185182e+00  -6.29411380e-01
C     9.927382143074999e+00   5.858143929077240e+00   3.564126160000000e+00  1.35153899e+00   1.48114204e+00  -4.37058900e-02
C     7.425542274374999e+00   1.180332261906798e-01   6.956765160000000e+00  5.39029000e-03  -1.21401660e-01  -4.57208600e-01
C     1.243273615275000e+00   8.411885748003739e-01   6.797525752000000e+00  1.03783299e+00  -1.22309716e+00   1.98386420e-01
C     1.137446839200000e+00   5.655803771565948e-01   1.009654588800000e+01 -5.04243380e-01  -3.99463720e-01   7.66999200e-01
C     2.348873517225000e+00   1.269394162560724e+00   9.942409743999999e+00  8.39691860e-01   3.92257300e-02   6.69043680e-01
C     2.501587292475000e+00   1.122535115571870e-01   6.807988096000000e+00 -7.59556990e-01   1.24361004e+00   3.42751000e-03
C     3.716701487250000e+00   8.238433468549285e-01   6.789525008000000e+00  7.48169890e-01   7.08990710e-01  -1.46093660e-01
C     3.584015590500000e+00   5.519744032478676e-01   1.007254134400000e+01  1.38523305e+00   4.81173170e-01  -4.03917890e-01
C     4.885418342774999e+00   1.287632336179589e+00   1.007319237600000e+01 -3.27451314e+00  -1.08888706e+00   7.46983220e-01
C     4.961766874049999e+00   1.119573146311620e-01   6.907043288000000e+00 -2.32048540e-01   8.96947290e-01   4.64715600e-02
C     6.207253627949999e+00   8.181527794908469e-01   6.964007840000001e+00 -8.51768320e-01   1.34238917e+00  -9.74295470e-01
C     6.058969864424999e+00   5.607493252399038e-01   1.026428352800000e+01  7.31345130e-01  -1.66236840e-01  -4.48512910e-01
C     7.298217050100000e+00   1.271152067300716e+00   1.024656925600000e+01  4.98768900e-01   3.01377600e-02  -8.80122190e-01
C     8.668429057199999e+00   2.231347315486489e+00   6.706299808000000e+00 -9.38730660e-01   1.47726466e+00  -1.97935000e-02
C     2.502985206300000e+00   2.951011062710911e+00   6.613741744000000e+00 -6.24639190e-01   1.40222038e+00   1.58047021e+00
C     2.357932355250000e+00   2.695273676142247e+00   9.888004848000000e+00  9.75830500e-02   7.60394990e-01   9.40301380e-01
C     3.598333456725000e+00   3.423954938646443e+00   9.935089816000000e+00  1.87261000e-02  -1.18628167e+00   7.61420100e-01
C     3.725748936975000e+00   2.272306194928170e+00   6.686459719999999e+00 -2.59536830e-01  -2.14158746e+00   6.16952700e-02
C     4.952551557824999e+00   2.933990146383496e+00   6.742182455999999e+00  2.73099040e-01   2.59018968e+00   4.05174690e-01
C     4.828229627924999e+00   2.698585510009389e+00   1.007058947200000e+01  1.73147230e-01  -4.40587000e-02  -1.93962310e-01
C     6.037966400549999e+00   3.384396926569059e+00   1.022366889600000e+01  1.52049228e+00   1.66869917e+00  -6.70804470e-01
C     6.181368798525000e+00   2.281322365313792e+00   6.813306240000000e+00  9.33749100e-01  -2.31617089e+00   3.88538480e-01
C     7.416967365150000e+00   2.985169452858793e+00   6.777947464000000e+00  4.55305900e-01  -1.85455755e+00   8.03627100e-02
C     7.306828601549999e+00   2.693504051610372e+00   1.017723441600000e+01 -7.70342330e-01   1.92269220e-01   4.26152210e-01
C     8.541069668024999e+00   3.429436983374603e+00   1.009213024000000e+01 -1.86591770e-01  -1.85007909e+00  -5.69472030e-01
C     9.894611533350000e+00   4.397323681207657e+00   6.857838624000000e+00 -7.91063760e-01  -1.01628755e+00  -1.00758733e+00
C     3.719638596375000e+00   5.089288436804372e+00   6.899796528000000e+00  7.51938350e-01   3.53726940e-01   9.06440000e-03
C     3.629953182600000e+00   4.810238975242101e+00   1.011653231200000e+01 -1.78700802e+00   1.41867562e+00   4.22855400e-01
C     4.856811709650000e+00   5.537692733642269e+00   1.019956289600000e+01 -1.16910750e+00   8.03240320e-01  -7.20965110e-01
C     4.958841227175000e+00   4.386740837221743e+00   6.827043192000000e+00  1.26846900e-01  -1.85150730e-01  -1.36042740e-01
C     6.199616589600000e+00   5.125579124606741e+00   6.865290744000000e+00 -6.65994550e-01  -2.31432560e+00  -2.70313030e-01
C     6.063144231000000e+00   4.855982283603251e+00   1.018597364000000e+01  3.90844400e-02  -2.50896285e+00   3.40189820e-01
C     7.280262359849999e+00   5.530409427348406e+00   1.018287868800000e+01  1.29613943e+00   1.08901697e+00  -3.03224970e-01
C     7.412883180600000e+00   4.360673266241292e+00   6.842686456000000e+00  7.51237060e-01   2.79620245e+00  -7.70395600e-02
C     8.654967051300000e+00   5.116830652199667e+00   6.893695975999999e+00 -1.11558130e-01  -1.69223514e+00  -1.45528040e-01
C     8.544496732875000e+00   4.822089478028824e+00   1.015109127200000e+01 -1.33769500e+00   8.66547660e-01   3.90879910e-01
C     9.734356374075000e+00   5.536170761761841e+00   1.022178978400000e+01  2.44590834e+00  -1.10421190e-01  -5.68924470e-01
