72
Lattice="7.395 0 0 3.6975 6.40425786098592 0 0 0 13.6 " PBC="1 1 1" Properties=species:S:1:pos:R:3:force:R:3 Energy="-578.83964202"
C     3.641234698800000e+00   6.192940149777982e+00   3.303739200000000e-01  1.09711770e+00  -4.12422590e-01  -1.34999209e+00
C     1.162530605250000e+00   5.266769442750816e-01   2.853099120000000e-01  1.12086829e+00  -2.28160512e+00   1.54653080e-01
C     1.405726198800000e+00   1.015269304078630e+00   3.437229592000000e+00  4.29483380e-01   1.38604972e+00  -3.08094300e-02
C     2.681639976000000e+00   1.708801886042051e+00   3.534332096000000e+00 -3.29574410e-01   2.50357790e-01  -9.26429560e-01
C     6.088382848349999e+00   6.172241076033833e+00   2.017629360000000e-01  2.04453394e+00  -1.46362400e-02  -3.14602230e-01
C     3.695593938750000e+00   4.905437371734900e-01   2.382778480000000e-01 -1.94889252e+00  -6.41462040e-01  -3.09011060e-01
C     3.934068749174999e+00   1.045550492475489e+00   3.407733912000000e+00 -1.64466276e+00  -5.42960080e-01   3.43371380e-01
C     5.121499835400000e+00   1.807289509371747e+00   3.334327640000000e+00  1.00641259e+00  -1.02015633e+00  -4.41400340e-01
C     8.598137659500001e+00   6.185567311959235e+00   2.020528880000000e-01  1.78308547e+00  -6.70214250e-01  -6.68606270e-01
C     6.182793815025000e+00   5.444019447116251e-01   1.472646080000000e-01 -3.13304918e+00  -6.10945810e-01   8.02751890e-01
C     6.334969419149999e+00   1.111366474119502e+00   3.224723064000000e+00  2.06591792e+00  -2.78025600e+00   9.18250910e-01
C     7.613709676275000e+00   1.820565599958105e+00   3.405566752000000e+00 -2.67379093e+00  -2.13368132e+00  -6.80530980e-01
C     1.180761129000000e+00   1.926824085732546e+00   3.398724320000000e-01  1.24379685e+00  -7.23922940e-01  -9.72005520e-01
C     2.453591597925000e+00   2.583539165642035e+00   4.233952000000000e-01 -6.62564180e-01   1.12266147e+00  -5.89329440e-01
C     2.696458224900000e+00   3.139218111849019e+00   3.459932344000000e+00 -2.67232987e+00   3.09563100e-02   3.47774540e-01
C     3.865026847649999e+00   3.872917430599417e+00   3.294406744000000e+00  2.08255578e+00  -9.38447410e-01   1.30650670e-01
C     3.686572297575000e+00   1.921748903506232e+00   3.025783760000000e-01  6.02953150e-01  -9.04570190e-01  -2.14781900e-02
C     4.907525251575000e+00   2.661886166512974e+00   1.642398560000000e-01 -7.21933180e-01  -5.20657820e-01  -2.87848900e-01
C     5.161517360250000e+00   3.200169611350312e+00   3.286478760000000e+00 -1.45792259e+00   1.82626717e+00   5.99117440e-01
C     6.382333173974999e+00   3.984686396006917e+00   3.365482928000000e+00 -2.71740855e+00  -2.73693889e+00  -2.15716450e-01
C     6.157061877225000e+00   2.015241461875442e+00   6.054121600000000e-02 -1.42355772e+00  -4.37503626e+00   2.00377030e-01
C     7.384872991200000e+00   2.604387522636900e+00   5.495691999999999e-02  9.78856710e-01   1.92234336e+00   1.12225638e+00
C     7.531452798825000e+00   3.228307166556272e+00   3.486656344000000e+00  3.71409422e+00  -3.57085700e-01  -4.46946400e-02
C     8.819697812474999e+00   3.872931071668659e+00   3.520580048000000e+00  2.47829010e-01  -2.59931600e-02  -8.63743870e-01
C     2.465021531775000e+00   4.008942010311038e+00   4.313249520000000e-01 -7.37521600e-01  -1.15426440e-01  -1.45362344e+00
C     3.686525967900000e+00   4.714483408315481e+00   3.519504560000000e-01 -1.96428278e+00   3.19272987e+00  -2.62369970e-01
C     3.838450215975000e+00   5.261204975223999e+00   3.180158448000000e+00  7.33582550e-01   1.57483544e+00   8.42804550e-01
C     5.061636903675000e+00   6.010573591680458e+00   3.286996512000000e+00  2.06556970e-01   5.49129130e-01   3.16312210e-01
C     4.866118243199999e+00   4.069495100930860e+00   1.404161920000000e-01  2.52587409e+00  -1.28685245e+00   6.58141000e-03
C     6.135997515525000e+00   4.714554943875777e+00   9.792000000000000e-03  3.55451000e-02   2.51731933e+00   1.18072017e+00
C     6.313031818874999e+00   5.366983461871832e+00   3.378797600000000e+00  1.09548754e+00   1.69006590e-01  -8.38417200e-02
C     7.581794298299998e+00   6.017330019680180e+00   3.416581528000000e+00  4.10379600e-02   1.22399540e+00  -3.13707850e-01
C     7.406595655800000e+00   4.004270168244746e+00   5.727884799999999e-02 -1.08969443e+00   1.56127709e+00  -3.36249160e-01
C     8.628767823450000e+00   4.693444780819595e+00   1.718287920000000e-01  9.72935300e-02   2.59676142e+00   1.05282735e+00
C     8.800714699575000e+00   5.286856589656442e+00   3.359995328000000e+00  3.19596240e-01  -3.26253580e-01   2.29698400e-01
C     1.002765505230000e+01   5.968534826278425e+00   3.200001392000000e+00 -4.23834400e-01   3.44777235e+00   5.48931170e-01
C     7.361722610925000e+00   1.830128758007550e-01   6.457300944000000e+00 -1.26586781e+00   2.25982893e+00   1.20896300e-02
C     1.198134757125000e+00   8.925550777329185e-01   6.525713296000000e+00  5.17303150e-01   2.62885930e-01   2.66427010e-01
C     1.093826581275000e+00   4.283012033302002e-01   1.023356520800000e+01 -4.81483940e-01  -1.28743584e+00   5.23546300e-01
C     2.346508374375000e+00   1.135754592518746e+00   1.038033980800000e+01 -8.15732050e-01  -1.01428834e+00  -4.15905690e-01
C     2.421147255600000e+00   1.435761603672396e-01   6.562838984000000e+00  6.62357100e-01   2.30345494e+00   1.03049510e-01
C     3.634942256325000e+00   9.335234995188102e-01   6.618734984000000e+00  2.35890100e-02   1.66451400e-02  -4.01622960e-01
C     3.584839134675000e+00   4.550621633091534e-01   1.030633935200000e+01 -3.40807410e-01  -2.86102306e+00  -5.24948200e-01
C     4.792011838950000e+00   1.107023874949793e+00   1.025209915200000e+01  7.59576210e-01   6.22997780e-01   1.96168160e-01
C     4.849029914175000e+00   1.777150175286486e-01   6.455742248000000e+00 -1.14631659e+00   6.58610470e-01   7.57981990e-01
C     6.044130317924999e+00   8.672172719356146e-01   6.444402432000000e+00  3.43508652e+00   9.98992460e-01   4.82597510e-01
C     6.035203147874999e+00   3.684634042707619e-01   1.016320832800000e+01 -1.95982709e+00   1.20052740e+00   5.07346480e-01
C     7.209330592124999e+00   1.071647458999518e+00   1.021519351200000e+01  3.39955904e+00   1.41225912e+00  -1.84981900e-02
C     8.621496172050000e+00   2.359367533511789e+00   6.584140256000000e+00  8.60068070e-01  -2.71556327e+00  -5.47199100e-02
C     2.413321164075000e+00   3.137983563061347e+00   6.602192760000000e+00  1.72708475e+00  -2.29933867e+00   6.93443770e-01
C     2.345280767400000e+00   2.515175570221314e+00   1.044997439200000e+01 -1.05311696e+00   2.53546087e+00  -9.29726280e-01
C     3.596046220200000e+00   3.251092171128001e+00   1.039620108000000e+01 -2.71201002e+00   4.19923840e-01  -7.26944600e-02
C     3.669897718800000e+00   2.426515536748103e+00   6.689912216000000e+00 -1.97184180e+00  -3.52344462e+00  -7.67391190e-01
C     4.895667886725000e+00   3.036121664350375e+00   6.624314112000000e+00  1.66324845e+00   1.61578298e+00  -1.83040870e-01
C     4.759410685650000e+00   2.518208498658653e+00   1.032814219200000e+01  3.24878335e+00   1.16327319e+00  -4.08384650e-01
C     6.040363600725000e+00   3.251218399050422e+00   1.024669165600000e+01 -6.90693460e-01   2.91170790e-01  -3.31588960e-01
C     6.120670046924999e+00   2.278698284698236e+00   6.557408504000000e+00 -2.93828570e-01   2.83886320e-01   1.43424310e-01
C     7.397840567399999e+00   2.948404145506420e+00   6.596187272000000e+00 -2.09810772e+00   2.93867117e+00  -1.65392530e-01
C     7.265173047225000e+00   2.498655210688236e+00   1.022985009600000e+01 -2.15008029e+00   9.64449360e-01   2.19339930e-01
C     8.433703807575000e+00   3.240449767543989e+00   1.029922804800000e+01  3.65380881e+00  -6.43367060e-01  -8.99700900e-02
C     9.856671374925000e+00   4.517723408762765e+00   6.564750736000000e+00 -1.65677810e+00  -1.78709800e-02  -6.06514400e-01
C     3.656591007899999e+00   5.218115143021981e+00   6.485658440000000e+00  2.81154104e+00  -1.91643408e+00   5.99471290e-01
C     3.552198713925000e+00   4.702025269543002e+00   1.029560460000000e+01  9.63698590e-01  -1.65890262e+00   1.05855760e-01
C     4.767869937075000e+00   5.388345888645120e+00   1.023930536000000e+01  2.29938493e+00   1.19419502e+00  -2.19592700e-01
C     4.930136906100000e+00   4.480434297160021e+00   6.554705368000000e+00 -1.11355169e+00  -6.22486970e-01  -6.74212400e-02
C     6.171657203850000e+00   5.140015346504438e+00   6.527166864000000e+00  2.11177610e-01  -3.27107970e-01   4.10728970e-01
C     6.060004868625000e+00   4.705329610428447e+00   1.018621395200000e+01 -4.38385440e-01  -1.42047308e+00   6.03190690e-01
C     7.335953032575000e+00   5.395736146045245e+00   1.018092559200000e+01 -3.17819930e+00   1.04341035e+00   9.98535800e-02
C     7.433611772324999e+00   4.406214776437274e+00   6.576949392000000e+00 -2.43624463e+00  -8.05194500e-02  -2.91390480e-01
C     8.598429946874999e+00   5.163369817685080e+00   6.480023008000000e+00  6.29919000e-02   2.09590460e-01   6.19958420e-01
C     8.507701764149999e+00   4.658638407861439e+00   1.016375749600000e+01  1.70304670e-01  -5.58540700e-02   9.50267190e-01
C     9.737506533150000e+00   5.397588833801565e+00   1.023202024800000e+01 -6.18774670e-01  -1.89661701e+00  -3.82029000e-01
