72
Lattice="7.395 0 0 3.6975 6.40425786098592 0 0 0 13.6 " PBC="1 1 1" Properties=species:S:1:pos:R:3:force:R:3 Energy="-576.83479285"
C     5.625897847500000e-02   1.152004308114660e-02   1.348796836800000e+01 -9.20446800e-01  -6.99264150e-01   3.45547470e-01
C     1.328415541050000e+00   6.791598903036948e-01   1.356089904800000e+01 -2.28768197e+00   2.03649400e+00  -8.41819170e-01
C     1.271648082375000e+00   7.787852300422194e-01   3.466881808000000e+00 -1.58420348e+00  -1.44788157e+00  -1.13935263e+00
C     2.469473395725000e+00   1.483891074469604e+00   3.450637152000000e+00 -6.15739810e-01   1.69135602e+00  -7.81238360e-01
C     6.247647262499999e+00   6.402717251729199e+00   1.353875906400000e+01 -2.92959685e+00  -5.32869080e-01   3.09993770e-01
C     3.721617942075000e+00   7.164986989474315e-01   1.348120876000000e+01 -2.64256160e-01   9.60622920e-01  -6.25552030e-01
C     3.626459525775000e+00   7.196611214786994e-01   3.406053496000000e+00  2.66188178e+00   1.49071318e+00   3.06400500e-01
C     4.902419299875000e+00   1.380181035025393e+00   3.458720855999999e+00 -5.17895080e-01   4.04968770e-01  -3.88394320e-01
C     8.579519046149999e+00   6.371020786387858e+00   1.354995009600000e+01  1.32440606e+00   1.21884135e+00  -2.67988110e-01
C     6.124047676200000e+00   5.746886407702441e-01   1.359431084800000e+01  2.88791556e+00   3.98463072e+00  -5.46611260e-01
C     6.170255851349999e+00   6.527018517215196e-01   3.459913848000000e+00 -8.73867510e-01   3.21083435e+00  -3.57222000e-01
C     7.374081356775000e+00   1.407895588999700e+00   3.378627736000000e+00  2.27705810e+00   3.07973850e-01   5.58871710e-01
C     1.290218997975000e+00   2.111398063429255e+00   1.349903006400000e+01 -2.42299992e+00   1.60675352e+00   9.33362060e-01
C     2.481394875225000e+00   2.861128776625119e+00   1.352019193600000e+01 -5.22676600e-02   7.90415910e-01  -1.82895164e+00
C     2.470061741925000e+00   2.937818739817362e+00   3.358492120000000e+00 -3.74589020e-01  -6.43975650e-01   8.22604510e-01
C     3.699335439000000e+00   3.623094248079306e+00   3.525944160000000e+00  1.32595650e-01  -3.16415030e-01  -1.44924815e+00
C     3.719437600275000e+00   2.131724025110480e+00   1.330913557600000e+01 -1.04570069e+00   2.57996230e-01   3.55317871e+00
C     4.907757565500000e+00   2.774877064320161e+00   1.055315120000000e-01  9.53093820e-01   1.51912370e+00  -2.30430538e+00
C     4.852551080400000e+00   2.813389965557371e+00   3.465461288000000e+00  3.23446953e+00  -4.28583270e-01   9.25923340e-01
C     6.159484701075000e+00   3.437449222298091e+00   3.521477240000000e+00  4.23306820e-01   3.83998017e+00  -1.29523380e+00
C     6.122490806849999e+00   2.011502207838724e+00   4.283319999999999e-02  1.46898935e+00   2.92310330e+00   4.34131710e-01
C     7.353934603650000e+00   2.885911141138225e+00   1.358371522400000e+01  1.00367512e+00  -3.70863065e+00   2.84181410e-01
C     7.459873377000000e+00   2.836687630970794e+00   3.363685688000000e+00 -3.94672166e+00  -8.56173830e-01   3.05469510e-01
C     8.602373367600000e+00   3.632464061583958e+00   3.296107016000000e+00  1.77189113e+00  -5.12279630e-01   1.85435725e+00
C     9.810681019499999e+00   4.325581391467737e+00   1.346624644800000e+01  1.05116846e+00  -9.33795420e-01  -7.97043300e-02
C     3.706983643800000e+00   5.029310704710693e+00   1.340819498400000e+01 -2.06384270e-01  -3.09062939e+00   1.57975502e+00
C     3.780091538175000e+00   5.057829825599952e+00   3.454432640000000e+00 -1.34013939e+00  -1.68777442e+00   1.90267640e-01
C     4.997622529875000e+00   5.756547550897143e+00   3.386284400000000e+00  5.73941250e-01  -1.65741602e+00   1.05144642e+00
C     4.925196713324999e+00   4.238172301682319e+00   5.034597600000000e-02 -5.94533590e-01   6.94198990e-01  -6.25828060e-01
C     6.143577945150000e+00   4.995853965053952e+00   5.633174400000000e-02 -8.41588150e-01  -5.18979340e-01   1.50454900e-02
C     6.219486178124999e+00   4.927141081409547e+00   3.447595784000000e+00 -1.90888868e+00   8.54268130e-01  -3.52248220e-01
C     7.385671651199999e+00   5.753545170769797e+00   3.385322608000000e+00  1.59430940e-01  -3.66048329e+00   1.52297728e+00
C     7.336825272824999e+00   4.317429091424850e+00   3.364449600000000e-02  1.05554618e+00  -2.94826590e+00  -6.75570970e-01
C     8.542739606925000e+00   5.024294953997319e+00   1.348543645600000e+01  1.85899481e+00  -3.53642118e+00   8.61770950e-01
C     8.619536053350000e+00   5.038037530726200e+00   3.577204600000000e+00  4.80486850e-01  -6.38241540e-01  -2.69975935e+00
C     9.900566431049999e+00   5.679236822990531e+00   3.483909552000000e+00 -5.32123790e-01   1.36445900e-02   5.53879700e-01
C     2.234218072500000e-02   1.755836164702620e-02   6.933306112000000e+00  5.87027300e-01  -6.84985420e-01   4.88700430e-01
C     1.241062732125000e+00   7.652564914832838e-01   6.882653184000000e+00 -2.34988300e-02  -2.04679156e+00  -5.47413600e-01
C     1.217674417725000e+00   6.368402341519218e-01   1.019940948800000e+01  1.96678470e-01   3.27856956e+00   6.07800100e-02
C     2.463180065850000e+00   1.375247258812627e+00   1.013095756000000e+01 -9.96790380e-01  -2.21424210e-01   1.33225893e+00
C     2.477997686175000e+00   6.904821058595460e-02   6.681782000000000e+00 -5.02167540e-01  -2.02727535e+00   1.21358654e+00
C     3.786413782500000e+00   6.390956216424780e-01   6.616022056000000e+00 -8.34755580e-01   8.97259350e-01   6.97227300e-01
C     3.656498052750000e+00   6.596566195871653e-01   1.036618642400000e+01  7.70469230e-01   1.67633013e+00  -2.18102248e+00
C     4.905717876600001e+00   1.397658446853068e+00   1.019304890400000e+01  7.51471140e-01   2.44308020e-01   1.96322537e+00
C     5.050361229525000e+00   7.898307176159400e-03   6.823741928000000e+00 -1.06753937e+00  -2.08557970e-01   5.81460260e-01
C     6.268234535774999e+00   8.083615017764287e-01   7.026682896000000e+00 -2.89162230e+00  -2.18137334e+00  -2.40327499e+00
C     6.194387585099999e+00   7.354081028326032e-01   1.029651321600000e+01 -1.54276662e+00  -2.54892550e-01  -1.26665769e+00
C     7.406126553975000e+00   1.483505153890960e+00   1.020503934400000e+01  4.49713180e-01  -2.15183155e+00  -5.19947190e-01
C     8.603876808075000e+00   2.140292922127160e+00   6.915502488000000e+00  5.70112800e-02   1.62941995e+00  -1.87937739e+00
C     2.470260075825000e+00   2.735916057160487e+00   6.675598895999999e+00 -3.16627660e-01   1.91115288e+00   1.71326632e+00
C     2.472724348650000e+00   2.806058627329558e+00   1.013221134400000e+01 -8.96390700e-02   3.58114630e-01   5.43943000e-02
C     3.672772857825000e+00   3.547128926663923e+00   1.010273280000000e+01  1.37981703e+00  -2.92710670e-01   5.28872230e-01
C     3.697760156100000e+00   2.027176116610445e+00   6.615209184000000e+00  1.59627554e+00   3.05244018e+00   6.65948620e-01
C     4.910803898775000e+00   2.849536301387576e+00   6.755442456000000e+00 -4.91117530e-01  -5.12838210e-01  -3.57866330e-01
C     4.931133936975000e+00   2.849540400112606e+00   1.021353268000000e+01 -1.32008932e+00  -1.86613813e+00  -1.29534117e+00
C     6.157730939850000e+00   3.529574023316141e+00   1.014824030400000e+01  2.58198910e-01  -7.55185000e-03   1.24007110e-01
C     6.168428066175000e+00   2.203717233673355e+00   6.773451848000001e+00  1.24436713e+00  -6.83603900e-02   1.32799028e+00
C     7.405552258275000e+00   2.938677806966702e+00   6.793451599999999e+00 -1.30571579e+00  -7.20076580e-01   4.43986440e-01
C     7.421629358024999e+00   2.915598014405677e+00   1.008537036000000e+01  2.88068160e-01  -2.62804326e+00   1.56479854e+00
C     8.679629746049999e+00   3.562669818999892e+00   1.024391290400000e+01 -1.79411829e+00   9.22815170e-01  -9.56684890e-01
C     2.442022342275000e+00   4.160492624480392e+00   6.876354072000000e+00  4.93609820e-01   2.07359361e+00  -1.04127033e+00
C     3.659884112325000e+00   4.946310306036099e+00   6.868096015999999e+00 -7.58483930e-01   1.01197924e+00   4.73169400e-01
C     3.689867805375000e+00   4.972364876373095e+00   1.008080674400000e+01 -1.52135315e+00  -9.14052140e-01   1.25954276e+00
C     4.904339152800000e+00   5.642141055932581e+00   1.025041751200000e+01  2.89581990e-01  -2.58208000e-02  -1.05237805e+00
C     4.883101563225000e+00   4.274237623650595e+00   6.866658223999999e+00  2.10542070e-01  -9.88185500e-02  -6.71492450e-01
C     6.075086934150000e+00   5.058586488666110e+00   6.831803872000000e+00  1.72497474e+00  -8.54657480e-01  -1.10685724e+00
C     6.126671607075000e+00   4.904983630065519e+00   1.023013460800000e+01 -2.98432100e-01   2.61463429e+00   4.82975130e-01
C     7.301182925775000e+00   5.672218460844336e+00   1.035273153600000e+01  2.92170603e+00  -1.52015669e+00   8.04645700e-02
C     7.325680194375000e+00   4.365750369744965e+00   6.738824888000000e+00  1.70609278e+00  -9.15934520e-01   9.93970860e-01
C     8.630011625474999e+00   4.983670184688195e+00   6.865650056000000e+00  5.50076730e-01  -2.50096680e-01  -5.19861240e-01
C     8.610065018024999e+00   4.999943275825298e+00   1.035992648000000e+01  2.59767920e-01  -6.48454870e-01  -1.15985486e+00
C     9.855050686724999e+00   5.683500970001455e+00   1.020811049600000e+01 -5.32395000e-03   1.38598633e+00   7.40288920e-01
