72
Lattice="7.395 0 0 3.6975 6.40425786098592 0 0 0 13.6 " PBC="1 1 1" Properties=species:S:1:pos:R:3:force:R:3 Energy="-577.21603754"
C     3.713298714975000e+00   6.299922572860917e+00   1.325660394400000e+01 -2.65929465e+00   1.86171615e+00  -3.01375160e-01
C     1.138492751025000e+00   6.709288178891298e-01   1.319856526400000e+01  3.50461458e+00  -1.05026723e+00   3.07879210e-01
C     1.298907050700000e+00   8.100075881741845e-01   3.558294344000000e+00 -6.17155920e-01   6.75954700e-02   2.24634720e-01
C     2.555115667200000e+00   1.516584106376539e+00   3.526087776000000e+00 -2.85117661e+00   2.06222910e+00  -4.14390700e-02
C     6.029314361475000e+00   6.350898031808531e+00   1.325905969600000e+01  5.12600184e+00  -1.06734745e+00   4.24839040e-01
C     3.665339366850000e+00   6.928452770098861e-01   1.326667705600000e+01  4.55265220e-01  -1.64343285e+00  -3.29731140e-01
C     3.712056244050000e+00   7.711824153237204e-01   3.605261264000000e+00  2.85547309e+00   4.35324049e+00   2.82561070e-01
C     4.925182256100000e+00   1.550954221289273e+00   3.714766288000000e+00  2.67427023e+00  -3.63303780e-01  -1.30858263e+00
C     8.691443628300000e+00   6.340323897613306e+00   1.328340179200000e+01 -3.80366154e+00   1.13173400e-02  -2.03752680e-01
C     6.206040478199999e+00   6.799508161494049e-01   1.328357084000000e+01 -1.98386614e+00  -1.48129168e+00   2.74674290e-01
C     6.249901036650000e+00   8.483703736071565e-01   3.698069432000000e+00 -2.76914969e+00  -4.46718240e-01  -2.09144110e-01
C     7.459360718625000e+00   1.538879825647765e+00   3.578237656000000e+00  6.23708990e-01   8.78144900e-02   2.08619350e-01
C     1.237227130500000e+00   2.069071490678993e+00   1.316115438400000e+01 -2.34138929e+00  -9.61609200e-02   9.36851080e-01
C     2.413538318250000e+00   2.781467557998730e+00   1.313195912800000e+01  2.72567491e+00  -4.02463750e-01  -1.26364570e-01
C     2.528356637850000e+00   3.023315262035469e+00   3.535728952000000e+00  5.08051750e-01  -3.49941834e+00   6.73119430e-01
C     3.836123601075000e+00   3.676282826415600e+00   3.717600664000000e+00 -6.08290631e+00   7.93765690e-01  -1.34748337e+00
C     3.698799412425000e+00   2.118945609402422e+00   1.314721044000000e+01 -1.17274774e+00  -1.99354173e+00   1.53300491e+00
C     4.918726901775000e+00   2.802878336918861e+00   1.337016081600000e+01 -1.93503760e-01  -2.32426134e+00  -8.52638860e-01
C     4.994301657225000e+00   3.018224709590291e+00   3.612599144000000e+00  1.83524950e-01  -4.78610736e+00   1.09581191e+00
C     6.197672518050000e+00   3.663877842983358e+00   3.651634816000000e+00  2.67240152e+00   1.26263546e+00  -2.80739630e-01
C     6.138481052324999e+00   2.107207501341143e+00   1.338182975200000e+01  1.53094224e+00  -1.59099791e+00   3.65800700e-02
C     7.410175945050000e+00   2.776570350098345e+00   1.337109663200000e+01 -6.44273820e-01  -2.71016490e+00  -3.33073880e-01
C     7.433768250525000e+00   2.955732857988511e+00   3.578672856000000e+00 -1.55241422e+00  -1.32433544e+00  -2.10075570e-01
C     8.604867701100000e+00   3.640190926777205e+00   3.537087048000000e+00  4.48213353e+00   2.39041717e+00   7.66892420e-01
C     2.434723514250000e+00   4.170329884766246e+00   1.312953384000000e+01  5.79831150e-01   2.07041699e+00   4.70959960e-01
C     3.701322253650000e+00   4.922972870181366e+00   1.317540460000000e+01 -3.97843700e-01  -2.67925918e+00   7.86617660e-01
C     3.754262319150000e+00   5.062383573151305e+00   3.721136664000000e+00 -5.46531770e-01   1.74014312e+00   2.65485700e-02
C     4.924478510925000e+00   5.775747900216895e+00   3.690789216000000e+00  4.57197515e+00   1.33807234e+00  -5.52899250e-01
C     4.941623115900000e+00   4.156939734347400e+00   1.333806794400000e+01 -1.14484166e+00   3.63351368e+00  -2.79580150e-01
C     6.147752311725000e+00   4.867792695735770e+00   1.337924072000000e+01  3.98089550e-01   1.49920184e+00   2.88657190e-01
C     6.257744580375000e+00   5.078303725637743e+00   3.678827880000000e+00 -2.66675772e+00   8.35775660e-01  -5.02577810e-01
C     7.468704892725000e+00   5.833399797983557e+00   3.607267400000000e+00 -6.62274150e-01  -4.32813816e+00   7.21957610e-01
C     7.428917352375000e+00   4.105169699127097e+00   1.344548604800000e+01 -2.14137327e+00   5.83956383e+00  -1.18181987e+00
C     8.590141630874999e+00   4.860621207784142e+00   1.319346376800000e+01  2.19132885e+00   2.09198837e+00   1.39543376e+00
C     8.667394200899999e+00   5.070924291433401e+00   3.681573584000000e+00  9.94654440e-01   1.66530435e+00  -9.39608630e-01
C     9.944274578549999e+00   5.827615023986357e+00   3.699294928000000e+00 -1.83757414e+00  -1.86436894e+00   1.17784520e-01
C     7.366382976900000e+00   5.922888222210961e-02   7.042981136000000e+00  3.98012062e+00  -6.88452890e-01  -7.16344560e-01
C     1.273525451025000e+00   8.081700144664147e-01   6.882296727999999e+00 -9.83731530e-01  -1.99088773e+00   3.79273000e-01
C     1.169483938875000e+00   6.233405709236707e-01   1.020358523200000e+01  1.17166854e+00  -7.27514270e-01   4.17424240e-01
C     2.441316600450000e+00   1.327592791820896e+00   1.018912462400000e+01 -2.12602894e+00  -3.06475100e-02   2.72183200e-02
C     2.528798600025000e+00   6.528212270880300e-02   6.781114360000000e+00 -2.55499170e+00  -6.59842840e-01   5.82768800e-01
C     3.734800897650000e+00   7.686582411307801e-01   6.735297184000000e+00 -1.50726000e-01   4.51084280e-01   3.43976160e-01
C     3.642682344000000e+00   5.823775927569601e-01   1.035194137600000e+01 -1.51889619e+00   3.28520543e+00  -1.42027007e+00
C     4.842233798250000e+00   1.267608335256463e+00   1.022607147200000e+01  2.29391107e+00   2.39850902e+00   7.15941230e-01
C     4.950033893099999e+00   4.982589466174320e-02   6.873802983999999e+00  1.14207990e+00   9.97963430e-01   5.73551490e-01
C     6.190974090075000e+00   7.644769652165646e-01   7.036799528000000e+00 -1.89570534e+00   1.48391000e-02  -1.16163414e+00
C     6.077932308300000e+00   6.118711214796180e-01   1.031181552800000e+01  1.16515084e+00  -7.84599130e-01  -6.40117350e-01
C     7.333397986125000e+00   1.316343776932384e+00   1.024040328800000e+01 -1.31294135e+00  -5.34131380e-01  -5.57845520e-01
C     8.643739296749999e+00   2.206131831014312e+00   6.875371607999999e+00  2.73538260e-01   1.04231295e+00  -8.61377240e-01
C     2.495751158475000e+00   2.932608491792780e+00   6.715932552000000e+00 -1.30484926e+00  -9.68611950e-01   1.52210111e+00
C     2.381225569950000e+00   2.780535866565257e+00   1.009492939200000e+01  8.45801200e-01  -2.72491459e+00   4.91493040e-01
C     3.597432339000000e+00   3.470410848779675e+00   1.009962710400000e+01  2.39356235e+00  -9.55272030e-01   4.77446210e-01
C     3.683413560300000e+00   2.200275905712284e+00   6.713945320000000e+00  3.12091584e+00   8.41890330e-01   3.60455530e-01
C     5.009225913450000e+00   2.953510004127883e+00   6.804318271999999e+00 -3.39195459e+00  -3.16214955e+00   4.15264300e-02
C     4.923322006875000e+00   2.705368387594072e+00   1.018918024800000e+01 -4.35666103e+00   5.97834810e-01  -4.40958140e-01
C     6.109543308075000e+00   3.414960286567230e+00   1.024511854400000e+01 -6.30521010e-01   1.78016563e+00  -4.26472950e-01
C     6.178695099300000e+00   2.163179113973077e+00   6.895496616000000e+00  1.07261788e+00   2.87267638e+00   2.61020100e-01
C     7.403328322949999e+00   2.947108307971027e+00   6.888909864000000e+00  6.20437670e-01  -1.96674911e+00   1.23607360e-01
C     7.282435639425000e+00   2.704607049419676e+00   1.016931744800000e+01  3.34364520e+00   9.27561820e-01   8.49570420e-01
C     8.552740087275000e+00   3.424944396485813e+00   1.020497433600000e+01 -9.67353750e-01   2.04747280e+00  -4.33321110e-01
C     9.880703978700000e+00   4.337413001693773e+00   6.935817488000000e+00  1.32607711e+00  -8.20079830e-01  -9.22463640e-01
C     3.716081157675000e+00   5.009464485985760e+00   6.964251959999999e+00 -6.20490770e-01   2.36155728e+00   1.27890530e-01
C     3.564938339249999e+00   4.866101395277522e+00   1.016462912000000e+01  3.76469031e+00   4.10842660e-01   4.15961890e-01
C     4.834659247649999e+00   5.589318224762673e+00   1.025830197600000e+01  1.15955338e+00  -7.13775110e-01  -7.04271170e-01
C     4.943313982649999e+00   4.343476937291092e+00   6.870715648000000e+00  7.40753580e-01  -6.14278290e-01   2.08003400e-02
C     6.165450432449999e+00   5.008993965160786e+00   6.857912064000000e+00  2.04205651e+00   3.03370509e+00  -3.01689950e-01
C     6.112649540849999e+00   4.864910075230405e+00   1.027927154400000e+01 -1.04378387e+00   1.23198167e+00   2.25074950e-01
C     7.331961544349999e+00   5.656059429539719e+00   1.037657410400000e+01  5.22982660e-01  -6.17608861e+00  -5.12760200e-01
C     7.434676467450000e+00   4.357630731417164e+00   6.846115287999999e+00 -6.60370310e-01  -7.21451180e-01   2.49991370e-01
C     8.701016196974999e+00   5.057098331267182e+00   6.901705424000000e+00 -2.81185945e+00  -5.07712100e-02  -9.63358700e-02
C     8.625802428450001e+00   4.890012204338461e+00   1.032327815200000e+01 -4.52062464e+00  -1.27981592e+00  -4.02940200e-01
C     9.796001205000000e+00   5.583316154296281e+00   1.028365618400000e+01 -1.58096560e-01   1.32165981e+00  -2.01356760e-01
