72
Lattice="7.395 0 0 3.6975 6.40425786098592 0 0 0 13.6 " PBC="1 1 1" Properties=species:S:1:pos:R:3:force:R:3 Energy="-573.9370264"
C     3.723604202100000e+00   6.112874118012262e+00   1.165078000000000e-01 -1.19738883e+00   4.92677858e+00  -3.79795210e-01
C     1.217268912900000e+00   5.515728562800456e-01   1.418697600000000e-02 -3.80855600e-02  -1.75438539e+00   7.88744130e-01
C     1.456416335550000e+00   1.003675163734043e+00   3.307771192000000e+00 -2.17657342e+00   5.49430060e-01   6.06468720e-01
C     2.626375957800000e+00   1.843357777298638e+00   3.114924280000000e+00 -6.91839530e-01  -3.27442467e+00   6.38297680e-01
C     6.122046108525000e+00   6.202160680031916e+00   2.158121440000000e-01  4.16296710e-01   2.93239090e-01  -3.24216880e-01
C     3.642491589975000e+00   5.605587345259903e-01   2.027245920000000e-01  2.01419906e+00  -1.18670828e+00  -8.77203180e-01
C     3.807191107275000e+00   1.019689074555551e+00   3.265296080000000e+00  1.71987136e+00   9.98398590e-01   1.24017270e+00
C     5.041185402600000e+00   1.715203838369221e+00   3.541122304000000e+00  7.33455680e-01   1.00056690e-01  -1.55536000e+00
C     8.653959926250000e+00   6.243388025963088e+00   3.108122240000000e-01 -3.08310576e+00  -1.84991749e+00  -9.31179680e-01
C     6.169969886700000e+00   5.231339807417724e-01   2.549198960000000e-01  8.32708980e-01  -1.74590933e+00  -4.44116850e-01
C     6.307088901075000e+00   1.021035633813195e+00   3.668204512000000e+00 -4.91856480e-01   1.81199201e+00  -7.74678930e-01
C     7.542145229325000e+00   1.664904476923888e+00   3.421647800000000e+00  2.34223718e+00   3.29666895e+00  -4.59198950e-01
C     1.180579840575000e+00   2.020026851433591e+00   1.354939032000000e+01  1.99234386e+00  -4.16503733e+00  -3.93582920e-01
C     2.389688038200000e+00   2.717089012031394e+00   1.340903886400000e+01  2.59112813e+00  -3.64188521e+00   5.05527810e-01
C     2.597022392700000e+00   3.254335671563777e+00   3.145560048000000e+00  2.77852342e+00  -1.73769012e+00   1.56436073e+00
C     3.902306780475000e+00   3.834105898818195e+00   3.540094688000000e+00 -3.30131247e+00   3.53811130e+00  -1.47245192e+00
C     3.696215303625000e+00   1.948983778566825e+00   1.347171079200000e+01 -1.17028702e+00   1.58152910e-01   2.53595185e+00
C     4.926549258825000e+00   2.637142035419292e+00   2.621499280000000e-01 -7.55859290e-01  -7.69841200e-01  -1.64164207e+00
C     5.107463940524999e+00   3.163760700947847e+00   3.436664239999999e+00 -2.15076852e+00  -3.41391664e+00   1.26048553e+00
C     6.274985985899999e+00   3.831003484183075e+00   3.485538152000000e+00  4.93432790e+00   1.60405275e+00  -4.63718010e-01
C     6.172380878549999e+00   1.935995879584167e+00   3.282150559999999e-01 -1.76232539e+00  -1.66096734e+00  -6.26638600e-01
C     7.375442961150000e+00   2.606398715775255e+00   1.897776640000000e-01 -8.26202960e-01  -1.82548620e-01   9.09438030e-01
C     7.571675867700000e+00   3.205449665785567e+00   3.298195296000000e+00 -3.09838309e+00  -4.34167116e+00   6.37760070e-01
C     8.752443208500001e+00   3.910503379553972e+00   3.187694752000000e+00  1.64027873e+00  -4.45205340e-01   1.50361455e+00
C     2.463154959825000e+00   4.053618497397870e+00   1.354928288000000e+01 -2.12669850e+00   3.19175703e+00   2.17053880e-01
C     3.702273879225000e+00   4.743470680454307e+00   1.359494964000000e+01 -2.25207100e-01  -2.18209620e-01   8.86730750e-01
C     3.924202562025000e+00   5.309472842033561e+00   3.721272800000000e+00 -1.05652215e+00  -6.66140080e-01  -9.16866250e-01
C     5.186391588974999e+00   5.956866588670398e+00   3.572997576000000e+00 -2.77464603e+00   3.05714925e+00  -5.50136980e-01
C     4.904707164974999e+00   4.048701180127805e+00   2.426480720000000e-01 -1.88490200e-02  -2.07173080e-01  -4.53364500e-01
C     6.085847398649999e+00   4.751833936751101e+00   4.117761760000000e-01  2.71054281e+00   1.57884610e-01  -6.43230300e-02
C     6.346389998325000e+00   5.253263183136970e+00   3.486215704000000e+00  1.99012890e-01  -1.10621117e+00  -5.29671700e-01
C     7.526309243549999e+00   5.978253671836447e+00   3.355224176000000e+00  2.20071969e+00   3.25458060e-01   1.10609699e+00
C     7.368336588000000e+00   3.904938463729103e+00   4.972811440000000e-01  1.36910480e-01   8.58280092e+00  -2.75748229e+00
C     8.586746068724999e+00   4.751440010850133e+00   1.597995920000000e-01  4.40757200e-01   2.68616930e-01   1.71097239e+00
C     8.799622679924999e+00   5.235534019932817e+00   3.535920439999999e+00 -2.89338210e-01   5.44687258e+00  -7.25488380e-01
C     1.005051288637500e+01   6.074264320353629e+00   3.738553912000000e+00 -5.23432160e-01  -5.97429149e+00  -1.01417986e+00
C     7.376824864800000e+00   1.539817985381676e-01   6.674588552000000e+00  1.57352601e+00  -3.77500610e-01   4.54185080e-01
C     1.208109650775000e+00   8.889998180245183e-01   6.593235936000000e+00 -2.10198130e-01   9.66084850e-01   9.30976200e-02
C     1.088228603250000e+00   4.273764925377949e-01   1.021093793600000e+01  1.73775530e+00   1.04762086e+00  -2.35422020e-01
C     2.282012253300000e+00   1.118374653495700e+00   9.842363928000001e+00  2.16509686e+00   7.70137030e-01   1.42721666e+00
C     2.440639144500000e+00   2.309069260790292e-01   6.711715055999999e+00  1.04296075e+00  -2.98357889e+00   4.96870700e-01
C     3.745704751200000e+00   8.682967095979177e-01   6.723947576000000e+00 -1.16461710e+00  -1.03207714e+00  -1.82120330e-01
C     3.601749096299999e+00   3.994844125356084e-01   9.931499143999998e+00 -2.69218917e+00   8.96909580e-01  -8.37798000e-02
C     4.822755331274999e+00   1.111324270060204e+00   1.002037310400000e+01 -2.40876500e-01   2.29275880e-01   1.27846450e+00
C     4.996439625674999e+00   1.299441211290222e-01   6.838179824000000e+00 -3.41267230e-01   2.26996903e+00  -3.80957350e-01
C     6.238777588574999e+00   9.086541011413867e-01   6.793884623999999e+00 -3.25690085e+00  -4.30596590e-01  -8.94164330e-01
C     6.023107700999999e+00   4.747030615270945e-01   1.033702394400000e+01  1.18649283e+00  -1.50391816e+00  -4.81837750e-01
C     7.306963412400000e+00   1.124389020137183e+00   1.043084436000000e+01 -2.55200362e+00   1.88818507e+00  -1.53403859e+00
C     8.566104996824999e+00   2.332863448315600e+00   6.499588784000000e+00  1.10915695e+00   1.90968320e-01  -2.25583120e-01
C     2.459038570050000e+00   3.003954037758274e+00   6.449385472000000e+00 -1.18383425e+00  -1.68108833e+00   1.54405179e+00
C     2.324558646300000e+00   2.618593703592266e+00   9.826644095999999e+00  5.31409910e-01  -4.19190220e+00   5.47703650e-01
C     3.568119631275000e+00   3.227932517471462e+00   9.899674736000000e+00  1.08629250e+00   2.73243763e+00   1.70620332e+00
C     3.684631627725000e+00   2.255178135366757e+00   6.590439504000000e+00  1.17198951e+00   2.47300528e+00  -4.33756000e-03
C     4.920443207325000e+00   3.054173858320985e+00   6.668333504000000e+00 -9.44512710e-01  -4.00544228e+00  -1.39793950e-01
C     4.804115124525000e+00   2.491246124770003e+00   1.013842056000000e+01 -1.34522263e+00   2.84517403e+00  -1.09771022e+00
C     5.985520653824999e+00   3.248308048108524e+00   1.031964926400000e+01  2.05864497e+00   1.15806060e-01  -7.64632020e-01
C     6.181966832175000e+00   2.324136238044621e+00   6.621894943999999e+00 -8.96407600e-01   1.76663421e+00   8.05347820e-01
C     7.352625947475000e+00   3.126556701932064e+00   6.525065256000000e+00  1.19024818e+00  -2.04535287e+00   7.87768580e-01
C     7.269022107750000e+00   2.528188894107677e+00   1.027602413600000e+01  1.16100519e+00   2.16714655e+00   2.60060760e-01
C     8.575020445800000e+00   3.305697563430663e+00   1.009788916000000e+01 -4.53877023e+00   7.47082100e-02   4.22850700e-02
C     9.798428354924999e+00   4.394199364010656e+00   6.664801176000000e+00  3.15525363e+00  -2.77063570e-01  -8.58792450e-01
C     3.618588065925000e+00   5.126414303874264e+00   6.679722551999999e+00  6.10500500e-01   5.46231810e-01   6.28107420e-01
C     3.500226062324999e+00   4.690083249911459e+00   1.016836395200000e+01  2.68074086e+00   2.13628030e-01   2.62062330e-01
C     4.771395725174999e+00   5.461914800811870e+00   1.031786861600000e+01  2.75407290e-01  -4.54492447e+00  -1.21853232e+00
C     4.824548655750000e+00   4.410717033755433e+00   6.750375096000000e+00  3.25740242e+00   2.12888117e+00  -1.95742470e-01
C     6.124849109325000e+00   5.128962686161914e+00   6.836376056000000e+00 -1.43118919e+00   3.64023211e+00  -1.14890242e+00
C     6.012141470625000e+00   4.690397827057542e+00   1.024398348800000e+01 -5.65013700e-02   8.30147150e-01   7.35890900e-02
C     7.295658121275000e+00   5.413417149230291e+00   1.011390846400000e+01 -2.42813313e+00  -8.75496600e-01   2.32847750e-01
C     7.384329199874999e+00   4.560994033164168e+00   6.692405776000000e+00 -9.78960330e-01  -3.80782268e+00  -7.36642500e-02
C     8.666403825524998e+00   5.123968261627216e+00   6.750773575999999e+00 -2.67157966e+00   2.72291213e+00   2.03772780e-01
C     8.516378021849999e+00   4.739164137256349e+00   1.012763739200000e+01 -2.41849720e-01  -1.26411352e+00   2.33774900e-01
C     9.701080685850000e+00   5.467521024099935e+00   1.022829820000000e+01  1.18373354e+00  -1.34124750e+00  -3.67377460e-01
