72
Lattice="7.395 0 0 3.6975 6.40425786098592 0 0 0 13.6 " PBC="1 1 1" Properties=species:S:1:pos:R:3:force:R:3 Energy="-582.67831535"
C     3.726181581450000e+00   6.402764643237363e+00   1.354539464000000e+01 -6.11002610e-01   5.10174900e-02   1.61037890e-01
C     1.273616372550000e+00   7.003620825453252e-01   1.357852750400000e+01 -9.62446500e-01   8.62145740e-01  -3.63126670e-01
C     1.254265025625000e+00   7.393971229258615e-01   3.429642288000000e+00 -8.60019740e-01  -4.29636310e-01  -4.96471170e-01
C     2.466904446675000e+00   1.454446346191839e+00   3.422848951999999e+00 -4.39771770e-01   8.62116600e-01  -3.54730130e-01
C     2.504605524750000e+00   2.992453527663600e-03   1.357127557600000e+01 -1.53630397e+00  -5.47490950e-01   1.10842330e-01
C     3.703324228050000e+00   7.090696957872528e-01   1.353911021600000e+01  3.39529890e-01   7.18853220e-01  -1.89160820e-01
C     3.662421336825000e+00   7.161678549863839e-01   3.404031720000000e+00  1.39608537e+00   6.60957850e-01   1.56228850e-01
C     4.919903963925000e+00   1.403095085393001e+00   3.427443440000000e+00 -3.13219680e-01   2.62816290e-01  -1.52871490e-01
C     8.608990228725000e+00   6.388872591130029e+00   1.357453332000000e+01  4.00434390e-01   4.75547840e-01  -1.47522920e-01
C     6.147680432325000e+00   6.633747395729455e-01   1.359497412000000e+01  1.26890451e+00   8.32754360e-01  -2.81536280e-01
C     6.168067190174999e+00   6.878897263203966e-01   3.429146704000000e+00 -7.39825960e-01   1.37409532e+00  -1.23480550e-01
C     7.379463918450000e+00   1.410718393736652e+00   3.391934928000000e+00  1.58741443e+00   6.47006370e-01   2.49679330e-01
C     1.249975297050000e+00   2.133457337500289e+00   1.355189149600000e+01 -8.50077150e-01   3.47765430e-01   3.63588610e-01
C     2.467535942700000e+00   2.861401533967377e+00   1.355662606400000e+01  2.14998880e-01  -6.09816100e-02  -7.61626790e-01
C     2.455511894550000e+00   2.900434332857662e+00   3.382077376000000e+00  9.40260290e-01  -1.14076393e+00   3.87198030e-01
C     3.704713415775000e+00   3.583416604465098e+00   3.458408600000000e+00 -3.91597360e-01   2.89593990e-01  -6.43751430e-01
C     3.704838724050000e+00   2.134720129065124e+00   1.346621462400000e+01 -6.10538330e-01   4.89012500e-02   1.59644705e+00
C     4.924425377850000e+00   2.822730959901653e+00   4.615350400000000e-02  4.24450360e-01   1.15960290e-01  -1.02156399e+00
C     4.902764202675000e+00   2.834949579430168e+00   3.433902624000000e+00  9.42971870e-01  -6.13114940e-01   3.63770900e-01
C     6.151252513125000e+00   3.507456982839209e+00   3.457055535999999e+00  1.04183930e+00   1.65447041e+00  -5.78913350e-01
C     6.151322100074999e+00   2.075232835038363e+00   2.246869600000000e-02  4.71740870e-01   1.85383137e+00   1.39039520e-01
C     7.380483467099999e+00   2.853528267439450e+00   1.359227384000000e+01  2.42595150e-01  -1.46361028e+00   1.50138850e-01
C     7.424586063900000e+00   2.842580316712937e+00   3.383207944000000e+00 -1.98029873e+00  -5.72635810e-01   1.44678650e-01
C     8.624283902175000e+00   3.586600161047304e+00   3.352604272000000e+00 -3.19382800e-02   1.02794850e-01   8.37084100e-01
C     9.846928166625000e+00   4.291726114844368e+00   1.353434300800000e+01 -2.23071240e-01  -1.56368170e-01  -2.35192100e-02
C     3.695103428400000e+00   4.996747999451208e+00   1.350788760800000e+01  3.51265910e-01  -1.18738800e+00   7.31538540e-01
C     3.736106484900000e+00   5.017034895159488e+00   3.427304584000000e+00 -5.54402190e-01  -7.38305840e-01   7.75542000e-02
C     4.964248414200000e+00   5.723494855868791e+00   3.395217016000000e+00  2.60416650e-01  -9.72810030e-01   4.60701410e-01
C     4.924776196650000e+00   4.249164121575173e+00   2.382896800000000e-02 -7.49515800e-02   7.52170260e-01  -3.00924320e-01
C     6.154273814324999e+00   4.986107132889082e+00   2.740440800000000e-02 -3.99603700e-01  -3.37760790e-01  -3.47028200e-02
C     6.189546929024999e+00   4.951828086523118e+00   3.422489504000000e+00 -1.10400601e+00   6.41339930e-01  -1.45595720e-01
C     7.387104765225000e+00   5.718621792020538e+00   3.397183848000000e+00  3.07525430e-01  -1.64579994e+00   6.44393440e-01
C     7.365589678275000e+00   4.279613101527965e+00   1.384466400000000e-02  5.48045710e-01  -8.05855110e-01  -2.99220040e-01
C     8.588714137049999e+00   4.999249502571325e+00   1.354698516000000e+01  9.72989330e-01  -1.50852978e+00   4.06253090e-01
C     8.625750071850000e+00   5.001890106172159e+00   3.480829152000000e+00  2.57874270e-01   2.74950870e-01  -1.18550680e+00
C     9.879742185000000e+00   5.696648847345457e+00   3.443348912000000e+00 -3.36008810e-01  -6.52969160e-01   2.02194590e-01
C     1.072770465000000e-02   1.052181140850840e-02   6.866884799999999e+00  3.57725440e-01  -6.91600300e-01   2.07584350e-01
C     1.232245119000000e+00   7.348451685667093e-01   6.838883623999999e+00  2.73895300e-01  -7.98634220e-01  -2.54418740e-01
C     1.211607374850000e+00   6.846042779956381e-01   1.019991214400000e+01  1.30530923e+00   8.31080750e-01   6.30975300e-02
C     2.461428375225000e+00   1.402736318867684e+00   1.017083779200000e+01 -3.87206870e-01  -9.56335300e-02   5.64682790e-01
C     2.473887508199999e+00   3.041599802481241e-02   6.744207224000000e+00 -4.04238680e-01  -9.10026940e-01   5.19598740e-01
C     3.741241461975000e+00   6.795905766447798e-01   6.710293584000000e+00 -5.71555310e-01   3.56886040e-01   3.57108090e-01
C     3.686348931600000e+00   6.883218215982109e-01   1.027614776000000e+01 -2.96587350e-01   5.84392420e-01  -9.21340710e-01
C     4.912675129575000e+00   1.411923098682697e+00   1.020084714400000e+01  8.90004850e-01   5.19911900e-02   7.94238160e-01
C     4.982473724475000e+00   3.430184552394600e-03   6.814945175999999e+00 -3.16476200e-02  -1.95109770e-01   2.19737090e-01
C     6.217346249999999e+00   7.574815303135081e-01   6.906610944000000e+00 -1.77459785e+00  -1.26560368e+00  -1.06774457e+00
C     6.174896694525000e+00   7.213869408868122e-01   1.024461384800000e+01 -4.94600200e-01  -4.15662000e-02  -5.55340400e-01
C     7.418125052400000e+00   1.438427952389828e+00   1.020045777600000e+01 -1.25565563e+00  -1.19261280e-01  -2.19866500e-01
C     8.614636643999999e+00   2.135253603744862e+00   6.851755207999999e+00 -7.90251200e-02   1.00051350e+00  -8.44777030e-01
C     2.469718244175000e+00   2.798598499476180e+00   6.742936440000000e+00 -3.15701010e-01   6.36396550e-01   7.45354160e-01
C     2.468945355750000e+00   2.829684575000884e+00   1.016665429600000e+01 -1.47697200e-01  -1.24650380e-01   4.58216500e-02
C     3.682552782300000e+00   3.547013842150179e+00   1.015316608800000e+01  9.97591980e-01   1.37454570e-01   2.34846620e-01
C     3.699197411325000e+00   2.084195850083748e+00   6.709643232000000e+00  8.37898320e-01   1.56222210e+00   3.22080130e-01
C     4.926197404724999e+00   2.846155109407810e+00   6.777607600000000e+00 -6.60427570e-01  -1.38255900e-01  -1.34354640e-01
C     4.931754932100000e+00   2.841064172707161e+00   1.020327991200000e+01 -8.76151280e-01  -5.15515340e-01  -5.62665440e-01
C     6.157800600749999e+00   3.544737512736420e+00   1.017503924000000e+01  2.44474860e-01  -1.64224200e-01   9.71049700e-02
C     6.162739795200000e+00   2.165111150484282e+00   6.790001687999999e+00  8.19411670e-01   3.65834020e-01   5.88513840e-01
C     7.395325934624999e+00   2.902579951368498e+00   6.798129728000000e+00 -3.08400720e-01  -1.26325334e+00   2.20557660e-01
C     7.406522260425000e+00   2.874987974889631e+00   1.014799985600000e+01  3.58933320e-01  -1.20141692e+00   7.13671370e-01
C     8.652647572574999e+00   3.562863932055628e+00   1.021915328800000e+01 -1.02156808e+00   2.79721750e-01  -4.41528720e-01
C     2.444946879900000e+00   4.222933946487657e+00   6.835555568000000e+00  9.80910020e-01   6.94845930e-01  -4.43123930e-01
C     3.685552933799999e+00   4.961010831655679e+00   6.834659464000000e+00 -1.06285164e+00   9.66198490e-01   2.01718140e-01
C     3.693637332675000e+00   4.975649876399803e+00   1.014430677600000e+01 -7.18352710e-01  -3.66992360e-01   5.92362220e-01
C     4.915835271900000e+00   5.673461975593012e+00   1.022208612800000e+01  1.13859200e-01  -1.93567900e-01  -4.90605300e-01
C     4.900072681499999e+00   4.277342856159173e+00   6.831418584000000e+00  7.40505870e-01  -5.19208310e-01  -3.18196090e-01
C     6.120144927975000e+00   5.014721613177877e+00   6.812614543999999e+00  9.57076890e-01  -2.43961920e-01  -4.70795070e-01
C     6.146289691649999e+00   4.945504202099261e+00   1.021586807200000e+01 -2.77253570e-01   1.25620573e+00   1.85439530e-01
C     7.353347847375000e+00   5.680550912660824e+00   1.027589452800000e+01  1.45653554e+00  -5.99936080e-01  -7.75937000e-03
C     7.369267507574999e+00   4.311592250811246e+00   6.771767080000000e+00  3.34888420e-01  -3.47039800e-02   4.25950700e-01
C     8.635003028625000e+00   4.974870350133084e+00   6.831482096000000e+00 -1.19557370e-01   4.60895460e-01  -2.15560150e-01
C     8.620804850475000e+00   4.988863653557184e+00   1.027702441600000e+01 -1.11440370e-01  -1.61262200e-01  -5.34808710e-01
C     9.854053397024998e+00   5.694546649702911e+00   1.020490008000000e+01  2.14741490e-01   3.94530850e-01   3.22959820e-01
