72
Lattice="7.395 0 0 3.6975 6.40425786098592 0 0 0 13.6 " PBC="1 1 1" Properties=species:S:1:pos:R:3:force:R:3 Energy="-576.89401674"
C     3.635304574350000e+00   6.200673163058775e+00   3.318132080000000e-01  1.29853730e-01  -1.62599070e-01  -1.35945371e+00
C     1.180177293750000e+00   4.626935410177080e-01   3.343213200000000e-01  6.68484150e-01   5.92112810e-01  -5.24734300e-01
C     1.416476643075000e+00   1.065688040890473e+00   3.442623352000000e+00 -6.81003080e-01  -1.58846955e+00  -5.10812210e-01
C     2.665974038250000e+00   1.718565177149621e+00   3.629727256000000e+00 -5.60577850e-01   1.35311836e+00  -9.31712420e-01
C     6.118746274649999e+00   6.165697077267327e+00   1.509498000000000e-01 -3.78023500e-02   1.50577490e-01   5.37097490e-01
C     3.641298369749999e+00   4.538277426066384e-01   3.025896640000000e-01  2.28145791e+00   9.79183740e-01  -1.98527304e+00
C     3.900363966075000e+00   1.028390411624776e+00   3.474559824000000e+00  1.30517123e+00   2.41239027e+00  -4.14729610e-01
C     5.136042028950000e+00   1.786760532716359e+00   3.332712504000000e+00  1.52617500e-02  -4.36070400e-02  -9.61831160e-01
C     8.657725940924999e+00   6.173286314959164e+00   8.824985600000000e-02 -3.82311045e+00   1.21877382e+00   6.59642980e-01
C     6.108251845275000e+00   5.351436933788946e-01   1.198354480000000e-01  1.95817461e+00  -1.91647939e+00   4.50527670e-01
C     6.388466217225000e+00   1.067433201157323e+00   3.141730424000000e+00 -2.79371667e+00  -6.98886500e-02   4.98152230e-01
C     7.572563563499999e+00   1.750997491719076e+00   3.334398088000000e+00  1.97569597e+00   2.33535160e+00   1.19406298e+00
C     1.215538076175000e+00   1.897399274696726e+00   4.147732079999999e-01 -8.47648210e-01   2.40630910e-01  -1.07891348e+00
C     2.442486341550000e+00   2.605678749106633e+00   5.730831919999999e-01 -7.93537600e-02  -1.86873410e-01  -1.62251593e+00
C     2.639227321575000e+00   3.165272105802807e+00   3.587480623999999e+00  2.64218529e+00  -7.08383190e-01  -8.05844740e-01
C     3.923919148650000e+00   3.867394270535796e+00   3.337340856000000e+00 -3.75747252e+00   1.69540466e+00  -7.45351830e-01
C     3.682731519450000e+00   1.903400896865068e+00   3.474231520000000e-01 -9.55739260e-01  -5.53066820e-01   1.10188006e+00
C     4.892011281075000e+00   2.622363826151870e+00   1.746600400000000e-01  7.37459110e-01   1.91667910e-01  -1.17471211e+00
C     5.137931044725000e+00   3.248638892069571e+00   3.173039936000000e+00  2.29712380e-01  -3.69463465e+00   2.09979704e+00
C     6.356737710899999e+00   3.911023661462518e+00   3.278820600000000e+00  2.18619976e+00   1.77281939e+00   1.08675736e+00
C     6.110620204949999e+00   1.899490072760280e+00   1.359043008800000e+01  1.50805555e+00   2.51979917e+00   1.00168633e+00
C     7.409467245225000e+00   2.639613694697780e+00   7.568576800000000e-02 -1.12466276e+00  -1.36633588e+00   1.01578909e+00
C     7.605218885175001e+00   3.206525645148626e+00   3.582364168000000e+00 -2.76564827e+00  -1.70017212e+00  -2.58581948e+00
C     8.821740607275000e+00   3.875643274872369e+00   3.537532312000000e+00  7.15646290e-01   1.09675856e+00  -3.33360000e-02
C     2.396421074775000e+00   4.018041051793369e+00   4.926412320000000e-01  1.64512218e+00   1.74744130e+00  -1.80152889e+00
C     3.647340380550000e+00   4.781942786568948e+00   4.155840400000000e-01  1.28439482e+00  -1.66805504e+00  -1.63682934e+00
C     3.836106777450000e+00   5.290297917617512e+00   3.067341008000000e+00  1.28806801e+00   7.95494360e-01   1.64103209e+00
C     5.055028509825000e+00   6.043156662479937e+00   3.245341208000000e+00  2.40988642e+00  -3.50798690e-01   3.66929690e-01
C     4.948476173325000e+00   4.044001223369508e+00   8.331305600000000e-02 -2.57689722e+00   1.07113812e+00   1.29761932e+00
C     6.171526719075000e+00   4.766970848501262e+00   1.348860716000000e+01 -1.24409218e+00  -5.83043270e-01   1.78717820e+00
C     6.368121278100000e+00   5.363565957750001e+00   3.371981824000000e+00 -1.64906401e+00  -1.05586495e+00  -9.39431630e-01
C     7.620665376300000e+00   6.057930708979749e+00   3.366070992000000e+00 -9.38091270e-01  -2.36441364e+00   7.05340120e-01
C     7.396759751175000e+00   4.053263829597583e+00   4.040981600000000e-02  3.64809200e-01   4.41672150e-01  -1.08526223e+00
C     8.633963846249999e+00   4.783141535555183e+00   8.977564000000000e-02 -5.36249000e-03  -2.34765828e+00   2.01094430e+00
C     8.828895787424999e+00   5.287075487190097e+00   3.332232832000000e+00  1.44719640e-01   1.96599042e+00  -9.87557200e-01
C     1.002012061957500e+01   6.057443665169497e+00   3.012159280000000e+00  2.32547590e-01  -2.28858261e+00   2.33957876e+00
C     7.323213148425000e+00   2.385673791182682e-01   6.433031200000000e+00  2.53437474e+00  -2.46543552e+00   5.61943360e-01
C     1.203583097325000e+00   9.100484361626658e-01   6.549241568000000e+00 -2.96168210e-01  -4.91828470e-01  -5.39527500e-02
C     1.113506709900000e+00   3.978967970121144e-01   1.023132080000000e+01  1.28663425e+00   8.80256200e-01   1.00353023e+00
C     2.340496867950000e+00   1.108671946667485e+00   1.052902425600000e+01 -6.33215970e-01   4.65843510e-01  -3.76479900e-01
C     2.446502270250000e+00   2.037879680857020e-01   6.495547000000000e+00 -1.51483813e+00  -1.81593329e+00   3.61933530e-01
C     3.615503722350000e+00   9.440805983881272e-01   6.558560696000000e+00  1.06697410e+00  -4.98456500e-01  -5.81082250e-01
C     3.576763277025000e+00   3.751207584013890e-01   1.052232911200000e+01 -7.39682750e-01   2.12481160e+00  -1.73982646e+00
C     4.801409072175000e+00   1.099310010400002e+00   1.029442738400000e+01  2.86707000e-01   8.38617300e-01   1.26484001e+00
C     4.808168471925000e+00   2.154080456746218e-01   6.325765552000000e+00  2.56186058e+00  -5.80545760e-01   1.78354162e+00
C     6.103724108624999e+00   8.880772206372067e-01   6.433567040000000e+00 -1.80869729e+00   8.32019400e-02  -2.60148400e-01
C     5.990407047974999e+00   3.877609702248282e-01   1.013933869600000e+01  2.34816342e+00  -9.81785070e-01   2.88244430e-01
C     7.282165056374999e+00   1.104039426744454e+00   1.014706186400000e+01 -2.63422949e+00  -5.80497730e-01  -1.28831610e-01
C     8.627606808450000e+00   2.298848321416046e+00   6.667930808000000e+00 -1.54764705e+00   2.17665598e+00  -3.48455930e-01
C     2.442062792925000e+00   3.077503673108865e+00   6.643367304000000e+00 -1.02186463e+00   3.28525600e-02   6.87997190e-01
C     2.310621585600000e+00   2.589758788747931e+00   1.061923985600000e+01  1.17295599e+00  -3.84031544e+00  -1.00106791e+00
C     3.537730063650000e+00   3.261214100675732e+00   1.050346115200000e+01  2.75953833e+00  -2.88051850e-01  -8.89023700e-02
C     3.632145615225000e+00   2.349353387623843e+00   6.675157440000000e+00  2.19340351e+00   1.44726697e+00  -8.11711890e-01
C     4.926952656075000e+00   3.081319458027011e+00   6.571117032000000e+00 -1.90273726e+00  -2.86841621e+00  -4.71674300e-02
C     4.857027680625000e+00   2.546376794302341e+00   1.040074756000000e+01 -3.97706954e+00  -8.26733410e-01  -5.42411090e-01
C     6.015965609999999e+00   3.259154491347955e+00   1.020103999200000e+01  9.01725870e-01  -4.43636510e-01  -3.42069500e-02
C     6.119436191175000e+00   2.285697113857958e+00   6.532104480000000e+00 -2.73154100e-02   2.23761147e+00   5.57351010e-01
C     7.336871676450000e+00   3.016354602252592e+00   6.646664488000000e+00  1.82383618e+00  -1.31612119e+00  -6.76797900e-01
C     7.203293868749999e+00   2.501459058821923e+00   1.015396984800000e+01  3.49598731e+00   6.24851990e-01   1.28426609e+00
C     8.504548831950000e+00   3.191720602040771e+00   1.039963236000000e+01 -3.20854713e+00   2.64091836e+00  -1.41601098e+00
C     9.827047300724999e+00   4.527472226247571e+00   6.580602080000000e+00  1.21561305e+00  -1.23045761e+00  -7.19506560e-01
C     3.725311818525000e+00   5.182680576410338e+00   6.480259784000000e+00 -3.32806544e+00   1.65495111e+00  -4.73286900e-02
C     3.576202773000000e+00   4.645239675737061e+00   1.031594244800000e+01  6.26154310e-01   1.05047991e+00  -2.53013960e-01
C     4.843061742450000e+00   5.393022213691913e+00   1.021395713600000e+01 -1.82300279e+00  -1.29874843e+00   1.51978160e-01
C     4.921639829249999e+00   4.468574636284560e+00   6.457721456000000e+00  6.89478640e-01  -1.01562780e-01   7.22371920e-01
C     6.170637063599999e+00   5.123557940826125e+00   6.455049464000000e+00 -9.07875250e-01   2.96339820e+00  -6.99459800e-02
C     6.046084224825000e+00   4.671285216070474e+00   1.019046857600000e+01 -2.68504320e-01   1.21733705e+00   4.08995920e-01
C     7.240125220875000e+00   5.430525099422023e+00   1.024412016800000e+01  2.00702754e+00  -3.30627656e+00   3.75785150e-01
C     7.361826510675000e+00   4.419499256601430e+00   6.521234272000000e+00  8.66798550e-01   5.39677980e-01   1.55365780e-01
C     8.582289287100000e+00   5.188130663891775e+00   6.427544144000000e+00 -5.17964410e-01   2.92625440e-01   5.67442890e-01
C     8.508937431674999e+00   4.643705920022169e+00   1.024719567200000e+01 -1.22156675e+00  -1.24409230e-01   5.03885950e-01
C     9.732184129800000e+00   5.325369298765916e+00   1.023065453600000e+01 -4.11446240e-01   1.90093168e+00  -8.17769900e-02
