72
Lattice="7.395 0 0 3.6975 6.40425786098592 0 0 0 13.6 " PBC="1 1 1" Properties=species:S:1:pos:R:3:force:R:3 Energy="-575.19570218"
C     3.635274698550000e+00   6.207516624922814e+00   1.354331601600000e+01 -2.76136840e-01   2.12664525e+00   1.16706710e+00
C     1.179671734575000e+00   5.079143259800610e-01   1.350331841600000e+01  6.20935910e-01  -3.56284090e-01   4.36611290e-01
C     1.352529489825000e+00   9.738390712584536e-01   3.349367064000000e+00 -6.46925830e-01  -7.94083630e-01   1.15482306e+00
C     2.657249823975000e+00   1.609477930678418e+00   3.195392488000000e+00 -2.02523968e+00   2.03812643e+00   1.95139568e+00
C     6.135584837550001e+00   6.221648644572161e+00   7.267486399999999e-02 -8.50731450e-01  -8.03649640e-01   1.27170000e-03
C     3.665918580225000e+00   4.873597322932339e-01   3.249815200000000e-02  1.24088579e+00   1.21342064e+00   4.45723010e-01
C     3.886219179825000e+00   9.948214693703288e-01   3.480809432000000e+00  6.59717030e-01  -1.89571320e-01  -6.67517640e-01
C     5.093850337125000e+00   1.737536061910248e+00   3.556077136000000e+00  8.42000370e-01   2.75047320e-01   1.20437988e+00
C     8.639380166099999e+00   6.257808621471607e+00   5.805989599999999e-02 -2.08806365e+00  -1.92032976e+00   8.67720650e-01
C     6.087545919225000e+00   6.064233395310090e-01   1.031623920000000e-01  3.10005768e+00  -9.68798720e-01  -5.76315550e-01
C     6.345468951074999e+00   1.000755270447933e+00   3.709027088000000e+00 -2.79704831e+00   1.35914758e+00  -1.02723093e+00
C     7.512645576000000e+00   1.706795432054513e+00   3.469419432000000e+00  2.68756297e+00   1.25219483e+00  -4.38152400e-01
C     1.206141138750000e+00   1.926289330201236e+00   1.341084372000000e+01 -9.10972320e-01   9.41142940e-01   1.88267961e+00
C     2.444193625200000e+00   2.615537591741475e+00   1.322152614400000e+01  9.22849570e-01  -1.72820070e-01   2.35664437e+00
C     2.616539942250000e+00   3.038898486515892e+00   3.357268936000000e+00  1.24247982e+00   7.20010450e-01  -1.93028210e-01
C     3.864211770750000e+00   3.798462041059686e+00   3.528312600000000e+00 -2.87576324e+00   1.07496510e+00   1.37728079e+00
C     3.713862916500000e+00   1.893539364441925e+00   1.358859748800000e+01 -2.24914841e+00   2.04564517e+00  -2.50856449e+00
C     4.890246427350000e+00   2.689139165623311e+00   7.170219200000000e-02  6.90857880e-01  -2.57149400e-01   1.26788371e+00
C     5.125848797924999e+00   3.208898935026385e+00   3.667772168000000e+00 -1.73710470e+00  -4.18003695e+00  -2.17884562e+00
C     6.310335749775000e+00   3.849311015914564e+00   3.488986704000000e+00  2.46002115e+00   4.06796503e+00   4.71861720e-01
C     6.122636377425000e+00   2.021394672827330e+00   2.688487440000000e-01  8.86149810e-01  -1.15689996e+00  -6.14115400e-01
C     7.416779938874999e+00   2.681248671641741e+00   3.349878560000000e-01 -1.09707700e-02  -1.60200162e+00  -3.46397529e+00
C     7.568705370149999e+00   3.171909670776647e+00   3.342841104000000e+00 -4.25514248e+00  -3.24774928e+00   1.13164674e+00
C     8.762991288599999e+00   3.780080283979600e+00   3.400613224000000e+00  3.60795364e+00   1.01932427e+00  -7.26056410e-01
C     2.447497748175000e+00   4.041342303591193e+00   1.329530954400000e+01 -2.08076550e-01   1.47572326e+00   2.73833338e+00
C     3.659214458100000e+00   4.809609436694463e+00   1.354949082400000e+01  6.11821140e-01  -1.52577326e+00  -9.01178060e-01
C     3.750849156900000e+00   5.216555065807285e+00   3.795149632000000e+00  1.50667317e+00   8.88670330e-01  -1.57630765e+00
C     4.963436406225000e+00   5.961407463663452e+00   3.659202264000000e+00  2.78206976e+00   1.34737781e+00  -1.05536416e+00
C     4.917284691900000e+00   4.110543319769687e+00   1.281564720000000e-01 -6.68792900e-01   6.72447680e-01  -5.76493500e-02
C     6.162949998075000e+00   4.822319518971154e+00   3.449298640000000e-01 -4.66705070e-01  -1.02730753e+00  -2.11298691e+00
C     6.287015876100000e+00   5.384256834044089e+00   3.529974112000000e+00 -9.61180780e-01  -4.75520632e+00   3.66821290e-01
C     7.553349024075001e+00   5.980930587579348e+00   3.530442088000000e+00  7.09432490e-01  -8.53053940e-01  -1.02008707e+00
C     7.422001733249999e+00   4.068206948504900e+00   2.254890880000000e-01 -1.60079520e-01   2.51481539e+00   1.38757114e+00
C     8.662306736700000e+00   4.807364488144218e+00   1.290346240000000e-01 -2.38412070e-01  -1.11662252e+00  -2.75264692e+00
C     8.793239463825000e+00   5.175670860012253e+00   3.439598440000000e+00 -1.06641021e+00   4.24950374e+00   2.12652269e+00
C     9.968505257400000e+00   6.018324729010995e+00   3.741376320000000e+00 -1.17953110e-01  -4.39984029e+00  -1.21033652e+00
C     7.375844472674999e+00   1.913172769678170e-01   7.082985264000000e+00  9.91209350e-01  -8.09332810e-01  -1.56733005e+00
C     1.256040269325000e+00   8.440213061370091e-01   6.825899432000000e+00 -1.74775192e+00   8.73106560e-01  -3.93461200e-02
C     1.105439541375000e+00   4.577397835204194e-01   1.003594564800000e+01  5.96720110e-01   1.39388850e+00  -6.35468160e-01
C     2.336282975100000e+00   1.183909296091922e+00   9.863198175999999e+00 -1.98861100e-01   1.76175050e-01   2.24983020e-01
C     2.454957380475000e+00   1.459025070348846e-01   6.828956440000000e+00  1.30470665e+00  -1.16943739e+00  -4.52329580e-01
C     3.621463796550000e+00   9.529923793706316e-01   6.778254960000000e+00  6.53833070e-01  -1.28018797e+00  -9.65655400e-02
C     3.588119149950000e+00   4.865692547455740e-01   9.949863224000000e+00 -2.37242117e+00  -4.40987530e-01   7.14978760e-01
C     4.737070057874999e+00   1.192408450740507e+00   1.004008657600000e+01  5.04205747e+00   3.53250220e-01  -6.26148810e-01
C     4.793467507725000e+00   1.756068639262938e-01   6.922621951999999e+00  2.94821843e+00  -4.90729680e-01  -3.26404480e-01
C     6.073990921199999e+00   8.294042920399236e-01   6.937671167999999e+00  8.72997050e-01  -8.08549500e-02   5.65270540e-01
C     6.025814344950000e+00   3.977541101469936e-01   1.019154148000000e+01 -9.68686070e-01   1.89640446e+00  -7.99473740e-01
C     7.254567951675000e+00   1.135695032920648e+00   1.007557808800000e+01 -1.24772677e+00  -4.43995980e-01   1.14685836e+00
C     8.662857664200001e+00   2.266593660959628e+00   6.612527808000000e+00  2.04018230e-01   4.86621010e-01   1.96461663e+00
C     2.470165641675000e+00   3.127669377692660e+00   6.673547744000000e+00 -1.91478210e-01  -2.98532586e+00  -8.31382910e-01
C     2.322663418725000e+00   2.628761423583696e+00   9.736741704000000e+00 -2.75730530e-01  -2.15947677e+00   9.26883520e-01
C     3.563061784050000e+00   3.311809659047089e+00   9.780209072000000e+00  9.70523170e-01   1.09208130e+00   6.25208820e-01
C     3.677110469025000e+00   2.368621622076911e+00   6.641396528000000e+00  1.21175219e+00   7.02461700e-01   9.78572990e-01
C     4.985706263850000e+00   3.060324571612308e+00   6.723472664000000e+00 -2.23408273e+00  -3.89961969e+00   2.95544380e-01
C     4.827318157200000e+00   2.628475985810875e+00   9.832046287999999e+00 -1.88244949e+00  -1.17993877e+00   1.70277971e+00
C     6.025741615125000e+00   3.316989486846836e+00   1.010957509600000e+01  8.23827300e-02   4.84274210e-01   2.14411300e-01
C     6.149619697124999e+00   2.222319169138669e+00   6.877078272000000e+00  1.85270880e-01   1.75291936e+00  -8.46368860e-01
C     7.421226663300001e+00   2.868239488169656e+00   6.833811232000000e+00 -2.90962220e-01   2.84973702e+00  -5.60829190e-01
C     7.199333624399999e+00   2.536543760826676e+00   1.019231409600000e+01  2.54458060e+00   1.07521879e+00  -2.31586205e+00
C     8.450933602949998e+00   3.243158832661348e+00   9.887185855999999e+00 -5.73730670e-01   1.84260470e+00   2.13106022e+00
C     9.877732889550000e+00   4.518073913795442e+00   6.816284640000000e+00  1.80640261e+00  -2.76690910e-01   1.19821800e+00
C     3.804035327999999e+00   5.176275485996816e+00   7.038789752000000e+00 -3.42066023e+00  -3.98983810e-01  -1.81679541e+00
C     3.590797508025000e+00   4.726282420869009e+00   1.002533615200000e+01  2.31728910e-01  -3.50595720e-01  -5.75025230e-01
C     4.820411227200000e+00   5.476997020199906e+00   1.003939610400000e+01  5.77273080e-01  -2.37015697e+00   1.03010330e+00
C     4.974502617000000e+00   4.420503252106141e+00   6.784540472000000e+00  1.99981282e+00   2.32502296e+00   8.86990860e-01
C     6.286768328474999e+00   5.073080156756812e+00   6.805063688000001e+00 -4.04148633e+00   2.32078492e+00   7.71910630e-01
C     6.077822899274999e+00   4.756439430705964e+00   1.018770084000000e+01 -1.12736232e+00   2.16080620e-01  -1.56071698e+00
C     7.312416855150000e+00   5.482822717404833e+00   1.011838776000000e+01 -1.49004472e+00  -1.56768838e+00   2.15652060e-01
C     7.444588207800000e+00   4.348921581153349e+00   6.878226112000000e+00  6.74551970e-01  -1.17987563e+00  -5.18299330e-01
C     8.626979860350000e+00   5.134478353243840e+00   6.924137808000000e+00 -1.02128135e+00   1.19963758e+00  -3.95592370e-01
C     8.466603053324999e+00   4.685925733793905e+00   1.008496712000000e+01  2.05993483e+00   9.93519600e-02  -4.90807270e-01
C     9.754561140974999e+00   5.393260259956570e+00   1.014108439200000e+01 -1.79232105e+00  -4.19982700e-02  -3.79963900e-01
