72
Lattice="7.395 0 0 3.6975 6.40425786098592 0 0 0 13.6 " PBC="1 1 1" Properties=species:S:1:pos:R:3:force:R:3 Energy="-569.46581854"
C     3.609712993650000e+00   6.211906615600687e+00   4.278105759999999e-01 -5.69261140e-01  -3.12897219e+00  -1.96367239e+00
C     1.075617503025000e+00   5.057183059598670e-01   4.222177120000000e-01  4.99026416e+00  -3.98751697e+00  -3.79908460e-01
C     1.504508719725000e+00   1.138090097275131e+00   3.420218984000000e+00 -1.83827828e+00  -9.36651240e-01  -5.48741600e-01
C     2.779330033575000e+00   1.755280979588737e+00   3.648549248000000e+00 -2.36362294e+00   2.35396016e+00  -1.54157975e+00
C     6.048281833950000e+00   6.096883326561628e+00   2.548147680000000e-01  1.86942835e+00   9.37635330e-01   1.47028190e-01
C     3.645441455475000e+00   4.194979104758442e-01   4.193383200000000e-01  7.63427720e-01  -2.23537850e-01  -2.75336241e+00
C     3.971715437025000e+00   1.099379048299732e+00   3.422204040000000e+00  2.36093393e+00   1.41902964e+00  -1.30990710e-01
C     5.167913739449999e+00   1.922701664948064e+00   3.308529800000000e+00  2.86414266e+00  -2.38465672e+00  -1.93627767e+00
C     8.640492669899999e+00   6.132554274330885e+00   1.780321600000000e-01 -1.95923807e+00   1.09638716e+00  -5.56223700e-02
C     6.170675406675000e+00   5.558353381839258e-01   1.247910160000000e-01 -3.23711761e+00  -2.99548782e+00   1.07798356e+00
C     6.473045642325000e+00   1.219321191630742e+00   3.041804288000000e+00 -2.83054749e+00  -2.28259492e+00   1.45247170e+00
C     7.677750524174999e+00   1.953830136659801e+00   3.313763352000000e+00 -1.22874520e-01  -6.69602221e+00  -3.14832410e-01
C     1.186160736150000e+00   1.859193457623902e+00   5.409458480000000e-01 -6.90813150e-01   1.30246968e+00  -2.15620460e+00
C     2.450738680875000e+00   2.508684534667311e+00   6.443194480000000e-01 -8.28058020e-01   2.62844428e+00  -1.17878790e+00
C     2.749441181400000e+00   3.256822701061129e+00   3.570626824000000e+00 -1.54152860e-01  -2.02364570e+00  -2.55477320e-01
C     3.992214598875000e+00   3.941752379398634e+00   3.300347768000000e+00 -2.23548045e+00   1.68178190e-01  -7.07507490e-01
C     3.700635110250000e+00   1.907645126634047e+00   3.918694480000000e-01 -2.30368430e+00  -3.05567058e+00   1.76788033e+00
C     4.870773654524999e+00   2.632538654869524e+00   2.356098000000000e-01  1.62253927e+00  -2.81077817e+00  -1.55375411e+00
C     5.228700047849999e+00   3.327641624902795e+00   3.108344056000000e+00  5.22299490e-01  -1.10462206e+00   2.61252109e+00
C     6.497468406299999e+00   4.041857269965715e+00   3.221777848000000e+00 -2.49847508e+00  -3.26030100e-02   8.48600010e-01
C     6.103464618074999e+00   1.952323214785344e+00   3.435142400000000e-02  1.49068308e+00  -1.72551196e+00   4.83111720e-01
C     7.392365679150000e+00   2.554450962399336e+00   8.095196000000000e-02  9.56000000e-06   1.47376838e+00   2.36584602e+00
C     7.629551910825001e+00   3.252328513107875e+00   3.570934184000000e+00  2.31251780e-01   4.27001146e+00  -1.65093022e+00
C     8.858893013325000e+00   3.908493531309767e+00   3.545157560000000e+00  3.11359983e+00   3.00036070e+00  -6.59221560e-01
C     2.379672767850000e+00   3.973544460309824e+00   6.306174480000000e-01  1.92721123e+00  -7.37675780e-01  -2.75987818e+00
C     3.642224038875000e+00   4.642673425569980e+00   5.252600159999999e-01  1.12053885e+00   3.14690191e+00  -2.22520124e+00
C     3.890731054200000e+00   5.291336560157248e+00   2.989567776000000e+00 -8.44883100e-02   2.90628631e+00   1.44306846e+00
C     5.043952722525000e+00   6.090495655729486e+00   3.168563496000000e+00  5.29949337e+00   1.73673490e+00   1.05966238e+00
C     4.937869487850000e+00   3.960327224853200e+00   1.093816720000000e-01 -3.23661717e+00   3.96128189e+00   1.64500991e+00
C     6.164806919549999e+00   4.650310695195766e+00   1.349901456000000e+01 -1.19633558e+00   2.92978506e+00   2.79353562e+00
C     6.435942302099999e+00   5.486686021916300e+00   3.324786560000000e+00 -1.36976782e+00  -2.63385143e+00  -1.07960410e+00
C     7.730096105625000e+00   6.104596934941105e+00   3.318892456000000e+00 -3.88088454e+00   1.61559543e+00   7.09764890e-01
C     7.405444180349999e+00   3.971647134876221e+00   1.240587920000000e-01 -6.15665830e-01   7.39547860e-01  -2.22778983e+00
C     8.623182269025000e+00   4.684369371048768e+00   1.163048880000000e-01  5.70907330e-01   1.01931939e+00   3.16484602e+00
C     8.892226012800000e+00   5.395975857416945e+00   3.254087232000000e+00 -1.29825020e-01  -3.57717756e+00   3.53895700e-01
C     1.004927921550000e+01   6.029591355608621e+00   2.932804232000000e+00  3.25763700e+00   3.65956084e+00   1.89469740e+00
C     7.249937017800000e+00   3.282503646994572e-01   6.325402840000000e+00  4.02237914e+00  -2.98986309e+00   3.28572630e-01
C     1.153311147825000e+00   9.977324607380130e-01   6.418651240000000e+00  4.73376380e-01  -1.54316978e+00  -2.84935630e-01
C     1.096064197350000e+00   3.028836116566260e-01   1.029422175200000e+01  2.58342230e-01   3.35202800e-02   1.60560674e+00
C     2.382342547725000e+00   1.046866823636033e+00   1.064995804000000e+01 -3.87697046e+00  -2.12516361e+00  -5.09931330e-01
C     2.410424172825000e+00   1.812901304364150e-01   6.316217944000000e+00 -1.39082814e+00   4.14097341e+00   1.08726167e+00
C     3.573380619150000e+00   1.010584205198568e+00   6.400583776000000e+00 -9.83708740e-01   1.21690968e+00  -3.76437130e-01
C     3.542892476175000e+00   3.014057010702738e-01   1.067834559200000e+01  2.16302938e+00   9.03352970e-01  -2.09863287e+00
C     4.796364535950000e+00   9.631842434141928e-01   1.041601532800000e+01 -1.72775554e+00   2.03571934e+00   1.72463504e+00
C     4.722064826400000e+00   2.888149941600924e-01   6.156915704000000e+00  3.78459591e+00  -1.39045813e+00   1.98667261e+00
C     6.018024230100000e+00   9.036343797881401e-01   6.300104664000000e+00 -1.58442006e+00   3.17761313e+00  -2.05822110e-01
C     5.948701392524999e+00   2.469116147692194e-01   1.023520346400000e+01  3.64105792e+00   4.87767530e-01   4.57867930e-01
C     7.223725810050000e+00   9.802375012438008e-01   1.023583069600000e+01 -4.16173460e-01  -6.66618570e-01  -2.70793930e-01
C     8.622421508400000e+00   2.402183967945762e+00   6.530775352000000e+00 -2.67467485e+00   3.35891120e-01  -3.60635450e-01
C     2.376229877700000e+00   3.217406927550816e+00   6.453564480000000e+00  9.77197370e-01  -1.26221405e+00   1.63752733e+00
C     2.321741927775000e+00   2.419683282335319e+00   1.081221651200000e+01 -1.27955450e+00   1.93304661e+00  -2.23019303e+00
C     3.537199694250000e+00   3.209594757642874e+00   1.064015380000000e+01  1.29384371e+00  -4.59799554e+00   5.56487940e-01
C     3.589441006200000e+00   2.518088610951514e+00   6.524539888000000e+00  1.98825999e+00  -3.06058698e+00  -1.27228815e+00
C     4.918666484625000e+00   3.123018093294099e+00   6.399133200000000e+00 -4.25176338e+00   1.28681995e+00   6.93847700e-02
C     4.818414909975000e+00   2.399558542436055e+00   1.053755757600000e+01 -1.47274706e+00   1.72326139e+00  -1.20333402e+00
C     6.032622071025000e+00   3.126682097300962e+00   1.031003365600000e+01 -2.61861110e+00   1.86067158e+00   1.34785360e-01
C     6.042068517974999e+00   2.337032876352775e+00   6.386425496000000e+00  2.52154207e+00   5.84577430e-01   7.37419440e-01
C     7.317772683899999e+00   3.073712160328009e+00   6.533385056000000e+00  5.99577980e-01  -3.92675358e+00  -6.79819990e-01
C     7.172817520799999e+00   2.392505469212259e+00   1.024197259200000e+01  3.45889293e+00  -1.05925950e+00   1.28328326e+00
C     8.400997386449999e+00   3.040453696494615e+00   1.053659660000000e+01  2.90120610e+00   3.13236797e+00  -9.16441920e-01
C     9.800090048399998e+00   4.626884048029043e+00   6.479072504000000e+00  7.93067950e-01  -5.10322040e-01  -1.47541851e+00
C     3.695160332925000e+00   5.260521128569708e+00   6.338644344000000e+00 -3.73886610e+00   2.77256497e+00   2.98818480e-01
C     3.569585911875000e+00   4.555691179570932e+00   1.043476143200000e+01 -1.03730867e+00   9.00326730e-01   1.07707220e-01
C     4.757895080400000e+00   5.240411182506100e+00   1.033151240800000e+01  3.44547000e+00   2.47760848e+00  -3.26380000e-01
C     4.871589692775000e+00   4.593178246784127e+00   6.278383015999999e+00  2.63691106e+00  -3.28147924e+00   8.50856470e-01
C     6.147080771775000e+00   5.206423850085659e+00   6.272041744000000e+00 -2.84282940e-01  -9.69162400e-01   2.09724160e-01
C     6.047105659200000e+00   4.598153266417511e+00   1.030766698400000e+01 -8.73659150e-01  -9.06709760e-01   5.16265280e-01
C     7.262837188574999e+00   5.371517804521869e+00   1.038181717600000e+01  2.37605600e-01  -5.06480254e+00   1.01197300e-02
C     7.358765646224999e+00   4.398190625594165e+00   6.392424183999999e+00 -1.97042230e-01   6.32137697e+00  -6.24124680e-01
C     8.572721118450000e+00   5.264838046665398e+00   6.278947688000000e+00 -2.49080104e+00  -9.15513340e-01   9.45728870e-01
C     8.523887126700000e+00   4.523378816751195e+00   1.035788471200000e+01 -2.23071275e+00   3.63359370e-01   1.23926938e+00
C     9.742833965099999e+00   5.261834705899371e+00   1.039238927200000e+01 -1.81520452e+00  -1.35249239e+00  -6.70207530e-01
