72
Lattice="7.395 0 0 3.6975 6.40425786098592 0 0 0 13.6 " PBC="1 1 1" Properties=species:S:1:pos:R:3:force:R:3 Energy="-581.25549978"
C     3.717802713675000e+00   6.350141176614637e+00   1.341250876800000e+01 -1.86337410e+00  -5.42364260e-01   2.58631110e-01
C     1.182948717900000e+00   6.723569033493312e-01   1.344952157600000e+01  2.07139320e+00   2.08582490e-01  -3.33663470e-01
C     1.272812868825000e+00   7.878363676757574e-01   3.609173032000000e+00  3.14052270e-01   4.98135280e-01  -4.96593580e-01
C     2.517625383600000e+00   1.502423523737136e+00   3.603091520000000e+00 -5.56001400e-01   6.67112400e-01  -2.81467350e-01
C     6.087286317749999e+00   6.367832234484522e+00   1.340984888000000e+01  3.34359373e+00  -1.35709032e+00   1.34233930e-01
C     3.687706542675000e+00   6.810621470158507e-01   1.346542052000000e+01 -5.78441200e-02  -1.34366428e+00  -5.49539420e-01
C     3.730192148775000e+00   7.886488118278770e-01   3.532615096000000e+00  5.82450000e-03   5.54090900e-02  -5.16545200e-02
C     4.933983711150001e+00   1.512761020604434e+00   3.488104336000000e+00  2.16688126e+00   6.61553500e-02   2.51890830e-01
C     8.658340946099999e+00   6.319478550619634e+00   1.343801012800000e+01 -1.51843857e+00   1.43920189e+00   6.90130600e-02
C     6.205036200224999e+00   6.804490033683342e-01   1.339479667200000e+01 -2.41373169e+00  -1.57983401e+00  -8.66209000e-02
C     6.210683650800000e+00   8.308406389927645e-01   3.513519064000000e+00 -6.92844500e-02  -1.85585769e+00  -8.32374300e-02
C     7.466935971749999e+00   1.546799779215491e+00   3.584356839999999e+00 -1.94400398e+00  -2.91762122e+00  -2.09259540e-01
C     8.606624901000000e+00   2.099406410799298e+00   1.344276142400000e+01  6.99398940e-01  -1.25602182e+00   1.87210310e-01
C     2.447297935275000e+00   2.779969025702068e+00   1.354990848000000e+01 -1.15075330e-01   1.01822321e+00  -7.31085790e-01
C     2.531366070075000e+00   2.956427976136635e+00   3.575599664000000e+00 -1.57321952e+00  -9.72352420e-01  -8.73304100e-02
C     3.774214509825000e+00   3.658398295915763e+00   3.503302200000000e+00 -1.33270435e+00  -1.43264911e+00   8.93511500e-02
C     3.691408812450000e+00   2.124129664012356e+00   1.345071647200000e+01 -5.17542670e-01  -2.43614057e+00   5.94477650e-01
C     4.909654493924999e+00   2.793911991659389e+00   1.335123084000000e+01  6.60993890e-01  -8.55095600e-02  -2.34458770e-01
C     4.973807450024999e+00   2.935218995381673e+00   3.497789848000000e+00  4.76659920e-01   2.20985530e-01   1.06897400e-01
C     6.222152038650000e+00   3.664764704611811e+00   3.540301272000000e+00 -1.81583461e+00  -1.59847846e+00  -1.53038580e-01
C     6.135651836250000e+00   2.086007294419448e+00   1.326708437600000e+01  1.25310998e+00  -3.78877780e-01   7.68764390e-01
C     7.409138352599999e+00   2.775207652110894e+00   1.327678471200000e+01 -2.06741723e+00   3.68305690e-01   4.51160290e-01
C     7.396447275450000e+00   2.911358587830092e+00   3.595785600000000e+00  2.43531485e+00   2.40803164e+00  -2.02786800e-01
C     8.629085216849999e+00   3.638409006070239e+00   3.581572104000000e+00  1.80785496e+00   4.24149130e-01   4.54297400e-02
C     9.818540906175000e+00   4.205557721934169e+00   1.353088221600000e+01  2.06226291e+00  -3.34362320e-01  -3.01600410e-01
C     3.690619728975000e+00   4.925694999984759e+00   1.345602686400000e+01 -2.61616290e-01  -4.01751520e-01  -1.99862490e-01
C     3.746872643550000e+00   5.040739359032177e+00   3.489793592000000e+00 -4.49098090e-01   1.40794857e+00   2.03740000e-03
C     4.940636881724999e+00   5.767001989512964e+00   3.511522992000000e+00  2.02258869e+00   4.40536630e-01   2.97860260e-01
C     4.926238299075000e+00   4.196773898023707e+00   1.332007215200000e+01 -1.13151640e+00   5.66814720e-01   6.46020290e-01
C     6.147676845750000e+00   4.872440585877666e+00   1.328772876800000e+01 -2.03283060e-01   2.95473500e+00   4.66236590e-01
C     6.211754224949999e+00   5.056059624684869e+00   3.531556608000000e+00 -4.29145190e-01   1.32379646e+00  -1.04287360e-01
C     7.451583397125001e+00   5.774555043147891e+00   3.526984288000000e+00 -1.47471506e+00   6.15814710e-01   2.16596080e-01
C     7.372498383074999e+00   4.172828249800010e+00   1.329051568000000e+01  7.92707840e-01   1.22044932e+00   5.71820480e-01
C     8.610085206374999e+00   4.876913639779982e+00   1.345137552800000e+01 -7.04957730e-01   1.90395433e+00  -2.70085310e-01
C     8.653494078225000e+00   5.086766055803633e+00   3.554250248000000e+00  1.19770635e+00  -1.78047861e+00  -3.97099910e-01
C     9.917958694574999e+00   5.747032360739070e+00   3.496908840000000e+00 -8.27727140e-01   2.33769492e+00   2.41822820e-01
C     7.407137413499999e+00   5.452546716456840e-02   6.635462032000000e+00  5.22615420e-01  -2.22992710e-01   1.12300533e+00
C     1.250018446875000e+00   7.808453517106242e-01   6.808855503999999e+00  6.50235950e-01  -1.22123592e+00   1.79054180e-01
C     1.180590859125000e+00   6.523376415770215e-01   1.022909815200000e+01 -1.01653500e-01  -1.47421135e+00  -2.30823240e-01
C     2.450091766275000e+00   1.339710095990066e+00   1.018887968800000e+01 -2.56232411e+00   3.58716530e-01   4.55786940e-01
C     2.513588527050000e+00   2.132387314097040e-02   6.947877016000001e+00 -1.71364990e+00   2.13033629e+00  -3.29945650e-01
C     3.729154630275000e+00   7.424837190440671e-01   7.030887607999999e+00  1.72518060e-01   1.27347335e+00  -7.13404740e-01
C     3.627411558075000e+00   6.317334789343578e-01   1.008366192800000e+01  2.00514080e+00  -4.05609620e-01  -1.55579700e-02
C     4.885693510725000e+00   1.323690229208747e+00   1.012840334400000e+01 -1.19870349e+00   9.74214500e-01   6.61049420e-01
C     4.965151528574999e+00   4.357745239547700e-02   6.851036447999999e+00 -7.73958180e-01   6.22002440e-01   2.34342850e-01
C     6.169412858324999e+00   7.466525066554555e-01   6.724309064000000e+00  1.02386564e+00   1.47005655e+00   2.57446830e-01
C     6.093004982175000e+00   6.299534795047494e-01   1.015556186400000e+01  1.32638312e+00   2.62117750e-01  -4.69014100e-02
C     7.330766623274999e+00   1.350596181585651e+00   1.024847312000000e+01  4.21406260e-01  -7.81948830e-01  -2.53068340e-01
C     8.662676338799999e+00   2.197758007692047e+00   6.871297864000000e+00 -1.22134851e+00  -1.68855660e-01  -1.97397410e-01
C     2.477041179900000e+00   2.903662078819102e+00   6.956171927999999e+00  1.03286957e+00   3.59395130e-01  -1.63031230e-01
C     2.416941940950000e+00   2.754016475192783e+00   1.029575420000000e+01 -1.45865200e-01   9.34626530e-01  -5.15666970e-01
C     3.644260954650000e+00   3.495486848515662e+00   1.031420953600000e+01 -6.54479700e-02  -1.87055597e+00  -2.66332370e-01
C     3.724281953850000e+00   2.216572564518312e+00   7.052041592000000e+00 -2.41471290e-01  -1.91377909e+00  -6.91396200e-01
C     4.962496095000000e+00   2.899845397304856e+00   6.961023184000000e+00 -4.02605440e-01   8.27596900e-01  -4.99433760e-01
C     4.888655984700000e+00   2.743930921829698e+00   1.029657944800000e+01 -2.07791640e-01   7.98956890e-01  -7.86662470e-01
C     6.134082210524999e+00   3.449010060501807e+00   1.023736328000000e+01 -1.60707078e+00   1.76858902e+00  -1.46805440e-01
C     6.184746612674999e+00   2.193233719726850e+00   6.814943135999999e+00 -1.48890190e-01  -5.28097520e-01   3.11563100e-01
C     7.406472344175000e+00   2.923922012601790e+00   6.817034680000000e+00  8.28163580e-01  -1.35528905e+00   1.51750520e-01
C     7.333978974299999e+00   2.754102164162950e+00   1.024511514400000e+01  6.73124510e-01   3.40279580e-01  -2.51366320e-01
C     8.554057580475000e+00   3.473888296755077e+00   1.022972334400000e+01  1.74487192e+00   1.24975680e-01  -2.46459910e-01
C     2.500520674650000e+00   4.326657819128846e+00   6.807604984000000e+00 -1.15526135e+00  -6.82270620e-01   2.34018060e-01
C     3.703159023750000e+00   5.010696601155446e+00   6.726826424000000e+00  1.13034758e+00   1.78892110e+00   3.09766190e-01
C     3.614618762700000e+00   4.890562330088636e+00   1.026478251200000e+01  1.05679901e+00   7.66251040e-01  -2.40473160e-01
C     4.844421535050000e+00   5.589093051056316e+00   1.022879310400000e+01  1.65089531e+00   1.65087633e+00  -2.75778200e-01
C     4.938667186500000e+00   4.346857488845071e+00   6.865498960000000e+00  1.43571020e-01  -1.58592327e+00   9.49304900e-02
C     6.161721614625000e+00   5.033872649712106e+00   6.911611664000000e+00  1.46099300e+00  -5.90100330e-01  -3.91821720e-01
C     6.119516352974999e+00   4.915434738467253e+00   1.015296848000000e+01 -5.84809810e-01  -1.31999672e+00   1.69812340e-01
C     7.349273646074999e+00   5.625081457887692e+00   1.001704844800000e+01  3.77510800e-02  -8.02938790e-01   8.36568080e-01
C     7.420783998599999e+00   4.317052328934946e+00   6.873866904000001e+00 -1.28533980e-01   1.32336062e+00   8.37995500e-02
C     8.674698538199999e+00   5.051323163656770e+00   6.826773503999999e+00 -1.21148165e+00  -1.49032887e+00   2.97423100e-02
C     8.615214822075000e+00   4.904473723054706e+00   1.008444855200000e+01 -2.32645028e+00  -3.54447580e-01   3.15933040e-01
C     9.812026022100000e+00   5.628858625130942e+00   1.013459270400000e+01 -5.05261500e-02  -8.55444740e-01   2.67757970e-01
