72
Lattice="7.395 0 0 3.6975 6.40425786098592 0 0 0 13.6 " PBC="1 1 1" Properties=species:S:1:pos:R:3:force:R:3 Energy="-578.26536268"
C     3.676347415950000e+00   6.175559634371728e+00   2.014980080000000e-01 -2.89658420e-01   2.05677073e+00   7.38678050e-01
C     1.270315429425000e+00   4.375147529430679e-01   2.423820560000000e-01 -2.57711173e+00   3.04429821e+00  -6.09457100e-01
C     1.398879870825000e+00   1.054146799715810e+00   3.416926016000000e+00 -2.38852720e-01  -5.87035060e-01  -2.53554400e-01
C     2.624966322900000e+00   1.744320540559397e+00   3.366599760000000e+00  8.72206390e-01   8.19530000e-04   3.11038830e-01
C     6.204332344125000e+00   6.190414502605734e+00   2.267643600000000e-01 -3.75422293e+00   6.74109000e-02  -1.25132510e-01
C     3.661921804575000e+00   4.731891590115690e-01   1.362207280000000e-01  2.93378203e+00   9.54956530e-01   1.32463455e+00
C     3.896154362325000e+00   1.059148140848998e+00   3.366119408000000e+00 -1.06993060e-01  -3.36599130e-01  -2.12778420e-01
C     5.168963274825000e+00   1.741866877245495e+00   3.295678888000000e+00 -2.75551541e+00   3.54062450e-01   1.57552559e+00
C     8.602213450724999e+00   6.170376604443051e+00   2.540179440000000e-01 -1.70371129e+00  -6.40774200e-02  -1.95842880e-01
C     6.065848619474999e+00   4.572643314168930e-01   2.434307520000000e-01  4.73816906e+00   1.03742297e+00  -5.70049670e-01
C     6.366728873550000e+00   9.791973216821797e-01   3.383255544000000e+00 -2.03059811e+00   5.04820072e+00  -1.56081860e-01
C     7.530162482250000e+00   1.693492507627721e+00   3.415014944000000e+00  3.90163956e+00   4.22338400e+00  -2.77023800e-01
C     1.230285628875000e+00   1.905973935545480e+00   1.776032160000000e-01 -8.99114700e-01   8.39841200e-02   3.81885340e-01
C     2.432396048925000e+00   2.632591297869133e+00   2.221768080000000e-01  1.54065543e+00  -9.82554410e-01   7.54290700e-02
C     2.613885507000000e+00   3.134924569294518e+00   3.362942992000000e+00  3.04497734e+00   1.23914209e+00  -3.65189490e-01
C     3.875417118450000e+00   3.853554541215179e+00   3.277385936000000e+00 -1.36609008e+00   2.29381990e+00   1.66092461e+00
C     3.678482907075000e+00   1.866508464994173e+00   2.662658320000000e-01 -3.36966260e-01   2.40373680e+00  -1.87775244e+00
C     4.909865880000000e+00   2.608420027641027e+00   1.229634480000000e-01  9.45396300e-02   3.95826460e-01   1.28185634e+00
C     5.080950905850000e+00   3.189473476042854e+00   3.450032768000000e+00  1.28913751e+00  -2.18605220e+00  -1.79934462e+00
C     6.286927838624999e+00   3.888912128647346e+00   3.435731960000000e+00  3.78041721e+00   1.18816622e+00  -4.41751540e-01
C     6.132926889675000e+00   1.845707435464893e+00   1.488373120000000e-01  1.05658280e-01   3.73940292e+00  -1.48059290e-01
C     7.383639246375000e+00   2.667057604734924e+00   1.448042320000000e-01 -8.10127470e-01  -2.10500210e+00  -7.28354370e-01
C     7.634102978700000e+00   3.228857612519339e+00   3.381043096000000e+00 -4.33683721e+00  -3.15572646e+00   8.50058420e-01
C     8.862666459974999e+00   3.890751431504738e+00   3.428227072000000e+00 -2.46251428e+00   9.44245560e-01  -6.16056800e-01
C     2.465808174900000e+00   4.046014657998113e+00   2.358382800000000e-01 -1.68040320e+00   9.23922260e-01   5.98966350e-01
C     3.642147389700000e+00   4.822680526986723e+00   2.400201440000000e-01  2.13575720e+00  -3.90970524e+00  -2.44503010e-01
C     3.893806449825000e+00   5.358726196042619e+00   3.365563032000000e+00 -1.03359458e+00  -2.43936639e+00  -1.23237020e-01
C     5.123025128099999e+00   6.051279246766354e+00   3.363915392000000e+00 -8.30647630e-01  -7.49531250e-01   2.62778770e-01
C     4.913630970300000e+00   4.079535440233453e+00   2.149337200000000e-01 -1.38362025e+00  -5.62317470e-01  -3.88816240e-01
C     6.100760562374999e+00   4.826783927125360e+00   2.266386960000000e-01  2.27638957e+00  -3.62774154e+00  -1.22092657e+00
C     6.327857019074999e+00   5.318905801520712e+00   3.368785552000000e+00 -1.46689220e-01  -3.95501160e-01   6.99898430e-01
C     7.546138270499999e+00   6.036600815836391e+00   3.437198991999999e+00  1.71331963e+00  -7.95443380e-01  -8.74874680e-01
C     7.355380363124999e+00   4.103355244790202e+00   5.475536800000000e-02  6.12782430e-01  -1.14767475e+00   2.64005024e+00
C     8.624183662949999e+00   4.781409696144682e+00   3.367070320000000e-01 -1.08643213e+00  -1.98703589e+00  -2.49490919e+00
C     8.805583752450000e+00   5.315663133638458e+00   3.402582096000000e+00  9.99631500e-02   9.32189280e-01   6.55405420e-01
C     1.002921166282500e+01   6.071592207804123e+00   3.431835424000000e+00  5.28220080e-01  -5.95745640e+00  -6.09862700e-01
C     7.365990857024999e+00   2.206941201122658e-01   6.491152432000000e+00  1.35580638e+00  -2.33042865e+00   2.26624910e-01
C     1.214875003500000e+00   8.970515712190033e-01   6.525659848000000e+00 -2.47630050e-01  -3.47833600e-02   2.65961270e-01
C     1.087597698825000e+00   3.875383582216146e-01   1.028928304800000e+01  1.08821439e+00   1.43231943e+00  -7.35401320e-01
C     2.287572775650000e+00   1.088225328768178e+00   1.020043601600000e+01  2.54595559e+00   1.33846361e+00  -3.90450830e-01
C     2.443862698950000e+00   2.415764196737892e-01   6.637173320000000e+00 -3.92399530e-01  -3.69256136e+00  -3.74639530e-01
C     3.655656908475000e+00   9.087201930825018e-01   6.636014600000000e+00  1.11373910e+00  -1.43830082e+00   3.05565840e-01
C     3.563599696350000e+00   3.593363761815828e-01   1.006656727200000e+01 -8.11099850e-01   2.95178581e+00   1.78119565e+00
C     4.822644369299999e+00   1.163628292300875e+00   1.023974763200000e+01 -1.53105670e+00  -1.73113802e+00  -1.32169583e+00
C     4.888249222725000e+00   1.911177202928994e-01   6.644908048000000e+00  1.53264446e+00  -3.76593500e-02  -9.61684680e-01
C     6.180277999049999e+00   9.161748132741204e-01   6.502446687999999e+00 -3.35483647e+00  -2.77591190e-01   1.16864777e+00
C     6.010907134200000e+00   4.394205960396252e-01   1.023313789600000e+01  1.79967956e+00  -1.26783695e+00   1.27298830e-01
C     7.297523916749999e+00   1.144612257522334e+00   1.027311183200000e+01 -2.87354323e+00  -2.62137800e-01   4.81402590e-01
C     8.622613630500000e+00   2.272772488942956e+00   6.508767968000000e+00 -7.95221700e-01   3.45404003e+00   7.42644330e-01
C     2.478902686275000e+00   3.004141106130364e+00   6.622800024000000e+00 -2.72452058e+00   1.12527414e+00  -1.24127432e+00
C     2.315765325750000e+00   2.578848238887320e+00   1.020935802400000e+01  1.62734509e+00  -3.67332829e+00   2.51826220e-01
C     3.529824512850000e+00   3.247162134249634e+00   1.028908557600000e+01  2.86864189e+00   7.87965140e-01  -8.41123240e-01
C     3.652479240000000e+00   2.272324062807599e+00   6.626963392000000e+00  2.05767507e+00   3.51940259e+00   3.63380290e-01
C     4.896337984650000e+00   3.047163821710008e+00   6.656980767999999e+00 -3.79924490e-01  -1.78269199e+00  -1.97909250e-01
C     4.827903656325000e+00   2.583468974975889e+00   1.022664648000000e+01 -3.07219875e+00  -1.70693182e+00   7.47519490e-01
C     6.002801881425000e+00   3.269144172970877e+00   1.026223985600000e+01  2.40939494e+00  -3.78663270e-01   2.10924730e-01
C     6.127775902424999e+00   2.339599446732748e+00   6.597551896000000e+00  4.27349790e-01  -1.70097190e-01  -4.75146330e-01
C     7.350032742824999e+00   3.042277949346036e+00   6.530927128000000e+00  1.22347010e+00  -1.29218628e+00   3.23633500e-01
C     7.259558874150000e+00   2.565714002612561e+00   1.031796286400000e+01  1.41958215e+00  -2.74397990e-01  -1.21225029e+00
C     8.565978579299999e+00   3.279041377110299e+00   1.019360922400000e+01 -5.22172926e+00  -2.32605530e-01   8.18996940e-01
C     9.819597762599999e+00   4.472898022680687e+00   6.500829376000000e+00  1.60671419e+00  -1.03926232e+00   1.29319913e+00
C     3.705605474625000e+00   5.168714683209878e+00   6.539207896000001e+00 -2.59373906e+00   8.27151110e-01  -4.13292600e-02
C     3.592528159875000e+00   4.652726189132823e+00   1.028012820800000e+01 -1.17704241e+00   1.48160179e+00  -3.44977490e-01
C     4.865230251600000e+00   5.413385704324198e+00   1.024666255200000e+01 -3.97058866e+00  -2.34982122e+00   4.49904260e-01
C     4.904041873800000e+00   4.442241352645497e+00   6.642014648000000e+00  5.67897350e-01   1.04772036e+00  -2.89860690e-01
C     6.152975215350001e+00   5.162031007579446e+00   6.627602864000000e+00 -1.74568819e+00   1.53454232e+00   3.08552590e-01
C     6.021101326575000e+00   4.666760223636912e+00   1.023553802400000e+01  3.90125410e-01   8.22947170e-01  -3.46916590e-01
C     7.215585874725000e+00   5.368448371814729e+00   1.013612596800000e+01  2.68187122e+00   3.33891100e-02   1.19222500e-01
C     7.326093907650000e+00   4.444850447297661e+00   6.596914464000000e+00  2.37195961e+00   5.18308620e-01   2.69012400e-02
C     8.583253521149999e+00   5.173097052820897e+00   6.586211400000000e+00  2.32877000e-02   5.43705600e-02  -9.68151400e-02
C     8.484441531149999e+00   4.670513695126079e+00   1.017877842400000e+01  1.87136800e-01   6.01403060e-01  -2.03507900e-01
C     9.702396810974999e+00   5.351833805648530e+00   1.020275726400000e+01  1.66161183e+00   2.43868278e+00   3.42590330e-01
