72
Lattice="7.395 0 0 3.6975 6.40425786098592 0 0 0 13.6 " PBC="1 1 1" Properties=species:S:1:pos:R:3:force:R:3 Energy="-580.96781981"
C     3.690332433225000e+00   6.228862336583086e+00   5.654811999999999e-02 -5.64343680e-01   1.65175059e+00  -6.82178040e-01
C     1.223814486225000e+00   5.555906955336739e-01   1.356534380000000e+01 -4.50560260e-01   4.73464960e-01   5.39582530e-01
C     1.336428134475000e+00   8.820879586865347e-01   3.315577592000000e+00 -1.05743430e+00   6.22520140e-01   4.88894260e-01
C     2.534114643675000e+00   1.633750708393604e+00   3.190703888000000e+00  1.09707784e+00  -1.11021545e+00   4.20035710e-01
C     6.149421141374999e+00   6.260433918896157e+00   1.020782000000000e-01 -7.62764040e-01  -7.69795740e-01  -1.20905720e-01
C     3.654937338000000e+00   5.796046771887372e-01   1.150044560000000e-01  1.51580519e+00  -3.10743460e-01  -8.96606720e-01
C     3.784798196850000e+00   9.187670006855341e-01   3.291686472000000e+00 -2.71224560e-01  -1.42627339e+00   7.41942870e-01
C     5.030885609625000e+00   1.609187817797360e+00   3.485603704000000e+00 -1.47942956e+00  -2.58591960e-01  -1.22083650e+00
C     8.617530973050000e+00   6.268721476865047e+00   1.588757440000000e-01 -7.10791450e-01  -6.22964160e-01  -7.31862190e-01
C     6.137364924975000e+00   5.826073134863982e-01   1.057741360000000e-01  9.17390810e-01  -2.06509848e+00   1.61680190e-01
C     6.235632310200000e+00   8.880460319014284e-01   3.562623768000000e+00  6.26509920e-01   3.53031020e-01  -4.27024870e-01
C     7.464991086750000e+00   1.582704482396638e+00   3.415152576000000e+00  1.17509550e+00   1.16706522e+00  -1.88661740e-01
C     1.199620856325000e+00   2.018710520273046e+00   1.351351800800000e+01  7.45922210e-01  -2.15515988e+00   1.71824460e-01
C     2.414205125400000e+00   2.711966246169180e+00   1.341134583200000e+01  1.89793290e+00  -3.52804700e-01   5.39234940e-01
C     2.544327323550000e+00   3.045511138926657e+00   3.220314760000000e+00  7.69057210e-01  -2.20281970e-01   9.52027030e-01
C     3.775510372649999e+00   3.719823646456117e+00   3.465432184000000e+00  3.48993360e-01   1.69115531e+00  -9.64052390e-01
C     3.675845813100000e+00   1.985373732366024e+00   1.347700010400000e+01  9.20271300e-02   4.43858590e-01   1.69690359e+00
C     4.928173200825000e+00   2.694911771530579e+00   1.346987520000000e-01 -9.13005930e-01  -2.80812800e-01  -9.86231910e-01
C     5.007696183750000e+00   3.021215946308961e+00   3.388363976000000e+00  4.50444310e-01   4.61335300e-01   1.26227726e+00
C     6.235098539099999e+00   3.760782974195848e+00   3.432174336000000e+00  6.15983430e-01  -2.33204550e+00  -2.85349880e-01
C     6.165172861124999e+00   1.964946135112561e+00   1.943645360000000e-01 -8.62865030e-01   1.36538182e+00  -4.65254340e-01
C     7.391764354725000e+00   2.679488525411498e+00   1.263236000000000e-01 -9.93956890e-01   8.44081600e-01   5.91461460e-01
C     7.487455100100000e+00   3.044160737114297e+00   3.338737576000000e+00 -4.91345350e-01  -1.08203580e+00   1.66927700e-01
C     8.736098298824999e+00   3.742763121727430e+00   3.266697152000000e+00 -1.53889380e+00   7.03954660e-01   8.99160220e-01
C     2.470619361900000e+00   4.123834588447174e+00   1.350522309600000e+01 -1.53797336e+00  -1.55252430e-01  -7.32701800e-02
C     3.677241212625000e+00   4.827933107155759e+00   1.355917266400000e+01  9.43662440e-01   5.17339500e-02   7.12824150e-01
C     3.814903759500000e+00   5.189200815380182e+00   3.581257672000000e+00 -1.41090796e+00  -1.40774741e+00  -6.18612750e-01
C     5.054195389124999e+00   5.874762081627839e+00   3.494821512000000e+00 -1.21709818e+00   3.02978360e-01  -4.14299620e-01
C     4.909621438275000e+00   4.129159024389399e+00   1.251575360000000e-01 -3.35737500e-01  -1.04756783e+00  -3.47310770e-01
C     6.116801722425000e+00   4.815094875679288e+00   2.332903200000000e-01  1.78759674e+00   9.50385290e-01   7.80453700e-02
C     6.244268228175000e+00   5.135114232006759e+00   3.425345912000000e+00  4.53480520e-01   1.43642368e+00  -2.81428100e-01
C     7.463877473699998e+00   5.838462684034782e+00   3.336909464000000e+00  9.32663140e-01   2.28461524e+00   6.83165280e-01
C     7.371454320000000e+00   4.085353708499263e+00   3.071210480000000e-01  8.57768810e-01   1.39697220e+00  -2.38997488e+00
C     8.634734885924999e+00   4.818858401853296e+00   4.079075200000000e-02 -1.57581621e+00   6.66617300e-01   1.55173691e+00
C     8.712446241749999e+00   5.167682252800268e+00   3.446473784000000e+00  5.23785100e-02  -4.64657910e-01  -7.27011010e-01
C     9.934186319549999e+00   5.887723595068115e+00   3.564540144000000e+00  9.33877890e-01  -8.38016210e-01  -1.23124570e-01
C     7.416495379274999e+00   1.157978840272254e-01   6.936794104000000e+00  9.46699980e-01  -2.56111200e-01  -3.56870260e-01
C     1.246189167975000e+00   8.390568535290942e-01   6.789548264000000e+00  6.35223660e-01  -8.06325490e-01   1.78005640e-01
C     1.132954450650000e+00   5.593793904410713e-01   1.010528919200000e+01 -8.77069200e-02   6.22731600e-02   6.58568390e-01
C     2.339375157375000e+00   1.265193353660036e+00   9.937439895999999e+00  1.45802073e+00   2.17371160e-01   7.92612250e-01
C     2.499492880575000e+00   1.254446176417434e-01   6.802910536000000e+00 -4.48042900e-01   6.41296100e-02   1.01138030e-01
C     3.728569685775000e+00   8.253156216943638e-01   6.786947400000000e+00  3.53971870e-01   1.94075670e-01  -1.08779420e-01
C     3.600189231975000e+00   5.423831945489959e-01   1.007064972000000e+01  1.44106260e-01   1.01959209e+00  -5.54979670e-01
C     4.882047258075000e+00   1.278831605028377e+00   1.007102562400000e+01 -2.98608828e+00  -8.22900700e-01   8.21488520e-01
C     4.970207933775000e+00   1.006046788504758e-01   6.906490040000000e+00  9.06286100e-02   1.39783731e+00   4.06079500e-02
C     6.225988120949999e+00   8.234398786097484e-01   6.959811288000000e+00 -2.04417640e+00   1.08010782e+00  -1.06378273e+00
C     6.053116130325000e+00   5.756689405208743e-01   1.026969918400000e+01  1.17243322e+00  -1.01162514e+00  -4.47965190e-01
C     7.302222847650000e+00   1.265424995666832e+00   1.025801583200000e+01 -4.10318000e-03   4.03542830e-01  -9.13446400e-01
C     8.656380679500000e+00   2.236266297863598e+00   6.705700184000000e+00 -4.08206440e-01   1.53684839e+00  -1.54298590e-01
C     2.510524704600000e+00   2.953610807146600e+00   6.608668944000000e+00 -1.34215024e+00   7.81827230e-01   1.60850680e+00
C     2.353890137325000e+00   2.712192380514217e+00   9.891657127999999e+00  4.21715960e-01  -7.98334020e-01   8.41726110e-01
C     3.592782067200000e+00   3.407108986643763e+00   9.940631271999999e+00  6.17826010e-01  -1.78708020e-01   8.79714480e-01
C     3.721507423800000e+00   2.258839641713054e+00   6.684844040000000e+00  5.56738310e-01  -1.10146973e+00   6.50910800e-02
C     4.957253409750000e+00   2.951187051716904e+00   6.743168592000000e+00 -4.19011400e-01   1.09495691e+00   3.23628430e-01
C     4.837151991224999e+00   2.681160933309058e+00   1.008378188000000e+01 -8.01530390e-01   5.55228690e-01  -4.04004150e-01
C     6.028391983124999e+00   3.380238577897982e+00   1.022848656000000e+01  2.15789247e+00   1.54151717e+00  -6.49738220e-01
C     6.184294075650000e+00   2.277764479859669e+00   6.801709384000000e+00  9.09544330e-01  -1.40332585e+00   4.46090640e-01
C     7.409924773874999e+00   3.004262274689076e+00   6.764527119999999e+00  6.44579530e-01  -2.14829036e+00   1.58245420e-01
C     7.304677322100000e+00   2.681926306165907e+00   1.017888872000000e+01 -2.62694230e-01   8.46853220e-01   4.85720910e-01
C     8.561534997750000e+00   3.432799154708523e+00   1.009822236000000e+01 -1.60168541e+00  -1.64740475e+00  -4.89572090e-01
C     9.882776094674998e+00   4.391732187712670e+00   6.849001343999999e+00  1.10784380e-01  -1.08899817e+00  -1.01423808e+00
C     3.707218841775000e+00   5.088892141327996e+00   6.883733568000000e+00  6.37522490e-01   3.28383570e-01   1.00029130e-01
C     3.608848370250000e+00   4.808867055123331e+00   1.012031134400000e+01 -8.18219090e-01   1.24550918e+00   4.21943870e-01
C     4.852914174900000e+00   5.550753192866482e+00   1.020893207200000e+01 -1.32466228e+00  -5.32042920e-01  -7.67943830e-01
C     4.938583844849999e+00   4.378786428746730e+00   6.826692856000000e+00  1.00956314e+00   3.72727700e-01  -1.46853450e-01
C     6.200310277574999e+00   5.110660854219922e+00   6.868447440000000e+00 -1.29360641e+00  -5.93264360e-01  -3.85499630e-01
C     6.057469012199999e+00   4.850647024465242e+00   1.018798140800000e+01  2.44579930e-01  -1.87613889e+00   3.52187880e-01
C     7.290029823750000e+00   5.534119542011861e+00   1.017807897600000e+01  6.19414270e-01   3.74556210e-01  -2.04728530e-01
C     7.413802711874999e+00   4.389096963688437e+00   6.834961927999999e+00  6.66068790e-01   1.29005922e+00  -6.91182200e-02
C     8.666021023350000e+00   5.106081233466814e+00   6.888836288000000e+00 -7.58468350e-01  -7.68114060e-01  -1.37849710e-01
C     8.551933107900000e+00   4.829062882284842e+00   1.015437580800000e+01 -1.73855379e+00   4.40551790e-01   3.32710580e-01
C     9.726860949975000e+00   5.543229278604819e+00   1.021969212000000e+01  2.80244618e+00   1.03293490e-01  -4.57306900e-01
