72
Lattice="7.395 0 0 3.6975 6.40425786098592 0 0 0 13.6 " PBC="1 1 1" Properties=species:S:1:pos:R:3:force:R:3 Energy="-582.72480551"
C     3.696387200400000e+00   6.285429673281159e+00   1.352494282400000e+01 -5.12610410e-01   4.52796820e-01  -1.35664590e-01
C     1.252641675225000e+00   5.794439943590298e-01   1.355066817600000e+01 -1.52965701e+00   1.79121856e+00  -1.25214180e-01
C     1.304194993350000e+00   8.622289314458820e-01   3.512745904000000e+00  1.59472510e-01  -1.84790460e-01  -2.53822430e-01
C     2.516251059825000e+00   1.599145172961937e+00   3.570273768000000e+00  7.79739670e-01  -1.14601481e+00  -6.08349400e-01
C     6.172746376425000e+00   6.311936832521120e+00   1.350659248000000e+01 -1.14795121e+00  -1.23336353e+00   6.40157800e-02
C     3.685394200125000e+00   6.044425025749111e-01   1.350210407200000e+01 -3.37296300e-01   9.26992700e-02  -7.78205600e-02
C     3.755767201649999e+00   8.747354223652045e-01   3.509092672000000e+00 -1.00333979e+00  -1.86117254e+00   1.43636590e-01
C     4.984604039100000e+00   1.529144521147043e+00   3.484644224000000e+00  1.26987030e-01   9.16161350e-01  -2.04999790e-01
C     8.580269749574999e+00   6.295112206697114e+00   1.349664054400000e+01  1.34057912e+00  -1.12040430e-01  -1.43327240e-01
C     6.115975553025000e+00   5.735980596992647e-01   1.351050302400000e+01  1.44159232e+00   2.50432910e-01   1.08786970e-01
C     6.213270015075000e+00   8.303268253846566e-01   3.433940296000000e+00  1.02455655e+00   3.41606730e-01   2.01028100e-01
C     7.465844321850000e+00   1.551355640171938e+00   3.466075600000000e+00 -6.96239690e-01  -6.18306730e-01   7.11878900e-02
C     1.217421397800000e+00   2.042631640189140e+00   1.357352080000000e+01  9.49879000e-02  -9.30857630e-01  -2.44286070e-01
C     2.447092908900000e+00   2.746937464724653e+00   1.359643244800000e+01 -2.20915110e-01   3.80222920e-01  -5.89545760e-01
C     2.526018745575000e+00   3.000373096975855e+00   3.521684504000000e+00 -2.99582840e-01   8.07631270e-01   1.26638490e-01
C     3.752446365975000e+00   3.712173312144297e+00   3.510238880000000e+00  1.08537827e+00  -3.46738780e-01  -5.78875060e-01
C     3.675586470450000e+00   2.002003284495614e+00   1.351071817600000e+01  3.43854500e-02   1.69703833e+00   8.18922640e-01
C     4.915015129425000e+00   2.709248087005661e+00   1.355649632000000e+01 -3.56956820e-01   1.06577640e+00  -5.23357840e-01
C     4.966056898424999e+00   2.943868329877075e+00   3.476678976000000e+00  1.17346370e+00   1.81558654e+00   4.29034110e-01
C     6.237603151649999e+00   3.674700398340972e+00   3.499903560000000e+00 -1.29774157e+00  -8.22288780e-01  -3.29359890e-01
C     6.124164443249999e+00   1.984308832369063e+00   1.352122512800000e+01  9.57477590e-01   1.22467505e+00  -3.39847000e-03
C     7.371732778725000e+00   2.738214801476754e+00   1.350052592800000e+01 -5.49389650e-01  -2.00475950e-01   5.08572690e-01
C     7.464785616675000e+00   2.954537695386678e+00   3.493655856000000e+00  3.62790620e-01   1.52508887e+00  -7.16443700e-02
C     8.695068509399999e+00   3.710028205974090e+00   3.489618288000000e+00 -5.92162430e-01  -1.47958130e-01   3.44092880e-01
C     9.813894738600000e+00   4.198662577709199e+00   1.355926473600000e+01  1.40190945e+00  -1.58537667e+00  -3.31263570e-01
C     3.677448346575000e+00   4.880121148286585e+00   1.351338894400000e+01  2.98235700e-02  -3.28362610e-01   3.91493640e-01
C     3.793540787700000e+00   5.148324230652003e+00   3.423702896000000e+00 -8.06200370e-01  -1.12471692e+00   4.57542320e-01
C     5.022547007625000e+00   5.844105027337177e+00   3.447776120000000e+00 -2.27436440e-01  -3.54658850e-01   2.23321320e-01
C     4.918256468850000e+00   4.172209150192684e+00   1.353400804000000e+01 -8.67928080e-01  -1.33134743e+00  -1.00488330e-01
C     6.126622874024999e+00   4.878214856891977e+00   1.348518009600000e+01  6.57402360e-01   4.22452780e-01   2.87483000e-01
C     6.231264823200000e+00   5.086031551469669e+00   3.487453576000000e+00  4.68854250e-01   8.57173940e-01  -8.10503300e-02
C     7.464772379625000e+00   5.814767506335988e+00   3.488317312000000e+00 -7.86862120e-01   1.55675582e+00   2.69367720e-01
C     7.347144514649999e+00   4.174003110904427e+00   1.349663728000000e+01  1.16305722e+00  -9.21418130e-01  -2.52303770e-01
C     8.605242923399999e+00   4.889993247735196e+00   1.347752044000000e+01 -1.50337346e+00  -7.16669020e-01   5.78132620e-01
C     8.695626684000000e+00   5.153686771928495e+00   3.511580112000000e+00  1.58450800e-02  -2.08481761e+00  -5.94940340e-01
C     9.930948862499999e+00   5.822575385391165e+00   3.438279648000000e+00  5.06639530e-01   8.80089690e-01   1.69754070e-01
C     7.445986713224999e+00   9.899925949013100e-02   6.903398896000000e+00 -5.72386320e-01  -3.70870450e-01   9.72074100e-02
C     1.265096556075000e+00   8.267287852337515e-01   6.930058839999999e+00  3.66940420e-01  -1.10551347e+00  -1.82516300e-01
C     1.167432972600000e+00   5.797436495842992e-01   1.007475012000000e+01 -1.33831658e+00  -2.89388500e-02   2.09036260e-01
C     2.375886786675000e+00   1.279750616031287e+00   1.012995184000000e+01  3.95403330e-01   8.59390750e-01   6.47350100e-02
C     2.509143022800000e+00   1.064748856475304e-01   6.871297183999999e+00 -7.08402200e-01   5.27501580e-01   2.31048580e-01
C     3.744416505225000e+00   7.771743030201150e-01   6.862304319999999e+00  8.09817590e-01   8.36165630e-01   1.65364930e-01
C     3.587368372575000e+00   5.680381391955270e-01   1.015580544000000e+01  2.01251424e+00   5.22042590e-01  -5.20045020e-01
C     4.870112245724999e+00   1.310446223954268e+00   1.008795952800000e+01 -1.81628795e+00  -7.85967420e-01   5.16182910e-01
C     5.008035392399999e+00   9.037099500308880e-02   6.881065112000000e+00 -9.79719000e-01   3.65137340e-01   5.12964100e-02
C     6.230162783325000e+00   8.177414340084991e-01   6.924712272000000e+00 -4.06846680e-01   7.35647100e-01  -4.54266610e-01
C     6.090692306849999e+00   6.096688252867213e-01   1.005436820800000e+01  2.02928310e-01  -4.71264290e-01   4.99287500e-02
C     7.328678238300000e+00   1.328477091746205e+00   1.004691010400000e+01  3.08296910e-01  -1.13062710e+00  -5.95990400e-02
C     8.652783381750000e+00   2.221368457059352e+00   6.980087800000001e+00 -3.69310450e-01   8.44111970e-01  -7.74044670e-01
C     2.501344403700000e+00   2.881631559865859e+00   6.925390776000000e+00  6.29920600e-02   2.11861985e+00   2.36769510e-01
C     2.389007809125000e+00   2.712446245295787e+00   1.013313995200000e+01 -3.97430500e-02   7.14281930e-01  -6.65538200e-02
C     3.621861536625000e+00   3.446426710966239e+00   1.010436398400000e+01 -3.96887050e-01  -1.27648784e+00   1.19028900e-01
C     3.743358095850000e+00   2.207173291427505e+00   6.898145080000000e+00 -6.51269300e-01  -8.88930560e-01  -8.64042800e-02
C     4.950496672200000e+00   2.919067777271646e+00   6.907690511999999e+00  6.98051710e-01   1.71696305e+00  -9.32133300e-02
C     4.850440214624999e+00   2.728093512354811e+00   1.010416256800000e+01  2.69079040e-01  -3.57362890e-01  -3.76664500e-01
C     6.078255543750000e+00   3.416382608195357e+00   1.003306340000000e+01  4.49709460e-01   1.21036113e+00   1.99541120e-01
C     6.204065236725000e+00   2.279246745341366e+00   6.900184535999999e+00 -2.48966940e-01  -2.36464716e+00   1.72533710e-01
C     7.416405899774999e+00   2.977746341615846e+00   6.915639304000000e+00  6.51739920e-01  -5.38911100e-01   1.35497060e-01
C     7.337531828099999e+00   2.739306535314149e+00   1.001378907200000e+01 -7.54132750e-01  -7.04510700e-02   7.64050060e-01
C     8.560650259950000e+00   3.455801840004915e+00   1.011464286400000e+01  2.98182620e-01  -9.59481470e-01  -4.27059930e-01
C     9.894744902174999e+00   4.337774906305441e+00   6.926855224000001e+00 -7.94997560e-01  -2.22845800e-01  -4.14075620e-01
C     3.706338614924999e+00   5.062503268730707e+00   6.888738775999999e+00  1.10845124e+00   2.55725330e-01   2.96677360e-01
C     3.629091960900000e+00   4.839565609004927e+00   1.004356518400000e+01 -1.15113033e+00   1.26885719e+00   4.32681590e-01
C     4.856086371075000e+00   5.550961395289510e+00   1.007327941600000e+01 -7.32872880e-01   1.07436653e+00  -2.24543440e-01
C     4.951847812650000e+00   4.358583428816417e+00   6.922380280000000e+00 -3.67072200e-01   2.21085690e-01  -3.95276620e-01
C     6.171835312424999e+00   5.115381304603370e+00   6.895724144000000e+00  9.44424400e-02  -1.99125590e+00  -2.01881590e-01
C     6.066158802750000e+00   4.867168216551842e+00   1.005500346400000e+01  4.70626920e-01  -1.86296081e+00   3.41219000e-01
C     7.284421566674999e+00   5.553122704232104e+00   1.011620115200000e+01  1.20043474e+00   7.50055240e-01  -6.49258100e-02
C     7.396952575799999e+00   4.382699686469505e+00   6.884007608000000e+00  1.15998879e+00   1.01456065e+00   1.37964170e-01
C     8.664398893125000e+00   5.087525728870985e+00   6.895137711999999e+00  1.33742600e-02  -1.26389967e+00  -3.89766000e-03
C     8.549194813349999e+00   4.863117139199920e+00   1.010529340800000e+01 -3.95379980e-01   4.24101080e-01  -9.49373000e-03
C     9.768566494500000e+00   5.573696446649932e+00   1.005889986400000e+01  1.03715306e+00   1.70256760e-01   2.10973890e-01
