72
Lattice="7.395 0 0 3.6975 6.40425786098592 0 0 0 13.6 " PBC="1 1 1" Properties=species:S:1:pos:R:3:force:R:3 Energy="-564.91138991"
C     3.761933670299999e+00   6.334701727723169e+00   1.333806576800000e+01 -5.37465940e-01   2.13063219e+00   6.95775010e-01
C     1.186849284600000e+00   8.222080836529559e-01   1.337567330400000e+01  2.86187053e+00  -5.22277035e+00   5.64457870e-01
C     1.323318426375000e+00   6.906689180613222e-01   3.435498175999999e+00 -1.44496386e+00   3.99786531e+00  -8.40284900e-02
C     2.437062367875000e+00   1.641234724128800e+00   3.430487664000000e+00  2.54849702e+00  -7.10056596e+00  -1.80312000e-01
C     6.064068679949999e+00   6.392377577414229e+00   1.346943864000000e+01  4.28530453e+00   4.30522640e-01  -7.53546920e-01
C     3.702581511225000e+00   7.202955272623111e-01   1.321001483200000e+01 -4.20791750e-01  -9.64835980e-01   3.03283692e+00
C     3.673790224950000e+00   7.716221316683881e-01   3.465956056000000e+00 -1.32804620e+00  -1.18938423e+00   6.27717630e-01
C     4.914064576125000e+00   1.444763620648148e+00   3.520100240000000e+00 -5.53457180e-01  -1.69526520e-01   2.63250100e-01
C     8.684290185975000e+00   6.400077480681886e+00   1.340900622400000e+01 -1.51594763e+00  -9.75069170e-01  -3.38116730e-01
C     6.334801663575000e+00   7.418230558032295e-01   1.348778653600000e+01 -6.61893747e+00  -3.31289608e+00   1.63283470e-01
C     6.114525800250000e+00   8.267134790574662e-01   3.528648656000000e+00  5.33971642e+00  -5.49698100e+00   4.98520740e-01
C     7.452739753274999e+00   1.423834505961668e+00   3.407336248000000e+00 -3.35561579e+00   8.29653230e-01   3.58544520e-01
C     8.584734074100000e+00   2.233931049277528e+00   1.341813685600000e+01  7.17001805e+00  -5.85925295e+00  -2.21011432e+00
C     2.436751888800000e+00   2.913511571237467e+00   1.313921513600000e+01 -1.15136980e-01  -3.36465397e+00   1.77272248e+00
C     2.527782674925000e+00   3.017183633432569e+00   3.405572056000000e+00 -3.64956232e+00  -1.48058921e+00  -7.84502300e-02
C     3.768901017449999e+00   3.581625141413920e+00   3.559190856000000e+00  1.31567329e+00   1.68904161e+00   6.00210070e-01
C     3.656012977725000e+00   2.211851281581342e+00   1.327047240800000e+01  2.49688452e+00  -3.29762232e+00   6.67026000e-02
C     4.928097291149999e+00   2.857751235072334e+00   1.357860774400000e+01 -4.95760110e-01  -1.89674317e+00   3.25457470e-01
C     5.026003578525000e+00   2.790935036435747e+00   3.696829384000000e+00 -4.13722048e+00   5.47561588e+00  -1.83529393e+00
C     6.156501447150000e+00   3.661236855127052e+00   3.561721136000000e+00 -1.04604138e+00  -8.63247651e+00  -1.43954100e-02
C     6.242965007324999e+00   2.145676341284276e+00   1.722082320000000e-01 -8.34775858e+00  -6.40428242e+00  -1.47656401e+00
C     7.399356283574999e+00   2.629362142970963e+00   5.448975999999999e-03 -8.25290540e-01   1.12833422e+01   7.22534230e-01
C     7.269706921725000e+00   2.874260066941263e+00   3.343264608000000e+00  7.34937831e+00   7.62308430e-01   5.97748760e-01
C     8.600997195074999e+00   3.658976856570836e+00   3.360841248000000e+00  9.95615840e-01  -2.23518404e+00   1.41136510e-01
C     2.493765194250000e+00   4.245690964452538e+00   1.321571377600000e+01 -2.45919819e+00   1.27639365e+00   5.17285980e-01
C     3.729422477175000e+00   4.850201864501393e+00   1.328466400800000e+01 -2.31567602e+00   6.36009343e+00   3.03900990e-01
C     3.775320616950000e+00   5.031238002071081e+00   3.583590480000000e+00 -4.97256420e-01   4.75959300e-02   3.06886480e-01
C     5.072684294175000e+00   5.675158143287233e+00   3.507334736000000e+00 -8.04017017e+00   4.83654068e+00   1.33340920e-01
C     4.847810330774999e+00   4.254993981547710e+00   5.340896800000000e-02  3.58727640e+00  -2.59383463e+00  -1.62280950e-01
C     6.084592873875000e+00   4.918793515544509e+00   1.411757520000000e-01  1.89299906e+00   1.35676940e+00  -1.66319738e+00
C     6.136787967075000e+00   4.968284083264702e+00   3.490945104000000e+00  6.20682053e+00   7.81572680e-01   3.33203820e-01
C     7.374873620100000e+00   5.592019156472549e+00   3.556723000000000e+00  1.68991815e+00   6.80469437e+00  -1.09173913e+00
C     7.286085293775000e+00   4.034723759263197e+00   1.359839805600000e+01  2.90791152e+00   7.45775617e+00  -1.70754560e-01
C     8.603570100450000e+00   4.837540198414124e+00   1.340234576000000e+01 -1.45478002e+00   3.61359715e+00   2.93054910e-01
C     8.681953439925000e+00   5.020281021340986e+00   3.542829784000000e+00 -2.09407313e+00   4.77131590e-01   3.98557950e-01
C     9.895356320775001e+00   5.757339629509268e+00   3.695480264000000e+00  7.96747700e-01   5.55825700e-01  -1.94308705e+00
C     3.751924315950000e+00   6.394649936188114e+00   7.239845487999999e+00 -2.33783923e+00   1.94215936e+00  -1.64647615e+00
C     1.253310146250000e+00   6.929403161965284e-01   6.945290568000000e+00  3.98891010e-01   2.27602413e+00  -6.78592290e-01
C     1.208231705250000e+00   6.443656854354720e-01   1.021709112000000e+01 -1.86940495e+00   1.01106769e+00  -4.42691340e-01
C     2.457102669975000e+00   1.398715085357390e+00   1.018493188000000e+01 -6.31763940e-01  -1.91819832e+00   1.46628970e-01
C     6.174406479975000e+00   6.381650253370993e+00   6.633925232000000e+00  2.67899900e-01   4.24699619e+00   2.76411340e-01
C     3.822575628300000e+00   6.723524203688293e-01   6.406040096000000e+00 -1.66846417e+00   5.73650290e-01   2.77551049e+00
C     3.706531698375000e+00   6.671190529733730e-01   1.038472771200000e+01 -9.98092060e-01  -1.44310289e+00   1.19888140e+00
C     4.922910364200000e+00   1.379626106081824e+00   1.043206414400000e+01 -3.44736438e+00   4.69846970e-01  -2.00869240e+00
C     8.718478380224999e+00   6.398051045409824e+00   6.927129943999999e+00 -1.59525869e+00   1.54935361e+00  -1.94868370e+00
C     6.189018075600000e+00   7.507885685091792e-01   7.103689360000000e+00  1.76511115e+00   1.14652561e+00  -2.51361120e-01
C     6.098053141950000e+00   7.411990889599296e-01   1.030545508000000e+01  2.42676135e+00  -1.26578387e+00   4.53011410e-01
C     7.316490871575000e+00   1.360306061182669e+00   1.014317852000000e+01  4.67499717e+00   2.24419887e+00  -2.41741900e-02
C     8.612420769225000e+00   2.226486932068799e+00   6.860304031999999e+00 -4.44033930e-01  -2.73481328e+00  -3.34527050e-01
C     2.482834496850000e+00   2.823887696956326e+00   6.678597560000000e+00  7.72946760e-01  -1.66559510e-01  -7.46295940e-01
C     2.436425214675000e+00   2.811125740190968e+00   1.002786439200000e+01  7.55450130e-01  -5.25351800e-02   9.54459980e-01
C     3.736343087925000e+00   3.417304885369776e+00   9.996550392000000e+00 -5.22606941e+00   4.02586063e+00   2.08707960e-01
C     3.804693187200000e+00   2.150908940168789e+00   6.385138120000000e+00 -6.02343998e+00  -3.75451543e+00   1.62036608e+00
C     4.895533408650000e+00   2.831401428447993e+00   6.635052264000000e+00  4.66816186e+00   3.87713552e+00   1.92415426e+00
C     4.878248113800000e+00   2.701775534892034e+00   1.005710344000000e+01  3.81245646e+00   3.19775511e+00   8.43527340e-01
C     6.141719581649999e+00   3.498199051719372e+00   1.008401172000000e+01  2.30171210e-01   9.63936010e-01   1.14885422e+00
C     6.181405588650000e+00   2.199799941268129e+00   6.908187048000000e+00 -1.30428522e+00  -8.06758960e-01  -7.21484860e-01
C     7.340160048074999e+00   3.004872856633448e+00   6.857874936000000e+00  3.12781643e+00  -1.90280548e+00   3.28887940e-01
C     7.439657702474999e+00   2.818136609355468e+00   1.009473749600000e+01 -3.27809205e+00   3.71859220e-01   5.71514370e-01
C     8.611303754474999e+00   3.608683194914999e+00   1.017973219200000e+01  1.92859959e+00  -3.75629571e+00  -3.36096250e-01
C     2.453753992125000e+00   4.212284626305156e+00   6.877435407999999e+00 -4.21705430e-01   1.25814280e+00   5.21573720e-01
C     3.565922354925000e+00   5.018090252812237e+00   7.059806783999999e+00  6.23011536e+00  -2.37493590e+00  -8.41953930e-01
C     3.589960504950000e+00   4.922906137814465e+00   1.005310952800000e+01  1.90892577e+00   7.66395510e-01   1.04320410e+00
C     4.828527757350000e+00   5.631155704340166e+00   1.019952549600000e+01  1.98158709e+00   3.65402270e-01   3.40161840e-01
C     4.867791287999999e+00   4.291040795210770e+00   6.878202448000001e+00 -2.04701300e-01   2.57937190e-01  -7.35632010e-01
C     6.119649315075000e+00   5.037256147224702e+00   6.741956016000000e+00  2.85349630e-01  -2.08246424e+00   6.24802010e-01
C     6.117584815950000e+00   4.975308721583601e+00   1.034184038400000e+01  9.03422140e-01  -3.71087519e+00  -7.47191110e-01
C     7.451946047924999e+00   5.552645330851218e+00   1.062101560800000e+01 -6.56119129e+00   5.41793450e+00  -2.28293874e+00
C     7.429036374900000e+00   4.439721789518216e+00   6.758290432000000e+00 -2.81744081e+00  -4.31381616e+00   2.85424630e-01
C     8.679801938624999e+00   4.979434792795063e+00   6.916460335999999e+00 -8.26643930e-01   1.03587596e+00  -2.41327940e-01
C     8.639964001350000e+00   4.964110492459919e+00   1.048513814400000e+01  9.87639870e-01  -3.95250360e-01  -1.23221599e+00
C     9.781224368100000e+00   5.790611222071276e+00   1.031656641600000e+01  2.38097463e+00  -6.38823461e+00  -7.36073750e-01
