72
Lattice="7.395 0 0 3.6975 6.40425786098592 0 0 0 13.6 " PBC="1 1 1" Properties=species:S:1:pos:R:3:force:R:3 Energy="-578.73107856"
C     3.663520196850000e+00   6.217513287186802e+00   1.355916096800000e+01  1.49353800e+00  -1.28136958e+00  -1.57297490e-01
C     1.193942864400000e+00   5.232984420836172e-01   1.358734669600000e+01  7.13343000e-01  -1.75286863e+00   1.94054860e-01
C     1.405675764900000e+00   1.043489410168405e+00   3.562947992000000e+00  3.90166490e-01  -7.97900250e-01  -2.07897840e-01
C     2.654928718350000e+00   1.695420189243581e+00   3.566772992000000e+00 -2.47541120e-01   2.97027335e+00  -3.56026790e-01
C     6.094322475375000e+00   6.175390626006803e+00   4.304196000000000e-02  2.71925687e+00   1.66628994e+00  -7.71071470e-01
C     3.683406535050000e+00   5.370214858260252e-01   1.357027978400000e+01 -9.33988100e-02  -1.30868724e+00   4.64273130e-01
C     3.879028984350000e+00   1.009702723146718e+00   3.589525384000000e+00  1.14612366e+00   1.77131553e+00   4.08652340e-01
C     5.130398312850000e+00   1.770920625580907e+00   3.682365104000000e+00 -8.05961370e-01  -4.19893820e-01  -1.10988641e+00
C     8.653087205325001e+00   6.179860669907925e+00   2.464320000000000e-02 -2.60605743e+00   8.07823000e-03  -9.19047310e-01
C     6.182194561199999e+00   4.724638768089240e-01   6.922699200000000e-02 -2.38177133e+00   2.55308624e+00  -2.19031890e-01
C     6.346665277200000e+00   1.037455190327556e+00   3.612873456000000e+00 -1.00669340e-01  -6.32406400e-02   1.68160610e-01
C     7.583085243449999e+00   1.735026169212336e+00   3.529351640000000e+00 -6.84454240e-01   1.99502621e+00   2.68524270e-01
C     1.266757916775000e+00   1.886330667752131e+00   7.359096000000000e-03 -3.57074696e+00   2.87083251e+00   1.35911600e-01
C     2.459786944050000e+00   2.637409028929475e+00   1.351625677600000e+01 -6.63314270e-01  -1.13389476e+00  -8.25744200e-02
C     2.665133596500000e+00   3.187906482229669e+00   3.539018384000000e+00 -1.81913120e-01  -2.74885676e+00   3.05404270e-01
C     3.893247276900000e+00   3.860307190702763e+00   3.672238408000000e+00 -1.40386998e+00   1.47354330e+00  -8.43332480e-01
C     3.665196236625000e+00   1.987174033293049e+00   1.351421800000000e+01  2.37836250e+00  -2.70954216e+00   1.36166290e+00
C     4.895987202824999e+00   2.704740642238635e+00   1.574603920000000e-01 -1.09171730e-01  -4.26242596e+00  -9.42396780e-01
C     5.125686958350000e+00   3.227865849147140e+00   3.644509912000000e+00 -9.10250350e-01  -4.17286339e+00   6.41894180e-01
C     6.319234375124999e+00   3.864658435620583e+00   3.654595400000000e+00  2.87943891e+00   3.28937497e+00  -8.82497840e-01
C     6.151030921949999e+00   1.948232623162426e+00   1.690791440000000e-01 -1.55679242e+00  -1.20541340e+00  -6.73739100e-02
C     7.331078285549999e+00   2.632439196744958e+00   1.341914720000000e-01  3.84825223e+00   7.04079970e-01  -2.06475680e-01
C     7.575547667850000e+00   3.205765908038694e+00   3.515964616000000e+00 -6.71573650e-01  -2.72069671e+00   2.87102950e-01
C     8.819515266900000e+00   3.879688524349638e+00   3.482049888000000e+00 -1.56997680e-01  -8.74772830e-01   8.74134820e-01
C     2.477844165975000e+00   3.996660565012916e+00   1.345418447200000e+01 -2.17265435e+00   4.36406683e+00  -1.01012460e-01
C     3.678843265425000e+00   4.790076386178884e+00   1.345552638400000e+01 -5.61181880e-01  -1.40384459e+00   1.48044383e+00
C     3.852574813875000e+00   5.272577912502101e+00   3.641590128000000e+00  1.22112964e+00   1.70005667e+00   1.59369800e-02
C     5.102450315400000e+00   6.034417348161603e+00   3.611444640000000e+00 -6.26382670e-01  -1.10524438e+00   2.98254000e-03
C     4.867203903150000e+00   4.043242382855676e+00   1.549673760000000e-01  1.76214981e+00   4.01150289e+00  -1.32303448e+00
C     6.140447789549999e+00   4.779627391182244e+00   1.204248720000000e-01 -8.58483930e-01  -3.22628820e-01   7.95186550e-01
C     6.340384925550000e+00   5.342678726909925e+00   3.613813216000000e+00 -9.86561500e-01  -1.59844410e+00  -2.99052800e-02
C     7.558004953050000e+00   6.026906178373080e+00   3.575352280000000e+00  1.30008521e+00  -1.91762964e+00   5.16568200e-01
C     7.391669587799999e+00   4.101369348470394e+00   1.587251920000000e-01 -2.75025145e+00  -2.71632969e+00  -1.09272120e+00
C     8.559859512599999e+00   4.729538665777926e+00   1.348558116000000e+01  4.38700271e+00   1.99531936e+00   1.23297206e+00
C     8.786393468625000e+00   5.242531183985496e+00   3.642009959999999e+00  8.04088250e-01   3.90000231e+00  -9.44577050e-01
C     1.003650897487500e+01   6.004257200238297e+00   3.635462104000000e+00 -1.01965169e+00  -8.23201600e-01   1.06569790e-01
C     7.378816005525000e+00   1.905591409223502e-01   7.100458271999999e+00  4.74443000e-03   1.03127928e+00  -1.08219017e+00
C     1.208763886425000e+00   8.823163345218222e-01   6.937662191999999e+00  1.23203301e+00   1.75360662e+00  -4.36181830e-01
C     1.039128724275000e+00   3.990094087301322e-01   9.835689320000000e+00  2.76999540e+00  -6.46147870e-01   1.01036420e+00
C     2.294739159225000e+00   1.119297827266219e+00   9.876322176000000e+00  5.49010960e-01  -6.77530410e-01   1.34261500e-02
C     2.462124318675000e+00   2.137328199036030e-01   6.783966415999999e+00 -3.49122460e-01  -1.97556921e+00   6.27135110e-01
C     3.704122111574999e+00   9.171825232483914e-01   6.740132392000000e+00 -7.72783640e-01   4.50731970e-01   4.49199110e-01
C     3.575585993025000e+00   4.197098914110102e-01   1.001964972000000e+01 -3.73303873e+00  -8.46015580e-01  -3.61775240e-01
C     4.746680932650000e+00   1.099001517298885e+00   9.968893296000001e+00  2.78817831e+00   1.54349618e+00  -6.25030980e-01
C     4.918762693574999e+00   2.031638731572450e-01   6.910611384000000e+00 -3.01015680e-01  -8.40053940e-01  -5.29738600e-02
C     6.135187836975000e+00   9.222666073931312e-01   7.026258712000000e+00  3.87649740e-01  -2.72051837e+00  -3.95070860e-01
C     6.000013707600000e+00   3.883189732121700e-01   9.948614608000000e+00 -7.28460890e-01   5.51570750e-01   3.67966630e-01
C     7.226005133925000e+00   1.051614428072809e+00   9.873658616000000e+00 -7.32204480e-01   2.78064888e+00  -2.37992000e-02
C     8.621151786899999e+00   2.350517745745369e+00   6.899700648000000e+00  1.23152276e+00  -1.30293760e+00  -6.91806640e-01
C     2.478995123775000e+00   3.101772992524807e+00   6.756801096000000e+00 -1.78574359e+00  -2.38826769e+00   8.86701360e-01
C     2.303068332600000e+00   2.535199635187019e+00   9.772969928000000e+00  1.14121062e+00  -1.67514296e+00   4.90194640e-01
C     3.526334812350000e+00   3.219552482019073e+00   9.723058880000000e+00  7.40390190e-01   1.81886487e+00   9.56407500e-01
C     3.657333761699999e+00   2.361982263910870e+00   6.721871535999999e+00  3.04374948e+00   1.47059890e-01   1.42763670e-01
C     4.929956468099999e+00   3.097726846451438e+00   6.782171080000000e+00 -8.21927700e-02  -2.95825010e+00   2.63331090e-01
C     4.767289688400000e+00   2.521823702220623e+00   9.778908776000000e+00  3.96769270e-01   4.14057510e-01   1.20562231e+00
C     6.024505725749999e+00   3.241703401020084e+00   9.913392783999999e+00 -5.47523790e-01  -2.18914250e-01  -6.65028050e-01
C     6.172434270449999e+00   2.265268235752922e+00   6.902209576000000e+00 -1.06431272e+00   5.25129327e+00  -4.04322280e-01
C     7.414897171875000e+00   3.018514822471349e+00   6.914966103999999e+00 -9.35112750e-01   6.53558120e-01  -2.41991430e-01
C     7.249958463300000e+00   2.493567604201674e+00   9.865340448000000e+00 -1.03914080e-01   5.44064690e-01   7.09845580e-01
C     8.503931460375000e+00   3.198405814693089e+00   9.871445624000000e+00 -2.74666572e+00   2.46864478e+00   3.95954370e-01
C     9.862940781974999e+00   4.468299317239158e+00   6.953713591999999e+00  7.96233580e-01   1.22893481e+00  -5.38731840e-01
C     3.702155596200000e+00   5.215011511577869e+00   7.012042768000001e+00 -6.35163500e-02  -1.64195910e+00  -7.77320140e-01
C     3.501420761550000e+00   4.679541137005535e+00   9.824344064000000e+00  2.71438327e+00  -1.00855451e+00   1.93338280e-01
C     4.778487973875000e+00   5.395102380687420e+00   9.887856063999999e+00 -1.24399377e+00  -1.26247377e+00  -1.68615870e-01
C     4.963119086774999e+00   4.513339566172437e+00   6.840909752000000e+00 -2.73422350e+00  -1.91214396e+00   3.73624290e-01
C     6.162546342000000e+00   5.127021875817442e+00   6.836951608000000e+00  3.05250133e+00   4.20296077e+00  -1.98360350e-01
C     6.005869623224999e+00   4.683551931575517e+00   9.937956831999999e+00  4.02168740e-01  -3.58259050e-01   4.46153920e-01
C     7.240624531274999e+00   5.404781647931867e+00   1.006294613600000e+01  4.10790960e-01  -1.42912657e+00  -4.78990030e-01
C     7.448807757825000e+00   4.472131497057425e+00   6.868428671999999e+00 -3.99130701e+00  -2.69204200e+00  -9.03071100e-02
C     8.615662515375000e+00   5.132797299598169e+00   6.950416816000001e+00  2.05485358e+00   3.53971571e+00  -1.90869710e-01
C     8.468706967799999e+00   4.656614534292522e+00   1.000185942400000e+01  2.62079430e-01  -2.54089000e-02  -3.20907060e-01
C     9.716725695750000e+00   5.404658622138376e+00   9.944261520000000e+00 -1.98000166e+00  -1.83681152e+00   2.02425910e-01
