72
Lattice="7.395 0 0 3.6975 6.40425786098592 0 0 0 13.6 " PBC="1 1 1" Properties=species:S:1:pos:R:3:force:R:3 Energy="-574.73823367"
C     3.756999763275000e+00   6.348931156134568e+00   1.342880088800000e+01 -1.11013618e+00   2.36132114e+00   5.65823390e-01
C     1.227813480375000e+00   7.807647861467454e-01   1.347493712000000e+01  1.11730611e+00  -2.87871373e+00   3.32819200e-02
C     1.329294399825000e+00   6.916407001489987e-01   3.440472784000000e+00 -3.22351298e+00   3.34990172e+00  -3.98250180e-01
C     2.448294004800000e+00   1.562958618392371e+00   3.434566304000000e+00  9.90675630e-01  -2.59242344e+00  -4.87968160e-01
C     2.452031215950000e+00   9.425530548033601e-03   1.351457146400000e+01  4.65581160e-01  -8.09280770e-01  -1.66834440e-01
C     3.680720338275000e+00   6.931948854464635e-01   1.335952398400000e+01  1.31247275e+00   1.28508892e+00   1.29198620e+00
C     3.631232480625000e+00   7.425116416083367e-01   3.432578800000000e+00  2.08755100e+00  -2.39176220e-01   4.94260150e-01
C     4.942857748125000e+00   1.425591962403609e+00   3.478143152000000e+00 -2.56542274e+00  -1.99319360e-01   7.03334900e-02
C     8.652240588750001e+00   6.397416063243005e+00   1.349110289600000e+01 -9.75450550e-01  -7.72710940e-01  -3.97645340e-01
C     6.256788813600000e+00   7.398421548045528e-01   1.354553580800000e+01 -2.79219709e+00  -4.95871633e+00  -4.81101470e-01
C     6.136074941175000e+00   7.636517125487250e-01   3.482620680000000e+00  1.93612363e+00  -2.42769095e+00   2.12858700e-01
C     7.381136519550000e+00   1.386822570639106e+00   3.400045968000000e+00  1.89667828e+00   2.67447180e+00   1.60904370e-01
C     8.594622852975000e+00   2.209949345082079e+00   1.348210812800000e+01  4.49657876e+00  -4.23406763e+00  -8.23669330e-01
C     2.439052140525000e+00   2.918369264866856e+00   1.334269004000000e+01  8.84251440e-01  -3.64089989e+00   4.21710610e-01
C     2.453160506400000e+00   3.012754384654014e+00   3.385551088000000e+00  2.49518748e+00  -4.67192221e+00   4.73540110e-01
C     3.751194133650000e+00   3.555920755896710e+00   3.520827024000000e+00 -7.75428610e-01   2.99074262e+00  -2.95902290e-01
C     3.672904784625000e+00   2.191865129822168e+00   1.333716041600000e+01  1.05636714e+00  -2.23279616e+00   1.20672519e+00
C     4.928690739900000e+00   2.863401199441583e+00   2.704482400000000e-02 -1.48321560e-01  -2.99964173e+00  -6.71219030e-01
C     4.985698720949999e+00   2.808762504998050e+00   3.574318816000000e+00 -3.32509756e+00   1.60782877e+00  -7.21911980e-01
C     6.114467712524999e+00   3.600137481311771e+00   3.524398792000000e+00  3.14899050e+00  -4.45472822e+00  -6.92597430e-01
C     6.233496042600000e+00   2.086904915201106e+00   1.007558720000000e-01 -5.32423130e+00  -1.26690750e-01  -5.74043920e-01
C     7.393200537675000e+00   2.708106848255008e+00   1.359335136800000e+01 -1.23649943e+00   6.45388590e+00   5.46223220e-01
C     7.350755493150000e+00   2.873668377557578e+00   3.355428584000000e+00  1.84472020e+00  -9.04685050e-01   6.79423960e-01
C     8.639763264074999e+00   3.621808849484225e+00   3.346192280000000e+00 -2.62099529e+00  -3.05814480e-01   5.75175690e-01
C     2.514509907075000e+00   4.257300154803096e+00   1.336435388800000e+01 -5.00151553e+00   1.67158665e+00   2.72110190e-01
C     3.694696999200000e+00   4.901447134832648e+00   1.337418383200000e+01  1.55438831e+00   3.87466485e+00   9.49296200e-01
C     3.768730118999999e+00   5.041376966944719e+00   3.505863352000000e+00 -6.05888720e-01  -9.91264240e-01   2.93182630e-01
C     5.051821668074999e+00   5.708990044369412e+00   3.446767816000000e+00 -4.14197543e+00   4.25223440e-01   3.33440490e-01
C     4.872071587950000e+00   4.239384819822954e+00   4.609801600000000e-02  2.23428263e+00   4.91461620e-01  -4.51563710e-01
C     6.119097056474999e+00   4.950019139847982e+00   9.325356800000000e-02  5.05436340e-01   2.18048490e-01  -8.50592090e-01
C     6.165942052049999e+00   4.941217448058091e+00   3.458932200000000e+00  1.29230189e+00   1.98817480e+00   1.64504130e-01
C     7.353087469424999e+00   5.643147228884966e+00   3.474581448000000e+00  2.79272840e+00   3.16515628e+00  -6.76681200e-02
C     7.298032323000000e+00   4.116751351168857e+00   1.223823200000000e-02  2.65977486e+00   5.22716095e+00  -3.71429860e-01
C     8.585203656599999e+00   4.920194703121698e+00   1.346395552800000e+01  3.23566950e-01   1.05318248e+00   4.33756810e-01
C     8.667240089100000e+00   4.986484151549301e+00   3.528344152000000e+00 -1.66309072e+00   2.69330535e+00  -5.31994040e-01
C     9.885836922149998e+00   5.756848615059142e+00   3.579837152000000e+00  4.72184650e-01  -2.15452756e+00  -8.76249830e-01
C     4.186797569999999e-02   1.176103530441840e-02   7.066864912000000e+00 -1.48775633e+00  -7.75616950e-01  -5.65509070e-01
C     1.221659139525000e+00   7.047810845113038e-01   6.904049111999999e+00  2.11835081e+00   1.85634302e+00  -7.19075750e-01
C     1.146406066575000e+00   6.639002729729371e-01   1.020949864800000e+01  5.23742364e+00  -1.05726320e-01  -6.24123600e-02
C     2.468959554150000e+00   1.423470167732013e+00   1.016711506400000e+01 -1.01345705e+00  -2.46063417e+00   6.04106710e-01
C     6.182777028375000e+00   6.403145504452297e+00   6.673898896000000e+00 -6.12223500e-01   1.93694247e+00   5.83891080e-01
C     3.800714603249999e+00   6.753228432494544e-01   6.531653095999999e+00 -1.64621268e+00  -2.15592300e-02   1.68564792e+00
C     3.729103124100000e+00   6.814562010019765e-01   1.034494295200000e+01 -3.39542013e+00  -1.20713293e+00  -1.27937600e-01
C     4.902924711150000e+00   1.398536726775989e+00   1.031622560000000e+01  6.86895900e-01  -8.45716180e-01  -4.57632040e-01
C     8.702910980850000e+00   6.397981559212043e+00   6.876599143999999e+00  3.53351010e-01   6.56502230e-01  -6.53325290e-01
C     6.239072168399999e+00   7.681269438987144e-01   7.030494976000000e+00 -2.09760664e+00  -8.01016390e-01  -1.04143709e+00
C     6.129875564774999e+00   7.304877755613439e-01   1.028155512000000e+01  1.48208469e+00   2.57275910e-01  -4.19978700e-02
C     7.413599719125000e+00   1.350707359502101e+00   1.017460254400000e+01 -3.39027171e+00   4.83789330e+00  -2.66584820e-01
C     8.608417596899999e+00   2.175616182737198e+00   6.872729808000000e+00 -1.42681340e-01  -1.34144870e-01  -9.93426700e-01
C     2.488552939425000e+00   2.808864140570288e+00   6.698562632000000e+00 -7.81536090e-01  -4.66351990e-01   2.29044560e-01
C     2.458542476475000e+00   2.827315447890734e+00   1.008880844000000e+01 -3.07184790e-01  -6.73796340e-01   5.28834640e-01
C     3.706133329725000e+00   3.442547267724966e+00   1.006695609600000e+01 -1.16749473e+00   4.05229706e+00   1.88121540e-01
C     3.764627890650000e+00   2.104229073138192e+00   6.524193360000000e+00 -2.49594215e+00  -4.33350930e-01   1.13281183e+00
C     4.916357247975000e+00   2.820768375080456e+00   6.700059855999999e+00  4.77297120e-01   2.62229456e+00   5.75252490e-01
C     4.900966847925000e+00   2.746177983785036e+00   1.013405237600000e+01  1.27745137e+00   3.35412810e+00  -1.39065530e-01
C     6.138571345274999e+00   3.528788284919298e+00   1.012359914400000e+01  8.99487670e-01  -5.08580800e-01   5.85754310e-01
C     6.144418941525000e+00   2.172069440691751e+00   6.845032728000000e+00  2.20166385e+00   1.21020644e+00   1.33417970e-01
C     7.366860509024999e+00   3.021307591238937e+00   6.821344248000000e+00  9.95861410e-01  -5.91937372e+00   6.12525090e-01
C     7.433466016874999e+00   2.866322373579265e+00   1.010739569600000e+01 -1.49718932e+00  -1.38137775e+00   8.50730140e-01
C     8.638185577800000e+00   3.604475277288085e+00   1.020817754400000e+01  2.47406170e-01  -2.71838880e+00  -5.67829070e-01
C     9.809808187649999e+00   4.208167392969541e+00   6.864471072000000e+00  3.30080259e+00   4.75302600e-01  -4.54904900e-02
C     3.639086488275000e+00   4.975941910558219e+00   6.949548864000000e+00  4.34230820e-01   3.82306060e-01   9.19041000e-03
C     3.650827714649999e+00   4.957127417774532e+00   1.008215763200000e+01 -3.12150690e-01  -3.58602250e-01   1.04492628e+00
C     4.851455067450000e+00   5.664618463999295e+00   1.021453976000000e+01  1.86228876e+00  -1.10365138e+00  -1.79835150e-01
C     4.849264150800000e+00   4.308095718147421e+00   6.868152592000000e+00  2.13681225e+00  -1.80881249e+00  -8.79935610e-01
C     6.097142188874999e+00   5.036395158798004e+00   6.782492584000000e+00  1.60951957e+00  -1.12370657e+00  -9.74854500e-02
C     6.143482105950000e+00   4.947536529288553e+00   1.028093808800000e+01 -9.41815450e-01  -5.08135330e-01  -2.07941250e-01
C     7.402743378449999e+00   5.588051590643122e+00   1.046769818400000e+01 -2.02732017e+00   3.70000845e+00  -1.20363250e+00
C     7.420446971475000e+00   4.379878162584125e+00   6.758105744000000e+00 -3.06992808e+00  -7.05018160e-01   3.29271050e-01
C     8.669698150124999e+00   4.948471102638064e+00   6.880669623999999e+00 -1.35503445e+00   3.06754653e+00  -1.71140840e-01
C     8.629425978450000e+00   4.974064502366560e+00   1.039830078400000e+01  2.03500750e-01   5.80259240e-01  -7.62065400e-01
C     9.797886966975000e+00   5.779213500315255e+00   1.026337654400000e+01  2.15133559e+00  -4.93716510e+00  -2.52522460e-01
