72
Lattice="7.395 0 0 3.6975 6.40425786098592 0 0 0 13.6 " PBC="1 1 1" Properties=species:S:1:pos:R:3:force:R:3 Energy="-580.78926921"
C     3.684030340275000e+00   6.340893684435111e+00   1.350520528000000e+01 -1.41383194e+00  -2.10668222e+00   2.78984810e-01
C     1.165909676550000e+00   6.143347113932028e-01   1.351341274400000e+01  2.68289355e+00   2.74797760e-01   8.42535600e-02
C     1.268326655100000e+00   8.349082393299649e-01   3.544105192000000e+00  1.17159271e+00  -5.16697960e-01   1.96436470e-01
C     2.537984927850000e+00   1.501546524665788e+00   3.593636663999999e+00 -5.65013100e-01   1.42675016e+00   2.42016550e-01
C     6.097756454550000e+00   6.303857028677209e+00   1.346050643200000e+01  1.94784427e+00   2.98001300e-02  -2.19664100e-02
C     3.668855615400000e+00   6.479112106719253e-01   1.348747958400000e+01  9.01777800e-02  -1.68873358e+00   4.24967500e-01
C     3.769657932675000e+00   8.170333792594974e-01   3.566581504000000e+00 -5.60159420e-01   5.10337580e-01  -4.77947850e-01
C     4.957572910724999e+00   1.561719586624197e+00   3.458154008000000e+00  2.03116914e+00  -5.11519670e-01   6.27677640e-01
C     8.624834940600000e+00   6.285848511745203e+00   1.343014620000000e+01 -7.96425570e-01   1.95264019e+00   6.41474330e-01
C     6.166016704575000e+00   6.258977910871686e-01   1.343538764000000e+01 -1.73983292e+00   2.52721290e-01   2.24964200e-02
C     6.235062488474999e+00   8.530219782186103e-01   3.437066120000000e+00 -4.80848060e-01  -9.00664180e-01   2.21502650e-01
C     7.477351459499999e+00   1.592915943469251e+00   3.542970408000000e+00 -1.78390741e+00  -3.46412616e+00  -4.46347660e-01
C     1.211402607300000e+00   2.017573316204847e+00   1.355327760800000e+01 -1.39274100e-02   1.33647626e+00  -2.51725700e-01
C     2.456126197200000e+00   2.725276087194461e+00   7.999928000000000e-03 -1.03868137e+00   1.64327016e+00   3.28886590e-01
C     2.562689811075000e+00   2.949089849395490e+00   3.629825720000000e+00 -2.40357821e+00   5.63780520e-01  -9.41667460e-01
C     3.755216606925000e+00   3.706063265890386e+00   3.429886136000000e+00 -6.74412800e-02  -2.86620291e+00   1.35274310e+00
C     3.695147354700000e+00   2.082805293574606e+00   4.809830400000000e-02 -7.79017140e-01  -2.51876291e+00  -1.87579907e+00
C     4.881876026850000e+00   2.746875471508568e+00   1.336478596000000e+01  1.46038818e+00   9.35345440e-01   1.13706587e+00
C     4.970777163900000e+00   2.981301409196511e+00   3.499491072000000e+00  1.40276875e+00   1.59445170e-01  -1.06610420e+00
C     6.259434707625000e+00   3.665850546531974e+00   3.463075304000000e+00 -3.08763200e+00   1.41725484e+00   5.07672030e-01
C     6.123502516799999e+00   2.058802263200483e+00   1.334982541600000e+01  1.41173358e+00  -3.87801030e-01   4.11660110e-01
C     7.399714386450000e+00   2.774957757969197e+00   1.342480548000000e+01 -1.05522388e+00  -7.78177710e-01  -5.81880970e-01
C     7.434389171699999e+00   2.953216048692109e+00   3.575539688000000e+00  1.74812441e+00   2.02997654e+00   9.25384400e-02
C     8.655015562499999e+00   3.680888704625933e+00   3.640841448000000e+00  2.12405487e+00  -2.64587390e-01  -1.27663796e+00
C     2.429962391400000e+00   4.172516170314492e+00   1.359237570400000e+01  1.64918303e+00  -4.58110100e-01   1.35985590e-01
C     3.694521626775000e+00   4.902892383703914e+00   1.359188936800000e+01 -6.44221190e-01  -6.20872270e-01  -1.08080834e+00
C     3.743742340050000e+00   5.071746213887153e+00   3.435905904000000e+00  2.39021770e-01   1.75510556e+00  -1.71894080e-01
C     4.952038714575000e+00   5.800725146296681e+00   3.488305752000000e+00  1.41846402e+00   7.04171300e-01  -7.10403200e-02
C     4.921445821424999e+00   4.165432228567811e+00   1.339437915200000e+01 -8.00809670e-01   3.65763350e-01   4.77960660e-01
C     6.157325471999999e+00   4.849533580193703e+00   1.333856543200000e+01 -4.69096180e-01   2.27719640e+00   1.25400590e-01
C     6.226691940075000e+00   5.123846964983347e+00   3.495707960000000e+00 -3.27122710e-01  -1.11529423e+00   1.83314000e-01
C     7.467353974124999e+00   5.825344906702721e+00   3.552797904000000e+00 -8.75670090e-01  -4.05267360e-01  -8.65832260e-01
C     7.410619792950000e+00   4.199360257560468e+00   1.331298532800000e+01 -1.11453240e+00  -1.63353329e+00   1.33937300e+00
C     8.608089850499999e+00   4.871803746476067e+00   1.351773931200000e+01  6.83723690e-01   1.16552036e+00  -1.01064667e+00
C     8.667216203250000e+00   5.111508713918007e+00   3.431909952000000e+00  9.66089450e-01  -1.57945858e+00   1.41331329e+00
C     9.928688839574999e+00   5.766074012549050e+00   3.413792032000000e+00 -1.00372177e+00   3.03911938e+00   1.11771200e-02
C     7.418183916599999e+00   6.988672006756441e-02   6.731698352000000e+00  5.83088800e-02   8.68325060e-01   2.99052660e-01
C     1.267619877975000e+00   7.873098095945082e-01   6.862560951999999e+00 -2.76485150e-01   1.48756200e-01   8.14797900e-02
C     1.175688972450000e+00   6.179701524100105e-01   1.014995784800000e+01 -1.47996856e+00  -6.46879430e-01  -6.45232820e-01
C     2.424621870300000e+00   1.316448870803867e+00   1.020689479200000e+01 -1.89699059e+00  -2.01805690e-01  -3.94155960e-01
C     2.487077636925000e+00   4.556123531019060e-02   6.977260904000000e+00  5.53576710e-01   2.33049568e+00  -5.35996150e-01
C     3.729457825275000e+00   7.919385510054019e-01   7.023829888000001e+00 -6.81251080e-01   6.55684730e-01  -3.52387570e-01
C     3.610019220600000e+00   6.239290581784260e-01   1.004392327200000e+01  1.88718674e+00  -1.18458042e+00   9.85781040e-01
C     4.857132024075000e+00   1.296209430646330e+00   1.013556823200000e+01 -5.93719300e-02   7.74048330e-01  -1.07012384e+00
C     4.955776665224999e+00   9.598131701618461e-02   6.854854919999999e+00 -1.17027501e+00  -6.43081400e-01  -1.49785410e-01
C     6.149781943424999e+00   7.786841708531886e-01   6.722318840000000e+00  2.48963870e+00   1.02105391e+00   1.11297717e+00
C     6.100472231325000e+00   5.723307851539279e-01   1.001993151200000e+01 -6.25609210e-01   1.78644979e+00   7.29248840e-01
C     7.290603269024999e+00   1.335773142513210e+00   1.008550867200000e+01  2.20188555e+00  -1.83737370e+00   6.78011710e-01
C     8.677958402100000e+00   2.243201340615035e+00   6.897512544000000e+00 -4.12876200e-01  -2.17700578e+00   6.55573970e-01
C     2.471027713800000e+00   2.961294763812185e+00   7.060696223999999e+00  1.85751858e+00  -3.73039460e-01  -1.46368131e+00
C     2.401053080925000e+00   2.711559511752491e+00   1.026737807200000e+01 -6.95580940e-01   2.16629054e+00  -6.40639190e-01
C     3.629238270975000e+00   3.467053032341098e+00   1.026600841600000e+01 -5.22009060e-01  -1.02716748e+00  -6.42562600e-01
C     3.730742891399999e+00   2.246534116405379e+00   7.068224368000000e+00 -6.63436090e-01  -1.23726476e+00  -3.78920970e-01
C     4.965818779425000e+00   2.930176410827866e+00   6.973378783999999e+00  3.86866670e-01   2.31161070e-01  -3.04924190e-01
C     4.845585027375000e+00   2.742200555398504e+00   1.015104122400000e+01  1.17867318e+00  -3.55257440e-01   5.64554040e-01
C     6.120263913524999e+00   3.440948764963110e+00   1.010340314400000e+01 -2.13317742e+00   7.16926610e-01   3.10121620e-01
C     6.202402988625000e+00   2.199841632986798e+00   6.894448735999999e+00 -6.53788470e-01  -2.78890020e-01  -5.28650220e-01
C     7.443206267175000e+00   2.889914762939405e+00   6.906570960000000e+00 -9.35854460e-01   1.81464844e+00  -2.79594130e-01
C     7.315251913274999e+00   2.734364945906794e+00   1.016440077600000e+01 -3.22464150e-01  -1.68033960e-01  -9.37820740e-01
C     8.514499987650000e+00   3.430165467706178e+00   1.011334855200000e+01  2.87910597e+00   8.58971790e-01   9.18813390e-01
C     9.905294091525001e+00   4.358283645505990e+00   6.832694671999999e+00 -1.03139525e+00   3.96941550e-01   9.07362910e-01
C     3.736867985025000e+00   5.060537289652846e+00   6.807965383999999e+00  3.32631340e-01  -4.26192500e-02  -1.83078750e-01
C     3.622318436700000e+00   4.888567403765245e+00   1.018667852800000e+01  2.55514560e-01  -1.24147384e+00  -4.84609070e-01
C     4.825460052525000e+00   5.566703957705491e+00   1.008152074400000e+01  2.79180783e+00   1.57605658e+00   6.94185970e-01
C     4.973963669400000e+00   4.356113178474658e+00   6.870962352000000e+00 -3.73757550e-01  -3.23500590e-01   3.32684730e-01
C     6.201078248325000e+00   5.064815718158797e+00   6.893144904000000e+00 -9.59718100e-02  -1.35354659e+00   2.27461740e-01
C     6.109413895575000e+00   4.862021050467181e+00   1.007369244800000e+01 -6.97872840e-01   4.73935650e-01  -2.45252230e-01
C     7.339561792574999e+00   5.600136105012049e+00   9.992281216000000e+00 -7.25463270e-01  -4.93601510e-01   4.31077910e-01
C     7.421725677900000e+00   4.336063880732985e+00   6.922472895999999e+00  1.04492574e+00   2.39483600e-01  -3.68616080e-01
C     8.663750092800001e+00   5.083683750538193e+00   6.839038120000000e+00 -5.42400900e-01  -1.36044081e+00   1.55074180e-01
C     8.563404084000000e+00   4.876199757156328e+00   1.002711258400000e+01  1.05562010e-01  -5.28099060e-01   3.10968540e-01
C     9.824828024249999e+00   5.583247628737179e+00   1.006325825600000e+01 -2.08240088e+00  -5.99977690e-01   6.04030700e-02
