72
Lattice="7.395 0 0 3.6975 6.40425786098592 0 0 0 13.6 " PBC="1 1 1" Properties=species:S:1:pos:R:3:force:R:3 Energy="-557.90017701"
C     1.092841962907500e+01   6.251762041413089e+00   1.355988516800000e+01  3.70379165e+00   2.42822038e+00  -2.59709173e+00
C     1.298290344675000e+00   4.507276335043482e-01   1.349520207200000e+01 -4.97872404e+00   3.40487483e+00   4.29123500e-02
C     1.290091397250000e+00   9.295584313499484e-01   3.836937264000000e+00  8.66787460e-01   1.51357700e-01   1.00809700e-02
C     2.619421256100000e+00   1.508734663687852e+00   3.977633072000000e+00 -6.74890090e-01   2.38480827e+00  -8.56830130e-01
C     6.248572081199999e+00   6.163450463610040e+00   1.330753771200000e+01 -5.56256854e+00   5.52726384e+00   1.93856608e+00
C     3.691453626150000e+00   4.729392008272932e-01   1.346193320800000e+01 -4.10013388e+00   2.20984699e+00  -5.32218500e-02
C     3.937246454624999e+00   9.771279138398778e-01   3.756020664000000e+00 -9.29801270e-01  -3.03190090e-01   9.65303800e-02
C     5.221708482075000e+00   1.693351037571593e+00   3.686427288000000e+00 -6.92556730e+00   2.06912239e+00  -1.73804950e+00
C     8.521338957599999e+00   6.335896121814059e+00   1.330134780800000e+01  5.23355862e+00  -7.09320218e+00  -9.45911630e-01
C     5.956819142850000e+00   5.667903976366633e-01   1.316855808800000e+01  9.08176266e+00   3.55214681e+00   1.25860963e+00
C     6.297673365225000e+00   8.977919674701980e-01   3.503535439999999e+00  7.96857020e-01   4.33796951e+00   6.28118800e-01
C     7.441246924950000e+00   1.589680640483536e+00   3.813073888000000e+00  4.70013047e+00   4.86359006e+00   5.25943580e-01
C     1.230815813400000e+00   1.956017895187356e+00   1.354491401600000e+01 -1.43961509e+00   4.42847600e-02  -9.70686040e-01
C     2.427181390725000e+00   2.645232790544144e+00   2.371252480000000e-01  2.41503190e+00  -6.94450800e-02  -1.70170935e+00
C     2.558122252350000e+00   2.899482147799037e+00   3.955386600000000e+00  5.19845315e+00   1.35014889e+00  -8.00014290e-01
C     3.741330867525000e+00   3.672247119282542e+00   3.637248464000000e+00  1.61803098e+00   3.10738647e+00  -1.52873147e+00
C     3.685004002950000e+00   1.791510058430493e+00   1.357945339200000e+01 -3.08139430e-01   9.52905527e+00  -6.50492000e-03
C     4.888777151775000e+00   2.705873811624384e+00   1.311952954400000e+01 -1.04316182e+00  -5.13285240e-01   1.55546775e+00
C     5.047356788925000e+00   3.143550400163574e+00   3.390519576000000e+00  1.74756213e+00  -1.88374952e+00   3.80008640e+00
C     6.283455553350000e+00   3.937325820408381e+00   3.605218560000000e+00  1.73716416e+00  -3.64424205e+00   7.63439430e-01
C     6.134155051274999e+00   1.995462679985775e+00   1.294101553600000e+01 -4.82733460e-01   1.19462268e+00   1.56025317e+00
C     7.405123163399999e+00   2.784996688335061e+00   1.307220644000000e+01  8.35968420e-01  -3.33235748e+00   1.77248161e+00
C     7.637355151800000e+00   3.240063142496981e+00   4.039150224000000e+00 -7.40223237e+00  -5.39966064e+00  -2.93019559e+00
C     8.896315299899999e+00   3.719038228272167e+00   4.014669952000000e+00 -4.19444786e+00   4.41811815e+00  -1.27868038e+00
C     2.537150586975000e+00   4.103399177999122e+00   2.318298160000000e-01 -4.43054949e+00  -4.17120560e-01  -2.85412238e+00
C     3.666462963150000e+00   4.880208054065744e+00   1.237151200000000e-02  1.49445986e+00  -2.30099779e+00  -3.50074500e-01
C     3.734175650400000e+00   5.250663118488387e+00   3.416075336000000e+00  4.32421060e-01  -2.20702610e+00   1.36975575e+00
C     4.946566636425000e+00   5.980572717650131e+00   3.640844576000000e+00  1.08118621e+00  -3.55571952e+00  -1.30842318e+00
C     4.855194608025000e+00   4.187521922863680e+00   1.317729540800000e+01  1.60380728e+00  -4.24415930e-01  -3.43388700e-01
C     6.129474053250000e+00   4.988479205957848e+00   1.282478422400000e+01  7.56502340e-01  -9.94812120e+00   1.58068874e+00
C     6.236953094175000e+00   5.278227108360406e+00   3.643227976000000e+00  2.63478360e-01   3.23498410e+00   7.09587500e-02
C     7.525893089924999e+00   5.996212043429408e+00   3.649245704000000e+00  1.06838208e+00  -4.35516000e+00   7.53207570e-01
C     7.487969163524999e+00   4.213630545137013e+00   1.308241432800000e+01 -2.43142400e+00  -1.48848364e+00  -1.60633147e+00
C     8.694289852875000e+00   4.897081160121751e+00   1.328014309600000e+01 -3.02919680e-01  -2.33157330e+00   2.81356274e+00
C     8.769332501099999e+00   5.147367050272247e+00   3.652011808000000e+00 -1.96691410e-01   2.96517852e+00  -5.23743570e-01
C     9.908964082124999e+00   5.997086096542141e+00   3.341829944000000e+00  9.21478350e-01  -7.55914828e+00   1.56404437e+00
C     7.429508767500000e+00   2.039178464351028e-01   6.573246112000000e+00  1.14919130e-01  -2.48398156e+00   6.71626230e-01
C     1.304968769175000e+00   8.072668860229973e-01   6.854523896000000e+00 -2.36457117e+00   1.17955334e+00   1.76059810e-01
C     1.069193281650000e+00   4.852653478452780e-01   9.907211719999999e+00  2.43976133e+00   5.57553460e-01   1.46363535e+00
C     2.236029699600000e+00   1.149496656906998e+00   1.019495793600000e+01  4.74905873e+00   2.73386896e+00  -1.29691314e+00
C     2.460429384675000e+00   2.082940679585766e-01   7.193290375999999e+00  1.56911553e+00  -5.88762034e+00  -1.21722829e+00
C     3.611173247325000e+00   9.679508684968123e-01   7.402111304000000e+00  1.96003555e+00  -2.61044594e+00  -2.71337124e+00
C     3.609042119250000e+00   4.357784945946432e-01   9.850442056000000e+00 -2.57945453e+00   3.97496416e+00   1.71323374e+00
C     4.825751785275000e+00   1.301951616328763e+00   9.888924343999999e+00 -2.59590740e-01  -4.16637439e+00   4.08235900e-01
C     4.691162045774999e+00   2.116733386609842e-01   6.809005104000000e+00  4.98205733e+00  -9.89912040e-01   8.69936300e-01
C     6.096992735924999e+00   8.780755630520873e-01   6.577650879999999e+00 -1.27109754e+00  -3.98520544e+00   1.62988565e+00
C     5.994444348224999e+00   4.692027646640335e-01   9.780908792000000e+00  1.07278661e+00  -8.99973020e-01   1.24282445e+00
C     7.269229500525000e+00   1.146585729581893e+00   9.981090183999999e+00 -4.49155121e+00   2.18078682e+00  -1.01099480e+00
C     1.341387036600000e+00   2.170336256387099e+00   7.014630032000000e+00 -1.04711497e+00   5.28015348e+00   3.21619690e-01
C     2.590803086775000e+00   3.097528762755828e+00   7.207416696000000e+00 -5.33417968e+00   1.06456880e-01  -4.98075170e-01
C     2.273469142575000e+00   2.684824553060450e+00   1.036055520800000e+01  3.01880491e+00  -4.91336007e+00  -6.70842150e-01
C     3.552248815050000e+00   3.320619228074148e+00   1.033124244800000e+01  6.97937650e-01   1.63699143e+00  -9.28166510e-01
C     3.684481102499999e+00   2.351207740487206e+00   7.506450776000000e+00  3.69226255e+00   2.20385152e+00  -3.10817545e+00
C     4.987863311400000e+00   3.005637845234825e+00   7.142794664000000e+00 -1.52683476e+00  -2.61288027e+00   2.67349900e-01
C     4.818569724300000e+00   2.714515525052932e+00   1.008467988800000e+01 -4.58680378e+00  -4.23957375e+00   9.87572920e-01
C     5.937787112025000e+00   3.389946536217642e+00   1.001508556000000e+01  6.76006496e+00  -2.76020510e-01  -1.27013418e+00
C     6.113587078949999e+00   2.177855751710839e+00   6.895559039999999e+00  2.85074222e+00   3.96186235e+00   8.37096400e-01
C     7.452671719274999e+00   2.831111507694670e+00   7.003722560000000e+00  4.10686540e-01   9.17756390e-01  -4.36523550e-01
C     7.193096940224999e+00   2.610120678315750e+00   9.986665503999999e+00  1.61680702e+00  -7.30370400e-01   7.00530680e-01
C     8.519109882750000e+00   3.319439691861493e+00   1.008987032800000e+01 -5.44470253e+00  -6.01875430e-01  -1.04726881e+00
C     9.886370175600000e+00   4.576703997907642e+00   6.958803120000000e+00  2.48169859e+00  -2.97457507e+00  -9.74431400e-01
C     3.870058997250000e+00   5.168991539277166e+00   6.719666568000000e+00 -4.16855245e+00   1.67707700e-01   9.74289350e-01
C     3.640949362725000e+00   4.730578525126655e+00   1.016485501600000e+01 -1.61206939e+00   6.88000630e-01  -1.24482072e+00
C     4.974301029299999e+00   5.535986255092894e+00   9.944195424000000e+00 -7.37713191e+00  -3.50059514e+00   2.46520450e-01
C     5.096704992000000e+00   4.361755073479004e+00   6.900252672000000e+00 -3.00429893e+00   2.39322035e+00   2.49894370e-01
C     6.300329981999999e+00   5.034249412202010e+00   7.012309192000000e+00 -5.36690230e-01   2.70234290e+00   8.23878100e-02
C     6.064911044400000e+00   4.765745649930065e+00   9.772239336000000e+00 -7.41501900e-02   8.33938820e-01   1.39347800e+00
C     7.238883970125000e+00   5.475550362391910e+00   9.613274103999998e+00  3.87460425e+00  -1.80016393e+00   1.39319236e+00
C     7.501399112100000e+00   4.266462022055033e+00   7.077121080000000e+00 -2.65029600e+00   8.25820010e-01  -8.21277350e-01
C     8.547635688525000e+00   5.131060336781379e+00   6.850706648000000e+00  3.19405230e+00   1.91344245e+00   4.88514600e-01
C     8.477223604424999e+00   4.643942109052047e+00   9.710930127999999e+00  2.94953700e-02   2.37161961e+00   1.36832551e+00
C     9.696031194974999e+00   5.270337190762044e+00   9.867008080000000e+00  2.63482550e+00   6.13092289e+00   5.55265200e-02
