72
Lattice="7.395 0 0 3.6975 6.40425786098592 0 0 0 13.6 " PBC="1 1 1" Properties=species:S:1:pos:R:3:force:R:3 Energy="-582.053866"
C     3.672455242575000e+00   6.235219843360709e+00   1.958695120000000e-01 -1.76913210e-01   1.93951820e-01  -8.05198080e-01
C     1.200765417450000e+00   5.296346867251440e-01   1.852579760000000e-01  7.32518260e-01   7.42218200e-02  -2.99016730e-01
C     1.334609814900000e+00   9.217729031547037e-01   3.405014864000000e+00 -6.39771930e-01  -3.88386640e-01  -1.73036170e-01
C     2.586544971825000e+00   1.592612829944737e+00   3.502030736000000e+00 -1.23405479e+00   1.63748749e+00  -4.28670150e-01
C     6.137875364849999e+00   6.230151833903197e+00   7.751292799999999e-02  2.96747440e-01  -2.61846130e-01   3.18409220e-01
C     3.674848819199999e+00   5.223631642657428e-01   1.580028960000000e-01  1.00419122e+00   4.38651260e-01  -9.49177650e-01
C     3.801633395025000e+00   8.998951257514218e-01   3.436251208000000e+00  1.33026761e+00   1.84767988e+00  -2.26220920e-01
C     5.030767104750001e+00   1.652337081512317e+00   3.362191728000000e+00  6.15333770e-01  -3.91611010e-01  -5.89347740e-01
C     8.641954550474999e+00   6.222088937300036e+00   6.486166400000000e-02 -1.59731132e+00   1.02031550e+00   1.20262760e-01
C     6.145322869350000e+00   5.635500993298177e-01   7.512245600000000e-02  4.00073100e-01  -8.37182590e-01   2.87096740e-01
C     6.287298402075000e+00   9.343742411329327e-01   3.258398840000000e+00 -1.82008149e+00   5.80890000e-04   2.56182800e-01
C     7.491013019475000e+00   1.640863661428392e+00   3.347367048000000e+00  1.15618002e+00   5.47655610e-01   3.85476830e-01
C     1.233443589675000e+00   1.948163265049802e+00   2.195049520000000e-01 -9.17576100e-01   5.79570540e-01  -3.19214570e-01
C     2.464977494550000e+00   2.654539137853403e+00   3.260514320000000e-01 -2.80084620e-01   2.39187350e-01  -1.10384704e+00
C     2.563573328700000e+00   3.046761250060928e+00   3.469953640000000e+00  1.06765949e+00  -1.03868064e+00  -1.60711680e-01
C     3.820028087774999e+00   3.750101504638890e+00   3.357433632000000e+00 -2.11034176e+00   8.01381120e-01  -4.97460350e-01
C     3.696589379700000e+00   1.956438911099073e+00   1.887295120000000e-01 -6.51889680e-01  -4.11588790e-01   6.98381990e-01
C     4.901252220975000e+00   2.685013478667320e+00   1.018582880000000e-01  9.12983220e-01  -5.28221280e-01  -6.24721220e-01
C     5.045995813125000e+00   3.091200075138576e+00   3.268320992000000e+00 -1.92378490e-01  -1.95930808e+00   1.23393270e+00
C     6.263472562500001e+00   3.781991058354710e+00   3.330475848000000e+00  1.21384280e+00   1.08737341e+00   3.13220760e-01
C     6.132992668200000e+00   1.969996340733221e+00   3.239792000000000e-03  9.98045590e-01   7.03752950e-01   5.70950460e-01
C     7.396420283700000e+00   2.689210252885557e+00   4.935725600000000e-02 -2.03622200e-01  -1.06643976e+00   4.87912820e-01
C     7.505488103399999e+00   3.071608489706157e+00   3.452751000000000e+00 -1.48252917e+00  -9.61164440e-01  -8.42060640e-01
C     8.722432560674999e+00   3.747860270558204e+00   3.451566984000000e+00  1.05186298e+00   9.17968050e-01   3.79774100e-02
C     2.447987962725000e+00   4.075442030737077e+00   2.743692560000000e-01  1.92327570e-01   9.96096430e-01  -9.24630210e-01
C     3.679596594075000e+00   4.816641247782164e+00   2.238629360000000e-01  5.29677590e-01  -9.23221740e-01  -5.36859050e-01
C     3.763896377250000e+00   5.168034871238040e+00   3.227317808000000e+00  8.89712760e-01   6.81421370e-01   6.11854570e-01
C     4.982549042550000e+00   5.903716820136736e+00   3.314129192000000e+00  1.89032176e+00  -1.10633050e-01   1.65445010e-01
C     4.936900003350000e+00   4.090737255741537e+00   6.123563199999999e-02 -9.21745020e-01   1.21258444e+00   4.02350550e-01
C     6.176059114575000e+00   4.809315929556739e+00   1.354356136000000e+01 -1.08645899e+00  -6.70518000e-02   1.01907874e+00
C     6.274172351024999e+00   5.226370167360943e+00   3.379383896000000e+00 -1.32766767e+00  -9.75196570e-01  -4.35619280e-01
C     7.513897919249999e+00   5.923891641332466e+00   3.378739800000000e+00 -3.64439090e-01  -2.01770835e+00   4.37947160e-01
C     7.403761189274999e+00   4.103718494296021e+00   2.666756000000000e-02 -3.20709810e-01   7.38117800e-02  -5.77800080e-01
C     8.619981417224999e+00   4.820823996675687e+00   5.735949600000000e-02  1.11559247e+00  -1.23415294e+00   1.13616933e+00
C     8.731301088375000e+00   5.170141808031401e+00   3.367159536000000e+00  1.25154030e-01   1.19542135e+00  -6.12355870e-01
C     9.951773626200000e+00   5.914639538087281e+00   3.193439120000000e+00 -2.91350500e-01  -1.13867993e+00   1.21343202e+00
C     7.390282988325000e+00   1.550240915048826e-01   6.607267736000000e+00  1.49954747e+00  -1.13228820e+00   5.08837360e-01
C     1.255982847150000e+00   8.526903017040409e-01   6.708794591999999e+00 -3.74412720e-01  -7.79132560e-01   4.61013700e-02
C     1.120592044275000e+00   5.454193251152647e-01   1.017216284000000e+01  1.07353114e+00  -7.57864000e-03   5.44208390e-01
C     2.366893172550000e+00   1.255859339956822e+00   1.032197486400000e+01 -7.60593240e-01  -4.64090200e-02  -3.13474370e-01
C     2.488015285950000e+00   1.289676639331080e-01   6.728617136000000e+00 -5.84488180e-01  -5.02847890e-01   5.27284200e-02
C     3.690804234225000e+00   8.677575351286843e-01   6.780849568000000e+00  1.23413330e-01  -2.12583010e-01  -5.25944270e-01
C     3.593318796300000e+00   5.345911980533123e-01   1.028653666400000e+01 -5.66489320e-01   7.87608540e-01  -9.59315700e-01
C     4.807549362524999e+00   1.241316359080598e+00   1.016344347200000e+01  1.28078732e+00   8.13551710e-01   8.94388700e-01
C     4.892818741125000e+00   1.462360407842334e-01   6.597968872000000e+00  1.63673062e+00  -3.48556130e-01   9.98752300e-01
C     6.160942181625000e+00   8.326659165254431e-01   6.626763879999999e+00 -8.54731480e-01  -7.15324700e-02  -7.11870800e-02
C     6.039926297399999e+00   5.270193159002772e-01   1.010826419200000e+01  5.92483430e-01  -6.41749500e-02   7.50610200e-02
C     7.292346640274999e+00   1.242656514080381e+00   1.013687002400000e+01 -1.50376838e+00  -3.57586800e-02  -1.06931440e-01
C     8.662895082899999e+00   2.254770632439125e+00   6.787114000000000e+00 -5.53558940e-01   1.06386568e+00  -3.01035090e-01
C     2.481820642350000e+00   3.011638122509016e+00   6.795041440000000e+00 -2.50933180e-01  -3.57236010e-01   4.43770350e-01
C     2.349450438150000e+00   2.690815287990430e+00   1.036231980800000e+01  1.17005340e-01  -1.18923753e+00  -5.37125420e-01
C     3.574582713375000e+00   3.396002530535215e+00   1.030959682400000e+01  1.41896860e+00  -3.58215650e-01  -9.56401900e-02
C     3.691320959850000e+00   2.291049728534767e+00   6.855442168000000e+00  1.56852443e+00   4.66864190e-01  -7.83917020e-01
C     4.973536571175000e+00   3.002691310236018e+00   6.776411887999999e+00 -1.65921659e+00  -1.51582251e+00  -1.50788710e-01
C     4.848954854924999e+00   2.680839567649643e+00   1.025359243200000e+01 -2.10434617e+00  -3.73193060e-01  -4.30062220e-01
C     6.056070839549999e+00   3.392492677015042e+00   1.016212984800000e+01 -2.52687770e-01  -1.33153210e-01  -1.62564410e-01
C     6.171108679725000e+00   2.235280106195737e+00   6.708635200000000e+00  4.53137170e-01   1.59880517e+00   3.74234540e-01
C     7.414710522075000e+00   2.956481259562030e+00   6.765590231999999e+00  1.65104470e-01  -4.78336080e-01  -3.39847820e-01
C     7.247205896400000e+00   2.655972666932786e+00   1.013710136000000e+01  2.19646159e+00   2.72953000e-01   6.27671930e-01
C     8.509724259674998e+00   3.357637311484256e+00   1.024749174400000e+01 -7.32914730e-01   1.22296451e+00  -6.65428430e-01
C     9.877520024475000e+00   4.439397285772450e+00   6.733384888000000e+00  9.37185970e-01  -6.57805700e-01  -4.96571720e-01
C     3.749631718050000e+00   5.116872792216386e+00   6.657984991999999e+00 -1.84966320e+00   1.07413783e+00   1.29161980e-01
C     3.586041007050000e+00   4.804716327519108e+00   1.020971230400000e+01  7.66932350e-01   1.38450680e-01  -2.10415900e-02
C     4.828589986275000e+00   5.528097041962896e+00   1.016667483200000e+01 -6.20037100e-02  -6.02826570e-01  -8.27486700e-02
C     4.959206983874999e+00   4.410938941290281e+00   6.696429744000000e+00  6.10826040e-01  -4.09511280e-01   2.85978910e-01
C     6.200396059575000e+00   5.084294140354830e+00   6.697691959999999e+00  2.50773400e-02   1.48350294e+00  -8.01864200e-02
C     6.067795649024999e+00   4.809194632912870e+00   1.012815745600000e+01 -4.72919810e-01   9.33491990e-01   4.29565660e-01
C     7.286733687374999e+00   5.551058996179297e+00   1.013009668000000e+01  6.19090860e-01  -2.02622956e+00   3.62691770e-01
C     7.425018856274999e+00   4.371627813353401e+00   6.720050904000000e+00 -4.13628000e-03   4.96189780e-01  -2.95640000e-02
C     8.649379906949999e+00   5.120282803356521e+00   6.648241543999999e+00 -9.80373240e-01   3.11360060e-01   2.90372340e-01
C     8.533202201475000e+00   4.798197753656307e+00   1.013452919200000e+01 -1.02753113e+00  -1.91130690e-01   4.38045830e-01
C     9.759498079949999e+00   5.497249461000898e+00   1.014271326400000e+01 -5.37610500e-01   8.75148320e-01   6.20159700e-02
